chitosan Film  in water:acetic acid 2%
11118
    1CHTO  H203    1   4.355   7.362   2.163 -0.0227 -0.1926  1.5333
    1CHTO   O82    2   4.443   7.335   2.149 -0.1515  0.3171 -0.4128
    1CHTO  C123    3   4.505   7.304   2.283 -0.1332  0.1557  0.0461
    1CHTO  H227    4   4.463   7.380   2.352  0.6568  2.4091 -1.8785
    1CHTO   O77    5   4.456   7.171   2.305  0.2506  0.5226  0.0613
    1CHTO  C118    6   4.483   7.114   2.437 -0.3409 -0.1315 -0.4774
    1CHTO  H222    7   4.454   7.184   2.517  1.6273  0.5055 -0.3002
    1CHTO  C125    8   4.409   6.978   2.464 -0.5098  0.1060 -0.0481
    1CHTO   O84    9   4.267   7.003   2.468  0.0661  0.2738  0.1076
    1CHTO  H205   10   4.239   7.037   2.385 -0.4002  0.8386  0.5013
    1CHTO  C114   11   4.636   7.101   2.447  0.3443 -0.1635  0.0163
    1CHTO  H218   12   4.676   7.041   2.366 -3.4653 -0.7330 -1.5515
    1CHTO  C116   13   4.702   7.238   2.435 -0.1792  0.4869 -0.2825
    1CHTO  H220   14   4.673   7.312   2.513  0.5960  1.3444 -0.7988
    1CHTO   O79   15   4.846   7.234   2.442  0.1065 -0.3773  0.0535
    1CHTO  H201   16   4.873   7.219   2.531  2.4104 -0.3674 -0.6084
    1CHTO  C120   17   4.664   7.305   2.289  0.0293  0.3971 -0.2727
    1CHTO  H224   18   4.700   7.229   2.216 -1.1712  0.7056 -1.2067
    1CHTO   N21   19   4.718   7.443   2.266  0.3747  0.1622  0.0365
    1CHTO  H211   20   4.813   7.439   2.215  0.9771  1.2856  1.0343
    1CHTO  H212   21   4.728   7.486   2.364  0.5169 -2.5953  1.2816
    1CHTO   O75   22   4.649   7.034   2.580  0.1331 -0.5097  0.2687
    1CHTO  C112   23   4.767   6.897   2.569  1.0168  0.3926  0.5741
    1CHTO  H216   24   4.821   6.912   2.474  1.7404  2.0788  1.2297
    1CHTO   O73   25   4.688   6.772   2.566 -0.1984  0.5154 -0.7216
    1CHTO  C113   26   4.773   6.657   2.530  0.9301  0.1067 -0.4778
    1CHTO  H217   27   4.821   6.672   2.431  0.9856  3.5223  0.0228
    1CHTO  C124   28   4.683   6.531   2.526  1.0571  0.1335 -0.3546
    1CHTO   O83   29   4.753   6.427   2.464  0.2307 -0.7481 -0.2976
    1CHTO  H204   30   4.723   6.419   2.376 -2.3132 -0.5012  0.4985
    1CHTO  C109   31   4.884   6.636   2.637  0.6896  0.4498 -0.3115
    1CHTO  H213   32   4.833   6.606   2.729 -0.6906 -0.4127 -1.3350
    1CHTO  C110   33   4.964   6.767   2.661  0.7342  0.4619 -0.2509
    1CHTO  H214   34   5.020   6.792   2.571 -0.1740  1.5057 -0.5335
    1CHTO   O78   35   5.060   6.742   2.766  0.2192 -0.0817 -0.1184
    1CHTO  H200   36   5.148   6.759   2.737  0.2201 -1.3808 -0.9364
    1CHTO  C111   37   4.869   6.883   2.691 -0.2575 -0.0603  0.0955
    1CHTO  H215   38   4.812   6.862   2.783  0.6993 -2.1060  0.2549
    1CHTO   N19   39   4.931   7.018   2.704 -0.7357  0.8459  0.6870
    1CHTO  H207   40   5.039   7.024   2.703 -0.7497  0.9906 -0.3674
    1CHTO  H208   41   4.879   7.105   2.666 -0.9865  0.2925 -0.2424
    1CHTO   O74   42   4.975   6.528   2.598  0.0221 -0.7566 -0.1342
    1CHTO  C115   43   5.043   6.444   2.711 -0.1752 -0.2281 -0.0790
    1CHTO  H219   44   5.031   6.490   2.809  4.3752  1.8050 -0.3572
    1CHTO   O76   45   4.985   6.293   2.716 -0.0626 -0.4441 -0.0394
    1CHTO  C122   46   4.990   6.229   2.586 -0.4968  0.8827  0.1460
    1CHTO  H226   47   4.893   6.266   2.551 -0.5988  0.6157  0.1458
    1CHTO  C126   48   4.975   6.068   2.598  0.3923 -0.3347  0.1903
    1CHTO   O85   49   4.838   6.034   2.613  0.2049 -0.2944  0.1252
    1CHTO  H206   50   4.824   5.966   2.676  0.9033 -1.2170 -0.7033
    1CHTO  C121   51   5.113   6.276   2.494 -0.3432 -0.2155 -0.1415
    1CHTO  H225   52   5.153   6.198   2.425 -1.7220 -0.0284 -1.1829
    1CHTO   O81   53   5.064   6.371   2.400 -0.2040  0.1022  0.0162
    1CHTO  H202   54   5.131   6.432   2.375 -0.3324  0.9077  1.6045
    1CHTO  C119   55   5.235   6.327   2.585 -0.0506  0.0093  0.6803
    1CHTO  H223   56   5.255   6.246   2.655  0.9818 -0.2115  0.1256
    1CHTO  C117   57   5.194   6.445   2.675  0.4496 -0.1338  0.3507
    1CHTO  H221   58   5.202   6.540   2.622 -1.1966  0.4747  1.1383
    1CHTO   N20   59   5.290   6.460   2.786  0.0161 -0.5986  0.2081
    1CHTO  H209   60   5.390   6.457   2.746 -0.6993  0.7644 -1.7664
    1CHTO  H210   61   5.273   6.378   2.854 -0.6419 -1.6248 -1.1672
    1CHTO   O80   62   5.380   6.344   2.512 -0.2971  0.1781 -0.2892
    1CHTO  C103   63   5.478   6.220   2.503 -0.4228  0.0061  0.7663
    1CHTO  H190   64   5.505   6.182   2.602  1.4045  0.9925  0.6687
    1CHTO  C101   65   5.445   6.092   2.415  0.1534  0.1714 -0.1768
    1CHTO  H188   66   5.437   6.129   2.313  2.0353 -0.3568 -0.5326
    1CHTO   O68   67   5.317   6.026   2.463  0.5002 -0.1703 -0.1989
    1CHTO  H168   68   5.314   5.943   2.418 -0.6120 -0.7381  0.8964
    1CHTO   C99   69   5.562   5.987   2.412 -0.0846 -0.5780 -0.8114
    1CHTO  H186   70   5.583   5.947   2.513  3.4148 -1.6734 -1.8864
    1CHTO   N17   71   5.531   5.861   2.333  0.4211 -0.1198  0.5426
    1CHTO  H174   72   5.428   5.830   2.322  0.2136  1.1921 -1.5172
    1CHTO  H175   73   5.590   5.784   2.380  2.9167  0.5785 -1.3294
    1CHTO   C97   74   5.690   6.047   2.354  0.6314  0.1111 -0.7240
    1CHTO  H184   75   5.684   6.058   2.245  1.3074  0.4808 -0.7239
    1CHTO   O64   76   5.712   6.169   2.415 -0.0386 -0.1167  0.8267
    1CHTO  C104   77   5.614   6.276   2.434 -0.3872  0.1295  0.0234
    1CHTO  H191   78   5.592   6.325   2.339 -0.0802  1.9651  0.8718
    1CHTO  C108   79   5.686   6.383   2.523 -0.2691  0.1700 -0.1449
    1CHTO   O71   80   5.798   6.447   2.465  0.0172  0.1137 -0.2823
    1CHTO  H171   81   5.786   6.527   2.416  2.7077  0.0289 -1.2116
    1CHTO   O62   82   5.801   5.973   2.406 -0.1731  0.4112 -0.3208
    1CHTO   C91   83   5.911   5.959   2.316  0.0235 -0.5765  0.5349
    1CHTO  H178   84   5.883   6.002   2.220  0.1827 -1.3124  0.1565
    1CHTO   C92   85   5.935   5.804   2.301 -0.8446 -0.1201 -0.4493
    1CHTO  H179   86   5.945   5.750   2.396 -1.5819 -0.8596 -0.7869
    1CHTO   O66   87   5.814   5.765   2.226 -0.2054  0.2776  0.4836
    1CHTO  H166   88   5.785   5.686   2.266  2.4538  0.7985  3.6295
    1CHTO   C93   89   6.070   5.782   2.218 -0.7189  0.2916  0.2698
    1CHTO  H180   90   6.058   5.825   2.117  2.4425 -0.5243 -0.4913
    1CHTO   N16   91   6.101   5.640   2.200  1.1144 -0.2512  0.1582
    1CHTO  H172   92   6.003   5.594   2.202  0.2011  1.6413 -0.0695
    1CHTO  H173   93   6.169   5.605   2.277  0.6550  0.3109  0.8228
    1CHTO   C94   94   6.188   5.855   2.289  0.3633 -0.1133 -0.7259
    1CHTO  H181   95   6.203   5.828   2.393  0.6089 -1.4430 -1.0994
    1CHTO   O61   96   6.160   6.001   2.307 -0.4620 -0.3222  0.4795
    1CHTO   C95   97   6.041   6.022   2.386  0.5788 -0.2506  0.5800
    1CHTO  H182   98   6.054   5.980   2.485 -1.8452  2.0182  1.9283
    1CHTO  C106   99   6.048   6.173   2.409  0.4205 -0.1375 -0.8023
    1CHTO   O69  100   6.166   6.195   2.478 -0.8069 -0.0719 -0.0942
    1CHTO  H169  101   6.242   6.182   2.425  0.2062  1.7424  0.8770
    1CHTO   O63  102   6.312   5.844   2.218  0.2066  0.5738  0.2979
    1CHTO   C96  103   6.425   5.864   2.288 -0.1431 -0.3747  0.5515
    1CHTO  H183  104   6.410   5.928   2.376  0.7962  0.7931 -0.1254
    1CHTO   C98  105   6.531   5.948   2.204 -0.1860  0.2589  0.7627
    1CHTO  H185  106   6.480   6.035   2.160  0.4985 -0.6959 -2.0445
    1CHTO   O67  107   6.636   6.004   2.284 -0.4225 -0.3415 -0.2175
    1CHTO  H167  108   6.603   6.080   2.327 -0.1071 -0.3777  0.0875
    1CHTO  C102  109   6.595   5.858   2.079 -0.2041  0.4917 -0.7784
    1CHTO  H189  110   6.681   5.917   2.043  0.7707  1.2403  2.6457
    1CHTO   N18  111   6.506   5.835   1.956  0.1079 -0.0803  0.1248
    1CHTO  H176  112   6.404   5.821   1.987  0.0162  0.2108 -0.0414
    1CHTO  H177  113   6.543   5.753   1.896 -0.4660 -1.0344  1.0673
    1CHTO  C105  114   6.648   5.732   2.143 -0.3416  0.2336 -0.1952
    1CHTO  H192  115   6.662   5.659   2.064  0.5552  0.4794 -0.2652
    1CHTO   O65  116   6.564   5.668   2.241 -0.0663  0.7048 -0.5007
    1CHTO  C100  117   6.484   5.730   2.336  0.3284  0.2614  0.3540
    1CHTO  H187  118   6.408   5.651   2.347  0.6978 -0.1900 -0.3325
    1CHTO  C107  119   6.555   5.747   2.473 -0.5059 -0.1592  0.0636
    1CHTO   O70  120   6.586   5.610   2.516 -0.2925 -0.0896  0.1855
    1CHTO  H170  121   6.651   5.610   2.583 -0.3119  1.7299  0.2070
    1CHTO   O57  122   6.785   5.769   2.198 -0.4811  0.0830  0.2825
    1CHTO   C85  123   6.900   5.714   2.143 -0.1312 -0.6489  0.1674
    1CHTO  H157  124   6.863   5.700   2.039 -0.8347 -1.0179  0.4635
    1CHTO   C83  125   6.940   5.568   2.199  0.0320 -0.9138 -0.9212
    1CHTO  H155  126   6.868   5.495   2.162 -1.9084  0.8262 -0.6988
    1CHTO   O56  127   6.932   5.558   2.344  0.4207 -0.2403  0.3924
    1CHTO  H135  128   6.841   5.543   2.359 -0.2673 -0.3326 -3.4182
    1CHTO   C81  129   7.076   5.521   2.149  0.0887  0.6959  0.2821
    1CHTO  H153  130   7.080   5.525   2.040 -0.3666  0.2749  0.2497
    1CHTO   N14  131   7.122   5.390   2.191  0.2140 -0.7759  0.1150
    1CHTO  H141  132   7.206   5.357   2.134  0.5634 -0.7958  0.6391
    1CHTO  H142  133   7.149   5.385   2.294 -0.4565 -0.6901  0.3001
    1CHTO   C79  134   7.191   5.630   2.185 -0.0471  0.4329 -0.4853
    1CHTO  H151  135   7.278   5.595   2.129 -0.7229  0.6407 -1.6842
    1CHTO   O52  136   7.159   5.759   2.129 -0.1368  0.2001  0.3623
    1CHTO   C86  137   7.026   5.811   2.156  0.3689 -0.5725  0.3553
    1CHTO  H158  138   7.032   5.843   2.262  1.4733  0.0136  0.1216
    1CHTO   C90  139   6.991   5.936   2.065 -0.4039 -0.4799  0.1007
    1CHTO   O60  140   6.957   5.919   1.922 -0.8184 -0.1632 -0.2953
    1CHTO  H138  141   7.031   5.923   1.865 -0.8157 -0.0785 -0.2845
    1CHTO   O50  142   7.232   5.639   2.327  0.0542  0.5386 -0.6384
    1CHTO   C73  143   7.368   5.638   2.376  0.1262 -0.0120 -0.3395
    1CHTO  H145  144   7.433   5.661   2.291  0.8910 -1.7344 -0.2464
    1CHTO   C74  145   7.392   5.493   2.429  0.2916 -0.1547 -0.5701
    1CHTO  H146  146   7.389   5.429   2.340  2.8061 -0.8929 -0.1608
    1CHTO   O54  147   7.526   5.474   2.485  0.6918 -0.3925  0.3544
    1CHTO  H133  148   7.578   5.430   2.422  1.4803 -1.8789  1.9949
    1CHTO   C75  149   7.284   5.463   2.535 -1.0890  0.3018 -0.1506
    1CHTO  H147  150   7.183   5.470   2.491 -0.1395  0.3418 -2.3857
    1CHTO   N13  151   7.280   5.318   2.583 -0.2129  0.1245 -0.0447
    1CHTO  H139  152   7.194   5.299   2.646  0.2561 -0.1509  0.5164
    1CHTO  H140  153   7.284   5.254   2.497  0.6687  2.4847 -1.8260
    1CHTO   C76  154   7.296   5.568   2.656 -0.0922  0.1984  0.2452
    1CHTO  H148  155   7.386   5.549   2.715 -0.1415 -0.3553  0.1470
    1CHTO   O49  156   7.297   5.705   2.599 -0.0921  0.1520 -0.2088
    1CHTO   C77  157   7.378   5.742   2.491 -0.5120 -0.4836  0.6931
    1CHTO  H149  158   7.483   5.750   2.516 -0.4202  1.5463 -0.2108
    1CHTO   C88  159   7.347   5.893   2.454 -0.0368  0.1830  0.4992
    1CHTO   O58  160   7.379   5.970   2.589  0.3953  0.4592 -0.5450
    1CHTO  H136  161   7.470   5.994   2.589  0.4458  0.2746 -0.3605
    1CHTO   O51  162   7.149   5.569   2.756  0.1084 -0.1316 -0.0343
    1CHTO   C78  163   7.144   5.680   2.848 -0.5402 -0.1289  0.2926
    1CHTO  H150  164   7.213   5.762   2.819  1.6992 -1.5533  1.4663
    1CHTO   C80  165   7.174   5.637   2.993 -0.3319 -0.0879 -0.3518
    1CHTO  H152  166   7.101   5.557   3.018  0.7493 -1.1702 -0.6297
    1CHTO   O55  167   7.308   5.587   2.990  0.0492  0.9791  0.2835
    1CHTO  H134  168   7.315   5.529   3.064 -0.5358 -0.8070 -1.0010
    1CHTO   C84  169   7.159   5.748   3.098 -0.4438 -0.4349  0.5763
    1CHTO  H156  170   7.247   5.808   3.077 -1.2567  0.4004 -0.5019
    1CHTO   N15  171   7.186   5.708   3.250  0.5441 -0.0741  0.2158
    1CHTO  H143  172   7.166   5.792   3.313 -1.8068 -0.4684  0.0425
    1CHTO  H144  173   7.112   5.634   3.271 -0.9508  1.6340  1.0781
    1CHTO   C87  174   7.024   5.819   3.078  0.1033 -0.2931  0.2315
    1CHTO  H159  175   6.945   5.756   3.119 -0.5811 -0.9392 -1.9962
    1CHTO   O53  176   7.002   5.851   2.919 -0.2967  0.1259 -0.1358
    1CHTO   C82  177   7.001   5.736   2.844  0.0359  0.2456 -0.1780
    1CHTO  H154  178   6.932   5.659   2.880  0.8130 -0.9338 -1.1679
    1CHTO   C89  179   6.946   5.777   2.707  0.5066 -0.4550 -0.3213
    1CHTO   O59  180   7.018   5.890   2.643  0.4282 -0.4252  0.2028
    1CHTO  H137  181   7.008   5.967   2.696 -3.8751 -1.0187  0.3817
    1CHTO   O45  182   7.028   5.962   3.157 -0.2327  0.0315  0.4346
    1CHTO   C67  183   6.911   6.043   3.142  0.3902 -0.0495  0.7705
    1CHTO  H124  184   6.889   6.043   3.035  0.3521 -1.5413  0.7670
    1CHTO   C65  185   6.793   5.977   3.226  0.3938 -0.3314  0.4443
    1CHTO  H122  186   6.848   5.898   3.277  0.3780 -3.0671 -3.5812
    1CHTO   O44  187   6.701   5.921   3.125  0.0242 -0.1906  0.3745
    1CHTO  H102  188   6.610   5.943   3.136 -0.3536 -1.5964  0.1556
    1CHTO   C63  189   6.739   6.078   3.332  0.5731 -0.0842 -0.4469
    1CHTO  H120  190   6.816   6.108   3.403  0.5768  1.6326 -1.1442
    1CHTO   N11  191   6.634   6.013   3.420 -0.5257 -0.7751  0.0209
    1CHTO  H108  192   6.538   6.060   3.411  0.4221  1.3124  0.6514
    1CHTO  H109  193   6.617   5.910   3.396 -0.0061 -1.0311  0.7347
    1CHTO   C61  194   6.693   6.208   3.262  0.0119 -0.0157 -0.3630
    1CHTO  H118  195   6.675   6.273   3.349 -1.2207  0.1378 -0.7188
    1CHTO   O40  196   6.803   6.263   3.177  0.0064 -0.0855 -0.2111
    1CHTO   C68  197   6.928   6.195   3.175  0.1957  0.5404 -0.3135
    1CHTO  H125  198   6.974   6.206   3.276 -0.7266  0.6852  0.0882
    1CHTO   C72  199   7.016   6.269   3.068  0.1838  0.2082 -0.1941
    1CHTO   O48  200   6.970   6.254   2.936 -1.0606 -0.2162 -0.5010
    1CHTO  H105  201   7.001   6.182   2.883  1.6041 -0.8770  1.8794
    1CHTO   O38  202   6.572   6.198   3.182 -0.7231  0.3121 -0.1563
    1CHTO   C55  203   6.478   6.310   3.189 -0.1516  0.8803 -0.3208
    1CHTO  H112  204   6.526   6.407   3.211 -0.2165  0.9711 -0.5769
    1CHTO   C56  205   6.351   6.279   3.291  0.3585  0.2762  0.2213
    1CHTO  H113  206   6.305   6.185   3.258  1.2387 -0.3380  0.7238
    1CHTO   O42  207   6.399   6.263   3.421 -0.5615 -0.3988  0.0851
    1CHTO  H100  208   6.487   6.294   3.428 -0.2108 -1.4455  0.3762
    1CHTO   C57  209   6.246   6.392   3.289 -0.6422  0.9996 -0.3790
    1CHTO  H114  210   6.278   6.473   3.354 -0.8417 -0.2204  1.2728
    1CHTO   N10  211   6.121   6.361   3.365 -0.4734  0.1598  0.0782
    1CHTO  H106  212   6.133   6.397   3.465  0.7659 -2.4141  0.8996
    1CHTO  H107  213   6.103   6.255   3.377 -2.8798  0.4097 -1.0144
    1CHTO   C58  214   6.218   6.449   3.146 -0.1976  0.3093  0.1503
    1CHTO  H115  215   6.147   6.385   3.089 -2.5777  1.4987  1.6924
    1CHTO   O37  216   6.332   6.457   3.058 -0.4596 -0.3500 -0.1806
    1CHTO   C59  217   6.409   6.336   3.050  0.4727  0.0888  0.4449
    1CHTO  H116  218   6.345   6.250   3.033  0.8392  0.3684 -2.6344
    1CHTO   C70  219   6.509   6.358   2.937  0.3400 -0.5229  0.4726
    1CHTO   O46  220   6.598   6.472   2.950  0.1537 -0.0872  0.2478
    1CHTO  H103  221   6.640   6.484   2.867 -1.3787 -1.6602 -0.7944
    1CHTO   O39  222   6.130   6.615   3.162  0.5577 -0.4231 -0.2334
    1CHTO   C60  223   6.214   6.738   3.142  0.4256  0.4493 -0.0073
    1CHTO  H117  224   6.315   6.716   3.175  0.1514 -1.8458 -0.6139
    1CHTO   C62  225   6.206   6.779   2.991  0.4271  0.3795  0.7232
    1CHTO  H119  226   6.263   6.708   2.927 -1.7688  0.3136 -1.2312
    1CHTO   O43  227   6.070   6.765   2.951  0.0093  0.3657  0.2350
    1CHTO  H101  228   6.020   6.831   2.995 -1.8896 -0.8817  0.0097
    1CHTO   C66  229   6.263   6.934   2.967 -0.2890 -0.3993 -0.3843
    1CHTO  H123  230   6.364   6.939   3.006  0.1271  0.3872 -1.5462
    1CHTO   N12  231   6.266   6.974   2.828  0.7392 -0.2875  0.6114
    1CHTO  H110  232   6.192   6.928   2.765  0.4666  1.9904 -0.7757
    1CHTO  H111  233   6.360   6.953   2.778  1.1544  0.2681  1.1466
    1CHTO   C69  234   6.186   7.031   3.058 -0.2689  0.2789  0.5713
    1CHTO  H126  235   6.077   7.032   3.037 -0.3694  0.4142  1.0860
    1CHTO   O41  236   6.213   6.978   3.204  0.1506 -0.4758  0.4193
    1CHTO   C64  237   6.166   6.853   3.237  0.4558  0.1139  0.0306
    1CHTO  H121  238   6.057   6.852   3.212  0.7184 -2.1698 -1.1868
    1CHTO   C71  239   6.191   6.822   3.384 -0.2855  0.5848  0.4034
    1CHTO   O47  240   6.107   6.909   3.464 -0.2338 -0.3027 -0.1002
    1CHTO  H104  241   6.048   6.866   3.523 -1.1638 -0.7697 -1.3492
    1CHTO   O34  242   6.237   7.185   3.053 -0.2625 -0.4496 -0.5027
    1CHTO   C49  243   6.171   7.315   3.093 -0.1501 -0.2642 -0.0557
    1CHTO   H91  244   6.063   7.313   3.078 -0.0920  1.0298 -0.7456
    1CHTO   C47  245   6.231   7.426   3.001  0.8124  0.4314 -0.0282
    1CHTO   H89  246   6.166   7.515   3.017  0.0310 -0.0801 -0.3066
    1CHTO   O33  247   6.215   7.382   2.864 -0.0427 -0.1334  0.8713
    1CHTO   H70  248   6.276   7.428   2.810  0.0682 -0.3716  0.7933
    1CHTO   C45  249   6.383   7.454   3.039  0.8214  0.1147  0.3965
    1CHTO   H87  250   6.438   7.359   3.030  2.0341  0.8827 -0.6855
    1CHTO    N8  251   6.454   7.551   2.952  0.0201 -0.6232 -0.2890
    1CHTO   H75  252   6.558   7.529   2.973  0.1886  0.7289  0.3156
    1CHTO   H76  253   6.412   7.650   2.962 -0.1587 -0.8412  1.2496
    1CHTO   C43  254   6.388   7.495   3.201  0.3407 -0.0207 -0.8078
    1CHTO   H85  255   6.494   7.495   3.227  0.1657  0.8463 -0.0861
    1CHTO   O29  256   6.315   7.391   3.275 -0.2044  0.0527 -0.3342
    1CHTO   C50  257   6.187   7.345   3.242 -0.4878  0.3747  0.5710
    1CHTO   H92  258   6.167   7.251   3.295  1.2205  0.3741  1.2268
    1CHTO   C54  259   6.086   7.444   3.289 -0.0497 -0.0588  0.0676
    1CHTO   O36  260   6.069   7.444   3.429  0.2502  0.0814  0.4135
    1CHTO   H72  261   6.079   7.529   3.467 -1.2835  0.2616  0.4258
    1CHTO   O27  262   6.332   7.621   3.243  0.2186 -0.2478  0.0850
    1CHTO   C37  263   6.377   7.754   3.265 -0.4181  0.4035 -1.1451
    1CHTO   H79  264   6.326   7.794   3.354 -2.5061  1.9465 -2.9796
    1CHTO   C38  265   6.534   7.773   3.290  0.6856  0.3864 -0.6063
    1CHTO   H80  266   6.591   7.739   3.202  0.7016 -1.5886  0.1322
    1CHTO   O31  267   6.558   7.682   3.398 -0.3130 -0.5544 -0.0291
    1CHTO   H68  268   6.645   7.688   3.434 -1.0326  2.0917  1.3932
    1CHTO   C39  269   6.565   7.920   3.321 -0.0512  0.3993 -0.2947
    1CHTO   H81  270   6.504   7.949   3.407  0.9194  1.8674 -0.0984
    1CHTO    N7  271   6.714   7.951   3.344 -0.3095 -0.9580  0.4035
    1CHTO   H73  272   6.733   8.055   3.366 -1.4261 -0.5066 -0.6818
    1CHTO   H74  273   6.740   7.891   3.430 -0.5075  1.2421  2.0747
    1CHTO   C40  274   6.510   8.007   3.199  0.1767 -0.2563 -0.6142
    1CHTO   H82  275   6.563   7.983   3.107 -1.1181 -1.4517 -1.0694
    1CHTO   O26  276   6.372   7.982   3.186  0.7673 -0.1730 -0.3774
    1CHTO   C41  277   6.332   7.848   3.146  0.5574 -0.5018 -0.3967
    1CHTO   H83  278   6.386   7.810   3.058 -1.1086 -2.5754 -0.5699
    1CHTO   C52  279   6.169   7.840   3.118 -0.8638 -0.1787  0.6946
    1CHTO   O35  280   6.129   7.927   3.025 -0.2552  0.3824  0.2245
    1CHTO   H71  281   6.157   8.013   3.051 -0.6908  1.2611 -2.1446
    1CHTO   O28  282   6.520   8.150   3.217  0.0425 -0.1095 -0.4170
    1CHTO   C42  283   6.537   8.238   3.097 -0.0311  0.6580  0.4116
    1CHTO   H84  284   6.566   8.177   3.011  1.4232 -0.4726  1.6827
    1CHTO   C44  285   6.661   8.330   3.116 -0.5642  0.2336  0.6776
    1CHTO   H86  286   6.650   8.389   3.208  1.2965  2.7624 -0.6449
    1CHTO   O32  287   6.767   8.232   3.134  0.4573  0.0875 -0.5044
    1CHTO   H69  288   6.844   8.282   3.113 -0.0842  0.5276 -1.4831
    1CHTO   C48  289   6.687   8.428   2.993 -0.0363  0.0521 -0.4625
    1CHTO   H90  290   6.720   8.378   2.902 -0.0983 -1.7952  0.5125
    1CHTO    N9  291   6.794   8.527   3.032 -0.1790 -0.3847 -0.9476
    1CHTO   H77  292   6.775   8.575   3.127  1.1662 -1.1242 -0.2911
    1CHTO   H78  293   6.897   8.496   3.023  0.7847  3.1402 -2.8214
    1CHTO   C51  294   6.554   8.510   2.951  0.5500 -0.0797 -0.0175
    1CHTO   H93  295   6.533   8.573   3.038  1.0900 -1.1769  0.9186
    1CHTO   O30  296   6.440   8.429   2.922 -0.1016  0.4801 -0.4067
    1CHTO   C46  297   6.409   8.322   3.051 -0.1695 -0.3817  0.5253
    1CHTO   H88  298   6.391   8.384   3.139  1.0138  2.8057 -1.4118
    1CHTO   C53  299   6.289   8.222   3.014  0.0461 -0.3394  0.1500
    1CHTO   O72  300   6.169   8.295   2.987 -0.3841  1.3233 -0.0111
    1CHTO  H199  301   6.157   8.362   3.051  0.0103  1.2022  0.1903
    1CHTO   O22  302   6.577   8.609   2.847 -0.2284 -0.2385 -0.6288
    1CHTO   C31  303   6.571   8.589   2.703  0.5315 -0.0915 -0.4073
    1CHTO   H59  304   6.577   8.688   2.653  1.6136 -0.5034 -1.1344
    1CHTO   C29  305   6.690   8.502   2.642 -0.4609 -0.4110 -0.1533
    1CHTO   H57  306   6.687   8.412   2.705 -1.5084  0.6528  1.3836
    1CHTO   O21  307   6.815   8.561   2.663 -0.6059 -0.3612  0.0005
    1CHTO   H37  308   6.849   8.564   2.750  0.7641 -2.4591 -0.4276
    1CHTO   C27  309   6.669   8.475   2.487  0.2083 -0.6617 -0.1586
    1CHTO   H55  310   6.672   8.570   2.433 -1.9513 -0.1611  0.5253
    1CHTO    N5  311   6.778   8.393   2.425  0.8151  0.7212 -0.1384
    1CHTO   H43  312   6.857   8.454   2.383  0.4484  1.5707  0.3961
    1CHTO   H44  313   6.819   8.328   2.501  2.5610  1.8524 -0.0914
    1CHTO   C25  314   6.533   8.427   2.448  0.2362 -0.1398 -0.3166
    1CHTO   H53  315   6.520   8.325   2.487  1.3153  0.1003  0.6724
    1CHTO   O17  316   6.439   8.522   2.510  0.5366  0.0734  0.0004
    1CHTO   C32  317   6.434   8.536   2.658  0.3332 -0.5075 -0.1491
    1CHTO   H60  318   6.415   8.442   2.708 -0.9242 -0.7844 -1.1123
    1CHTO   C36  319   6.315   8.627   2.682 -0.0867 -0.4024 -0.0749
    1CHTO   O25  320   6.247   8.640   2.804  0.4105  0.0678  0.2593
    1CHTO   H40  321   6.175   8.701   2.798 -0.2750 -0.6445  1.1821
    1CHTO   O15  322   6.501   8.438   2.278  0.6975 -0.7731 -0.2290
    1CHTO   C19  323   6.384   8.372   2.217 -0.5011 -0.4568 -0.3192
    1CHTO   H47  324   6.405   8.266   2.237  0.8529  0.1725  1.7439
    1CHTO   C20  325   6.246   8.421   2.272  0.2705 -0.5441 -0.4292
    1CHTO   H48  326   6.230   8.527   2.251  0.7710 -0.1685  1.0153
    1CHTO   O19  327   6.231   8.390   2.413  0.1166 -0.1052  0.2776
    1CHTO   H35  328   6.241   8.297   2.424 -0.5804 -0.1259  0.7525
    1CHTO   C21  329   6.127   8.351   2.198 -0.1033  0.1783 -0.1090
    1CHTO   H49  330   6.125   8.244   2.221 -0.0628  0.7851  3.0228
    1CHTO    N4  331   5.989   8.396   2.239 -0.1495  0.5214  0.0026
    1CHTO   H41  332   5.913   8.347   2.180  0.2756  0.4635 -0.4932
    1CHTO   H42  333   5.987   8.503   2.225  1.9666  0.5446 -0.3168
    1CHTO   C22  334   6.141   8.370   2.044 -0.2086  0.4534 -0.4823
    1CHTO   H50  335   6.151   8.477   2.025 -2.7501  0.9911  1.0227
    1CHTO   O14  336   6.271   8.324   2.007 -0.1199  0.2744 -0.2951
    1CHTO   C23  337   6.381   8.391   2.067 -0.4790 -0.3926 -0.4076
    1CHTO   H51  338   6.391   8.496   2.036 -0.8602 -0.7138 -1.6646
    1CHTO   C34  339   6.508   8.322   2.014 -0.2358 -0.1705  0.3656
    1CHTO   O23  340   6.550   8.352   1.880 -0.1672 -0.4106 -0.3928
    1CHTO   H38  341   6.543   8.443   1.857 -2.5754 -0.6088 -0.6354
    1CHTO   O16  342   6.046   8.296   1.964  0.8520  0.3022  0.2586
    1CHTO   C24  343   6.078   8.132   1.936 -0.7098  0.1931 -0.3842
    1CHTO   H52  344   6.154   8.094   2.005 -0.1474  0.1470 -1.0214
    1CHTO   C26  345   6.131   8.108   1.793  0.9906 -1.0011 -0.4768
    1CHTO   H54  346   6.067   8.170   1.726  0.3027 -0.2012  0.8903
    1CHTO   O20  347   6.259   8.177   1.778 -0.0965  0.2378 -0.0187
    1CHTO   H36  348   6.310   8.146   1.706  0.6573  0.7795  0.2791
    1CHTO   C30  349   6.141   7.960   1.745  0.6121 -0.3583  0.0311
    1CHTO   H58  350   6.236   7.914   1.777  0.1339 -1.8423 -0.6178
    1CHTO    N6  351   6.147   7.949   1.594 -0.3394 -0.1292  0.3693
    1CHTO   H45  352   6.093   8.034   1.555 -1.2282 -0.8254  0.0776
    1CHTO   H46  353   6.243   7.936   1.548  0.0024  0.1605  0.9890
    1CHTO   C33  354   6.034   7.862   1.806  0.6920 -0.7065 -0.0304
    1CHTO   H61  355   5.939   7.865   1.750  1.4014  0.4669 -1.2237
    1CHTO   O18  356   6.007   7.904   1.941  0.1092 -0.2554 -0.3440
    1CHTO   C28  357   5.957   8.038   1.952  0.6281 -0.4887  0.5163
    1CHTO   H56  358   5.883   8.057   1.875  1.8682 -1.0598 -0.8294
    1CHTO   C35  359   5.893   8.051   2.093 -0.2669 -0.6137 -0.7450
    1CHTO   O24  360   5.785   8.140   2.079  0.6094 -0.7374  0.2629
    1CHTO   H39  361   5.729   8.123   2.152  0.4457  3.0722  1.1079
    1CHTO    O9  362   6.082   7.726   1.803  0.5194 -0.2646  0.2238
    1CHTO   C13  363   6.008   7.623   1.915 -0.0708 -0.3727  0.1273
    1CHTO   H26  364   5.920   7.674   1.957  1.8032  2.5305  0.6553
    1CHTO   C11  365   6.104   7.567   2.031  0.1908 -0.1615  1.0099
    1CHTO   H24  366   6.118   7.651   2.101  1.6746 -0.2715  0.8559
    1CHTO    O8  367   6.225   7.519   1.964  0.5499  0.2569  0.7394
    1CHTO    H3  368   6.215   7.429   1.939  1.6178  0.2182  0.4336
    1CHTO    C9  369   6.033   7.443   2.089  0.4860 -0.9639 -0.4837
    1CHTO   H22  370   5.935   7.480   2.121  1.2686  1.4658 -0.8446
    1CHTO    N2  371   6.098   7.386   2.213  0.2904  0.1802 -0.2584
    1CHTO   H10  372   6.089   7.464   2.288 -2.5415 -0.8903  0.5697
    1CHTO   H11  373   6.199   7.374   2.177  0.1018 -1.0485 -0.3847
    1CHTO    C7  374   6.019   7.326   1.978  0.3029 -0.6250 -0.0626
    1CHTO   H20  375   5.926   7.275   2.011  0.6616 -2.4718 -1.8589
    1CHTO    O4  376   6.013   7.386   1.846 -0.0307 -0.3106  0.3929
    1CHTO   C14  377   5.934   7.504   1.836 -0.7394  0.1470 -0.3094
    1CHTO   H27  378   5.835   7.487   1.883  0.0048 -0.9942  0.8871
    1CHTO   C18  379   5.913   7.529   1.681 -0.6477 -0.3484  0.0788
    1CHTO   O13  380   5.797   7.615   1.664 -0.3732  0.1571 -0.1459
    1CHTO    H7  381   5.754   7.608   1.580  0.4896  2.2072 -0.7736
    1CHTO    O2  382   6.129   7.222   1.971 -0.2718  0.3044 -0.7444
    1CHTO    C1  383   6.107   7.099   1.906 -0.2537  0.2755 -0.1174
    1CHTO   H14  384   6.058   7.112   1.808 -0.0729 -0.7794 -0.3611
    1CHTO    C2  385   6.016   6.999   1.990 -0.0882  0.1745  0.0762
    1CHTO   H15  386   6.043   6.998   2.097 -0.8579 -1.7287  0.2802
    1CHTO    O6  387   5.879   7.050   1.981 -0.3214  0.5351  0.9188
    1CHTO    H1  388   5.834   7.065   2.063  0.8109 -0.5908  1.7597
    1CHTO    C3  389   6.023   6.853   1.938  0.6088  0.2319  0.9692
    1CHTO   H16  390   5.977   6.848   1.838  0.4075 -1.1329  1.1149
    1CHTO    N1  391   5.946   6.750   2.023 -0.8118 -1.0625 -0.1356
    1CHTO    H8  392   5.974   6.772   2.126  1.9451 -2.9438 -0.4293
    1CHTO    H9  393   5.982   6.654   1.989  0.3818 -0.5585 -0.3276
    1CHTO    C4  394   6.164   6.799   1.911 -0.4893 -0.5967  0.0817
    1CHTO   H17  395   6.215   6.784   2.006 -0.0769 -1.0915 -0.2178
    1CHTO    O1  396   6.231   6.891   1.823  0.0379  0.1486 -0.1029
    1CHTO    C5  397   6.243   7.027   1.878 -0.1639 -0.2082 -0.1668
    1CHTO   H18  398   6.295   7.032   1.973 -0.7313 -0.0317  0.1364
    1CHTO   C16  399   6.341   7.103   1.775  0.0009  0.3793 -0.0043
    1CHTO   O11  400   6.346   7.246   1.808  0.1007 -0.6137 -0.1670
    1CHTO    H5  401   6.429   7.279   1.777 -0.3019 -0.1972 -0.8105
    1CHTO    O3  402   6.158   6.670   1.846  0.5371 -0.0066 -0.1020
    1CHTO    C6  403   6.280   6.591   1.819 -0.1794 -0.0049 -0.2785
    1CHTO   H19  404   6.367   6.656   1.810  0.2907 -0.5520  0.3259
    1CHTO    C8  405   6.298   6.489   1.934  0.4694  0.3965  0.1804
    1CHTO   H21  406   6.211   6.423   1.922  0.6132  0.1690  0.3642
    1CHTO    O7  407   6.297   6.551   2.058  0.1562 -0.7996 -0.5022
    1CHTO    H2  408   6.212   6.586   2.077  0.0127 -0.3736 -1.8542
    1CHTO   C12  409   6.433   6.405   1.896  0.0411 -0.1953  0.8178
    1CHTO   H25  410   6.515   6.480   1.888  1.1733 -1.6857 -1.8434
    1CHTO    N3  411   6.473   6.309   2.003  0.1041 -0.0730  0.4562
    1CHTO   H12  412   6.390   6.247   2.033 -0.1305  0.5644  1.1399
    1CHTO   H13  413   6.535   6.350   2.081  0.1045  0.3701  0.2251
    1CHTO   C15  414   6.414   6.334   1.755 -0.0149 -0.6797  0.3138
    1CHTO   H28  415   6.332   6.262   1.756  1.0280 -1.8970  2.1397
    1CHTO   O10  416   6.542   6.283   1.690 -0.4282  0.6246  0.1595
    1CHTO    H4  417   6.526   6.225   1.618  0.7646  1.7233 -1.0183
    1CHTO    O5  418   6.395   6.444   1.661  0.3272 -0.1574  0.3162
    1CHTO   C10  419   6.273   6.507   1.685 -0.9692  0.4943 -0.3679
    1CHTO   H23  420   6.193   6.439   1.714 -1.1531  0.1090 -1.7152
    1CHTO   C17  421   6.232   6.591   1.564 -0.3402  0.4466 -0.9634
    1CHTO   O12  422   6.227   6.517   1.444 -0.1631 -0.0058  0.1778
    1CHTO    H6  423   6.210   6.576   1.374  0.2872 -0.1083 -0.0209
    2CHTO  H203  424   4.922   3.890   0.098  0.5500  0.4195  1.4671
    2CHTO   O82  425   4.850   3.946   0.118  0.0622  0.2014  0.3252
    2CHTO  C123  426   4.869   4.088   0.108  0.8175  0.0593 -0.2083
    2CHTO  H227  427   4.973   4.122   0.117  0.6574  0.9418 -1.5144
    2CHTO   O77  428   4.822   4.123  -0.023 -0.0567  0.1009  0.5142
    2CHTO  C118  429   4.844   4.261  -0.057 -0.2681  0.0574 -0.2725
    2CHTO  H222  430   4.953   4.273  -0.062 -0.4381  2.0250  0.5330
    2CHTO  C125  431   4.782   4.292  -0.193  0.6586  0.4093  0.2499
    2CHTO   O84  432   4.817   4.188  -0.289 -0.6222 -0.0002  0.1435
    2CHTO  H205  433   4.884   4.129  -0.261  0.7604  0.0208 -2.8558
    2CHTO  C114  434   4.778   4.360   0.045 -0.2539 -0.1766 -0.0001
    2CHTO  H218  435   4.669   4.353   0.035 -0.2660  0.3573 -0.2659
    2CHTO  C116  436   4.801   4.328   0.195  0.2847 -0.1107 -0.0145
    2CHTO  H220  437   4.905   4.353   0.224 -1.1976  3.1680  2.9830
    2CHTO   O79  438   4.719   4.417   0.282  0.9838  0.2602 -0.2924
    2CHTO  H201  439   4.631   4.386   0.276  0.6034  0.8863  1.6384
    2CHTO  C120  440   4.785   4.173   0.219  0.1464  1.0899 -0.4663
    2CHTO  H224  441   4.678   4.153   0.203  1.3206 -2.8082 -4.3331
    2CHTO   N21  442   4.829   4.143   0.362  0.0852  0.4872 -0.5187
    2CHTO  H211  443   4.762   4.076   0.413 -0.0760  2.8888  2.5742
    2CHTO  H212  444   4.847   4.235   0.417 -2.3153  2.0004 -2.1514
    2CHTO   O75  445   4.822   4.496   0.019  0.3000 -0.0632 -0.1330
    2CHTO  C112  446   4.683   4.617   0.025  0.3092  0.3265 -0.1672
    2CHTO  H216  447   4.730   4.712   0.052 -1.6230  1.2227  0.1365
    2CHTO   O73  448   4.583   4.576   0.127  0.0069 -0.4842  0.1417
    2CHTO  C113  449   4.478   4.675   0.154  0.0284 -0.1436  0.1873
    2CHTO  H217  450   4.531   4.762   0.197  1.0704 -1.5896  1.9236
    2CHTO  C124  451   4.366   4.630   0.254 -0.1440  0.1114  0.7935
    2CHTO   O83  452   4.274   4.521   0.219 -0.2220 -0.2207  0.0470
    2CHTO  H204  453   4.310   4.450   0.170 -1.4831  0.0093 -1.2409
    2CHTO  C109  454   4.408   4.716   0.019 -0.4623 -0.0229 -0.4325
    2CHTO  H213  455   4.353   4.629  -0.020 -0.7394 -0.4191  0.8186
    2CHTO  C110  456   4.505   4.758  -0.098  0.4110  0.9793  0.8522
    2CHTO  H214  457   4.566   4.842  -0.065 -1.2032  2.3425  0.4315
    2CHTO   O78  458   4.435   4.779  -0.219 -0.2046  0.0647  0.2616
    2CHTO  H200  459   4.472   4.848  -0.272  1.5261  1.1724  2.8232
    2CHTO  C111  460   4.609   4.639  -0.115 -0.0979  0.1052 -0.1332
    2CHTO  H215  461   4.555   4.550  -0.149  2.2283 -1.3419 -0.1038
    2CHTO   N19  462   4.718   4.663  -0.212  0.1634  0.3190  0.5328
    2CHTO  H207  463   4.702   4.596  -0.295 -0.5114  0.1615  0.7824
    2CHTO  H208  464   4.709   4.762  -0.253 -0.0502 -0.5835 -1.6373
    2CHTO   O74  465   4.331   4.830   0.027  0.3851 -0.4004 -0.4761
    2CHTO  C115  466   4.191   4.810  -0.050 -0.6993  0.0965  0.2881
    2CHTO  H219  467   4.199   4.744  -0.137 -1.1647 -0.2104  0.4745
    2CHTO   O76  468   4.089   4.740   0.042  0.2102 -1.1489 -0.0011
    2CHTO  C122  469   4.052   4.820   0.160  0.1142  0.2142  0.1651
    2CHTO  H226  470   4.138   4.826   0.228  1.6991 -0.0834 -1.7487
    2CHTO  C126  471   3.940   4.735   0.241 -0.4639  0.1838 -0.1398
    2CHTO   O85  472   3.825   4.736   0.165  0.3258 -0.6197  0.2346
    2CHTO  H206  473   3.762   4.689   0.217 -0.8309 -1.8947 -2.2461
    2CHTO  C121  474   4.005   4.964   0.132 -0.5331  0.3705  0.3094
    2CHTO  H225  475   3.907   4.994   0.176 -0.1111  1.0143  0.8255
    2CHTO   O81  476   4.098   5.050   0.205 -0.0771  0.8947 -0.1691
    2CHTO  H202  477   4.101   5.027   0.296 -0.7094 -0.1015 -0.3935
    2CHTO  C119  478   4.011   4.997  -0.019  0.2498 -0.4727  0.5835
    2CHTO  H223  479   3.931   4.944  -0.070  0.0478  1.0017 -0.6705
    2CHTO  C117  480   4.145   4.954  -0.089  0.2456 -0.3686  0.3952
    2CHTO  H221  481   4.221   5.023  -0.052  0.0898 -1.0388  1.9964
    2CHTO   N20  482   4.135   4.975  -0.239  0.2048 -0.5326  0.3384
    2CHTO  H209  483   4.053   5.036  -0.275 -0.4352 -0.6040  1.6581
    2CHTO  H210  484   4.228   5.014  -0.278  0.3224 -0.0156  1.1110
    2CHTO   O80  485   3.976   5.151  -0.046 -0.0463  0.6526  0.5721
    2CHTO  C103  486   3.828   5.196  -0.092  0.8643  0.0559  0.2907
    2CHTO  H190  487   3.805   5.161  -0.193  0.5412 -3.1477  1.4187
    2CHTO  C101  488   3.708   5.150   0.008  0.7602  0.2957 -0.5181
    2CHTO  H188  489   3.734   5.177   0.111 -1.1750  1.6201 -0.3449
    2CHTO   O68  490   3.678   4.991   0.006 -0.5401 -0.2589  0.3909
    2CHTO  H168  491   3.630   4.972  -0.072 -2.0167 -3.8481  2.0436
    2CHTO   C99  492   3.576   5.230  -0.019 -0.3621  0.4106  0.0120
    2CHTO  H186  493   3.548   5.189  -0.119 -1.0053 -1.8463  1.0785
    2CHTO   N17  494   3.463   5.205   0.080  0.5585  0.2819  0.3306
    2CHTO  H174  495   3.474   5.103   0.111  0.7543 -0.2482 -1.4198
    2CHTO  H175  496   3.370   5.213   0.025 -0.6582 -0.2629  2.2498
    2CHTO   C97  497   3.599   5.379  -0.043 -0.0376  0.2543  0.0993
    2CHTO  H184  498   3.613   5.422   0.058 -3.0603  0.4146  0.5095
    2CHTO   O64  499   3.709   5.404  -0.133  0.8283 -0.2550  0.6566
    2CHTO  C104  500   3.834   5.352  -0.095 -0.2567  0.1025  0.6028
    2CHTO  H191  501   3.876   5.386  -0.001 -2.3264 -0.4497  1.7444
    2CHTO  C108  502   3.937   5.394  -0.207  0.0296  0.2566  0.0572
    2CHTO   O71  503   3.913   5.343  -0.342  0.0078 -0.5191 -0.2889
    2CHTO  H171  504   3.924   5.250  -0.350  2.1728 -0.3411  0.4123
    2CHTO   O62  505   3.484   5.443  -0.107  0.3703 -0.3449  0.2945
    2CHTO   C91  506   3.404   5.535  -0.029 -0.1977 -0.2849 -0.2635
    2CHTO  H178  507   3.399   5.492   0.071  1.7552  0.9430  0.3881
    2CHTO   C92  508   3.265   5.540  -0.093  0.7584 -0.0846  0.3028
    2CHTO  H179  509   3.227   5.443  -0.128  1.0337  0.1902 -0.7770
    2CHTO   O66  510   3.172   5.580   0.013  0.1463 -0.2104 -0.0412
    2CHTO  H166  511   3.155   5.514   0.077 -0.6173  2.4657  2.6127
    2CHTO   C93  512   3.243   5.654  -0.201 -1.1877  0.1414  0.2198
    2CHTO  H180  513   3.134   5.660  -0.216 -0.9890  0.0370 -1.2883
    2CHTO   N16  514   3.292   5.629  -0.339  0.7347  0.2100  0.1053
    2CHTO  H172  515   3.220   5.562  -0.383  1.1570 -0.5766  0.5980
    2CHTO  H173  516   3.396   5.599  -0.347  0.0662 -2.3002  0.7329
    2CHTO   C94  517   3.295   5.788  -0.146  0.4552 -0.0858  0.2323
    2CHTO  H181  518   3.348   5.845  -0.223 -2.5246  0.3969 -1.5246
    2CHTO   O61  519   3.377   5.790  -0.027 -0.4998 -0.2904  0.3847
    2CHTO   C95  520   3.468   5.678  -0.022  0.1633 -0.1267  0.2426
    2CHTO  H182  521   3.538   5.689  -0.105  0.5897  0.4498  0.6803
    2CHTO  C106  522   3.555   5.693   0.104  0.2526 -0.1300 -0.0065
    2CHTO   O69  523   3.483   5.706   0.227  0.1388  0.0170  0.8378
    2CHTO  H169  524   3.546   5.721   0.295  0.9848  1.1546 -0.1733
    2CHTO   O63  525   3.158   5.876  -0.110  0.6991 -0.0221  0.6058
    2CHTO   C96  526   3.174   6.044  -0.108 -0.3232 -0.1214  1.0514
    2CHTO  H183  527   3.280   6.070  -0.112  0.0460 -1.6851  0.3992
    2CHTO   C98  528   3.115   6.102   0.023  0.2734 -0.2891  0.3597
    2CHTO  H185  529   3.018   6.059   0.050 -1.1269  1.4905 -1.6345
    2CHTO   O67  530   3.206   6.058   0.126 -0.3548 -0.1639 -0.8289
    2CHTO  H167  531   3.292   6.095   0.111 -0.4900 -0.8945 -3.6243
    2CHTO  C102  532   3.102   6.263   0.012  0.0974  0.0340  0.5888
    2CHTO  H189  533   3.207   6.294   0.007  0.6718 -1.9424  0.2569
    2CHTO   N18  534   3.044   6.327   0.134 -0.9760 -0.9824  0.2946
    2CHTO  H176  535   3.038   6.433   0.116 -1.6364 -1.0483  0.1251
    2CHTO  H177  536   2.956   6.268   0.157  0.0269 -2.9367 -0.7059
    2CHTO  C105  537   3.021   6.299  -0.119 -0.2575  0.8497  0.6822
    2CHTO  H192  538   2.925   6.249  -0.117  0.4629 -0.5281  2.3064
    2CHTO   O65  539   3.098   6.251  -0.235  0.7474 -0.4960 -0.3601
    2CHTO  C100  540   3.109   6.104  -0.236 -0.6043  1.4448  0.3534
    2CHTO  H187  541   3.004   6.073  -0.227  0.3945 -1.6848  1.9402
    2CHTO  C107  542   3.179   6.055  -0.370 -0.0581 -0.4769 -0.0458
    2CHTO   O70  543   3.090   6.072  -0.485  0.4996 -0.0996  0.0763
    2CHTO  H170  544   3.076   6.164  -0.488 -2.0566 -0.4917 -2.0038
    2CHTO   O57  545   3.000   6.458  -0.134 -0.1321  0.2426 -0.1418
    2CHTO   C85  546   2.904   6.516  -0.229 -1.3600 -0.0145  0.6949
    2CHTO  H157  547   2.816   6.449  -0.217  0.3570 -2.6939 -1.0007
    2CHTO   C83  548   2.962   6.501  -0.374  0.2073  0.6144  0.5316
    2CHTO  H155  549   2.978   6.396  -0.395 -2.1952  0.4761 -0.7960
    2CHTO   O56  550   3.095   6.560  -0.376  0.4985  0.5000  0.2116
    2CHTO  H135  551   3.144   6.552  -0.296  0.8659  0.1005 -0.0532
    2CHTO   C81  552   2.857   6.568  -0.477 -0.3792 -0.9083 -0.9961
    2CHTO  H153  553   2.758   6.525  -0.461 -0.6464  0.4408  1.2691
    2CHTO   N14  554   2.899   6.547  -0.619  0.2242  0.3411  0.1189
    2CHTO  H141  555   2.839   6.476  -0.673 -0.4185  0.6039  0.4775
    2CHTO  H142  556   2.891   6.637  -0.676 -0.4534 -1.9972 -3.7239
    2CHTO   C79  557   2.842   6.720  -0.438  0.9748  0.4737  0.2001
    2CHTO  H151  558   2.773   6.762  -0.511  0.4486 -0.0175  0.4184
    2CHTO   O52  559   2.796   6.733  -0.303 -0.1445  0.1803  0.2946
    2CHTO   C86  560   2.870   6.668  -0.200 -1.1745 -0.3709 -0.1845
    2CHTO  H158  561   2.958   6.733  -0.182 -1.4219  0.1092 -0.6744
    2CHTO   C90  562   2.794   6.665  -0.064 -0.1975  0.5008  0.4129
    2CHTO   O60  563   2.828   6.783   0.011 -0.4908  0.3270 -0.1067
    2CHTO  H138  564   2.799   6.855  -0.042  0.3220  0.7137 -0.0334
    2CHTO   O50  565   2.958   6.810  -0.455 -0.7114  0.3557  0.0493
    2CHTO   C73  566   3.049   6.926  -0.477 -0.3751 -0.2905 -0.3771
    2CHTO  H145  567   3.002   7.015  -0.433 -1.1554  0.5234 -2.7378
    2CHTO   C74  568   3.073   6.959  -0.628 -0.1555  0.5084  0.3976
    2CHTO  H146  569   2.978   6.976  -0.682  0.0982  0.4371 -0.0784
    2CHTO   O54  570   3.136   7.084  -0.632  0.1803  0.5380 -0.0640
    2CHTO  H133  571   3.155   7.112  -0.720  1.7512 -0.3327 -0.0381
    2CHTO   C75  572   3.149   6.837  -0.694  0.2232 -1.0672  0.8878
    2CHTO  H147  573   3.086   6.747  -0.686  2.0131 -2.5529 -1.1806
    2CHTO   N13  574   3.192   6.864  -0.835  0.0868  0.3509 -0.0900
    2CHTO  H139  575   3.259   6.947  -0.844 -1.7285  1.9701  0.9144
    2CHTO  H140  576   3.107   6.880  -0.899 -2.1747 -3.1427  1.8301
    2CHTO   C76  577   3.278   6.803  -0.607  0.4422 -0.1056  0.1871
    2CHTO  H148  578   3.351   6.883  -0.620  1.4421 -1.2091 -1.1244
    2CHTO   O49  579   3.246   6.787  -0.466 -0.4057  0.1836  1.0573
    2CHTO   C77  580   3.188   6.906  -0.410  0.2587  0.3105  0.5687
    2CHTO  H149  581   3.251   6.993  -0.429  1.9203 -0.9945  0.0032
    2CHTO   C88  582   3.186   6.887  -0.260  0.1251  0.0498  0.6540
    2CHTO   O58  583   3.107   6.994  -0.196 -0.4708  0.1416 -0.7330
    2CHTO  H136  584   3.098   6.980  -0.104  0.2566  2.6191 -0.2425
    2CHTO   O51  585   3.332   6.664  -0.664  0.0908 -0.4921  0.2673
    2CHTO   C78  586   3.444   6.598  -0.561  0.0956 -0.7472 -0.3382
    2CHTO  H150  587   3.402   6.603  -0.458 -0.7242  2.5420 -0.7823
    2CHTO   C80  588   3.580   6.661  -0.569  0.2580  0.4850  0.3585
    2CHTO  H152  589   3.619   6.653  -0.673  0.1981 -0.2333  0.3935
    2CHTO   O55  590   3.567   6.797  -0.519 -0.2558 -0.1318 -0.1268
    2CHTO  H134  591   3.629   6.841  -0.573  1.8944 -1.7706  0.9207
    2CHTO   C84  592   3.689   6.591  -0.479 -0.0396  0.3811 -0.5238
    2CHTO  H156  593   3.652   6.606  -0.378  1.5022 -1.4460  0.3548
    2CHTO   N15  594   3.825   6.653  -0.489  0.4383  0.4765 -0.4628
    2CHTO  H143  595   3.888   6.617  -0.410 -0.1288  1.6405  0.5342
    2CHTO  H144  596   3.871   6.635  -0.584  0.5990 -1.0611 -0.0997
    2CHTO   C87  597   3.686   6.438  -0.500 -0.0221  0.2882 -0.3735
    2CHTO  H159  598   3.746   6.414  -0.588  1.0110 -0.7361  0.5930
    2CHTO   O53  599   3.546   6.396  -0.495  0.0506 -0.4890 -0.0673
    2CHTO   C82  600   3.455   6.445  -0.591 -0.0767 -0.5382  0.7101
    2CHTO  H154  601   3.493   6.420  -0.690 -4.4992 -0.6025 -1.0983
    2CHTO   C89  602   3.329   6.370  -0.572 -0.3852 -0.4500 -0.3234
    2CHTO   O59  603   3.243   6.391  -0.682  0.2366 -0.1779  0.3006
    2CHTO  H137  604   3.160   6.365  -0.648  0.6437  0.9034  2.1630
    2CHTO   O45  605   3.765   6.363  -0.376  0.2684 -0.7175  0.8742
    2CHTO   C67  606   3.696   6.358  -0.246 -0.4362  0.8548 -1.0207
    2CHTO  H124  607   3.635   6.448  -0.234 -0.8906  0.2655  1.2153
    2CHTO   C65  608   3.606   6.231  -0.227 -0.3254  0.2067 -0.9616
    2CHTO  H122  609   3.629   6.169  -0.314  1.1887 -2.0662  0.9955
    2CHTO   O44  610   3.471   6.278  -0.239 -0.3942  0.3303  0.0145
    2CHTO  H102  611   3.440   6.286  -0.151  1.1202 -1.5594  0.7560
    2CHTO   C63  612   3.653   6.155  -0.105 -0.0047 -0.7496 -0.2669
    2CHTO  H120  613   3.757   6.124  -0.111  0.5304  1.1210 -1.0391
    2CHTO   N11  614   3.578   6.029  -0.073  0.4911  0.4161 -0.0316
    2CHTO  H108  615   3.479   6.055  -0.039  0.8233 -1.0176  2.1232
    2CHTO  H109  616   3.571   5.959  -0.153  2.1760  2.8740 -2.4105
    2CHTO   C61  617   3.651   6.258   0.014  0.0925  0.2268 -0.9385
    2CHTO  H118  618   3.672   6.206   0.108  1.5889  0.3275 -1.2085
    2CHTO   O40  619   3.749   6.367   0.002  0.1441  1.0388  0.2011
    2CHTO   C68  620   3.809   6.372  -0.134 -0.3484 -0.3008 -0.9553
    2CHTO  H125  621   3.882   6.289  -0.146 -0.8600 -1.4662  3.1396
    2CHTO   C72  622   3.892   6.504  -0.148  0.2205 -0.1730  0.2953
    2CHTO   O48  623   3.827   6.637  -0.149 -0.1904 -0.4980  0.4195
    2CHTO  H105  624   3.893   6.703  -0.138 -0.6910  0.2301 -0.8940
    2CHTO   O38  625   3.525   6.323   0.030  0.1665  0.1180 -0.3688
    2CHTO   C55  626   3.513   6.394   0.152 -0.1034 -0.4810 -0.0343
    2CHTO  H112  627   3.612   6.421   0.191 -0.7692  1.1095  0.5976
    2CHTO   C56  628   3.429   6.300   0.247 -0.5282  0.0609  0.4034
    2CHTO  H113  629   3.340   6.258   0.198 -0.6522 -0.5779  1.1531
    2CHTO   O42  630   3.505   6.181   0.291  0.3655  0.4268  0.7617
    2CHTO  H100  631   3.528   6.134   0.212 -1.7735  0.3415  0.1474
    2CHTO   C57  632   3.375   6.388   0.371  0.1614 -0.0204  0.0917
    2CHTO  H114  633   3.458   6.419   0.435  0.1309 -0.3329  0.2830
    2CHTO   N10  634   3.282   6.299   0.448 -0.0878 -0.2790 -0.4122
    2CHTO  H106  635   3.179   6.320   0.424 -0.8457 -0.8270  2.1140
    2CHTO  H107  636   3.300   6.303   0.555 -1.8193  1.0401 -0.1498
    2CHTO   C58  637   3.309   6.517   0.317 -0.2426 -0.3132 -0.7070
    2CHTO  H115  638   3.225   6.485   0.251  1.0669 -2.7841 -1.2343
    2CHTO   O37  639   3.416   6.591   0.245  0.2260 -0.0734 -0.7959
    2CHTO   C59  640   3.454   6.528   0.118 -0.6644  0.2447 -0.0144
    2CHTO  H116  641   3.373   6.524   0.046 -0.5413 -0.2904 -0.1216
    2CHTO   C70  642   3.561   6.621   0.050 -0.1795  0.5031  0.4315
    2CHTO   O46  643   3.513   6.751   0.014  0.2142  0.3345 -0.6917
    2CHTO  H103  644   3.581   6.810   0.038 -0.3571  1.0638 -0.8569
    2CHTO   O39  645   3.260   6.620   0.442 -0.2720 -0.1427  0.0966
    2CHTO   C60  646   3.126   6.669   0.414 -0.6571  0.5415 -0.0332
    2CHTO  H117  647   3.099   6.684   0.310  0.4107 -2.7141 -0.8531
    2CHTO   C62  648   3.018   6.555   0.456  0.7207 -0.2319 -0.4200
    2CHTO  H119  649   3.028   6.464   0.394  0.7035  0.6927 -1.8055
    2CHTO   O43  650   3.034   6.520   0.599 -0.6656 -0.7318  0.2572
    2CHTO  H101  651   3.123   6.498   0.620  0.0986  0.7210 -1.3317
    2CHTO   C66  652   2.868   6.611   0.413 -0.0043 -0.0661  0.0060
    2CHTO  H123  653   2.871   6.631   0.305 -0.9856 -3.6484 -0.7388
    2CHTO   N12  654   2.759   6.518   0.441 -0.2286  0.4887  0.1223
    2CHTO  H110  655   2.792   6.417   0.419  1.7001  1.1179  0.0448
    2CHTO  H111  656   2.675   6.541   0.379 -0.2842  1.9552  0.7360
    2CHTO   C69  657   2.845   6.743   0.492  1.1486  0.0642  0.3735
    2CHTO  H126  658   2.843   6.721   0.601 -1.3561  2.6080  0.8941
    2CHTO   O41  659   2.975   6.846   0.460  0.2758 -0.2635 -0.6873
    2CHTO   C64  660   3.095   6.799   0.492 -0.0422 -0.0523  0.5032
    2CHTO  H121  661   3.085   6.780   0.601 -1.7922  0.8216  0.5061
    2CHTO   C71  662   3.203   6.909   0.481 -0.6596 -0.2021 -0.2965
    2CHTO   O47  663   3.195   6.969   0.345 -0.4279  0.1662  0.0141
    2CHTO  H104  664   3.235   6.916   0.279  0.1321  1.7838 -0.9623
    2CHTO   O34  665   2.705   6.809   0.449 -0.0482  0.3451  0.4317
    2CHTO   C49  666   2.555   6.854   0.461 -0.1929  0.9130  0.2028
    2CHTO   H91  667   2.512   6.778   0.526 -0.4647  0.7704 -0.1432
    2CHTO   C47  668   2.477   6.853   0.331 -0.2685 -0.2510  0.2451
    2CHTO   H89  669   2.371   6.872   0.359 -0.1908  0.1150  0.2982
    2CHTO   O33  670   2.494   6.724   0.265 -0.4903  0.3899 -0.5663
    2CHTO   H70  671   2.428   6.714   0.199 -0.8366 -0.2284 -0.1343
    2CHTO   C45  672   2.536   6.971   0.227 -0.1996  0.1448 -0.5978
    2CHTO   H87  673   2.642   6.954   0.205  0.1328  1.3769  0.0149
    2CHTO    N8  674   2.457   6.980   0.102 -0.5756  0.2461  0.2826
    2CHTO   H75  675   2.353   6.961   0.126 -0.7058 -1.3906 -1.4718
    2CHTO   H76  676   2.490   6.909   0.028 -1.8390  2.8059 -2.8473
    2CHTO   C43  677   2.535   7.114   0.307 -0.2516  0.2761  0.4160
    2CHTO   H85  678   2.599   7.177   0.246  1.5546 -1.9385 -0.0274
    2CHTO   O29  679   2.581   7.113   0.441  0.1700 -0.3511 -0.8197
    2CHTO   C50  680   2.550   7.000   0.529  0.0973 -0.4334 -0.6635
    2CHTO   H92  681   2.623   7.005   0.611 -1.4201  0.9850  0.6193
    2CHTO   C54  682   2.415   7.025   0.599  0.6143  0.3615  0.5311
    2CHTO   O36  683   2.364   6.904   0.661 -0.4590  0.2711 -0.8876
    2CHTO   H72  684   2.424   6.881   0.729 -0.9294  1.3095 -0.1103
    2CHTO   O27  685   2.409   7.178   0.318  0.3309 -0.1201 -0.0942
    2CHTO   C37  686   2.331   7.297   0.303 -0.2061 -0.5516  0.1453
    2CHTO   H79  687   2.286   7.287   0.203 -0.9615 -3.8999  0.7781
    2CHTO   C38  688   2.216   7.302   0.406  0.5442  0.1662 -0.0097
    2CHTO   H80  689   2.260   7.282   0.505  0.4516 -2.7471 -0.5139
    2CHTO   O31  690   2.132   7.193   0.367 -0.5115  0.0112 -0.5002
    2CHTO   H68  691   2.074   7.178   0.440  3.0455  1.3158  2.7249
    2CHTO   C39  692   2.134   7.442   0.413 -0.3461  0.4284  0.2505
    2CHTO   H81  693   2.078   7.450   0.320 -1.7050  1.2440  1.1244
    2CHTO    N7  694   2.035   7.450   0.521  0.1079  0.5276 -0.5866
    2CHTO   H73  695   2.085   7.453   0.617 -0.6048 -3.2714 -0.0510
    2CHTO   H74  696   1.974   7.361   0.518  0.2962  0.3238  1.0678
    2CHTO   C40  697   2.235   7.571   0.419  0.4366  0.3252 -0.3022
    2CHTO   H82  698   2.286   7.563   0.514 -0.8079  0.5840  0.3991
    2CHTO   O26  699   2.320   7.547   0.307 -0.1133  0.2076 -0.3400
    2CHTO   C41  700   2.414   7.431   0.312  0.4587  0.1762 -0.6357
    2CHTO   H83  701   2.461   7.437   0.412 -1.4457 -0.1234  0.3081
    2CHTO   C52  702   2.511   7.443   0.200  0.0125 -0.6055  0.1725
    2CHTO   O35  703   2.600   7.554   0.220 -0.1137 -0.1550 -0.2701
    2CHTO   H71  704   2.569   7.626   0.169  2.5736  1.2847  0.0489
    2CHTO   O28  705   2.177   7.702   0.416  0.3788 -0.2148 -0.1558
    2CHTO   C42  706   2.233   7.830   0.480  0.5191 -0.2893  0.8058
    2CHTO   H84  707   2.170   7.912   0.447  1.2966  0.5584  1.4045
    2CHTO   C44  708   2.376   7.872   0.431 -0.2982 -0.2134  0.1316
    2CHTO   H86  709   2.450   7.796   0.456 -2.7532 -2.3663  1.0164
    2CHTO   O32  710   2.363   7.869   0.290  0.2542 -0.3495 -0.1009
    2CHTO   H69  711   2.397   7.787   0.259 -1.3604 -2.1642  2.6983
    2CHTO   C48  712   2.426   8.014   0.487 -0.7900  0.1638  0.1697
    2CHTO   H90  713   2.350   8.088   0.461 -0.5640 -0.5235 -2.5858
    2CHTO    N9  714   2.561   8.057   0.442 -0.8435 -0.2029 -0.2714
    2CHTO   H77  715   2.582   8.152   0.490  1.7773 -0.1505 -1.4545
    2CHTO   H78  716   2.557   8.057   0.335  1.1177 -3.3949 -0.4256
    2CHTO   C51  717   2.410   8.028   0.638 -0.5301  0.1462 -0.0521
    2CHTO   H93  718   2.490   7.971   0.687 -0.5452  0.0836 -0.1008
    2CHTO   O30  719   2.282   7.976   0.673  0.4339  0.0894  0.1670
    2CHTO   C46  720   2.235   7.838   0.639  0.1885 -0.2196  0.3365
    2CHTO   H88  721   2.300   7.767   0.689  1.1784 -0.0163 -0.6364
    2CHTO   C53  722   2.093   7.824   0.694  1.1697 -0.0473 -0.0146
    2CHTO   O72  723   2.085   7.820   0.834  0.5650 -0.5100 -0.9452
    2CHTO  H199  724   2.051   7.736   0.859 -2.7669  1.2939  0.8536
    2CHTO   O22  725   2.420   8.164   0.680 -0.4404  0.2723  0.6932
    2CHTO   C31  726   2.448   8.207   0.819 -0.3229 -0.3629 -0.0468
    2CHTO   H59  727   2.456   8.317   0.823 -0.2024 -0.3716 -0.0470
    2CHTO   C29  728   2.336   8.169   0.919 -0.2503  0.1309  0.1544
    2CHTO   H57  729   2.322   8.060   0.925 -0.6024  0.2751  2.2612
    2CHTO   O21  730   2.209   8.212   0.863  0.2678 -0.0128  0.3459
    2CHTO   H37  731   2.187   8.155   0.792 -0.0590  1.2695 -0.5963
    2CHTO   C27  732   2.378   8.228   1.063 -0.3922  0.4771 -0.5628
    2CHTO   H55  733   2.378   8.337   1.053  0.1887  0.5487  0.1843
    2CHTO    N5  734   2.277   8.188   1.164  0.6081  0.0162  0.2839
    2CHTO   H43  735   2.266   8.260   1.244 -0.6458 -1.3486  1.3585
    2CHTO   H44  736   2.267   8.084   1.189 -0.9531  0.5706  2.1053
    2CHTO   C25  737   2.518   8.167   1.110 -0.2957  0.1852 -0.1107
    2CHTO   H53  738   2.514   8.058   1.119  2.0325  0.1311  0.4722
    2CHTO   O17  739   2.614   8.203   1.007  0.5895 -0.0245  0.0169
    2CHTO   C32  740   2.583   8.157   0.875  0.2702 -1.1555 -0.3491
    2CHTO   H60  741   2.574   8.049   0.869 -1.6712 -1.0883  0.7922
    2CHTO   C36  742   2.698   8.203   0.776 -0.6484  0.3948 -0.5059
    2CHTO   O25  743   2.813   8.120   0.794  0.4679  0.6904 -0.5380
    2CHTO   H40  744   2.897   8.155   0.769  0.4709  0.1148 -1.3645
    2CHTO   O15  745   2.571   8.215   1.235 -0.7777  0.1216 -0.6075
    2CHTO   C19  746   2.661   8.157   1.335  0.3108 -0.3037  0.0336
    2CHTO   H47  747   2.629   8.052   1.340 -1.9642  0.2980 -1.0971
    2CHTO   C20  748   2.811   8.171   1.303 -0.3893 -0.3190  0.5230
    2CHTO   H48  749   2.840   8.274   1.275 -1.2571 -0.5351 -1.2635
    2CHTO   O19  750   2.829   8.095   1.183 -0.2431 -0.0848  0.2958
    2CHTO   H35  751   2.806   8.156   1.116 -0.4013  1.2193  1.5284
    2CHTO   C21  752   2.902   8.119   1.426  0.3499  0.1562 -0.5717
    2CHTO   H49  753   2.897   8.011   1.428  0.5710  0.1458 -0.6563
    2CHTO    N4  754   3.047   8.135   1.410  0.0051  0.1423 -0.3792
    2CHTO   H41  755   3.106   8.052   1.447  0.3623  1.2049  1.4856
    2CHTO   H42  756   3.073   8.227   1.460 -1.8316  2.1621 -3.0703
    2CHTO   C22  757   2.847   8.173   1.560 -0.8115 -0.8515  0.7051
    2CHTO   H50  758   2.868   8.280   1.562  0.0911 -1.0284  0.8622
    2CHTO   O14  759   2.711   8.146   1.579 -0.3206  0.3613 -0.7604
    2CHTO   C23  760   2.634   8.211   1.478  0.0969  0.0152 -0.3056
    2CHTO   H51  761   2.652   8.319   1.489 -2.2497  0.1917  2.6178
    2CHTO   C34  762   2.488   8.189   1.520  0.2545 -0.1195 -0.7252
    2CHTO   O23  763   2.447   8.287   1.612 -0.2550 -0.0709  0.7719
    2CHTO   H38  764   2.406   8.359   1.568  0.5581  0.8737  1.5413
    2CHTO   O16  765   2.901   8.097   1.671 -0.7614  0.4163  0.0999
    2CHTO   C24  766   2.922   8.191   1.801 -0.2678 -0.5415  0.2416
    2CHTO   H52  767   2.875   8.288   1.788  1.2176  0.1010 -0.5106
    2CHTO   C26  768   3.071   8.226   1.820 -0.0083 -0.6929  0.7561
    2CHTO   H54  769   3.127   8.130   1.822  0.3627 -0.4982  0.1688
    2CHTO   O20  770   3.118   8.305   1.703  0.7908 -0.4789 -0.3945
    2CHTO   H36  771   3.128   8.250   1.628  2.5168  0.0950 -0.6219
    2CHTO   C30  772   3.101   8.302   1.955 -0.1989 -0.1817  0.2849
    2CHTO   H58  773   3.072   8.407   1.937  0.5880  0.1510  0.9133
    2CHTO    N6  774   3.250   8.307   1.987 -0.2919 -0.7120  0.5794
    2CHTO   H45  775   3.256   8.351   2.085  0.2246  1.7931 -0.5522
    2CHTO   H46  776   3.282   8.203   1.983  0.4211 -0.4180 -1.9905
    2CHTO   C33  777   3.010   8.250   2.075 -0.5734 -0.7884 -0.5125
    2CHTO   H61  778   3.052   8.154   2.108  0.3813 -0.4064 -0.5972
    2CHTO   O18  779   2.876   8.231   2.032  0.2286 -0.4160 -0.2148
    2CHTO   C28  780   2.866   8.129   1.935  0.0444 -0.2988 -0.3174
    2CHTO   H56  781   2.929   8.046   1.967 -1.7489 -1.5477  0.0383
    2CHTO   C35  782   2.717   8.089   1.913 -0.6057 -0.1814  0.5713
    2CHTO   O24  783   2.697   7.973   1.829 -0.1145  0.3304 -0.3589
    2CHTO   H39  784   2.609   7.971   1.796 -0.2032  1.0649 -0.1784
    2CHTO    O9  785   3.014   8.344   2.187 -0.2479  0.2598  0.0359
    2CHTO   C13  786   2.960   8.285   2.336  0.2803 -0.2258 -0.6699
    2CHTO   H26  787   2.994   8.180   2.348  0.4807 -0.0830  0.0665
    2CHTO   C11  788   2.807   8.302   2.354  0.5484 -0.0293  0.5962
    2CHTO   H24  789   2.758   8.221   2.298 -0.5674  0.5929  0.6568
    2CHTO    O8  790   2.754   8.418   2.292 -0.5090 -0.6675 -0.4265
    2CHTO    H3  791   2.795   8.428   2.208  0.3265  2.0098  0.2417
    2CHTO    C9  792   2.774   8.296   2.507  0.2427  0.2033  0.0197
    2CHTO   H22  793   2.806   8.195   2.537  0.8167 -0.3159 -2.2159
    2CHTO    N2  794   2.626   8.291   2.531 -0.3498  0.4569 -0.6339
    2CHTO   H10  795   2.564   8.346   2.461 -1.4405  1.7080  1.2557
    2CHTO   H11  796   2.593   8.188   2.532 -1.5527  0.8398  0.7752
    2CHTO    C7  797   2.871   8.399   2.594 -0.3834 -0.4192  0.3701
    2CHTO   H20  798   2.912   8.324   2.664 -1.4211  0.1302  1.5977
    2CHTO    O4  799   2.974   8.458   2.514 -0.1069  0.2397  0.1751
    2CHTO   C14  800   3.052   8.359   2.451 -0.0041 -0.1837 -0.1606
    2CHTO   H27  801   3.077   8.293   2.537 -0.3550 -0.4215 -0.2422
    2CHTO   C18  802   3.187   8.415   2.399 -0.2720 -0.0167  0.1670
    2CHTO   O13  803   3.185   8.540   2.318  0.4659  0.2329  0.3030
    2CHTO    H7  804   3.192   8.515   2.228 -1.8208 -0.1644  0.2145
    2CHTO    O2  805   2.784   8.518   2.656  0.1429 -0.4496  0.4270
    2CHTO    C1  806   2.845   8.552   2.786 -0.4698 -0.4233 -0.5665
    2CHTO   H14  807   2.950   8.515   2.791 -0.2108  0.3448 -0.2798
    2CHTO    C2  808   2.771   8.495   2.909 -0.3252  0.0989  0.7145
    2CHTO   H15  809   2.667   8.525   2.886  0.0965 -0.4549 -2.0535
    2CHTO    O6  810   2.786   8.355   2.911 -0.0751 -0.1590 -0.6924
    2CHTO    H1  811   2.808   8.321   2.996  1.2681  0.9017 -0.5929
    2CHTO    C3  812   2.817   8.563   3.054  1.1607 -0.1975 -0.5166
    2CHTO   H16  813   2.919   8.539   3.085  0.3295 -0.0594  2.5821
    2CHTO    N1  814   2.728   8.513   3.164 -0.2385 -0.0902  0.3187
    2CHTO    H8  815   2.623   8.522   3.141  0.3806 -0.1783 -2.7606
    2CHTO    H9  816   2.761   8.418   3.205  0.7383 -0.5028 -1.3813
    2CHTO    C4  817   2.818   8.722   3.032 -0.0900  0.0636  0.5445
    2CHTO   H17  818   2.719   8.767   3.027  0.4794  1.2503 -0.0377
    2CHTO    O1  819   2.891   8.757   2.917  0.0201 -0.2096  0.2764
    2CHTO    C5  820   2.850   8.708   2.785  0.5298 -0.2978 -0.4330
    2CHTO   H18  821   2.748   8.739   2.764 -0.1286 -0.8021  1.8832
    2CHTO   C16  822   2.950   8.760   2.673  0.6013  0.2425  0.3737
    2CHTO   O11  823   2.942   8.906   2.663  0.6263 -0.2351  0.4253
    2CHTO    H5  824   2.978   8.938   2.582 -1.1739  2.7223  0.7006
    2CHTO    O3  825   2.894   8.784   3.135 -0.0043  0.2812  0.4036
    2CHTO    C6  826   2.883   8.928   3.155  0.5830  0.3065 -0.0919
    2CHTO   H19  827   2.844   8.977   3.065 -0.0500  0.5314  0.2953
    2CHTO    C8  828   2.786   8.957   3.279  0.8808 -0.6368 -0.6453
    2CHTO   H21  829   2.819   8.887   3.356 -0.8703  1.6637  2.2996
    2CHTO    O7  830   2.652   8.925   3.245 -0.1228 -0.2745 -0.2795
    2CHTO    H2  831   2.601   8.917   3.323 -1.1981 -1.7600 -1.1109
    2CHTO   C12  832   2.810   9.093   3.354  0.6949 -0.4314 -0.0264
    2CHTO   H25  833   2.758   9.170   3.293  1.0095 -1.0920 -1.1431
    2CHTO    N3  834   2.738   9.088   3.491 -0.7951 -0.5343 -0.2494
    2CHTO   H12  835   2.755   8.993   3.539 -0.3832  0.8564  2.4576
    2CHTO   H13  836   2.768   9.168   3.556 -2.4501  0.5157 -0.7374
    2CHTO   C15  837   2.960   9.133   3.360 -0.3686  0.8084 -0.2642
    2CHTO   H28  838   3.017   9.070   3.429  2.0776 -0.2842 -3.1341
    2CHTO   O10  839   2.987   9.280   3.399 -0.4544 -0.0655 -0.2586
    2CHTO    H4  840   3.038   9.277   3.477  1.0829  0.2946 -1.2387
    2CHTO    O5  841   3.020   9.118   3.229  0.1721  0.2617  0.3418
    2CHTO   C10  842   3.021   8.985   3.186  0.1746 -0.1680  0.3897
    2CHTO   H23  843   3.081   8.931   3.259  0.6285 -0.4565 -0.2026
    2CHTO   C17  844   3.111   8.975   3.066 -0.1019  0.0727  0.2836
    2CHTO   O12  845   3.069   9.029   2.939 -0.2873 -0.4915  0.4832
    2CHTO    H6  846   3.057   9.121   2.948  0.5533 -0.4119  0.8396
    3CHTO  H203  847   7.742   2.385   1.986  2.5558 -0.4414  0.6974
    3CHTO   O82  848   7.715   2.360   2.073 -0.0979  0.1439  0.0731
    3CHTO  C123  849   7.618   2.260   2.076  0.5929 -0.0582  0.1414
    3CHTO  H227  850   7.588   2.251   2.181 -0.3131  3.5965  0.2675
    3CHTO   O77  851   7.502   2.318   2.012  0.2424 -0.3374 -0.4100
    3CHTO  C118  852   7.382   2.241   1.977  0.0129 -0.9129 -0.5958
    3CHTO  H222  853   7.319   2.220   2.064 -1.4893  2.2707 -0.8452
    3CHTO  C125  854   7.285   2.335   1.890  0.2329 -0.3514 -0.4055
    3CHTO   O84  855   7.150   2.280   1.879 -0.0636  0.2302  0.0192
    3CHTO  H205  856   7.141   2.208   1.818  0.4071  1.6428 -1.7656
    3CHTO  C114  857   7.416   2.114   1.901  0.4474 -0.1713 -0.4051
    3CHTO  H218  858   7.450   2.143   1.801  4.4872 -0.9885  0.6515
    3CHTO  C116  859   7.533   2.039   1.973  0.1233  0.8581 -0.5710
    3CHTO  H220  860   7.493   2.005   2.070 -0.8330  2.0673 -0.5398
    3CHTO   O79  861   7.568   1.921   1.898  0.2659 -0.8937  0.0427
    3CHTO  H201  862   7.494   1.866   1.882  0.4155 -0.5745 -1.8356
    3CHTO  C120  863   7.661   2.124   2.003 -0.3026 -0.3713  0.0414
    3CHTO  H224  864   7.700   2.149   1.903  0.4319  0.3024  0.4862
    3CHTO   N21  865   7.759   2.056   2.093  0.4150 -0.2550  0.5134
    3CHTO  H211  866   7.830   1.996   2.037 -1.2271 -2.5300  0.8044
    3CHTO  H212  867   7.813   2.135   2.143 -0.6022 -0.6675  2.2978
    3CHTO   O75  868   7.293   2.037   1.899  0.3169  1.0975  0.4124
    3CHTO  C112  869   7.255   1.945   1.771 -0.6937  0.1627 -0.0004
    3CHTO  H216  870   7.351   1.921   1.723 -1.0453 -0.5388 -0.3607
    3CHTO   O73  871   7.173   2.028   1.689  0.7789 -0.5843 -0.2966
    3CHTO  C113  872   7.112   1.967   1.571 -0.1716 -0.1350  0.0493
    3CHTO  H217  873   7.189   1.935   1.498  0.6032  2.0637 -0.1266
    3CHTO  C124  874   7.040   2.077   1.503  0.0068 -0.7350 -0.7391
    3CHTO   O83  875   6.956   2.045   1.394 -0.3248 -0.5542  0.3074
    3CHTO  H204  876   6.966   2.111   1.328 -0.1917  1.2961  2.1185
    3CHTO  C109  877   7.036   1.838   1.607  0.6916 -0.0543 -0.0617
    3CHTO  H213  878   6.961   1.867   1.682 -0.5414 -3.7546  0.2451
    3CHTO  C110  879   7.137   1.735   1.677  0.0822 -0.2565 -0.4328
    3CHTO  H214  880   7.223   1.711   1.613  0.7572  1.4813 -0.1966
    3CHTO   O78  881   7.060   1.619   1.711  0.0943  0.2717 -0.5592
    3CHTO  H200  882   7.109   1.541   1.727 -0.9031 -0.3578 -0.5824
    3CHTO  C111  883   7.187   1.805   1.808  0.4529 -0.1553 -0.2538
    3CHTO  H215  884   7.097   1.826   1.868  0.7819 -0.1313  0.2326
    3CHTO   N19  885   7.282   1.729   1.893  0.1806 -0.3413  0.3360
    3CHTO  H207  886   7.232   1.694   1.982 -0.5593 -1.2220 -0.4164
    3CHTO  H208  887   7.370   1.784   1.922 -0.2728  1.7392 -1.9916
    3CHTO   O74  888   6.962   1.784   1.497 -1.0695 -0.4878  0.1455
    3CHTO  C115  889   6.804   1.776   1.533 -0.9618  0.3278  0.4510
    3CHTO  H219  890   6.786   1.774   1.640  0.6813 -0.4542  0.7284
    3CHTO   O76  891   6.734   1.898   1.490  0.5141  0.0554  0.1473
    3CHTO  C122  892   6.587   1.911   1.510 -0.2178  0.2595  0.3952
    3CHTO  H226  893   6.556   1.999   1.455 -1.6343 -0.1522  0.5151
    3CHTO  C126  894   6.549   1.938   1.665  0.3302 -0.7232  0.1606
    3CHTO   O85  895   6.633   2.023   1.736 -0.2144 -0.5655 -0.1252
    3CHTO  H206  896   6.621   2.011   1.828  4.0271 -0.3888  0.5838
    3CHTO  C121  897   6.523   1.785   1.428  0.2973 -0.2022 -0.9425
    3CHTO  H225  898   6.418   1.797   1.463  0.3963 -0.8664 -0.3961
    3CHTO   O81  899   6.531   1.803   1.288 -0.4223 -0.0575 -0.0112
    3CHTO  H202  900   6.464   1.858   1.252 -0.5918 -0.6824 -0.6575
    3CHTO  C119  901   6.580   1.651   1.488  0.8265  0.5235 -0.0948
    3CHTO  H223  902   6.566   1.653   1.596 -0.1554  0.5487 -0.2147
    3CHTO  C117  903   6.735   1.645   1.464 -0.1050  0.3634 -0.5139
    3CHTO  H221  904   6.760   1.649   1.358 -1.9178 -0.6937 -0.9992
    3CHTO   N20  905   6.799   1.519   1.517  0.1388  0.5436 -0.1202
    3CHTO  H209  906   6.901   1.531   1.552  0.2972 -2.7242  0.7086
    3CHTO  H210  907   6.739   1.474   1.594 -1.1109  1.8522 -0.2968
    3CHTO   O80  908   6.498   1.518   1.442 -0.3792 -0.3137  0.2567
    3CHTO  C103  909   6.358   1.479   1.498  0.1926 -0.1475  0.3072
    3CHTO  H190  910   6.341   1.517   1.598  0.2655 -1.8604  0.9823
    3CHTO  C101  911   6.226   1.520   1.410 -0.4651  0.7602  0.0254
    3CHTO  H188  912   6.231   1.478   1.310 -4.1978  0.5095 -0.0885
    3CHTO   O68  913   6.217   1.687   1.408 -0.2245 -0.1163 -0.3763
    3CHTO  H168  914   6.211   1.726   1.493  3.3773 -0.7238  0.2394
    3CHTO   C99  915   6.097   1.451   1.467  0.5205  0.5669 -0.0382
    3CHTO  H186  916   6.073   1.475   1.573 -0.3360 -0.9502  0.1165
    3CHTO   N17  917   5.972   1.493   1.390  0.2135 -0.1752 -0.3665
    3CHTO  H174  918   5.944   1.596   1.408 -2.4102 -0.9651  0.3138
    3CHTO  H175  919   5.979   1.473   1.284 -0.4354 -1.0174 -0.2591
    3CHTO   C97  920   6.122   1.296   1.462 -0.3804  0.3707 -0.4838
    3CHTO  H184  921   6.142   1.272   1.356 -0.0213 -2.1773  0.1252
    3CHTO   O64  922   6.240   1.273   1.545  0.4541 -0.2640  0.0448
    3CHTO  C104  923   6.372   1.320   1.509  0.2356 -0.7257 -0.5987
    3CHTO  H191  924   6.387   1.281   1.408  3.4987  1.8845 -1.2104
    3CHTO  C108  925   6.486   1.260   1.597  0.1053 -0.0800  0.7190
    3CHTO   O71  926   6.457   1.238   1.735  0.1693 -0.4813 -0.3791
    3CHTO  H171  927   6.397   1.168   1.747 -0.1172 -0.0888  0.5460
    3CHTO   O62  928   6.016   1.225   1.523 -0.0899  0.4142  0.0295
    3CHTO   C91  929   5.999   1.085   1.494 -0.6581 -0.1707  0.9037
    3CHTO  H178  930   6.039   1.060   1.395 -1.5015 -1.9940  0.9874
    3CHTO   C92  931   5.848   1.055   1.473 -0.9539  0.4082 -0.4798
    3CHTO  H179  932   5.794   1.104   1.555  1.6886  1.4054  0.7190
    3CHTO   O66  933   5.825   1.126   1.352  0.3428  0.1642 -0.8269
    3CHTO  H166  934   5.874   1.092   1.280  0.9748 -0.9160  0.0809
    3CHTO   C93  935   5.819   0.901   1.462 -0.1604 -0.4931  0.3088
    3CHTO  H180  936   5.868   0.858   1.374  0.0169  0.3727 -0.0186
    3CHTO   N16  937   5.670   0.886   1.451 -0.3023  0.2512  0.5877
    3CHTO  H172  938   5.657   0.785   1.413  0.8268 -0.3198  1.6783
    3CHTO  H173  939   5.627   0.961   1.387  2.5819  1.0764 -0.4843
    3CHTO   C94  940   5.868   0.817   1.593 -0.7393  0.4220 -0.0905
    3CHTO  H181  941   5.785   0.786   1.656 -0.9337  0.2322 -0.4394
    3CHTO   O61  942   5.951   0.903   1.669  0.0110 -0.0116  0.3281
    3CHTO   C95  943   6.055   0.988   1.611 -0.3818 -0.0907 -0.3153
    3CHTO  H182  944   6.099   1.046   1.692 -0.6577 -2.0717  1.2766
    3CHTO  C106  945   6.169   0.906   1.565  0.7314 -0.1789  0.5278
    3CHTO   O69  946   6.233   0.852   1.682 -0.2877  0.0920  0.1562
    3CHTO  H169  947   6.309   0.807   1.651 -1.5063 -2.0038  0.1306
    3CHTO   O63  948   5.935   0.689   1.540 -0.0237  0.1987 -0.4932
    3CHTO   C96  949   5.852   0.555   1.572  0.3705 -0.6541 -0.4799
    3CHTO  H183  950   5.897   0.465   1.530  3.9025 -0.0258  1.7022
    3CHTO   C98  951   5.707   0.550   1.525 -0.2459  0.0360  0.4933
    3CHTO  H185  952   5.645   0.632   1.564  2.0200  1.6663  0.7573
    3CHTO   O67  953   5.707   0.573   1.380  0.2982  0.6661  0.3532
    3CHTO  H167  954   5.710   0.667   1.372 -0.4733  0.4753 -2.7399
    3CHTO  C102  955   5.628   0.415   1.571 -0.1929  0.0753 -0.4683
    3CHTO  H189  956   5.668   0.333   1.511  0.9024 -1.2123  1.9351
    3CHTO   N18  957   5.479   0.423   1.544 -0.1138 -0.1582  0.3989
    3CHTO  H176  958   5.463   0.483   1.455  1.4246 -1.3319 -0.6956
    3CHTO  H177  959   5.419   0.456   1.627  0.7610  0.1101  0.9227
    3CHTO  C105  960   5.662   0.382   1.722 -0.5888  0.4283  0.4883
    3CHTO  H192  961   5.596   0.437   1.789 -1.9607 -0.5776 -0.0114
    3CHTO   O65  962   5.801   0.387   1.747 -0.3947 -0.0145  0.0624
    3CHTO  C100  963   5.849   0.523   1.722 -0.2997 -0.1570 -0.0004
    3CHTO  H187  964   5.783   0.592   1.777 -2.0608 -2.0342  0.3025
    3CHTO  C107  965   5.989   0.528   1.788  0.2178  0.1030 -0.0591
    3CHTO   O70  966   5.983   0.517   1.931 -0.4622  0.6180 -0.1397
    3CHTO  H170  967   6.069   0.518   1.969 -0.2574  0.8133 -0.6093
    3CHTO   O57  968   5.625   0.238   1.738 -0.0538 -0.5608  0.2511
    3CHTO   C85  969   5.557   0.184   1.855 -0.1322 -0.1985  0.1217
    3CHTO  H157  970   5.573   0.076   1.836  1.2591  0.0766 -0.3610
    3CHTO   C83  971   5.402   0.209   1.853 -0.1676 -0.4894 -0.4375
    3CHTO  H155  972   5.362   0.161   1.763 -1.7875  0.6059 -0.2970
    3CHTO   O56  973   5.368   0.351   1.828 -0.3169 -0.4699 -0.3212
    3CHTO  H135  974   5.438   0.401   1.865 -1.1984 -0.5364  1.4985
    3CHTO   C81  975   5.331   0.148   1.975  0.2848  0.5064  0.0662
    3CHTO  H153  976   5.341   0.040   1.965 -1.5884  0.4047 -0.7820
    3CHTO   N14  977   5.187   0.170   1.975  0.6880  0.1064  0.4660
    3CHTO  H141  978   5.143   0.109   1.899  1.2380  0.7647 -0.3803
    3CHTO  H142  979   5.162   0.272   1.959 -3.3819 -1.1323 -1.8322
    3CHTO   C79  980   5.396   0.192   2.112  0.3977 -0.0901 -0.1799
    3CHTO  H151  981   5.355   0.128   2.190  1.9797 -1.1241 -0.1733
    3CHTO   O52  982   5.539   0.179   2.119  0.8824  0.0610  0.3423
    3CHTO   C86  983   5.613   0.229   2.001 -0.5571  0.0139 -0.2128
    3CHTO  H158  984   5.593   0.338   2.005  0.8767  0.3207 -0.9892
    3CHTO   C90  985   5.765   0.211   2.013 -0.2092 -0.3443  0.3158
    3CHTO   O60  986   5.828   0.327   2.057 -0.4744 -0.5230 -0.1769
    3CHTO  H138  987   5.798   0.337   2.146 -0.0409  1.0149 -0.2018
    3CHTO   O50  988   5.352   0.321   2.154  0.1863  0.4015  0.4088
    3CHTO   C73  989   5.322   0.371   2.278 -0.5884  0.7385 -0.2008
    3CHTO  H145  990   5.378   0.315   2.354 -1.0895  2.9036  1.8443
    3CHTO   C74  991   5.172   0.367   2.318 -0.0061  0.3288  0.2594
    3CHTO  H146  992   5.141   0.262   2.313 -1.2171  0.7182 -0.5555
    3CHTO   O54  993   5.164   0.403   2.453 -0.3591 -0.8251  0.9861
    3CHTO  H133  994   5.227   0.363   2.509 -0.1799 -0.5370  0.9870
    3CHTO   C75  995   5.088   0.452   2.212 -0.0760  0.1806 -0.1142
    3CHTO  H147  996   5.090   0.404   2.113 -0.9458 -2.3309  1.0283
    3CHTO   N13  997   4.947   0.465   2.247  0.0467 -0.2530 -0.0702
    3CHTO  H139  998   4.925   0.522   2.335  3.0715  3.1530 -1.3889
    3CHTO  H140  999   4.889   0.373   2.245 -0.1258 -0.1520  0.3836
    3CHTO   C76 1000   5.146   0.601   2.192 -0.3633 -0.6092  0.3141
    3CHTO  H148 1001   5.129   0.670   2.275  0.9156  1.1271 -0.8343
    3CHTO   O49 1002   5.290   0.592   2.168 -0.0326  0.4661 -0.0880
    3CHTO   C77 1003   5.366   0.521   2.270 -0.1469 -0.0982  0.3522
    3CHTO  H149 1004   5.345   0.573   2.363  2.0234  2.1800 -0.3433
    3CHTO   C88 1005   5.518   0.544   2.240  0.4844  0.4380  0.5387
    3CHTO   O58 1006   5.585   0.476   2.322  0.3540  0.5095 -0.1266
    3CHTO  H136 1007   5.673   0.477   2.289  0.2732  0.7987 -0.3416
    3CHTO   O51 1008   5.094   0.660   2.052  0.1886  0.1193 -0.0574
    3CHTO   C78 1009   5.123   0.812   2.027  0.2363 -0.6272  0.5701
    3CHTO  H150 1010   5.183   0.869   2.101  2.0021 -0.3046 -1.0597
    3CHTO   C80 1011   4.984   0.882   2.014  0.1027 -0.0552 -0.1059
    3CHTO  H152 1012   4.925   0.837   1.930 -1.0732 -3.2516  2.3335
    3CHTO   O55 1013   4.898   0.874   2.135  0.0124 -0.6365 -0.4872
    3CHTO  H134 1014   4.954   0.858   2.208 -0.6644  0.3181  0.2488
    3CHTO   C84 1015   5.009   1.036   1.976  0.3411  0.2484 -0.5729
    3CHTO  H156 1016   5.052   1.081   2.065 -0.3190 -0.8599  0.3149
    3CHTO   N15 1017   4.879   1.114   1.945 -0.1044  0.3894 -0.0289
    3CHTO  H143 1018   4.889   1.192   1.872 -3.9322 -0.1330 -1.2289
    3CHTO  H144 1019   4.827   1.154   2.030 -0.3635  1.5481 -0.7314
    3CHTO   C87 1020   5.112   1.054   1.857 -0.4514  0.5166  0.4150
    3CHTO  H159 1021   5.063   1.046   1.760  1.0978  1.4741 -0.4482
    3CHTO   O53 1022   5.224   0.952   1.867  0.6612 -0.4233 -0.0902
    3CHTO   C82 1023   5.190   0.818   1.892 -0.0127  0.4593  0.0666
    3CHTO  H154 1024   5.131   0.786   1.807  1.0266 -1.8133  0.1588
    3CHTO   C89 1025   5.308   0.721   1.892  0.3977 -0.0166 -0.2737
    3CHTO   O59 1026   5.368   0.702   1.765  0.0758  0.0173 -0.2212
    3CHTO  H137 1027   5.404   0.616   1.754 -0.9418 -0.4407 -0.0048
    3CHTO   O45 1028   5.177   1.209   1.858 -0.1865  0.0284 -0.1362
    3CHTO   C67 1029   5.317   1.225   1.849  0.4044  0.5867  0.0547
    3CHTO  H124 1030   5.364   1.137   1.893  0.2724  0.2155 -0.5307
    3CHTO   C65 1031   5.363   1.234   1.697  0.5475 -0.0000 -0.6952
    3CHTO  H122 1032   5.292   1.298   1.645 -1.6472 -1.7161  0.1070
    3CHTO   O44 1033   5.357   1.096   1.653  0.9178 -0.8742 -0.4338
    3CHTO  H102 1034   5.272   1.058   1.664  0.8673 -0.4123  0.9394
    3CHTO   C63 1035   5.494   1.320   1.676 -0.0341 -0.4264  0.5623
    3CHTO  H120 1036   5.469   1.426   1.671  2.6995  0.2084 -0.4962
    3CHTO   N11 1037   5.560   1.301   1.545  0.0206  0.4842 -0.2023
    3CHTO  H108 1038   5.657   1.345   1.541  0.6243 -0.8283 -0.2562
    3CHTO  H109 1039   5.502   1.351   1.470 -1.6317 -2.8146 -1.2148
    3CHTO   C61 1040   5.590   1.312   1.804 -0.0946 -0.3119 -0.5422
    3CHTO  H118 1041   5.657   1.398   1.791 -0.9793  1.1227  3.5622
    3CHTO   O40 1042   5.521   1.339   1.926 -0.1652  0.4279  0.4153
    3CHTO   C68 1043   5.373   1.347   1.924  0.0529  0.7203  0.0669
    3CHTO  H125 1044   5.344   1.445   1.881  0.9795  0.0065 -2.2524
    3CHTO   C72 1045   5.330   1.347   2.067  0.4940 -0.5178  0.4238
    3CHTO   O48 1046   5.191   1.367   2.094  0.3632  0.4079  0.0595
    3CHTO  H105 1047   5.133   1.340   2.025 -2.1127  2.1533  1.3672
    3CHTO   O38 1048   5.662   1.188   1.802 -0.2984 -0.4067 -0.2142
    3CHTO   C55 1049   5.755   1.150   1.904  0.7043  0.1407 -0.8791
    3CHTO  H112 1050   5.728   1.202   1.997 -1.4718 -1.3252 -0.6503
    3CHTO   C56 1051   5.903   1.175   1.864  0.3835  0.1461  0.0897
    3CHTO  H113 1052   5.929   1.110   1.779  1.7671  1.1670 -0.2800
    3CHTO   O42 1053   5.915   1.316   1.824 -0.5435 -0.4427  0.0292
    3CHTO  H100 1054   5.836   1.353   1.789 -0.1719  0.4314  0.0988
    3CHTO   C57 1055   6.001   1.134   1.987 -0.5064 -0.2513  0.0718
    3CHTO  H114 1056   5.984   1.203   2.070 -0.8573  3.9075 -3.2730
    3CHTO   N10 1057   6.137   1.169   1.946  0.6712 -0.2811  0.4069
    3CHTO  H106 1058   6.178   1.085   1.891 -0.5977  0.3458 -1.5383
    3CHTO  H107 1059   6.129   1.256   1.882  0.0590 -0.5042  0.1802
    3CHTO   C58 1060   5.979   0.986   2.018  0.3911  0.6278 -1.0703
    3CHTO  H115 1061   5.999   0.935   1.922  1.5565  1.1074 -1.0854
    3CHTO   O37 1062   5.839   0.986   2.057 -0.0591  0.3755  0.3687
    3CHTO   C59 1063   5.747   1.001   1.946 -0.0029 -0.4992 -0.6551
    3CHTO  H116 1064   5.777   0.947   1.856 -1.1236  1.2992 -2.1545
    3CHTO   C70 1065   5.600   0.966   1.989 -0.1035 -0.3613  0.6573
    3CHTO   O46 1066   5.601   0.823   2.002 -1.1749 -0.1792 -0.0215
    3CHTO  H103 1067   5.583   0.785   1.918  0.9835 -0.0072 -0.6031
    3CHTO   O39 1068   6.050   0.926   2.145  0.2139 -0.4884 -0.2300
    3CHTO   C60 1069   6.097   0.787   2.145  0.6314 -0.5198  0.0109
    3CHTO  H117 1070   6.053   0.735   2.059  0.8435 -2.1944  0.9091
    3CHTO   C62 1071   6.246   0.770   2.116  0.0228 -0.0526  0.0249
    3CHTO  H119 1072   6.245   0.801   2.009 -1.8099  0.0154  0.0393
    3CHTO   O43 1073   6.335   0.845   2.201  0.5998 -0.6419  0.3211
    3CHTO  H101 1074   6.311   0.935   2.189  1.1345 -0.4605  0.5976
    3CHTO   C66 1075   6.282   0.606   2.120  0.2052  0.2673  0.6828
    3CHTO  H123 1076   6.214   0.552   2.054  0.0679 -1.3608  2.1039
    3CHTO   N12 1077   6.424   0.581   2.068  0.1567 -1.6058  0.4388
    3CHTO  H110 1078   6.494   0.661   2.089  0.9388 -2.4710  1.2074
    3CHTO  H111 1079   6.414   0.540   1.969  0.7037  0.8579 -0.6565
    3CHTO   C69 1080   6.264   0.549   2.264 -0.5685  0.0650  0.4184
    3CHTO  H126 1081   6.319   0.614   2.335  0.0970 -1.7510  1.5907
    3CHTO   O41 1082   6.095   0.571   2.278  0.6012  0.1412  0.2891
    3CHTO   C64 1083   6.046   0.716   2.274 -0.6344 -0.4194  0.5848
    3CHTO  H121 1084   6.094   0.781   2.350 -1.4555  1.3395 -0.3703
    3CHTO   C71 1085   5.889   0.715   2.283  0.0005  0.0690  0.6700
    3CHTO   O47 1086   5.841   0.666   2.412 -0.3281 -0.6299  0.4439
    3CHTO  H104 1087   5.752   0.696   2.419 -0.4528 -0.1655 -2.2830
    3CHTO   O34 1088   6.318   0.399   2.290  0.0565 -0.3151 -0.1270
    3CHTO   C49 1089   6.290   0.239   2.277  0.0718  0.3514 -0.3639
    3CHTO   H91 1090   6.314   0.210   2.175  0.8786 -2.4920  0.6074
    3CHTO   C47 1091   6.148   0.202   2.304  0.5511 -0.8966  0.4230
    3CHTO   H89 1092   6.096   0.221   2.207  1.7598  1.7728  0.2405
    3CHTO   O33 1093   6.087   0.291   2.400 -0.1285 -0.0394  0.2973
    3CHTO   H70 1094   5.997   0.272   2.419 -0.3271  1.0342  0.4261
    3CHTO   C45 1095   6.119   0.049   2.354  1.1433 -0.2592 -0.1339
    3CHTO   H87 1096   6.122   0.051   2.464 -0.2778 -0.9679 -0.0696
    3CHTO    N8 1097   5.982  -0.003   2.315  0.1600  0.5429 -0.2950
    3CHTO   H75 1098   5.951   0.046   2.224  0.0976 -0.9669 -1.0952
    3CHTO   H76 1099   5.919  -0.004   2.403 -0.7268  0.1022 -0.9336
    3CHTO   C43 1100   6.239  -0.051   2.308  0.1440  0.9635 -1.4533
    3CHTO   H85 1101   6.235  -0.152   2.349  1.4463  1.5826  0.2442
    3CHTO   O29 1102   6.362   0.010   2.341 -0.3104 -0.1154  0.7667
    3CHTO   C50 1103   6.369   0.154   2.376  0.9197  0.2216  0.4875
    3CHTO   H92 1104   6.347   0.167   2.483 -0.0668  2.0873  0.0709
    3CHTO   C54 1105   6.520   0.184   2.385 -0.3519 -0.0246  0.4587
    3CHTO   O36 1106   6.586   0.109   2.489  0.0924 -0.7857  0.2948
    3CHTO   H72 1107   6.648   0.053   2.445  0.4089  0.7010 -1.1941
    3CHTO   O27 1108   6.244  -0.077   2.169  0.2194 -0.7020 -0.2565
    3CHTO   C37 1109   6.257  -0.086   2.023 -0.1544  0.4784  0.0566
    3CHTO   H79 1110   6.261  -0.193   1.995  2.3142  0.2027  1.2867
    3CHTO   C38 1111   6.140  -0.007   1.948  0.5823 -0.6869 -0.3905
    3CHTO   H80 1112   6.145   0.097   1.984 -0.7334 -0.1921 -1.5814
    3CHTO   O31 1113   6.022  -0.080   1.984  0.0217 -0.2387  0.5322
    3CHTO   H68 1114   5.960  -0.015   2.012 -0.1483 -0.3024  0.3078
    3CHTO   C39 1115   6.180   0.004   1.797  0.4276  0.1450 -0.0557
    3CHTO   H81 1116   6.182  -0.090   1.742 -1.1831  1.2994 -2.1599
    3CHTO    N7 1117   6.075   0.072   1.721  0.4330  0.2235 -0.5825
    3CHTO   H73 1118   6.043   0.163   1.770 -0.4386 -0.8637  0.9359
    3CHTO   H74 1119   6.104   0.082   1.618  2.3619  1.8335  0.1008
    3CHTO   C40 1120   6.321   0.073   1.788  0.5676 -0.0088  0.1235
    3CHTO   H82 1121   6.316   0.161   1.851 -1.5006 -1.3633  1.9253
    3CHTO   O26 1122   6.415  -0.015   1.840  0.0958  0.4115 -0.0627
    3CHTO   C41 1123   6.404  -0.031   1.985 -0.5574 -1.0177  0.2947
    3CHTO   H83 1124   6.407   0.071   2.027  0.6561 -0.9848  0.1297
    3CHTO   C52 1125   6.519  -0.120   2.021 -0.3925  0.1363  0.1290
    3CHTO   O35 1126   6.658  -0.049   2.031 -0.3907  0.2765 -0.9151
    3CHTO   H71 1127   6.664   0.024   1.972  1.3260  0.0439 -1.0716
    3CHTO   O28 1128   6.354   0.091   1.646 -0.1917  0.2474 -0.7883
    3CHTO   C42 1129   6.472   0.170   1.615 -1.3269 -0.1641 -0.1004
    3CHTO   H84 1130   6.502   0.143   1.514  0.3115  0.5941  0.1699
    3CHTO   C44 1131   6.610   0.149   1.699  0.5399 -0.5390 -0.1542
    3CHTO   H86 1132   6.591   0.182   1.802 -1.4129 -3.5851  0.5345
    3CHTO   O32 1133   6.649   0.011   1.699 -0.2758  0.3414 -0.7260
    3CHTO   H69 1134   6.654  -0.011   1.608 -0.4586  0.1518 -0.6876
    3CHTO   C48 1135   6.720   0.241   1.643 -0.0818  0.8049  0.1864
    3CHTO   H90 1136   6.746   0.221   1.539  1.0963  0.4266  0.5420
    3CHTO    N9 1137   6.854   0.219   1.716 -0.4566  0.3601 -0.5971
    3CHTO   H77 1138   6.839   0.213   1.823  0.3955 -0.5618 -0.5238
    3CHTO   H78 1139   6.927   0.147   1.684  0.0115  1.0058 -0.9949
    3CHTO   C51 1140   6.670   0.387   1.656  0.0170  0.0426 -0.5433
    3CHTO   H93 1141   6.654   0.415   1.760  5.9544  1.9544  0.0859
    3CHTO   O30 1142   6.551   0.387   1.574  0.6510  0.3708 -0.1408
    3CHTO   C46 1143   6.435   0.316   1.612 -1.1025  0.4328 -0.0291
    3CHTO   H88 1144   6.397   0.349   1.709  1.0809 -0.7815  1.2840
    3CHTO   C53 1145   6.324   0.344   1.508  0.5177 -0.4060 -0.3446
    3CHTO   O72 1146   6.242   0.460   1.528 -0.0572 -0.1582 -0.3893
    3CHTO  H199 1147   6.293   0.538   1.517 -1.0814  0.1633 -3.2210
    3CHTO   O22 1148   6.757   0.479   1.593 -0.5620 -0.3235 -0.3572
    3CHTO   C31 1149   6.721   0.618   1.563  0.4434 -0.2061  0.1810
    3CHTO   H59 1150   6.611   0.624   1.582  0.3925  1.0076 -0.4903
    3CHTO   C29 1151   6.789   0.724   1.655 -0.0775 -0.3047  0.3222
    3CHTO   H57 1152   6.898   0.722   1.645 -0.0592 -0.5261  0.5588
    3CHTO   O21 1153   6.780   0.696   1.798 -0.1604 -0.2525 -0.3251
    3CHTO   H37 1154   6.782   0.604   1.812  0.6233 -0.3705 -1.1749
    3CHTO   C27 1155   6.742   0.871   1.618  0.0616  0.1241 -0.5628
    3CHTO   H55 1156   6.638   0.886   1.651  1.0244  2.5378  1.4613
    3CHTO    N5 1157   6.815   0.980   1.678  0.6547  0.0211  0.3082
    3CHTO   H43 1158   6.890   0.947   1.748 -0.8655  2.1687  3.0781
    3CHTO   H44 1159   6.843   1.052   1.603  1.7766  0.9922  1.6297
    3CHTO   C25 1160   6.758   0.893   1.463 -0.3488  0.4922 -1.2802
    3CHTO   H53 1161   6.866   0.904   1.447 -0.3498 -0.5049 -2.0489
    3CHTO   O17 1162   6.692   0.789   1.391 -0.3532  0.0449  0.1321
    3CHTO   C32 1163   6.749   0.654   1.417  0.4091 -0.4701  0.9426
    3CHTO   H60 1164   6.855   0.664   1.397  0.2065  1.0111  0.5622
    3CHTO   C36 1165   6.687   0.563   1.309 -0.2452  1.0816  0.6136
    3CHTO   O25 1166   6.542   0.553   1.319 -0.0242  0.1250 -0.3687
    3CHTO   H40 1167   6.510   0.621   1.375 -0.6202 -1.5985  1.4761
    3CHTO   O15 1168   6.679   1.036   1.403 -0.0694 -0.1097  0.0664
    3CHTO   C19 1169   6.655   1.062   1.263 -0.2620  0.2493  0.2926
    3CHTO   H47 1170   6.645   0.959   1.225 -1.5812  1.3188 -2.4299
    3CHTO   C20 1171   6.535   1.155   1.232  0.7919  0.4145 -0.7953
    3CHTO   H48 1172   6.550   1.254   1.277  2.6456  0.4631 -1.5033
    3CHTO   O19 1173   6.414   1.097   1.270 -0.7706  0.3626  0.0686
    3CHTO   H35 1174   6.370   1.147   1.336 -1.9425 -0.8108  0.1981
    3CHTO   C21 1175   6.517   1.181   1.076  0.0606 -0.4046  0.0864
    3CHTO   H49 1176   6.497   1.086   1.028  0.3251 -0.4588  0.0856
    3CHTO    N4 1177   6.401   1.272   1.038 -0.2278 -0.3026 -0.6727
    3CHTO   H41 1178   6.392   1.263   0.931 -1.8187  4.0777 -0.9922
    3CHTO   H42 1179   6.437   1.371   1.064  0.8281 -0.3996 -1.7052
    3CHTO   C22 1180   6.651   1.229   1.013 -0.3939  0.0288 -0.5395
    3CHTO   H50 1181   6.667   1.332   1.045  1.1178 -0.9756  2.1057
    3CHTO   O14 1182   6.759   1.141   1.056 -0.1728  0.2003  0.3830
    3CHTO   C23 1183   6.783   1.125   1.196  0.1261  0.3913 -0.0934
    3CHTO   H51 1184   6.817   1.222   1.235 -0.5397  1.4385 -2.0717
    3CHTO   C34 1185   6.907   1.029   1.209  0.2036  0.6626  0.1355
    3CHTO   O23 1186   6.901   0.900   1.147 -0.2130 -0.1695 -0.0130
    3CHTO   H38 1187   6.857   0.901   1.064 -1.4586 -2.0944  0.5926
    3CHTO   O16 1188   6.662   1.221   0.868  0.2151 -0.0531  0.3841
    3CHTO   C24 1189   6.728   1.361   0.796  0.3756 -0.3347 -0.2343
    3CHTO   H52 1190   6.777   1.425   0.869  1.1595 -0.7003 -0.4337
    3CHTO   C26 1191   6.615   1.436   0.729 -0.0996  0.6604  0.1886
    3CHTO   H54 1192   6.561   1.359   0.671  0.9495  0.7722 -0.9555
    3CHTO   O20 1193   6.541   1.484   0.839  0.3792  0.2088  0.6017
    3CHTO   H36 1194   6.559   1.574   0.859 -0.8803  0.5455  0.3013
    3CHTO   C30 1195   6.651   1.549   0.633 -1.0116 -0.7730  0.5029
    3CHTO   H58 1196   6.696   1.637   0.680 -1.5559  0.8507 -1.9105
    3CHTO    N6 1197   6.537   1.601   0.561  0.1305  0.6930 -0.2503
    3CHTO   H45 1198   6.451   1.610   0.627 -0.4648 -0.5955 -0.8399
    3CHTO   H46 1199   6.508   1.528   0.487  0.4318 -0.1219  0.4188
    3CHTO   C33 1200   6.765   1.494   0.542  0.2456  0.0040 -0.2457
    3CHTO   H61 1201   6.740   1.408   0.478  0.3983  0.2633 -0.6581
    3CHTO   O18 1202   6.872   1.457   0.629  0.3809  0.0780  0.0649
    3CHTO   C28 1203   6.833   1.332   0.691  0.1007 -0.3004 -0.2342
    3CHTO   H56 1204   6.787   1.266   0.618  1.5970 -0.2466 -1.2436
    3CHTO   C35 1205   6.964   1.268   0.748 -0.0715 -0.3117  0.1064
    3CHTO   O24 1206   7.028   1.166   0.679  0.3019 -0.2729  0.4201
    3CHTO   H39 1207   7.025   1.188   0.587 -1.3128 -0.2942  0.4466
    3CHTO    O9 1208   6.812   1.590   0.447  0.0821  0.1409  0.8532
    3CHTO   C13 1209   6.929   1.711   0.521 -0.3984  0.3044  0.9279
    3CHTO   H26 1210   6.945   1.698   0.630  1.4872 -0.1514  0.6029
    3CHTO   C11 1211   6.870   1.849   0.486  0.2934  0.5115 -0.2090
    3CHTO   H24 1212   6.785   1.862   0.554  0.3277  0.7157 -0.2033
    3CHTO    O8 1213   6.833   1.856   0.353 -0.1848 -0.2344 -0.4151
    3CHTO    H3 1214   6.765   1.793   0.340 -0.4176 -0.2788  0.9807
    3CHTO    C9 1215   6.976   1.958   0.519 -0.4759  0.1513  0.0584
    3CHTO   H22 1216   7.018   1.936   0.618 -0.2791 -0.5379 -0.1683
    3CHTO    N2 1217   6.918   2.095   0.527 -0.0500  0.2793 -0.2449
    3CHTO   H10 1218   6.842   2.095   0.603 -1.3256 -1.8915 -1.4847
    3CHTO   H11 1219   6.997   2.162   0.559  1.4945 -2.0883  1.0587
    3CHTO    C7 1220   7.095   1.940   0.422  0.4085 -0.3832  0.4991
    3CHTO   H20 1221   7.181   1.970   0.486 -1.2677  1.3629  1.9860
    3CHTO    O4 1222   7.115   1.806   0.373  0.1172  0.1935 -0.5666
    3CHTO   C14 1223   7.083   1.699   0.460  0.0931  0.3561  0.1722
    3CHTO   H27 1224   7.154   1.695   0.545 -0.5791  0.6425  0.7536
    3CHTO   C18 1225   7.093   1.563   0.380 -0.0544 -0.0108  0.3543
    3CHTO   O13 1226   7.232   1.537   0.351 -0.1055  0.4246 -0.6136
    3CHTO    H7 1227   7.279   1.519   0.430  0.6772 -0.4228 -1.2740
    3CHTO    O2 1228   7.097   2.051   0.292  0.1871  0.5866  1.0257
    3CHTO    C1 1229   7.230   2.100   0.263  0.1939 -0.6831  0.7585
    3CHTO   H14 1230   7.307   2.020   0.261  0.0208 -0.8447  0.5696
    3CHTO    C2 1231   7.278   2.226   0.359 -0.0617  0.3190  0.2576
    3CHTO   H15 1232   7.196   2.300   0.363 -0.7403 -0.1891 -2.9024
    3CHTO    O6 1233   7.288   2.174   0.488 -0.1603 -0.4307  0.2956
    3CHTO    H1 1234   7.337   2.228   0.548  0.3400  0.4639 -0.8883
    3CHTO    C3 1235   7.411   2.291   0.312 -0.3433 -0.2652 -0.0591
    3CHTO   H16 1236   7.493   2.220   0.328  0.3378  0.6402  0.4869
    3CHTO    N1 1237   7.458   2.421   0.382 -0.1221  0.4858 -0.5077
    3CHTO    H8 1238   7.557   2.412   0.425  1.1301 -1.4430 -3.6273
    3CHTO    H9 1239   7.459   2.500   0.310  0.2494  1.3096  0.3881
    3CHTO    C4 1240   7.404   2.315   0.155  0.0404 -0.1604 -0.0990
    3CHTO   H17 1241   7.329   2.394   0.140  1.1272  0.8177 -0.4763
    3CHTO    O1 1242   7.364   2.188   0.100 -0.0542  0.5376  0.9267
    3CHTO    C5 1243   7.224   2.158   0.116  1.1205  0.4312 -0.0461
    3CHTO   H18 1244   7.154   2.241   0.122 -1.2824 -1.4902 -0.3461
    3CHTO   C16 1245   7.176   2.060   0.013 -0.0025 -1.0704  0.3450
    3CHTO   O11 1246   7.167   2.102  -0.125  0.2352  0.8817 -0.4612
    3CHTO    H5 1247   7.078   2.093  -0.153 -0.9306  2.1570  2.6211
    3CHTO    O3 1248   7.530   2.353   0.089  0.0465  0.1765  0.2066
    3CHTO    C6 1249   7.519   2.400  -0.046 -0.7340 -0.3840  1.3273
    3CHTO   H19 1250   7.426   2.366  -0.090  0.2115 -0.5786 -0.5891
    3CHTO    C8 1251   7.516   2.553  -0.049  0.1819  0.3602  1.0434
    3CHTO   H21 1252   7.611   2.592  -0.011  1.1312 -0.8649 -0.0476
    3CHTO    O7 1253   7.402   2.608   0.032  0.3374 -0.2981  0.0449
    3CHTO    H2 1254   7.318   2.581   0.000  0.5232 -0.5339 -0.2370
    3CHTO   C12 1255   7.512   2.597  -0.201 -0.4368 -0.1473 -0.6689
    3CHTO   H25 1256   7.412   2.585  -0.249 -1.5962  2.3228  1.0281
    3CHTO    N3 1257   7.522   2.751  -0.212 -0.0417  1.1270 -0.0437
    3CHTO   H12 1258   7.622   2.786  -0.192  0.6208 -0.5066 -0.4219
    3CHTO   H13 1259   7.485   2.797  -0.302  3.4659  2.1441 -1.0459
    3CHTO   C15 1260   7.627   2.524  -0.286 -0.3827  0.4050 -0.7622
    3CHTO   H28 1261   7.725   2.568  -0.264 -0.3717 -0.2442  0.5427
    3CHTO   O10 1262   7.603   2.539  -0.438  0.0603  0.0622 -0.0097
    3CHTO    H4 1263   7.674   2.508  -0.492  0.8730 -0.9036  1.5719
    3CHTO    O5 1264   7.629   2.382  -0.279 -0.0487 -0.2424  0.4575
    3CHTO   C10 1265   7.639   2.345  -0.135 -0.1651 -0.1010  0.3844
    3CHTO   H23 1266   7.730   2.390  -0.096 -0.4197 -1.5760  2.7792
    3CHTO   C17 1267   7.653   2.192  -0.112  0.5830 -0.4906 -0.9476
    3CHTO   O12 1268   7.539   2.119  -0.152 -0.1124 -0.0954  0.1811
    3CHTO    H6 1269   7.557   2.102  -0.243  0.1417 -2.4916  0.6398
    4CHTO  H203 1270   5.219   7.509   2.321 -0.0820 -1.0439  1.8493
    4CHTO   O82 1271   5.297   7.539   2.364  0.3982 -0.5566  0.6452
    4CHTO  C123 1272   5.269   7.680   2.398 -0.9129  0.3186 -0.0656
    4CHTO  H227 1273   5.187   7.687   2.470  0.4281 -2.3597  1.8129
    4CHTO   O77 1274   5.398   7.707   2.473 -0.3600  0.3480 -0.0143
    4CHTO  C118 1275   5.410   7.844   2.526  0.2152  0.3034 -0.1891
    4CHTO  H222 1276   5.315   7.862   2.579 -0.0908  0.9318 -0.9498
    4CHTO  C125 1277   5.527   7.843   2.632  0.0049 -0.4297 -0.6178
    4CHTO   O84 1278   5.532   7.964   2.702 -0.0625 -0.1371  0.4357
    4CHTO  H205 1279   5.521   7.953   2.794 -2.0288  0.0191  0.2312
    4CHTO  C114 1280   5.415   7.934   2.402 -0.4597 -0.0323  0.7182
    4CHTO  H218 1281   5.509   7.908   2.352  0.4472  2.0809  1.2468
    4CHTO  C116 1282   5.283   7.923   2.314  0.2556  0.2204  0.1948
    4CHTO  H220 1283   5.200   7.966   2.373 -1.8254 -0.9537 -1.8052
    4CHTO   O79 1284   5.301   8.005   2.199  0.5018 -0.2858  0.5540
    4CHTO  H201 1285   5.368   7.967   2.145  0.3607  1.8880 -1.2493
    4CHTO  C120 1286   5.252   7.771   2.274  0.3417  0.0431 -0.4741
    4CHTO  H224 1287   5.334   7.752   2.202  1.1735  0.1267  0.4400
    4CHTO   N21 1288   5.119   7.756   2.210 -0.0280 -0.7653 -0.0253
    4CHTO  H211 1289   5.049   7.771   2.291 -0.1932 -2.7510  0.2355
    4CHTO  H212 1290   5.121   7.655   2.171  1.4256 -0.8487  0.2349
    4CHTO   O75 1291   5.423   8.066   2.461  0.6339 -0.1199  0.2526
    4CHTO  C112 1292   5.556   8.159   2.409  0.2722 -0.2489 -0.1696
    4CHTO  H216 1293   5.610   8.104   2.331 -1.3537 -0.9573 -0.8173
    4CHTO   O73 1294   5.637   8.180   2.523  0.3109  0.5615  0.1031
    4CHTO  C113 1295   5.742   8.275   2.536 -0.0387 -0.0082  0.0494
    4CHTO  H217 1296   5.820   8.243   2.463 -1.0404 -3.8959  0.5553
    4CHTO  C124 1297   5.801   8.277   2.681  0.0548 -0.7289  0.5534
    4CHTO   O83 1298   5.843   8.152   2.738  0.5509 -0.0606  0.3843
    4CHTO  H204 1299   5.765   8.103   2.726  0.5793 -0.1888  0.7183
    4CHTO  C109 1300   5.670   8.404   2.508 -0.0104  0.0896  0.6070
    4CHTO  H213 1301   5.597   8.417   2.589 -0.1856 -0.3809  0.5228
    4CHTO  C110 1302   5.601   8.407   2.363  0.4514 -0.5524  0.6806
    4CHTO  H214 1303   5.682   8.401   2.290  0.7092 -0.0714  0.9293
    4CHTO   O78 1304   5.533   8.530   2.336  0.2630  0.9402  0.0977
    4CHTO  H200 1305   5.500   8.533   2.249  0.2681  0.8389  0.0931
    4CHTO  C111 1306   5.498   8.295   2.351 -0.3563 -0.0912 -0.7409
    4CHTO  H215 1307   5.416   8.323   2.418  0.5932  0.5033  0.1746
    4CHTO   N19 1308   5.439   8.285   2.215 -0.4054  0.0382 -0.2656
    4CHTO  H207 1309   5.355   8.218   2.221 -0.9253  0.7075 -0.0061
    4CHTO  H208 1310   5.406   8.372   2.159 -1.0659 -0.9724 -1.4813
    4CHTO   O74 1311   5.761   8.520   2.506  0.2227  0.3946 -0.4879
    4CHTO  C115 1312   5.701   8.653   2.551  0.6994 -0.3042 -0.4829
    4CHTO  H219 1313   5.592   8.651   2.554  0.6475  2.3217  0.2735
    4CHTO   O76 1314   5.742   8.687   2.690  0.1208 -0.6034  0.0969
    4CHTO  C122 1315   5.887   8.698   2.693 -0.0482 -0.3391  0.0456
    4CHTO  H226 1316   5.931   8.601   2.718 -0.7474 -0.4969  0.6828
    4CHTO  C126 1317   5.920   8.785   2.817  0.0843 -0.1891  0.0648
    4CHTO   O85 1318   5.891   8.716   2.942 -0.1915 -0.1760  0.4737
    4CHTO  H206 1319   5.801   8.733   2.963 -0.1385  2.2500 -1.0050
    4CHTO  C121 1320   5.967   8.748   2.562  0.1742 -0.3782 -0.0694
    4CHTO  H225 1321   6.057   8.808   2.588 -0.5969  0.9026 -0.2986
    4CHTO   O81 1322   6.010   8.639   2.492  0.2146  0.5879 -0.2050
    4CHTO  H202 1323   5.968   8.627   2.409 -0.0849 -1.3012  0.1891
    4CHTO  C119 1324   5.878   8.830   2.466 -0.2121 -0.4648 -0.1677
    4CHTO  H223 1325   5.873   8.926   2.517  0.2309 -0.3629 -0.3179
    4CHTO  C117 1326   5.734   8.768   2.445  0.1263 -0.5965  1.0610
    4CHTO  H221 1327   5.730   8.709   2.353  1.3045  0.1259  0.5351
    4CHTO   N20 1328   5.634   8.876   2.434  0.4075  0.4542 -0.6329
    4CHTO  H209 1329   5.633   8.921   2.532  0.5737  2.0778 -1.3631
    4CHTO  H210 1330   5.532   8.845   2.413 -0.9185  2.8563  1.9800
    4CHTO   O80 1331   5.933   8.883   2.332  0.0659 -0.1761  0.1459
    4CHTO  C103 1332   6.080   8.948   2.320 -0.2543 -0.2507  0.7849
    4CHTO  H190 1333   6.108   8.996   2.413 -0.1874 -1.0430  1.1814
    4CHTO  C101 1334   6.196   8.843   2.280 -0.2116  0.2452 -0.1302
    4CHTO  H188 1335   6.164   8.777   2.200 -2.3154 -0.0690  0.9315
    4CHTO   O68 1336   6.222   8.754   2.407  0.0172  0.4519  0.5415
    4CHTO  H168 1337   6.170   8.678   2.390  0.7547  0.3097 -1.1618
    4CHTO   C99 1338   6.333   8.910   2.245 -0.2622 -0.6435 -0.1593
    4CHTO  H186 1339   6.375   8.956   2.337 -1.9073  0.6600 -0.0426
    4CHTO   N17 1340   6.445   8.817   2.204 -0.1101  0.6110 -0.3370
    4CHTO  H174 1341   6.407   8.715   2.205  1.6529 -0.0500  0.9302
    4CHTO  H175 1342   6.519   8.839   2.278  0.1475  2.5709 -1.1606
    4CHTO   C97 1343   6.320   9.024   2.146 -0.5816 -0.1134 -0.1781
    4CHTO  H184 1344   6.295   8.977   2.050  2.3429  0.1836 -1.1311
    4CHTO   O64 1345   6.218   9.115   2.189 -0.7682 -0.3377  0.0465
    4CHTO  C104 1346   6.085   9.060   2.203  0.0244 -0.1160  0.3144
    4CHTO  H191 1347   6.060   9.013   2.108 -4.6107  1.1754  0.7331
    4CHTO  C108 1348   5.979   9.172   2.227 -0.3336 -0.5484 -0.0474
    4CHTO   O71 1349   5.994   9.274   2.121 -0.2633  0.2958 -0.4819
    4CHTO  H171 1350   5.911   9.316   2.116 -0.4646 -0.1270 -0.7324
    4CHTO   O62 1351   6.436   9.113   2.147 -0.0007  0.2645  0.1493
    4CHTO   C91 1352   6.444   9.186   2.019  0.4637 -0.4309  0.2346
    4CHTO  H178 1353   6.415   9.116   1.941  1.1928 -1.9605  1.3203
    4CHTO   C92 1354   6.602   9.212   2.001  0.5880  0.0827 -0.1916
    4CHTO  H179 1355   6.644   9.273   2.083  0.5709 -1.9377  1.3449
    4CHTO   O66 1356   6.675   9.087   1.990 -0.4966 -0.6389 -0.5283
    4CHTO  H166 1357   6.766   9.105   1.977 -0.4780  0.0115  0.4628
    4CHTO   C93 1358   6.617   9.290   1.864 -0.4038  1.3920 -0.1798
    4CHTO  H180 1359   6.589   9.218   1.786 -3.0610  0.5440  1.5129
    4CHTO   N16 1360   6.758   9.312   1.825 -0.4921 -0.8539 -0.4769
    4CHTO  H172 1361   6.759   9.387   1.747 -1.3961 -1.1416 -0.7609
    4CHTO  H173 1362   6.826   9.321   1.909 -2.0053 -0.4467  0.7212
    4CHTO   C94 1363   6.531   9.424   1.853 -0.5167 -0.0310 -0.2485
    4CHTO  H181 1364   6.591   9.515   1.860 -2.0917  0.9105  1.5916
    4CHTO   O61 1365   6.460   9.438   1.968 -0.9062  0.0502 -0.1777
    4CHTO   C95 1366   6.379   9.327   2.002  0.7906  0.4252  0.0603
    4CHTO  H182 1367   6.338   9.351   2.101 -0.9270 -0.8589 -0.3314
    4CHTO  C106 1368   6.242   9.316   1.911  0.1262 -0.0733 -0.1704
    4CHTO   O69 1369   6.176   9.447   1.921 -0.4047 -0.1052  0.1896
    4CHTO  H169 1370   6.154   9.481   1.836  0.0593 -3.0864 -1.2142
    4CHTO   O63 1371   6.435   9.447   1.734 -0.2407 -0.2107 -0.2472
    4CHTO   C96 1372   6.491   9.438   1.585  0.2046  0.1281  0.5478
    4CHTO  H183 1373   6.572   9.365   1.577  1.1653  1.3565 -1.1762
    4CHTO   C98 1374   6.534   9.577   1.538  0.1886 -0.3683 -0.5209
    4CHTO  H185 1375   6.458   9.654   1.552  1.7840  1.5032 -1.9546
    4CHTO   O67 1376   6.639   9.620   1.630  0.8213  0.6329 -0.1894
    4CHTO  H167 1377   6.620   9.698   1.680  0.7107 -0.7288  1.9751
    4CHTO  C102 1378   6.576   9.569   1.388  0.0413 -0.6054  0.2441
    4CHTO  H189 1379   6.671   9.515   1.382 -0.4611 -1.4012 -0.7121
    4CHTO   N18 1380   6.612   9.701   1.329  0.3985 -0.3460 -0.3783
    4CHTO  H176 1381   6.689   9.753   1.385  1.7956 -2.0278 -0.7006
    4CHTO  H177 1382   6.631   9.691   1.223 -0.8335 -0.6384 -0.5814
    4CHTO  C105 1383   6.484   9.485   1.298  0.6176  0.3882 -0.6441
    4CHTO  H192 1384   6.396   9.544   1.270  1.2489  0.7732 -1.8657
    4CHTO   O65 1385   6.427   9.362   1.358 -0.0231 -0.3149  0.2782
    4CHTO  C100 1386   6.383   9.367   1.496  0.6601 -0.3490 -0.0674
    4CHTO  H187 1387   6.306   9.445   1.505 -0.2337 -1.5683  3.6118
    4CHTO  C107 1388   6.332   9.230   1.534  0.2286  0.6895  0.7113
    4CHTO   O70 1389   6.430   9.124   1.516 -0.3755  0.6830 -0.6551
    4CHTO  H170 1390   6.487   9.138   1.443 -0.9697 -3.0390 -1.9408
    4CHTO   O57 1391   6.563   9.457   1.154 -0.1071  0.0788 -0.0429
    4CHTO   C85 1392   6.507   9.394   1.034 -0.5157 -0.1174 -0.1686
    4CHTO  H157 1393   6.413   9.447   1.007 -0.9170 -0.8504 -0.2222
    4CHTO   C83 1394   6.472   9.246   1.076  0.2530 -0.3628 -0.2282
    4CHTO  H155 1395   6.402   9.248   1.159  1.4692  1.6148  0.7889
    4CHTO   O56 1396   6.589   9.174   1.126 -0.2984 -0.3396 -0.0187
    4CHTO  H135 1397   6.649   9.178   1.054  1.7398  0.8678  1.6975
    4CHTO   C81 1398   6.400   9.180   0.953  0.0529 -0.1803  0.3902
    4CHTO  H153 1399   6.313   9.241   0.932 -0.5539 -0.6215  1.5870
    4CHTO   N14 1400   6.342   9.047   0.985 -0.7436 -0.5561  0.6691
    4CHTO  H141 1401   6.419   8.981   1.020 -0.8278 -1.2025 -0.3459
    4CHTO  H142 1402   6.256   9.048   1.049 -0.9648  0.8420  0.3589
    4CHTO   C79 1403   6.496   9.170   0.823 -0.1807  0.0511  0.1958
    4CHTO  H151 1404   6.430   9.147   0.739  2.2223 -1.0074 -1.4707
    4CHTO   O52 1405   6.551   9.307   0.802 -0.2312  0.6254  0.2042
    4CHTO   C86 1406   6.603   9.389   0.912 -0.0140  0.4045 -0.0772
    4CHTO  H158 1407   6.694   9.340   0.952 -1.6338 -0.4323  2.6867
    4CHTO   C90 1408   6.641   9.528   0.870 -0.2980  0.3270  0.1362
    4CHTO   O60 1409   6.766   9.526   0.801  0.2140 -0.1450  0.2418
    4CHTO  H138 1410   6.770   9.610   0.759  0.2125  1.9062  4.0908
    4CHTO   O50 1411   6.602   9.072   0.825 -0.6778 -0.6480  0.6784
    4CHTO   C73 1412   6.711   9.049   0.742  0.3408  0.3365  0.2363
    4CHTO  H145 1413   6.746   9.144   0.700 -0.9550  0.3382 -0.8901
    4CHTO   C74 1414   6.656   8.959   0.628  0.8479  0.1826 -0.2491
    4CHTO  H146 1415   6.577   9.005   0.567  1.2078  0.8710 -0.1974
    4CHTO   O54 1416   6.768   8.949   0.534  0.5123  0.4072  0.4890
    4CHTO  H133 1417   6.749   8.886   0.467 -0.0838 -1.8819  2.6999
    4CHTO   C75 1418   6.618   8.816   0.678  0.3008  0.4445  0.1794
    4CHTO  H147 1419   6.537   8.820   0.752  0.9883  1.6373  0.8682
    4CHTO   N13 1420   6.566   8.721   0.577 -0.4217 -0.1532 -0.0342
    4CHTO  H139 1421   6.603   8.743   0.478  0.6246  1.6290  0.7406
    4CHTO  H140 1422   6.458   8.717   0.588 -0.6504  2.3713 -1.1205
    4CHTO   C76 1423   6.741   8.758   0.763  0.4312 -0.3177 -0.5079
    4CHTO  H148 1424   6.825   8.752   0.693 -0.1422 -2.0332 -1.0854
    4CHTO   O49 1425   6.777   8.848   0.869 -0.3907  0.0472 -0.1870
    4CHTO   C77 1426   6.827   8.972   0.811 -0.2006 -0.2368 -0.2211
    4CHTO  H149 1427   6.903   8.946   0.738 -1.4419 -1.7906 -0.9698
    4CHTO   C88 1428   6.918   9.036   0.921 -0.4375  0.1733 -0.7396
    4CHTO   O58 1429   6.964   9.155   0.879  0.0297  0.1583 -0.3109
    4CHTO  H136 1430   6.919   9.222   0.927 -1.8700 -1.7677  0.6878
    4CHTO   O51 1431   6.693   8.622   0.829 -0.0098  0.3560 -0.4357
    4CHTO   C78 1432   6.811   8.509   0.872  0.0866  0.1706  0.2820
    4CHTO  H150 1433   6.892   8.551   0.935  1.5336 -0.1004 -1.3324
    4CHTO   C80 1434   6.870   8.436   0.750  0.2454  0.2612 -0.2328
    4CHTO  H152 1435   6.787   8.385   0.697  0.2639 -1.4298  1.3265
    4CHTO   O55 1436   6.924   8.528   0.661 -0.1138 -0.0241  0.2725
    4CHTO  H134 1437   6.849   8.571   0.624  2.8642  1.2502 -4.8570
    4CHTO   C84 1438   6.973   8.326   0.794  0.1751 -0.1949  0.1761
    4CHTO  H156 1439   7.048   8.372   0.858  1.0232 -2.9111  1.2026
    4CHTO   N15 1440   7.047   8.256   0.688  0.1261 -0.4070 -0.5874
    4CHTO  H143 1441   6.987   8.253   0.599 -1.4538  2.0958  0.3473
    4CHTO  H144 1442   7.146   8.291   0.666 -0.2816 -1.1862 -3.9820
    4CHTO   C87 1443   6.902   8.224   0.882 -0.3592 -0.0462 -0.1196
    4CHTO  H159 1444   6.824   8.169   0.829 -1.6463 -0.8563  2.5407
    4CHTO   O53 1445   6.837   8.303   1.008  0.3222  0.4228  0.4105
    4CHTO   C82 1446   6.742   8.404   0.960  0.3402 -0.0380 -0.4483
    4CHTO  H154 1447   6.672   8.355   0.893  0.3538 -1.4170  0.5164
    4CHTO   C89 1448   6.659   8.476   1.069 -0.0563  0.4294 -0.1321
    4CHTO   O59 1449   6.613   8.386   1.169 -0.0886 -0.3710 -0.8255
    4CHTO  H137 1450   6.678   8.366   1.234 -1.0627 -0.3022  0.1739
    4CHTO   O45 1451   7.009   8.108   0.950  0.1286  0.0755  0.0135
    4CHTO   C67 1452   6.964   7.975   0.950  0.3011  0.0391 -0.0324
    4CHTO  H124 1453   6.887   7.972   0.874 -0.1997 -0.2656  0.4798
    4CHTO   C65 1454   7.070   7.866   0.928  0.4053 -0.1602  0.3236
    4CHTO  H122 1455   7.151   7.913   0.873  0.6059  0.3106  1.0081
    4CHTO   O44 1456   7.015   7.763   0.849  0.3952 -0.3147  0.2793
    4CHTO  H102 1457   7.086   7.721   0.804  0.0298 -1.4676  0.7614
    4CHTO   C63 1458   7.138   7.814   1.061 -0.2559 -0.5070  0.7599
    4CHTO  H120 1459   7.174   7.905   1.110 -0.5998 -0.6727  1.3303
    4CHTO   N11 1460   7.258   7.728   1.043 -1.3360  0.4187  0.6232
    4CHTO  H108 1461   7.320   7.721   1.130  1.5045  0.9751 -1.2939
    4CHTO  H109 1462   7.311   7.747   0.952 -0.6269  0.1292  0.9699
    4CHTO   C61 1463   7.029   7.747   1.152 -0.0751  0.8440  0.0960
    4CHTO  H118 1464   7.061   7.775   1.253  0.2696  0.8506 -0.0122
    4CHTO   O40 1465   6.898   7.806   1.128 -0.3285  0.1576 -0.3558
    4CHTO   C68 1466   6.890   7.947   1.096  0.2021  0.1401  0.4298
    4CHTO  H125 1467   6.945   7.999   1.177  0.3844  0.6442 -0.0074
    4CHTO   C72 1468   6.744   7.995   1.098  0.2996  0.3272  0.0254
    4CHTO   O48 1469   6.660   7.921   1.005  0.0619 -0.1843 -0.2530
    4CHTO  H105 1470   6.679   7.951   0.918 -0.1508  0.8073  0.0318
    4CHTO   O38 1471   7.014   7.610   1.128 -0.5137 -0.0183 -0.0649
    4CHTO   C55 1472   6.955   7.540   1.239 -0.2143 -0.0206  0.3434
    4CHTO  H112 1473   6.879   7.601   1.291  0.1319  0.9026 -0.2391
    4CHTO   C56 1474   7.064   7.478   1.337 -0.3419  0.0148 -1.1412
    4CHTO  H113 1475   7.158   7.453   1.286  0.6981  0.2121  0.6219
    4CHTO   O42 1476   7.111   7.583   1.428  0.0373  0.6913 -0.1379
    4CHTO  H100 1477   7.040   7.639   1.453 -1.2074 -1.1263  0.4865
    4CHTO   C57 1478   7.016   7.362   1.424  0.0752  0.4131 -0.5250
    4CHTO  H114 1479   6.963   7.401   1.510  0.7584 -0.0773  0.1282
    4CHTO   N10 1480   7.131   7.279   1.483 -0.2435 -0.0321 -0.4487
    4CHTO  H106 1481   7.100   7.179   1.509 -0.5056  0.4445  1.1039
    4CHTO  H107 1482   7.180   7.325   1.568 -3.5130  0.3098  1.3090
    4CHTO   C58 1483   6.926   7.269   1.340  0.0625  0.2147  0.4302
    4CHTO  H115 1484   6.984   7.215   1.262  0.7055  1.5211 -0.0111
    4CHTO   O37 1485   6.820   7.340   1.277 -0.6166 -0.8395  0.1174
    4CHTO   C59 1486   6.870   7.433   1.177 -0.2999 -0.2683 -0.0590
    4CHTO  H116 1487   6.926   7.376   1.103 -1.2176  0.0472 -1.0073
    4CHTO   C70 1488   6.750   7.504   1.106 -0.3454  0.2914 -0.0472
    4CHTO   O46 1489   6.714   7.446   0.986  0.2237  0.1966 -0.0297
    4CHTO  H103 1490   6.644   7.384   0.998  1.5553 -0.9939  1.7477
    4CHTO   O39 1491   6.840   7.169   1.452  0.1039 -0.0868 -0.3067
    4CHTO   C60 1492   6.727   7.098   1.395  0.1617  0.3041  0.1604
    4CHTO  H117 1493   6.708   7.132   1.294  0.2547 -0.6839 -0.1899
    4CHTO   C62 1494   6.762   6.950   1.389  0.2107  0.6434  0.5585
    4CHTO  H119 1495   6.852   6.944   1.323  0.8794  2.1019  1.2926
    4CHTO   O43 1496   6.807   6.911   1.518 -0.2093  1.2058  0.2291
    4CHTO  H101 1497   6.858   6.833   1.508 -3.6424 -1.0477 -0.2778
    4CHTO   C66 1498   6.639   6.871   1.320  0.4736 -0.1098  0.1009
    4CHTO  H123 1499   6.621   6.907   1.218 -1.8148 -1.6407 -0.0717
    4CHTO   N12 1500   6.656   6.726   1.311 -0.2901 -0.2002  0.0170
    4CHTO  H110 1501   6.637   6.681   1.215  0.7448  0.1152 -0.3424
    4CHTO  H111 1502   6.751   6.691   1.348  0.2886 -0.6409 -1.8717
    4CHTO   C69 1503   6.504   6.899   1.394  0.3913  0.6416 -0.1343
    4CHTO  H126 1504   6.502   6.853   1.495 -0.1215  1.9751  0.4886
    4CHTO   O41 1505   6.475   7.058   1.409 -0.2509 -0.0885 -0.3508
    4CHTO   C64 1506   6.594   7.116   1.477  0.4653 -0.2569  0.1799
    4CHTO  H121 1507   6.611   7.065   1.575 -1.5621 -0.3700  0.4914
    4CHTO   C71 1508   6.567   7.265   1.485 -0.1258  0.2451  0.9396
    4CHTO   O47 1509   6.643   7.332   1.581 -0.9474  0.3282  0.2063
    4CHTO  H104 1510   6.617   7.419   1.605  0.2968  0.3733  1.4458
    4CHTO   O34 1511   6.363   6.836   1.328  0.2801  0.0061 -0.1949
    4CHTO   C49 1512   6.246   6.930   1.232 -0.3160 -0.4603  0.4066
    4CHTO   H91 1513   6.223   7.026   1.279  0.7014  0.1841 -0.3894
    4CHTO   C47 1514   6.117   6.840   1.238  0.5509  0.0239 -0.2586
    4CHTO   H89 1515   6.038   6.908   1.200  1.6801  2.9183  2.3877
    4CHTO   O33 1516   6.082   6.803   1.379 -0.4387  0.2744  0.4640
    4CHTO   H70 1517   5.989   6.795   1.385 -0.7737  1.6166 -2.0876
    4CHTO   C45 1518   6.134   6.702   1.145 -0.3395 -0.1263  0.7826
    4CHTO   H87 1519   6.149   6.610   1.203 -0.6010  0.7910  2.3246
    4CHTO    N8 1520   6.003   6.688   1.070  0.3193  0.1880  0.0395
    4CHTO   H75 1521   5.916   6.670   1.132  1.3494  1.5597  1.9211
    4CHTO   H76 1522   6.010   6.619   0.987 -1.2760  0.8055 -0.6380
    4CHTO   C43 1523   6.270   6.714   1.061 -0.8892  0.5055 -0.6755
    4CHTO   H85 1524   6.358   6.691   1.121  0.2020  0.0096 -2.4040
    4CHTO   O29 1525   6.279   6.843   1.001  0.7994  0.0613 -0.0171
    4CHTO   C50 1526   6.297   6.961   1.086  0.5100  0.3674 -0.2782
    4CHTO   H92 1527   6.401   6.997   1.087  0.3481  0.8388 -0.0604
    4CHTO   C54 1528   6.236   7.085   1.028 -0.1287  0.8464  0.0391
    4CHTO   O36 1529   6.256   7.207   1.103  0.0164 -0.1039  0.2604
    4CHTO   H72 1530   6.207   7.215   1.183  0.2380  2.1336  0.2021
    4CHTO   O27 1531   6.284   6.614   0.963  0.3712 -0.0929  0.2549
    4CHTO   C37 1532   6.375   6.512   0.929  0.5058  0.0558 -0.3767
    4CHTO   H79 1533   6.341   6.458   0.840 -2.5909 -0.5863  1.1313
    4CHTO   C38 1534   6.520   6.578   0.899  0.1346  0.4224 -0.6231
    4CHTO   H80 1535   6.544   6.638   0.989  0.7206  0.7241 -0.9801
    4CHTO   O31 1536   6.515   6.673   0.790  0.1246 -0.2883 -0.3821
    4CHTO   H68 1537   6.468   6.629   0.722 -1.1597 -1.5680  1.2783
    4CHTO   C39 1538   6.626   6.457   0.879 -0.1514  0.3249 -0.1070
    4CHTO   H81 1539   6.597   6.398   0.791  1.0344 -0.9589  0.3326
    4CHTO    N7 1540   6.763   6.514   0.858 -0.0109  0.3715 -0.2046
    4CHTO   H73 1541   6.762   6.578   0.771  0.2840  0.5467 -0.0805
    4CHTO   H74 1542   6.820   6.426   0.833 -0.7211  0.5033 -2.3031
    4CHTO   C40 1543   6.618   6.354   1.002  0.1951  0.5858 -0.4917
    4CHTO   H82 1544   6.650   6.407   1.092 -0.8350 -0.8988  0.7711
    4CHTO   O26 1545   6.483   6.309   1.006 -0.1239 -0.1208 -0.0684
    4CHTO   C41 1546   6.392   6.410   1.047  0.1650 -0.2906 -0.0617
    4CHTO   H83 1547   6.436   6.450   1.139  5.7151  0.7505 -2.9512
    4CHTO   C52 1548   6.253   6.350   1.079 -0.5450 -0.3038  0.1968
    4CHTO   O35 1549   6.252   6.264   1.220 -0.3433  0.4140  0.1131
    4CHTO   H71 1550   6.278   6.320   1.291 -0.5245 -0.3016  0.7458
    4CHTO   O28 1551   6.700   6.240   0.992 -0.0496 -0.0822 -0.1785
    4CHTO   C42 1552   6.753   6.175   1.103 -1.1302  0.0458  0.1622
    4CHTO   H84 1553   6.795   6.085   1.059  0.0672  1.1395 -0.9578
    4CHTO   C44 1554   6.660   6.127   1.226  0.3625 -0.1289  0.2612
    4CHTO   H86 1555   6.587   6.205   1.246 -0.3716 -0.0092 -2.6906
    4CHTO   O32 1556   6.576   6.022   1.171  0.0774 -0.0769 -0.7228
    4CHTO   H69 1557   6.530   6.075   1.108 -0.9365  1.7008  1.4373
    4CHTO   C48 1558   6.737   6.095   1.363  0.0536 -0.0293 -0.2915
    4CHTO   H90 1559   6.801   6.007   1.353  0.2244  0.1010 -0.3326
    4CHTO    N9 1560   6.646   6.052   1.474 -0.8765  0.3265 -0.1003
    4CHTO   H77 1561   6.577   6.125   1.514  1.5847  4.0188 -2.2103
    4CHTO   H78 1562   6.713   6.024   1.554 -0.7466 -0.3149 -0.4322
    4CHTO   C51 1563   6.824   6.226   1.385  0.1709 -0.1525  0.3210
    4CHTO   H93 1564   6.757   6.312   1.376 -0.0535 -0.2504  1.0679
    4CHTO   O30 1565   6.931   6.227   1.288 -0.1057 -0.5585 -0.5601
    4CHTO   C46 1566   6.872   6.258   1.146 -0.1426  0.2491  0.5868
    4CHTO   H88 1567   6.848   6.364   1.139 -2.8748 -0.4819 -2.3036
    4CHTO   C53 1568   6.990   6.229   1.043  0.6445  0.3421 -0.1492
    4CHTO   O72 1569   7.071   6.347   1.034 -0.3464 -0.0911  0.2405
    4CHTO  H199 1570   7.147   6.335   1.088  1.6766  1.8377 -2.0698
    4CHTO   O22 1571   6.895   6.244   1.510 -0.4434 -0.2648  0.1268
    4CHTO   C31 1572   6.865   6.340   1.610  0.0386  0.0362  0.2276
    4CHTO   H59 1573   6.760   6.372   1.596  0.4590  1.6450  0.7004
    4CHTO   C29 1574   6.881   6.272   1.748  0.0796  0.0808 -0.2947
    4CHTO   H57 1575   6.987   6.244   1.763 -0.4042 -0.9243  1.4489
    4CHTO   O21 1576   6.806   6.148   1.755  0.1339  0.8754 -0.0434
    4CHTO   H37 1577   6.839   6.100   1.829 -2.9194 -1.1475  0.0642
    4CHTO   C27 1578   6.833   6.366   1.865  0.2292  0.5529 -0.1240
    4CHTO   H55 1579   6.726   6.388   1.849  0.2665  1.6855  1.1274
    4CHTO    N5 1580   6.855   6.321   2.008  0.8203 -0.2976  0.5011
    4CHTO   H43 1581   6.786   6.240   2.028 -0.4633  1.0722  1.6630
    4CHTO   H44 1582   6.955   6.284   2.026  1.2817 -0.7289 -2.7103
    4CHTO   C25 1583   6.897   6.512   1.842 -0.2594 -0.3239  0.0339
    4CHTO   H53 1584   7.004   6.501   1.865 -0.0369 -0.1559 -0.8992
    4CHTO   O17 1585   6.891   6.549   1.704  0.5510  0.0078 -0.0509
    4CHTO   C32 1586   6.948   6.465   1.605  0.1709 -0.0715 -0.2255
    4CHTO   H60 1587   7.054   6.441   1.615  0.1299 -0.6768 -1.1293
    4CHTO   C36 1588   6.942   6.537   1.465  0.3348  0.7030  0.3739
    4CHTO   O25 1589   7.035   6.650   1.457 -0.3344 -0.1254  0.1644
    4CHTO   H40 1590   7.078   6.669   1.538 -2.6190  3.0064  0.7383
    4CHTO   O15 1591   6.838   6.632   1.916  0.6751  0.5381 -0.6143
    4CHTO   C19 1592   6.825   6.756   1.996 -0.1542  0.0213 -0.2414
    4CHTO   H47 1593   6.888   6.735   2.084 -0.6290 -1.4306 -0.2361
    4CHTO   C20 1594   6.879   6.880   1.930  0.0318 -0.5573  0.8119
    4CHTO   H48 1595   6.820   6.908   1.841 -0.8438 -0.2213  1.4943
    4CHTO   O19 1596   7.014   6.841   1.900  0.4875 -0.2695  0.1534
    4CHTO   H35 1597   7.037   6.872   1.815 -0.0828 -0.4219 -0.0557
    4CHTO   C21 1598   6.880   7.006   2.026 -0.5788  0.2133  0.7325
    4CHTO   H49 1599   6.938   6.981   2.114 -1.2795  0.8341  1.3836
    4CHTO    N4 1600   6.949   7.125   1.965  0.4492  0.1536 -0.5285
    4CHTO   H41 1601   6.956   7.200   2.043 -1.3026 -0.0514 -0.1483
    4CHTO   H42 1602   6.880   7.162   1.890  2.8025  0.4079 -2.6042
    4CHTO   C22 1603   6.734   7.028   2.074  0.3865  0.4814 -0.4982
    4CHTO   H50 1604   6.674   7.051   1.986  0.4908 -0.8294 -0.9184
    4CHTO   O14 1605   6.680   6.912   2.139  0.3560 -0.1037 -0.1539
    4CHTO   C23 1606   6.683   6.797   2.052  0.0217 -0.2155 -0.2693
    4CHTO   H51 1607   6.614   6.819   1.969  0.9805 -1.7235 -1.4845
    4CHTO   C34 1608   6.605   6.683   2.116 -0.3600 -0.7741 -0.1149
    4CHTO   O23 1609   6.487   6.734   2.188  0.2258 -0.6485 -0.6164
    4CHTO   H38 1610   6.426   6.665   2.206 -0.2300 -0.5541 -1.7443
    4CHTO   O16 1611   6.734   7.134   2.173  0.3389  0.2772 -0.5067
    4CHTO   C24 1612   6.585   7.197   2.183 -0.4282 -0.5398 -1.3852
    4CHTO   H52 1613   6.512   7.155   2.113  0.4890 -0.3343 -2.4837
    4CHTO   C26 1614   6.598   7.349   2.146 -0.3039 -0.2258 -0.2362
    4CHTO   H54 1615   6.641   7.351   2.044 -3.0447 -1.5119 -1.4568
    4CHTO   O20 1616   6.467   7.411   2.129 -0.3534  0.1030  0.0035
    4CHTO   H36 1617   6.467   7.504   2.117  0.3136 -0.1077 -1.7080
    4CHTO   C30 1618   6.673   7.435   2.256 -1.0926  0.1364 -0.3735
    4CHTO   H58 1619   6.617   7.529   2.266 -1.7029  0.1947 -3.9222
    4CHTO    N6 1620   6.806   7.477   2.207 -0.5163  0.4295 -0.2277
    4CHTO   H45 1621   6.816   7.584   2.215 -1.3626  0.2912  3.6701
    4CHTO   H46 1622   6.878   7.428   2.271 -1.0572  0.4131  0.3737
    4CHTO   C33 1623   6.689   7.365   2.397  0.2155  0.0804 -0.0473
    4CHTO   H61 1624   6.776   7.298   2.391 -0.4802 -0.8828  0.5879
    4CHTO   O18 1625   6.569   7.285   2.424  0.2406 -0.3901  0.1904
    4CHTO   C28 1626   6.536   7.179   2.332 -0.0860 -0.6134 -0.4738
    4CHTO   H56 1627   6.576   7.086   2.372  1.2468 -0.5804 -1.6881
    4CHTO   C35 1628   6.379   7.166   2.332 -0.4633 -0.3436 -0.0543
    4CHTO   O24 1629   6.314   7.174   2.454  0.5603 -0.2388  0.2683
    4CHTO   H39 1630   6.222   7.162   2.445  0.1363  2.3686  0.6701
    4CHTO    O9 1631   6.721   7.452   2.511 -1.1083  0.4356  0.6315
    4CHTO   C13 1632   6.812   7.371   2.644 -0.4746  0.1966  0.3902
    4CHTO   H26 1633   6.908   7.333   2.604  0.5181  0.7423  2.1964
    4CHTO   C11 1634   6.719   7.253   2.700  0.0741  0.2517 -0.1575
    4CHTO   H24 1635   6.701   7.172   2.628  0.8635 -0.9466  0.9723
    4CHTO    O8 1636   6.587   7.304   2.732 -0.2011 -0.3671  0.5142
    4CHTO    H3 1637   6.523   7.238   2.752 -2.1703  0.6847 -1.9203
    4CHTO    C9 1638   6.797   7.201   2.824 -0.3887 -0.4618 -0.8337
    4CHTO   H22 1639   6.903   7.196   2.795  0.5313 -0.6216  2.3594
    4CHTO    N2 1640   6.764   7.064   2.860  0.2496 -0.2735 -0.0906
    4CHTO   H10 1641   6.851   7.001   2.854  1.3092  0.9610  1.8469
    4CHTO   H11 1642   6.685   7.029   2.795 -0.3915 -1.2028  1.1639
    4CHTO    C7 1643   6.788   7.306   2.941 -0.0478  0.1872  0.1557
    4CHTO   H20 1644   6.890   7.303   2.983  1.6135  1.3149 -3.5691
    4CHTO    O4 1645   6.785   7.444   2.893  0.3473 -0.2930  0.7083
    4CHTO   C14 1646   6.852   7.473   2.765 -0.1700  0.2192  0.0389
    4CHTO   H27 1647   6.959   7.454   2.787 -0.0548  1.9404  1.0368
    4CHTO   C18 1648   6.834   7.621   2.736 -0.3663 -0.1049 -0.1716
    4CHTO   O13 1649   6.914   7.667   2.632 -0.4074 -0.3350  0.4918
    4CHTO    H7 1650   6.880   7.741   2.586 -1.4219 -0.7530  0.5525
    4CHTO    O2 1651   6.668   7.287   3.051  0.3436  0.1582 -0.0754
    4CHTO    C1 1652   6.706   7.287   3.194  0.6881 -0.2347 -0.6873
    4CHTO   H14 1653   6.620   7.332   3.247  0.7244 -3.0688  1.8958
    4CHTO    C2 1654   6.827   7.379   3.234 -0.0350  0.6722  0.5966
    4CHTO   H15 1655   6.911   7.371   3.163  0.1027 -2.0353  1.0274
    4CHTO    O6 1656   6.782   7.513   3.238 -0.1069 -0.0424 -0.0201
    4CHTO    H1 1657   6.860   7.564   3.247  0.8012 -1.3884 -0.1279
    4CHTO    C3 1658   6.883   7.347   3.389 -0.5189 -0.4507  0.1760
    4CHTO   H16 1659   6.804   7.377   3.459 -0.6878 -1.2636  0.3472
    4CHTO    N1 1660   7.004   7.424   3.422  0.1520 -0.0807  0.1766
    4CHTO    H8 1661   6.984   7.515   3.477 -0.4982 -0.1492  0.0554
    4CHTO    H9 1662   7.070   7.357   3.476 -0.7628  0.8398  2.5418
    4CHTO    C4 1663   6.901   7.189   3.417 -0.0410 -0.2669  0.2715
    4CHTO   H17 1664   6.983   7.157   3.353  0.5318 -0.3349  1.0396
    4CHTO    O1 1665   6.787   7.121   3.367  0.9414  0.0881  0.3252
    4CHTO    C5 1666   6.735   7.136   3.234 -0.4026  0.3437  0.1560
    4CHTO   H18 1667   6.807   7.096   3.163 -1.2891 -0.7889 -0.1284
    4CHTO   C16 1668   6.606   7.052   3.233  0.6350 -0.5303  0.1884
    4CHTO   O11 1669   6.503   7.108   3.317  0.1180  0.4601 -0.0241
    4CHTO    H5 1670   6.465   7.035   3.362  0.4701 -0.6895 -1.5370
    4CHTO    O3 1671   6.944   7.153   3.550 -0.1882 -0.8233  0.5259
    4CHTO    C6 1672   6.958   7.018   3.576  0.1787  0.5880 -0.4710
    4CHTO   H19 1673   6.919   6.959   3.493 -0.5976  2.3816 -1.4189
    4CHTO    C8 1674   7.109   6.983   3.597  0.3760  0.9002 -0.2455
    4CHTO   H21 1675   7.149   7.064   3.657  3.5950 -1.6594  1.1434
    4CHTO    O7 1676   7.176   6.981   3.469 -0.1170 -0.3946  0.1693
    4CHTO    H2 1677   7.154   6.902   3.423 -2.7007 -0.5746  1.6404
    4CHTO   C12 1678   7.130   6.848   3.672  0.0337  0.0839  0.1625
    4CHTO   H25 1679   7.119   6.773   3.591  0.3034  0.1133  0.0984
    4CHTO    N3 1680   7.273   6.841   3.721  0.7903  0.1780  0.2909
    4CHTO   H12 1681   7.297   6.761   3.790  0.4770 -0.4484 -0.3228
    4CHTO   H13 1682   7.303   6.932   3.771 -1.1868 -0.0241  1.9235
    4CHTO   C15 1683   7.024   6.816   3.788 -0.7298 -0.0985 -0.4435
    4CHTO   H28 1684   7.044   6.880   3.873  0.7878  0.1231 -0.9660
    4CHTO   O10 1685   7.016   6.658   3.815  0.2557 -0.4592 -0.1765
    4CHTO    H4 1686   7.093   6.625   3.856  1.3242  1.7222 -0.3763
    4CHTO    O5 1687   6.895   6.849   3.730  0.0553  0.4610  0.1099
    4CHTO   C10 1688   6.872   6.987   3.704 -0.0594 -0.1039 -0.7870
    4CHTO   H23 1689   6.908   7.044   3.790 -0.4325 -0.4531 -0.3963
    4CHTO   C17 1690   6.718   6.990   3.681  0.5423 -0.6471 -0.1815
    4CHTO   O12 1691   6.662   7.120   3.663 -0.0217  0.1692 -0.3836
    4CHTO    H6 1692   6.647   7.130   3.571 -0.0058 -0.2073 -0.4262
    5CHTO  H203 1693   7.799   3.974   0.895  2.1159 -1.0034  2.2127
    5CHTO   O82 1694   7.727   3.914   0.903  0.5491  0.5066 -0.0624
    5CHTO  C123 1695   7.700   3.880   1.040 -0.6809  0.1376 -0.0765
    5CHTO  H227 1696   7.784   3.823   1.081 -0.4384 -0.2832 -1.1642
    5CHTO   O77 1697   7.695   4.011   1.112 -0.1616  0.0775  0.4245
    5CHTO  C118 1698   7.683   4.004   1.253  0.4517 -0.1126  0.9443
    5CHTO  H222 1699   7.766   3.942   1.290  0.2310 -2.2162 -1.9356
    5CHTO  C125 1700   7.704   4.154   1.304 -0.0324 -1.0217  0.1661
    5CHTO   O84 1701   7.846   4.188   1.305 -0.0275 -0.4043  0.3502
    5CHTO  H205 1702   7.890   4.178   1.222 -0.1468 -1.0965  0.3744
    5CHTO  C114 1703   7.550   3.937   1.295  0.4207  0.5818 -0.1577
    5CHTO  H218 1704   7.470   4.010   1.280  1.7356  2.4216  1.5179
    5CHTO  C116 1705   7.539   3.792   1.225 -0.4351 -0.8395 -0.5373
    5CHTO  H220 1706   7.619   3.730   1.271  0.1141  1.0714  1.1572
    5CHTO   O79 1707   7.418   3.723   1.250 -0.2225 -0.8922 -0.9327
    5CHTO  H201 1708   7.424   3.683   1.334 -4.4258  0.6647  0.2190
    5CHTO  C120 1709   7.563   3.812   1.064  0.2992  0.3322 -0.5513
    5CHTO  H224 1710   7.481   3.881   1.035 -0.1774 -0.2796 -0.6767
    5CHTO   N21 1711   7.555   3.681   0.990 -0.1692  0.3511  0.0697
    5CHTO  H211 1712   7.493   3.615   1.049  0.4347  0.5481  0.9194
    5CHTO  H212 1713   7.513   3.703   0.893 -1.4422  0.3766  0.6157
    5CHTO   O75 1714   7.567   3.909   1.433 -0.4232  0.2468  0.2825
    5CHTO  C112 1715   7.438   3.916   1.518  0.3347  0.5592 -0.0385
    5CHTO  H216 1716   7.360   3.872   1.455  0.5654  0.0974 -0.0082
    5CHTO   O73 1717   7.415   4.052   1.543 -0.4350  0.1626 -0.1783
    5CHTO  C113 1718   7.295   4.087   1.605  0.2951 -0.0766  0.2690
    5CHTO  H217 1719   7.210   4.067   1.537  0.6578  0.2559 -0.2929
    5CHTO  C124 1720   7.283   4.242   1.630 -0.4801 -0.2906  0.6204
    5CHTO   O83 1721   7.322   4.316   1.512 -0.4386  0.9584  0.4728
    5CHTO  H204 1722   7.262   4.300   1.441  0.6830  2.3275 -0.8166
    5CHTO  C109 1723   7.271   4.017   1.741  0.4547 -0.3788  0.7114
    5CHTO  H213 1724   7.341   4.061   1.813 -1.0872  1.3607  1.1799
    5CHTO  C110 1725   7.297   3.864   1.725 -0.0514  0.0260  0.0711
    5CHTO  H214 1726   7.221   3.825   1.657 -0.1825 -0.5981  0.5800
    5CHTO   O78 1727   7.279   3.794   1.853 -0.1626  0.1068  0.4453
    5CHTO  H200 1728   7.296   3.856   1.921 -1.3867  0.3431  0.5466
    5CHTO  C111 1729   7.434   3.840   1.656 -0.2410  0.8360 -0.1260
    5CHTO  H215 1730   7.517   3.878   1.717 -0.8097 -0.1915  1.3238
    5CHTO   N19 1731   7.469   3.697   1.639 -0.3756  0.4972 -0.4965
    5CHTO  H207 1732   7.398   3.660   1.566 -1.1938  5.3053 -2.3065
    5CHTO  H208 1733   7.570   3.692   1.603  0.4159  2.3412  1.3997
    5CHTO   O74 1734   7.131   4.046   1.780 -0.3663 -0.6261  0.2556
    5CHTO  C115 1735   7.096   4.032   1.918 -0.2171 -0.0902 -0.4338
    5CHTO  H219 1736   7.182   3.998   1.976  0.5120  2.4481  0.0815
    5CHTO   O76 1737   7.057   4.189   1.996 -0.1602 -0.3343  0.2002
    5CHTO  C122 1738   6.955   4.254   1.918 -0.1700 -0.2621 -0.0257
    5CHTO  H226 1739   7.011   4.281   1.829 -1.3259 -0.8166 -0.9356
    5CHTO  C126 1740   6.911   4.384   1.985  0.2094  0.3364  0.6508
    5CHTO   O85 1741   6.842   4.470   1.898 -0.1456  0.3057 -0.3313
    5CHTO  H206 1742   6.783   4.416   1.848  1.3434 -0.5131 -1.2184
    5CHTO  C121 1743   6.836   4.162   1.887 -0.4273 -0.1603 -0.2623
    5CHTO  H225 1744   6.746   4.218   1.919 -0.9759 -0.8199 -0.6483
    5CHTO   O81 1745   6.821   4.142   1.746  0.2347  0.5909 -0.0240
    5CHTO  H202 1746   6.732   4.118   1.725  0.5951  0.0810 -1.0257
    5CHTO  C119 1747   6.841   4.030   1.976 -0.9604  0.6074 -0.3352
    5CHTO  H223 1748   6.856   4.065   2.078  1.3434 -0.3656 -0.3098
    5CHTO  C117 1749   6.973   3.942   1.940 -0.6098  0.4827 -0.6469
    5CHTO  H221 1750   6.976   3.886   1.846 -1.4042 -0.6023 -0.0390
    5CHTO   N20 1751   6.999   3.834   2.042  0.2359  0.3912  0.3075
    5CHTO  H209 1752   6.959   3.860   2.139 -0.4384  0.6012 -0.0220
    5CHTO  H210 1753   7.086   3.770   2.036  0.3123  0.4793  0.4825
    5CHTO   O80 1754   6.705   3.958   1.984 -0.0800 -0.0595  0.9712
    5CHTO  C103 1755   6.649   3.877   1.852 -0.5231  0.2803  0.3278
    5CHTO  H190 1756   6.696   3.926   1.766 -0.1656  0.4070  0.5933
    5CHTO  C101 1757   6.662   3.712   1.855 -0.2123  0.3475 -0.6685
    5CHTO  H188 1758   6.621   3.673   1.948  1.0719 -0.1219 -0.2820
    5CHTO   O68 1759   6.808   3.662   1.853  0.1847  0.0767 -0.1438
    5CHTO  H168 1760   6.812   3.570   1.873 -3.2103  0.0220  0.6844
    5CHTO   C99 1761   6.570   3.641   1.746 -0.2106 -0.4348  0.2013
    5CHTO  H186 1762   6.588   3.676   1.642  1.9890 -0.2809  0.6270
    5CHTO   N17 1763   6.585   3.495   1.755 -0.5882  0.4471 -0.0911
    5CHTO  H174 1764   6.577   3.449   1.658  0.3110 -0.4184  0.2370
    5CHTO  H175 1765   6.678   3.463   1.799 -1.2329  0.8547  1.6169
    5CHTO   C97 1766   6.426   3.693   1.776 -0.4836  1.2097  0.0235
    5CHTO  H184 1767   6.400   3.670   1.881  0.0709  0.5441  0.0201
    5CHTO   O64 1768   6.422   3.838   1.745 -0.2296 -0.0630  0.0227
    5CHTO  C104 1769   6.496   3.908   1.849  0.1386 -0.5976  0.3139
    5CHTO  H191 1770   6.453   3.890   1.948 -2.3618  0.2184 -0.5743
    5CHTO  C108 1771   6.476   4.056   1.819 -0.0721 -0.0392  0.6145
    5CHTO   O71 1772   6.350   4.118   1.863 -0.7900 -0.4551  0.4199
    5CHTO  H171 1773   6.372   4.210   1.865 -1.8034 -0.1689 -0.7187
    5CHTO   O62 1774   6.328   3.633   1.686 -0.3666 -0.6449 -0.1318
    5CHTO   C91 1775   6.201   3.591   1.739 -0.5359 -0.0091  0.6578
    5CHTO  H178 1776   6.185   3.664   1.819 -0.9700  1.3374 -0.6324
    5CHTO   C92 1777   6.205   3.457   1.816 -0.5227 -0.3657 -0.8948
    5CHTO  H179 1778   6.238   3.374   1.751 -0.4065 -1.6347  0.7463
    5CHTO   O66 1779   6.296   3.459   1.927 -0.7477 -0.2626 -0.2707
    5CHTO  H166 1780   6.332   3.376   1.950  2.3818  0.5763 -1.8398
    5CHTO   C93 1781   6.061   3.409   1.871 -0.7592  0.6696 -0.4879
    5CHTO  H180 1782   6.043   3.466   1.963  0.4562  0.5377 -0.1583
    5CHTO   N16 1783   6.063   3.267   1.927 -0.0087 -0.5289  0.5147
    5CHTO  H172 1784   5.965   3.244   1.966 -0.9085  0.8719 -0.8713
    5CHTO  H173 1785   6.091   3.202   1.845  0.7667 -0.1603  0.4898
    5CHTO   C94 1786   5.946   3.431   1.764 -0.3433 -0.1121  0.1575
    5CHTO  H181 1787   5.954   3.362   1.680 -0.8890  1.8874 -1.5907
    5CHTO   O61 1788   5.960   3.560   1.708  0.1911  0.2188  0.8408
    5CHTO   C95 1789   6.085   3.589   1.639 -0.9563 -0.2420  0.0605
    5CHTO  H182 1790   6.094   3.512   1.561 -0.6942  0.3589 -0.5051
    5CHTO  C106 1791   6.065   3.733   1.567 -0.0898 -0.2506 -0.1852
    5CHTO   O69 1792   6.169   3.776   1.472 -0.6086  0.2025 -0.6484
    5CHTO  H169 1793   6.177   3.866   1.495  0.6968 -0.1387  0.2778
    5CHTO   O63 1794   5.799   3.419   1.839 -0.1073  0.9517 -0.1637
    5CHTO   C96 1795   5.694   3.381   1.717 -0.5154 -0.5549  0.2409
    5CHTO  H183 1796   5.749   3.364   1.625 -2.0284  2.1031 -1.2167
    5CHTO   C98 1797   5.594   3.495   1.683 -0.4016  0.1117 -0.0940
    5CHTO  H185 1798   5.533   3.516   1.772  2.8601 -2.3941  2.8748
    5CHTO   O67 1799   5.663   3.616   1.650 -0.5180  0.6951  0.5011
    5CHTO  H167 1800   5.606   3.690   1.652 -1.4375  0.0332 -0.3572
    5CHTO  C102 1801   5.504   3.456   1.556  0.0975 -0.2422  0.3071
    5CHTO  H189 1802   5.567   3.466   1.467 -0.5171 -1.7671 -0.3137
    5CHTO   N18 1803   5.385   3.542   1.525 -0.2272 -0.5322 -0.2284
    5CHTO  H176 1804   5.394   3.582   1.425  0.8827  1.2780  0.5693
    5CHTO  H177 1805   5.401   3.624   1.594 -1.4474  0.0822 -0.6727
    5CHTO  C105 1806   5.452   3.308   1.566  1.4107  0.5126  0.0896
    5CHTO  H192 1807   5.367   3.302   1.634  0.4462  0.9242 -1.0588
    5CHTO   O65 1808   5.547   3.220   1.621  0.1255 -0.8877 -0.6461
    5CHTO  C100 1809   5.606   3.254   1.747  0.4187 -0.4007  0.1845
    5CHTO  H187 1810   5.523   3.269   1.817 -0.9006  1.1488 -1.6593
    5CHTO  C107 1811   5.680   3.122   1.802 -0.7315  0.4697  0.1552
    5CHTO   O70 1812   5.582   3.027   1.832  0.1426 -0.3411 -0.5996
    5CHTO  H170 1813   5.590   2.980   1.912 -0.5191 -0.8381 -0.8218
    5CHTO   O57 1814   5.401   3.241   1.423  0.2927  0.2305 -0.0970
    5CHTO   C85 1815   5.338   3.110   1.409 -0.2774 -0.2400  0.0781
    5CHTO  H157 1816   5.234   3.129   1.444 -0.5737  2.5727 -2.1039
    5CHTO   C83 1817   5.397   2.995   1.504  0.5128  0.2317  0.3385
    5CHTO  H155 1818   5.395   3.025   1.609  1.4122  0.1563  0.3808
    5CHTO   O56 1819   5.541   2.995   1.480  0.4095  0.2960  0.2922
    5CHTO  H135 1820   5.557   2.959   1.395 -1.0433 -0.6340  0.3966
    5CHTO   C81 1821   5.316   2.857   1.489 -0.6853  0.1902 -0.1044
    5CHTO  H153 1822   5.212   2.879   1.514 -0.6057  0.6285 -0.1651
    5CHTO   N14 1823   5.359   2.757   1.589  0.4701 -0.1959 -0.0406
    5CHTO  H141 1824   5.376   2.816   1.676 -2.1827 -0.9471  1.0416
    5CHTO  H142 1825   5.451   2.709   1.563  1.5462  1.7162  0.1705
    5CHTO   C79 1826   5.323   2.810   1.344  0.1513  0.9241 -0.1081
    5CHTO  H151 1827   5.246   2.734   1.334 -0.6709  1.7699 -0.2739
    5CHTO   O52 1828   5.277   2.912   1.247 -0.0480 -0.0135 -0.6962
    5CHTO   C86 1829   5.339   3.050   1.263  0.0916  0.2634  0.2689
    5CHTO  H158 1830   5.442   3.044   1.221  0.0775  0.7796  0.1576
    5CHTO   C90 1831   5.261   3.142   1.171 -0.1132  0.1089 -0.1042
    5CHTO   O60 1832   5.332   3.267   1.144 -0.6479 -0.1969  0.0772
    5CHTO  H138 1833   5.420   3.249   1.118 -0.7427 -0.5528 -0.0031
    5CHTO   O50 1834   5.453   2.772   1.299 -0.1628 -0.4004  0.4449
    5CHTO   C73 1835   5.494   2.697   1.186 -0.1889 -0.0063  0.1446
    5CHTO  H145 1836   5.413   2.707   1.112 -0.8346 -0.5893  0.7566
    5CHTO   C74 1837   5.505   2.552   1.239 -0.3379  0.3782 -0.6560
    5CHTO  H146 1838   5.409   2.532   1.289 -0.2328  1.8116  0.1721
    5CHTO   O54 1839   5.520   2.460   1.132  0.3542 -0.1491  0.2617
    5CHTO  H133 1840   5.609   2.459   1.103  0.3334  3.1207 -0.0997
    5CHTO   C75 1841   5.629   2.544   1.345  0.3134  0.5070  0.1917
    5CHTO  H147 1842   5.611   2.606   1.434  0.6285  1.4684 -0.3957
    5CHTO   N13 1843   5.646   2.402   1.405  0.0053 -0.2326  0.2058
    5CHTO  H139 1844   5.561   2.344   1.374 -1.0622  0.9109  0.9591
    5CHTO  H140 1845   5.737   2.352   1.373 -0.3223 -0.3915 -0.4858
    5CHTO   C76 1846   5.760   2.594   1.273  0.3548  0.8202 -0.2032
    5CHTO  H148 1847   5.778   2.524   1.192 -1.7046  0.8083 -0.6786
    5CHTO   O49 1848   5.732   2.721   1.221 -0.6465 -0.4095 -0.6858
    5CHTO   C77 1849   5.629   2.739   1.126  0.1827  0.2298 -0.1121
    5CHTO  H149 1850   5.650   2.679   1.037 -1.6073 -0.1670 -0.2932
    5CHTO   C88 1851   5.639   2.885   1.086 -0.0839 -0.0733 -0.0970
    5CHTO   O58 1852   5.531   2.920   0.979 -0.2530  0.0275 -0.1062
    5CHTO  H136 1853   5.453   2.942   1.026 -1.0422 -1.2162 -0.8110
    5CHTO   O51 1854   5.868   2.608   1.380  0.1505  0.6725  0.1914
    5CHTO   C78 1855   6.004   2.695   1.342 -0.1766  0.3759  0.3487
    5CHTO  H150 1856   5.981   2.766   1.260 -1.0677 -1.2683 -0.8316
    5CHTO   C80 1857   6.125   2.612   1.299  0.7498 -0.2070 -0.1896
    5CHTO  H152 1858   6.142   2.534   1.376  1.1752 -0.4800 -0.5618
    5CHTO   O55 1859   6.099   2.551   1.173 -0.8648 -0.4761  0.2428
    5CHTO  H134 1860   6.115   2.606   1.099  1.5661  1.1929  1.9068
    5CHTO   C84 1861   6.262   2.692   1.276 -0.4374 -0.2867  0.1860
    5CHTO  H156 1862   6.242   2.751   1.186  1.1524 -1.5570 -1.0489
    5CHTO   N15 1863   6.376   2.598   1.250 -0.2704 -0.0659 -0.4012
    5CHTO  H143 1864   6.396   2.535   1.334 -2.5714  0.3785  0.5014
    5CHTO  H144 1865   6.374   2.541   1.160  0.8901 -0.4227 -0.2124
    5CHTO   C87 1866   6.282   2.785   1.392  0.2535  0.6813  0.4612
    5CHTO  H159 1867   6.316   2.730   1.480 -0.2878 -1.3927 -0.6092
    5CHTO   O53 1868   6.151   2.861   1.429  0.1226  0.2989 -0.1134
    5CHTO   C82 1869   6.042   2.778   1.470 -0.1826 -0.0551  0.0260
    5CHTO  H154 1870   6.063   2.707   1.549 -2.3189 -2.1363 -1.1955
    5CHTO   C89 1871   5.919   2.860   1.507  0.0980  0.3315  0.2624
    5CHTO   O59 1872   5.889   2.963   1.410  0.5317 -0.6921  0.3243
    5CHTO  H137 1873   5.832   3.023   1.455  0.4473  0.2255 -0.9859
    5CHTO   O45 1874   6.385   2.895   1.352 -0.3830 -0.6122 -0.1794
    5CHTO   C67 1875   6.456   2.948   1.461  0.6055  0.6675 -0.2664
    5CHTO  H124 1876   6.408   2.913   1.553 -1.1883  1.6063 -0.8151
    5CHTO   C65 1877   6.606   2.906   1.460  0.5038  0.5360 -0.4329
    5CHTO  H122 1878   6.622   2.884   1.355 -1.6115 -0.0039 -0.6698
    5CHTO   O44 1879   6.615   2.793   1.551  0.4035  0.3649 -0.0448
    5CHTO  H102 1880   6.690   2.805   1.607  0.5275 -1.5824  0.2314
    5CHTO   C63 1881   6.701   3.029   1.475  0.0903  0.0023  0.1234
    5CHTO  H120 1882   6.691   3.096   1.390 -1.2937  2.3909  2.0700
    5CHTO   N11 1883   6.849   3.002   1.467 -0.4103  0.1133 -0.4486
    5CHTO  H108 1884   6.865   2.923   1.538 -1.1962  0.9383  0.6588
    5CHTO  H109 1885   6.904   3.091   1.489 -1.2861  0.9415 -1.5558
    5CHTO   C61 1886   6.654   3.123   1.599 -0.0266 -0.1546 -0.2207
    5CHTO  H118 1887   6.721   3.211   1.604 -1.1924  0.6213  2.0914
    5CHTO   O40 1888   6.516   3.171   1.577  0.0226 -0.4490 -0.2785
    5CHTO   C68 1889   6.440   3.106   1.471 -0.7014 -0.2713  0.3005
    5CHTO  H125 1890   6.478   3.142   1.373 -0.2913  0.4676  0.7310
    5CHTO   C72 1891   6.294   3.158   1.481 -0.4716  0.4561  0.6237
    5CHTO   O48 1892   6.231   3.116   1.599 -0.1117 -0.0739  0.0227
    5CHTO  H105 1893   6.163   3.177   1.622  0.1913  0.2683  0.0121
    5CHTO   O38 1894   6.663   3.053   1.724 -0.0474  0.1608 -0.2906
    5CHTO   C55 1895   6.641   3.119   1.849  0.3216 -0.0620 -0.5453
    5CHTO  H112 1896   6.566   3.199   1.842 -0.0510 -0.3304  0.2741
    5CHTO   C56 1897   6.774   3.167   1.914  0.2571 -0.7708  0.2369
    5CHTO  H113 1898   6.833   3.074   1.919 -0.2489 -1.0486  1.1450
    5CHTO   O42 1899   6.842   3.266   1.834 -0.0475  0.6792 -0.3084
    5CHTO  H100 1900   6.932   3.278   1.859 -0.6843  1.0546  1.8232
    5CHTO   C57 1901   6.746   3.233   2.058 -0.3004  0.2740 -0.2846
    5CHTO  H114 1902   6.698   3.327   2.029  1.4287  1.0431 -0.7433
    5CHTO   N10 1903   6.863   3.272   2.147  0.3927  0.3385 -0.0243
    5CHTO  H106 1904   6.937   3.308   2.077 -0.1514  1.1885 -0.1679
    5CHTO  H107 1905   6.841   3.356   2.212 -1.2478 -0.2804  0.2366
    5CHTO   C58 1906   6.647   3.147   2.145  0.7271  0.6081  0.1210
    5CHTO  H115 1907   6.703   3.063   2.192 -2.1515 -1.8173 -0.6542
    5CHTO   O37 1908   6.542   3.078   2.071  0.3929 -0.1943 -0.2418
    5CHTO   C59 1909   6.574   3.013   1.945  0.3584 -0.0285  0.0579
    5CHTO  H116 1910   6.625   2.919   1.965  0.7286  0.0036 -0.6898
    5CHTO   C70 1911   6.434   2.968   1.895 -0.3747 -0.0010  0.2960
    5CHTO   O46 1912   6.345   3.080   1.869  0.1924 -0.0258 -0.2345
    5CHTO  H103 1913   6.323   3.114   1.954  0.6987  0.2682 -0.2146
    5CHTO   O39 1914   6.581   3.245   2.263 -0.7173 -1.0111 -0.2229
    5CHTO   C60 1915   6.455   3.313   2.232 -0.1049 -0.1270 -0.0265
    5CHTO  H117 1916   6.452   3.313   2.123 -0.1923  0.9920 -0.0241
    5CHTO   C62 1917   6.326   3.261   2.306  0.0735 -0.0258  0.7081
    5CHTO  H119 1918   6.305   3.164   2.256  0.6019  1.3891 -2.4079
    5CHTO   O43 1919   6.345   3.263   2.453 -0.5210  0.2462 -0.5214
    5CHTO  H101 1920   6.372   3.350   2.475 -1.1163 -0.1976  2.1523
    5CHTO   C66 1921   6.199   3.340   2.262  0.0242  0.5112 -0.5522
    5CHTO  H123 1922   6.205   3.348   2.153 -0.5851  2.6319 -0.4372
    5CHTO   N12 1923   6.073   3.269   2.300  0.6009 -0.1128  0.2372
    5CHTO  H110 1924   6.024   3.334   2.371 -0.4953 -1.2074  0.4987
    5CHTO  H111 1925   6.094   3.175   2.349 -0.2935  0.5949  2.0339
    5CHTO   C69 1926   6.207   3.488   2.309 -0.3203  0.6757  0.7093
    5CHTO  H126 1927   6.196   3.493   2.419 -0.6046  2.1591  0.6210
    5CHTO   O41 1928   6.348   3.546   2.249  0.2290 -0.2966 -0.3101
    5CHTO   C64 1929   6.475   3.462   2.277 -0.0097 -0.4459 -0.6493
    5CHTO  H121 1930   6.507   3.461   2.384  1.4036  0.1803 -1.0510
    5CHTO   C71 1931   6.596   3.529   2.192  0.0018  0.4631 -0.3266
    5CHTO   O47 1932   6.607   3.674   2.216  0.0280 -0.7152 -0.2568
    5CHTO  H104 1933   6.528   3.718   2.193  0.5740 -0.8889 -2.5007
    5CHTO   O34 1934   6.101   3.568   2.245  0.6411 -0.2192 -0.9627
    5CHTO   C49 1935   6.030   3.695   2.220  0.0281  0.2885 -0.2949
    5CHTO   H91 1936   6.108   3.771   2.223  0.9204 -0.6684  1.4406
    5CHTO   C47 1937   5.919   3.712   2.324  0.5114 -0.6291 -0.5302
    5CHTO   H89 1938   5.877   3.814   2.311 -0.3933 -0.7301  1.4315
    5CHTO   O33 1939   5.974   3.706   2.454  0.2017 -0.1190  1.3399
    5CHTO   H70 1940   5.976   3.615   2.476 -0.5714 -0.7447 -1.0304
    5CHTO   C45 1941   5.807   3.596   2.285  0.2150  0.1674  0.5744
    5CHTO   H87 1942   5.850   3.495   2.276  2.5158  1.1943 -0.0682
    5CHTO    N8 1943   5.705   3.590   2.392 -0.3456 -0.2407  0.2096
    5CHTO   H75 1944   5.741   3.559   2.489  1.7475  1.2124 -0.0429
    5CHTO   H76 1945   5.662   3.689   2.401  0.4081  0.3472 -2.1838
    5CHTO   C43 1946   5.742   3.642   2.144 -0.0706  0.6561  0.1928
    5CHTO   H85 1947   5.671   3.564   2.119 -1.0203  1.6794 -0.3751
    5CHTO   O29 1948   5.847   3.646   2.044 -0.0390  0.1604  0.4091
    5CHTO   C50 1949   5.969   3.705   2.076  0.4385 -0.0053 -0.2503
    5CHTO   H92 1950   6.042   3.643   2.022 -0.1259 -1.3987  0.5352
    5CHTO   C54 1951   5.965   3.843   2.027 -0.4996  0.2317  0.2029
    5CHTO   O36 1952   6.023   3.863   1.898  0.2302 -0.6016  0.5394
    5CHTO   H72 1953   6.087   3.796   1.882  0.1123 -0.9412  1.4961
    5CHTO   O27 1954   5.670   3.767   2.155  0.9151  0.5250 -0.5994
    5CHTO   C37 1955   5.541   3.827   2.121 -0.5984  0.8073 -0.5082
    5CHTO   H79 1956   5.559   3.920   2.065 -0.0582  0.9640 -0.0895
    5CHTO   C38 1957   5.447   3.734   2.025  0.1628 -0.1426 -0.4534
    5CHTO   H80 1958   5.443   3.633   2.069 -1.8875 -0.0551 -0.3608
    5CHTO   O31 1959   5.506   3.722   1.896 -0.1832  0.5506 -0.3355
    5CHTO   H68 1960   5.445   3.686   1.835 -0.2551  3.3258 -2.0021
    5CHTO   C39 1961   5.298   3.778   2.021 -0.4478  0.1681  0.8455
    5CHTO   H81 1962   5.306   3.874   1.968  1.7359  0.3367  1.4189
    5CHTO    N7 1963   5.200   3.685   1.960 -0.2088 -0.1370 -0.9190
    5CHTO   H73 1964   5.220   3.580   1.976 -3.1414 -0.4152  1.5148
    5CHTO   H74 1965   5.101   3.702   2.000  0.0972 -1.1315  0.3014
    5CHTO   C40 1966   5.252   3.814   2.166 -0.1514 -1.3514 -0.3598
    5CHTO   H82 1967   5.254   3.723   2.225 -1.9304 -0.9643  0.3506
    5CHTO   O26 1968   5.341   3.916   2.215 -0.1517 -0.3178 -0.2244
    5CHTO   C41 1969   5.472   3.865   2.258 -0.4345  0.3410 -1.0035
    5CHTO   H83 1970   5.460   3.775   2.320 -2.1485  0.4533 -1.1364
    5CHTO   C52 1971   5.547   3.965   2.351  0.2913 -0.8608  0.2108
    5CHTO   O35 1972   5.492   3.956   2.479  0.3200  0.5171 -0.3737
    5CHTO   H71 1973   5.536   4.006   2.545  1.3682 -2.3118  1.1881
    5CHTO   O28 1974   5.121   3.872   2.180  0.8313  0.0005 -0.1108
    5CHTO   C42 1975   5.041   3.855   2.305  0.4520 -0.1445  0.5074
    5CHTO   H84 1976   4.948   3.908   2.287  0.1919 -1.1053 -1.1094
    5CHTO   C44 1977   5.115   3.932   2.420 -0.2419 -0.0038 -0.4351
    5CHTO   H86 1978   5.218   3.898   2.416 -0.7799 -1.9949  1.3796
    5CHTO   O32 1979   5.118   4.074   2.397  0.0870 -0.1434 -0.7360
    5CHTO   H69 1980   5.053   4.120   2.447  0.5808  0.3418 -0.5493
    5CHTO   C48 1981   5.061   3.888   2.561 -0.4839  0.1972  0.2951
    5CHTO   H90 1982   4.965   3.932   2.586  0.7758  2.4965  1.2723
    5CHTO    N9 1983   5.154   3.943   2.665 -0.0274  0.0877  0.8599
    5CHTO   H77 1984   5.154   4.050   2.649 -3.1152  0.2391  1.4799
    5CHTO   H78 1985   5.255   3.905   2.656 -0.0495  0.2754 -0.1840
    5CHTO   C51 1986   5.049   3.736   2.578  0.2734 -0.3891  0.2382
    5CHTO   H93 1987   5.147   3.691   2.562  0.0653 -1.3266  1.4729
    5CHTO   O30 1988   4.954   3.691   2.478 -0.5682 -0.2314 -0.0899
    5CHTO   C46 1989   5.004   3.708   2.336  0.1674  0.3211 -0.1487
    5CHTO   H88 1990   5.098   3.654   2.328  0.0994  0.0296  0.9465
    5CHTO   C53 1991   4.902   3.665   2.234 -0.0345 -0.1221 -0.2376
    5CHTO   O72 1992   4.766   3.670   2.282  0.3754  0.5853  0.5650
    5CHTO  H199 1993   4.720   3.709   2.211  0.2207 -1.3438 -0.4159
    5CHTO   O22 1994   4.988   3.689   2.702  0.0413  0.5877 -0.3215
    5CHTO   C31 1995   5.027   3.567   2.769 -0.7557  0.0233 -0.4455
    5CHTO   H59 1996   4.944   3.535   2.835  0.9602 -2.7116  0.4672
    5CHTO   C29 1997   5.047   3.448   2.675 -0.2886  0.6705  0.6529
    5CHTO   H57 1998   5.103   3.487   2.589  0.8273 -0.2079  0.9720
    5CHTO   O21 1999   4.915   3.410   2.619 -0.2515 -0.3020 -0.3703
    5CHTO   H37 2000   4.869   3.351   2.676 -1.1177  0.4831 -0.2414
    5CHTO   C27 2001   5.140   3.336   2.743  0.0825 -0.5485 -0.8625
    5CHTO   H55 2002   5.084   3.291   2.826  0.8434  2.2294  1.2222
    5CHTO    N5 2003   5.170   3.231   2.647  0.7490 -0.8682 -0.2867
    5CHTO   H43 2004   5.105   3.145   2.654  2.1222 -1.9002 -0.0114
    5CHTO   H44 2005   5.169   3.269   2.546 -1.4904 -1.7264 -0.6087
    5CHTO   C25 2006   5.264   3.391   2.818  0.2138 -0.4532 -0.4640
    5CHTO   H53 2007   5.325   3.451   2.749 -0.4761  1.0288  0.2066
    5CHTO   O17 2008   5.208   3.478   2.919  1.2229  0.3489 -0.0313
    5CHTO   C32 2009   5.141   3.598   2.865 -0.0645  0.8234  0.9103
    5CHTO   H60 2010   5.217   3.652   2.809  1.0147 -1.3360  0.2343
    5CHTO   C36 2011   5.103   3.688   2.983  0.6882 -0.2246 -0.1457
    5CHTO   O25 2012   5.203   3.762   3.059 -0.8196  0.1360 -0.0258
    5CHTO   H40 2013   5.253   3.699   3.107 -2.2584 -0.9162  0.1466
    5CHTO   O15 2014   5.348   3.275   2.890 -0.2435  0.2008  0.2360
    5CHTO   C19 2015   5.481   3.217   2.906  0.0692 -0.4209 -0.5741
    5CHTO   H47 2016   5.526   3.288   2.977  0.8705 -1.7123  0.2478
    5CHTO   C20 2017   5.475   3.073   2.952 -0.4619 -0.4552  0.1095
    5CHTO   H48 2018   5.416   3.010   2.883 -0.1570  2.1330 -2.6244
    5CHTO   O19 2019   5.412   3.067   3.082 -0.1136 -0.5846  0.1803
    5CHTO   H35 2020   5.450   3.129   3.143 -1.1303 -0.9827  1.2303
    5CHTO   C21 2021   5.610   2.999   2.973  0.2073  0.0800  1.1982
    5CHTO   H49 2022   5.660   3.035   3.063  0.4079  2.2840  0.2405
    5CHTO    N4 2023   5.597   2.851   2.995 -0.2064  0.4793 -0.2259
    5CHTO   H41 2024   5.519   2.830   3.067  0.0508  1.3972  0.3369
    5CHTO   H42 2025   5.595   2.782   2.912 -0.6554 -1.2988  1.2415
    5CHTO   C22 2026   5.709   3.029   2.857  0.3522  0.0245 -0.2828
    5CHTO   H50 2027   5.697   2.958   2.775 -0.0983  0.9487 -1.0329
    5CHTO   O14 2028   5.702   3.164   2.806 -0.2665 -0.2948  0.8387
    5CHTO   C23 2029   5.569   3.219   2.781  0.2183  0.4906 -0.0304
    5CHTO   H51 2030   5.529   3.154   2.702 -0.2035  0.4036  0.2522
    5CHTO   C34 2031   5.572   3.356   2.721  0.2165 -0.0260  0.2777
    5CHTO   O23 2032   5.623   3.333   2.588 -0.0632  0.1900  0.1671
    5CHTO   H38 2033   5.545   3.334   2.535 -2.0176 -2.0126  2.8211
    5CHTO   O16 2034   5.842   3.029   2.904  0.6948  0.4504  0.1877
    5CHTO   C24 2035   5.955   2.977   2.807  0.2065 -0.1185  0.2104
    5CHTO   H52 2036   5.918   2.962   2.705  0.7244  2.1443 -0.3414
    5CHTO   C26 2037   6.003   2.835   2.855  0.2711  0.0283  0.5159
    5CHTO   H54 2038   6.008   2.838   2.965  0.5019  3.0861  0.4517
    5CHTO   O20 2039   5.896   2.743   2.814  0.4740  0.5394 -0.2994
    5CHTO   H36 2040   5.831   2.726   2.879  0.6900 -0.1617 -0.2589
    5CHTO   C30 2041   6.133   2.788   2.784 -1.5691  0.1467 -0.6389
    5CHTO   H58 2042   6.126   2.762   2.677  1.9681 -0.8735 -0.6819
    5CHTO    N6 2043   6.187   2.667   2.845  0.3030 -0.3207  0.5249
    5CHTO   H45 2044   6.115   2.587   2.835 -0.8537  0.6057  1.3913
    5CHTO   H46 2045   6.282   2.637   2.803 -0.6395 -1.3215 -0.9177
    5CHTO   C33 2046   6.237   2.909   2.784  0.3356  0.2928 -0.0633
    5CHTO   H61 2047   6.256   2.934   2.889  0.8839 -0.0784 -0.0772
    5CHTO   O18 2048   6.181   3.026   2.720 -0.1307 -0.5504 -0.0629
    5CHTO   C28 2049   6.064   3.081   2.791 -1.1027  0.4181  0.0396
    5CHTO   H56 2050   6.090   3.125   2.887 -0.7094  1.8264 -0.7076
    5CHTO   C35 2051   6.006   3.195   2.712 -0.0492 -0.0438  0.8352
    5CHTO   O24 2052   6.081   3.316   2.749  0.2768  0.0974  0.0495
    5CHTO   H39 2053   6.055   3.394   2.703 -0.4131 -0.7502 -1.0314
    5CHTO    O9 2054   6.363   2.875   2.721 -0.6694 -0.6001 -0.2599
    5CHTO   C13 2055   6.372   2.860   2.546  1.0327  0.1160  0.4886
    5CHTO   H26 2056   6.271   2.890   2.509  0.6971 -0.8811  0.5869
    5CHTO   C11 2057   6.403   2.714   2.512 -0.0175  0.7985  0.4923
    5CHTO   H24 2058   6.311   2.654   2.523  1.0943 -1.5195 -2.2049
    5CHTO    O8 2059   6.494   2.660   2.608 -0.2802 -0.0277 -0.0744
    5CHTO    H3 2060   6.453   2.673   2.692  2.0614  1.9449  0.8135
    5CHTO    C9 2061   6.447   2.693   2.367  0.6153  0.6182  0.1930
    5CHTO   H22 2062   6.359   2.723   2.308 -0.2329 -1.3794  0.4227
    5CHTO    N2 2063   6.475   2.550   2.333 -0.2585 -0.1940 -0.7606
    5CHTO   H10 2064   6.458   2.495   2.425 -0.9704  0.0951 -0.7123
    5CHTO   H11 2065   6.403   2.521   2.258  1.4228  0.8737 -2.8167
    5CHTO    C7 2066   6.564   2.778   2.325 -0.4363  0.9632 -0.0399
    5CHTO   H20 2067   6.566   2.774   2.214  1.2614  4.1088 -0.1822
    5CHTO    O4 2068   6.538   2.915   2.360 -0.0926 -0.3332 -0.0317
    5CHTO   C14 2069   6.481   2.954   2.486 -0.0206 -0.3767  0.6997
    5CHTO   H27 2070   6.424   3.045   2.457  0.7539 -0.4655 -1.1654
    5CHTO   C18 2071   6.583   3.009   2.595  0.3707  0.1681  0.9935
    5CHTO   O13 2072   6.676   3.097   2.540  0.4020  0.3308 -0.1034
    5CHTO    H7 2073   6.678   3.182   2.580  0.1620  0.3667 -0.1682
    5CHTO    O2 2074   6.724   2.727   2.392 -0.2484  0.0132 -0.2053
    5CHTO    C1 2075   6.829   2.764   2.304  0.3943 -0.0870  0.6041
    5CHTO   H14 2076   6.807   2.861   2.254 -0.7861 -0.2379  0.8231
    5CHTO    C2 2077   6.864   2.664   2.191 -0.3715 -0.4265 -0.0701
    5CHTO   H15 2078   6.887   2.569   2.242  3.4013 -0.2820 -1.3229
    5CHTO    O6 2079   6.751   2.646   2.105 -0.0218  0.4688  0.2892
    5CHTO    H1 2080   6.717   2.729   2.078  1.0113  1.4110  1.8486
    5CHTO    C3 2081   6.999   2.713   2.111 -0.2839  0.3661 -0.5913
    5CHTO   H16 2082   6.969   2.792   2.041  0.8705  2.4263  1.1674
    5CHTO    N1 2083   7.049   2.605   2.018  0.6573 -0.4358  0.0206
    5CHTO    H8 2084   7.067   2.644   1.919  2.7609 -0.0605  0.5127
    5CHTO    H9 2085   7.140   2.557   2.052  1.4178  0.6297 -0.4770
    5CHTO    C4 2086   7.114   2.779   2.199  0.4751 -0.8212  0.2601
    5CHTO   H17 2087   7.173   2.699   2.244 -1.3940 -1.8874  0.8647
    5CHTO    O1 2088   7.051   2.865   2.296 -0.2607 -0.3616  0.2938
    5CHTO    C5 2089   6.964   2.792   2.384 -0.2462  0.5542 -0.2843
    5CHTO   H18 2090   7.020   2.702   2.407 -0.7043 -0.1271 -1.7698
    5CHTO   C16 2091   6.950   2.888   2.506  0.0812 -0.0022 -0.3602
    5CHTO   O11 2092   6.872   2.848   2.619 -0.0043  0.0440  0.0188
    5CHTO    H5 2093   6.782   2.863   2.598  0.4902  0.3299 -2.1134
    5CHTO    O3 2094   7.194   2.873   2.119  0.0035  0.1535 -0.1318
    5CHTO    C6 2095   7.335   2.892   2.160  0.1904 -0.3859 -0.0264
    5CHTO   H19 2096   7.367   2.849   2.255  1.4432  1.9267  0.6537
    5CHTO    C8 2097   7.423   2.806   2.055 -0.1668  0.6145 -0.0738
    5CHTO   H21 2098   7.385   2.825   1.954  0.5200  2.0009 -0.0817
    5CHTO    O7 2099   7.406   2.665   2.088 -0.5285 -0.3021 -0.1270
    5CHTO    H2 2100   7.447   2.633   2.165 -1.2701 -0.3248  0.2624
    5CHTO   C12 2101   7.572   2.852   2.065 -0.0490  0.6849  0.9606
    5CHTO   H25 2102   7.612   2.809   2.159 -0.0233 -0.8682  0.2449
    5CHTO    N3 2103   7.637   2.785   1.944  0.2662  0.1831 -0.1270
    5CHTO   H12 2104   7.718   2.837   1.895  0.4841  0.2394  0.2874
    5CHTO   H13 2105   7.570   2.754   1.866  1.1050  0.6072 -1.0171
    5CHTO   C15 2106   7.585   3.006   2.074 -0.5649  0.7905  0.6561
    5CHTO   H28 2107   7.549   3.058   1.985  0.4593 -0.3049 -0.4082
    5CHTO   O10 2108   7.715   3.034   2.107  0.3902 -0.0365  0.3037
    5CHTO    H4 2109   7.727   3.127   2.100 -1.8343  0.1549 -1.3337
    5CHTO    O5 2110   7.516   3.055   2.193  0.0270 -0.3758 -0.0347
    5CHTO   C10 2111   7.373   3.043   2.169 -0.3151 -0.8303  0.9158
    5CHTO   H23 2112   7.337   3.095   2.080 -0.3124 -2.4069 -0.0323
    5CHTO   C17 2113   7.291   3.085   2.292 -0.6373 -0.5010  0.0398
    5CHTO   O12 2114   7.330   3.185   2.384 -0.1796  0.4286  0.3140
    5CHTO    H6 2115   7.418   3.216   2.375 -0.4332  0.8282 -0.8349
    6CHTO  H203 2116   5.368   4.752  -0.220  2.2469 -0.2012 -0.6839
    6CHTO   O82 2117   5.388   4.771  -0.130  0.1728 -0.2548 -0.1772
    6CHTO  C123 2118   5.478   4.882  -0.105  0.7375  0.3974 -0.0523
    6CHTO  H227 2119   5.542   4.904  -0.192  1.4838 -1.2303  0.0788
    6CHTO   O77 2120   5.378   4.991  -0.090 -0.1795  0.0948 -0.8171
    6CHTO  C118 2121   5.438   5.117  -0.052  0.2310 -0.2494  0.1475
    6CHTO  H222 2122   5.511   5.154  -0.126 -0.4211 -0.2790 -0.5170
    6CHTO  C125 2123   5.322   5.222  -0.051 -0.1537 -0.5943 -1.0838
    6CHTO   O84 2124   5.186   5.166  -0.024  0.7836  0.2001  0.4108
    6CHTO  H205 2125   5.135   5.229   0.021  0.8882 -0.6250  1.6961
    6CHTO  C114 2126   5.507   5.106   0.084 -0.0969  0.1298  0.0290
    6CHTO  H218 2127   5.437   5.075   0.162  1.5458  1.2687  2.0096
    6CHTO  C116 2128   5.618   5.000   0.084 -0.3051 -0.0579 -0.3445
    6CHTO  H220 2129   5.704   5.033   0.022 -0.8820 -0.5088 -1.3986
    6CHTO   O79 2130   5.660   4.976   0.222 -0.1686  0.5726  0.1213
    6CHTO  H201 2131   5.720   4.905   0.231 -0.5780  0.3291  0.9914
    6CHTO  C120 2132   5.558   4.860   0.033 -0.1201 -0.2169 -0.0786
    6CHTO  H224 2133   5.494   4.827   0.117  1.2502  1.1769  1.5319
    6CHTO   N21 2134   5.654   4.755   0.002  0.5652  0.1973  0.1840
    6CHTO  H211 2135   5.756   4.789  -0.007  0.0441  1.7359 -0.1460
    6CHTO  H212 2136   5.647   4.670   0.067 -0.6607  1.1339  1.3141
    6CHTO   O75 2137   5.551   5.240   0.120 -0.3823 -0.3001  0.2437
    6CHTO  C112 2138   5.540   5.274   0.300  0.2341  0.3543  0.2478
    6CHTO  H216 2139   5.629   5.229   0.347  1.1034  1.2086 -0.5216
    6CHTO   O73 2140   5.419   5.207   0.340  0.8438  0.0650 -0.4059
    6CHTO  C113 2141   5.387   5.215   0.478 -0.0263  0.0322 -0.3436
    6CHTO  H217 2142   5.472   5.195   0.547  0.0027  2.2645  0.3118
    6CHTO  C124 2143   5.278   5.118   0.514 -0.4199  1.1405  1.0761
    6CHTO   O83 2144   5.167   5.146   0.428  0.1313 -0.7416 -0.7250
    6CHTO  H204 2145   5.118   5.069   0.402  0.3674 -0.6636 -1.4164
    6CHTO  C109 2146   5.352   5.360   0.508 -0.3883 -1.0491  0.5188
    6CHTO  H213 2147   5.274   5.393   0.437  0.7455  1.0004  0.1696
    6CHTO  C110 2148   5.464   5.460   0.470  0.7337 -0.1191  0.4457
    6CHTO  H214 2149   5.552   5.446   0.533  0.0938 -0.4129  1.2768
    6CHTO   O78 2150   5.429   5.602   0.479 -0.5196 -0.1855  0.0057
    6CHTO  H200 2151   5.468   5.636   0.557  1.7613  2.0506 -2.0329
    6CHTO  C111 2152   5.516   5.428   0.327  0.1295  0.8775 -0.3832
    6CHTO  H215 2153   5.436   5.463   0.259 -0.5000 -0.6877 -0.4720
    6CHTO   N19 2154   5.639   5.500   0.286  0.2454 -0.2471 -0.2826
    6CHTO  H207 2155   5.605   5.603   0.279 -1.6136 -0.8587 -0.4946
    6CHTO  H208 2156   5.712   5.506   0.364 -0.2040 -1.3779  0.2401
    6CHTO   O74 2157   5.302   5.375   0.648 -0.5890  0.0647 -0.4571
    6CHTO  C115 2158   5.187   5.506   0.659  0.0795 -0.2604 -0.4415
    6CHTO  H219 2159   5.204   5.579   0.580  1.5926 -1.7330 -1.5003
    6CHTO   O76 2160   5.045   5.455   0.651  0.1159  0.0154  0.1179
    6CHTO  C122 2161   5.020   5.342   0.742  0.2835 -0.1365 -0.1149
    6CHTO  H226 2162   5.058   5.258   0.685  3.2610  0.5095  0.8579
    6CHTO  C126 2163   4.867   5.314   0.747  0.1574  0.0985  0.0278
    6CHTO   O85 2164   4.805   5.428   0.813 -0.3478 -0.0397 -0.1070
    6CHTO  H206 2165   4.822   5.504   0.761  0.3157 -0.3287 -0.3185
    6CHTO  C121 2166   5.073   5.366   0.887  0.6897 -0.1631  0.0498
    6CHTO  H225 2167   5.008   5.335   0.971  2.5598 -0.6325  1.3795
    6CHTO   O81 2168   5.191   5.284   0.904 -0.8411 -0.2756 -0.0624
    6CHTO  H202 2169   5.164   5.194   0.898 -0.4716 -0.5154  1.6007
    6CHTO  C119 2170   5.112   5.515   0.907  0.5545 -0.0019 -0.2926
    6CHTO  H223 2171   5.020   5.570   0.887 -0.4435 -1.3531  0.5452
    6CHTO  C117 2172   5.215   5.570   0.801 -0.2622 -0.7162  0.1947
    6CHTO  H221 2173   5.319   5.542   0.816 -0.7929 -2.5901  0.5248
    6CHTO   N20 2174   5.213   5.723   0.806  0.2484  0.1655  0.0177
    6CHTO  H209 2175   5.198   5.759   0.705  2.7501  1.0908 -0.0660
    6CHTO  H210 2176   5.315   5.756   0.820  0.1942  1.8958 -3.1248
    6CHTO   O80 2177   5.140   5.554   1.057 -0.1120 -0.0241  0.4119
    6CHTO  C103 2178   5.009   5.572   1.169 -0.6699 -0.1406 -0.3112
    6CHTO  H190 2179   5.041   5.658   1.227  1.5913  0.1299 -1.8989
    6CHTO  C101 2180   4.859   5.595   1.122  0.1983 -0.2660 -0.3009
    6CHTO  H188 2181   4.838   5.521   1.045 -2.1365  0.9243 -0.8732
    6CHTO   O68 2182   4.850   5.726   1.073 -0.4010  0.2212 -0.5338
    6CHTO  H168 2183   4.828   5.720   0.982  0.9927  1.9326 -1.0002
    6CHTO   C99 2184   4.745   5.571   1.244 -0.2910 -0.2525 -0.1599
    6CHTO  H186 2185   4.756   5.646   1.325 -0.0697 -1.3279  0.8060
    6CHTO   N17 2186   4.608   5.583   1.190 -0.1863 -0.2098  0.1109
    6CHTO  H174 2187   4.596   5.690   1.178 -1.2927 -0.4708 -1.1476
    6CHTO  H175 2188   4.600   5.533   1.094 -0.5698  1.7779 -0.9254
    6CHTO   C97 2189   4.776   5.431   1.307 -0.9335  0.2868 -0.2714
    6CHTO  H184 2190   4.767   5.358   1.225 -0.9616 -1.8353  1.5832
    6CHTO   O64 2191   4.909   5.436   1.358  0.0158  0.3543 -0.7394
    6CHTO  C104 2192   5.015   5.441   1.263  0.3232 -0.3133 -0.2892
    6CHTO  H191 2193   5.026   5.356   1.196  0.9352  1.3522 -2.3674
    6CHTO  C108 2194   5.146   5.442   1.337 -0.0420  0.0510  0.1253
    6CHTO   O71 2195   5.150   5.319   1.412 -0.1905  0.7322  0.6997
    6CHTO  H171 2196   5.238   5.314   1.446 -0.6975 -3.4349  1.7596
    6CHTO   O62 2197   4.700   5.390   1.425 -0.0460  0.3945  0.4264
    6CHTO   C91 2198   4.655   5.257   1.443 -0.2939  0.2845 -0.1235
    6CHTO  H178 2199   4.633   5.227   1.545  0.0436  0.6219  0.0494
    6CHTO   C92 2200   4.766   5.139   1.418  0.1905  0.6535  0.3100
    6CHTO  H179 2201   4.791   5.140   1.311 -2.4728 -0.5086 -0.3599
    6CHTO   O66 2202   4.882   5.157   1.495  0.1278 -0.1581  0.5959
    6CHTO  H166 2203   4.928   5.234   1.468  0.1994 -0.8565 -1.3793
    6CHTO   C93 2204   4.707   4.999   1.436  0.0493  0.3216  0.3999
    6CHTO  H180 2205   4.697   4.972   1.542 -0.0665 -0.1645  0.2639
    6CHTO   N16 2206   4.808   4.903   1.384 -0.7976 -0.2292  0.1270
    6CHTO  H172 2207   4.823   4.936   1.282 -1.1727  0.9706  0.4465
    6CHTO  H173 2208   4.906   4.905   1.428 -0.4272 -1.7661 -0.6066
    6CHTO   C94 2209   4.569   4.983   1.355  0.0414 -0.3722  0.3232
    6CHTO  H181 2210   4.586   4.992   1.247  1.0170 -1.8207  0.3438
    6CHTO   O61 2211   4.477   5.088   1.383  0.0415 -0.2149 -0.2687
    6CHTO   C95 2212   4.527   5.219   1.363 -0.2002  0.5115  0.2358
    6CHTO  H182 2213   4.565   5.225   1.261 -1.6888  2.7501 -0.2117
    6CHTO  C106 2214   4.400   5.316   1.374  0.0178  0.2278  0.6004
    6CHTO   O69 2215   4.327   5.297   1.251 -0.3566  0.0275 -0.1652
    6CHTO  H169 2216   4.278   5.376   1.235  0.2515  0.8919  1.9968
    6CHTO   O63 2217   4.483   4.845   1.388 -0.3748  0.1465  0.0133
    6CHTO   C96 2218   4.405   4.792   1.264 -0.0271 -0.2253  0.2740
    6CHTO  H183 2219   4.471   4.803   1.179 -0.8630 -1.0177 -0.4915
    6CHTO   C98 2220   4.260   4.851   1.239  0.1107  0.6582  0.5749
    6CHTO  H185 2221   4.193   4.819   1.320  0.1056 -2.5398 -0.6546
    6CHTO   O67 2222   4.262   4.998   1.250 -0.5218  0.5383  0.1710
    6CHTO  H167 2223   4.177   5.035   1.263 -0.0009  1.6188  0.5290
    6CHTO  C102 2224   4.207   4.796   1.090  0.0775 -0.3231 -0.8608
    6CHTO  H189 2225   4.263   4.855   1.015  0.7261 -2.4376 -2.0648
    6CHTO   N18 2226   4.063   4.823   1.069 -0.0398  0.4673  0.0326
    6CHTO  H176 2227   4.048   4.811   0.963 -0.0009 -0.7361  0.1579
    6CHTO  H177 2228   4.050   4.924   1.105 -0.3895  0.3614  0.2136
    6CHTO  C105 2229   4.255   4.651   1.067 -0.6803 -0.7287  0.0907
    6CHTO  H192 2230   4.173   4.589   1.031 -1.8548  0.0603  1.3464
    6CHTO   O65 2231   4.284   4.583   1.193 -0.7772  0.5699  0.3347
    6CHTO  C100 2232   4.392   4.634   1.272  0.1946 -0.3103 -0.1003
    6CHTO  H187 2233   4.364   4.606   1.375  3.1379  2.1881  1.4421
    6CHTO  C107 2234   4.529   4.556   1.244  0.2081 -0.0902  0.0450
    6CHTO   O70 2235   4.631   4.591   1.333  0.1232  0.7545 -0.1835
    6CHTO  H170 2236   4.613   4.579   1.425 -3.2472 -0.1679 -0.8761
    6CHTO   O57 2237   4.367   4.652   0.976 -0.5759  0.0825  0.1062
    6CHTO   C85 2238   4.374   4.578   0.849  0.9544 -0.7761 -0.2199
    6CHTO  H157 2239   4.298   4.500   0.870  1.1067 -1.1836 -1.1501
    6CHTO   C83 2240   4.512   4.499   0.833  1.3845 -0.1726  0.2544
    6CHTO  H155 2241   4.506   4.420   0.908  0.2855  1.5393  2.0148
    6CHTO   O56 2242   4.621   4.586   0.880  0.5521  0.3043 -0.4298
    6CHTO  H135 2243   4.651   4.648   0.816 -0.8013  0.7767 -0.6440
    6CHTO   C81 2244   4.519   4.447   0.685  0.0399 -0.3979 -0.5195
    6CHTO  H153 2245   4.434   4.381   0.669 -2.2081  2.5474 -1.1688
    6CHTO   N14 2246   4.639   4.364   0.653 -0.0373 -0.3471  0.3811
    6CHTO  H141 2247   4.613   4.271   0.607 -3.5220  1.4775 -1.5829
    6CHTO  H142 2248   4.707   4.351   0.734 -1.7328  2.2260  2.2574
    6CHTO   C79 2249   4.506   4.567   0.586 -0.5275  0.3191 -0.5745
    6CHTO  H151 2250   4.528   4.533   0.484 -1.4394 -0.1172 -0.6302
    6CHTO   O52 2251   4.372   4.622   0.592  0.0066  0.7477  0.7375
    6CHTO   C86 2252   4.339   4.671   0.728  0.1271 -0.3684  0.7571
    6CHTO  H158 2253   4.388   4.769   0.738  2.6702 -1.5766  0.4244
    6CHTO   C90 2254   4.190   4.694   0.727 -0.4262  0.6402  0.0676
    6CHTO   O60 2255   4.106   4.575   0.725  0.1870  0.0013 -0.3070
    6CHTO  H138 2256   4.081   4.543   0.809 -2.0333  0.2687 -0.8205
    6CHTO   O50 2257   4.601   4.667   0.630  0.2539  0.0556 -0.4807
    6CHTO   C73 2258   4.656   4.784   0.556  0.2160 -0.1922 -0.5120
    6CHTO  H145 2259   4.578   4.824   0.489  0.8092  2.3017  0.2357
    6CHTO   C74 2260   4.772   4.732   0.468 -0.5698 -0.2347  0.4307
    6CHTO  H146 2261   4.728   4.666   0.391 -0.1331 -0.9115  0.7587
    6CHTO   O54 2262   4.835   4.837   0.398 -0.2137 -0.2313 -0.3939
    6CHTO  H133 2263   4.775   4.879   0.340 -0.8622 -1.8121 -0.8861
    6CHTO   C75 2264   4.873   4.656   0.566 -1.0176 -0.8882 -0.1232
    6CHTO  H147 2265   4.819   4.582   0.627 -0.5066  0.2185  1.7212
    6CHTO   N13 2266   4.979   4.576   0.499  0.3763 -0.1394  0.5028
    6CHTO  H139 2267   4.955   4.571   0.394 -3.7677  0.4927  1.3207
    6CHTO  H140 2268   5.081   4.587   0.532  0.8621 -0.9985 -0.6830
    6CHTO   C76 2269   4.933   4.764   0.665  0.2900 -0.5012  0.0520
    6CHTO  H148 2270   5.012   4.813   0.608  0.9018  0.4614  1.6571
    6CHTO   O49 2271   4.831   4.854   0.724 -0.1179 -0.0877  0.1875
    6CHTO   C77 2272   4.722   4.893   0.645 -0.5415  0.5767 -0.1220
    6CHTO  H149 2273   4.766   4.973   0.585  0.1077 -0.1970 -0.6915
    6CHTO   C88 2274   4.631   4.958   0.750 -0.3179  0.2561 -0.7086
    6CHTO   O58 2275   4.496   5.012   0.697 -0.0381 -0.2617 -0.5419
    6CHTO  H136 2276   4.516   5.088   0.645  0.5829 -1.0733 -1.5197
    6CHTO   O51 2277   4.996   4.688   0.797 -0.2156 -0.2106  0.3258
    6CHTO   C78 2278   5.102   4.753   0.900 -0.6977  0.2874 -0.9534
    6CHTO  H150 2279   5.139   4.673   0.967 -0.9569 -0.2830 -1.4826
    6CHTO   C80 2280   5.038   4.864   0.982 -0.0763 -0.1721  0.4818
    6CHTO  H152 2281   4.994   4.933   0.908  0.2657  1.1860  1.5329
    6CHTO   O55 2282   4.930   4.810   1.065 -0.1570 -0.7141  0.6916
    6CHTO  H134 2283   4.854   4.785   1.016  0.7404  1.0373 -1.6948
    6CHTO   C84 2284   5.140   4.939   1.078  1.0936 -0.3636  0.5109
    6CHTO  H156 2285   5.169   4.881   1.166  0.7904  0.9036  1.4636
    6CHTO   N15 2286   5.075   5.062   1.146 -0.4235 -0.4004 -0.3286
    6CHTO  H143 2287   4.971   5.070   1.121 -0.4897  1.7288  0.5822
    6CHTO  H144 2288   5.093   5.071   1.251  1.0277  1.7345 -0.7345
    6CHTO   C87 2289   5.262   4.983   0.990 -0.1514  0.1392 -0.1783
    6CHTO  H159 2290   5.226   5.055   0.917  1.4752 -1.2423 -2.4097
    6CHTO   O53 2291   5.325   4.856   0.914 -0.6783  0.5698  0.4000
    6CHTO   C82 2292   5.228   4.801   0.830 -0.0277  0.2891  0.2096
    6CHTO  H154 2293   5.192   4.878   0.763  0.1897  0.1477 -0.0685
    6CHTO   C89 2294   5.289   4.684   0.746  0.3853  0.1314  0.3155
    6CHTO   O59 2295   5.384   4.732   0.650 -0.0633 -0.4259  0.0251
    6CHTO  H137 2296   5.429   4.659   0.611 -0.8581 -0.6332 -0.5092
    6CHTO   O45 2297   5.374   5.030   1.073  0.4394  0.5334 -0.0501
    6CHTO   C67 2298   5.459   5.136   1.030 -0.8654  0.5147  1.0798
    6CHTO  H124 2299   5.413   5.185   0.944 -2.8582  2.6404  3.2836
    6CHTO   C65 2300   5.463   5.243   1.145 -0.2242  0.4606 -0.0106
    6CHTO  H122 2301   5.360   5.260   1.176 -0.2606 -0.2419  0.2707
    6CHTO   O44 2302   5.507   5.364   1.083 -0.1408  0.0676 -0.1260
    6CHTO  H102 2303   5.511   5.438   1.141  2.5145 -0.1960  0.0950
    6CHTO   C63 2304   5.552   5.189   1.265 -0.2849  0.0282 -0.4770
    6CHTO  H120 2305   5.507   5.098   1.304  1.9759 -0.9443 -0.0493
    6CHTO   N11 2306   5.547   5.281   1.384 -0.0608 -0.1418  0.0020
    6CHTO  H108 2307   5.575   5.235   1.476  3.6344  0.9842 -0.4587
    6CHTO  H109 2308   5.604   5.371   1.373  0.0712 -0.0438  1.3245
    6CHTO   C61 2309   5.697   5.161   1.209 -0.4238  0.1754 -0.0056
    6CHTO  H118 2310   5.747   5.109   1.292  0.0898  1.4129  0.4592
    6CHTO   O40 2311   5.686   5.066   1.099 -0.1788 -0.2029  0.0882
    6CHTO   C68 2312   5.603   5.091   0.985 -0.1029  0.0053 -0.2050
    6CHTO  H125 2313   5.593   4.993   0.934  0.2582  0.8951 -2.0178
    6CHTO   C72 2314   5.683   5.182   0.889 -0.1542  0.5051  0.8496
    6CHTO   O48 2315   5.612   5.216   0.768 -0.5158  0.0410  0.0803
    6CHTO  H105 2316   5.530   5.171   0.768 -1.2943  1.3984  1.0208
    6CHTO   O38 2317   5.772   5.274   1.162 -0.2253 -0.3032 -0.4086
    6CHTO   C55 2318   5.854   5.364   1.244 -0.0279 -1.0374  0.1992
    6CHTO  H112 2319   5.836   5.340   1.350  1.2528 -1.5006  0.3096
    6CHTO   C56 2320   5.820   5.516   1.208  0.0374 -0.4654 -0.3242
    6CHTO  H113 2321   5.837   5.528   1.100  0.9527  2.3713  0.0861
    6CHTO   O42 2322   5.686   5.534   1.246 -0.1230 -0.6090 -0.3234
    6CHTO  H100 2323   5.669   5.625   1.235  2.7182 -0.1141 -1.1070
    6CHTO   C57 2324   5.929   5.608   1.274  0.0686  0.0022  0.4259
    6CHTO  H114 2325   5.917   5.602   1.382 -0.8129  3.2163  0.5782
    6CHTO   N10 2326   5.910   5.750   1.232  0.0615 -0.6144  0.0276
    6CHTO  H106 2327   5.947   5.818   1.308 -3.5797  1.6811 -0.1555
    6CHTO  H107 2328   5.969   5.763   1.143  0.5044  0.2150  0.4239
    6CHTO   C58 2329   6.071   5.564   1.229 -0.9913  0.6998 -0.0580
    6CHTO  H115 2330   6.079   5.559   1.118  1.2524 -0.0090  0.1068
    6CHTO   O37 2331   6.079   5.432   1.283  0.6627 -0.1068 -0.1535
    6CHTO   C59 2332   6.003   5.332   1.216 -0.1881 -0.2623  0.1522
    6CHTO  H116 2333   6.020   5.345   1.109 -0.5245  0.9452  0.2423
    6CHTO   C70 2334   6.044   5.191   1.252 -0.1723  0.0930 -0.4731
    6CHTO   O46 2335   5.994   5.091   1.172 -0.1032 -0.7215  0.1066
    6CHTO  H103 2336   5.921   5.046   1.210 -1.7825 -0.3635 -2.5736
    6CHTO   O39 2337   6.193   5.630   1.308 -0.1572 -0.1634  0.0294
    6CHTO   C60 2338   6.326   5.602   1.260  0.2912 -0.2356  0.0616
    6CHTO  H117 2339   6.324   5.503   1.215  1.3236 -0.5572  0.7217
    6CHTO   C62 2340   6.378   5.701   1.150  0.3704 -0.1859  0.0719
    6CHTO  H119 2341   6.320   5.685   1.057 -1.8142 -0.0611  1.3691
    6CHTO   O43 2342   6.351   5.846   1.183  0.6375 -0.6856  0.0127
    6CHTO  H101 2343   6.433   5.887   1.202  0.4193  0.6308 -1.6952
    6CHTO   C66 2344   6.534   5.669   1.119  0.3060 -0.2595 -0.4015
    6CHTO  H123 2345   6.539   5.564   1.092  2.0426 -0.3720  0.2754
    6CHTO   N12 2346   6.584   5.750   1.006 -0.8828 -0.2950 -1.0258
    6CHTO  H110 2347   6.518   5.822   0.961  0.7045  0.5979 -1.9606
    6CHTO  H111 2348   6.643   5.693   0.935 -0.6950 -0.9990 -0.3212
    6CHTO   C69 2349   6.619   5.687   1.248 -0.0842  0.1179  0.2314
    6CHTO  H126 2350   6.606   5.791   1.285  0.0486  0.6772 -1.2410
    6CHTO   O41 2351   6.569   5.591   1.347  0.1329 -0.3257 -0.4478
    6CHTO   C64 2352   6.420   5.597   1.385  0.5819  0.4958  0.0480
    6CHTO  H121 2353   6.398   5.687   1.446 -0.9856  0.1283  0.0486
    6CHTO   C71 2354   6.387   5.480   1.472 -0.0193  0.4685  0.4889
    6CHTO   O47 2355   6.392   5.352   1.410  0.3718 -0.1853  0.2622
    6CHTO  H104 2356   6.303   5.323   1.406 -0.5165  2.2133  1.7840
    6CHTO   O34 2357   6.786   5.645   1.235 -0.0309 -0.7043 -0.0755
    6CHTO   C49 2358   6.923   5.614   1.266 -0.7735 -0.3159 -0.5572
    6CHTO   H91 2359   6.965   5.534   1.204 -0.1543  1.2489 -2.1772
    6CHTO   C47 2360   6.938   5.586   1.418 -0.3709  0.1495  0.2408
    6CHTO   H89 2361   7.046   5.562   1.424  0.1726  2.4206 -0.0439
    6CHTO   O33 2362   6.859   5.467   1.457  0.2803  0.1535  0.3206
    6CHTO   H70 2363   6.870   5.455   1.549  3.0312  1.4831  0.2092
    6CHTO   C45 2364   6.909   5.718   1.503  0.1876 -0.2501 -0.4154
    6CHTO   H87 2365   6.814   5.765   1.476 -0.3709 -1.0726  0.1069
    6CHTO    N8 2366   6.912   5.695   1.650 -0.4576  0.6059 -0.0457
    6CHTO   H75 2367   6.922   5.596   1.692 -1.3956  0.9935  1.1271
    6CHTO   H76 2368   6.823   5.739   1.694 -0.6509  0.5742 -0.4103
    6CHTO   C43 2369   7.011   5.834   1.462 -0.3214  0.0458 -0.1245
    6CHTO   H85 2370   6.981   5.921   1.521  1.0578 -1.6158  3.1803
    6CHTO   O29 2371   6.995   5.855   1.317  0.8272  0.6936 -0.9003
    6CHTO   C50 2372   7.004   5.744   1.226 -0.1338 -0.2928  0.0802
    6CHTO   H92 2373   6.961   5.782   1.132  0.5448  0.1206 -0.0639
    6CHTO   C54 2374   7.155   5.725   1.198  0.0638 -0.2677 -0.0733
    6CHTO   O36 2375   7.201   5.607   1.137  0.1417  0.1820  0.2286
    6CHTO   H72 2376   7.178   5.533   1.189 -0.0950  0.3258  0.3272
    6CHTO   O27 2377   7.153   5.814   1.490  0.2867 -0.4219  0.3492
    6CHTO   C37 2378   7.244   5.924   1.516  0.8520 -1.0986  0.1024
    6CHTO   H79 2379   7.339   5.899   1.467 -0.1488 -0.9787 -1.9692
    6CHTO   C38 2380   7.204   6.066   1.460 -0.9283 -0.0009  0.6133
    6CHTO   H80 2381   7.111   6.104   1.504 -0.3124 -1.3961  3.2563
    6CHTO   O31 2382   7.194   6.050   1.319 -0.2384 -0.0252  0.2702
    6CHTO   H68 2383   7.122   5.993   1.300 -0.4932  0.7051 -1.0549
    6CHTO   C39 2384   7.315   6.179   1.502  0.5217 -0.0416  0.2828
    6CHTO   H81 2385   7.412   6.158   1.456  0.5111  0.0241  0.2312
    6CHTO    N7 2386   7.274   6.317   1.456 -0.1779 -0.7020  0.4833
    6CHTO   H73 2387   7.264   6.325   1.349  0.8313  1.1680  0.5035
    6CHTO   H74 2388   7.180   6.349   1.498 -0.0162 -0.5146  0.7080
    6CHTO   C40 2389   7.331   6.172   1.661  0.0506 -0.2100 -0.2200
    6CHTO   H82 2390   7.245   6.205   1.719  1.3681  1.7271  0.6921
    6CHTO   O26 2391   7.369   6.040   1.694 -0.1811  0.3495 -0.3230
    6CHTO   C41 2392   7.269   5.936   1.669  0.1304  0.3250 -0.0131
    6CHTO   H83 2393   7.178   5.960   1.726  0.2864 -1.8579  1.1957
    6CHTO   C52 2394   7.331   5.800   1.717  0.4814 -0.2038 -0.1687
    6CHTO   O35 2395   7.359   5.786   1.867  0.0101  0.4735  1.1485
    6CHTO   H71 2396   7.445   5.753   1.886  1.6478  3.2585 -1.0094
    6CHTO   O28 2397   7.438   6.261   1.703  0.2343  0.1036  0.0214
    6CHTO   C42 2398   7.442   6.319   1.829 -0.5099 -0.0525  0.1110
    6CHTO   H84 2399   7.536   6.374   1.831 -0.1461 -0.6624 -0.1719
    6CHTO   C44 2400   7.445   6.222   1.949 -0.4380  0.5983 -0.0949
    6CHTO   H86 2401   7.358   6.158   1.942 -0.8070  0.9545  1.0670
    6CHTO   O32 2402   7.568   6.150   1.927  0.4893  0.0835 -0.8237
    6CHTO   H69 2403   7.647   6.175   1.972  2.3313 -5.6104 -0.4965
    6CHTO   C48 2404   7.432   6.301   2.084  1.3468  0.6844  0.1270
    6CHTO   H90 2405   7.519   6.366   2.094  1.7188 -0.1259  2.5066
    6CHTO    N9 2406   7.448   6.205   2.199 -0.5410 -0.4025 -0.2008
    6CHTO   H77 2407   7.537   6.216   2.259 -2.2431  0.0647  2.3250
    6CHTO   H78 2408   7.429   6.103   2.169  1.8012 -1.2937  1.2307
    6CHTO   C51 2409   7.295   6.379   2.082  0.5768  0.3000  0.4200
    6CHTO   H93 2410   7.220   6.308   2.047  0.1007  1.0086 -0.0137
    6CHTO   O30 2411   7.317   6.481   1.985  0.4120  0.2720 -0.1286
    6CHTO   C46 2412   7.330   6.434   1.829 -0.2887  0.0471  0.0915
    6CHTO   H88 2413   7.233   6.400   1.794  0.6073 -4.5177  1.6975
    6CHTO   C53 2414   7.364   6.560   1.744  0.0708 -0.4912 -0.5705
    6CHTO   O72 2415   7.256   6.657   1.733 -0.1217 -0.0922 -0.7469
    6CHTO  H199 2416   7.217   6.672   1.817  2.8547  0.9055  0.5143
    6CHTO   O22 2417   7.257   6.456   2.201  0.7162 -0.1245 -0.4718
    6CHTO   C31 2418   7.124   6.429   2.263  0.1650 -0.3448 -0.1515
    6CHTO   H59 2419   7.055   6.435   2.177 -0.6264  0.6088  0.5389
    6CHTO   C29 2420   7.099   6.290   2.335  0.2379 -0.7641  0.2548
    6CHTO   H57 2421   7.186   6.274   2.400  0.0903  1.3337  1.0116
    6CHTO   O21 2422   7.103   6.187   2.235 -0.2016  0.3037 -0.7445
    6CHTO   H37 2423   7.084   6.109   2.284 -0.6374  1.4704  1.0226
    6CHTO   C27 2424   6.968   6.282   2.420 -0.0176  0.1072  0.4426
    6CHTO   H55 2425   6.887   6.263   2.348  2.0738 -1.5238 -1.5710
    6CHTO    N5 2426   6.967   6.177   2.523  0.2090  0.1723 -0.1771
    6CHTO   H43 2427   6.863   6.170   2.552  0.1707 -0.6105 -0.5056
    6CHTO   H44 2428   7.006   6.087   2.478 -1.0611  0.1540 -1.2816
    6CHTO   C25 2429   6.930   6.421   2.487 -0.1885 -0.0952 -0.2022
    6CHTO   H53 2430   7.000   6.435   2.571 -0.0642  2.5774 -0.7168
    6CHTO   O17 2431   6.940   6.527   2.395  0.0040 -0.9914 -0.4787
    6CHTO   C32 2432   7.076   6.550   2.362  0.5351  0.1406 -0.5030
    6CHTO   H60 2433   7.143   6.548   2.447 -1.6208  2.6603  1.3182
    6CHTO   C36 2434   7.086   6.683   2.290 -0.7890  0.1346  0.0477
    6CHTO   O25 2435   7.221   6.732   2.295 -0.6176 -0.2554  0.2398
    6CHTO   H40 2436   7.227   6.781   2.375  0.3206  0.3228 -0.1751
    6CHTO   O15 2437   6.781   6.426   2.524  0.6662  0.2348 -0.2473
    6CHTO   C19 2438   6.663   6.510   2.571 -0.2022 -0.1674  0.0638
    6CHTO   H47 2439   6.673   6.486   2.677 -0.6520  0.6140  0.2897
    6CHTO   C20 2440   6.690   6.665   2.543  0.5577  0.3479 -0.4525
    6CHTO   H48 2441   6.710   6.683   2.436 -3.4941  0.4776 -1.2955
    6CHTO   O19 2442   6.815   6.699   2.606 -0.5325  0.2788  0.2706
    6CHTO   H35 2443   6.889   6.657   2.567 -1.0026  0.8392 -1.2237
    6CHTO   C21 2444   6.566   6.744   2.607 -0.0620 -0.0604 -0.1797
    6CHTO   H49 2445   6.571   6.736   2.715  3.0229 -1.6405 -0.4000
    6CHTO    N4 2446   6.566   6.889   2.568 -0.3276  0.3965  0.4200
    6CHTO   H41 2447   6.475   6.942   2.591 -0.1179  1.1680 -0.5089
    6CHTO   H42 2448   6.592   6.898   2.464 -3.1600 -0.8286 -0.4434
    6CHTO   C22 2449   6.430   6.670   2.567  0.4486  0.1992 -0.2268
    6CHTO   H50 2450   6.426   6.679   2.459 -2.0208 -1.1073 -0.2913
    6CHTO   O14 2451   6.434   6.531   2.604  0.5732  0.6325 -0.7745
    6CHTO   C23 2452   6.520   6.457   2.528  0.0839 -0.3193 -0.3267
    6CHTO   H51 2453   6.497   6.475   2.422 -0.2415  1.4485  0.0321
    6CHTO   C34 2454   6.500   6.311   2.562  0.4850 -1.0748 -0.1725
    6CHTO   O23 2455   6.596   6.229   2.498 -0.2548  0.1036  0.4421
    6CHTO   H38 2456   6.571   6.141   2.518  3.3236 -2.0406 -3.8020
    6CHTO   O16 2457   6.309   6.721   2.633 -0.4945 -0.1840  0.1692
    6CHTO   C24 2458   6.187   6.701   2.550  0.2187  0.2464 -0.9340
    6CHTO   H52 2459   6.197   6.617   2.482 -0.6112 -0.1885 -0.5265
    6CHTO   C26 2460   6.153   6.834   2.484  0.4217  0.3590  0.1419
    6CHTO   H54 2461   6.154   6.912   2.563 -1.1861 -1.2611  1.7914
    6CHTO   O20 2462   6.256   6.871   2.387  0.0600  0.4988 -0.1023
    6CHTO   H36 2463   6.270   6.964   2.387 -0.2763  0.5663 -1.5325
    6CHTO   C30 2464   6.006   6.834   2.421  0.2773  0.3160  0.6587
    6CHTO   H58 2465   6.009   6.763   2.337 -0.0080  1.5632 -0.4280
    6CHTO    N6 2466   5.979   6.968   2.368 -0.4688  0.1568 -0.4032
    6CHTO   H45 2467   5.880   6.978   2.326 -0.3152 -0.8448 -1.0261
    6CHTO   H46 2468   6.050   6.996   2.292 -1.0317  0.1173 -0.9556
    6CHTO   C33 2469   5.901   6.769   2.517  0.1866  0.7541 -0.3271
    6CHTO   H61 2470   5.888   6.836   2.603 -1.8963  1.1728 -0.9489
    6CHTO   O18 2471   5.953   6.643   2.568  0.3311  0.1069  0.5058
    6CHTO   C28 2472   6.069   6.662   2.646 -0.2465 -0.1593 -0.0390
    6CHTO   H56 2473   6.056   6.743   2.717  2.4251  1.4251 -1.2700
    6CHTO   C35 2474   6.102   6.536   2.726  0.1371 -0.3330  0.6831
    6CHTO   O24 2475   6.113   6.416   2.653  0.5645  0.5608  0.1081
    6CHTO   H39 2476   6.159   6.358   2.710  1.1614 -2.5352 -3.3100
    6CHTO    O9 2477   5.776   6.745   2.455 -0.0320  0.4001 -0.1529
    6CHTO   C13 2478   5.652   6.851   2.466  0.9865  0.0498 -0.1358
    6CHTO   H26 2479   5.688   6.947   2.509  0.0314 -0.0425  0.8756
    6CHTO   C11 2480   5.527   6.791   2.555  0.3056 -0.0364 -0.6534
    6CHTO   H24 2481   5.553   6.778   2.661 -1.3185  3.0445  0.1746
    6CHTO    O8 2482   5.477   6.668   2.493  0.5111  0.3608  0.8782
    6CHTO    H3 2483   5.545   6.605   2.483  0.4163  0.4701 -0.5385
    6CHTO    C9 2484   5.430   6.916   2.559  0.3673  0.3159  0.6938
    6CHTO   H22 2485   5.487   6.996   2.607  2.2939 -0.5241 -0.1277
    6CHTO    N2 2486   5.325   6.890   2.657  0.0765  0.1691  0.3430
    6CHTO   H10 2487   5.348   6.823   2.738  0.2853  0.1612  0.2773
    6CHTO   H11 2488   5.270   6.975   2.695  1.0090 -0.5565  3.4352
    6CHTO    C7 2489   5.387   6.962   2.408  0.6811 -0.7945  0.4821
    6CHTO   H20 2490   5.415   7.069   2.414  1.7920 -0.8107 -3.4449
    6CHTO    O4 2491   5.463   6.893   2.304 -0.5269 -0.6664  0.0112
    6CHTO   C14 2492   5.600   6.891   2.318 -0.1177  0.1312  0.0174
    6CHTO   H27 2493   5.631   6.992   2.286  2.0334 -0.2446  0.8139
    6CHTO   C18 2494   5.650   6.790   2.213 -0.3700  0.4518  0.7358
    6CHTO   O13 2495   5.625   6.829   2.076 -0.3368  0.0264 -0.1652
    6CHTO    H7 2496   5.656   6.759   2.022 -1.0219  0.0126 -0.5574
    6CHTO    O2 2497   5.220   6.932   2.386  0.1588  0.2411  0.3200
    6CHTO    C1 2498   5.169   6.959   2.254 -0.6854  0.4750  0.8019
    6CHTO   H14 2499   5.247   6.932   2.180 -1.8140 -0.2695 -0.1342
    6CHTO    C2 2500   5.120   7.110   2.237 -0.0034  0.8865  0.5402
    6CHTO   H15 2501   5.048   7.125   2.318 -1.6931 -3.2597 -0.0628
    6CHTO    O6 2502   5.225   7.202   2.262 -0.5103  0.0799 -0.4087
    6CHTO    H1 2503   5.274   7.220   2.185  0.1882 -2.3681 -0.6045
    6CHTO    C3 2504   5.046   7.121   2.093 -0.3938 -0.0777  0.1673
    6CHTO   H16 2505   5.116   7.087   2.016 -1.0405  1.1218 -0.9635
    6CHTO    N1 2506   5.007   7.258   2.054  0.3263  0.1843 -0.0122
    6CHTO    H8 2507   4.899   7.267   2.048  0.2418 -1.5394 -1.4359
    6CHTO    H9 2508   5.043   7.323   2.133  0.0793  0.2978  0.0101
    6CHTO    C4 2509   4.927   7.015   2.094 -0.2756 -0.1246  0.6674
    6CHTO   H17 2510   4.863   7.040   2.179 -1.8800 -0.4606 -0.4379
    6CHTO    O1 2511   4.984   6.887   2.106 -0.2365  0.2871 -0.3812
    6CHTO    C5 2512   5.044   6.863   2.233 -0.4530  0.5907 -0.1096
    6CHTO   H18 2513   4.964   6.884   2.304 -0.3937  0.5721 -0.0375
    6CHTO   C16 2514   5.084   6.714   2.254 -0.3077  0.1338  0.2570
    6CHTO   O11 2515   4.971   6.625   2.249  0.1664 -0.1468  0.5092
    6CHTO    H5 2516   4.995   6.565   2.317  0.9260 -2.2168 -1.5131
    6CHTO    O3 2517   4.852   7.018   1.967  0.2541 -0.2815  0.3391
    6CHTO    C6 2518   4.726   6.965   1.946  0.3422  0.3243 -0.4829
    6CHTO   H19 2519   4.720   6.902   1.857 -0.8760  0.4352 -0.4945
    6CHTO    C8 2520   4.658   6.884   2.067 -0.3207 -0.4386 -0.1562
    6CHTO   H21 2521   4.672   6.947   2.155 -0.4091 -1.0057  0.2716
    6CHTO    O7 2522   4.742   6.774   2.095 -0.2593 -0.7276 -0.5370
    6CHTO    H2 2523   4.704   6.714   2.156 -0.4827 -0.2751 -0.2283
    6CHTO   C12 2524   4.506   6.840   2.037 -0.0732 -0.0349 -0.3810
    6CHTO   H25 2525   4.517   6.772   1.950 -2.6300  1.0551 -1.6131
    6CHTO    N3 2526   4.432   6.762   2.142 -0.0280 -0.1999 -0.4365
    6CHTO   H12 2527   4.408   6.819   2.230  1.1774 -0.2328 -0.0782
    6CHTO   H13 2528   4.493   6.677   2.171  0.8985  0.6292  0.0715
    6CHTO   C15 2529   4.423   6.968   1.987 -0.0810 -0.5534  0.0278
    6CHTO   H28 2530   4.407   7.037   2.071 -0.1103 -0.6070  0.0666
    6CHTO   O10 2531   4.282   6.934   1.935 -0.4799 -0.5556 -0.1369
    6CHTO    H4 2532   4.273   6.842   1.921 -0.4427 -1.0264  2.5218
    6CHTO    O5 2533   4.494   7.029   1.882  0.7825  0.3957 -0.1460
    6CHTO   C10 2534   4.624   7.080   1.917 -0.1709  0.4012 -0.8430
    6CHTO   H23 2535   4.615   7.128   2.015  1.7879  1.7476 -1.2835
    6CHTO   C17 2536   4.655   7.187   1.817 -0.3709  0.1006 -0.7211
    6CHTO   O12 2537   4.683   7.120   1.696 -0.2159  0.1281 -0.6348
    6CHTO    H6 2538   4.672   7.177   1.623  0.9310  0.4128 -0.5947
    7CHTO  H203 2539   4.566   2.465   2.237  0.0910  0.3692  0.1056
    7CHTO   O82 2540   4.643   2.444   2.188 -0.1031  0.2247 -0.1442
    7CHTO  C123 2541   4.764   2.505   2.239 -0.5600 -0.6984  0.4635
    7CHTO  H227 2542   4.741   2.585   2.312  0.1027  0.3960 -0.4968
    7CHTO   O77 2543   4.835   2.393   2.294  0.3635 -0.5555  0.1497
    7CHTO  C118 2544   4.948   2.452   2.367  0.0122 -0.2219 -0.0863
    7CHTO  H222 2545   4.925   2.541   2.427 -3.1849 -0.6628 -0.5861
    7CHTO  C125 2546   4.991   2.336   2.460  0.2850  0.2289 -0.9458
    7CHTO   O84 2547   4.896   2.313   2.574  0.0531 -0.1374  0.3001
    7CHTO  H205 2548   4.937   2.278   2.652  0.6424  1.5827  0.7894
    7CHTO  C114 2549   5.055   2.489   2.266 -0.3057 -0.3521 -0.0419
    7CHTO  H218 2550   5.074   2.405   2.198 -1.0668 -2.0142  1.7574
    7CHTO  C116 2551   4.996   2.601   2.167 -0.1825  0.8265 -0.3571
    7CHTO  H220 2552   4.996   2.702   2.212 -1.8487  0.5218  0.3376
    7CHTO   O79 2553   5.077   2.606   2.048  0.1514 -0.3015 -0.1720
    7CHTO  H201 2554   5.036   2.543   1.991  0.4241 -0.8832  0.2753
    7CHTO  C120 2555   4.854   2.566   2.125 -0.6645 -0.0747  0.4908
    7CHTO  H224 2556   4.884   2.479   2.063 -0.2766 -0.4345  1.1911
    7CHTO   N21 2557   4.788   2.676   2.048  0.3029  0.5718 -0.2766
    7CHTO  H211 2558   4.683   2.658   2.059  0.4968 -0.4058  0.0050
    7CHTO  H212 2559   4.805   2.681   1.941 -3.2049  3.2035 -0.7960
    7CHTO   O75 2560   5.171   2.539   2.334 -0.6116  0.4177  0.5061
    7CHTO  C112 2561   5.307   2.483   2.312 -0.0476  0.1587  0.5257
    7CHTO  H216 2562   5.306   2.411   2.228  1.3068 -0.9964  1.4737
    7CHTO   O73 2563   5.346   2.414   2.438 -0.0198  0.1423  0.8534
    7CHTO  C113 2564   5.478   2.355   2.433  0.3880  0.3190  0.3240
    7CHTO  H217 2565   5.481   2.293   2.341 -0.4796 -0.3600  0.7423
    7CHTO  C124 2566   5.496   2.252   2.540 -0.1546 -0.2700 -0.0648
    7CHTO   O83 2567   5.623   2.184   2.553  0.0106  0.6055 -0.2251
    7CHTO  H204 2568   5.628   2.127   2.627  1.8813  0.5204 -0.3898
    7CHTO  C109 2569   5.586   2.468   2.418 -0.3275 -0.0981  0.7138
    7CHTO  H213 2570   5.572   2.538   2.501 -4.4151  0.0270  0.0003
    7CHTO  C110 2571   5.556   2.542   2.288  0.0483 -0.7615  0.1524
    7CHTO  H214 2572   5.570   2.487   2.194 -3.1648 -0.8353 -0.3444
    7CHTO   O78 2573   5.646   2.651   2.285  0.1154 -0.1778 -0.4601
    7CHTO  H200 2574   5.641   2.690   2.370  0.9574 -0.6466 -0.1946
    7CHTO  C111 2575   5.413   2.596   2.281 -0.1143  0.7791  0.1218
    7CHTO  H215 2576   5.398   2.667   2.363 -1.0278 -0.6225  1.1696
    7CHTO   N19 2577   5.378   2.663   2.153 -0.0658  0.1468  0.0928
    7CHTO  H207 2578   5.447   2.745   2.137  0.0160  0.3487  1.4472
    7CHTO  H208 2579   5.275   2.692   2.145  0.0148  1.9798  4.4626
    7CHTO   O74 2580   5.722   2.419   2.412 -0.0177 -0.3832  0.5836
    7CHTO  C115 2581   5.827   2.512   2.488  0.1199 -0.6680 -0.2451
    7CHTO  H219 2582   5.775   2.601   2.524 -2.5704 -1.3129 -2.3773
    7CHTO   O76 2583   5.883   2.444   2.618 -0.5171  0.5520 -0.1997
    7CHTO  C122 2584   5.967   2.331   2.586  0.4705  0.1580 -0.1794
    7CHTO  H226 2585   5.915   2.251   2.533  0.0735  0.2169  0.1121
    7CHTO  C126 2586   5.993   2.276   2.723 -0.4072  0.2270 -0.1125
    7CHTO   O85 2587   6.082   2.171   2.702  0.5599  0.3547  0.1175
    7CHTO  H206 2588   6.107   2.142   2.788 -2.0628 -1.8791  0.2007
    7CHTO  C121 2589   6.090   2.390   2.507  0.0243  0.4520 -0.6412
    7CHTO  H225 2590   6.140   2.474   2.559 -0.6190  0.2911  0.2411
    7CHTO   O81 2591   6.190   2.295   2.484  0.7728  0.4941  0.3957
    7CHTO  H202 2592   6.209   2.258   2.568 -2.4682 -1.5193  0.3497
    7CHTO  C119 2593   6.044   2.444   2.371 -0.3347  0.6827 -0.5726
    7CHTO  H223 2594   6.134   2.479   2.321 -0.6492  2.0714 -0.1940
    7CHTO  C117 2595   5.938   2.562   2.383  0.3572  0.7405  0.5656
    7CHTO  H221 2596   5.883   2.585   2.292  1.9200  0.1032 -0.5656
    7CHTO   N20 2597   6.008   2.686   2.416  0.5561  0.1279  0.6661
    7CHTO  H209 2598   6.096   2.700   2.355 -0.3086  1.9257 -0.1971
    7CHTO  H210 2599   5.937   2.767   2.415 -0.6305 -0.8160  3.9168
    7CHTO   O80 2600   6.000   2.334   2.276 -0.4645  0.2379 -0.0945
    7CHTO  C103 2601   6.077   2.263   2.171  0.2133 -0.4242 -0.0858
    7CHTO  H190 2602   6.029   2.275   2.074  1.3498 -1.5730 -0.8022
    7CHTO  C101 2603   6.231   2.295   2.151  0.0675 -0.0008  0.0338
    7CHTO  H188 2604   6.284   2.274   2.244 -1.6358  0.9478  1.2499
    7CHTO   O68 2605   6.263   2.447   2.101  0.0320  0.3500 -0.4167
    7CHTO  H168 2606   6.202   2.502   2.146 -1.1984 -1.3872  0.0721
    7CHTO   C99 2607   6.297   2.194   2.042  0.0329 -0.5352 -0.3666
    7CHTO  H186 2608   6.255   2.228   1.945  1.4894  0.9819 -0.4979
    7CHTO   N17 2609   6.442   2.210   2.032 -0.3662 -0.0006  0.0118
    7CHTO  H174 2610   6.472   2.265   1.943 -2.5635  0.0308 -0.7315
    7CHTO  H175 2611   6.478   2.109   2.026  0.0253  0.0928  0.8277
    7CHTO   C97 2612   6.254   2.052   2.071 -0.0752 -0.1188 -0.5113
    7CHTO  H184 2613   6.309   2.011   2.158  1.1078 -2.5933 -2.3639
    7CHTO   O64 2614   6.111   2.040   2.090 -0.0715  0.1492  0.2544
    7CHTO  C104 2615   6.065   2.111   2.204  0.0520  0.1277  0.3581
    7CHTO  H191 2616   6.118   2.089   2.297  1.3891  2.5302  0.2025
    7CHTO  C108 2617   5.921   2.058   2.225 -0.0612  0.3362  0.1505
    7CHTO   O71 2618   5.864   2.106   2.344  0.3503 -0.5027  0.2843
    7CHTO  H171 2619   5.919   2.174   2.378 -2.5087  2.4407 -0.7725
    7CHTO   O62 2620   6.278   1.966   1.956 -0.5093  0.1830 -0.4764
    7CHTO   C91 2621   6.309   1.826   1.981  0.0498  0.2073 -0.2632
    7CHTO  H178 2622   6.417   1.826   1.995  0.3532  0.6951 -2.3318
    7CHTO   C92 2623   6.285   1.726   1.861 -0.8809 -0.1897 -0.7504
    7CHTO  H179 2624   6.330   1.763   1.768 -0.2662 -1.4292 -0.9467
    7CHTO   O66 2625   6.347   1.598   1.892 -0.4788  0.3335  0.4925
    7CHTO  H166 2626   6.437   1.586   1.869 -0.3416 -3.0715  2.4095
    7CHTO   C93 2627   6.133   1.710   1.838 -0.0615 -0.6473  0.2743
    7CHTO  H180 2628   6.120   1.609   1.796 -1.6542 -0.4930  0.3808
    7CHTO   N16 2629   6.069   1.809   1.747  0.3927 -0.0802  0.3913
    7CHTO  H172 2630   6.119   1.809   1.651  2.2247  1.7219  1.2958
    7CHTO  H173 2631   5.962   1.820   1.746  0.6346  2.4644  0.1984
    7CHTO   C94 2632   6.059   1.710   1.978 -0.1393  0.7315  0.3590
    7CHTO  H181 2633   6.036   1.812   2.009  0.6779  0.6111  1.3873
    7CHTO   O61 2634   6.145   1.653   2.080  0.7679  0.8548  0.0632
    7CHTO   C95 2635   6.247   1.754   2.110 -0.1464 -0.0640  0.5477
    7CHTO  H182 2636   6.208   1.832   2.175  0.9630 -0.5464  1.8237
    7CHTO  C106 2637   6.353   1.680   2.189  0.3953 -0.1505 -0.6622
    7CHTO   O69 2638   6.323   1.670   2.327 -0.4274 -0.1989  0.5948
    7CHTO  H169 2639   6.399   1.641   2.375 -0.6060  1.5159  1.9646
    7CHTO   O63 2640   5.935   1.632   1.976 -0.2666 -0.7074  0.1424
    7CHTO   C96 2641   5.806   1.669   2.095  0.6691 -0.0659 -0.0048
    7CHTO  H183 2642   5.761   1.766   2.073  0.9319  0.0244 -0.1499
    7CHTO   C98 2643   5.851   1.664   2.252 -0.8538  0.1801  0.7662
    7CHTO  H185 2644   5.947   1.718   2.255 -1.5465  1.5763 -0.7935
    7CHTO   O67 2645   5.765   1.741   2.337 -0.3907  0.7110 -0.4003
    7CHTO  H167 2646   5.753   1.827   2.303  0.3028  1.0168  0.1116
    7CHTO  C102 2647   5.853   1.507   2.305  0.2201  0.1405  0.4316
    7CHTO  H189 2648   5.831   1.509   2.412 -0.7308 -1.4692  0.2764
    7CHTO   N18 2649   5.987   1.448   2.293 -0.0558 -0.1928  0.3386
    7CHTO  H176 2650   6.046   1.463   2.205 -0.1095 -2.0860 -0.0544
    7CHTO  H177 2651   5.981   1.343   2.320  0.8602 -0.9006 -2.0791
    7CHTO  C105 2652   5.743   1.421   2.233  1.0261  0.2532 -0.1555
    7CHTO  H192 2653   5.787   1.353   2.160  0.6868 -2.7328  2.3654
    7CHTO   O65 2654   5.641   1.503   2.175 -0.1973  0.1774  0.1990
    7CHTO  C100 2655   5.685   1.574   2.055 -0.0337 -0.2892  0.1167
    7CHTO  H187 2656   5.722   1.494   1.989  0.6422 -0.8897  1.2042
    7CHTO  C107 2657   5.574   1.656   1.987  0.8303 -0.4335  0.6017
    7CHTO   O70 2658   5.622   1.722   1.875 -0.2931  1.1583 -0.7424
    7CHTO  H170 2659   5.662   1.798   1.911 -0.0450 -0.4209  2.4799
    7CHTO   O57 2660   5.681   1.333   2.354  0.1116 -0.1284  0.0588
    7CHTO   C85 2661   5.642   1.196   2.333  0.2956  0.2048 -0.6710
    7CHTO  H157 2662   5.644   1.173   2.224  1.5009  0.5079 -0.7156
    7CHTO   C83 2663   5.492   1.196   2.378  0.2910  0.2582  0.1985
    7CHTO  H155 2664   5.446   1.275   2.318  3.1546  1.0299 -1.0996
    7CHTO   O56 2665   5.468   1.233   2.511  0.1995  0.0411 -0.1124
    7CHTO  H135 2666   5.540   1.210   2.567 -0.1690  1.2993  0.8996
    7CHTO   C81 2667   5.439   1.057   2.345 -0.2829 -0.4952  0.2445
    7CHTO  H153 2668   5.461   1.039   2.240 -2.2860 -1.1121 -0.0947
    7CHTO   N14 2669   5.290   1.050   2.352  0.0359 -0.0101  0.2031
    7CHTO  H141 2670   5.260   0.976   2.422 -2.3810  0.1016 -0.6899
    7CHTO  H142 2671   5.244   1.145   2.370 -1.1313 -0.2155 -1.5472
    7CHTO   C79 2672   5.522   0.950   2.429  0.0491 -0.1223  0.3503
    7CHTO  H151 2673   5.485   0.852   2.399  0.2954  0.1360 -0.8213
    7CHTO   O52 2674   5.664   0.956   2.393 -1.1580  0.0121 -0.6376
    7CHTO   C86 2675   5.718   1.092   2.416 -0.0829  0.5096  0.4678
    7CHTO  H158 2676   5.705   1.107   2.525 -1.6407 -0.3011  0.4099
    7CHTO   C90 2677   5.871   1.096   2.386  0.0440 -0.2275 -0.0740
    7CHTO   O60 2678   5.966   1.031   2.480  0.0313  0.0425 -0.4254
    7CHTO  H138 2679   5.918   0.997   2.553  0.1755 -0.0433 -0.3709
    7CHTO   O50 2680   5.501   0.957   2.574 -0.3739  0.0501  0.9469
    7CHTO   C73 2681   5.522   0.863   2.676 -0.6887 -0.0831 -0.0305
    7CHTO  H145 2682   5.626   0.826   2.678 -0.4010  0.7288  0.3848
    7CHTO   C74 2683   5.433   0.732   2.649  0.4385 -0.7558  0.6375
    7CHTO  H146 2684   5.452   0.701   2.546 -0.0958 -5.0356  1.7496
    7CHTO   O54 2685   5.472   0.616   2.723 -0.4198 -0.1933 -0.0577
    7CHTO  H133 2686   5.430   0.539   2.690  0.9825 -1.2177  0.5387
    7CHTO   C75 2687   5.282   0.768   2.673 -0.2407  0.1836  0.6465
    7CHTO  H147 2688   5.257   0.849   2.603 -0.4299 -0.1782  0.3000
    7CHTO   N13 2689   5.167   0.679   2.641  0.5256  0.8203 -0.1240
    7CHTO  H139 2690   5.115   0.658   2.733  1.3178 -4.4039 -0.7595
    7CHTO  H140 2691   5.196   0.588   2.592  1.6939  0.7463  0.6562
    7CHTO   C76 2692   5.265   0.840   2.816  0.5832 -0.3210 -0.7935
    7CHTO  H148 2693   5.285   0.763   2.891 -0.3728 -0.6968 -0.9160
    7CHTO   O49 2694   5.346   0.953   2.816  0.0936 -0.4107 -0.0409
    7CHTO   C77 2695   5.485   0.927   2.807  0.4139 -0.2103  0.0608
    7CHTO  H149 2696   5.528   0.866   2.886  2.3274  1.9845  0.7912
    7CHTO   C88 2697   5.561   1.066   2.825  0.6452 -0.3888 -0.2464
    7CHTO   O58 2698   5.719   1.030   2.826  0.5423 -0.4143  0.4322
    7CHTO  H136 2699   5.765   1.075   2.894  2.1992 -0.9883 -0.2868
    7CHTO   O51 2700   5.104   0.920   2.836  0.2013 -0.0659  0.4648
    7CHTO   C78 2701   5.071   0.915   2.980  0.0637 -0.5885  0.3341
    7CHTO  H150 2702   5.162   0.920   3.043  0.9960  0.7174 -1.0812
    7CHTO   C80 2703   4.986   0.791   3.020 -0.1209 -0.0616  0.3552
    7CHTO  H152 2704   4.896   0.796   2.955 -0.1468  0.4723  0.4362
    7CHTO   O55 2705   5.051   0.668   2.981  0.3878 -0.1819 -0.3018
    7CHTO  H134 2706   5.059   0.651   2.889  2.7057 -1.5829  0.1265
    7CHTO   C84 2707   4.950   0.799   3.170  0.9193  0.1461 -0.8101
    7CHTO  H156 2708   5.047   0.791   3.221 -0.9974  0.4214  3.0877
    7CHTO   N15 2709   4.876   0.682   3.221  0.9332  0.0303 -0.7350
    7CHTO  H143 2710   4.840   0.631   3.133  3.2130 -1.9060 -0.5993
    7CHTO  H144 2711   4.797   0.709   3.288  1.8666  0.3149  0.2471
    7CHTO   C87 2712   4.882   0.929   3.207 -0.0538  0.2711 -0.0870
    7CHTO  H159 2713   4.775   0.925   3.187 -0.0626  0.7232 -0.1413
    7CHTO   O53 2714   4.949   1.060   3.139 -0.4427 -0.1997  0.0943
    7CHTO   C82 2715   4.988   1.042   3.004  0.7692  0.2482 -0.2158
    7CHTO  H154 2716   4.904   1.035   2.934  0.2740  1.8685  0.1833
    7CHTO   C89 2717   5.064   1.171   2.962  0.1968 -0.0368 -0.5953
    7CHTO   O59 2718   5.176   1.190   3.048 -0.3739 -0.2878 -0.0779
    7CHTO  H137 2719   5.192   1.279   3.073  0.3753 -0.8115  1.3514
    7CHTO   O45 2720   4.885   0.946   3.370 -0.2518  0.0424 -0.3848
    7CHTO   C67 2721   4.965   1.049   3.423  0.4401  0.6038  0.7881
    7CHTO  H124 2722   5.043   1.074   3.351  1.3323 -1.2404  1.0960
    7CHTO   C65 2723   4.887   1.189   3.455  0.1336  0.2779  0.7572
    7CHTO  H122 2724   4.782   1.168   3.479  0.5819  0.0340  2.5051
    7CHTO   O44 2725   4.893   1.268   3.340 -0.4875  0.3999 -0.2460
    7CHTO  H102 2726   4.847   1.225   3.271 -1.1422  1.4278 -0.4544
    7CHTO   C63 2727   4.927   1.255   3.593 -0.0484 -1.3133  0.3793
    7CHTO  H120 2728   4.892   1.189   3.672 -2.1273 -3.1717 -2.0192
    7CHTO   N11 2729   4.866   1.392   3.625 -0.3855 -0.0356 -0.4051
    7CHTO  H108 2730   4.828   1.437   3.536  0.5822  2.8466  0.5698
    7CHTO  H109 2731   4.780   1.370   3.685 -0.5047  0.5970 -0.3432
    7CHTO   C61 2732   5.082   1.251   3.603  0.1263  0.1273  0.0734
    7CHTO  H118 2733   5.117   1.294   3.698 -3.9253 -0.2040  1.8197
    7CHTO   O40 2734   5.131   1.105   3.609 -0.6780 -0.0032  0.5152
    7CHTO   C68 2735   5.046   1.002   3.557  0.0988 -0.0173 -0.0518
    7CHTO  H125 2736   4.975   0.962   3.633 -0.5615  1.1985 -0.0274
    7CHTO   C72 2737   5.146   0.889   3.530 -0.2160  0.0582  0.0373
    7CHTO   O48 2738   5.086   0.775   3.479 -0.0281 -0.4053 -0.0999
    7CHTO  H105 2739   5.013   0.740   3.528  1.4466 -1.3829  1.4747
    7CHTO   O38 2740   5.150   1.311   3.489 -0.2900 -0.5585 -0.4189
    7CHTO   C55 2741   5.287   1.360   3.506  0.1614  0.0141 -0.1276
    7CHTO  H112 2742   5.329   1.296   3.585 -4.2242 -1.6333  1.0125
    7CHTO   C56 2743   5.280   1.513   3.555  0.8457  0.2921  0.0358
    7CHTO  H113 2744   5.196   1.554   3.497 -2.0524 -3.4874  1.4058
    7CHTO   O42 2745   5.232   1.521   3.693 -0.4070  0.1751 -1.2226
    7CHTO  H100 2746   5.291   1.477   3.752 -1.4218 -1.5104 -1.4213
    7CHTO   C57 2747   5.415   1.597   3.532 -0.1006 -0.3575 -0.2410
    7CHTO  H114 2748   5.479   1.571   3.617  1.7899 -0.5850 -1.7041
    7CHTO   N10 2749   5.379   1.740   3.550  0.8710  0.0408  0.0833
    7CHTO  H106 2750   5.443   1.793   3.620  3.7737 -0.2527 -2.2357
    7CHTO  H107 2751   5.365   1.788   3.454  0.4907 -2.4737 -1.1543
    7CHTO   C58 2752   5.483   1.555   3.399 -0.1779  0.1101  0.3197
    7CHTO  H115 2753   5.434   1.596   3.308 -0.5500 -0.0215  0.4572
    7CHTO   O37 2754   5.500   1.410   3.383  0.1786 -0.7878 -0.7350
    7CHTO   C59 2755   5.368   1.345   3.381 -0.4853 -0.1097 -0.2183
    7CHTO  H116 2756   5.307   1.377   3.297  0.6482 -0.5263 -1.2095
    7CHTO   C70 2757   5.394   1.193   3.365 -0.2935  0.4610 -0.6467
    7CHTO   O46 2758   5.462   1.160   3.244  0.4169 -0.0679 -0.6245
    7CHTO  H103 2759   5.519   1.087   3.261  0.3508  0.2320  1.0274
    7CHTO   O39 2760   5.651   1.614   3.402  0.0509  0.0374 -0.1413
    7CHTO   C60 2761   5.750   1.536   3.334  0.0292 -0.5442 -0.8755
    7CHTO  H117 2762   5.749   1.432   3.366  1.4535  0.2662  1.8913
    7CHTO   C62 2763   5.728   1.547   3.179 -0.1145 -0.2033 -0.3858
    7CHTO  H119 2764   5.627   1.505   3.159  1.0863 -2.3755 -2.0902
    7CHTO   O43 2765   5.714   1.689   3.147 -0.3942 -0.3407 -0.0789
    7CHTO  H101 2766   5.799   1.726   3.158 -1.2171  0.5314  4.5257
    7CHTO   C66 2767   5.843   1.472   3.096 -0.7371 -0.2374  0.3187
    7CHTO  H123 2768   5.844   1.370   3.135  0.5137  0.0847  1.1648
    7CHTO   N12 2769   5.816   1.465   2.950  0.3749  0.4185 -0.7292
    7CHTO  H110 2770   5.877   1.385   2.913  1.1609 -0.4077  2.2003
    7CHTO  H111 2771   5.855   1.560   2.914  2.8531 -0.7541 -1.2276
    7CHTO   C69 2772   5.981   1.542   3.134 -0.2253  0.4206  0.7487
    7CHTO  H126 2773   5.983   1.651   3.113  1.9182  0.2131 -0.2052
    7CHTO   O41 2774   6.000   1.516   3.304  0.4934  0.3549 -0.4277
    7CHTO   C64 2775   5.896   1.592   3.373  0.3155 -0.2571  0.5958
    7CHTO  H121 2776   5.897   1.701   3.349  0.7231  0.0176  1.8139
    7CHTO   C71 2777   5.918   1.582   3.521  0.0549 -0.5416 -0.5632
    7CHTO   O47 2778   5.881   1.451   3.569 -0.2558  0.5875 -0.2410
    7CHTO  H104 2779   5.816   1.467   3.635 -2.0018  0.2673 -1.8600
    7CHTO   O34 2780   6.095   1.473   3.073 -0.3905 -0.2938  0.1417
    7CHTO   C49 2781   6.211   1.385   3.149 -0.0915 -0.2206 -0.5303
    7CHTO   H91 2782   6.265   1.452   3.216  0.9359  0.6898 -2.2284
    7CHTO   C47 2783   6.320   1.336   3.043  0.2623  0.4813  0.8011
    7CHTO   H89 2784   6.405   1.306   3.108  1.7752  2.7205 -0.1226
    7CHTO   O33 2785   6.357   1.456   2.968  0.1579 -0.6941 -0.7041
    7CHTO   H70 2786   6.436   1.445   2.918  0.8456  0.6560  0.0684
    7CHTO   C45 2787   6.259   1.207   2.955  0.2280  0.9576 -0.5957
    7CHTO   H87 2788   6.177   1.259   2.904  0.8011  1.1399 -1.3486
    7CHTO    N8 2789   6.351   1.153   2.851  0.2001  0.0636  0.1908
    7CHTO   H75 2790   6.327   1.193   2.754  0.1165  1.8127  0.9179
    7CHTO   H76 2791   6.343   1.045   2.844  4.1449 -0.2652 -0.4272
    7CHTO   C43 2792   6.200   1.092   3.054  0.0780  0.4611 -0.1410
    7CHTO   H85 2793   6.151   1.012   2.999 -0.1662  0.2189  0.4157
    7CHTO   O29 2794   6.109   1.157   3.143  0.0830  0.0496 -0.3651
    7CHTO   C50 2795   6.152   1.264   3.230  0.3260 -1.0199 -0.1974
    7CHTO   H92 2796   6.060   1.291   3.283  0.6383 -0.8672  0.2683
    7CHTO   C54 2797   6.244   1.219   3.337 -0.2814 -0.3346 -0.4486
    7CHTO   O36 2798   6.203   1.095   3.384 -0.0782  0.1509  0.2293
    7CHTO   H72 2799   6.273   1.034   3.370  0.5948  1.2066 -1.0442
    7CHTO   O27 2800   6.307   1.024   3.104  0.0045  0.0393  0.3779
    7CHTO   C37 2801   6.378   0.911   3.165  0.3803  0.2797  0.0973
    7CHTO   H79 2802   6.389   0.930   3.273  1.5118  0.2520 -0.0108
    7CHTO   C38 2803   6.292   0.789   3.159 -0.0164 -0.5841  0.1043
    7CHTO   H80 2804   6.240   0.795   3.062  0.1466  1.8559  0.1256
    7CHTO   O31 2805   6.187   0.797   3.257  0.0991 -0.1462 -0.2984
    7CHTO   H68 2806   6.222   0.793   3.344  0.1274  4.1922 -0.0325
    7CHTO   C39 2807   6.370   0.646   3.177  0.4365 -0.0742 -0.0858
    7CHTO   H81 2808   6.389   0.622   3.282  2.0228  1.6471  0.0493
    7CHTO    N7 2809   6.296   0.535   3.109 -0.0158 -0.4445 -0.0458
    7CHTO   H73 2810   6.257   0.486   3.197  0.2899 -1.6404 -0.5634
    7CHTO   H74 2811   6.210   0.578   3.061  0.6448  1.0381  0.0765
    7CHTO   C40 2812   6.507   0.657   3.108  0.2035  0.3331  0.0104
    7CHTO   H82 2813   6.494   0.652   3.000 -0.7325 -0.9581  0.1746
    7CHTO   O26 2814   6.577   0.776   3.148 -1.1838  0.3306 -0.5384
    7CHTO   C41 2815   6.519   0.902   3.100  0.0960 -0.2249  0.0709
    7CHTO   H83 2816   6.512   0.898   2.990  3.6285  0.0218 -0.2225
    7CHTO   C52 2817   6.617   1.019   3.133  0.6038  0.8625  0.8497
    7CHTO   O35 2818   6.633   1.036   3.264 -0.0111 -0.2828 -0.3113
    7CHTO   H71 2819   6.722   1.045   3.292  0.2016  2.4682 -1.6451
    7CHTO   O28 2820   6.599   0.551   3.151 -0.0148  0.2937  0.5422
    7CHTO   C42 2821   6.714   0.498   3.070  0.0287  0.0559  0.0843
    7CHTO   H84 2822   6.763   0.416   3.122  1.5910  0.6075 -0.4764
    7CHTO   C44 2823   6.826   0.608   3.058 -0.3066  0.5257  0.3243
    7CHTO   H86 2824   6.786   0.690   2.998 -0.9809 -1.4632 -2.0231
    7CHTO   O32 2825   6.870   0.638   3.190 -0.0377  0.4278  0.5732
    7CHTO   H69 2826   6.812   0.697   3.234 -1.2690 -0.8885  0.7791
    7CHTO   C48 2827   6.947   0.555   2.967 -0.4022  0.1475 -0.1018
    7CHTO   H90 2828   6.980   0.471   3.029  0.6037 -1.8112 -3.2056
    7CHTO    N9 2829   7.066   0.640   2.950  0.0726 -0.2703 -0.0216
    7CHTO   H77 2830   7.097   0.711   3.026  1.4995 -0.8823 -0.0111
    7CHTO   H78 2831   7.121   0.653   2.859  0.7335 -1.9817  0.1045
    7CHTO   C51 2832   6.888   0.497   2.828 -0.5296  0.2713 -0.1186
    7CHTO   H93 2833   6.840   0.577   2.773 -0.5432 -0.8061 -1.7087
    7CHTO   O30 2834   6.797   0.396   2.852  0.5875  0.3123 -0.7363
    7CHTO   C46 2835   6.667   0.442   2.934 -0.3593  0.9937  0.0754
    7CHTO   H88 2836   6.613   0.517   2.876  0.8588  0.2884 -2.0636
    7CHTO   C53 2837   6.582   0.318   2.964  0.3387 -0.3124 -0.2652
    7CHTO   O72 2838   6.532   0.257   2.851  0.1866  0.7042  0.2280
    7CHTO  H199 2839   6.525   0.318   2.781  0.2823  0.9908  0.4663
    7CHTO   O22 2840   6.976   0.434   2.735  0.2433  1.1180  0.6250
    7CHTO   C31 2841   6.959   0.466   2.593  0.2297 -0.1270  0.5169
    7CHTO   H59 2842   7.020   0.389   2.541 -2.0077 -1.5988  0.0187
    7CHTO   C29 2843   6.812   0.453   2.535 -0.2348 -0.4545  0.2644
    7CHTO   H57 2844   6.746   0.520   2.593  0.1758 -1.2090  1.6255
    7CHTO   O21 2845   6.773   0.322   2.562 -0.1101 -0.1738  0.8851
    7CHTO   H37 2846   6.786   0.297   2.652 -0.9278 -0.4799  0.9251
    7CHTO   C27 2847   6.809   0.497   2.383  0.6305 -0.5106 -0.1587
    7CHTO   H55 2848   6.859   0.418   2.326  1.3619 -0.4763  0.4370
    7CHTO    N5 2849   6.674   0.510   2.331  0.1790 -0.2641  0.2849
    7CHTO   H43 2850   6.675   0.479   2.228  0.6869  2.2987 -0.5195
    7CHTO   H44 2851   6.613   0.452   2.399 -0.7038  0.0409 -0.2365
    7CHTO   C25 2852   6.883   0.641   2.373 -0.3913  0.3093  0.0776
    7CHTO   H53 2853   6.829   0.719   2.430 -0.8472  0.8829 -1.0949
    7CHTO   O17 2854   7.014   0.636   2.424  0.1413 -0.1023  0.1880
    7CHTO   C32 2855   7.025   0.606   2.559  0.0945  0.5960  0.2339
    7CHTO   H60 2856   6.975   0.686   2.614  1.7469  0.5544  1.8532
    7CHTO   C36 2857   7.179   0.612   2.601 -0.0579  0.1166 -0.7118
    7CHTO   O25 2858   7.258   0.529   2.510  0.2845 -0.1095 -0.2304
    7CHTO   H40 2859   7.237   0.548   2.421 -2.3521 -0.6487  0.2222
    7CHTO   O15 2860   6.889   0.691   2.218  0.0621 -0.4381 -0.3740
    7CHTO   C19 2861   6.890   0.831   2.165 -0.9703 -0.1625 -0.2277
    7CHTO   H47 2862   6.911   0.808   2.059  1.2984 -0.9245  0.3362
    7CHTO   C20 2863   6.753   0.901   2.171  0.1316  0.1031  0.2948
    7CHTO   H48 2864   6.716   0.912   2.274 -0.9611  0.5119 -0.1369
    7CHTO   O19 2865   6.648   0.808   2.118 -0.4857 -0.2846 -0.0993
    7CHTO   H35 2866   6.565   0.844   2.142 -0.2634 -0.0956  0.3844
    7CHTO   C21 2867   6.753   1.034   2.090  0.3903  0.0721 -0.3370
    7CHTO   H49 2868   6.753   1.012   1.983 -2.8406 -1.2327 -0.1189
    7CHTO    N4 2869   6.637   1.120   2.111 -0.4528 -0.0773 -0.7127
    7CHTO   H41 2870   6.559   1.103   2.038  0.1568  1.6327 -1.8098
    7CHTO   H42 2871   6.658   1.226   2.111  0.6571 -0.2447  2.6448
    7CHTO   C22 2872   6.884   1.116   2.126 -0.5491  0.5423  0.9701
    7CHTO   H50 2873   6.865   1.168   2.220  0.7194  2.3070  0.2735
    7CHTO   O14 2874   7.010   1.045   2.133 -0.5021 -0.4691 -0.0428
    7CHTO   C23 2875   7.001   0.928   2.213 -0.0933 -0.3283 -0.2751
    7CHTO   H51 2876   6.980   0.972   2.312 -1.1915 -1.3607 -0.0475
    7CHTO   C34 2877   7.140   0.865   2.223 -0.2121 -0.6186 -0.4530
    7CHTO   O23 2878   7.212   0.853   2.095 -0.8404 -0.4048 -0.0715
    7CHTO   H38 2879   7.193   0.765   2.071  0.0085 -1.2027  2.0941
    7CHTO   O16 2880   6.925   1.208   2.023  0.3018  0.7991  0.1109
    7CHTO   C24 2881   6.900   1.373   2.087  0.8021  0.1382 -0.4803
    7CHTO   H52 2882   6.838   1.373   2.177  0.7252  3.0466 -0.4768
    7CHTO   C26 2883   6.832   1.458   1.975  0.0831 -0.7172 -0.6084
    7CHTO   H54 2884   6.901   1.466   1.889  2.1968  0.8795  1.1929
    7CHTO   O20 2885   6.705   1.397   1.938  0.1989  0.6699  0.7141
    7CHTO   H36 2886   6.689   1.419   1.848 -1.4647 -0.0247  0.8302
    7CHTO   C30 2887   6.805   1.601   2.019  1.1409 -0.2697  0.0361
    7CHTO   H58 2888   6.735   1.608   2.104  1.6020 -0.4432  0.4260
    7CHTO    N6 2889   6.742   1.686   1.910 -0.0913 -0.1965  0.1788
    7CHTO   H45 2890   6.744   1.657   1.806  0.3093 -1.0417  0.4227
    7CHTO   H46 2891   6.649   1.738   1.927 -0.2966 -0.1189 -1.1227
    7CHTO   C33 2892   6.941   1.666   2.066 -0.1547 -0.6390 -0.0279
    7CHTO   H61 2893   7.007   1.670   1.978 -1.9505 -1.5525 -1.4565
    7CHTO   O18 2894   7.002   1.586   2.160  0.3127  0.5520 -0.5213
    7CHTO   C28 2895   7.024   1.453   2.123  0.0355  0.3514  0.2752
    7CHTO   H56 2896   7.089   1.441   2.036  2.2408 -1.7961  2.1337
    7CHTO   C35 2897   7.099   1.374   2.227 -0.5470 -0.1736 -0.1175
    7CHTO   O24 2898   7.239   1.410   2.231  0.3408  0.0218 -0.4970
    7CHTO   H39 2899   7.273   1.414   2.144 -0.7318  1.6731 -0.8785
    7CHTO    O9 2900   6.920   1.800   2.116 -0.1047 -0.6866 -0.7991
    7CHTO   C13 2901   6.870   1.801   2.272 -0.0753 -0.7689 -0.2699
    7CHTO   H26 2902   6.878   1.696   2.309  0.8136 -1.5862 -2.7119
    7CHTO   C11 2903   6.725   1.855   2.281  0.2255  0.0195  0.7564
    7CHTO   H24 2904   6.659   1.769   2.265  1.7562 -1.3288  1.5291
    7CHTO    O8 2905   6.698   1.948   2.171  0.4174  0.0274 -0.7564
    7CHTO    H3 2906   6.606   1.943   2.158 -0.1257 -0.8256  2.9159
    7CHTO    C9 2907   6.693   1.908   2.419  0.3671  0.3610  0.4536
    7CHTO   H22 2908   6.722   1.825   2.484  0.8712  1.4733  1.6756
    7CHTO    N2 2909   6.548   1.926   2.449  0.5274 -0.1116 -0.1505
    7CHTO   H10 2910   6.543   1.956   2.553  2.6046 -2.4952  0.6757
    7CHTO   H11 2911   6.499   1.830   2.440  2.5695 -1.3109  1.3152
    7CHTO    C7 2912   6.780   2.034   2.448 -0.1365  0.4456  0.1580
    7CHTO   H20 2913   6.784   2.023   2.558  0.3029  1.2984  0.2308
    7CHTO    O4 2914   6.914   2.026   2.401 -0.6544 -0.3538 -0.0074
    7CHTO   C14 2915   6.961   1.897   2.363  0.1057 -0.0719 -0.6691
    7CHTO   H27 2916   6.980   1.841   2.457 -0.4493  3.2261  1.5105
    7CHTO   C18 2917   7.099   1.921   2.303 -0.4184  0.4609 -0.3862
    7CHTO   O13 2918   7.180   1.802   2.283  0.2447 -0.3943  0.0236
    7CHTO    H7 2919   7.232   1.778   2.357 -1.7121 -0.6209  1.3546
    7CHTO    O2 2920   6.708   2.179   2.406  0.2471 -0.0208  0.4057
    7CHTO    C1 2921   6.756   2.302   2.466  0.0027 -0.1576 -0.2517
    7CHTO   H14 2922   6.707   2.384   2.409 -2.3456 -0.6535  0.9635
    7CHTO    C2 2923   6.907   2.334   2.475 -0.0379  0.4218  0.2989
    7CHTO   H15 2924   6.950   2.246   2.525 -0.7460  0.2577  0.6214
    7CHTO    O6 2925   6.969   2.349   2.345 -0.0498 -0.0089  0.1843
    7CHTO    H1 2926   6.965   2.269   2.296  1.7537 -0.4311  0.6678
    7CHTO    C3 2927   6.938   2.468   2.566  0.4319 -0.0440  0.0115
    7CHTO   H16 2928   6.918   2.568   2.523  1.1249  0.6539  1.2756
    7CHTO    N1 2929   7.085   2.465   2.605  0.4401  0.0112  0.8481
    7CHTO    H8 2930   7.108   2.538   2.681 -0.2587  1.8200 -0.6753
    7CHTO    H9 2931   7.099   2.372   2.659  0.7429  0.1147  0.9530
    7CHTO    C4 2932   6.849   2.466   2.696  0.1740  0.1711  0.7961
    7CHTO   H17 2933   6.883   2.382   2.757 -1.0144 -0.5577  0.4934
    7CHTO    O1 2934   6.704   2.447   2.663  0.1364  0.0386 -0.3297
    7CHTO    C5 2935   6.688   2.317   2.606 -0.5497 -0.3283  0.4259
    7CHTO   H18 2936   6.746   2.252   2.671  0.7752  1.4093  1.0034
    7CHTO   C16 2937   6.533   2.282   2.619  0.2409 -0.0038 -0.0541
    7CHTO   O11 2938   6.527   2.264   2.762 -0.4547  0.3784 -0.6712
    7CHTO    H5 2939   6.439   2.272   2.793  0.0716 -1.1194  1.2849
    7CHTO    O3 2940   6.860   2.585   2.770 -0.3638  1.0600 -0.8302
    7CHTO    C6 2941   6.823   2.592   2.913 -0.0701  0.3902 -0.5026
    7CHTO   H19 2942   6.845   2.691   2.954 -0.5240  0.2553  0.0679
    7CHTO    C8 2943   6.667   2.571   2.942  0.1535 -0.5992 -0.6315
    7CHTO   H21 2944   6.634   2.481   2.890  1.0172  0.4433 -3.0682
    7CHTO    O7 2945   6.591   2.677   2.874  0.0390 -0.7907  0.3261
    7CHTO    H2 2946   6.635   2.705   2.796  1.1206 -0.0794  1.1700
    7CHTO   C12 2947   6.636   2.548   3.098 -0.1105 -0.2236  1.3112
    7CHTO   H25 2948   6.651   2.646   3.147 -2.8984 -0.0045  1.8279
    7CHTO    N3 2949   6.485   2.503   3.107  0.0125 -0.4379 -0.3801
    7CHTO   H12 2950   6.498   2.428   3.184 -0.7366 -0.1735  0.0090
    7CHTO   H13 2951   6.431   2.587   3.147  0.5386  1.3623 -3.2835
    7CHTO   C15 2952   6.732   2.451   3.148 -0.6050  0.0235 -0.1600
    7CHTO   H28 2953   6.729   2.351   3.104 -1.8893  0.4329 -1.0137
    7CHTO   O10 2954   6.708   2.437   3.297 -0.1923  0.0051  0.4844
    7CHTO    H4 2955   6.696   2.523   3.331  1.5614  0.6839 -0.5346
    7CHTO    O5 2956   6.869   2.491   3.143  0.5235  0.3041 -0.0182
    7CHTO   C10 2957   6.907   2.493   3.002 -0.0719 -0.0468 -0.2118
    7CHTO   H23 2958   6.897   2.391   2.965  0.3429 -0.1193 -0.1260
    7CHTO   C17 2959   7.058   2.523   3.002  0.3980  0.1705 -0.2986
    7CHTO   O12 2960   7.089   2.648   3.060 -0.7034 -0.2545  0.2873
    7CHTO    H6 2961   7.145   2.694   3.001 -0.6846 -0.2642  0.2979
    8CHTO  H203 2962   6.764   8.434   1.662 -0.7909  2.2541  0.5416
    8CHTO   O82 2963   6.695   8.382   1.625  0.3752  0.2655  1.0460
    8CHTO  C123 2964   6.616   8.470   1.540  0.0552 -0.5117  0.6520
    8CHTO  H227 2965   6.620   8.434   1.437  0.0778 -0.5498  0.6663
    8CHTO   O77 2966   6.480   8.447   1.582  0.2195  0.1647  0.3977
    8CHTO  C118 2967   6.375   8.510   1.512  0.4797  0.6396  0.3614
    8CHTO  H222 2968   6.383   8.478   1.407  0.9910 -1.2167  0.9512
    8CHTO  C125 2969   6.234   8.454   1.569 -0.8293 -0.1842 -0.0017
    8CHTO   O84 2970   6.206   8.480   1.705 -0.2980  0.7673  0.1461
    8CHTO  H205 2971   6.140   8.427   1.745  1.0112 -1.0109  0.0111
    8CHTO  C114 2972   6.397   8.662   1.531  0.1730  0.1074 -0.0034
    8CHTO  H218 2973   6.390   8.684   1.637 -3.1076 -2.3748  0.3907
    8CHTO  C116 2974   6.534   8.711   1.482 -0.1477 -0.3068 -0.3198
    8CHTO  H220 2975   6.530   8.698   1.372  0.5590 -0.6891 -0.3006
    8CHTO   O79 2976   6.551   8.850   1.502 -0.3369  0.2362  0.0945
    8CHTO  H201 2977   6.636   8.887   1.495 -0.7511  1.2344  0.2790
    8CHTO  C120 2978   6.648   8.627   1.544  0.6877 -0.0723  0.0304
    8CHTO  H224 2979   6.651   8.664   1.649  2.0320 -0.7232  0.2248
    8CHTO   N21 2980   6.783   8.652   1.483 -0.1421 -0.0230 -0.0309
    8CHTO  H211 2981   6.780   8.754   1.447 -0.9009  0.1416  0.4747
    8CHTO  H212 2982   6.855   8.639   1.563  0.4154 -2.6725 -0.9407
    8CHTO   O75 2983   6.289   8.706   1.450  0.4812 -0.1036  0.0925
    8CHTO  C112 2984   6.200   8.830   1.517  0.1285 -0.2513  0.3476
    8CHTO  H216 2985   6.255   8.923   1.538 -1.3678  0.2380  2.2796
    8CHTO   O73 2986   6.130   8.784   1.631 -0.3597 -0.7189  0.7537
    8CHTO  C113 2987   6.056   8.878   1.703 -1.4454 -0.1468  0.3863
    8CHTO  H217 2988   6.116   8.968   1.726  0.3530 -0.5953 -2.4113
    8CHTO  C124 2989   6.009   8.810   1.832 -0.1180 -0.2417 -0.8939
    8CHTO   O83 2990   5.938   8.689   1.805 -0.3955  0.3085  0.4709
    8CHTO  H204 2991   5.854   8.710   1.768 -0.2407 -1.4043 -0.8556
    8CHTO  C109 2992   5.941   8.933   1.615 -0.5205  0.0464  0.1661
    8CHTO  H213 2993   5.865   8.854   1.612  0.0889 -0.5584  0.7744
    8CHTO  C110 2994   5.995   8.976   1.470 -1.0362  0.1115  0.2500
    8CHTO  H214 2995   6.038   9.076   1.465  0.7269 -0.7134 -1.6741
    8CHTO   O78 2996   5.885   8.991   1.386 -0.3074 -0.0132  0.1447
    8CHTO  H200 2997   5.909   9.041   1.310 -1.1907 -2.5180 -1.8394
    8CHTO  C111 2998   6.093   8.870   1.409 -1.0587 -0.8428 -0.0220
    8CHTO  H215 2999   6.036   8.778   1.391 -1.9164 -0.9587  3.0447
    8CHTO   N19 3000   6.149   8.912   1.278  0.4894 -0.0657  0.5688
    8CHTO  H207 3001   6.068   8.925   1.208 -1.2312 -1.9870  2.1217
    8CHTO  H208 3002   6.208   8.835   1.232 -1.2250  0.0791 -1.9828
    8CHTO   O74 3003   5.881   9.049   1.669  0.2866 -0.3372  0.3706
    8CHTO  C115 3004   5.708   9.050   1.700  0.4039 -0.4647 -0.0067
    8CHTO  H219 3005   5.668   8.951   1.720 -1.6303 -0.0698 -1.9267
    8CHTO   O76 3006   5.679   9.125   1.837 -0.5298 -0.4819 -0.2896
    8CHTO  C122 3007   5.708   9.264   1.832 -0.4386  0.4433 -0.0830
    8CHTO  H226 3008   5.815   9.285   1.823  0.0328 -2.0285 -0.6108
    8CHTO  C126 3009   5.667   9.316   1.976 -0.6286  0.1759  0.0403
    8CHTO   O85 3010   5.692   9.458   1.987  0.4358 -0.1778  0.0533
    8CHTO  H206 3011   5.630   9.497   2.045  2.0024  4.0953 -0.9380
    8CHTO  C121 3012   5.630   9.327   1.721  0.1904  0.0685  0.5733
    8CHTO  H225 3013   5.524   9.311   1.750  0.8629 -2.7261  1.5842
    8CHTO   O81 3014   5.659   9.473   1.721  0.9859 -0.3765 -0.4637
    8CHTO  H202 3015   5.590   9.525   1.685  0.8252  1.1529  1.9354
    8CHTO  C119 3016   5.663   9.266   1.580  0.9210  0.3126  0.0131
    8CHTO  H223 3017   5.605   9.319   1.505  2.2027  1.7675  0.0061
    8CHTO  C117 3018   5.629   9.107   1.580 -0.5759 -0.1204  0.5164
    8CHTO  H221 3019   5.671   9.053   1.495 -1.9276 -0.4288  0.0310
    8CHTO   N20 3020   5.485   9.070   1.583  0.0195  0.2452 -0.3191
    8CHTO  H209 3021   5.422   9.149   1.545 -0.8963 -0.6682 -0.7431
    8CHTO  H210 3022   5.448   9.067   1.685 -3.1639  0.1582 -1.3985
    8CHTO   O80 3023   5.810   9.289   1.535  0.8838 -0.2014 -0.2915
    8CHTO  C103 3024   5.853   9.427   1.470  0.5661 -0.2735  0.4754
    8CHTO  H190 3025   5.769   9.497   1.465  1.8644  1.1665 -1.6829
    8CHTO  C101 3026   5.984   9.492   1.537 -0.0910 -0.7157  0.3006
    8CHTO  H188 3027   6.062   9.416   1.539  2.2206  1.5379 -1.1796
    8CHTO   O68 3028   5.936   9.514   1.693 -0.7697 -0.6595 -0.2478
    8CHTO  H168 3029   5.868   9.578   1.684  1.4446  1.6939 -0.9286
    8CHTO   C99 3030   6.031   9.615   1.455  0.0686 -0.5477  0.1660
    8CHTO  H186 3031   5.946   9.687   1.451  0.9973  0.5125 -0.8226
    8CHTO   N17 3032   6.144   9.690   1.518 -0.1611  0.6521 -0.1720
    8CHTO  H174 3033   6.092   9.750   1.592  0.3953 -0.0658  0.8086
    8CHTO  H175 3034   6.221   9.628   1.561 -1.9553 -0.3805  1.6659
    8CHTO   C97 3035   6.055   9.565   1.308 -0.2452 -0.3521  0.2473
    8CHTO  H184 3036   6.138   9.493   1.307 -0.2724 -0.3875  0.5562
    8CHTO   O64 3037   5.933   9.507   1.258  0.5190 -0.1592 -0.5028
    8CHTO  C104 3038   5.888   9.390   1.325  0.1802 -0.6077  0.3597
    8CHTO  H191 3039   5.961   9.309   1.322  0.2718 -0.4917 -1.6608
    8CHTO  C108 3040   5.770   9.332   1.257 -0.3676 -0.1711 -0.4920
    8CHTO   O71 3041   5.802   9.303   1.120 -0.1129  0.7505 -0.1579
    8CHTO  H171 3042   5.735   9.255   1.074  0.0172  0.9866 -0.5976
    8CHTO   O62 3043   6.077   9.680   1.226  0.1802 -0.0962  0.2815
    8CHTO   C91 3044   6.182   9.670   1.128  0.0446 -0.3821  0.2480
    8CHTO  H178 3045   6.229   9.572   1.132 -1.4302 -1.2473 -2.2166
    8CHTO   C92 3046   6.293   9.775   1.164  0.1777  0.0200 -0.3698
    8CHTO  H179 3047   6.334   9.760   1.265  0.1419  1.2113 -0.1713
    8CHTO   O66 3048   6.409   9.741   1.088  0.2461 -0.2184  0.4634
    8CHTO  H166 3049   6.386   9.736   0.998  0.2231 -0.1968  0.4681
    8CHTO   C93 3050   6.257   9.931   1.140 -0.2618 -0.5061  0.3967
    8CHTO  H180 3051   6.347   9.981   1.103  0.4424 -1.9170  0.1523
    8CHTO   N16 3052   6.218  10.004   1.259  0.3644  0.1163  0.2382
    8CHTO  H172 3053   6.132   9.961   1.310  1.5026 -2.0728  0.3954
    8CHTO  H173 3054   6.298  10.018   1.331  0.1128 -1.3115  0.8306
    8CHTO   C94 3055   6.147   9.938   1.023 -0.5123  0.2280 -0.3681
    8CHTO  H181 3056   6.047   9.938   1.067  1.0329 -1.4137  3.3902
    8CHTO   O61 3057   6.164   9.823   0.928  0.8892 -0.3086  0.2488
    8CHTO   C95 3058   6.126   9.695   0.980 -0.6962  0.0337 -0.2453
    8CHTO  H182 3059   6.018   9.688   0.978 -0.9348  2.6483  0.8492
    8CHTO  C106 3060   6.173   9.579   0.884  0.5378  0.4751 -0.0235
    8CHTO   O69 3061   6.135   9.441   0.916 -0.3257 -0.6917 -0.0798
    8CHTO  H169 3062   6.183   9.414   0.992 -1.7138  0.4991  1.2660
    8CHTO   O63 3063   6.173  10.065   0.950 -0.5717 -0.3551 -0.1304
    8CHTO   C96 3064   6.088  10.101   0.837  0.3130 -0.7949  0.0218
    8CHTO  H183 3065   6.012  10.024   0.823  1.6209 -1.6499 -2.7105
    8CHTO   C98 3066   6.172  10.104   0.706  0.1778 -0.1128 -0.1918
    8CHTO  H185 3067   6.257  10.173   0.711  1.1437 -1.3324  0.6304
    8CHTO   O67 3068   6.234   9.979   0.682 -0.0256  0.2563  0.2790
    8CHTO  H167 3069   6.314   9.966   0.730 -0.9382 -0.6528  1.5931
    8CHTO  C102 3070   6.089  10.150   0.581  0.5041 -0.1246  0.0129
    8CHTO  H189 3071   6.016  10.070   0.562  0.5841  0.4777 -3.0692
    8CHTO   N18 3072   6.158  10.165   0.449 -0.3191 -0.8169 -0.1823
    8CHTO  H176 3073   6.109  10.239   0.387 -1.5319 -1.0044  0.5571
    8CHTO  H177 3074   6.252  10.215   0.468 -0.0141 -1.4771  0.0538
    8CHTO  C105 3075   6.007  10.278   0.608 -0.2551 -0.6314  0.1317
    8CHTO  H192 3076   6.073  10.365   0.602  1.0839 -1.6008  0.5742
    8CHTO   O65 3077   5.948  10.291   0.741 -0.0926 -0.1886 -0.1262
    8CHTO  C100 3078   6.020  10.247   0.851 -0.3047 -0.6125 -0.2268
    8CHTO  H187 3079   6.106  10.312   0.871 -0.1834 -1.3459  1.7069
    8CHTO  C107 3080   5.935  10.245   0.974 -0.3137 -0.2107  0.3632
    8CHTO   O70 3081   5.910  10.377   1.020 -0.6927 -0.5447  0.0389
    8CHTO  H170 3082   5.824  10.381   1.058 -1.8444 -0.7344 -2.4683
    8CHTO   O57 3083   5.891  10.290   0.521  0.0795  0.0639 -0.6436
    8CHTO   C85 3084   5.863  10.400   0.432 -0.2858 -0.8548 -0.1735
    8CHTO  H157 3085   5.943  10.397   0.356  0.4381  0.6022  0.4967
    8CHTO   C83 3086   5.867  10.540   0.501  0.7560 -0.2651 -0.0837
    8CHTO  H155 3087   5.967  10.557   0.542  0.2058  3.5703 -0.1509
    8CHTO   O56 3088   5.757  10.546   0.600 -0.4102 -0.5878 -0.5146
    8CHTO  H135 3089   5.682  10.535   0.545 -1.0206  0.6906  0.0338
    8CHTO   C81 3090   5.847  10.654   0.389 -0.0237  0.0362 -0.3893
    8CHTO  H153 3091   5.927  10.642   0.316  0.8330  0.4666  0.4737
    8CHTO   N14 3092   5.859  10.790   0.455  0.6270  0.5335 -0.0110
    8CHTO  H141 3093   5.882  10.866   0.385 -0.9156 -0.4643 -1.6689
    8CHTO  H142 3094   5.925  10.786   0.539 -0.1273 -0.8657  0.5449
    8CHTO   C79 3095   5.703  10.632   0.318  0.0882 -0.2510  0.2791
    8CHTO  H151 3096   5.702  10.700   0.233  0.4294 -0.7295 -0.1049
    8CHTO   O52 3097   5.693  10.497   0.275  0.2378  0.3188 -0.3689
    8CHTO   C86 3098   5.717  10.386   0.364  0.3863  0.2490  0.1531
    8CHTO  H158 3099   5.638  10.396   0.441 -1.7761  0.1399 -2.0117
    8CHTO   C90 3100   5.691  10.248   0.300 -0.7187  0.3648 -0.2829
    8CHTO   O60 3101   5.768  10.219   0.180 -0.4424  0.3991 -0.0091
    8CHTO  H138 3102   5.746  10.137   0.140  1.7480  1.0097 -2.6503
    8CHTO   O50 3103   5.588  10.659   0.401  0.6241  0.2870 -0.0840
    8CHTO   C73 3104   5.453  10.693   0.419  0.4733 -0.2455  0.0264
    8CHTO  H145 3105   5.412  10.739   0.327  0.5563  1.7295  0.9567
    8CHTO   C74 3106   5.443  10.809   0.523  0.0235  0.8350  0.1868
    8CHTO  H146 3107   5.505  10.892   0.486  0.5733  1.0715  1.6086
    8CHTO   O54 3108   5.307  10.850   0.524 -0.0216  0.2913  0.0185
    8CHTO  H133 3109   5.289  10.903   0.448  0.6906  3.3597  1.9128
    8CHTO   C75 3110   5.499  10.755   0.669  0.6158 -0.1609 -0.4931
    8CHTO  H147 3111   5.600  10.712   0.657  1.3608  1.7065 -1.1646
    8CHTO   N13 3112   5.490  10.858   0.768  0.1187  0.6089 -0.6632
    8CHTO  H139 3113   5.442  10.947   0.730  0.9169  2.0349  1.5542
    8CHTO  H140 3114   5.593  10.870   0.798 -0.0573 -1.5464  0.8843
    8CHTO   C76 3115   5.406  10.630   0.706  0.0391 -0.0629  0.0818
    8CHTO  H148 3116   5.308  10.667   0.735 -0.0775  0.8547 -1.4302
    8CHTO   O49 3117   5.410  10.532   0.598  0.2988 -0.3252 -0.1027
    8CHTO   C77 3118   5.359  10.577   0.469  0.2844  0.2711  0.3382
    8CHTO  H149 3119   5.255  10.611   0.469  0.5102  1.0255 -1.5118
    8CHTO   C88 3120   5.375  10.466   0.364  0.6535  0.5117 -0.4033
    8CHTO   O58 3121   5.330  10.317   0.398  0.1990  0.1012 -0.1663
    8CHTO  H136 3122   5.329  10.256   0.327  0.6434  0.0933 -0.1695
    8CHTO   O51 3123   5.473  10.554   0.830  1.1050 -0.4050 -0.2732
    8CHTO   C78 3124   5.408  10.416   0.889 -0.0885 -0.5364 -0.3500
    8CHTO  H150 3125   5.336  10.371   0.818  0.4864 -1.2439 -0.4873
    8CHTO   C80 3126   5.332  10.446   1.016 -0.4672 -0.6311  0.4987
    8CHTO  H152 3127   5.399  10.508   1.080 -0.3054 -0.5923  0.2929
    8CHTO   O55 3128   5.213  10.519   0.990 -0.2049  0.3770  0.2663
    8CHTO  H134 3129   5.153  10.462   0.945 -0.8375  1.8303 -0.7743
    8CHTO   C84 3130   5.291  10.311   1.086  0.4275  0.4848 -0.5313
    8CHTO  H156 3131   5.219  10.259   1.023  0.4822  0.2332 -0.3856
    8CHTO   N15 3132   5.218  10.336   1.216 -0.4835 -0.6858 -0.0811
    8CHTO  H143 3133   5.151  10.419   1.207  0.9720  0.4916 -0.3790
    8CHTO  H144 3134   5.165  10.249   1.246  2.2928 -2.4154 -0.0680
    8CHTO   C87 3135   5.412  10.217   1.104  0.3625  0.4781  0.2940
    8CHTO  H159 3136   5.479  10.255   1.181 -0.6269  1.1998  0.8172
    8CHTO   O53 3137   5.497  10.195   0.970 -0.1607  0.4739 -0.5924
    8CHTO   C82 3138   5.528  10.323   0.915 -0.8748 -0.3305 -0.0915
    8CHTO  H154 3139   5.609  10.367   0.973  0.0682 -0.9250 -0.9562
    8CHTO   C89 3140   5.595  10.289   0.781  0.0347  0.5530 -0.2870
    8CHTO   O59 3141   5.514  10.207   0.690 -0.2384  0.0512 -0.0312
    8CHTO  H137 3142   5.433  10.253   0.679  0.2210  1.0399  0.6743
    8CHTO   O45 3143   5.358  10.059   1.150  0.1870  0.2939 -0.0543
    8CHTO   C67 3144   5.430   9.981   1.252  0.2978  0.3808  0.1424
    8CHTO  H124 3145   5.391   9.880   1.261  0.5759 -0.2261 -4.3385
    8CHTO   C65 3146   5.588   9.977   1.230 -0.2682 -0.0867  0.8221
    8CHTO  H122 3147   5.608  10.048   1.150 -2.3508 -0.0819  0.2811
    8CHTO   O44 3148   5.613   9.847   1.170  0.6452  0.6087 -0.1718
    8CHTO  H102 3149   5.701   9.821   1.188 -0.0036 -0.9382  0.8708
    8CHTO   C63 3150   5.678  10.036   1.342 -0.0878  0.3115  0.5557
    8CHTO  H120 3151   5.661  10.143   1.353 -0.5672  0.0790  2.1452
    8CHTO   N11 3152   5.825  10.025   1.325  0.3966 -0.5729  0.2622
    8CHTO  H108 3153   5.868   9.962   1.400 -0.3129 -2.1902 -0.6622
    8CHTO  H109 3154   5.850   9.995   1.226 -0.0368 -2.1353  0.6094
    8CHTO   C61 3155   5.621   9.981   1.481 -0.0245  0.0731 -0.1909
    8CHTO  H118 3156   5.665  10.043   1.561 -0.0739 -0.5247  0.2992
    8CHTO   O40 3157   5.477   9.993   1.498 -0.1606  0.0826  0.0371
    8CHTO   C68 3158   5.401  10.056   1.392 -0.7295 -0.1170 -0.1377
    8CHTO  H125 3159   5.432  10.163   1.390 -0.2449 -0.2155  1.4103
    8CHTO   C72 3160   5.251  10.052   1.438  0.0074  1.4714  0.1179
    8CHTO   O48 3161   5.216  10.154   1.532 -0.3656 -0.4155  0.0978
    8CHTO  H105 3162   5.219  10.241   1.499 -0.0636  0.6330  2.7474
    8CHTO   O38 3163   5.663   9.841   1.496 -0.1804 -0.3459  0.1686
    8CHTO   C55 3164   5.603   9.744   1.577  0.1569 -0.3130  1.1585
    8CHTO  H112 3165   5.681   9.668   1.595 -0.0507 -0.5399  1.1195
    8CHTO   C56 3166   5.494   9.688   1.499 -0.5948  0.2029  0.7816
    8CHTO  H113 3167   5.431   9.766   1.454 -1.0147 -0.9444 -0.6376
    8CHTO   O42 3168   5.563   9.623   1.388  0.2441  0.5934 -0.3248
    8CHTO  H100 3169   5.501   9.612   1.319 -0.9250 -0.1922  0.8147
    8CHTO   C57 3170   5.401   9.596   1.583 -0.4110 -0.2720 -0.1001
    8CHTO  H114 3171   5.446   9.501   1.614 -0.7051 -1.2958 -2.6676
    8CHTO   N10 3172   5.289   9.547   1.504 -1.0318 -1.2353 -0.0157
    8CHTO  H106 3173   5.201   9.609   1.497  0.4244  0.7864 -0.7724
    8CHTO  H107 3174   5.316   9.512   1.405  1.0606 -1.1095  0.4752
    8CHTO   C58 3175   5.346   9.671   1.710 -0.1238  0.2057  0.4881
    8CHTO  H115 3176   5.289   9.761   1.678 -2.2261 -0.7506  1.4123
    8CHTO   O37 3177   5.463   9.710   1.778 -0.5094  0.1100  0.1004
    8CHTO   C59 3178   5.559   9.799   1.716  0.3059 -0.2115  0.0206
    8CHTO  H116 3179   5.510   9.895   1.708  1.3186  0.2034 -1.3639
    8CHTO   C70 3180   5.684   9.812   1.811  0.1084 -0.1143 -0.5386
    8CHTO   O46 3181   5.776   9.915   1.776 -0.0884 -0.2085  0.3059
    8CHTO  H103 3182   5.801   9.903   1.686 -0.3042  0.9042  0.0919
    8CHTO   O39 3183   5.249   9.581   1.795  0.2895  0.6743  0.2830
    8CHTO   C60 3184   5.124   9.631   1.846 -0.0480  0.6386  0.4010
    8CHTO  H117 3185   5.109   9.733   1.812 -3.9061  0.2637  0.7761
    8CHTO   C62 3186   5.011   9.546   1.782  0.3885 -0.0389  0.0124
    8CHTO  H119 3187   5.034   9.539   1.673 -1.4450  3.8670 -0.7106
    8CHTO   O43 3188   5.017   9.409   1.821  0.2757 -0.5768  0.3847
    8CHTO  H101 3189   4.947   9.365   1.777  1.3953  0.1785 -2.2847
    8CHTO   C66 3190   4.874   9.626   1.803  0.4684  0.1913  0.5369
    8CHTO  H123 3191   4.873   9.716   1.741  0.7776 -0.2036 -0.0356
    8CHTO   N12 3192   4.761   9.548   1.748  0.7295  0.3564 -0.8076
    8CHTO  H110 3193   4.790   9.448   1.720  0.5807 -0.2864  1.2357
    8CHTO  H111 3194   4.710   9.597   1.667  2.2031  0.6300 -1.5771
    8CHTO   C69 3195   4.844   9.649   1.952 -0.3539  0.2224  1.2058
    8CHTO  H126 3196   4.803   9.559   2.002 -0.8874 -1.0804 -1.5240
    8CHTO   O41 3197   4.972   9.711   2.028 -0.2997 -0.0709  1.3288
    8CHTO   C64 3198   5.108   9.633   1.998  0.3642 -0.6226 -0.1919
    8CHTO  H121 3199   5.102   9.528   2.035 -0.4503 -0.4315  0.2400
    8CHTO   C71 3200   5.228   9.698   2.068 -0.4188 -1.0272  0.9740
    8CHTO   O47 3201   5.244   9.843   2.044 -0.3622  0.2084  0.5698
    8CHTO  H104 3202   5.185   9.884   2.106 -1.1311 -0.5609  0.3583
    8CHTO   O34 3203   4.730   9.747   1.958 -0.1632 -0.0021  0.0801
    8CHTO   C49 3204   4.699   9.902   1.949  0.4400  0.6802  0.4275
    8CHTO   H91 3205   4.726   9.939   2.048  3.5793 -0.2650 -0.0235
    8CHTO   C47 3206   4.548   9.913   1.914  0.5208 -0.1528  0.4268
    8CHTO   H89 3207   4.521  10.020   1.924  3.0890  0.5579  0.0236
    8CHTO   O33 3208   4.475   9.840   2.017  0.6059  0.6746 -0.5605
    8CHTO   H70 3209   4.386   9.814   2.000  0.5542  0.2580  0.3201
    8CHTO   C45 3210   4.512   9.857   1.767  0.4951  0.4374 -0.1127
    8CHTO   H87 3211   4.548   9.753   1.762 -1.9849 -0.4417 -0.1395
    8CHTO    N8 3212   4.369   9.851   1.734  0.0585 -0.1916 -0.1081
    8CHTO   H75 3213   4.323   9.781   1.803  3.4679 -1.6384  0.8338
    8CHTO   H76 3214   4.318   9.945   1.719  1.6079  0.5905 -0.5787
    8CHTO   C43 3215   4.602   9.938   1.667  0.9150  0.1496  0.8363
    8CHTO   H85 3216   4.580   9.894   1.570 -1.1877  2.0803  0.3809
    8CHTO   O29 3217   4.744   9.933   1.701 -0.2590 -0.2231  0.0921
    8CHTO   C50 3218   4.774   9.971   1.835 -0.0963  0.8178 -0.8287
    8CHTO   H92 3219   4.878   9.939   1.854 -0.7223 -0.5517  0.3690
    8CHTO   C54 3220   4.797  10.118   1.850  0.2017 -0.2464  0.4756
    8CHTO   O36 3221   4.898  10.170   1.770 -0.6360 -0.2277  0.3296
    8CHTO   H72 3222   4.886  10.156   1.678  0.5624  0.7677 -0.0011
    8CHTO   O27 3223   4.570  10.080   1.660 -0.5809  0.3787  0.1556
    8CHTO   C37 3224   4.539  10.178   1.559 -0.3400 -0.2664  0.0832
    8CHTO   H79 3225   4.507  10.130   1.465  1.2674 -0.4204 -0.3945
    8CHTO   C38 3226   4.427  10.275   1.617 -0.0917  0.3499 -0.5051
    8CHTO   H80 3227   4.461  10.301   1.718  2.0775  3.2894 -1.8899
    8CHTO   O31 3228   4.302  10.210   1.620  0.0463 -0.0521  0.2695
    8CHTO   H68 3229   4.310  10.121   1.592 -0.8131  0.2372 -0.9298
    8CHTO   C39 3230   4.412  10.413   1.534  0.4827 -1.2078  0.4585
    8CHTO   H81 3231   4.361  10.399   1.438 -1.3827  0.8012  1.1296
    8CHTO    N7 3232   4.323  10.513   1.602 -0.9846  0.0370  0.2347
    8CHTO   H73 3233   4.229  10.466   1.626 -0.2757 -2.1349 -1.0987
    8CHTO   H74 3234   4.300  10.598   1.540 -2.2243  0.7621  1.6702
    8CHTO   C40 3235   4.549  10.479   1.497  0.0889 -0.4306 -0.0430
    8CHTO   H82 3236   4.598  10.519   1.586  0.7004  2.6777 -1.7317
    8CHTO   O26 3237   4.625  10.370   1.438  0.0092  0.2246 -0.5620
    8CHTO   C41 3238   4.664  10.264   1.527 -0.5055 -0.4302  0.2815
    8CHTO   H83 3239   4.700  10.300   1.625  1.0714 -1.2692  0.0274
    8CHTO   C52 3240   4.780  10.180   1.463  0.5795  0.3734  1.0020
    8CHTO   O35 3241   4.895  10.251   1.432  1.1195  0.0122 -0.6224
    8CHTO   H71 3242   4.894  10.309   1.359  0.2059  0.3026 -0.3875
    8CHTO   O28 3243   4.558  10.585   1.404  0.1935  0.4247 -0.0654
    8CHTO   C42 3244   4.560  10.574   1.259 -0.3749 -0.2802 -0.4317
    8CHTO   H84 3245   4.526  10.671   1.224 -2.9370 -1.3094 -0.9539
    8CHTO   C44 3246   4.453  10.480   1.200 -0.2565 -0.0565 -0.5569
    8CHTO   H86 3247   4.477  10.382   1.241 -0.3262 -0.2583 -0.9932
    8CHTO   O32 3248   4.323  10.525   1.236 -0.3282 -0.2360  0.1245
    8CHTO   H69 3249   4.290  10.498   1.320 -0.3458  0.1134  0.2351
    8CHTO   C48 3250   4.458  10.476   1.041 -0.1167 -0.2130  0.4088
    8CHTO   H90 3251   4.407  10.556   0.988 -0.1592 -0.5530 -0.0676
    8CHTO    N9 3252   4.374  10.358   0.992  0.3854 -0.2590 -0.1301
    8CHTO   H77 3253   4.416  10.306   0.907 -0.4705  1.8287 -1.8638
    8CHTO   H78 3254   4.274  10.390   0.967  0.1166 -1.1127 -0.1717
    8CHTO   C51 3255   4.603  10.467   0.981  0.0192 -0.4638 -0.0482
    8CHTO   H93 3256   4.641  10.367   1.005  2.2948  1.3596  4.6493
    8CHTO   O30 3257   4.684  10.562   1.042 -0.5401 -0.4135  0.1276
    8CHTO   C46 3258   4.700  10.543   1.186  0.6933  0.1025 -0.4559
    8CHTO   H88 3259   4.727  10.443   1.220 -0.8450 -0.3154 -0.4624
    8CHTO   C53 3260   4.803  10.647   1.238 -0.2728  0.1619  0.3146
    8CHTO   O72 3261   4.933  10.593   1.211  0.4434  0.2866 -0.1494
    8CHTO  H199 3262   5.002  10.641   1.253  0.8447 -0.8900  0.5686
    8CHTO   O22 3263   4.607  10.499   0.843  0.1525  0.4961 -0.2087
    8CHTO   C31 3264   4.696  10.416   0.756 -0.6091 -0.7065 -0.8696
    8CHTO   H59 3265   4.713  10.476   0.664 -0.0848 -0.8982 -0.8977
    8CHTO   C29 3266   4.836  10.385   0.813  0.1472  0.0362  0.0266
    8CHTO   H57 3267   4.824  10.321   0.901 -2.4762  1.7070  0.9586
    8CHTO   O21 3268   4.893  10.508   0.849  0.2670 -0.3247 -0.0853
    8CHTO   H37 3269   4.955  10.493   0.917 -1.1351  0.9867  1.5485
    8CHTO   C27 3270   4.910  10.304   0.699 -0.0478 -0.1554  0.5528
    8CHTO   H55 3271   4.920  10.366   0.608  2.0506 -1.9457 -0.4917
    8CHTO    N5 3272   5.041  10.256   0.747 -0.5550 -0.5397 -0.2676
    8CHTO   H43 3273   5.032  10.180   0.824 -3.7566 -1.8142 -1.8074
    8CHTO   H44 3274   5.103  10.217   0.668  0.3004 -1.2781  0.7549
    8CHTO   C25 3275   4.824  10.172   0.668  0.1035 -0.4178 -1.3561
    8CHTO   H53 3276   4.797  10.119   0.760 -0.2481  1.4009 -0.3951
    8CHTO   O17 3277   4.693  10.201   0.622  0.2067 -0.2846  0.9979
    8CHTO   C32 3278   4.623  10.288   0.716 -0.2502  0.3383  0.6322
    8CHTO   H60 3279   4.606  10.228   0.806 -0.2684 -0.4354  0.1131
    8CHTO   C36 3280   4.486  10.318   0.656 -0.0771  0.3413 -0.0082
    8CHTO   O25 3281   4.409  10.198   0.653  0.4145  0.3535 -0.0353
    8CHTO   H40 3282   4.339  10.211   0.592  0.1408 -1.2399 -0.0850
    8CHTO   O15 3283   4.893  10.081   0.563  0.0371  0.1285  0.2272
    8CHTO   C19 3284   4.919  10.075   0.420 -0.5470 -0.0969 -0.3438
    8CHTO   H47 3285   4.824  10.034   0.383 -0.5952 -0.6104  0.3362
    8CHTO   C20 3286   4.938  10.216   0.356  0.1851  0.0683 -0.3321
    8CHTO   H48 3287   5.007  10.276   0.418  0.3253  0.3287 -0.7372
    8CHTO   O19 3288   4.811  10.280   0.357 -0.5230 -0.2870 -0.2531
    8CHTO   H35 3289   4.787  10.275   0.447  0.7998  1.7833  0.2508
    8CHTO   C21 3290   4.993  10.212   0.206 -0.0491  0.7519 -0.1201
    8CHTO   H49 3291   4.913  10.192   0.135  0.5968 -0.9046 -0.3973
    8CHTO    N4 3292   5.045  10.345   0.146  0.1678 -0.1801 -0.4768
    8CHTO   H41 3293   4.961  10.412   0.135  1.1433  0.8146 -1.9869
    8CHTO   H42 3294   5.122  10.392   0.206 -1.8425  2.5587  0.0941
    8CHTO   C22 3295   5.102  10.099   0.191  0.5980 -0.6580  0.4165
    8CHTO   H50 3296   5.195  10.144   0.224  1.7144 -1.6815 -1.2585
    8CHTO   O14 3297   5.059   9.973   0.242  0.2513 -0.1848 -0.4875
    8CHTO   C23 3298   5.031   9.979   0.381  0.4026 -0.6065 -0.8562
    8CHTO   H51 3299   5.123   9.998   0.437 -0.1593  0.1291 -0.1740
    8CHTO   C34 3300   5.004   9.837   0.418  0.5778  0.5689 -0.2123
    8CHTO   O23 3301   4.893   9.784   0.342  0.2068 -0.2728  0.2715
    8CHTO   H38 3302   4.846   9.724   0.396  0.3656 -0.1083  0.5939
    8CHTO   O16 3303   5.130  10.072   0.052  0.2459  0.7689  0.0982
    8CHTO   C24 3304   5.266   9.986   0.020  0.0166 -0.0158 -0.7633
    8CHTO   H52 3305   5.331   9.974   0.106 -0.1782 -1.7189 -0.8362
    8CHTO   C26 3306   5.345  10.073  -0.081  0.0686  0.0424 -0.3148
    8CHTO   H54 3307   5.283  10.085  -0.173 -0.3999  1.1448  0.1457
    8CHTO   O20 3308   5.377  10.197  -0.020  0.3043  0.1524 -0.1474
    8CHTO   H36 3309   5.424  10.247  -0.084 -1.7828  0.1155 -1.7911
    8CHTO   C30 3310   5.478  10.007  -0.127  0.1692  0.2726 -0.7252
    8CHTO   H58 3311   5.546  10.010  -0.040 -1.7339  1.8772  0.7507
    8CHTO    N6 3312   5.553  10.087  -0.230  0.0754 -0.0996 -0.4980
    8CHTO   H45 3313   5.544  10.190  -0.199  3.7097  0.5048 -1.2476
    8CHTO   H46 3314   5.496  10.080  -0.322 -0.7296 -3.2812  0.1878
    8CHTO   C33 3315   5.455   9.859  -0.165 -0.3312  0.3711  0.2068
    8CHTO   H61 3316   5.398   9.861  -0.259 -0.8063  0.0109  0.4828
    8CHTO   O18 3317   5.380   9.784  -0.064 -0.1467 -0.2162  0.4344
    8CHTO   C28 3318   5.245   9.837  -0.041 -0.1584 -0.4260  0.4718
    8CHTO   H56 3319   5.188   9.843  -0.133 -2.1890  3.1810  1.8825
    8CHTO   C35 3320   5.179   9.733   0.062 -0.5955 -0.0823 -0.1462
    8CHTO   O24 3321   5.255   9.696   0.182  0.2532 -0.8564 -0.5501
    8CHTO   H39 3322   5.276   9.773   0.231 -1.7479 -0.4849 -0.2204
    8CHTO    O9 3323   5.580   9.792  -0.200  0.4157  0.1494 -0.1549
    8CHTO   C13 3324   5.558   9.658  -0.269 -0.8653 -0.2703  0.3220
    8CHTO   H26 3325   5.464   9.668  -0.328 -0.8187  1.4171  0.5119
    8CHTO   C11 3326   5.546   9.539  -0.160  0.8283  0.4973  0.9239
    8CHTO   H24 3327   5.439   9.525  -0.138  1.2940 -0.7749  2.4358
    8CHTO    O8 3328   5.604   9.580  -0.037 -0.0087  0.1063  0.4213
    8CHTO    H3 3329   5.554   9.633   0.022  0.0911  0.5179  0.1377
    8CHTO    C9 3330   5.590   9.405  -0.221  0.1631 -0.5616 -0.6309
    8CHTO   H22 3331   5.545   9.397  -0.321 -1.1740  0.3274 -0.1120
    8CHTO    N2 3332   5.570   9.290  -0.129 -0.5291  0.6978 -0.7919
    8CHTO   H10 3333   5.592   9.194  -0.174  0.9438  0.9872 -0.6865
    8CHTO   H11 3334   5.467   9.287  -0.097  0.1132 -0.1764  1.2736
    8CHTO    C7 3335   5.751   9.431  -0.246 -0.1964  0.2140 -0.3249
    8CHTO   H20 3336   5.779   9.340  -0.303 -1.8439  0.9154 -2.2788
    8CHTO    O4 3337   5.774   9.555  -0.326  0.5086  0.2508  1.0849
    8CHTO   C14 3338   5.663   9.626  -0.381 -0.2496 -1.0568  0.2326
    8CHTO   H27 3339   5.602   9.570  -0.455 -0.2695 -0.7401  0.0047
    8CHTO   C18 3340   5.726   9.746  -0.463 -0.4244  0.2767 -0.2357
    8CHTO   O13 3341   5.623   9.824  -0.536  0.8498  0.1922 -0.0624
    8CHTO    H7 3342   5.644   9.915  -0.531  2.1647 -0.0407 -1.0126
    8CHTO    O2 3343   5.840   9.442  -0.108 -0.5689  0.0013 -0.5413
    8CHTO    C1 3344   5.980   9.433  -0.130  0.2488 -0.2131 -0.2190
    8CHTO   H14 3345   6.031   9.465  -0.037  1.1528 -1.6040 -0.2299
    8CHTO    C2 3346   6.054   9.521  -0.250  0.5626 -0.0888 -0.3943
    8CHTO   H15 3347   6.013   9.494  -0.348  0.2997  0.3665 -0.4109
    8CHTO    O6 3348   6.026   9.659  -0.231 -0.3155  0.1854 -0.8371
    8CHTO    H1 3349   6.030   9.676  -0.139  1.6866 -0.5595 -0.7672
    8CHTO    C3 3350   6.206   9.503  -0.249 -0.2792 -0.1824  0.2599
    8CHTO   H16 3351   6.241   9.551  -0.156  1.4502  0.0006 -0.4624
    8CHTO    N1 3352   6.288   9.568  -0.357  0.1034  0.8977 -0.2112
    8CHTO    H8 3353   6.270   9.674  -0.360 -1.3328  0.6236 -2.0532
    8CHTO    H9 3354   6.253   9.534  -0.453  1.1463 -1.2652  0.1338
    8CHTO    C4 3355   6.248   9.347  -0.229 -0.0804  0.2548 -0.2545
    8CHTO   H17 3356   6.244   9.291  -0.322  1.6449 -1.0203  0.4125
    8CHTO    O1 3357   6.164   9.275  -0.134 -0.0107  0.3030  0.1631
    8CHTO    C5 3358   6.020   9.283  -0.130 -0.4195 -0.4050  0.2096
    8CHTO   H18 3359   5.974   9.240  -0.219  1.2594  0.5722 -1.1840
    8CHTO   C16 3360   5.968   9.211  -0.003 -0.5240  0.3935  0.2042
    8CHTO   O11 3361   6.043   9.256   0.113 -0.5652 -0.1972 -0.4189
    8CHTO    H5 3362   5.981   9.317   0.148 -1.2301 -0.5497 -0.9636
    8CHTO    O3 3363   6.380   9.328  -0.181  0.1123 -0.8455  0.5787
    8CHTO    C6 3364   6.444   9.206  -0.217  0.0378  0.2332  0.3527
    8CHTO   H19 3365   6.391   9.141  -0.287 -0.7321  0.5601  0.6295
    8CHTO    C8 3366   6.587   9.251  -0.276  0.5400 -0.6610 -0.1964
    8CHTO   H21 3367   6.641   9.316  -0.208  0.1693  0.5465 -1.0393
    8CHTO    O7 3368   6.560   9.323  -0.399 -0.2470 -0.1647  0.2246
    8CHTO    H2 3369   6.591   9.412  -0.393  0.0907 -0.1426 -1.7226
    8CHTO   C12 3370   6.675   9.124  -0.310 -0.1055 -0.4868  0.3728
    8CHTO   H25 3371   6.630   9.070  -0.396 -1.9190 -0.9992  1.6175
    8CHTO    N3 3372   6.807   9.166  -0.360 -0.4476  0.4892  0.3613
    8CHTO   H12 3373   6.801   9.187  -0.465 -1.1919 -1.1747  0.0493
    8CHTO   H13 3374   6.878   9.084  -0.355 -1.6487 -0.6212 -0.3851
    8CHTO   C15 3375   6.673   9.020  -0.189  0.5325  0.4523  0.2966
    8CHTO   H28 3376   6.745   9.049  -0.113  2.1069 -0.3177 -0.8605
    8CHTO   O10 3377   6.707   8.865  -0.232 -0.2487  0.4458 -0.1478
    8CHTO    H4 3378   6.719   8.847  -0.324 -0.9048 -0.6525 -0.0279
    8CHTO    O5 3379   6.542   8.997  -0.129 -0.3575 -0.5362 -0.5940
    8CHTO   C10 3380   6.478   9.118  -0.084  0.2565  0.5142 -0.0912
    8CHTO   H23 3381   6.531   9.170  -0.005  0.1419  0.3252  0.1105
    8CHTO   C17 3382   6.348   9.066  -0.020 -0.7801 -0.1910 -0.0602
    8CHTO   O12 3383   6.246   9.004  -0.094 -0.3496  0.5923 -0.1113
    8CHTO    H6 3384   6.169   8.996  -0.041  0.7961  2.3541  1.9142
    9CHTO  H203 3385   7.566   3.237   1.980 -0.4473 -0.8786 -1.2906
    9CHTO   O82 3386   7.510   3.310   1.964 -0.0667 -0.1855  0.4844
    9CHTO  C123 3387   7.572   3.421   2.031  0.0430 -0.1347 -0.8101
    9CHTO  H227 3388   7.636   3.383   2.112  0.7207  1.1497 -0.7213
    9CHTO   O77 3389   7.666   3.472   1.931  0.1058 -0.2398 -0.7359
    9CHTO  C118 3390   7.750   3.587   1.975 -0.3330 -0.0286  0.7788
    9CHTO  H222 3391   7.809   3.574   2.067  1.9490  3.4347 -0.1210
    9CHTO  C125 3392   7.854   3.628   1.858  0.7410  0.5558  0.7646
    9CHTO   O84 3393   7.804   3.713   1.757 -0.6756  0.4122  0.1001
    9CHTO  H205 3394   7.870   3.775   1.731 -0.6481  0.8557  1.1783
    9CHTO  C114 3395   7.649   3.702   2.011 -0.1478 -0.0379 -0.2680
    9CHTO  H218 3396   7.597   3.736   1.921 -0.1504 -0.3615 -0.3875
    9CHTO  C116 3397   7.548   3.653   2.121 -0.1826 -0.8305  1.2550
    9CHTO  H220 3398   7.609   3.629   2.210  0.6876 -3.4983 -0.0071
    9CHTO   O79 3399   7.454   3.758   2.160  0.4533 -0.1692 -0.5028
    9CHTO  H201 3400   7.428   3.741   2.248  0.7616 -4.5715 -1.1469
    9CHTO  C120 3401   7.470   3.525   2.077  0.0530 -0.6127  0.3802
    9CHTO  H224 3402   7.409   3.566   1.994 -2.0078  0.0110  2.1651
    9CHTO   N21 3403   7.379   3.472   2.177  0.1828 -0.3275 -0.1278
    9CHTO  H211 3404   7.292   3.420   2.140  0.9071 -1.6703  0.0113
    9CHTO  H212 3405   7.433   3.414   2.251  1.5698  1.9242  0.6694
    9CHTO   O75 3406   7.726   3.813   2.063  0.2836 -0.1118 -0.2520
    9CHTO  C112 3407   7.683   3.958   1.994  0.6326  0.3132  0.6219
    9CHTO  H216 3408   7.574   3.963   1.980  0.4911 -0.2720  1.4847
    9CHTO   O73 3409   7.754   3.972   1.874  0.0415 -0.0259 -0.5508
    9CHTO  C113 3410   7.707   4.082   1.794  0.4468 -0.2331 -0.4009
    9CHTO  H217 3411   7.601   4.071   1.762  1.1737 -0.7060 -2.7889
    9CHTO  C124 3412   7.786   4.096   1.667  0.0283  0.4416  0.0051
    9CHTO   O83 3413   7.929   4.066   1.671 -0.6122  0.2261  0.4937
    9CHTO  H204 3414   7.974   4.137   1.629 -1.9776  0.4659 -0.6112
    9CHTO  C109 3415   7.718   4.221   1.864  0.0779 -0.1746 -0.3392
    9CHTO  H213 3416   7.825   4.247   1.861 -0.1852  1.0925  0.6912
    9CHTO  C110 3417   7.672   4.214   2.013  0.1397  0.4607 -0.7325
    9CHTO  H214 3418   7.563   4.217   2.011  0.1419  0.3495 -1.3394
    9CHTO   O78 3419   7.704   4.337   2.078  0.1589 -0.4241  0.0814
    9CHTO  H200 3420   7.794   4.345   2.105 -0.3688  0.4952  1.5994
    9CHTO  C111 3421   7.724   4.078   2.081  0.0901 -0.0987 -0.1046
    9CHTO  H215 3422   7.834   4.079   2.078  0.2289  5.2753  1.7994
    9CHTO   N19 3423   7.682   4.067   2.217  0.1349  0.5581 -0.0016
    9CHTO  H207 3424   7.577   4.047   2.231  0.2937 -0.7557 -0.5944
    9CHTO  H208 3425   7.704   4.161   2.265 -0.5352  1.4416 -1.3833
    9CHTO   O74 3426   7.642   4.326   1.800  0.1769 -0.1364 -0.1967
    9CHTO  C115 3427   7.737   4.458   1.769 -0.3487  0.8184 -0.1382
    9CHTO  H219 3428   7.829   4.456   1.827 -0.5275  0.1844  0.1324
    9CHTO   O76 3429   7.775   4.460   1.617 -0.1635  0.5304 -0.4475
    9CHTO  C122 3430   7.671   4.507   1.528  0.5311  0.1209 -0.2264
    9CHTO  H226 3431   7.601   4.424   1.516  1.5194 -0.9734  1.3751
    9CHTO  C126 3432   7.749   4.539   1.390 -0.1937  0.9482  0.6560
    9CHTO   O85 3433   7.852   4.638   1.398 -0.0054 -0.3474 -0.3617
    9CHTO  H206 3434   7.913   4.615   1.466  4.7841  3.0992 -3.1808
    9CHTO  C121 3435   7.600   4.640   1.576 -0.1067  0.4827  0.6069
    9CHTO  H225 3436   7.670   4.726   1.577 -0.5380  0.8368  1.7062
    9CHTO   O81 3437   7.487   4.676   1.496 -0.2844 -0.1542 -0.3529
    9CHTO  H202 3438   7.508   4.684   1.404 -0.4407 -1.0434 -0.4721
    9CHTO  C119 3439   7.543   4.621   1.721 -0.5669 -0.2754  0.3758
    9CHTO  H223 3440   7.500   4.718   1.743  2.1897  0.9613  0.5925
    9CHTO  C117 3441   7.660   4.590   1.825  0.2959 -0.3063 -0.6068
    9CHTO  H221 3442   7.629   4.566   1.927  0.0172  2.5542  0.0370
    9CHTO   N20 3443   7.759   4.703   1.844 -0.3483  0.1302 -0.0705
    9CHTO  H209 3444   7.768   4.767   1.757 -0.0116 -0.5620 -0.5519
    9CHTO  H210 3445   7.743   4.760   1.934 -0.4848  0.0052 -0.0158
    9CHTO   O80 3446   7.411   4.518   1.727  0.0959 -0.1115  0.5936
    9CHTO  C103 3447   7.305   4.537   1.833  0.8145  0.1944  0.1594
    9CHTO  H190 3448   7.238   4.452   1.841 -1.1885  1.8774  2.3634
    9CHTO  C101 3449   7.353   4.562   1.975  0.2588 -1.2134  0.3622
    9CHTO  H188 3450   7.422   4.646   1.983 -1.7417  0.3962  1.1861
    9CHTO   O68 3451   7.434   4.453   2.029 -0.2294 -0.0186 -0.3269
    9CHTO  H168 3452   7.492   4.414   1.967  0.6883  2.4575 -1.1045
    9CHTO   C99 3453   7.230   4.609   2.071  0.6668  0.0300 -0.2738
    9CHTO  H186 3454   7.158   4.527   2.087  1.2504 -0.0912  1.9672
    9CHTO   N17 3455   7.283   4.646   2.212  0.2085 -0.0126  0.6580
    9CHTO  H174 3456   7.333   4.567   2.265  1.9647 -0.2769 -1.3414
    9CHTO  H175 3457   7.216   4.697   2.281 -0.3736  0.7990 -0.4924
    9CHTO   C97 3458   7.146   4.728   2.010  0.2711 -0.5048  0.0121
    9CHTO  H184 3459   7.216   4.812   2.005  1.7054 -1.7255 -1.0779
    9CHTO   O64 3460   7.101   4.686   1.880 -0.1283  0.0111  0.0041
    9CHTO  C104 3461   7.212   4.659   1.790  0.7664 -0.8703 -0.4382
    9CHTO  H191 3462   7.267   4.752   1.777  1.4224 -0.8375  2.4196
    9CHTO  C108 3463   7.150   4.622   1.652 -0.0163  0.2966 -0.1093
    9CHTO   O71 3464   7.091   4.493   1.640 -0.9852 -0.0986 -0.3907
    9CHTO  H171 3465   7.037   4.462   1.569  0.5443 -0.6212 -1.3376
    9CHTO   O62 3466   7.032   4.758   2.097  0.4407  0.1453 -0.3286
    9CHTO   C91 3467   6.948   4.869   2.055 -0.4730  0.6217 -0.3483
    9CHTO  H178 3468   6.953   4.872   1.947  0.5452 -1.1133 -0.3623
    9CHTO   C92 3469   7.019   4.989   2.128 -0.5400 -0.3081  0.0199
    9CHTO  H179 3470   7.128   4.989   2.111 -0.3364  2.0540  1.1704
    9CHTO   O66 3471   6.978   5.104   2.056 -0.2993  0.0982  0.3756
    9CHTO  H166 3472   7.017   5.177   2.101 -0.1281  0.2006  0.0696
    9CHTO   C93 3473   6.967   5.010   2.278 -0.5099  0.5048  0.1093
    9CHTO  H180 3474   7.001   5.113   2.295 -0.7025  0.8199 -1.3511
    9CHTO   N16 3475   7.034   4.925   2.374 -0.2301  0.2303 -0.2129
    9CHTO  H172 3476   6.993   4.825   2.375 -0.9411  0.5169 -0.4030
    9CHTO  H173 3477   7.047   4.973   2.470 -0.6048 -1.0054  0.4612
    9CHTO   C94 3478   6.814   5.012   2.279  0.5871  0.4416 -0.0766
    9CHTO  H181 3479   6.774   4.949   2.358 -0.7616  3.0027  1.3588
    9CHTO   O61 3480   6.744   4.979   2.156  0.2676  0.1471  0.1210
    9CHTO   C95 3481   6.793   4.864   2.086  0.3824 -0.1353  0.0790
    9CHTO  H182 3482   6.790   4.779   2.154 -0.4585  0.9978  1.4624
    9CHTO  C106 3483   6.695   4.849   1.967 -0.4444  0.2111 -0.5756
    9CHTO   O69 3484   6.723   4.729   1.897 -0.3072  0.0302 -0.4484
    9CHTO  H169 3485   6.794   4.741   1.837  0.7135 -1.5736  0.4033
    9CHTO   O63 3486   6.761   5.147   2.295 -0.3437  0.0046  0.0916
    9CHTO   C96 3487   6.621   5.152   2.381  0.6849  0.4765 -1.0005
    9CHTO  H183 3488   6.618   5.058   2.435 -0.0704 -0.1765 -2.1577
    9CHTO   C98 3489   6.492   5.174   2.302  0.1935  0.6870 -0.0918
    9CHTO  H185 3490   6.508   5.261   2.236  1.2257  0.8904  0.4185
    9CHTO   O67 3491   6.466   5.066   2.218  0.0712  0.0493  0.0186
    9CHTO  H167 3492   6.538   5.035   2.166 -0.7018  0.4121 -1.2886
    9CHTO  C102 3493   6.364   5.187   2.391 -0.5131  0.1000 -0.3025
    9CHTO  H189 3494   6.350   5.090   2.440  0.6432 -0.3659 -0.8724
    9CHTO   N18 3495   6.231   5.216   2.326 -0.5917 -0.0775 -0.5645
    9CHTO  H176 3496   6.238   5.323   2.308 -1.4833 -0.0451 -0.7011
    9CHTO  H177 3497   6.218   5.167   2.231  1.7492  0.9770 -1.4730
    9CHTO  C105 3498   6.390   5.286   2.505  0.4518 -0.4903  1.0184
    9CHTO  H192 3499   6.395   5.388   2.467  1.2429 -0.6889  0.5946
    9CHTO   O65 3500   6.512   5.263   2.572 -0.6807  0.3598  0.1763
    9CHTO  C100 3501   6.638   5.263   2.492  0.3004 -0.3335  0.1711
    9CHTO  H187 3502   6.662   5.363   2.454  2.7664 -0.6426  0.7829
    9CHTO  C107 3503   6.755   5.222   2.582  0.2704 -0.7526 -0.1364
    9CHTO   O70 3504   6.881   5.280   2.543  0.0699  0.2768 -0.4287
    9CHTO  H170 3505   6.952   5.234   2.582 -0.7627 -0.0086  0.7949
    9CHTO   O57 3506   6.262   5.274   2.623  0.7516  0.2532 -0.2988
    9CHTO   C85 3507   6.167   5.383   2.627 -0.4338 -0.0760  0.7702
    9CHTO  H157 3508   6.126   5.371   2.524  2.4575 -0.7512 -0.3398
    9CHTO   C83 3509   6.234   5.524   2.643  0.4656 -0.1278  0.0328
    9CHTO  H155 3510   6.291   5.540   2.551 -0.5205  0.4959 -0.4724
    9CHTO   O56 3511   6.326   5.520   2.754 -0.0183 -0.7441  0.9853
    9CHTO  H135 3512   6.379   5.598   2.757 -0.1115 -0.6839  1.0525
    9CHTO   C81 3513   6.124   5.633   2.661  0.1389 -0.3249  0.5703
    9CHTO  H153 3514   6.061   5.631   2.572 -0.2348 -0.4915  0.8392
    9CHTO   N14 3515   6.186   5.773   2.665  0.0362  0.2917 -0.0537
    9CHTO  H141 3516   6.287   5.765   2.699 -0.0557  1.1396  0.4375
    9CHTO  H142 3517   6.181   5.817   2.568 -0.7244 -0.3279 -0.2968
    9CHTO   C79 3518   6.040   5.605   2.780  0.4990  0.2334 -0.3169
    9CHTO  H151 3519   5.963   5.682   2.778  0.3225  0.0553 -0.4922
    9CHTO   O52 3520   5.969   5.483   2.753  0.3602  0.1182  0.9613
    9CHTO   C86 3521   6.048   5.363   2.737 -0.3872  0.7010 -0.2182
    9CHTO  H158 3522   6.081   5.343   2.841  2.3008  1.3742 -0.8920
    9CHTO   C90 3523   5.952   5.238   2.701 -0.2693 -0.6895  0.1542
    9CHTO   O60 3524   6.030   5.121   2.701  0.1112  0.1248 -0.2683
    9CHTO  H138 3525   6.073   5.104   2.620  0.8199 -1.3074  0.3811
    9CHTO   O50 3526   6.092   5.600   2.915 -0.4728  0.8142 -0.6565
    9CHTO   C73 3527   6.068   5.638   3.049  0.5170 -0.9682 -0.1278
    9CHTO  H145 3528   5.962   5.635   3.077  0.8540 -0.8634  1.2276
    9CHTO   C74 3529   6.117   5.786   3.068  0.3943  0.1275  0.9012
    9CHTO  H146 3530   6.060   5.841   2.992  0.5849  2.1373  2.1545
    9CHTO   O54 3531   6.070   5.843   3.192 -0.1118  0.3015  0.2876
    9CHTO  H133 3532   6.066   5.936   3.191 -1.6745  0.2511 -2.0863
    9CHTO   C75 3533   6.275   5.800   3.053  0.1503  0.2278  0.5910
    9CHTO  H147 3534   6.305   5.771   2.951  1.5716  0.0163  1.0595
    9CHTO   N13 3535   6.331   5.932   3.082  0.0187  0.2627 -0.1104
    9CHTO  H139 3536   6.258   6.009   3.103 -1.4871 -1.0606 -0.3142
    9CHTO  H140 3537   6.396   5.930   3.168  0.8658  1.2033 -0.7167
    9CHTO   C76 3538   6.342   5.692   3.149  0.0812 -0.7263 -0.2347
    9CHTO  H148 3539   6.325   5.718   3.253  2.6239  1.2795 -0.2760
    9CHTO   O49 3540   6.289   5.561   3.121  0.4951 -0.1638 -0.6844
    9CHTO   C77 3541   6.146   5.549   3.140 -0.4004  0.0592  0.1415
    9CHTO  H149 3542   6.119   5.559   3.245  0.1393 -0.9176  0.3823
    9CHTO   C88 3543   6.118   5.398   3.124  0.7951 -0.6378 -0.3382
    9CHTO   O58 3544   5.977   5.349   3.164  0.4168 -0.4830  0.2211
    9CHTO  H136 3545   5.908   5.413   3.163 -1.7510 -2.7351 -0.4075
    9CHTO   O51 3546   6.477   5.684   3.122  0.3502 -0.3233 -0.5039
    9CHTO   C78 3547   6.562   5.550   3.178  0.5112  0.1790 -0.2415
    9CHTO  H150 3548   6.493   5.464   3.165  0.8746  0.1251 -1.8676
    9CHTO   C80 3549   6.592   5.562   3.331  0.3118 -0.5364 -0.2989
    9CHTO  H152 3550   6.622   5.667   3.349 -0.1900 -0.6680  1.3485
    9CHTO   O55 3551   6.469   5.538   3.408 -0.0882  0.3769 -0.0766
    9CHTO  H134 3552   6.474   5.600   3.478  0.5552 -0.5509  0.7185
    9CHTO   C84 3553   6.697   5.453   3.379 -0.2283  0.4663 -0.1320
    9CHTO  H156 3554   6.653   5.353   3.382  0.0016  0.4265  3.0397
    9CHTO   N15 3555   6.753   5.487   3.514  0.3503 -0.0940  0.1146
    9CHTO  H143 3556   6.740   5.410   3.587  1.8146  0.5934  1.1121
    9CHTO  H144 3557   6.854   5.521   3.523 -0.2046  2.0230 -1.2129
    9CHTO   C87 3558   6.816   5.438   3.280  0.6251  0.1853  0.3491
    9CHTO  H159 3559   6.887   5.520   3.286  0.8504 -0.1017  1.7302
    9CHTO   O53 3560   6.764   5.422   3.121 -0.1662 -0.2590 -0.5306
    9CHTO   C82 3561   6.693   5.538   3.090  0.2132  0.0388  0.1127
    9CHTO  H154 3562   6.765   5.620   3.100  1.1709 -0.6464 -0.9570
    9CHTO   C89 3563   6.652   5.523   2.945 -0.0171 -0.3132 -0.4182
    9CHTO   O59 3564   6.629   5.642   2.877  0.1133  0.4899  0.5477
    9CHTO  H137 3565   6.535   5.649   2.876  0.1452  0.9221  0.8038
    9CHTO   O45 3566   6.907   5.307   3.302 -0.0713  0.0005 -0.3634
    9CHTO   C67 3567   7.025   5.296   3.212 -0.0110 -1.3515 -0.3515
    9CHTO  H124 3568   7.044   5.391   3.163 -0.7004 -0.2298  1.4717
    9CHTO   C65 3569   7.155   5.244   3.290 -0.1422  0.4397 -0.5391
    9CHTO  H122 3570   7.166   5.305   3.379 -1.0883 -1.8395  1.1890
    9CHTO   O44 3571   7.277   5.257   3.214  0.5333  0.0786 -0.0593
    9CHTO  H102 3572   7.347   5.232   3.272 -0.5526  0.4636  1.4503
    9CHTO   C63 3573   7.125   5.094   3.342 -0.4675 -0.1712 -0.2398
    9CHTO  H120 3574   7.027   5.090   3.392 -0.7290 -1.2345 -0.8192
    9CHTO   N11 3575   7.226   5.036   3.438 -0.5442 -0.4055  0.4134
    9CHTO  H108 3576   7.278   4.956   3.390  1.3159  0.5543  0.8038
    9CHTO  H109 3577   7.168   4.983   3.511 -1.6372  0.1590 -0.0303
    9CHTO   C61 3578   7.095   5.003   3.219 -0.0764 -0.6605  0.1881
    9CHTO  H118 3579   7.056   4.912   3.266 -2.7288  0.8958  1.0909
    9CHTO   O40 3580   6.986   5.050   3.136  0.3186  0.1838  0.9614
    9CHTO   C68 3581   6.984   5.192   3.097  0.5297  0.7353 -0.3343
    9CHTO  H125 3582   6.876   5.214   3.085 -0.8272 -4.4036  1.3312
    9CHTO   C72 3583   7.052   5.217   2.961 -0.1183 -0.4802  0.3937
    9CHTO   O48 3584   6.978   5.158   2.855 -0.8271 -0.0835  0.1810
    9CHTO  H105 3585   7.015   5.073   2.837  2.7581  1.3550  0.4685
    9CHTO   O38 3586   7.220   4.971   3.139  0.2861 -0.5606  0.4696
    9CHTO   C55 3587   7.239   4.839   3.089  0.5724 -0.3717  0.3621
    9CHTO  H112 3588   7.141   4.787   3.082 -0.4118  1.3976  0.7851
    9CHTO   C56 3589   7.332   4.759   3.184  0.3117 -0.3443  0.5729
    9CHTO  H113 3590   7.411   4.831   3.210 -0.4302  0.4998  0.4987
    9CHTO   O42 3591   7.270   4.744   3.319  0.9310  0.4811 -0.1674
    9CHTO  H100 3592   7.329   4.766   3.388 -2.1426  1.3480  2.3045
    9CHTO   C57 3593   7.394   4.622   3.134 -0.0147  0.0136 -0.3180
    9CHTO  H114 3594   7.318   4.543   3.135  1.0789 -1.0560  1.0092
    9CHTO   N10 3595   7.504   4.581   3.222  0.5486 -0.2806 -0.5034
    9CHTO  H106 3596   7.520   4.474   3.222  0.6470 -0.2734 -2.0937
    9CHTO  H107 3597   7.482   4.613   3.323  0.7521 -0.5861 -0.3636
    9CHTO   C58 3598   7.434   4.653   2.990 -0.3824  0.0045 -0.2147
    9CHTO  H115 3599   7.514   4.730   2.987  2.2942 -2.5918  1.8087
    9CHTO   O37 3600   7.321   4.699   2.910 -0.1657  0.1444 -0.5944
    9CHTO   C59 3601   7.290   4.834   2.940 -0.0826 -0.4984 -0.4324
    9CHTO  H116 3602   7.385   4.883   2.924 -0.2689 -0.1777 -0.5638
    9CHTO   C70 3603   7.181   4.886   2.840  0.0529 -0.5750  0.4641
    9CHTO   O46 3604   7.225   4.897   2.702 -0.2705 -0.3792  0.5209
    9CHTO  H103 3605   7.149   4.897   2.648  0.0128  0.7005  0.1151
    9CHTO   O39 3606   7.506   4.529   2.905 -0.2154  0.0736  0.4613
    9CHTO   C60 3607   7.427   4.426   2.840  0.0975  0.7270 -0.8529
    9CHTO  H117 3608   7.333   4.413   2.894  0.8764  1.0390  0.5974
    9CHTO   C62 3609   7.395   4.460   2.695 -0.1876  0.0319  1.1411
    9CHTO  H119 3610   7.348   4.561   2.700  1.3166  0.7589  0.7102
    9CHTO   O43 3611   7.509   4.502   2.618  0.2841  0.4601  0.0780
    9CHTO  H101 3612   7.564   4.431   2.594 -1.0108 -0.8773  0.9449
    9CHTO   C66 3613   7.307   4.348   2.618  0.4863 -0.4055 -0.8887
    9CHTO  H123 3614   7.217   4.328   2.677  0.2602 -1.3973 -1.5777
    9CHTO   N12 3615   7.263   4.392   2.486 -0.4629 -0.5559  1.1488
    9CHTO  H110 3616   7.164   4.434   2.483  0.4681  1.6681 -0.3621
    9CHTO  H111 3617   7.273   4.319   2.408  0.4077  2.3119 -1.5304
    9CHTO   C69 3618   7.396   4.217   2.617 -0.0278  0.0901  0.2778
    9CHTO  H126 3619   7.491   4.239   2.564  0.7258  0.0468  1.5662
    9CHTO   O41 3620   7.424   4.174   2.776 -0.5859 -0.2364  0.2385
    9CHTO   C64 3621   7.508   4.292   2.848  0.4237  0.6576  0.1814
    9CHTO  H121 3622   7.598   4.312   2.786  0.2310 -0.8694 -0.6163
    9CHTO   C71 3623   7.553   4.252   2.989 -0.1659  0.1101  0.2276
    9CHTO   O47 3624   7.446   4.257   3.092 -0.2211 -0.1887 -0.1893
    9CHTO  H104 3625   7.481   4.255   3.179  0.1423  2.4155 -0.2358
    9CHTO   O34 3626   7.322   4.103   2.547  0.6442 -0.0565  0.4680
    9CHTO   C49 3627   7.391   3.968   2.514  0.1706 -0.5009 -0.3777
    9CHTO   H91 3628   7.454   3.989   2.428  0.4337 -1.7037 -0.4805
    9CHTO   C47 3629   7.284   3.867   2.460 -0.2738 -0.1013 -0.6676
    9CHTO   H89 3630   7.345   3.781   2.424 -0.7573 -0.7585  0.0531
    9CHTO   O33 3631   7.200   3.912   2.347  0.2403 -0.1254 -0.0012
    9CHTO   H70 3632   7.125   3.856   2.340 -0.9482  1.5496 -1.1056
    9CHTO   C45 3633   7.185   3.818   2.587  0.2042  0.3886 -0.3872
    9CHTO   H87 3634   7.090   3.873   2.580 -0.3481 -0.4792  0.1871
    9CHTO    N8 3635   7.159   3.674   2.572  0.5142 -0.2435  0.2376
    9CHTO   H75 3636   7.066   3.658   2.624  0.2556 -2.2803 -0.7774
    9CHTO   H76 3637   7.235   3.621   2.627 -0.7498 -1.3602  0.9164
    9CHTO   C43 3638   7.254   3.865   2.723  0.2623 -0.6906  0.4077
    9CHTO   H85 3639   7.233   3.972   2.728 -0.3168 -0.6745 -1.7208
    9CHTO   O29 3640   7.392   3.838   2.737  0.0623  0.5175 -0.4544
    9CHTO   C50 3641   7.471   3.897   2.635 -0.5923 -0.3779  0.5824
    9CHTO   H92 3642   7.531   3.976   2.681  0.7073 -1.5862  1.0046
    9CHTO   C54 3643   7.589   3.804   2.579 -0.2759  0.7376  0.2683
    9CHTO   O36 3644   7.556   3.662   2.566 -0.1464  0.1756 -0.3359
    9CHTO   H72 3645   7.625   3.616   2.522 -2.0220 -2.4213 -0.6229
    9CHTO   O27 3646   7.180   3.822   2.840  0.0739 -0.3185 -0.1976
    9CHTO   C37 3647   7.198   3.844   2.980 -0.0979  0.6759  0.8463
    9CHTO   H79 3648   7.101   3.840   3.030  0.3340 -0.0113  1.6485
    9CHTO   C38 3649   7.290   3.739   3.043  0.0020 -0.2768 -0.7461
    9CHTO   H80 3650   7.382   3.739   2.983  0.8740  0.2750  0.5614
    9CHTO   O31 3651   7.214   3.615   3.047  0.1214 -0.4181  0.9596
    9CHTO   H68 3652   7.264   3.546   3.085  1.7370 -0.1058 -0.5145
    9CHTO   C39 3653   7.327   3.782   3.189  0.0633 -0.0419 -0.9042
    9CHTO   H81 3654   7.239   3.760   3.249  1.7545  0.9897  2.0265
    9CHTO    N7 3655   7.427   3.692   3.258 -0.5762  0.5811  0.0585
    9CHTO   H73 3656   7.382   3.675   3.355  0.0566 -0.9875  0.0803
    9CHTO   H74 3657   7.429   3.599   3.203 -0.4678  0.2122  0.6790
    9CHTO   C40 3658   7.383   3.929   3.216  0.2700 -0.6294 -0.5415
    9CHTO   H82 3659   7.485   3.930   3.178  1.0374  1.0524  1.4708
    9CHTO   O26 3660   7.300   4.020   3.138 -0.4066 -0.1051 -0.3296
    9CHTO   C41 3661   7.264   3.988   2.999  0.7064  0.9062 -0.3231
    9CHTO   H83 3662   7.359   3.990   2.944  1.3348 -2.1086  0.5712
    9CHTO   C52 3663   7.161   4.094   2.951 -0.7337  0.0448 -0.2101
    9CHTO   O35 3664   7.213   4.226   2.947  0.3277 -0.0593 -0.0377
    9CHTO   H71 3665   7.307   4.227   2.936  0.5638  0.9021  1.9066
    9CHTO   O28 3666   7.379   3.990   3.345  0.3260 -0.2925  0.2802
    9CHTO   C42 3667   7.265   4.018   3.428  0.2913 -0.0292 -0.3574
    9CHTO   H84 3668   7.317   4.027   3.524  0.9965  0.0011 -0.7385
    9CHTO   C44 3669   7.151   3.909   3.448 -0.8456  0.3607  0.5153
    9CHTO   H86 3670   7.116   3.885   3.347  2.9496 -1.2030 -0.5285
    9CHTO   O32 3671   7.211   3.788   3.505 -0.3830  0.8745  0.2484
    9CHTO   H69 3672   7.150   3.734   3.551 -0.4071 -0.0163 -0.7970
    9CHTO   C48 3673   7.038   3.971   3.537 -0.1071  0.1863  1.2514
    9CHTO   H90 3674   7.084   3.977   3.636  0.7761 -1.1756  0.9291
    9CHTO    N9 3675   6.913   3.879   3.545 -0.1852  0.4984 -0.5043
    9CHTO   H77 3676   6.938   3.779   3.577  0.1450  1.0563  1.0222
    9CHTO   H78 3677   6.821   3.918   3.585  0.3279  2.3272 -1.0522
    9CHTO   C51 3678   6.993   4.113   3.476  0.0340  0.4737  0.2256
    9CHTO   H93 3679   6.971   4.094   3.371  1.8305 -3.1761  0.4219
    9CHTO   O30 3680   7.107   4.194   3.493 -0.1870 -0.6023  0.3909
    9CHTO   C46 3681   7.212   4.164   3.400  0.2418 -0.2190  0.6507
    9CHTO   H88 3682   7.172   4.175   3.299  0.6315 -1.2208  0.3831
    9CHTO   C53 3683   7.319   4.270   3.416 -0.2591  0.1591 -0.0470
    9CHTO   O72 3684   7.262   4.401   3.406  0.2123  0.1898  0.5838
    9CHTO  H199 3685   7.205   4.429   3.338  0.7863  0.1926  0.0984
    9CHTO   O22 3686   6.892   4.179   3.557  0.3067 -0.1239  0.0788
    9CHTO   C31 3687   6.831   4.300   3.506  0.1999 -0.3441  0.0611
    9CHTO   H59 3688   6.731   4.307   3.553 -0.6333 -0.3334 -1.6967
    9CHTO   C29 3689   6.911   4.425   3.554 -0.1250 -0.0542 -0.6137
    9CHTO   H57 3690   7.019   4.425   3.533 -0.1032  0.4479 -0.5048
    9CHTO   O21 3691   6.897   4.425   3.696  0.0907  0.4873 -0.5302
    9CHTO   H37 3692   6.805   4.419   3.715 -0.4021  0.2764 -2.8344
    9CHTO   C27 3693   6.855   4.556   3.489 -0.8847 -0.8106 -0.3312
    9CHTO   H55 3694   6.750   4.564   3.520 -0.9394 -2.8086  0.1104
    9CHTO    N5 3695   6.922   4.682   3.529 -0.3577  0.9244 -0.3049
    9CHTO   H43 3696   7.028   4.664   3.522 -0.3724  0.8189 -0.2603
    9CHTO   H44 3697   6.890   4.769   3.474 -1.0955  2.1991  2.0662
    9CHTO   C25 3698   6.860   4.534   3.330  0.8300  0.4832 -0.3759
    9CHTO   H53 3699   6.960   4.497   3.303  0.8382 -0.2017  0.5987
    9CHTO   O17 3700   6.754   4.425   3.312  0.5223 -0.1676  0.3485
    9CHTO   C32 3701   6.798   4.295   3.353 -0.1268  0.5718 -0.1603
    9CHTO   H60 3702   6.892   4.282   3.299  1.0211  2.9460  1.2047
    9CHTO   C36 3703   6.682   4.198   3.323  0.0640 -0.0973  0.2472
    9CHTO   O25 3704   6.635   4.195   3.186  0.6056 -0.4531 -0.0022
    9CHTO   H40 3705   6.613   4.107   3.159 -0.6183 -0.5203  1.1639
    9CHTO   O15 3706   6.804   4.666   3.250 -0.3758 -0.4325  0.2145
    9CHTO   C19 3707   6.760   4.681   3.110  0.2548 -0.2964 -0.1868
    9CHTO   H47 3708   6.698   4.594   3.088 -0.0436 -0.0846 -0.1828
    9CHTO   C20 3709   6.680   4.810   3.089  0.1252  0.4811  0.3567
    9CHTO   H48 3710   6.741   4.899   3.106  0.3219  0.1928  1.1740
    9CHTO   O19 3711   6.572   4.815   3.181 -0.0338 -0.1359 -0.1385
    9CHTO   H35 3712   6.527   4.898   3.181  0.0512 -0.0574 -2.4291
    9CHTO   C21 3713   6.626   4.828   2.943 -0.6233  0.0501  0.3551
    9CHTO   H49 3714   6.556   4.746   2.923 -1.3575  0.3685  1.5820
    9CHTO    N4 3715   6.554   4.961   2.929  0.5090  0.2819 -0.1449
    9CHTO   H41 3716   6.554   4.991   2.825  2.4393 -0.4728 -0.3874
    9CHTO   H42 3717   6.602   5.036   2.989  0.0853  0.9561 -0.6457
    9CHTO   C22 3718   6.748   4.815   2.852 -0.1996  0.0709  0.0001
    9CHTO   H50 3719   6.814   4.899   2.876  0.4803 -0.2320 -0.7927
    9CHTO   O14 3720   6.818   4.695   2.872  0.0322  1.0638  0.5140
    9CHTO   C23 3721   6.871   4.680   3.004 -0.2485 -0.1970  0.0930
    9CHTO   H51 3722   6.944   4.761   3.016 -1.1356  0.8529 -1.4852
    9CHTO   C34 3723   6.960   4.554   3.000  0.9918  0.2277 -0.6296
    9CHTO   O23 3724   7.078   4.565   2.919  0.3165  0.3109  0.4476
    9CHTO   H38 3725   7.111   4.477   2.913  0.3936  0.4025 -0.6734
    9CHTO   O16 3726   6.726   4.842   2.708  0.0197 -0.2306  0.1728
    9CHTO   C24 3727   6.657   4.722   2.623 -0.3105  0.7107 -0.0788
    9CHTO   H52 3728   6.616   4.647   2.690  1.6620  0.6315  1.0967
    9CHTO   C26 3729   6.767   4.668   2.527 -0.6553 -0.3152  0.3727
    9CHTO   H54 3730   6.801   4.755   2.466  1.1635 -0.6861  0.8111
    9CHTO   O20 3731   6.881   4.626   2.612  0.2655  0.8255 -0.1677
    9CHTO   H36 3732   6.900   4.535   2.597 -1.0451  0.2543  1.5509
    9CHTO   C30 3733   6.714   4.567   2.422 -1.0258 -0.7222  0.6605
    9CHTO   H58 3734   6.697   4.473   2.476 -1.4722 -1.0243 -0.0052
    9CHTO    N6 3735   6.813   4.539   2.319  0.4949  0.2088 -0.1842
    9CHTO   H45 3736   6.793   4.584   2.223 -2.0963  0.4632  0.4620
    9CHTO   H46 3737   6.916   4.555   2.348  0.2066  1.5769  0.0924
    9CHTO   C33 3738   6.576   4.606   2.359  0.1212  0.4220  0.2919
    9CHTO   H61 3739   6.592   4.691   2.292 -2.2162  0.4974 -0.2052
    9CHTO   O18 3740   6.494   4.655   2.466  0.2214  0.1401 -0.3192
    9CHTO   C28 3741   6.538   4.772   2.533  0.7397 -0.9264  0.2427
    9CHTO   H56 3742   6.569   4.842   2.456  0.4880 -2.5921 -1.3925
    9CHTO   C35 3743   6.432   4.826   2.623  0.0910 -0.2964 -1.2029
    9CHTO   O24 3744   6.306   4.858   2.568  0.6537 -0.5375 -0.1675
    9CHTO   H39 3745   6.288   4.807   2.491  1.1798 -3.1672  1.4042
    9CHTO    O9 3746   6.513   4.506   2.284 -0.2135 -0.5239 -0.2914
    9CHTO   C13 3747   6.488   4.531   2.146  0.3950  0.5329  0.1854
    9CHTO   H26 3748   6.578   4.581   2.104  0.7160 -0.3386 -0.1799
    9CHTO   C11 3749   6.363   4.631   2.144  0.3817  0.0605  0.1487
    9CHTO   H24 3750   6.389   4.729   2.186  1.0344  0.1127 -0.3822
    9CHTO    O8 3751   6.256   4.579   2.227  0.0989 -0.1035  0.3536
    9CHTO    H3 3752   6.278   4.588   2.318  0.8169 -0.5488  0.2255
    9CHTO    C9 3753   6.326   4.645   1.994 -0.2979 -0.4962 -0.4104
    9CHTO   H22 3754   6.423   4.664   1.947  1.4278 -0.8380  2.8685
    9CHTO    N2 3755   6.243   4.760   1.960 -0.2945 -0.0296 -0.0365
    9CHTO   H10 3756   6.289   4.825   1.887 -0.7795  0.9160  0.4966
    9CHTO   H11 3757   6.217   4.821   2.045 -1.7040  1.6579 -1.6353
    9CHTO    C7 3758   6.263   4.505   1.955 -0.1812  0.8767  0.6228
    9CHTO   H20 3759   6.292   4.503   1.848  0.7212  0.1024  0.8735
    9CHTO    O4 3760   6.336   4.389   2.004  0.5855  1.0396  0.4213
    9CHTO   C14 3761   6.468   4.408   2.055  0.1990 -0.1954  0.1027
    9CHTO   H27 3762   6.542   4.426   1.974  0.8842 -0.7706  0.5905
    9CHTO   C18 3763   6.514   4.279   2.130 -0.4117 -0.1995  0.7558
    9CHTO   O13 3764   6.653   4.272   2.175  0.0890 -0.2802 -0.4924
    9CHTO    H7 3765   6.666   4.197   2.229 -2.1308  1.7704  3.0880
    9CHTO    O2 3766   6.112   4.495   1.967  0.4906  0.2593  0.2710
    9CHTO    C1 3767   6.024   4.458   2.074  0.0703 -0.5062  0.5471
    9CHTO   H14 3768   6.052   4.516   2.164  0.9886 -1.5423  0.9472
    9CHTO    C2 3769   6.022   4.309   2.110  0.6767 -0.6375  0.2290
    9CHTO   H15 3770   6.012   4.247   2.019  1.7902 -1.3615  0.5928
    9CHTO    O6 3771   6.152   4.273   2.164 -0.6100 -0.2979 -0.2881
    9CHTO    H1 3772   6.198   4.208   2.116  0.8982  1.3417 -1.1280
    9CHTO    C3 3773   5.911   4.281   2.223 -0.0056  0.6420  0.1861
    9CHTO   H16 3774   5.933   4.323   2.322 -0.5655  0.7012  0.2862
    9CHTO    N1 3775   5.901   4.136   2.252 -0.1487 -0.3846  0.5679
    9CHTO    H8 3776   5.805   4.093   2.228  0.8803 -0.5134 -3.8508
    9CHTO    H9 3777   5.976   4.086   2.193  0.2394  0.0011  0.7292
    9CHTO    C4 3778   5.773   4.335   2.168 -0.6048 -0.7339  0.3457
    9CHTO   H17 3779   5.747   4.279   2.079 -2.3644  0.5553  0.0101
    9CHTO    O1 3780   5.787   4.476   2.134  0.0341  0.0916  0.3351
    9CHTO    C5 3781   5.881   4.511   2.037 -0.2139 -0.2965 -0.7140
    9CHTO   H18 3782   5.842   4.470   1.943 -0.5891  0.3665 -0.8497
    9CHTO   C16 3783   5.872   4.668   2.025 -0.4234 -0.2009 -0.2890
    9CHTO   O11 3784   5.753   4.706   1.952 -0.0205  0.8890 -0.1908
    9CHTO    H5 3785   5.679   4.653   1.978  0.6584 -0.0540 -0.1393
    9CHTO    O3 3786   5.669   4.324   2.265  0.3633 -0.2621  0.1132
    9CHTO    C6 3787   5.542   4.390   2.241 -0.7330  0.5890 -0.5531
    9CHTO   H19 3788   5.558   4.485   2.189  4.2910  1.1953  1.8474
    9CHTO    C8 3789   5.442   4.295   2.158 -0.1666 -0.2884  0.1182
    9CHTO   H21 3790   5.458   4.194   2.195 -0.3879 -0.3828 -0.0468
    9CHTO    O7 3791   5.499   4.302   2.029 -0.0965  0.7674 -0.2345
    9CHTO    H2 3792   5.500   4.217   1.988  1.9948 -0.1984  1.7550
    9CHTO   C12 3793   5.298   4.345   2.160  0.4585  0.3313 -0.1470
    9CHTO   H25 3794   5.297   4.436   2.096 -1.5359 -1.4610 -2.7808
    9CHTO    N3 3795   5.202   4.242   2.098 -0.4255 -0.3157 -0.1334
    9CHTO   H12 3796   5.211   4.149   2.153  4.4886  0.0440 -0.1473
    9CHTO   H13 3797   5.102   4.282   2.091  0.0163  0.3211 -3.1860
    9CHTO   C15 3798   5.251   4.386   2.305 -0.3014  0.0479 -0.5975
    9CHTO   H28 3799   5.227   4.306   2.375  2.2883  0.8542  1.3129
    9CHTO   O10 3800   5.118   4.481   2.302  0.0002  0.0297 -0.2132
    9CHTO    H4 3801   5.123   4.546   2.235 -1.0203 -0.8604 -1.1690
    9CHTO    O5 3802   5.349   4.478   2.369 -0.6652  0.3019  0.0071
    9CHTO   C10 3803   5.482   4.421   2.384 -0.3923 -0.2461  0.8970
    9CHTO   H23 3804   5.461   4.326   2.432 -2.3503  0.2588  1.0865
    9CHTO   C17 3805   5.555   4.516   2.478 -0.1287  0.0461 -0.2590
    9CHTO   O12 3806   5.690   4.486   2.496 -0.3018  0.2083 -0.5689
    9CHTO    H6 3807   5.734   4.500   2.415 -3.0405 -1.9509 -2.5383
   10CHTO  H203 3808   4.029   6.986   2.254  1.5547  2.6553  0.2433
   10CHTO   O82 3809   3.970   7.039   2.205 -0.5348  0.3743  0.1860
   10CHTO  C123 3810   3.867   7.108   2.281  0.5400 -0.2844  0.4673
   10CHTO  H227 3811   3.918   7.188   2.337  0.6203  0.1606 -0.2385
   10CHTO   O77 3812   3.786   7.170   2.176 -0.5613  0.1383  0.2593
   10CHTO  C118 3813   3.668   7.239   2.215  0.9286 -0.5248  0.5264
   10CHTO  H222 3814   3.694   7.324   2.281 -0.1645 -1.7650  2.5975
   10CHTO  C125 3815   3.604   7.296   2.076  0.0781 -0.4734  0.2155
   10CHTO   O84 3816   3.660   7.419   2.043 -0.1496 -0.0066  0.2880
   10CHTO  H205 3817   3.632   7.448   1.958  2.6906  0.7779 -0.4667
   10CHTO  C114 3818   3.569   7.139   2.280  0.1362 -0.4260  0.0598
   10CHTO  H218 3819   3.550   7.056   2.212  0.8254 -0.4834 -0.0688
   10CHTO  C116 3820   3.639   7.063   2.401 -0.4615  0.5213 -0.7096
   10CHTO  H220 3821   3.634   7.126   2.493  1.4609 -0.3047 -0.0170
   10CHTO   O79 3822   3.557   6.952   2.444 -0.1303  0.0601 -0.3903
   10CHTO  H201 3823   3.552   6.947   2.538  0.2203  1.2759 -0.2946
   10CHTO  C120 3824   3.791   7.007   2.370  0.1844  0.1940 -0.1475
   10CHTO  H224 3825   3.775   6.908   2.320 -1.0803 -0.1382  0.8869
   10CHTO   N21 3826   3.868   6.965   2.492  0.0678  0.3560  0.3648
   10CHTO  H211 3827   3.846   6.863   2.522  1.6608 -0.1807 -0.2503
   10CHTO  H212 3828   3.865   7.035   2.573  0.2635 -0.4966  1.1220
   10CHTO   O75 3829   3.451   7.221   2.303  0.3920  0.3387  0.2138
   10CHTO  C112 3830   3.443   7.314   2.438  0.8761  0.0588 -0.0517
   10CHTO  H216 3831   3.545   7.354   2.451  1.2762 -0.6539 -0.9297
   10CHTO   O73 3832   3.404   7.223   2.547  0.2511 -0.1785 -0.0197
   10CHTO  C113 3833   3.397   7.286   2.673 -0.3255 -0.1761  0.1693
   10CHTO  H217 3834   3.487   7.345   2.699  0.7795 -1.8390  0.1850
   10CHTO  C124 3835   3.391   7.171   2.780 -0.1021 -0.5025 -0.0341
   10CHTO   O83 3836   3.490   7.075   2.758 -0.1044  0.2982  0.1738
   10CHTO  H204 3837   3.548   7.067   2.832  0.8365 -0.5805 -0.6434
   10CHTO  C109 3838   3.267   7.374   2.666  0.3016 -0.8206 -0.3812
   10CHTO  H213 3839   3.182   7.306   2.650 -1.3213  1.8503 -3.6797
   10CHTO  C110 3840   3.276   7.476   2.558 -0.1854  0.8371  0.3218
   10CHTO  H214 3841   3.335   7.564   2.583 -0.5148  1.4565 -1.0015
   10CHTO   O78 3842   3.145   7.539   2.535 -0.6109  0.8639  0.5486
   10CHTO  H200 3843   3.101   7.511   2.457 -0.1415 -0.3172  0.7072
   10CHTO  C111 3844   3.325   7.417   2.419 -0.2441  0.9490 -0.4778
   10CHTO  H215 3845   3.246   7.351   2.379  0.0954  0.7374 -0.7991
   10CHTO   N19 3846   3.359   7.516   2.317  1.0071  0.2591 -0.5188
   10CHTO  H207 3847   3.262   7.551   2.285 -0.1341 -2.1906  0.1733
   10CHTO  H208 3848   3.417   7.598   2.356  0.0844 -0.4434  2.3905
   10CHTO   O74 3849   3.250   7.445   2.799 -0.4607 -0.4634  0.1996
   10CHTO  C115 3850   3.120   7.486   2.826 -0.5286 -0.3318  0.2538
   10CHTO  H219 3851   3.090   7.568   2.761  1.3389 -0.5930 -0.9776
   10CHTO   O76 3852   3.012   7.363   2.797 -0.8234 -0.7159 -0.2057
   10CHTO  C122 3853   3.020   7.257   2.892  0.0588  0.1058  0.3647
   10CHTO  H226 3854   3.112   7.203   2.871 -0.4942 -0.1852 -1.3636
   10CHTO  C126 3855   2.907   7.164   2.859  0.1390 -0.4139 -0.4676
   10CHTO   O85 3856   2.936   7.036   2.922 -0.3195 -0.1352  0.6785
   10CHTO  H206 3857   2.992   6.984   2.869  0.6807  1.2328  0.3653
   10CHTO  C121 3858   3.003   7.321   3.043 -0.1217  0.3679 -0.0765
   10CHTO  H225 3859   2.918   7.279   3.100 -0.7441 -1.1566 -2.0922
   10CHTO   O81 3860   3.106   7.270   3.128  0.6325 -0.2208  0.1524
   10CHTO  H202 3861   3.075   7.278   3.216  2.6204  0.4735  0.8206
   10CHTO  C119 3862   3.004   7.476   3.055  0.1281 -0.1513  0.7710
   10CHTO  H223 3863   2.913   7.507   3.003 -0.9019 -0.1195  2.5495
   10CHTO  C117 3864   3.123   7.536   2.967  0.1954  0.5178 -0.0835
   10CHTO  H221 3865   3.219   7.507   3.007  0.1377  0.7092  0.1962
   10CHTO   N20 3866   3.112   7.685   2.974  0.1028  0.1048 -0.1221
   10CHTO  H209 3867   3.049   7.719   2.893  0.1481 -2.2629 -1.1893
   10CHTO  H210 3868   3.059   7.717   3.063 -1.0387 -0.0326 -0.7429
   10CHTO   O80 3869   2.977   7.521   3.206  0.3492 -0.0649 -0.2568
   10CHTO  C103 3870   2.839   7.580   3.251  0.1936  0.4205  0.0827
   10CHTO  H190 3871   2.796   7.643   3.174  0.3297  0.7470  0.2755
   10CHTO  C101 3872   2.734   7.471   3.293  0.9594 -0.5850 -0.4996
   10CHTO  H188 3873   2.783   7.415   3.372 -0.2671 -0.6515  0.2321
   10CHTO   O68 3874   2.705   7.396   3.180  0.5519 -0.0047 -0.3816
   10CHTO  H168 3875   2.778   7.340   3.163  0.0133 -0.2951 -1.8275
   10CHTO   C99 3876   2.608   7.541   3.364 -0.1563  0.3100  0.2056
   10CHTO  H186 3877   2.563   7.617   3.297  0.4700  1.4710  1.0994
   10CHTO   N17 3878   2.493   7.454   3.402 -0.1196 -0.1604  0.0787
   10CHTO  H174 3879   2.427   7.428   3.320 -2.8457 -0.0932  2.1763
   10CHTO  H175 3880   2.438   7.491   3.487  0.8215 -2.6607  1.8468
   10CHTO   C97 3881   2.663   7.621   3.483  0.5035  0.1223 -0.2457
   10CHTO  H184 3882   2.706   7.556   3.561  0.3007  0.2641 -0.0158
   10CHTO   O64 3883   2.755   7.722   3.436 -0.4272  0.2675  0.1676
   10CHTO  C104 3884   2.871   7.667   3.374 -0.9681 -0.2511 -0.2832
   10CHTO  H191 3885   2.924   7.611   3.450 -0.8856 -0.4659 -0.4988
   10CHTO  C108 3886   2.963   7.782   3.339  0.1131  0.5612  0.3748
   10CHTO   O71 3887   3.009   7.846   3.453  0.3570  0.3266 -0.1277
   10CHTO  H171 3888   3.071   7.913   3.435  0.9059 -0.1102  0.1240
   10CHTO   O62 3889   2.564   7.711   3.550  0.3141  0.1232 -0.0340
   10CHTO   C91 3890   2.537   7.695   3.694 -0.0858 -0.2226  0.0312
   10CHTO  H178 3891   2.573   7.600   3.734  2.4252  0.6851  0.0277
   10CHTO   C92 3892   2.379   7.698   3.709  0.0908 -0.3130  0.5009
   10CHTO  H179 3893   2.335   7.787   3.663  1.6636  0.2900  0.1240
   10CHTO   O66 3894   2.331   7.584   3.627 -0.8526 -0.1311  0.1731
   10CHTO  H166 3895   2.238   7.578   3.621 -0.7832 -0.3857 -0.6598
   10CHTO   C93 3896   2.344   7.686   3.859 -0.1867 -0.2376  0.6535
   10CHTO  H180 3897   2.392   7.594   3.896 -1.2197 -1.6843 -1.5037
   10CHTO   N16 3898   2.197   7.660   3.871  0.4811  0.4668 -0.1093
   10CHTO  H172 3899   2.180   7.584   3.945  2.0005 -1.6465 -1.8614
   10CHTO  H173 3900   2.156   7.631   3.775 -0.4781 -0.2152  0.5010
   10CHTO   C94 3901   2.392   7.807   3.941  0.0148  0.9608 -0.2721
   10CHTO  H181 3902   2.346   7.901   3.909  0.3584  1.5513  0.9053
   10CHTO   O61 3903   2.536   7.825   3.916  0.3474 -0.3974 -0.1922
   10CHTO   C95 3904   2.596   7.808   3.786  0.3599  0.2259  0.1977
   10CHTO  H182 3905   2.585   7.896   3.723  0.8963 -0.3199 -0.6590
   10CHTO  C106 3906   2.741   7.775   3.817 -0.0648  0.2749 -0.0718
   10CHTO   O69 3907   2.823   7.801   3.701  0.8855 -0.4585  0.4829
   10CHTO  H169 3908   2.855   7.725   3.657 -0.8236 -1.6218  1.2173
   10CHTO   O63 3909   2.358   7.778   4.112 -0.0249  0.6378  0.2657
   10CHTO   C96 3910   2.447   7.666   4.182 -0.2083  0.2869  0.2610
   10CHTO  H183 3911   2.533   7.634   4.125 -1.1250  0.0555 -1.0028
   10CHTO   C98 3912   2.368   7.544   4.225 -0.1380  0.1771 -0.3081
   10CHTO  H185 3913   2.260   7.561   4.232 -0.6841 -3.1110 -0.0660
   10CHTO   O67 3914   2.374   7.448   4.116  0.1959 -0.3716  0.3313
   10CHTO  H167 3915   2.312   7.379   4.128  0.2601 -0.1430  2.2937
   10CHTO  C102 3916   2.428   7.480   4.362 -0.2935  0.6645 -0.2144
   10CHTO  H189 3917   2.521   7.428   4.332  0.3957  0.5338  2.0557
   10CHTO   N18 3918   2.341   7.374   4.416  0.0857  0.0425 -0.2603
   10CHTO  H176 3919   2.350   7.294   4.344 -2.2648  0.1893 -0.7648
   10CHTO  H177 3920   2.239   7.408   4.429  0.5004  1.4576 -0.5937
   10CHTO  C105 3921   2.453   7.592   4.467 -0.8742  0.6409 -0.3624
   10CHTO  H192 3922   2.361   7.649   4.479  0.8359  2.5865  4.4268
   10CHTO   O65 3923   2.557   7.681   4.416  0.0728 -0.1993 -0.2624
   10CHTO  C100 3924   2.513   7.752   4.301  0.0060 -0.2969 -0.4658
   10CHTO  H187 3925   2.441   7.827   4.338  1.4460  0.7147  0.3213
   10CHTO  C107 3926   2.638   7.828   4.251 -0.4147  0.2880  0.5888
   10CHTO   O70 3927   2.756   7.744   4.226 -0.0848 -0.5131  0.2627
   10CHTO  H170 3928   2.793   7.704   4.302  0.0046 -1.8095 -0.4386
   10CHTO   O57 3929   2.501   7.513   4.611 -0.2812 -0.2126  0.3259
   10CHTO   C85 3930   2.462   7.559   4.741 -0.2003 -0.5578 -0.7990
   10CHTO  H157 3931   2.352   7.560   4.734 -0.2639 -0.6749  0.1034
   10CHTO   C83 3932   2.508   7.704   4.761 -0.0827 -0.6035  0.0792
   10CHTO  H155 3933   2.468   7.769   4.683  0.9890  0.9210  0.7707
   10CHTO   O56 3934   2.656   7.713   4.743  0.7737  0.1228 -0.1877
   10CHTO  H135 3935   2.679   7.687   4.656  0.1603 -1.1124  0.0151
   10CHTO   C81 3936   2.461   7.763   4.901 -1.6012 -0.6327 -0.0438
   10CHTO  H153 3937   2.352   7.767   4.906 -1.5595 -1.7502  2.7763
   10CHTO   N14 3938   2.505   7.907   4.922 -0.4546 -0.0952  0.3981
   10CHTO  H141 3939   2.421   7.974   4.930 -0.4580  0.5606 -3.7254
   10CHTO  H142 3940   2.558   7.949   4.839 -0.8284  1.1989  0.8068
   10CHTO   C79 3941   2.511   7.662   5.020  1.0094  1.3999  0.4697
   10CHTO  H151 3942   2.458   7.694   5.110  0.3929 -0.9497  0.9801
   10CHTO   O52 3943   2.464   7.523   4.993  0.3024  0.1750  0.5101
   10CHTO   C86 3944   2.509   7.470   4.862  0.1376  0.4578  0.3980
   10CHTO  H158 3945   2.620   7.466   4.868  0.1538  1.0662  0.5340
   10CHTO   C90 3946   2.461   7.327   4.841  0.2756 -0.0009  0.4417
   10CHTO   O60 3947   2.512   7.235   4.934 -0.2393  0.2523 -0.0507
   10CHTO  H138 3948   2.457   7.235   5.010  0.3755 -4.1428  0.5787
   10CHTO   O50 3949   2.651   7.659   5.046  0.2582 -0.5594  0.1188
   10CHTO   C73 3950   2.700   7.593   5.158 -0.3191  0.4388 -0.1629
   10CHTO  H145 3951   2.641   7.501   5.171  4.1965 -2.5489  0.8162
   10CHTO   C74 3952   2.688   7.684   5.286 -0.0857 -0.0084  0.6338
   10CHTO  H146 3953   2.581   7.700   5.304 -0.5687 -0.6058 -1.5493
   10CHTO   O54 3954   2.729   7.613   5.402 -0.8473  0.2114 -0.2161
   10CHTO  H133 3955   2.723   7.671   5.475  0.0727 -0.5397  0.4818
   10CHTO   C75 3956   2.765   7.816   5.256  0.4969  0.7139  1.3218
   10CHTO  H147 3957   2.711   7.867   5.176  1.1985  1.1948  1.1476
   10CHTO   N13 3958   2.766   7.917   5.369  0.4817  0.7901  0.2178
   10CHTO  H139 3959   2.820   7.869   5.450 -0.2521  0.1334  0.3278
   10CHTO  H140 3960   2.670   7.947   5.409 -0.5264 -0.1023 -1.4653
   10CHTO   C76 3961   2.913   7.784   5.215 -0.1787  0.5972  0.9159
   10CHTO  H148 3962   2.965   7.751   5.304 -1.5068 -1.4395  0.9622
   10CHTO   O49 3963   2.921   7.678   5.111  0.5170 -0.3125 -0.2687
   10CHTO   C77 3964   2.851   7.556   5.138  0.4782 -0.3816 -0.1357
   10CHTO  H149 3965   2.888   7.510   5.229  0.2640 -0.1730  0.0571
   10CHTO   C88 3966   2.875   7.453   5.026 -0.4758 -0.1270 -0.3558
   10CHTO   O58 3967   3.000   7.392   5.030  0.3179  0.3288  0.3132
   10CHTO  H136 3968   3.036   7.398   4.944 -2.6197  1.4509 -0.8976
   10CHTO   O51 3969   2.983   7.915   5.136 -0.5582 -0.6372  0.5508
   10CHTO   C78 3970   3.136   7.876   5.120  1.3474 -0.6344  0.6365
   10CHTO  H150 3971   3.152   7.767   5.105  0.4685 -0.7743  0.6630
   10CHTO   C80 3972   3.223   7.921   5.240  0.5331  0.5943 -0.4112
   10CHTO  H152 3973   3.196   8.027   5.255  0.0493  0.2829  0.9362
   10CHTO   O55 3974   3.186   7.842   5.353  0.7010  0.0128  0.2647
   10CHTO  H134 3975   3.218   7.886   5.429  2.8695  0.5771 -0.9402
   10CHTO   C84 3976   3.376   7.910   5.207  0.0364 -0.8716  0.2967
   10CHTO  H156 3977   3.385   7.803   5.189 -0.7483 -1.2272  1.8725
   10CHTO   N15 3978   3.462   7.940   5.323 -0.2458  0.9539 -0.1943
   10CHTO  H143 3979   3.546   7.878   5.345 -1.3276 -0.6502 -0.4589
   10CHTO  H144 3980   3.487   8.043   5.330 -0.3083  1.0101 -0.8360
   10CHTO   C87 3981   3.403   8.000   5.083  0.1568  0.0043 -0.1162
   10CHTO  H159 3982   3.368   8.101   5.107 -0.5473  0.1910 -1.8639
   10CHTO   O53 3983   3.326   7.937   4.970 -0.1718 -0.1615  0.0688
   10CHTO   C82 3984   3.183   7.939   4.989  0.7611  0.3587  0.2312
   10CHTO  H154 3985   3.144   8.040   4.973 -0.8506 -0.2465  0.2326
   10CHTO   C89 3986   3.125   7.850   4.871 -0.2013 -0.1822  0.3704
   10CHTO   O59 3987   2.984   7.862   4.854 -0.5752  0.5690 -0.0709
   10CHTO  H137 3988   2.963   7.914   4.778  0.3074 -1.5090 -1.8076
   10CHTO   O45 3989   3.566   7.990   5.030  0.6684  0.2027  0.0196
   10CHTO   C67 3990   3.594   8.077   4.923 -0.3703  0.1202 -0.1375
   10CHTO  H124 3991   3.546   8.043   4.831  3.1278 -1.6317 -1.3752
   10CHTO   C65 3992   3.553   8.230   4.949 -0.4978 -0.5252 -0.0814
   10CHTO  H122 3993   3.448   8.235   4.980 -0.2584 -0.7586  0.7724
   10CHTO   O44 3994   3.554   8.311   4.828 -0.2460  0.3716 -0.0297
   10CHTO  H102 3995   3.465   8.316   4.801 -0.7810  1.7130  1.8662
   10CHTO   C63 3996   3.640   8.286   5.072 -0.0733  0.0506  0.1112
   10CHTO  H120 3997   3.611   8.227   5.159  0.8673 -1.1399 -0.3769
   10CHTO   N11 3998   3.584   8.418   5.124 -0.1325 -0.4771 -0.0839
   10CHTO  H108 3999   3.559   8.484   5.044  0.1808 -1.5504 -1.0776
   10CHTO  H109 4000   3.655   8.473   5.181 -0.4583 -0.7209  0.5623
   10CHTO   C61 4001   3.796   8.280   5.051  0.8181 -0.5162  0.0764
   10CHTO  H118 4002   3.839   8.277   5.152  1.8075 -3.9176 -0.4014
   10CHTO   O40 4003   3.835   8.151   5.001  0.5545  0.2449  0.6516
   10CHTO   C68 4004   3.755   8.079   4.894  0.2967 -0.3750 -0.1845
   10CHTO  H125 4005   3.781   7.972   4.905 -0.1443 -0.5489 -0.8616
   10CHTO   C72 4006   3.783   8.122   4.745  0.1030 -0.1546  0.0894
   10CHTO   O48 4007   3.927   8.131   4.732 -0.1009 -0.2893 -0.9254
   10CHTO  H105 4008   3.972   8.049   4.736  0.5597  0.0741 -0.7367
   10CHTO   O38 4009   3.859   8.386   4.980 -0.3215 -0.1626 -0.2931
   10CHTO   C55 4010   3.994   8.426   4.982 -0.8055  0.8562  0.7460
   10CHTO  H112 4011   4.061   8.347   4.947 -0.6274  1.4247 -0.2238
   10CHTO   C56 4012   4.036   8.476   5.129  0.7241 -0.0673 -0.9707
   10CHTO  H113 4013   3.963   8.554   5.156  0.5228 -0.0902 -1.4413
   10CHTO   O42 4014   4.032   8.362   5.224 -1.0723 -0.2460 -0.5553
   10CHTO  H100 4015   4.041   8.401   5.309 -0.0937 -0.9691 -0.3256
   10CHTO   C57 4016   4.172   8.553   5.121 -0.5442  0.0131 -0.3478
   10CHTO  H114 4017   4.245   8.475   5.098  0.6003  0.3802  1.8970
   10CHTO   N10 4018   4.212   8.617   5.249  0.1586 -0.4874 -0.4098
   10CHTO  H106 4019   4.123   8.640   5.307  0.4960  2.7756 -1.0817
   10CHTO  H107 4020   4.287   8.572   5.312  1.4766  0.8799 -0.9770
   10CHTO   C58 4021   4.173   8.658   5.011  0.3455  0.0585  0.2871
   10CHTO  H115 4022   4.089   8.726   5.038  2.4004  2.4877  0.6907
   10CHTO   O37 4023   4.141   8.591   4.887  0.2133 -0.5616  0.4884
   10CHTO   C59 4024   4.009   8.537   4.879 -0.2508  0.4791 -0.2018
   10CHTO  H116 4025   3.941   8.617   4.910 -2.4788 -0.8574 -1.4485
   10CHTO   C70 4026   3.981   8.501   4.733  0.2172 -0.7982  0.2909
   10CHTO   O46 4027   3.839   8.483   4.720  0.3350 -0.5436 -0.2637
   10CHTO  H103 4028   3.817   8.482   4.629  0.3149 -1.9089 -0.2588
   10CHTO   O39 4029   4.295   8.737   4.988 -0.0156 -0.0823  0.3944
   10CHTO   C60 4030   4.275   8.876   4.962  0.2875  0.5127  0.4811
   10CHTO  H117 4031   4.173   8.903   4.934 -0.6216  1.0008  4.0027
   10CHTO   C62 4032   4.324   8.961   5.084 -0.0892  0.2643 -0.4980
   10CHTO  H119 4033   4.272   8.918   5.172 -1.9417  5.0395  0.9371
   10CHTO   O43 4034   4.466   8.942   5.107 -0.5332  0.1873  0.1522
   10CHTO  H101 4035   4.516   9.020   5.092  0.2795 -0.7427 -2.1014
   10CHTO   C66 4036   4.273   9.107   5.053 -0.6889 -0.2455 -0.0600
   10CHTO  H123 4037   4.165   9.111   5.045 -0.5785  1.3342 -1.1035
   10CHTO   N12 4038   4.300   9.187   5.177  0.0771  0.1034  0.1810
   10CHTO  H110 4039   4.401   9.222   5.183  0.4511 -0.5893 -1.5992
   10CHTO  H111 4040   4.263   9.136   5.265 -0.7608 -2.3535 -1.5224
   10CHTO   C69 4041   4.365   9.155   4.933 -0.5580  0.0213  0.3087
   10CHTO  H126 4042   4.473   9.157   4.957 -0.6422  0.1991  0.6857
   10CHTO   O41 4043   4.340   9.070   4.821 -0.2617 -0.2175 -0.1433
   10CHTO   C64 4044   4.363   8.916   4.842 -0.3367 -0.4943 -0.5318
   10CHTO  H121 4045   4.472   8.903   4.857  0.2320  0.6844 -3.3840
   10CHTO   C71 4046   4.339   8.839   4.712  0.5675  0.0417  0.5634
   10CHTO   O47 4047   4.424   8.893   4.610 -0.4877 -0.5324  0.0595
   10CHTO  H104 4048   4.505   8.847   4.615 -0.4036 -0.3856  0.0513
   10CHTO   O34 4049   4.342   9.295   4.898 -1.0585 -0.3252 -0.1785
   10CHTO   C49 4050   4.226   9.400   4.855  0.2007  0.2816  0.4637
   10CHTO   H91 4051   4.237   9.488   4.918  1.2824 -0.8674  1.9277
   10CHTO   C47 4052   4.089   9.329   4.877 -0.4970  0.3184 -1.5221
   10CHTO   H89 4053   4.083   9.316   4.987  0.4418  2.0783 -1.2481
   10CHTO   O33 4054   4.080   9.195   4.820  0.2371  0.3544 -0.2210
   10CHTO   H70 4055   3.996   9.162   4.845  0.0981 -0.6393 -1.9635
   10CHTO   C45 4056   3.967   9.423   4.827 -0.3725  0.2606 -0.2247
   10CHTO   H87 4057   3.906   9.360   4.761  2.2102 -2.5100 -0.0937
   10CHTO    N8 4058   3.877   9.456   4.941  0.5525  0.2776 -0.2639
   10CHTO   H75 4059   3.817   9.371   4.968  2.3739 -0.5717  1.2346
   10CHTO   H76 4060   3.811   9.536   4.911  1.7042  1.8639  1.3345
   10CHTO   C43 4061   4.014   9.554   4.744  1.4096  1.0683  0.0291
   10CHTO   H85 4062   3.924   9.573   4.684  0.5173 -1.1691  0.6272
   10CHTO   O29 4063   4.128   9.527   4.662 -0.2224  0.1346  0.0078
   10CHTO   C50 4064   4.224   9.434   4.703 -0.2378  0.1244  0.3625
   10CHTO   H92 4065   4.215   9.339   4.649  2.3425 -0.1163  0.3205
   10CHTO   C54 4066   4.358   9.486   4.651  0.0030  0.2509  0.3395
   10CHTO   O36 4067   4.366   9.492   4.510  0.5407 -0.6144  0.2582
   10CHTO   H72 4068   4.445   9.536   4.485  0.2912 -0.2661  0.0814
   10CHTO   O27 4069   4.043   9.669   4.820 -0.1318  0.7062  0.2297
   10CHTO   C37 4070   4.123   9.788   4.797 -0.0353  0.1861  0.2751
   10CHTO   H79 4071   4.217   9.759   4.748 -0.2266  1.5804 -0.9794
   10CHTO   C38 4072   4.048   9.879   4.696  0.7973  0.4414  0.6482
   10CHTO   H80 4073   3.954   9.910   4.744  2.3474  3.8415  1.6093
   10CHTO   O31 4074   4.028   9.811   4.571  0.2021 -0.3561  0.2515
   10CHTO   H68 4075   4.105   9.768   4.541  0.5702  0.8027 -0.4877
   10CHTO   C39 4076   4.123  10.016   4.657  0.1090  0.1829 -0.6256
   10CHTO   H81 4077   4.204   9.986   4.591  0.8750 -2.0071  1.2325
   10CHTO    N7 4078   4.036  10.110   4.579  0.4273  0.5868  0.1446
   10CHTO   H73 4079   3.991  10.060   4.495  2.9018  1.2316 -1.6062
   10CHTO   H74 4080   3.961  10.137   4.652 -0.0872  0.5708 -0.3723
   10CHTO   C40 4081   4.189  10.080   4.782  0.4104 -0.3661 -0.3505
   10CHTO   H82 4082   4.119  10.146   4.833  2.3332  3.0211 -1.9266
   10CHTO   O26 4083   4.249   9.983   4.874  0.3972 -0.2523  0.1914
   10CHTO   C41 4084   4.159   9.882   4.920  0.3454  0.2221  0.5811
   10CHTO   H83 4085   4.070   9.933   4.960 -0.1315 -0.0731 -0.1112
   10CHTO   C52 4086   4.230   9.800   5.035 -0.1040 -0.3399  0.0044
   10CHTO   O35 4087   4.313   9.878   5.154  0.0098 -0.1172 -0.1155
   10CHTO   H71 4088   4.336   9.965   5.128 -3.2095  0.8192 -0.0331
   10CHTO   O28 4089   4.296  10.156   4.736 -0.2843  0.1938 -0.0368
   10CHTO   C42 4090   4.325  10.292   4.785 -0.3729  0.4952  0.3353
   10CHTO   H84 4091   4.288  10.286   4.888 -1.1535  1.0789  0.0897
   10CHTO   C44 4092   4.247  10.409   4.714  0.2359 -0.2732 -0.3321
   10CHTO   H86 4093   4.252  10.387   4.607 -3.1234 -0.2153 -0.5416
   10CHTO   O32 4094   4.114  10.395   4.751  0.3185  0.4405 -0.0948
   10CHTO   H69 4095   4.080  10.311   4.727  1.4840 -0.0099 -0.1562
   10CHTO   C48 4096   4.306  10.555   4.734 -0.3698  0.1008 -0.0911
   10CHTO   H90 4097   4.308  10.580   4.840  0.5314  3.8585 -0.9013
   10CHTO    N9 4098   4.233  10.660   4.665 -0.3919 -0.1590 -0.2724
   10CHTO   H77 4099   4.284  10.754   4.682 -0.2344 -0.1063 -1.0132
   10CHTO   H78 4100   4.137  10.662   4.714 -0.0209 -0.6501  0.4811
   10CHTO   C51 4101   4.460  10.545   4.702  0.0668  0.1385 -0.3123
   10CHTO   H93 4102   4.474  10.498   4.605  0.1427 -0.4048 -0.0391
   10CHTO   O30 4103   4.518  10.467   4.808 -0.1171 -0.6049 -0.2840
   10CHTO   C46 4104   4.476  10.322   4.794 -1.4889  0.3631  0.7284
   10CHTO   H88 4105   4.523  10.279   4.705 -0.9478  0.9174  0.7454
   10CHTO   C53 4106   4.544  10.233   4.908  0.1909 -0.0424  0.0176
   10CHTO   O72 4107   4.516  10.290   5.039  0.0087 -0.0913 -0.0899
   10CHTO  H199 4108   4.594  10.335   5.065  0.1708 -1.9413  2.8026
   10CHTO   O22 4109   4.523  10.673   4.709 -0.3285 -0.2161  0.0632
   10CHTO   C31 4110   4.646  10.695   4.622 -0.6627  0.8925 -0.0707
   10CHTO   H59 4111   4.713  10.762   4.680  1.6614 -1.5058  0.0908
   10CHTO   C29 4112   4.728  10.575   4.573 -0.4462 -0.1129 -0.1919
   10CHTO   H57 4113   4.663  10.511   4.512  1.6983 -1.6035 -0.9988
   10CHTO   O21 4114   4.759  10.491   4.688  0.1406  0.6948 -0.2226
   10CHTO   H37 4115   4.777  10.548   4.760  0.5082  0.1283  0.1420
   10CHTO   C27 4116   4.850  10.617   4.483  0.4669  0.0826 -0.2732
   10CHTO   H55 4117   4.927  10.646   4.555  0.4578 -0.0601 -0.2053
   10CHTO    N5 4118   4.906  10.502   4.406  0.3533 -0.2297 -0.6194
   10CHTO   H43 4119   5.013  10.493   4.410  0.5347  1.8507 -0.2681
   10CHTO   H44 4120   4.869  10.510   4.305  4.4791  0.7368 -2.1375
   10CHTO   C25 4121   4.811  10.735   4.380  0.1609 -0.5240 -0.2242
   10CHTO   H53 4122   4.753  10.688   4.298 -0.9527 -0.9289  0.7741
   10CHTO   O17 4123   4.727  10.831   4.435 -0.4022 -0.5596  0.2385
   10CHTO   C32 4124   4.607  10.779   4.497 -0.5556 -0.4093  0.1307
   10CHTO   H60 4125   4.550  10.719   4.426  0.4482 -0.3751 -0.7122
   10CHTO   C36 4126   4.533  10.911   4.543 -0.1435  0.4328  0.3153
   10CHTO   O25 4127   4.521  11.006   4.434  0.3180 -0.7455  0.0034
   10CHTO   H40 4128   4.581  11.077   4.447 -3.3442  2.7348 -1.1010
   10CHTO   O15 4129   4.940  10.799   4.322 -0.4496  0.2722 -0.2966
   10CHTO   C19 4130   4.979  10.855   4.197 -0.4488  0.1354 -0.1370
   10CHTO   H47 4131   4.942  10.780   4.124  0.8866  0.0336 -0.7310
   10CHTO   C20 4132   4.904  10.991   4.166 -0.3362 -1.0182 -0.2481
   10CHTO   H48 4133   4.926  11.068   4.241 -3.2232  0.3773 -0.7840
   10CHTO   O19 4134   4.762  10.969   4.170 -0.5132  0.4269  0.0862
   10CHTO   H35 4135   4.722  11.016   4.100 -2.7195 -1.5303 -0.0356
   10CHTO   C21 4136   4.957  11.039   4.026 -0.1332 -0.6125  0.4369
   10CHTO   H49 4137   4.912  10.974   3.951 -1.9532 -1.5744  2.3270
   10CHTO    N4 4138   4.902  11.177   3.994 -0.3172  0.3035 -0.7876
   10CHTO   H41 4139   4.864  11.242   4.071 -0.9903 -2.6355  1.4787
   10CHTO   H42 4140   4.941  11.239   3.915  1.1677 -0.4453 -0.6587
   10CHTO   C22 4141   5.113  11.043   4.020 -0.1471  0.7467 -0.1849
   10CHTO   H50 4142   5.137  11.121   4.092 -0.8681  2.0637 -1.3468
   10CHTO   O14 4143   5.170  10.918   4.052  0.3479 -0.0270  0.0131
   10CHTO   C23 4144   5.136  10.858   4.181  0.0183 -0.1962 -0.2989
   10CHTO   H51 4145   5.181  10.927   4.254 -1.6471  0.1898  0.3844
   10CHTO   C34 4146   5.201  10.721   4.180  0.0327  0.4342  0.0796
   10CHTO   O23 4147   5.343  10.724   4.202 -0.2411 -0.2053 -0.2955
   10CHTO   H38 4148   5.392  10.763   4.132 -1.3589  2.9352  0.5783
   10CHTO   O16 4149   5.176  11.069   3.894  0.4328 -0.0427  0.4847
   10CHTO   C24 4150   5.343  11.094   3.912 -1.0300  0.3030  0.3553
   10CHTO   H52 4151   5.376  11.071   4.014  1.9299 -0.3786 -0.7262
   10CHTO   C26 4152   5.376  11.239   3.878  0.2874 -0.2318  0.3003
   10CHTO   H54 4153   5.321  11.267   3.786 -0.4910  0.1022  0.8535
   10CHTO   O20 4154   5.313  11.314   3.988 -0.0767  0.1129 -0.0889
   10CHTO   H36 4155   5.327  11.406   3.975 -1.4430  0.3822  0.2406
   10CHTO   C30 4156   5.530  11.273   3.862  0.1597 -0.9403  0.1141
   10CHTO   H58 4157   5.571  11.255   3.962  1.4602 -3.2384 -0.7832
   10CHTO    N6 4158   5.565  11.410   3.817 -0.2021  0.8972 -0.2102
   10CHTO   H45 4159   5.671  11.425   3.810  0.2225 -1.4338  0.6870
   10CHTO   H46 4160   5.528  11.485   3.884  0.1818  0.7518  0.1609
   10CHTO   C33 4161   5.602  11.160   3.781 -0.2487 -0.1254 -1.0333
   10CHTO   H61 4162   5.571  11.166   3.676  1.4437 -2.6015 -1.7244
   10CHTO   O18 4163   5.561  11.031   3.833 -0.5687  0.4837  0.6997
   10CHTO   C28 4164   5.426  11.002   3.810 -0.1428  0.0305  0.3524
   10CHTO   H56 4165   5.389  11.019   3.708 -2.8742 -1.8988  0.9642
   10CHTO   C35 4166   5.420  10.850   3.859 -0.6025 -0.9117  0.1079
   10CHTO   O24 4167   5.290  10.798   3.841  0.2761  0.7720 -0.3757
   10CHTO   H39 4168   5.299  10.724   3.784  3.5798 -0.2909  1.3546
   10CHTO    O9 4169   5.750  11.170   3.779  0.0318 -0.2396 -0.0319
   10CHTO   C13 4170   5.829  11.083   3.665  0.8003 -0.5263 -0.2985
   10CHTO   H26 4171   5.776  11.107   3.571 -0.0155 -0.9914  0.0338
   10CHTO   C11 4172   5.811  10.927   3.701 -0.6879 -0.7192 -0.1422
   10CHTO   H24 4173   5.703  10.911   3.685 -0.8254  0.3327 -0.2881
   10CHTO    O8 4174   5.837  10.907   3.842 -0.0909 -0.4541  0.0490
   10CHTO    H3 4175   5.820  10.817   3.862 -0.0507 -0.7043 -1.0072
   10CHTO    C9 4176   5.898  10.843   3.602  0.4025 -0.0209  0.2056
   10CHTO   H22 4177   5.859  10.862   3.501 -1.7973  1.2415  1.2374
   10CHTO    N2 4178   5.865  10.696   3.621  0.1458  0.0332  0.7287
   10CHTO   H10 4179   5.797  10.668   3.542 -1.2274  0.7954  1.6231
   10CHTO   H11 4180   5.821  10.677   3.718  0.3261  1.0959  1.0211
   10CHTO    C7 4181   6.044  10.870   3.620  0.4521 -0.1062 -0.7528
   10CHTO   H20 4182   6.091  10.829   3.528  0.8708  1.5946 -1.3195
   10CHTO    O4 4183   6.067  11.015   3.626  0.5576 -0.5574  0.0011
   10CHTO   C14 4184   5.978  11.125   3.645 -0.2387  0.1945 -0.0935
   10CHTO   H27 4185   5.984  11.177   3.547  1.6239  1.3674  0.6170
   10CHTO   C18 4186   6.030  11.220   3.757 -0.0084 -0.3979 -0.5973
   10CHTO   O13 4187   6.082  11.146   3.866  0.0523 -0.3011  0.3099
   10CHTO    H7 4188   6.175  11.157   3.865  0.0326  0.0336  1.2101
   10CHTO    O2 4189   6.110  10.813   3.756 -0.0702  0.1208  0.3038
   10CHTO    C1 4190   6.243  10.757   3.753 -0.5836 -0.1234  0.5475
   10CHTO   H14 4191   6.301  10.807   3.833  2.8535  0.5765 -2.2025
   10CHTO    C2 4192   6.334  10.775   3.627  0.7791 -0.8268  0.7427
   10CHTO   H15 4193   6.262  10.753   3.547  1.3469 -0.5824  0.1600
   10CHTO    O6 4194   6.369  10.911   3.620 -0.1814 -0.1462  0.0994
   10CHTO    H1 4195   6.452  10.930   3.658  0.8062 -0.3140 -1.9094
   10CHTO    C3 4196   6.467  10.680   3.631  0.3469 -0.5963  1.0173
   10CHTO   H16 4197   6.539  10.714   3.707 -0.4049  2.3717  0.4503
   10CHTO    N1 4198   6.543  10.694   3.500  0.1527  0.0769  0.7564
   10CHTO    H8 4199   6.479  10.657   3.421 -1.4616  1.3178  1.4501
   10CHTO    H9 4200   6.580  10.794   3.482  0.3153  0.3958  2.7456
   10CHTO    C4 4201   6.416  10.537   3.674 -0.4925 -0.0041  0.6917
   10CHTO   H17 4202   6.349  10.500   3.597 -0.1214  0.4917  0.1268
   10CHTO    O1 4203   6.358  10.532   3.799 -0.2213 -0.3501 -0.7588
   10CHTO    C5 4204   6.232  10.606   3.794 -0.2421 -0.2654  0.0333
   10CHTO   H18 4205   6.163  10.558   3.725 -1.6846  2.9877 -0.9037
   10CHTO   C16 4206   6.176  10.589   3.938 -0.2684  0.5879  0.4777
   10CHTO   O11 4207   6.070  10.680   3.966 -0.1511  0.2027 -1.0885
   10CHTO    H5 4208   6.043  10.695   4.054 -0.7288  0.6815 -1.3423
   10CHTO    O3 4209   6.532  10.454   3.675 -0.1506 -0.4965  0.0935
   10CHTO    C6 4210   6.504  10.317   3.638  0.1483  0.2125 -0.4234
   10CHTO   H19 4211   6.399  10.287   3.644  0.1099  0.4201 -0.0676
   10CHTO    C8 4212   6.548  10.291   3.491 -0.7723 -0.1388  0.2488
   10CHTO   H21 4213   6.650  10.330   3.480 -2.3558  3.5480 -2.5365
   10CHTO    O7 4214   6.465  10.361   3.397 -0.4428  0.0550 -0.3242
   10CHTO    H2 4215   6.518  10.385   3.323  1.8140 -1.2353  0.8313
   10CHTO   C12 4216   6.567  10.141   3.445  0.2495 -0.0821  0.3567
   10CHTO   H25 4217   6.465  10.103   3.424  0.9013 -2.8190  1.9489
   10CHTO    N3 4218   6.656  10.123   3.320  0.5702  0.1259 -0.5349
   10CHTO   H12 4219   6.759  10.149   3.338  0.5335 -0.5564  0.6767
   10CHTO   H13 4220   6.607  10.177   3.240 -1.9587 -0.5839  0.4850
   10CHTO   C15 4221   6.618  10.052   3.557  0.1559 -0.4799  0.3916
   10CHTO   H28 4222   6.727  10.057   3.565 -0.0205 -0.8043  3.7264
   10CHTO   O10 4223   6.581   9.898   3.547 -0.2573 -0.1202  0.3016
   10CHTO    H4 4224   6.652   9.848   3.512  1.3083  2.3620 -0.2620
   10CHTO    O5 4225   6.561  10.090   3.683 -0.2589 -0.5247 -0.7427
   10CHTO   C10 4226   6.582  10.228   3.729  0.1507 -0.3294  0.5398
   10CHTO   H23 4227   6.685  10.260   3.714  0.5709 -2.0482 -0.3084
   10CHTO   C17 4228   6.542  10.251   3.879 -0.5083 -0.2305  0.1079
   10CHTO   O12 4229   6.605  10.154   3.967  0.2261 -0.0409  0.8862
   10CHTO    H6 4230   6.586  10.177   4.056  1.9955  2.3379  0.6861
   11CHTO  H203 4231   6.014   5.401   0.772  1.6124  0.2754 -0.6635
   11CHTO   O82 4232   5.986   5.478   0.726  0.1197 -0.0205 -0.2866
   11CHTO  C123 4233   5.943   5.582   0.815  0.8056  0.6979 -0.2751
   11CHTO  H227 4234   5.950   5.547   0.919  0.0881  0.5443 -0.2760
   11CHTO   O77 4235   6.040   5.687   0.786  0.1433  0.2510 -0.3244
   11CHTO  C118 4236   6.012   5.813   0.855  0.3550  0.6244  0.6051
   11CHTO  H222 4237   6.005   5.775   0.958 -1.1848  0.6895  0.5352
   11CHTO  C125 4238   6.136   5.910   0.841 -0.8812 -0.1255 -0.4680
   11CHTO   O84 4239   6.190   5.956   0.713 -0.0281 -0.0432 -0.1078
   11CHTO  H205 4240   6.244   6.033   0.713 -0.9553  0.6224 -0.1948
   11CHTO  C114 4241   5.879   5.873   0.805 -0.6152 -0.5788  0.0775
   11CHTO  H218 4242   5.884   5.892   0.698 -0.2919 -1.3140 -0.0421
   11CHTO  C116 4243   5.768   5.774   0.836 -0.2473  0.0995  0.7849
   11CHTO  H220 4244   5.757   5.763   0.946 -3.0677 -1.1751  0.4106
   11CHTO   O79 4245   5.643   5.824   0.789 -0.7131  0.3738  1.5541
   11CHTO  H201 4246   5.649   5.826   0.696  0.2726 -0.6427  1.5798
   11CHTO  C120 4247   5.800   5.637   0.773  0.0954 -0.4681 -0.9010
   11CHTO  H224 4248   5.781   5.656   0.665 -0.1173  0.1222 -0.7564
   11CHTO   N21 4249   5.695   5.549   0.813  0.2379 -0.0844  0.0087
   11CHTO  H211 4250   5.644   5.594   0.897 -1.0210 -0.2225 -0.6666
   11CHTO  H212 4251   5.623   5.569   0.734 -1.4942 -1.0740  1.2878
   11CHTO   O75 4252   5.879   6.002   0.863  0.1134 -0.1651  0.0047
   11CHTO  C112 4253   5.754   6.055   0.938  0.1456  0.2502  0.0175
   11CHTO  H216 4254   5.725   5.980   1.014  2.3017 -0.3670  0.2701
   11CHTO   O73 4255   5.652   6.080   0.841  0.2869 -0.5773 -0.3105
   11CHTO  C113 4256   5.530   6.124   0.890 -0.3787 -0.3117  0.2007
   11CHTO  H217 4257   5.503   6.042   0.960  2.1760 -1.1118  0.2806
   11CHTO  C124 4258   5.437   6.132   0.770  0.0625  0.3163 -0.0125
   11CHTO   O83 4259   5.383   6.023   0.691  0.2131  0.4292 -0.4649
   11CHTO  H204 4260   5.339   5.953   0.736  0.5790  0.9367  0.6996
   11CHTO  C109 4261   5.539   6.253   0.969 -0.2604 -0.4526  0.3475
   11CHTO  H213 4262   5.553   6.329   0.891 -0.8356 -1.0899 -0.3830
   11CHTO  C110 4263   5.663   6.259   1.064 -0.3087 -0.3636 -0.0383
   11CHTO  H214 4264   5.631   6.201   1.151  2.0286  0.5974  1.5178
   11CHTO   O78 4265   5.687   6.396   1.103 -0.2713  0.8712  0.6619
   11CHTO  H200 4266   5.732   6.438   1.032  0.5269 -2.1509 -0.7177
   11CHTO  C111 4267   5.789   6.197   1.003 -0.5244 -0.3247 -0.4591
   11CHTO  H215 4268   5.833   6.267   0.930  1.5388  0.0635  1.0831
   11CHTO   N19 4269   5.896   6.182   1.104  0.5051  0.2869 -0.5319
   11CHTO  H207 4270   5.982   6.148   1.049  0.9217  1.1574 -0.4225
   11CHTO  H208 4271   5.918   6.273   1.157 -1.6985  0.1496  0.6923
   11CHTO   O74 4272   5.413   6.278   1.029 -0.3298  0.1593 -0.2414
   11CHTO  C115 4273   5.334   6.410   0.945 -0.3293 -1.2494 -0.2855
   11CHTO  H219 4274   5.363   6.417   0.840 -1.1363 -0.5843 -0.4660
   11CHTO   O76 4275   5.181   6.390   0.938 -0.7596  0.4570 -0.0210
   11CHTO  C122 4276   5.094   6.397   1.052  0.4143 -0.1961 -0.7412
   11CHTO  H226 4277   5.080   6.295   1.089 -0.4035 -0.0717 -0.7027
   11CHTO  C126 4278   4.956   6.456   1.018  0.5076 -0.4821  0.0581
   11CHTO   O85 4279   4.894   6.399   0.900 -0.1459  0.4567 -0.2216
   11CHTO  H206 4280   4.900   6.306   0.901 -3.1034  0.1771 -1.5671
   11CHTO  C121 4281   5.166   6.487   1.159  0.3724 -0.4207 -0.2014
   11CHTO  H225 4282   5.079   6.533   1.212  1.1840  1.6960 -0.6472
   11CHTO   O81 4283   5.249   6.409   1.249  0.0513 -0.0607  0.1831
   11CHTO  H202 4284   5.211   6.389   1.332  1.7642  0.3803  1.1079
   11CHTO  C119 4285   5.244   6.600   1.088  0.0063  0.3859 -0.6238
   11CHTO  H223 4286   5.179   6.628   1.005 -2.2728 -0.3961  0.8565
   11CHTO  C117 4287   5.374   6.543   1.022 -0.2247  0.5978  0.4270
   11CHTO  H221 4288   5.447   6.512   1.096 -0.5487  2.2256  1.4687
   11CHTO   N20 4289   5.444   6.645   0.944 -0.5898 -0.1615 -0.1058
   11CHTO  H209 4290   5.518   6.696   1.004  0.2622 -1.4460 -0.0405
   11CHTO  H210 4291   5.499   6.611   0.857  0.1482  0.0782  0.2576
   11CHTO   O80 4292   5.266   6.736   1.164  0.5552 -0.9435 -0.7123
   11CHTO  C103 4293   5.328   6.743   1.319  0.1190 -0.5639  0.0015
   11CHTO  H190 4294   5.312   6.648   1.369 -0.0821 -0.9297 -0.7633
   11CHTO  C101 4295   5.486   6.779   1.331 -0.6118  0.6487  0.3920
   11CHTO  H188 4296   5.517   6.854   1.259  0.3643 -0.7633 -0.7045
   11CHTO   O68 4297   5.575   6.640   1.313 -0.1321 -0.5659  1.1069
   11CHTO  H168 4298   5.569   6.615   1.223 -0.1513  0.7919  0.7288
   11CHTO   C99 4299   5.520   6.856   1.466 -0.2337 -0.5356  0.2799
   11CHTO  H186 4300   5.505   6.781   1.547 -2.4435 -0.7878 -0.3417
   11CHTO   N17 4301   5.661   6.910   1.478  0.5770  0.6190 -0.1381
   11CHTO  H174 4302   5.672   7.009   1.433 -2.4552  1.9670  1.9825
   11CHTO  H175 4303   5.732   6.839   1.437 -0.1446 -1.1901  1.7023
   11CHTO   C97 4304   5.417   6.974   1.484 -0.7211 -0.6380 -0.1014
   11CHTO  H184 4305   5.427   7.039   1.395  1.1114  0.6909  1.0206
   11CHTO   O64 4306   5.290   6.920   1.496 -0.2344  0.1976  0.3830
   11CHTO  C104 4307   5.237   6.856   1.380  0.0282  0.2632  0.3958
   11CHTO  H191 4308   5.220   6.928   1.300 -0.7632 -0.3477  0.0099
   11CHTO  C108 4309   5.108   6.795   1.418 -0.3195  0.9364  0.2553
   11CHTO   O71 4310   4.998   6.879   1.450 -0.5913  0.9194  0.4333
   11CHTO  H171 4311   5.019   6.944   1.515 -0.1723  1.3178 -0.0992
   11CHTO   O62 4312   5.430   7.052   1.607  0.1761 -0.5775 -0.0145
   11CHTO   C91 4313   5.369   7.176   1.608 -1.0595 -0.5754  0.7211
   11CHTO  H178 4314   5.299   7.197   1.527 -1.0347 -0.5384  0.7088
   11CHTO   C92 4315   5.475   7.288   1.600 -0.1448 -0.1965 -0.1903
   11CHTO  H179 4316   5.552   7.271   1.523  0.5987  0.7599  0.3303
   11CHTO   O66 4317   5.398   7.402   1.571 -0.0370 -0.2061  0.1181
   11CHTO  H166 4318   5.440   7.478   1.607 -1.4370  0.7632 -0.2787
   11CHTO   C93 4319   5.540   7.319   1.743 -0.0166 -0.3804 -0.3022
   11CHTO  H180 4320   5.593   7.415   1.750  0.6237 -0.7192 -0.4314
   11CHTO   N16 4321   5.663   7.236   1.767  0.0158  0.3270  0.3741
   11CHTO  H172 4322   5.740   7.295   1.814 -1.6432  2.0187  1.0777
   11CHTO  H173 4323   5.631   7.148   1.820  1.6393  0.7325  2.0816
   11CHTO   C94 4324   5.439   7.307   1.868  0.2209  0.5526 -0.7949
   11CHTO  H181 4325   5.458   7.213   1.921  0.2899  0.7624 -0.4494
   11CHTO   O61 4326   5.307   7.304   1.821  0.1033  0.3356  0.3789
   11CHTO   C95 4327   5.266   7.195   1.734  0.1560 -0.5502 -0.6683
   11CHTO  H182 4328   5.261   7.099   1.787 -0.4334 -1.7904 -2.9199
   11CHTO  C106 4329   5.111   7.226   1.688 -0.1037 -0.4155 -0.0194
   11CHTO   O69 4330   5.079   7.142   1.576  0.8955 -0.0596  1.0025
   11CHTO  H169 4331   5.030   7.066   1.601 -2.5038  1.9361  0.8546
   11CHTO   O63 4332   5.444   7.418   1.962 -0.6139 -0.1997 -0.0299
   11CHTO   C96 4333   5.574   7.423   2.044  0.1749 -0.5003 -0.0342
   11CHTO  H183 4334   5.665   7.395   1.990 -0.3707 -3.4458  0.4551
   11CHTO   C98 4335   5.576   7.340   2.178  0.0128 -0.1622  0.7523
   11CHTO  H185 4336   5.476   7.345   2.224 -0.2883 -0.6126  0.1529
   11CHTO   O67 4337   5.596   7.199   2.141  0.0221  0.0702 -0.4799
   11CHTO  H167 4338   5.581   7.184   2.050 -0.1313 -0.9058 -0.2978
   11CHTO  C102 4339   5.693   7.382   2.283  0.0227 -0.1393  1.1360
   11CHTO  H189 4340   5.785   7.343   2.239 -0.9317 -0.2334 -0.8302
   11CHTO   N18 4341   5.676   7.313   2.415 -0.0248  0.1685  0.7013
   11CHTO  H176 4342   5.574   7.278   2.419 -0.3786  1.1285  0.1736
   11CHTO  H177 4343   5.741   7.228   2.430  0.0347  0.4889  2.4339
   11CHTO  C105 4344   5.706   7.534   2.293 -0.1080  0.1844 -0.4678
   11CHTO  H192 4345   5.620   7.575   2.347 -0.5741 -1.8589  0.3833
   11CHTO   O65 4346   5.722   7.590   2.162  0.0676 -0.1943 -0.2700
   11CHTO  C100 4347   5.599   7.577   2.090  0.3410 -0.3606  0.1150
   11CHTO  H187 4348   5.517   7.611   2.155 -0.2750 -2.0442  0.2406
   11CHTO  C107 4349   5.613   7.671   1.974 -0.1803 -0.2552  1.1414
   11CHTO   O70 4350   5.659   7.804   2.003  0.7412  0.0825  0.1412
   11CHTO  H170 4351   5.727   7.794   2.066  0.0362 -0.9265  0.7483
   11CHTO   O57 4352   5.836   7.561   2.386  0.4356 -0.2266 -0.4903
   11CHTO   C85 4353   5.859   7.673   2.474  0.3836  0.3063 -0.0680
   11CHTO  H157 4354   5.771   7.740   2.477  1.3923  1.6546  0.2106
   11CHTO   C83 4355   5.961   7.772   2.415  0.2398  0.5809  0.1080
   11CHTO  H155 4356   5.927   7.799   2.315 -0.0853 -1.2992 -0.3160
   11CHTO   O56 4357   6.088   7.706   2.385  0.4834  0.6335 -0.2668
   11CHTO  H135 4358   6.090   7.671   2.298 -0.5240  1.2067 -0.5228
   11CHTO   C81 4359   5.957   7.903   2.497  0.0126  0.3152 -0.7642
   11CHTO  H153 4360   5.851   7.931   2.496 -0.3920 -1.0136  0.8254
   11CHTO   N14 4361   6.019   8.018   2.436 -0.1482 -0.0306 -0.5702
   11CHTO  H141 4362   6.121   8.008   2.466  0.0926  0.7410 -1.0958
   11CHTO  H142 4363   5.980   8.107   2.480 -0.3101 -1.5352  2.4472
   11CHTO   C79 4364   5.998   7.869   2.652  0.0274  0.1556  0.5518
   11CHTO  H151 4365   5.967   7.958   2.708 -1.3928  0.4458 -0.6316
   11CHTO   O52 4366   5.914   7.757   2.701 -0.1796  0.4810  1.1457
   11CHTO   C86 4367   5.908   7.638   2.614  0.0309 -0.2040  0.1672
   11CHTO  H158 4368   6.009   7.592   2.621 -0.2287 -1.3846 -2.8314
   11CHTO   C90 4369   5.816   7.543   2.679 -0.1190  0.7291 -0.2132
   11CHTO   O60 4370   5.862   7.468   2.787 -0.0321 -0.6128 -0.3185
   11CHTO  H138 4371   5.801   7.398   2.802  1.9566 -2.4597 -0.6791
   11CHTO   O50 4372   6.135   7.842   2.671 -0.0475  0.3968 -0.1378
   11CHTO   C73 4373   6.264   7.799   2.730 -0.9765  1.2894  0.3283
   11CHTO  H145 4374   6.256   7.742   2.824 -1.1455  0.6326 -0.0796
   11CHTO   C74 4375   6.342   7.927   2.770 -0.5767  0.8847  0.3885
   11CHTO  H146 4376   6.279   7.981   2.843  0.2438 -1.6314  3.0731
   11CHTO   O54 4377   6.463   7.872   2.835  0.2754 -0.0383  0.0947
   11CHTO  H133 4378   6.470   7.891   2.926  2.8866 -0.7542  0.0751
   11CHTO   C75 4379   6.370   8.012   2.638 -0.4724 -1.1860 -0.0441
   11CHTO  H147 4380   6.271   8.040   2.598  0.4906  1.6279 -0.5410
   11CHTO   N13 4381   6.450   8.133   2.654 -0.3692 -0.7796 -0.3055
   11CHTO  H139 4382   6.468   8.166   2.553 -0.2096  0.2648  0.0565
   11CHTO  H140 4383   6.549   8.120   2.696 -0.3903  1.6002  0.5788
   11CHTO   C76 4384   6.431   7.918   2.518 -0.5570 -0.0191 -0.6798
   11CHTO  H148 4385   6.535   7.891   2.541 -0.7152 -0.9254 -1.0080
   11CHTO   O49 4386   6.368   7.787   2.502 -0.2637  0.2107  0.2388
   11CHTO   C77 4387   6.352   7.716   2.627  0.4694  0.9389  0.7624
   11CHTO  H149 4388   6.456   7.713   2.660  0.8589  4.0691 -0.0113
   11CHTO   C88 4389   6.301   7.574   2.623  0.2531  0.4646  1.1343
   11CHTO   O58 4390   6.414   7.481   2.574  0.0094 -0.1864 -0.6776
   11CHTO  H136 4391   6.490   7.494   2.627 -1.2514  0.4464  1.0035
   11CHTO   O51 4392   6.418   7.992   2.384 -0.0495 -0.2903 -0.4357
   11CHTO   C78 4393   6.527   7.937   2.281 -0.6309  0.2331 -0.2741
   11CHTO  H150 4394   6.566   7.836   2.305  0.4123  1.0962  1.8092
   11CHTO   C80 4395   6.638   8.038   2.267 -0.2393 -0.0068  0.5075
   11CHTO  H152 4396   6.592   8.134   2.237  0.2035  0.2570  0.6556
   11CHTO   O55 4397   6.702   8.066   2.393 -0.1618 -0.0806 -0.0496
   11CHTO  H134 4398   6.755   8.143   2.387 -1.2112  0.6850  0.4023
   11CHTO   C84 4399   6.742   7.987   2.153  0.7293 -0.1947 -0.0555
   11CHTO  H156 4400   6.793   7.896   2.186  0.1449 -1.0337 -1.4000
   11CHTO   N15 4401   6.852   8.092   2.140 -0.1326 -0.3712  0.1077
   11CHTO  H143 4402   6.826   8.160   2.062  5.4253  2.8466  0.8340
   11CHTO  H144 4403   6.951   8.057   2.120  0.2507  1.0760 -0.5867
   11CHTO   C87 4404   6.663   7.954   2.024 -0.5229 -0.1697 -0.0751
   11CHTO  H159 4405   6.622   8.046   1.983 -1.2070 -0.6159 -0.4071
   11CHTO   O53 4406   6.547   7.871   2.058  0.0041 -0.4940 -0.5682
   11CHTO   C82 4407   6.452   7.931   2.148  0.3489  0.1798 -0.3841
   11CHTO  H154 4408   6.424   8.029   2.111  1.2430 -0.2397 -2.2177
   11CHTO   C89 4409   6.322   7.849   2.145  0.0201  0.1373  0.3998
   11CHTO   O59 4410   6.360   7.710   2.154  0.3857  0.3654 -1.0656
   11CHTO  H137 4411   6.399   7.689   2.071  0.4410  0.3512 -1.0359
   11CHTO   O45 4412   6.749   7.870   1.925  0.1475  0.2628 -0.1298
   11CHTO   C67 4413   6.676   7.836   1.808 -0.4783 -0.8430  0.1738
   11CHTO  H124 4414   6.584   7.786   1.838 -0.6331 -1.6195 -1.5635
   11CHTO   C65 4415   6.640   7.967   1.717  0.1428 -0.1465  0.6085
   11CHTO  H122 4416   6.717   8.039   1.743 -0.0812  0.3745 -0.1656
   11CHTO   O44 4417   6.506   8.019   1.752  0.1160 -0.4234 -0.9466
   11CHTO  H102 4418   6.478   8.098   1.709 -0.9729  1.2527  2.6228
   11CHTO   C63 4419   6.663   7.956   1.557 -0.1969  0.3874 -0.0018
   11CHTO  H120 4420   6.771   7.950   1.539 -0.2241 -0.8757  0.1877
   11CHTO   N11 4421   6.620   8.068   1.472  0.0887  0.1356  0.5029
   11CHTO  H108 4422   6.515   8.080   1.491  0.4091 -1.1850  3.3718
   11CHTO  H109 4423   6.662   8.165   1.492 -0.4779  0.2883  0.9712
   11CHTO   C61 4424   6.618   7.805   1.511 -0.3828 -0.6052 -0.1112
   11CHTO  H118 4425   6.660   7.786   1.411 -2.0762  1.0255 -1.1697
   11CHTO   O40 4426   6.675   7.700   1.600 -0.0345  0.6236  0.4207
   11CHTO   C68 4427   6.758   7.731   1.722 -0.0256 -0.0046  0.4387
   11CHTO  H125 4428   6.856   7.775   1.694 -0.6229  0.5328 -0.8249
   11CHTO   C72 4429   6.794   7.596   1.789 -0.0091 -0.8569 -0.7714
   11CHTO   O48 4430   6.676   7.516   1.824 -0.1150  0.1336 -0.2586
   11CHTO  H105 4431   6.690   7.466   1.903 -2.8521  0.4034  0.4523
   11CHTO   O38 4432   6.475   7.792   1.507 -1.1807 -0.8072 -0.0589
   11CHTO   C55 4433   6.420   7.678   1.429  0.9729 -0.5288 -0.6167
   11CHTO  H112 4434   6.503   7.607   1.436  2.5228  1.2771 -0.3681
   11CHTO   C56 4435   6.383   7.706   1.280 -0.1560 -0.1358 -0.0068
   11CHTO  H113 4436   6.333   7.802   1.263  2.8716  1.4690 -0.1721
   11CHTO   O42 4437   6.508   7.721   1.204  0.7838 -0.1213 -0.6443
   11CHTO  H100 4438   6.552   7.639   1.185  1.3586  0.2127 -0.7769
   11CHTO   C57 4439   6.301   7.585   1.222  0.1642  0.0109 -0.3163
   11CHTO  H114 4440   6.373   7.505   1.204  0.2313  0.3106 -1.4237
   11CHTO   N10 4441   6.255   7.608   1.081 -0.1282  0.2886 -0.0387
   11CHTO  H106 4442   6.167   7.546   1.070  0.4656 -0.4252 -0.7358
   11CHTO  H107 4443   6.327   7.577   1.007 -0.3879 -0.1845 -0.0936
   11CHTO   C58 4444   6.191   7.545   1.326 -0.2674 -0.2955 -0.7549
   11CHTO  H115 4445   6.114   7.625   1.337  1.0008  0.6859  1.2993
   11CHTO   O37 4446   6.248   7.505   1.454  0.4176 -1.3012  0.7359
   11CHTO   C59 4447   6.305   7.621   1.518  0.4954 -0.5547  0.3395
   11CHTO  H116 4448   6.221   7.688   1.536  0.9780  0.6877 -1.7742
   11CHTO   C70 4449   6.359   7.574   1.647 -0.0633 -0.2599 -0.1180
   11CHTO   O46 4450   6.374   7.682   1.744 -0.1680  0.5053  0.4097
   11CHTO  H103 4451   6.295   7.696   1.792 -0.3632  0.4448  0.1047
   11CHTO   O39 4452   6.126   7.401   1.283 -0.6680  1.0376  0.2687
   11CHTO   C60 4453   5.982   7.405   1.280  0.0402  0.3071  1.0691
   11CHTO  H117 4454   5.952   7.475   1.358 -0.3554  0.1709  1.0379
   11CHTO   C62 4455   5.940   7.472   1.146  0.6060  0.3210  0.1984
   11CHTO  H119 4456   5.977   7.576   1.134  1.8243 -0.0572  0.6341
   11CHTO   O43 4457   5.985   7.400   1.030 -0.0070 -0.9080 -0.5310
   11CHTO  H101 4458   6.075   7.374   1.036  0.1513 -0.5192 -1.2891
   11CHTO   C66 4459   5.780   7.482   1.137  0.3442  0.8830 -0.3691
   11CHTO  H123 4460   5.744   7.548   1.216 -2.9427 -1.0765 -0.1197
   11CHTO   N12 4461   5.723   7.549   1.013 -0.3308  0.4649  0.6537
   11CHTO  H110 4462   5.765   7.511   0.920 -0.7352 -0.7213  0.9555
   11CHTO  H111 4463   5.616   7.541   1.005 -0.3339  1.1931 -0.2081
   11CHTO   C69 4464   5.717   7.342   1.161 -0.2974 -0.1445  0.1583
   11CHTO  H126 4465   5.749   7.275   1.078  1.5280  0.3926  0.4065
   11CHTO   O41 4466   5.773   7.278   1.292  0.0225 -0.0498  0.2274
   11CHTO   C64 4467   5.915   7.264   1.304  0.2351 -0.6009 -0.3564
   11CHTO  H121 4468   5.947   7.187   1.230 -1.5033 -1.9093  0.2222
   11CHTO   C71 4469   5.943   7.208   1.448  0.7205  0.9179  0.1400
   11CHTO   O47 4470   6.075   7.218   1.509 -0.3192  0.3779  0.1885
   11CHTO  H104 4471   6.138   7.236   1.442 -0.0226 -1.1864  0.0407
   11CHTO   O34 4472   5.562   7.333   1.164  0.2407  0.4734 -0.1801
   11CHTO   C49 4473   5.436   7.266   1.191  0.1695  0.6079 -0.6599
   11CHTO   H91 4474   5.424   7.262   1.299  0.0035  0.4196 -0.6852
   11CHTO   C47 4475   5.440   7.130   1.118 -0.4775  0.5400 -0.2604
   11CHTO   H89 4476   5.354   7.071   1.156 -1.0444  0.0835 -2.1767
   11CHTO   O33 4477   5.568   7.060   1.151  0.2486 -0.5112  0.2798
   11CHTO   H70 4478   5.596   7.080   1.238  1.4002  0.3511 -0.2801
   11CHTO   C45 4479   5.417   7.153   0.961  0.4024  0.6994 -0.1055
   11CHTO   H87 4480   5.501   7.218   0.931 -0.1637  0.5149 -2.1737
   11CHTO    N8 4481   5.428   7.023   0.885 -0.3189 -0.0812 -0.0623
   11CHTO   H75 4482   5.332   7.005   0.839  0.8597  0.8702 -3.0242
   11CHTO   H76 4483   5.453   6.943   0.953  1.1013 -0.9649 -1.5817
   11CHTO   C43 4484   5.280   7.234   0.924 -0.5995 -0.6607 -0.2476
   11CHTO   H85 4485   5.289   7.258   0.818  2.2232 -1.3835 -0.2128
   11CHTO   O29 4486   5.277   7.355   1.006  0.0346  0.1133  0.0497
   11CHTO   C50 4487   5.312   7.353   1.146  0.0140  0.7312 -0.5983
   11CHTO   H92 4488   5.341   7.458   1.151  1.4501  0.3628 -0.8812
   11CHTO   C54 4489   5.185   7.329   1.242  0.8125 -0.4733  0.4810
   11CHTO   O36 4490   5.120   7.206   1.227 -0.1454 -0.1807  0.2228
   11CHTO   H72 4491   5.039   7.206   1.275 -1.6119 -1.6191 -2.1925
   11CHTO   O27 4492   5.163   7.154   0.942  0.5797 -0.4351 -0.4462
   11CHTO   C37 4493   5.018   7.127   0.925  0.3364  0.3776  0.7295
   11CHTO   H79 4494   4.980   7.104   1.025  2.3685 -2.0376  0.9742
   11CHTO   C38 4495   4.942   7.246   0.859  0.2911  0.1808 -0.5531
   11CHTO   H80 4496   4.994   7.280   0.769 -1.4397  0.8322 -1.3220
   11CHTO   O31 4497   4.959   7.352   0.952 -1.0549 -0.7168  0.0574
   11CHTO   H68 4498   4.911   7.426   0.921  2.9902  2.2648  0.5072
   11CHTO   C39 4499   4.793   7.219   0.829  0.4126  0.1739 -0.5623
   11CHTO   H81 4500   4.733   7.224   0.920  0.9411 -2.2829 -0.0479
   11CHTO    N7 4501   4.732   7.324   0.736 -0.4838  0.5242  0.2050
   11CHTO   H73 4502   4.795   7.334   0.649  0.6788  0.4530  1.0157
   11CHTO   H74 4503   4.718   7.416   0.791  0.5496  1.5108 -1.1316
   11CHTO   C40 4504   4.768   7.074   0.759  0.2288 -0.1646 -0.5834
   11CHTO   H82 4505   4.758   7.075   0.650 -1.3019  2.2818 -0.4621
   11CHTO   O26 4506   4.857   6.969   0.805  0.4385 -0.1586 -0.2392
   11CHTO   C41 4507   4.998   7.001   0.835  0.0149 -0.3626 -0.0773
   11CHTO   H83 4508   5.044   7.030   0.740  2.4148 -0.5628  0.9898
   11CHTO   C52 4509   5.065   6.879   0.894  0.1890 -0.2484 -0.0106
   11CHTO   O35 4510   5.055   6.761   0.803  0.3291 -0.4105  0.1893
   11CHTO   H71 4511   5.094   6.685   0.843  0.0069 -1.0722 -0.7170
   11CHTO   O28 4512   4.646   7.028   0.821  0.1322 -0.5685 -0.0274
   11CHTO   C42 4513   4.570   6.905   0.789  0.4663 -0.3627  0.3148
   11CHTO   H84 4514   4.627   6.849   0.714 -0.4220 -2.1076  0.9046
   11CHTO   C44 4515   4.427   6.937   0.731  0.1494 -0.8198  0.9240
   11CHTO   H86 4516   4.374   6.980   0.816  0.1535 -0.8402  0.9374
   11CHTO   O32 4517   4.439   7.032   0.622 -0.3811 -0.4320  0.3499
   11CHTO   H69 4518   4.452   7.123   0.644 -1.6609  0.3185 -1.8679
   11CHTO   C48 4519   4.362   6.798   0.683 -0.1162 -0.2474  0.1202
   11CHTO   H90 4520   4.417   6.759   0.597  1.1602 -0.4825  1.0285
   11CHTO    N9 4521   4.213   6.805   0.637  0.5074 -0.0671  0.3402
   11CHTO   H77 4522   4.204   6.904   0.594  1.0990 -1.1749 -2.4755
   11CHTO   H78 4523   4.203   6.733   0.557  0.1408 -0.3613  0.6461
   11CHTO   C51 4524   4.364   6.686   0.800  0.2362  0.0175 -0.2430
   11CHTO   H93 4525   4.291   6.716   0.875  0.0526  1.6301 -1.0573
   11CHTO   O30 4526   4.495   6.673   0.857  0.4270  0.6850 -0.1470
   11CHTO   C46 4527   4.557   6.812   0.911  0.8355 -0.2598 -0.6346
   11CHTO   H88 4528   4.488   6.848   0.987 -0.4707 -1.3854 -1.2558
   11CHTO   C53 4529   4.696   6.777   0.982 -0.2439 -1.0271  0.1623
   11CHTO   O72 4530   4.743   6.886   1.065 -0.0008 -0.1427  0.4772
   11CHTO  H199 4531   4.836   6.881   1.069 -0.0416  0.0092  1.7571
   11CHTO   O22 4532   4.334   6.550   0.756  0.2622 -0.1497  0.4962
   11CHTO   C31 4533   4.331   6.431   0.846  0.4691 -0.0969  0.1335
   11CHTO   H59 4534   4.377   6.469   0.939  0.9135 -1.7665  0.6167
   11CHTO   C29 4535   4.184   6.391   0.880 -0.3044 -0.0785  0.2943
   11CHTO   H57 4536   4.119   6.378   0.792  1.6473  3.9173 -1.8677
   11CHTO   O21 4537   4.122   6.490   0.960 -0.2615 -0.3296  0.1546
   11CHTO   H37 4538   4.107   6.564   0.905  1.3060  0.9359  1.3603
   11CHTO   C27 4539   4.181   6.267   0.964  0.2374 -0.3484 -0.2382
   11CHTO   H55 4540   4.217   6.294   1.064  1.3536 -3.6734  0.3146
   11CHTO    N5 4541   4.038   6.211   0.976 -0.2840  0.1150  0.3379
   11CHTO   H43 4542   4.007   6.195   0.874  1.8951 -0.0695 -0.3228
   11CHTO   H44 4543   4.050   6.120   1.033 -1.2926 -0.1911  0.0810
   11CHTO   C25 4544   4.288   6.150   0.920  0.2532 -0.0928 -0.8495
   11CHTO   H53 4545   4.242   6.081   0.847 -0.7110 -0.3022 -0.0562
   11CHTO   O17 4546   4.418   6.194   0.863 -0.3378  0.0297  0.0752
   11CHTO   C32 4547   4.430   6.317   0.794  0.2261 -0.5298 -0.2621
   11CHTO   H60 4548   4.412   6.302   0.688  1.8983  0.4856 -0.7011
   11CHTO   C36 4549   4.577   6.348   0.796 -0.8397 -0.1285 -0.7366
   11CHTO   O25 4550   4.660   6.258   0.722 -0.1240 -0.2499  0.3106
   11CHTO   H40 4551   4.697   6.315   0.658 -3.0223  2.3808  0.8603
   11CHTO   O15 4552   4.327   6.079   1.030  0.9561 -0.0800 -0.1100
   11CHTO   C19 4553   4.337   5.947   1.086  0.4230  0.2448  0.2716
   11CHTO   H47 4554   4.438   5.951   1.130  0.7973  0.1267 -0.5709
   11CHTO   C20 4555   4.231   5.906   1.192  0.8151  0.5215 -0.0782
   11CHTO   H48 4556   4.130   5.922   1.151  0.4639  1.0051  0.9461
   11CHTO   O19 4557   4.238   5.988   1.312 -0.3687  0.2139 -0.4144
   11CHTO   H35 4558   4.250   6.078   1.289 -0.0906  0.1862 -0.3878
   11CHTO   C21 4559   4.237   5.749   1.230 -0.7143 -0.9151 -0.1240
   11CHTO   H49 4560   4.338   5.727   1.267 -0.4012  0.0781 -0.3724
   11CHTO    N4 4561   4.129   5.706   1.329  0.5566 -0.3141 -0.4968
   11CHTO   H41 4562   4.026   5.716   1.298  0.2445  0.1536  0.6742
   11CHTO   H42 4563   4.146   5.603   1.358  0.7184 -0.1619 -0.0645
   11CHTO   C22 4564   4.242   5.673   1.097 -0.1059 -0.1576  0.3207
   11CHTO   H50 4565   4.160   5.704   1.032 -0.5090 -1.9790 -0.0608
   11CHTO   O14 4566   4.367   5.708   1.030  0.0996 -0.7524  0.2306
   11CHTO   C23 4567   4.348   5.838   0.975  0.9075  0.1016 -0.3088
   11CHTO   H51 4568   4.256   5.838   0.914  2.1827  0.0547 -2.2770
   11CHTO   C34 4569   4.472   5.865   0.888 -0.2079 -0.3261  0.0815
   11CHTO   O23 4570   4.592   5.871   0.963  0.0854 -0.1938  0.0278
   11CHTO   H38 4571   4.646   5.796   0.953  0.4194  0.1164 -0.5614
   11CHTO   O16 4572   4.234   5.531   1.110  0.2097  0.4863 -0.2612
   11CHTO   C24 4573   4.168   5.449   0.984  0.4754 -0.8935  0.0253
   11CHTO   H52 4574   4.155   5.515   0.898  0.4714  1.2938  1.6397
   11CHTO   C26 4575   4.040   5.375   1.026  0.2371  0.0142 -0.3368
   11CHTO   H54 4576   4.060   5.305   1.110 -0.8928  2.2730  1.9262
   11CHTO   O20 4577   3.944   5.471   1.069 -0.1183 -0.0632  0.0014
   11CHTO   H36 4578   3.910   5.513   0.992 -0.4403 -0.7592 -0.2351
   11CHTO   C30 4579   3.987   5.292   0.906  0.8200  0.2430  0.0712
   11CHTO   H58 4580   3.944   5.361   0.831  1.7591  0.2804 -0.4366
   11CHTO    N6 4581   3.866   5.216   0.947 -0.1490  0.5748  0.1646
   11CHTO   H45 4582   3.881   5.169   1.043 -2.2519 -2.1252 -0.7374
   11CHTO   H46 4583   3.778   5.279   0.947 -1.7071 -1.5002 -2.4451
   11CHTO   C33 4584   4.100   5.213   0.833  0.0143 -0.3704 -0.0940
   11CHTO   H61 4585   4.118   5.127   0.898  1.0679 -0.1310 -0.0549
   11CHTO   O18 4586   4.220   5.287   0.818 -0.0694 -0.2980 -0.0930
   11CHTO   C28 4587   4.270   5.346   0.937  0.4925 -0.0200  0.1831
   11CHTO   H56 4588   4.289   5.271   1.014 -0.6942 -2.8184 -2.1212
   11CHTO   C35 4589   4.400   5.411   0.898  0.2473  0.1519  0.3996
   11CHTO   O24 4590   4.504   5.317   0.855  0.4171 -0.3527 -0.1393
   11CHTO   H39 4591   4.576   5.364   0.818 -2.3388  3.4431 -1.0425
   11CHTO    O9 4592   4.053   5.159   0.711 -0.3580 -0.4126 -0.3987
   11CHTO   C13 4593   4.030   5.282   0.600  0.7974 -0.5980 -0.9794
   11CHTO   H26 4594   4.015   5.379   0.652  3.4461 -0.5650 -0.2069
   11CHTO   C11 4595   3.899   5.241   0.511 -0.2709  0.8699 -0.1376
   11CHTO   H24 4596   3.814   5.221   0.578 -1.3834  1.1050 -1.4516
   11CHTO    O8 4597   3.933   5.123   0.435 -0.0136 -0.5033  0.1259
   11CHTO    H3 4598   3.981   5.151   0.360 -2.2069  0.4089 -0.9828
   11CHTO    C9 4599   3.860   5.371   0.430  0.0984  0.3100 -0.1556
   11CHTO   H22 4600   3.811   5.439   0.501  0.4086 -0.5054  0.8410
   11CHTO    N2 4601   3.752   5.347   0.331  0.0495 -0.2190  0.0453
   11CHTO   H10 4602   3.764   5.260   0.269  0.0517  0.4667 -0.9149
   11CHTO   H11 4603   3.748   5.430   0.262  0.8574 -1.2156 -1.1949
   11CHTO    C7 4604   3.994   5.437   0.377 -0.2038  0.0978  0.4271
   11CHTO   H20 4605   4.020   5.516   0.451 -0.6654  1.0716 -0.4457
   11CHTO    O4 4606   4.112   5.351   0.368  0.2210 -0.1654 -0.3874
   11CHTO   C14 4607   4.152   5.304   0.499 -0.3469  0.0757  0.3379
   11CHTO   H27 4608   4.217   5.381   0.546  0.0213 -0.1194  0.1411
   11CHTO   C18 4609   4.232   5.169   0.491 -0.0988  0.4982 -0.4327
   11CHTO   O13 4610   4.357   5.193   0.420 -0.2539  0.2128 -0.4911
   11CHTO    H7 4611   4.407   5.114   0.423 -0.9006 -0.2122 -0.7977
   11CHTO    O2 4612   3.971   5.508   0.226  0.5380 -0.2078  0.0091
   11CHTO    C1 4613   4.042   5.628   0.191  0.2653  0.4823  0.4603
   11CHTO   H14 4614   4.110   5.657   0.274  0.4891  1.1168  0.0632
   11CHTO    C2 4615   3.945   5.745   0.166 -0.8148 -0.0773  0.0097
   11CHTO   H15 4616   3.882   5.733   0.077  0.0751 -0.0503 -0.6377
   11CHTO    O6 4617   3.859   5.747   0.283  0.4771  0.7591  0.3567
   11CHTO    H1 4618   3.787   5.801   0.259  0.3523  0.0864 -0.8410
   11CHTO    C3 4619   4.031   5.882   0.160  0.7472 -0.1954  0.0279
   11CHTO   H16 4620   4.080   5.898   0.257 -0.4560  0.7306  0.4898
   11CHTO    N1 4621   3.941   6.002   0.125  1.1261  0.9214  0.5306
   11CHTO    H8 4622   3.845   5.991   0.173  1.7565  0.3491  1.6981
   11CHTO    H9 4623   3.993   6.095   0.141  0.8290  0.7191  2.9410
   11CHTO    C4 4624   4.150   5.861   0.056  0.0549  0.6626 -0.6237
   11CHTO   H17 4625   4.104   5.867  -0.042 -1.6289  2.2978  0.2452
   11CHTO    O1 4626   4.221   5.740   0.076 -0.2987  0.0543  0.5613
   11CHTO    C5 4627   4.140   5.622   0.069 -0.3444 -0.3142  0.1058
   11CHTO   H18 4628   4.095   5.623  -0.030 -1.7489  3.3534  0.6764
   11CHTO   C16 4629   4.228   5.487   0.080  0.6366  0.3623  0.4303
   11CHTO   O11 4630   4.145   5.369   0.056  0.4711 -0.2714  0.4121
   11CHTO    H5 4631   4.172   5.294   0.106 -0.6760 -0.2913  0.9995
   11CHTO    O3 4632   4.234   5.972   0.067  0.1397  0.1772 -0.1981
   11CHTO    C6 4633   4.311   6.008  -0.043 -0.0203 -0.0813  0.7448
   11CHTO   H19 4634   4.308   5.934  -0.124 -0.3400  1.1302 -0.3709
   11CHTO    C8 4635   4.262   6.143  -0.099  0.2522 -0.0390  0.3028
   11CHTO   H21 4636   4.271   6.214  -0.017  0.2727  1.9288 -1.3502
   11CHTO    O7 4637   4.121   6.131  -0.139  0.0906 -0.1697 -0.6576
   11CHTO    H2 4638   4.063   6.097  -0.074  0.7527 -0.8643 -0.4185
   11CHTO   C12 4639   4.351   6.187  -0.220  0.5644  0.0291  0.8118
   11CHTO   H25 4640   4.333   6.117  -0.304  0.3182  1.5461 -0.4232
   11CHTO    N3 4641   4.319   6.321  -0.282 -0.2199 -0.3061 -0.0472
   11CHTO   H12 4642   4.396   6.393  -0.260  1.0215 -1.9645  1.1442
   11CHTO   H13 4643   4.224   6.363  -0.254  0.6313  1.8047 -0.2760
   11CHTO   C15 4644   4.499   6.176  -0.173  0.1725  0.3738  0.5449
   11CHTO   H28 4645   4.533   6.256  -0.107  1.2745  0.0908  0.3272
   11CHTO   O10 4646   4.593   6.163  -0.278 -0.0765  0.2396 -0.1196
   11CHTO    H4 4647   4.608   6.251  -0.307  0.1510  1.0734  2.4000
   11CHTO    O5 4648   4.533   6.053  -0.119 -0.0117 -0.2036 -0.0709
   11CHTO   C10 4649   4.462   6.027   0.001 -0.9471  0.2101 -0.4268
   11CHTO   H23 4650   4.469   6.115   0.064 -0.3599  0.4667 -0.8479
   11CHTO   C17 4651   4.525   5.903   0.071  0.4732  0.2242  0.0555
   11CHTO   O12 4652   4.458   5.861   0.190  0.5882  0.0409 -0.4046
   11CHTO    H6 4653   4.378   5.820   0.164  0.1151 -0.0192  1.1403
   12CHTO  H203 4654   5.346   2.145   2.062  1.5582 -1.4699  2.0558
   12CHTO   O82 4655   5.284   2.185   2.120  0.2223 -0.8103  0.2309
   12CHTO  C123 4656   5.269   2.097   2.236  0.2046 -0.5064 -0.2480
   12CHTO  H227 4657   5.296   2.156   2.325  2.6609 -0.9890 -0.6365
   12CHTO   O77 4658   5.125   2.062   2.246  0.2322  0.3479 -0.1800
   12CHTO  C118 4659   5.087   1.966   2.349 -0.1160  0.4695 -0.5715
   12CHTO  H222 4660   5.119   2.014   2.443 -0.0055 -0.4813 -0.1199
   12CHTO  C125 4661   4.930   1.942   2.350 -0.3536  0.2655  0.0360
   12CHTO   O84 4662   4.884   1.851   2.244  0.3816  0.7349 -0.2972
   12CHTO  H205 4663   4.888   1.900   2.164  3.9756 -0.8415 -1.1825
   12CHTO  C114 4664   5.158   1.834   2.331  0.4954  0.6016 -0.1840
   12CHTO  H218 4665   5.129   1.794   2.234 -0.6999  0.4019  0.2415
   12CHTO  C116 4666   5.313   1.853   2.330 -0.4814 -0.4386 -0.2069
   12CHTO  H220 4667   5.345   1.884   2.431 -2.2901  2.1552 -0.3840
   12CHTO   O79 4668   5.372   1.728   2.295 -0.4360 -0.5772  0.4925
   12CHTO  H201 4669   5.315   1.668   2.252 -1.4107  0.7647 -0.1505
   12CHTO  C120 4670   5.355   1.966   2.224 -0.4199 -0.3430 -0.3565
   12CHTO  H224 4671   5.352   1.918   2.125  1.4601 -1.0070 -0.1197
   12CHTO   N21 4672   5.496   1.999   2.256  0.1808 -0.7309 -0.4187
   12CHTO  H211 4673   5.507   2.105   2.238 -0.9439 -0.8639 -1.9989
   12CHTO  H212 4674   5.557   1.945   2.185  0.5038 -0.9823  0.0508
   12CHTO   O75 4675   5.105   1.752   2.435  0.3782  0.3468 -0.0524
   12CHTO  C112 4676   5.074   1.592   2.377  0.2696 -0.9486 -0.5420
   12CHTO  H216 4677   5.147   1.558   2.302  2.6689  0.6108  1.0067
   12CHTO   O73 4678   4.940   1.589   2.326  0.1843  0.3128 -0.4934
   12CHTO  C113 4679   4.892   1.465   2.281 -0.6072 -1.0955 -0.0919
   12CHTO  H217 4680   4.949   1.450   2.187 -0.0242 -1.4957  0.3192
   12CHTO  C124 4681   4.747   1.481   2.229  0.4151 -0.1259 -0.0931
   12CHTO   O83 4682   4.736   1.587   2.138  0.3479 -0.5637 -0.6383
   12CHTO  H204 4683   4.734   1.667   2.186 -3.1899 -1.2233  0.4446
   12CHTO  C109 4684   4.905   1.357   2.395  0.4696 -0.3035 -0.0435
   12CHTO  H213 4685   4.833   1.383   2.474  0.3327 -1.8450  0.3680
   12CHTO  C110 4686   5.047   1.350   2.447  1.4020 -0.1436  0.2047
   12CHTO  H214 4687   5.112   1.311   2.369 -1.7322 -1.6009 -1.8033
   12CHTO   O78 4688   5.034   1.263   2.558 -0.5466  1.0770 -0.0617
   12CHTO  H200 4689   5.119   1.244   2.593  0.1887  0.7620 -1.9882
   12CHTO  C111 4690   5.095   1.489   2.491 -1.0480 -0.2800  0.2073
   12CHTO  H215 4691   5.036   1.533   2.573 -0.4335  1.3642 -0.2047
   12CHTO   N19 4692   5.235   1.494   2.538  0.6410 -0.2097 -0.3638
   12CHTO  H207 4693   5.258   1.593   2.575  0.2954 -0.4177  0.4302
   12CHTO  H208 4694   5.309   1.447   2.475  0.1086 -1.9157  0.2622
   12CHTO   O74 4695   4.873   1.225   2.346  0.4757 -0.3082  0.7847
   12CHTO  C115 4696   4.751   1.157   2.453 -0.3764  0.0697 -0.3645
   12CHTO  H219 4697   4.759   1.208   2.548  1.8695 -2.3317  0.7967
   12CHTO   O76 4698   4.588   1.197   2.399  0.1735  0.8893  0.5610
   12CHTO  C122 4699   4.574   1.141   2.265 -0.4837  0.2798 -0.4256
   12CHTO  H226 4700   4.663   1.166   2.207  0.6114  1.1414  1.5942
   12CHTO  C126 4701   4.452   1.205   2.190  0.4077 -0.6718  0.1619
   12CHTO   O85 4702   4.329   1.208   2.266 -0.0255  0.2507  0.2978
   12CHTO  H206 4703   4.270   1.258   2.214 -2.1138 -2.1765  0.2621
   12CHTO  C121 4704   4.574   0.986   2.281  0.1714 -0.0887 -0.7720
   12CHTO  H225 4705   4.468   0.952   2.272  0.3073 -0.9156  0.6715
   12CHTO   O81 4706   4.645   0.928   2.168 -0.2104 -0.0928 -0.8793
   12CHTO  H202 4707   4.616   0.954   2.083  3.5461  0.2223 -2.1719
   12CHTO  C119 4708   4.637   0.938   2.412  0.2600  0.4887 -0.1268
   12CHTO  H223 4709   4.567   0.972   2.487  1.9526 -0.0387  1.7452
   12CHTO  C117 4710   4.775   1.001   2.443  0.0441  0.1077 -0.2716
   12CHTO  H221 4711   4.851   0.979   2.368  0.6492 -1.1772  0.7140
   12CHTO   N20 4712   4.829   0.948   2.563  0.4196 -0.4182 -0.0680
   12CHTO  H209 4713   4.791   0.848   2.577  0.6715 -0.4689  0.2458
   12CHTO  H210 4714   4.937   0.947   2.558  0.4382  0.0701  0.1583
   12CHTO   O80 4715   4.629   0.767   2.431 -0.0128  0.0434  1.0013
   12CHTO  C103 4716   4.498   0.702   2.506 -0.4600  0.3105 -0.2181
   12CHTO  H190 4717   4.459   0.764   2.586 -2.8341  0.2308 -1.2566
   12CHTO  C101 4718   4.386   0.658   2.410  0.2566 -0.0262  0.5084
   12CHTO  H188 4719   4.430   0.595   2.332 -1.7587 -1.4710  0.5097
   12CHTO   O68 4720   4.322   0.776   2.349  0.6452 -0.2508 -0.4000
   12CHTO  H168 4721   4.288   0.843   2.404  0.7021 -0.9618  0.5053
   12CHTO   C99 4722   4.275   0.568   2.492  0.8639  0.0352 -0.4928
   12CHTO  H186 4723   4.241   0.630   2.577  3.9390  0.0449  0.7612
   12CHTO   N17 4724   4.161   0.527   2.404 -0.3847  0.7149  0.4733
   12CHTO  H174 4725   4.107   0.616   2.373 -0.4361  1.3273  2.2519
   12CHTO  H175 4726   4.197   0.477   2.315  1.9965  1.6555  0.8614
   12CHTO   C97 4727   4.342   0.443   2.555  0.0323  0.2526 -0.7576
   12CHTO  H184 4728   4.366   0.367   2.480  1.1406 -1.2151  1.0463
   12CHTO   O64 4729   4.455   0.487   2.626 -0.0972  0.2402  0.1021
   12CHTO  C104 4730   4.559   0.569   2.567 -0.7470  0.3476  0.4034
   12CHTO  H191 4731   4.608   0.512   2.488 -1.4386 -1.5428  1.3020
   12CHTO  C108 4732   4.662   0.601   2.671  0.1837 -1.0208  0.0774
   12CHTO   O71 4733   4.792   0.640   2.627  0.5215 -0.4283 -0.7175
   12CHTO  H171 4734   4.855   0.663   2.693  1.2290 -0.6868 -1.3041
   12CHTO   O62 4735   4.249   0.398   2.659  0.4343  0.3930  0.2246
   12CHTO   C91 4736   4.273   0.267   2.711 -0.3296  1.0147 -0.6774
   12CHTO  H178 4737   4.370   0.236   2.673  0.4537 -1.7025  3.1986
   12CHTO   C92 4738   4.161   0.164   2.672 -0.1571  0.1029 -0.6321
   12CHTO  H179 4739   4.067   0.214   2.699  0.5747  2.9870 -3.1679
   12CHTO   O66 4740   4.152   0.155   2.529  0.0141  0.3782 -0.1129
   12CHTO  H166 4741   4.101   0.078   2.512  1.2202 -0.0267 -2.0782
   12CHTO   C93 4742   4.178   0.020   2.739 -0.9066  0.0175 -0.7411
   12CHTO  H180 4743   4.252  -0.043   2.687 -1.5123 -1.9020  0.6617
   12CHTO   N16 4744   4.045  -0.047   2.733 -1.0342  0.5243 -0.1070
   12CHTO  H172 4745   3.968   0.024   2.762 -2.1586 -1.4022  1.7780
   12CHTO  H173 4746   4.044  -0.126   2.807 -0.3305  1.6957  1.1786
   12CHTO   C94 4747   4.224   0.036   2.890 -0.3981 -0.0571  0.3809
   12CHTO  H181 4748   4.143   0.060   2.958  0.9637  0.9927  1.6661
   12CHTO   O61 4749   4.325   0.140   2.909 -0.0493  0.3962 -0.2165
   12CHTO   C95 4750   4.284   0.270   2.872  0.0896  0.0752 -0.3681
   12CHTO  H182 4751   4.188   0.290   2.920 -0.2599  1.1887 -1.5051
   12CHTO  C106 4752   4.392   0.373   2.916 -0.3018  0.5598 -0.4414
   12CHTO   O69 4753   4.337   0.502   2.906  0.0057  0.2614 -0.2121
   12CHTO  H169 4754   4.317   0.521   2.995 -0.2343 -0.5743 -0.0798
   12CHTO   O63 4755   4.290  -0.116   2.941 -0.0116 -0.4004 -0.3078
   12CHTO   C96 4756   4.359  -0.121   3.099 -0.1931 -0.4129 -0.1242
   12CHTO  H183 4757   4.320  -0.035   3.153 -0.7237 -1.4257  1.1586
   12CHTO   C98 4758   4.517  -0.112   3.119  0.0143 -0.9187 -0.0724
   12CHTO  H185 4759   4.567  -0.195   3.066  1.3265 -1.0858  1.4138
   12CHTO   O67 4760   4.560   0.005   3.062 -0.2778 -0.6814 -0.9301
   12CHTO  H167 4761   4.648   0.017   3.091 -0.0491  0.5651 -2.0805
   12CHTO  C102 4762   4.548  -0.130   3.273 -1.0273 -0.1274  0.0019
   12CHTO  H189 4763   4.537  -0.028   3.313 -1.5629 -0.1204 -0.1596
   12CHTO   N18 4764   4.694  -0.166   3.306  0.3764  0.2718  0.1983
   12CHTO  H176 4765   4.745  -0.081   3.349  0.8311 -0.6310  1.4787
   12CHTO  H177 4766   4.740  -0.188   3.211  1.9911 -0.3937  1.1335
   12CHTO  C105 4767   4.444  -0.216   3.349  0.0123  0.0803 -0.1552
   12CHTO  H192 4768   4.499  -0.279   3.420 -1.1508  0.8678  1.4734
   12CHTO   O65 4769   4.361  -0.306   3.276 -0.2134 -0.2735 -0.3020
   12CHTO  C100 4770   4.296  -0.255   3.160  0.4741 -0.0084 -0.3810
   12CHTO  H187 4771   4.306  -0.334   3.085  1.9976  1.2524 -1.5580
   12CHTO  C107 4772   4.147  -0.234   3.198 -0.4505 -0.3967  0.0671
   12CHTO   O70 4773   4.049  -0.217   3.095 -0.4649 -0.3707  0.6104
   12CHTO  H170 4774   3.963  -0.207   3.131 -0.5870 -1.5265  0.6632
   12CHTO   O57 4775   4.353  -0.098   3.428 -0.4533  0.0809  0.0990
   12CHTO   C85 4776   4.344  -0.088   3.569  0.3038  0.0878  0.0554
   12CHTO  H157 4777   4.259  -0.019   3.590 -1.2638 -1.5631 -0.7633
   12CHTO   C83 4778   4.466  -0.017   3.631 -0.2088  0.2578  0.0697
   12CHTO  H155 4779   4.481   0.083   3.592 -0.3706  0.5947  0.8604
   12CHTO   O56 4780   4.587  -0.091   3.590  0.5583  0.3654 -0.1195
   12CHTO  H135 4781   4.564  -0.172   3.548 -0.5863  1.1211 -0.9700
   12CHTO   C81 4782   4.446  -0.005   3.779 -0.0327  0.5124  0.1743
   12CHTO  H153 4783   4.349   0.040   3.801 -0.5598 -1.4611  1.9843
   12CHTO   N14 4784   4.543   0.092   3.835  0.7417 -0.0035 -0.8839
   12CHTO  H141 4785   4.638   0.043   3.842  0.0354 -1.1121  2.0259
   12CHTO  H142 4786   4.548   0.180   3.774  1.8047  0.0904 -0.6631
   12CHTO   C79 4787   4.452  -0.142   3.847 -0.5221 -0.0466  0.6146
   12CHTO  H151 4788   4.440  -0.122   3.953  1.9292  0.0316  0.9139
   12CHTO   O52 4789   4.340  -0.210   3.786 -0.1776  0.3171 -0.5819
   12CHTO   C86 4790   4.330  -0.229   3.644 -0.0925  0.0019 -0.6791
   12CHTO  H158 4791   4.416  -0.293   3.618  0.9747  1.3724 -0.5588
   12CHTO   C90 4792   4.207  -0.302   3.598 -0.0870 -1.1958 -0.4150
   12CHTO   O60 4793   4.201  -0.435   3.654  0.0144  0.1523  0.0741
   12CHTO  H138 4794   4.273  -0.471   3.702 -2.0638 -0.4887  2.7838
   12CHTO   O50 4795   4.567  -0.226   3.845  0.0735 -0.1635 -0.0691
   12CHTO   C73 4796   4.622  -0.348   3.911  0.1721  0.4574 -1.0029
   12CHTO  H145 4797   4.535  -0.406   3.943  1.1584 -0.4569  0.0600
   12CHTO   C74 4798   4.706  -0.321   4.048 -0.1861  0.2991 -0.3245
   12CHTO  H146 4799   4.637  -0.263   4.113 -0.0530 -0.7838  0.8012
   12CHTO   O54 4800   4.726  -0.452   4.108 -0.0830 -0.5542  0.0244
   12CHTO  H133 4801   4.781  -0.497   4.046 -0.1788 -0.7916  0.1127
   12CHTO   C75 4802   4.833  -0.236   4.008  0.3177 -0.5964  0.8570
   12CHTO  H147 4803   4.796  -0.141   3.966  0.2274  0.0394  2.3455
   12CHTO   N13 4804   4.921  -0.205   4.129  0.0266 -0.6093  0.1478
   12CHTO  H139 4805   4.944  -0.290   4.191  0.9669 -1.0254 -0.7513
   12CHTO  H140 4806   4.892  -0.119   4.187 -1.7491 -0.6260 -0.6556
   12CHTO   C76 4807   4.924  -0.322   3.897  0.4884 -0.2292  0.0188
   12CHTO  H148 4808   4.940  -0.424   3.930  0.3855 -0.7205 -1.4079
   12CHTO   O49 4809   4.830  -0.345   3.783 -0.3495 -0.3392 -0.2979
   12CHTO   C77 4810   4.709  -0.424   3.815 -0.0228 -0.4897 -0.0303
   12CHTO  H149 4811   4.737  -0.518   3.862 -1.1023 -1.3671 -1.1121
   12CHTO   C88 4812   4.628  -0.448   3.684  0.5247 -0.0816  0.1979
   12CHTO   O58 4813   4.523  -0.523   3.706 -0.1360 -0.4536 -0.0525
   12CHTO  H136 4814   4.467  -0.515   3.632 -0.4373 -3.5602 -0.2569
   12CHTO   O51 4815   5.044  -0.244   3.842  0.0812  0.0402 -0.6095
   12CHTO   C78 4816   5.128  -0.314   3.738 -0.3725  0.3449  0.5956
   12CHTO  H150 4817   5.075  -0.392   3.680  1.5651 -2.1284  2.0837
   12CHTO   C80 4818   5.243  -0.389   3.811 -0.3231  0.3160 -0.4850
   12CHTO  H152 4819   5.285  -0.321   3.888 -1.0005 -1.6451  1.6611
   12CHTO   O55 4820   5.193  -0.506   3.885 -0.6167  0.1518 -0.5356
   12CHTO  H134 4821   5.241  -0.522   3.964  0.5973  0.5731 -1.1762
   12CHTO   C84 4822   5.357  -0.443   3.707  0.1607 -0.0445  0.4191
   12CHTO  H156 4823   5.310  -0.509   3.633  1.0084  1.8375 -1.8644
   12CHTO   N15 4824   5.476  -0.508   3.763 -0.1988 -0.3291 -0.2126
   12CHTO  H143 4825   5.479  -0.602   3.712 -0.1596 -0.5048  0.1121
   12CHTO  H144 4826   5.489  -0.520   3.868 -0.3174  0.6216 -0.0871
   12CHTO   C87 4827   5.398  -0.336   3.611 -0.4697 -0.0498 -0.0252
   12CHTO  H159 4828   5.438  -0.260   3.679  2.3022 -1.3638 -0.1280
   12CHTO   O53 4829   5.277  -0.276   3.545  0.7336  0.5876 -0.1694
   12CHTO   C82 4830   5.187  -0.215   3.639  0.3489  0.4655  0.4239
   12CHTO  H154 4831   5.232  -0.134   3.696 -0.3368  2.8226 -2.2403
   12CHTO   C89 4832   5.077  -0.152   3.556  0.1612 -0.0203 -0.4964
   12CHTO   O59 4833   4.991  -0.062   3.632  0.2092 -0.2840 -0.6193
   12CHTO  H137 4834   5.000   0.029   3.608  1.0727 -0.5283 -1.2335
   12CHTO   O45 4835   5.507  -0.411   3.486  0.6326 -0.1786  0.0858
   12CHTO   C67 4836   5.567  -0.318   3.395 -0.2082 -0.6811  0.3436
   12CHTO  H124 4837   5.656  -0.370   3.361  1.7547  2.8642 -0.2439
   12CHTO   C65 4838   5.477  -0.279   3.274  0.6385 -0.3204 -0.1549
   12CHTO  H122 4839   5.376  -0.270   3.314  0.7913 -0.9488  0.3837
   12CHTO   O44 4840   5.482  -0.393   3.189  0.0974 -0.9028 -0.1006
   12CHTO  H102 4841   5.570  -0.415   3.165  0.7381  1.1107  0.3735
   12CHTO   C63 4842   5.514  -0.136   3.208 -0.6161  0.2449 -0.0179
   12CHTO  H120 4843   5.473  -0.061   3.276 -0.1276  0.7184 -0.2421
   12CHTO   N11 4844   5.453  -0.110   3.078 -0.2038 -0.4526 -0.0365
   12CHTO  H108 4845   5.440  -0.007   3.053 -0.3907 -0.1943  1.1047
   12CHTO  H109 4846   5.525  -0.141   3.004  1.4749  2.5316  0.2587
   12CHTO   C61 4847   5.662  -0.109   3.232  0.0015  0.1661  0.8548
   12CHTO  H118 4848   5.685  -0.012   3.188 -0.7593 -0.8511 -1.8995
   12CHTO   O40 4849   5.696  -0.107   3.365 -0.1427  0.1925  0.3794
   12CHTO   C68 4850   5.628  -0.189   3.460 -0.6481  0.9427 -0.1283
   12CHTO  H125 4851   5.541  -0.139   3.507  0.3243  0.4302  2.3021
   12CHTO   C72 4852   5.725  -0.228   3.574  0.4381 -0.5954 -0.7334
   12CHTO   O48 4853   5.778  -0.119   3.647  0.7181  0.1943  0.6904
   12CHTO  H105 4854   5.796  -0.153   3.732 -1.1270 -0.9164  0.6660
   12CHTO   O38 4855   5.751  -0.207   3.161 -0.0999  0.4514 -0.1982
   12CHTO   C55 4856   5.876  -0.158   3.109 -0.9552 -0.0272 -0.3635
   12CHTO  H112 4857   5.900  -0.060   3.152 -0.1075  0.9195 -2.9185
   12CHTO   C56 4858   5.885  -0.152   2.950  1.1807  0.4581 -0.0049
   12CHTO  H113 4859   5.859  -0.252   2.914  0.3211  0.5591  0.3086
   12CHTO   O42 4860   5.772  -0.065   2.914 -0.4230  0.4023  0.1717
   12CHTO  H100 4861   5.798   0.020   2.944 -1.6555 -0.2554  3.2577
   12CHTO   C57 4862   6.024  -0.099   2.902 -0.7650 -0.5283  0.4283
   12CHTO  H114 4863   6.039  -0.001   2.948  1.7495 -1.4231  1.6377
   12CHTO   N10 4864   6.036  -0.086   2.757  0.5523  0.0352  0.3466
   12CHTO  H106 4865   5.949  -0.046   2.706  0.1312 -0.2558  0.8248
   12CHTO  H107 4866   6.119  -0.021   2.735  1.8226 -1.5609  0.3109
   12CHTO   C58 4867   6.136  -0.195   2.958  0.0233 -0.0932  0.2692
   12CHTO  H115 4868   6.118  -0.297   2.917  0.3466  0.5082 -1.3979
   12CHTO   O37 4869   6.117  -0.208   3.104 -0.6700  0.3514  0.1118
   12CHTO   C59 4870   5.992  -0.256   3.151  0.1974 -0.3394  0.2304
   12CHTO  H116 4871   5.982  -0.356   3.109  2.6391 -0.8685  0.8166
   12CHTO   C70 4872   6.005  -0.261   3.301 -0.1415 -0.0992  0.2210
   12CHTO   O46 4873   5.938  -0.380   3.346  0.2408 -0.1520 -0.0874
   12CHTO  H103 4874   5.864  -0.347   3.394  0.9921  2.0392 -0.3886
   12CHTO   O39 4875   6.298  -0.129   2.924  0.1639  0.2461  0.3787
   12CHTO   C60 4876   6.402  -0.225   2.936 -0.0989  0.4625  0.0648
   12CHTO  H117 4877   6.354  -0.323   2.941  1.2000 -0.1623  0.4447
   12CHTO   C62 4878   6.489  -0.224   2.811 -0.0050 -0.3689  0.1137
   12CHTO  H119 4879   6.410  -0.226   2.734 -0.8068 -1.8144  0.9461
   12CHTO   O43 4880   6.573  -0.107   2.802  0.2482  0.4683 -0.0415
   12CHTO  H101 4881   6.654  -0.118   2.756  0.8758  1.0471  0.8977
   12CHTO   C66 4882   6.573  -0.349   2.800 -0.1679 -0.0411 -0.4319
   12CHTO  H123 4883   6.507  -0.433   2.821  0.4787 -0.4940 -0.2123
   12CHTO   N12 4884   6.633  -0.365   2.664 -0.4806  0.6539 -0.0192
   12CHTO  H110 4885   6.741  -0.360   2.671 -0.4896 -0.9077  1.6969
   12CHTO  H111 4886   6.590  -0.301   2.589  2.3608  1.4327 -1.0536
   12CHTO   C69 4887   6.666  -0.355   2.919  1.0403  0.2513 -0.4837
   12CHTO  H126 4888   6.750  -0.282   2.914  0.0631  1.4059 -0.3176
   12CHTO   O41 4889   6.584  -0.322   3.068 -0.0683 -0.5511 -0.3261
   12CHTO   C64 4890   6.481  -0.218   3.066 -0.5749 -0.7940  0.4362
   12CHTO  H121 4891   6.543  -0.127   3.078 -0.2013 -1.0222  0.2192
   12CHTO   C71 4892   6.403  -0.225   3.198  0.9158  0.2213 -1.0829
   12CHTO   O47 4893   6.484  -0.190   3.306  0.0996  0.1997 -0.4553
   12CHTO  H104 4894   6.466  -0.254   3.372  0.2625  0.4767 -0.1452
   12CHTO   O34 4895   6.728  -0.494   2.929 -0.4397  0.4485 -0.4328
   12CHTO   C49 4896   6.815  -0.605   2.974  0.2760  0.1334 -0.5809
   12CHTO   H91 4897   6.917  -0.570   2.961  1.0844 -2.4408 -1.4756
   12CHTO   C47 4898   6.796  -0.740   2.901  0.0331  0.2412 -0.2933
   12CHTO   H89 4899   6.886  -0.804   2.917  0.0317  0.1066 -0.8060
   12CHTO   O33 4900   6.789  -0.708   2.762 -0.1213  0.1132 -0.2178
   12CHTO   H70 4901   6.805  -0.790   2.719 -0.4430 -0.8173  1.3967
   12CHTO   C45 4902   6.658  -0.812   2.953 -0.3790  0.4919  0.4765
   12CHTO   H87 4903   6.570  -0.792   2.890 -0.6749  1.7050  1.2528
   12CHTO    N8 4904   6.680  -0.959   2.947 -0.1374  0.0297 -0.3294
   12CHTO   H75 4905   6.595  -1.012   2.988  1.8548 -0.8411  2.8720
   12CHTO   H76 4906   6.682  -0.989   2.843 -1.1809  1.5311 -0.8064
   12CHTO   C43 4907   6.594  -0.738   3.086  0.9681 -0.7149 -0.2921
   12CHTO   H85 4908   6.557  -0.647   3.038 -1.1541 -1.5303 -0.2485
   12CHTO   O29 4909   6.704  -0.709   3.177 -1.1115  0.0823 -0.0155
   12CHTO   C50 4910   6.802  -0.616   3.129  0.1219 -0.1056 -0.0071
   12CHTO   H92 4911   6.766  -0.523   3.174  0.3434  0.3634 -0.7912
   12CHTO   C54 4912   6.936  -0.660   3.199 -0.3831  0.4926 -0.6195
   12CHTO   O36 4913   6.910  -0.633   3.336 -0.4503  0.0087  0.1369
   12CHTO   H72 4914   6.993  -0.644   3.378  0.8046 -2.3888 -2.8441
   12CHTO   O27 4915   6.484  -0.808   3.151  0.2138  0.0657 -0.2996
   12CHTO   C37 4916   6.343  -0.829   3.117 -0.5855 -0.1065  0.6125
   12CHTO   H79 4917   6.329  -0.807   3.010  1.7531 -0.5713  0.1779
   12CHTO   C38 4918   6.296  -0.978   3.144 -0.1491 -0.4628  0.2858
   12CHTO   H80 4919   6.321  -1.002   3.249  0.6107 -0.8602  0.0169
   12CHTO   O31 4920   6.377  -1.069   3.069 -0.1599 -0.4456 -0.7567
   12CHTO   H68 4921   6.466  -1.066   3.098 -0.7287  2.2030  0.9315
   12CHTO   C39 4922   6.137  -0.990   3.121 -0.6289  0.0439 -0.7375
   12CHTO   H81 4923   6.115  -0.986   3.014 -0.5592 -1.3014 -0.8104
   12CHTO    N7 4924   6.080  -1.116   3.165  0.2999 -0.2903 -0.4947
   12CHTO   H73 4925   6.111  -1.146   3.264  0.9345 -0.2832 -0.6866
   12CHTO   H74 4926   6.073  -1.182   3.080 -1.1358  0.1026 -0.6839
   12CHTO   C40 4927   6.061  -0.872   3.199 -0.0002 -0.3670 -0.1032
   12CHTO   H82 4928   6.062  -0.892   3.307  2.7182 -1.8943 -0.3584
   12CHTO   O26 4929   6.114  -0.746   3.161  0.2537  0.2904  0.2761
   12CHTO   C41 4930   6.254  -0.733   3.201  0.6686 -0.3816  0.0764
   12CHTO   H83 4931   6.269  -0.767   3.304  1.3980  1.7911  0.7253
   12CHTO   C52 4932   6.279  -0.576   3.196  0.1927 -0.4055  0.3887
   12CHTO   O35 4933   6.278  -0.531   3.066 -0.8866  0.5340 -0.5951
   12CHTO   H71 4934   6.293  -0.439   3.074 -0.3389  0.3454  0.7509
   12CHTO   O28 4935   5.932  -0.844   3.149 -0.2269  0.7509 -0.1244
   12CHTO   C42 4936   5.822  -0.782   3.211 -0.5451 -0.4157  0.8018
   12CHTO   H84 4937   5.857  -0.707   3.282  1.0424 -2.6448  2.4514
   12CHTO   C44 4938   5.739  -0.878   3.297  0.3375 -0.2431 -0.2353
   12CHTO   H86 4939   5.691  -0.952   3.233  0.7165  0.2424 -1.0833
   12CHTO   O32 4940   5.836  -0.921   3.398 -0.5730  0.2363  0.6429
   12CHTO   H69 4941   5.801  -0.990   3.452  1.9223 -3.3080 -1.9914
   12CHTO   C48 4942   5.624  -0.794   3.352  0.2022 -0.4063  0.0298
   12CHTO   H90 4943   5.675  -0.711   3.400 -0.2254  0.1846 -0.5395
   12CHTO    N9 4944   5.539  -0.875   3.446  0.4445  0.4525  0.0618
   12CHTO   H77 4945   5.466  -0.813   3.495 -0.4691 -1.8655  1.7007
   12CHTO   H78 4946   5.485  -0.947   3.387  2.4837  0.2895 -1.6796
   12CHTO   C51 4947   5.538  -0.723   3.236 -0.6792  0.4000 -0.5573
   12CHTO   H93 4948   5.504  -0.802   3.169  0.1007 -0.6747  0.2997
   12CHTO   O30 4949   5.632  -0.634   3.170 -0.2505  0.3254 -0.8938
   12CHTO   C46 4950   5.730  -0.705   3.113 -0.3178  0.2168  0.2957
   12CHTO   H88 4951   5.692  -0.784   3.049 -1.7937  2.3160 -1.5023
   12CHTO   C53 4952   5.810  -0.612   3.025  0.7197  0.1863  0.3940
   12CHTO   O72 4953   5.723  -0.556   2.921 -0.0225 -0.0314  0.4587
   12CHTO  H199 4954   5.681  -0.479   2.956 -1.3886 -0.6083  0.1307
   12CHTO   O22 4955   5.433  -0.640   3.280 -0.0409  0.5240 -0.7300
   12CHTO   C31 4956   5.292  -0.662   3.255  0.5160  0.0739  0.1311
   12CHTO   H59 4957   5.281  -0.771   3.236 -1.0268  0.2637 -0.0685
   12CHTO   C29 4958   5.204  -0.626   3.378  0.0614 -0.2925 -0.8118
   12CHTO   H57 4959   5.221  -0.520   3.405  3.3392 -1.1338  0.6129
   12CHTO   O21 4960   5.248  -0.707   3.489 -0.3658  0.4666 -0.1717
   12CHTO   H37 4961   5.341  -0.709   3.496 -0.3443 -1.4071 -0.8069
   12CHTO   C27 4962   5.051  -0.654   3.351  0.1255  0.3481  0.2528
   12CHTO   H55 4963   5.033  -0.763   3.353 -2.8198  0.8022  1.1650
   12CHTO    N5 4964   4.973  -0.602   3.461 -0.6149  0.2085 -1.0015
   12CHTO   H43 4965   5.025  -0.553   3.542  0.7354  0.0200 -1.7526
   12CHTO   H44 4966   4.901  -0.673   3.500  1.2696 -1.9445 -1.3344
   12CHTO   C25 4967   5.003  -0.589   3.212 -0.1660 -0.0859 -1.0753
   12CHTO   H53 4968   5.005  -0.479   3.214 -0.7376 -0.0719 -1.4122
   12CHTO   O17 4969   5.102  -0.642   3.113  0.3015  0.2305 -0.0926
   12CHTO   C32 4970   5.239  -0.592   3.128 -0.3990 -0.2344  0.4040
   12CHTO   H60 4971   5.242  -0.484   3.136  0.6619 -0.0515 -2.2591
   12CHTO   C36 4972   5.327  -0.614   2.998 -0.2703  0.1303  0.9685
   12CHTO   O25 4973   5.353  -0.742   2.961 -0.4717 -0.3001 -0.3912
   12CHTO   H40 4974   5.405  -0.738   2.883  1.6510 -0.2766  1.0000
   12CHTO   O15 4975   4.867  -0.640   3.161  0.8487  0.5846  0.2081
   12CHTO   C19 4976   4.760  -0.554   3.102 -0.5245 -0.0129 -0.1578
   12CHTO   H47 4977   4.764  -0.456   3.151 -0.8657  0.6077 -1.3577
   12CHTO   C20 4978   4.782  -0.546   2.943 -0.5884  0.1204  0.5724
   12CHTO   H48 4979   4.803  -0.646   2.901 -1.2699  0.8243 -1.4704
   12CHTO   O19 4980   4.904  -0.477   2.926 -0.8039  0.3843  0.3287
   12CHTO   H35 4981   4.971  -0.525   2.883 -0.5756  3.0315 -2.4138
   12CHTO   C21 4982   4.662  -0.474   2.865 -0.4284  0.2822  0.3397
   12CHTO   H49 4983   4.668  -0.366   2.879  0.6958  0.4874 -1.6292
   12CHTO    N4 4984   4.676  -0.485   2.720  0.0951  0.2218 -0.1261
   12CHTO   H41 4985   4.666  -0.590   2.696  3.3120 -0.2529  0.4011
   12CHTO   H42 4986   4.766  -0.443   2.679  0.8641 -3.0078 -1.9358
   12CHTO   C22 4987   4.526  -0.526   2.922 -0.8460 -0.2462 -0.1385
   12CHTO   H50 4988   4.519  -0.630   2.890 -1.6332 -0.2223 -0.0437
   12CHTO   O14 4989   4.532  -0.528   3.066 -0.4718  0.1423  0.0927
   12CHTO   C23 4990   4.625  -0.612   3.133  0.7806  0.2503 -0.0473
   12CHTO   H51 4991   4.615  -0.714   3.095  0.5678 -0.0419  0.7925
   12CHTO   C34 4992   4.579  -0.617   3.285 -0.1866 -0.2337  0.2420
   12CHTO   O23 4993   4.467  -0.690   3.332 -0.2934 -0.1671  0.3144
   12CHTO   H38 4994   4.483  -0.780   3.310 -0.2608 -0.2344  0.6054
   12CHTO   O16 4995   4.418  -0.443   2.891  1.0468 -0.0150 -0.3971
   12CHTO   C24 4996   4.286  -0.535   2.829  0.0875  0.6020  0.9531
   12CHTO   H52 4997   4.317  -0.628   2.782  0.4288  0.4542  1.4637
   12CHTO   C26 4998   4.222  -0.449   2.719 -0.4006  0.1836  0.1322
   12CHTO   H54 4999   4.176  -0.360   2.767  2.4640  0.4465  2.5224
   12CHTO   O20 5000   4.320  -0.413   2.619 -0.3353 -0.3637  0.4229
   12CHTO   H36 5001   4.399  -0.401   2.668  0.7165 -3.1344 -0.5118
   12CHTO   C30 5002   4.106  -0.531   2.655  0.7944 -0.0800  0.1501
   12CHTO   H58 5003   4.141  -0.619   2.600 -0.6962  1.1735 -2.9430
   12CHTO    N6 5004   4.021  -0.462   2.550 -0.3334  0.0805  0.2769
   12CHTO   H45 5005   4.077  -0.433   2.462 -2.9224  1.9719 -0.8049
   12CHTO   H46 5006   3.945  -0.531   2.517  0.0122 -0.0139 -0.3255
   12CHTO   C33 5007   4.007  -0.591   2.764 -0.0207 -0.2239  0.5715
   12CHTO   H61 5008   3.951  -0.509   2.810  0.8357  0.6692  0.0349
   12CHTO   O18 5009   4.084  -0.653   2.863  0.3858  0.2086 -0.8669
   12CHTO   C28 5010   4.181  -0.577   2.938  0.5862 -0.1323  0.2536
   12CHTO   H56 5011   4.145  -0.483   2.981  0.2490 -1.1751  2.3185
   12CHTO   C35 5012   4.238  -0.672   3.049  0.5267 -0.5209  0.2205
   12CHTO   O24 5013   4.302  -0.789   3.001 -0.2124  0.2321  0.1357
   12CHTO   H39 5014   4.243  -0.841   2.949  0.2360 -2.0433  1.8100
   12CHTO    O9 5015   3.903  -0.687   2.715  0.0054  0.1661  0.4444
   12CHTO   C13 5016   3.953  -0.818   2.643 -0.3175 -0.1101  0.1788
   12CHTO   H26 5017   4.062  -0.808   2.620 -0.1271 -0.3882  0.9614
   12CHTO   C11 5018   3.870  -0.861   2.515 -0.3086 -0.8304  0.2150
   12CHTO   H24 5019   3.893  -0.782   2.442 -0.0744 -1.8486 -0.8253
   12CHTO    O8 5020   3.727  -0.850   2.532  0.7827 -0.0299 -0.1181
   12CHTO    H3 5021   3.701  -0.834   2.621  0.2053 -1.3981 -0.0266
   12CHTO    C9 5022   3.922  -1.000   2.469 -0.3135 -0.0117 -0.5348
   12CHTO   H22 5023   4.030  -0.987   2.451  0.0874 -0.0891  1.6826
   12CHTO    N2 5024   3.869  -1.033   2.336 -0.4227 -0.2043 -0.4677
   12CHTO   H10 5025   3.954  -1.042   2.270 -0.2429  0.2209 -0.2977
   12CHTO   H11 5026   3.801  -0.956   2.300  0.6536  1.5294  1.1046
   12CHTO    C7 5027   3.897  -1.107   2.581 -0.2368 -0.4337 -0.1289
   12CHTO   H20 5028   3.937  -1.199   2.533 -1.2826  0.1142 -2.1053
   12CHTO    O4 5029   3.956  -1.073   2.706  0.2814  0.6137  0.2176
   12CHTO   C14 5030   3.957  -0.939   2.748 -0.0173 -0.5223 -0.1061
   12CHTO   H27 5031   4.053  -0.935   2.803 -0.8272  1.9170  1.1711
   12CHTO   C18 5032   3.849  -0.914   2.851  0.1345  0.5518 -0.5746
   12CHTO   O13 5033   3.855  -1.005   2.966 -0.4991  0.5184  0.6038
   12CHTO    H7 5034   3.931  -0.986   3.018 -0.0510  0.6107 -0.0883
   12CHTO    O2 5035   3.732  -1.130   2.604 -0.0080  0.4948 -0.2149
   12CHTO    C1 5036   3.690  -1.218   2.713  0.5940  0.0494 -0.1076
   12CHTO   H14 5037   3.721  -1.174   2.810  0.8462  1.8881 -1.0056
   12CHTO    C2 5038   3.752  -1.367   2.697  0.3507  0.6720 -1.1254
   12CHTO   H15 5039   3.735  -1.392   2.591 -1.1249  0.6087 -0.8866
   12CHTO    O6 5040   3.891  -1.364   2.737  0.7363 -0.4213  0.8199
   12CHTO    H1 5041   3.938  -1.444   2.725  1.1974 -0.0129 -0.0999
   12CHTO    C3 5042   3.680  -1.468   2.793  0.8589 -0.1982 -0.1872
   12CHTO   H16 5043   3.710  -1.452   2.897 -2.2686 -0.1028  0.7495
   12CHTO    N1 5044   3.723  -1.608   2.759 -0.1283  0.5781 -0.1052
   12CHTO    H8 5045   3.808  -1.639   2.818 -1.8782  0.4806  2.4598
   12CHTO    H9 5046   3.649  -1.677   2.797 -0.7481  0.1494 -2.0278
   12CHTO    C4 5047   3.520  -1.460   2.797  0.0250 -0.3787  0.4271
   12CHTO   H17 5048   3.483  -1.511   2.708 -0.2917 -0.1872  0.4484
   12CHTO    O1 5049   3.478  -1.324   2.807  0.9356 -0.3027  0.0916
   12CHTO    C5 5050   3.535  -1.231   2.712  0.2971 -0.6938 -0.1481
   12CHTO   H18 5051   3.502  -1.258   2.611  0.1978 -0.9520 -0.0472
   12CHTO   C16 5052   3.475  -1.097   2.762  0.5939  0.1517  0.5274
   12CHTO   O11 5053   3.475  -1.004   2.645  0.6834 -0.3272  0.0132
   12CHTO    H5 5054   3.416  -0.935   2.667  2.5131  1.6272 -1.0017
   12CHTO    O3 5055   3.474  -1.523   2.913 -0.1301 -0.2284 -0.5656
   12CHTO    C6 5056   3.325  -1.573   2.927 -0.1408  0.2303  0.6923
   12CHTO   H19 5057   3.267  -1.527   2.847  2.1383  0.7385 -0.7193
   12CHTO    C8 5058   3.322  -1.728   2.912 -0.2896  0.2038 -0.2088
   12CHTO   H21 5059   3.382  -1.764   2.995 -2.3675  0.2766  1.3678
   12CHTO    O7 5060   3.372  -1.775   2.784  0.2127  0.2265 -0.5086
   12CHTO    H2 5061   3.453  -1.731   2.770  0.3019  1.7641  4.0617
   12CHTO   C12 5062   3.178  -1.780   2.945 -0.1548  0.4522  0.4690
   12CHTO   H25 5063   3.104  -1.742   2.872 -1.1242  1.3515  1.8977
   12CHTO    N3 5064   3.172  -1.926   2.941  0.0884  0.7498  0.7543
   12CHTO   H12 5065   3.084  -1.949   2.999 -0.5961  0.3499 -0.4329
   12CHTO   H13 5066   3.259  -1.972   2.987 -1.0872 -0.3795  1.8658
   12CHTO   C15 5067   3.131  -1.718   3.087 -0.3779 -0.2314 -0.5913
   12CHTO   H28 5068   3.197  -1.749   3.169 -0.0421 -0.0664 -0.8001
   12CHTO   O10 5069   2.979  -1.755   3.125 -0.2332  0.2933  0.6002
   12CHTO    H4 5070   2.939  -1.790   3.048  0.3538  0.8222  0.0525
   12CHTO    O5 5071   3.131  -1.577   3.071 -0.1930 -0.2494 -0.0596
   12CHTO   C10 5072   3.265  -1.525   3.063  0.1244  0.2819  0.1628
   12CHTO   H23 5073   3.313  -1.559   3.155  0.1098  1.6147  0.6699
   12CHTO   C17 5074   3.265  -1.375   3.066 -0.1717 -0.5762  0.0012
   12CHTO   O12 5075   3.224  -1.322   3.195  0.1327 -0.2812  0.3313
   12CHTO    H6 5076   3.150  -1.263   3.194 -0.8694 -1.3647  3.4135
   13CHTO  H203 5077   7.442   5.124   1.717  0.2429 -0.7908 -1.2211
   13CHTO   O82 5078   7.362   5.075   1.707 -0.4887  0.2427 -0.4396
   13CHTO  C123 5079   7.248   5.155   1.662  0.5746 -0.1523  0.5492
   13CHTO  H227 5080   7.260   5.186   1.557 -1.8673  0.3285  0.3874
   13CHTO   O77 5081   7.140   5.051   1.671 -0.3034 -0.7146  0.6173
   13CHTO  C118 5082   7.002   5.094   1.641  0.3123 -0.2118 -0.4508
   13CHTO  H222 5083   6.993   5.129   1.537 -3.3575  2.1691  0.5586
   13CHTO  C125 5084   6.917   4.954   1.659 -0.0563 -0.8982  0.1679
   13CHTO   O84 5085   6.825   4.922   1.552  0.4999 -0.0387 -0.1041
   13CHTO  H205 5086   6.740   4.956   1.572  1.5556  2.0553  1.0157
   13CHTO  C114 5087   6.952   5.205   1.736  0.5123  0.4864  0.1021
   13CHTO  H218 5088   6.943   5.167   1.837  0.0733 -0.2604 -0.2146
   13CHTO  C116 5089   7.056   5.324   1.721 -0.0039  0.1918 -0.0348
   13CHTO  H220 5090   7.043   5.378   1.625 -0.1792  0.8979  0.3818
   13CHTO   O79 5091   7.026   5.430   1.814 -0.4557 -0.2650 -0.3178
   13CHTO  H201 5092   6.951   5.480   1.785 -1.0867 -0.7426  0.4490
   13CHTO  C120 5093   7.213   5.279   1.748  0.2440 -0.5231  0.1487
   13CHTO  H224 5094   7.219   5.243   1.853  1.8135 -2.1279 -0.4613
   13CHTO   N21 5095   7.318   5.380   1.736 -0.3773 -0.5748  0.3326
   13CHTO  H211 5096   7.286   5.469   1.685  0.7354 -0.2731  0.1363
   13CHTO  H212 5097   7.420   5.347   1.718 -0.0928  1.1009 -1.2233
   13CHTO   O75 5098   6.830   5.254   1.692  0.2335  0.1293 -0.1116
   13CHTO  C112 5099   6.695   5.192   1.771 -0.0181  0.0043 -0.5501
   13CHTO  H216 5100   6.732   5.121   1.846  0.1507 -0.9196 -1.4854
   13CHTO   O73 5101   6.613   5.125   1.677 -0.1001  0.2313  0.0939
   13CHTO  C113 5102   6.490   5.073   1.727 -0.0246  0.1475  0.1861
   13CHTO  H217 5103   6.507   5.011   1.817 -1.6371 -1.5625 -0.6591
   13CHTO  C124 5104   6.438   4.976   1.615  0.0463 -0.1139 -0.1453
   13CHTO   O83 5105   6.473   4.841   1.637  0.1346 -0.2084 -0.3716
   13CHTO  H204 5106   6.407   4.805   1.693 -0.2748  2.1657  0.7300
   13CHTO  C109 5107   6.389   5.182   1.766 -0.0651 -0.7389  0.0872
   13CHTO  H213 5108   6.362   5.240   1.677 -2.6112 -0.2263  1.1477
   13CHTO  C110 5109   6.461   5.281   1.863  0.7201  0.1093  0.0216
   13CHTO  H214 5110   6.460   5.240   1.964  0.1322  1.1580  0.4556
   13CHTO   O78 5111   6.388   5.404   1.871 -0.2128  0.6579  0.5665
   13CHTO  H200 5112   6.369   5.441   1.787  0.0730  1.1961  0.7359
   13CHTO  C111 5113   6.611   5.312   1.829  0.2496 -0.7496 -0.1064
   13CHTO  H215 5114   6.615   5.386   1.748  1.5326 -1.1473 -0.4121
   13CHTO   N19 5115   6.679   5.370   1.950 -0.6206  0.4630 -0.4267
   13CHTO  H207 5116   6.638   5.468   1.969 -1.8079  0.3945 -2.4477
   13CHTO  H208 5117   6.672   5.312   2.041  0.8551  1.4489  0.3250
   13CHTO   O74 5118   6.275   5.128   1.830  0.4856 -0.0605  0.0804
   13CHTO  C115 5119   6.136   5.207   1.819  0.2866  0.0333 -0.7157
   13CHTO  H219 5120   6.127   5.291   1.887  0.0094  0.6296 -1.4759
   13CHTO   O76 5121   6.118   5.266   1.681  0.0832 -0.5055  0.0190
   13CHTO  C122 5122   5.999   5.322   1.625 -0.0416 -0.3111 -0.4066
   13CHTO  H226 5123   6.013   5.316   1.517 -0.4470 -0.1330 -0.4708
   13CHTO  C126 5124   5.989   5.471   1.663  0.2833 -0.1725  0.2962
   13CHTO   O85 5125   6.087   5.560   1.614 -0.2047 -0.5090  0.6903
   13CHTO  H206 5126   6.151   5.566   1.683  1.8394  1.2174 -1.2668
   13CHTO  C121 5127   5.872   5.233   1.667 -0.0906 -0.3255  0.4212
   13CHTO  H225 5128   5.780   5.294   1.650 -0.4000 -0.3342  1.9683
   13CHTO   O81 5129   5.879   5.118   1.582 -0.5619  0.0579  0.4257
   13CHTO  H202 5130   5.844   5.045   1.630 -0.4576 -0.5251 -0.3858
   13CHTO  C119 5131   5.878   5.190   1.821  0.7716  0.2480 -0.3890
   13CHTO  H223 5132   5.891   5.284   1.875 -0.0155 -0.8113  1.6913
   13CHTO  C117 5133   6.015   5.111   1.847  0.6901 -0.7108 -0.7310
   13CHTO  H221 5134   6.045   5.023   1.790  0.4421 -1.4602  0.2698
   13CHTO   N20 5135   6.023   5.066   1.984 -0.1854 -0.2451 -0.1559
   13CHTO  H209 5136   6.114   5.009   1.995 -0.6659 -0.8359  0.8953
   13CHTO  H210 5137   5.946   4.995   2.012  0.6819 -0.2727  2.2649
   13CHTO   O80 5138   5.741   5.129   1.888  0.4150 -0.3948  0.2223
   13CHTO  C103 5139   5.613   5.246   1.922 -0.2522  0.6578 -0.2540
   13CHTO  H190 5140   5.569   5.211   2.016 -0.0735  0.0591 -0.3949
   13CHTO  C101 5141   5.640   5.399   1.926  0.6531  0.0718  0.4693
   13CHTO  H188 5142   5.683   5.424   1.828  0.8085 -0.1967  0.4661
   13CHTO   O68 5143   5.739   5.428   2.047  0.4737 -0.3919  0.4745
   13CHTO  H168 5144   5.702   5.382   2.120  0.0219 -1.5237 -0.4495
   13CHTO   C99 5145   5.502   5.477   1.955  0.4806  0.1388  0.0488
   13CHTO  H186 5146   5.471   5.443   2.056  0.8294 -2.4632 -0.6804
   13CHTO   N17 5147   5.508   5.625   1.950 -0.6498 -0.2583  0.2213
   13CHTO  H174 5148   5.529   5.646   1.846 -1.6183  1.5632  0.3792
   13CHTO  H175 5149   5.421   5.679   1.982  0.1112  0.8493  0.4451
   13CHTO   C97 5150   5.383   5.427   1.863  0.0084  0.6076  0.1746
   13CHTO  H184 5151   5.399   5.473   1.764  0.0453 -1.7375 -0.9522
   13CHTO   O64 5152   5.387   5.281   1.850 -0.2027 -0.0125 -0.3935
   13CHTO  C104 5153   5.512   5.220   1.818  0.8684 -0.2351  0.6779
   13CHTO  H191 5154   5.541   5.265   1.723  0.4714 -1.4872 -0.0450
   13CHTO  C108 5155   5.500   5.073   1.789  0.1339 -0.1773  0.2698
   13CHTO   O71 5156   5.495   5.036   1.651 -1.1272 -0.2515  0.6376
   13CHTO  H171 5157   5.407   5.046   1.621 -0.3044  1.2790 -1.4091
   13CHTO   O62 5158   5.249   5.461   1.908 -1.0281 -0.2403  0.3793
   13CHTO   C91 5159   5.150   5.488   1.803  0.3034  0.0210 -0.0075
   13CHTO  H178 5160   5.195   5.465   1.706 -0.6042 -3.4512  0.3544
   13CHTO   C92 5161   5.112   5.641   1.806 -0.4897  0.1199  0.5235
   13CHTO  H179 5162   5.094   5.674   1.910  0.0894  0.9157  0.3781
   13CHTO   O66 5163   5.228   5.717   1.773  0.1049 -0.3024 -0.3939
   13CHTO  H166 5164   5.218   5.804   1.805  1.2718 -0.7135  1.1611
   13CHTO   C93 5165   4.989   5.677   1.712  0.2954 -0.3578  0.5407
   13CHTO  H180 5166   5.022   5.672   1.607  0.8157  0.8612  0.6339
   13CHTO   N16 5167   4.952   5.820   1.733 -0.4168  0.7082  0.5596
   13CHTO  H172 5168   5.027   5.879   1.785  1.0982 -0.0230 -0.7393
   13CHTO  H173 5169   4.849   5.833   1.760 -0.7071 -0.7769  0.1849
   13CHTO   C94 5170   4.865   5.576   1.730  0.5625  0.1521  0.5415
   13CHTO  H181 5171   4.814   5.587   1.826  1.2888  0.7071  0.8747
   13CHTO   O61 5172   4.916   5.440   1.729  0.1460  0.2373 -0.6494
   13CHTO   C95 5173   5.013   5.401   1.819 -0.2707  0.1214 -0.2293
   13CHTO  H182 5174   4.976   5.418   1.920  0.3120  0.3542 -0.0559
   13CHTO  C106 5175   5.033   5.247   1.800 -0.3689  0.5832 -0.4373
   13CHTO   O69 5176   4.911   5.171   1.810 -0.0281  0.0106 -0.0095
   13CHTO  H169 5177   4.918   5.080   1.791  1.0107 -0.2780  1.6933
   13CHTO   O63 5178   4.773   5.586   1.617  0.1321  0.1602  0.3264
   13CHTO   C96 5179   4.621   5.617   1.639  0.1761  0.0904 -0.5604
   13CHTO  H183 5180   4.562   5.563   1.565  0.7073 -0.1254 -0.8288
   13CHTO   C98 5181   4.580   5.764   1.646 -0.6406  0.3917  0.2088
   13CHTO  H185 5182   4.643   5.818   1.718  0.0644 -2.4116  1.7465
   13CHTO   O67 5183   4.610   5.818   1.518 -0.4071 -0.2448 -0.0796
   13CHTO  H167 5184   4.592   5.910   1.511  0.4586 -0.0032  0.7137
   13CHTO  C102 5185   4.423   5.786   1.664 -0.0806 -0.2174 -0.0182
   13CHTO  H189 5186   4.372   5.749   1.574  0.8853  0.3667 -0.8235
   13CHTO   N18 5187   4.382   5.934   1.669  0.1464 -0.0892 -0.1415
   13CHTO  H176 5188   4.473   5.987   1.690  0.6504 -1.3759  1.0513
   13CHTO  H177 5189   4.349   5.973   1.574  0.6748 -1.2659 -0.8155
   13CHTO  C105 5190   4.388   5.712   1.797  0.0282 -0.0516 -0.5839
   13CHTO  H192 5191   4.442   5.758   1.880 -2.6951  0.4336  0.9876
   13CHTO   O65 5192   4.422   5.573   1.791 -0.0511 -0.6011 -1.0662
   13CHTO  C100 5193   4.564   5.541   1.770 -0.3368  0.5303 -0.7973
   13CHTO  H187 5194   4.623   5.574   1.857  0.6547 -0.0846 -1.2312
   13CHTO  C107 5195   4.568   5.386   1.769  1.1319  0.8794  0.6305
   13CHTO   O70 5196   4.542   5.318   1.890  0.0518 -0.3764 -0.0349
   13CHTO  H170 5197   4.455   5.283   1.896 -0.0832 -0.1008 -0.3739
   13CHTO   O57 5198   4.227   5.734   1.828  0.1068  0.2803  1.0401
   13CHTO   C85 5199   4.106   5.689   1.765 -0.4081 -0.2522  0.1456
   13CHTO  H157 5200   4.130   5.690   1.657 -1.7357  0.5758 -0.1555
   13CHTO   C83 5201   4.004   5.799   1.785  0.0734  0.2757  0.1122
   13CHTO  H155 5202   4.040   5.890   1.736 -1.0233 -0.0282 -1.2861
   13CHTO   O56 5203   3.987   5.825   1.929 -0.2761  0.4434 -0.1533
   13CHTO  H135 5204   3.953   5.749   1.971 -2.2331  1.2658 -0.1930
   13CHTO   C81 5205   3.884   5.747   1.712  0.1165  0.3074 -0.0804
   13CHTO  H153 5206   3.915   5.715   1.613 -0.6557  0.3612 -0.3404
   13CHTO   N14 5207   3.790   5.854   1.685 -0.0383  0.1571 -0.5918
   13CHTO  H141 5208   3.795   5.890   1.585  1.7306 -2.4340 -1.4635
   13CHTO  H142 5209   3.691   5.818   1.705  0.2731 -0.4799 -0.1667
   13CHTO   C79 5210   3.819   5.628   1.789  0.2118  0.1925 -0.7000
   13CHTO  H151 5211   3.729   5.599   1.734 -0.0802  4.3865 -2.6811
   13CHTO   O52 5212   3.911   5.514   1.793  0.3169 -0.1643  0.0338
   13CHTO   C86 5213   4.053   5.540   1.814 -0.2009  0.7185 -0.1128
   13CHTO  H158 5214   4.062   5.530   1.924 -0.0865  0.2139 -0.1695
   13CHTO   C90 5215   4.127   5.419   1.749  0.3836 -0.1234 -0.5904
   13CHTO   O60 5216   4.086   5.420   1.611 -0.0187 -0.3001  0.1119
   13CHTO  H138 5217   4.136   5.361   1.558 -0.3709 -0.4384 -0.0646
   13CHTO   O50 5218   3.749   5.652   1.907 -0.2967  0.1424  0.2346
   13CHTO   C73 5219   3.622   5.637   1.972 -0.2789 -0.2048 -0.6334
   13CHTO  H145 5220   3.569   5.550   1.931  0.5300  0.1983 -2.5852
   13CHTO   C74 5221   3.545   5.768   1.956  0.1584  0.2121 -0.1879
   13CHTO  H146 5222   3.536   5.789   1.848  0.2389  0.7209 -0.0995
   13CHTO   O54 5223   3.407   5.754   1.994  0.5995 -0.1698  0.5815
   13CHTO  H133 5224   3.373   5.839   2.013 -1.8936 -0.9926 -0.0516
   13CHTO   C75 5225   3.616   5.888   2.035  0.2024  0.3709 -0.1738
   13CHTO  H147 5226   3.717   5.898   1.992  0.0096 -0.2994 -0.7954
   13CHTO   N13 5227   3.551   6.018   2.020  0.5880 -0.4209 -0.3712
   13CHTO  H139 5228   3.538   6.045   1.916  1.4598 -0.7639 -0.5752
   13CHTO  H140 5229   3.630   6.085   2.052 -1.2220  0.3456  2.6715
   13CHTO   C76 5230   3.635   5.839   2.182 -0.2337  0.0206 -0.7201
   13CHTO  H148 5231   3.537   5.806   2.215  0.0845 -0.6412 -0.4264
   13CHTO   O49 5232   3.705   5.715   2.190 -0.0134  0.1441 -0.6954
   13CHTO   C77 5233   3.638   5.606   2.123 -0.1632  0.5027  0.2115
   13CHTO  H149 5234   3.539   5.591   2.168  0.7487 -3.4949  1.1577
   13CHTO   C88 5235   3.705   5.469   2.146  0.7684 -0.0735  0.1390
   13CHTO   O58 5236   3.832   5.474   2.104 -0.2341 -0.1372 -0.1133
   13CHTO  H136 5237   3.841   5.409   2.037  1.1550 -1.0912  0.9649
   13CHTO   O51 5238   3.697   5.952   2.302  0.7267 -0.3649  0.3211
   13CHTO   C78 5239   3.875   5.970   2.323 -0.1585  0.3642 -0.1929
   13CHTO  H150 5240   3.910   6.043   2.398  1.7295 -0.9205  0.2150
   13CHTO   C80 5241   3.930   6.018   2.192  0.2338 -0.2317 -0.3183
   13CHTO  H152 5242   3.905   5.950   2.108  2.9258 -0.3302 -1.1008
   13CHTO   O55 5243   3.881   6.146   2.161  0.2894 -0.4833  0.1849
   13CHTO  H134 5244   3.787   6.146   2.155  0.2419  0.3377  0.7839
   13CHTO   C84 5245   4.087   6.036   2.216 -0.3658  0.3981  0.2138
   13CHTO  H156 5246   4.110   6.100   2.302  0.2862  0.0758  0.2779
   13CHTO   N15 5247   4.168   6.098   2.102 -0.6695 -0.3645 -0.9873
   13CHTO  H143 5248   4.130   6.195   2.079 -2.3786 -0.4412  1.3503
   13CHTO  H144 5249   4.175   6.035   2.015 -0.6996 -2.6562  0.6343
   13CHTO   C87 5250   4.149   5.903   2.264 -0.1695  0.0205  0.5899
   13CHTO  H159 5251   4.140   5.830   2.184 -2.1645  0.5061  0.3575
   13CHTO   O53 5252   4.072   5.851   2.397  0.0770 -0.7763  0.6807
   13CHTO   C82 5253   3.935   5.834   2.360 -0.3781 -0.5043 -0.4804
   13CHTO  H154 5254   3.932   5.762   2.279 -1.1910 -1.0799  0.0596
   13CHTO   C89 5255   3.867   5.765   2.482 -0.0737 -0.1258 -0.5477
   13CHTO   O59 5256   3.731   5.730   2.461 -0.2507 -0.0430  0.3298
   13CHTO  H137 5257   3.732   5.644   2.423  1.4031 -0.7484  1.8883
   13CHTO   O45 5258   4.308   5.907   2.298  0.1652 -0.3690 -0.3443
   13CHTO   C67 5259   4.372   5.776   2.283 -0.6285 -0.1524  0.0354
   13CHTO  H124 5260   4.304   5.692   2.268 -0.4323 -0.4891  0.9893
   13CHTO   C65 5261   4.471   5.780   2.152  0.5642 -0.1328  0.0281
   13CHTO  H122 5262   4.408   5.826   2.076  0.0296  2.6196  2.0234
   13CHTO   O44 5263   4.506   5.647   2.111 -0.0639  0.2848 -0.8054
   13CHTO  H102 5264   4.540   5.643   2.024  2.4877 -0.6941  0.2057
   13CHTO   C63 5265   4.590   5.878   2.180  0.0172  0.0276 -0.5578
   13CHTO  H120 5266   4.549   5.970   2.220  0.4724 -0.0335  0.0525
   13CHTO   N11 5267   4.676   5.914   2.065 -0.0828 -0.2034  0.0304
   13CHTO  H108 5268   4.723   6.008   2.084  0.3726 -0.7056  1.3682
   13CHTO  H109 5269   4.612   5.927   1.980  0.6448  0.6625 -0.3932
   13CHTO   C61 5270   4.680   5.818   2.295  0.3671 -0.2897 -0.2736
   13CHTO  H118 5271   4.755   5.895   2.316 -0.5102  0.1523  1.3444
   13CHTO   O40 5272   4.600   5.796   2.416  0.5850 -0.7055 -0.1958
   13CHTO   C68 5273   4.460   5.741   2.414  0.3400 -0.4189  0.1445
   13CHTO  H125 5274   4.409   5.773   2.507  0.4453  0.4516 -0.0887
   13CHTO   C72 5275   4.481   5.587   2.428 -0.2329  0.5524  0.2578
   13CHTO   O48 5276   4.362   5.509   2.430  0.1053  0.2263 -0.4760
   13CHTO  H105 5277   4.329   5.502   2.517  1.9952  0.3416  0.2898
   13CHTO   O38 5278   4.748   5.693   2.259  0.5915 -0.1676 -0.6535
   13CHTO   C55 5279   4.871   5.650   2.322 -0.3012  0.6840 -0.2368
   13CHTO  H112 5280   4.911   5.581   2.247 -1.3348  1.3794 -1.4496
   13CHTO   C56 5281   4.845   5.585   2.458 -0.0313 -0.5394 -0.2539
   13CHTO  H113 5282   4.784   5.660   2.510 -0.5949 -0.4186 -1.0819
   13CHTO   O42 5283   4.772   5.467   2.431  0.0520 -0.2192  0.4154
   13CHTO  H100 5284   4.725   5.436   2.507 -0.8446 -2.7152 -1.1108
   13CHTO   C57 5285   4.976   5.540   2.534 -0.3974 -0.1401  0.2877
   13CHTO  H114 5286   5.030   5.466   2.476  2.2083  1.2072  0.9256
   13CHTO   N10 5287   4.940   5.482   2.667  0.2055 -0.2360 -0.2302
   13CHTO  H106 5288   4.837   5.451   2.673 -0.1099  0.6751 -0.7660
   13CHTO  H107 5289   5.007   5.402   2.695 -0.7013 -0.8141  0.2929
   13CHTO   C58 5290   5.067   5.666   2.545  0.3291 -0.4004 -0.0753
   13CHTO  H115 5291   5.004   5.740   2.598 -1.5317 -1.9124 -0.1202
   13CHTO   O37 5292   5.098   5.709   2.409  0.4880  1.2455 -0.3087
   13CHTO   C59 5293   4.987   5.764   2.329  0.5436 -0.4290  0.3784
   13CHTO  H116 5294   4.947   5.855   2.373  1.1490 -0.9166  1.9471
   13CHTO   C70 5295   5.038   5.796   2.190 -0.3199 -0.3627  1.2430
   13CHTO   O46 5296   5.147   5.891   2.207  0.3630  0.0690 -0.2310
   13CHTO  H103 5297   5.218   5.858   2.259  1.3646  0.8512 -1.0517
   13CHTO   O39 5298   5.208   5.621   2.646  0.0517  0.1654  0.7454
   13CHTO   C60 5299   5.309   5.722   2.661  0.0848  0.0019 -0.1825
   13CHTO  H117 5300   5.324   5.780   2.570  0.3766  1.1304  0.5663
   13CHTO   C62 5301   5.273   5.816   2.786  0.1836  0.2040  0.9838
   13CHTO  H119 5302   5.175   5.861   2.760  1.2768  1.2705 -1.4786
   13CHTO   O43 5303   5.259   5.740   2.909 -0.2341 -0.0797  0.4538
   13CHTO  H101 5304   5.270   5.787   2.989  2.5826  1.3693 -0.7085
   13CHTO   C66 5305   5.380   5.934   2.798  0.7106  0.0397  0.5088
   13CHTO  H123 5306   5.377   5.990   2.705 -0.9152 -2.6580 -1.0820
   13CHTO   N12 5307   5.351   6.037   2.904 -0.2058 -0.2410 -0.1594
   13CHTO  H110 5308   5.255   6.076   2.871 -0.6987  0.1338  1.6929
   13CHTO  H111 5309   5.427   6.112   2.917  0.3587 -0.6785 -0.8738
   13CHTO   C69 5310   5.522   5.869   2.813 -0.2937  0.0354  0.7907
   13CHTO  H126 5311   5.515   5.806   2.905 -0.5884 -1.0047  0.0662
   13CHTO   O41 5312   5.551   5.775   2.695  0.2513  0.1183  1.1500
   13CHTO   C64 5313   5.446   5.655   2.694 -1.0197 -0.0347 -0.1397
   13CHTO  H121 5314   5.450   5.602   2.791  0.5120 -1.6367 -1.0324
   13CHTO   C71 5315   5.499   5.566   2.577 -0.1925 -0.0774 -0.0595
   13CHTO   O47 5316   5.635   5.524   2.584  0.2002  0.4522 -0.0780
   13CHTO  H104 5317   5.643   5.438   2.548 -0.9684 -0.3584  1.5738
   13CHTO   O34 5318   5.622   5.981   2.821 -0.3958  0.8116  0.0041
   13CHTO   C49 5319   5.755   6.006   2.868 -0.0314 -0.3442 -0.4418
   13CHTO   H91 5320   5.811   5.935   2.808  1.0723  0.7555 -0.7342
   13CHTO   C47 5321   5.784   5.994   3.019 -0.5218  0.6928  0.5323
   13CHTO   H89 5322   5.894   6.002   3.027 -0.0195 -0.9931 -3.3110
   13CHTO   O33 5323   5.753   5.864   3.061 -0.2755 -0.7546 -0.3604
   13CHTO   H70 5324   5.659   5.859   3.056 -0.4385  2.2413 -1.3115
   13CHTO   C45 5325   5.700   6.110   3.101 -0.6533 -0.8410  0.2425
   13CHTO   H87 5326   5.596   6.078   3.115 -1.4026  1.1156 -0.6928
   13CHTO    N8 5327   5.767   6.122   3.232  0.5121  0.3991  0.1265
   13CHTO   H75 5328   5.872   6.141   3.214  0.6838  0.8655  1.5453
   13CHTO   H76 5329   5.731   6.206   3.290 -0.6027  0.8709 -1.2375
   13CHTO   C43 5330   5.701   6.255   3.018  0.1816 -0.3856  0.1567
   13CHTO   H85 5331   5.603   6.257   2.971 -0.5055 -2.5959  1.3863
   13CHTO   O29 5332   5.803   6.256   2.921  0.3741  0.1058  0.0878
   13CHTO   C50 5333   5.795   6.150   2.825  0.0817  0.2654  0.0813
   13CHTO   H92 5334   5.719   6.184   2.754  0.9413  1.1052 -0.4439
   13CHTO   C54 5335   5.914   6.149   2.735 -0.0864  0.0429 -0.3977
   13CHTO   O36 5336   6.036   6.127   2.806 -0.3577  0.3309  0.4136
   13CHTO   H72 5337   6.037   6.062   2.873  1.6900  0.3795  0.4587
   13CHTO   O27 5338   5.701   6.373   3.091  0.2623 -0.3904  0.2611
   13CHTO   C37 5339   5.675   6.508   3.135 -0.0087 -0.1739  0.0350
   13CHTO   H79 5340   5.568   6.516   3.156 -0.1329 -0.4946 -0.4793
   13CHTO   C38 5341   5.750   6.539   3.267 -0.4899  0.9242 -0.0847
   13CHTO   H80 5342   5.858   6.527   3.250  0.0070  1.4354  2.4342
   13CHTO   O31 5343   5.702   6.447   3.368 -0.3312 -0.6829  0.1434
   13CHTO   H68 5344   5.609   6.455   3.364 -0.2946 -1.0110 -1.4414
   13CHTO   C39 5345   5.731   6.682   3.313 -0.0365  0.3103  0.1028
   13CHTO   H81 5346   5.624   6.694   3.335 -0.1026  0.1922 -0.1529
   13CHTO    N7 5347   5.808   6.724   3.435  0.0949 -0.0315  0.1371
   13CHTO   H73 5348   5.914   6.707   3.429 -0.0431 -0.6877 -0.5407
   13CHTO   H74 5349   5.783   6.661   3.519 -0.6038 -1.6818 -1.2909
   13CHTO   C40 5350   5.767   6.775   3.195  0.3502  0.3619 -0.4892
   13CHTO   H82 5351   5.875   6.787   3.183  0.3448  0.4068 -0.4902
   13CHTO   O26 5352   5.700   6.736   3.078 -0.2951  0.1797  0.4824
   13CHTO   C41 5353   5.721   6.607   3.030 -0.7396 -0.7178  0.3123
   13CHTO   H83 5354   5.829   6.592   3.011 -0.6527  1.4382 -1.1560
   13CHTO   C52 5355   5.650   6.583   2.893  0.4422 -0.4901 -0.1129
   13CHTO   O35 5356   5.724   6.642   2.772 -0.1771  0.1328  0.9883
   13CHTO   H71 5357   5.807   6.601   2.761 -1.0071 -1.3209 -0.1108
   13CHTO   O28 5358   5.720   6.909   3.226  0.5644 -0.2984  0.4847
   13CHTO   C42 5359   5.770   7.036   3.169  0.5024  0.1709  0.0900
   13CHTO   H84 5360   5.878   7.023   3.170  0.4089 -0.5865  0.3522
   13CHTO   C44 5361   5.733   7.153   3.268  0.4362  0.2656  0.8152
   13CHTO   H86 5362   5.632   7.143   3.306 -0.0453 -1.0636 -0.7393
   13CHTO   O32 5363   5.826   7.137   3.372 -0.5675 -0.4254 -0.0688
   13CHTO   H69 5364   5.910   7.171   3.348 -1.2531 -0.2077 -2.2565
   13CHTO   C48 5365   5.734   7.298   3.211  0.0168  0.5678  0.6940
   13CHTO   H90 5366   5.838   7.328   3.199  0.4906 -0.3936  2.1921
   13CHTO    N9 5367   5.674   7.399   3.304  0.5805  0.3037  0.1988
   13CHTO   H77 5368   5.633   7.335   3.380 -0.3836 -1.5795 -1.8338
   13CHTO   H78 5369   5.741   7.473   3.345  1.6275 -1.0819  1.0338
   13CHTO   C51 5370   5.662   7.295   3.072  0.4139  0.1611  0.0803
   13CHTO   H93 5371   5.558   7.267   3.090  0.3978  0.9138  1.1925
   13CHTO   O30 5372   5.730   7.212   2.982  0.3474  0.1984  0.8438
   13CHTO   C46 5373   5.720   7.063   3.022 -0.1387 -0.0474 -0.3211
   13CHTO   H88 5374   5.615   7.041   3.005 -0.3029  0.5745 -0.1455
   13CHTO   C53 5375   5.807   6.998   2.910 -0.0929  0.0831  0.1555
   13CHTO   O72 5376   5.741   6.994   2.783  0.2296  0.8359 -0.1643
   13CHTO  H199 5377   5.660   6.946   2.788 -1.8371  4.1260 -0.0951
   13CHTO   O22 5378   5.658   7.426   3.012  0.1486 -0.0083  0.2590
   13CHTO   C31 5379   5.554   7.480   2.918  0.5850 -1.0932 -0.5024
   13CHTO   H59 5380   5.604   7.555   2.854 -0.4398  1.8020  1.9776
   13CHTO   C29 5381   5.485   7.376   2.826 -0.3511 -0.2896  0.3862
   13CHTO   H57 5382   5.430   7.298   2.882  1.6860 -0.8171  1.7458
   13CHTO   O21 5383   5.595   7.301   2.755 -0.6595 -0.6869 -0.0334
   13CHTO   H37 5384   5.593   7.327   2.665  2.2748  0.1558  0.1062
   13CHTO   C27 5385   5.380   7.449   2.727 -0.2789  0.5872 -0.1708
   13CHTO   H55 5386   5.434   7.513   2.656 -1.2939 -0.0395 -1.5354
   13CHTO    N5 5387   5.307   7.338   2.653  0.9014 -0.0578  0.3053
   13CHTO   H43 5388   5.202   7.340   2.680  0.9050  1.0797  0.2588
   13CHTO   H44 5389   5.321   7.337   2.546 -0.7759 -1.9480  0.0733
   13CHTO   C25 5390   5.296   7.547   2.813 -0.1770 -0.1156  0.5028
   13CHTO   H53 5391   5.238   7.486   2.884 -0.7809 -0.2169 -0.0742
   13CHTO   O17 5392   5.369   7.632   2.897  0.2036  0.4966  0.1041
   13CHTO   C32 5393   5.449   7.561   2.993 -0.3555  0.2189  0.5004
   13CHTO   H60 5394   5.385   7.496   3.054 -1.2297  1.4492  0.9279
   13CHTO   C36 5395   5.502   7.659   3.095  0.1242  0.3256  0.3655
   13CHTO   O25 5396   5.584   7.755   3.030 -0.2092  0.1615  0.7107
   13CHTO   H40 5397   5.556   7.767   2.942  1.9505  1.9796  0.2394
   13CHTO   O15 5398   5.210   7.613   2.717  0.2375  0.1502  0.5544
   13CHTO   C19 5399   5.081   7.682   2.739 -0.1175  0.1099 -0.0540
   13CHTO   H47 5400   5.058   7.652   2.842 -0.0008  0.3521  0.0425
   13CHTO   C20 5401   5.081   7.840   2.731 -0.1272 -0.6588  0.0244
   13CHTO   H48 5402   5.106   7.879   2.631 -2.0661 -2.0131 -1.0410
   13CHTO   O19 5403   5.180   7.885   2.828 -0.1544  0.1057  0.1052
   13CHTO   H35 5404   5.255   7.907   2.776  0.0073 -0.2289  0.1948
   13CHTO   C21 5405   4.937   7.898   2.772  0.4892  1.0116 -0.4680
   13CHTO   H49 5406   4.922   7.881   2.879  1.2145  0.3385 -0.4695
   13CHTO    N4 5407   4.928   8.048   2.766  0.3709 -0.2058 -0.1934
   13CHTO   H41 5408   4.824   8.076   2.757  0.5825  0.9417  0.7726
   13CHTO   H42 5409   4.981   8.083   2.679  1.7912 -2.0608 -0.0910
   13CHTO   C22 5410   4.824   7.822   2.695  0.7464  0.8522  0.8268
   13CHTO   H50 5411   4.832   7.844   2.588 -1.0660 -1.8138  0.1004
   13CHTO   O14 5412   4.836   7.680   2.703  0.3658  1.2942  0.0546
   13CHTO   C23 5413   4.964   7.632   2.652  0.5334  0.4129  0.0154
   13CHTO   H51 5414   4.975   7.658   2.546  1.6844 -1.6121 -0.3813
   13CHTO   C34 5415   4.944   7.481   2.643 -0.2530  0.0161 -0.6421
   13CHTO   O23 5416   4.923   7.418   2.767 -0.2094  0.9477 -0.2939
   13CHTO   H38 5417   4.847   7.364   2.760  1.2377 -1.3471  1.0164
   13CHTO   O16 5418   4.693   7.846   2.744 -0.0616  0.2814  0.3925
   13CHTO   C24 5419   4.583   7.889   2.654 -0.2232  0.5169 -0.0779
   13CHTO   H52 5420   4.616   7.891   2.550  0.7382  1.6245  0.2356
   13CHTO   C26 5421   4.525   8.021   2.704 -0.0540 -0.7525 -0.1374
   13CHTO   H54 5422   4.523   8.017   2.815 -0.4930 -0.1567 -0.1248
   13CHTO   O20 5423   4.623   8.114   2.650  0.8622  0.4228  0.0842
   13CHTO   H36 5424   4.709   8.101   2.684  1.0620 -0.0160 -0.5758
   13CHTO   C30 5425   4.376   8.053   2.649  0.3631 -0.1746  0.2242
   13CHTO   H58 5426   4.377   8.072   2.540  0.5554 -0.2870  0.2056
   13CHTO    N6 5427   4.316   8.177   2.714 -0.7641 -0.5675  0.2167
   13CHTO   H45 5428   4.259   8.162   2.804 -0.9838 -2.6744 -0.2459
   13CHTO   H46 5429   4.397   8.246   2.734 -1.2205 -0.3739  1.3958
   13CHTO   C33 5430   4.290   7.936   2.656 -0.0431  0.8036 -0.5449
   13CHTO   H61 5431   4.274   7.903   2.759  1.5575 -0.8704 -0.8145
   13CHTO   O18 5432   4.358   7.829   2.591 -0.2233 -0.6331  0.2516
   13CHTO   C28 5433   4.471   7.779   2.667  0.9491  0.9304 -0.2380
   13CHTO   H56 5434   4.443   7.773   2.772 -0.6045 -1.4915 -0.7525
   13CHTO   C35 5435   4.517   7.634   2.622  0.1472  0.3467 -0.2683
   13CHTO   O24 5436   4.408   7.539   2.634  0.0845  0.9275  0.0161
   13CHTO   H39 5437   4.410   7.476   2.704  0.0604  0.3079 -0.5281
   13CHTO    O9 5438   4.157   7.948   2.602  0.1916 -0.0119  0.4614
   13CHTO   C13 5439   4.058   7.844   2.662 -0.3909  0.1001  0.0874
   13CHTO   H26 5440   4.125   7.764   2.701  0.1298 -1.1348 -3.1465
   13CHTO   C11 5441   3.965   7.793   2.551 -0.2320  0.9374 -0.2535
   13CHTO   H24 5442   4.024   7.752   2.468  0.7747  4.1143 -1.1683
   13CHTO    O8 5443   3.893   7.909   2.505 -0.3953  0.0028 -0.2352
   13CHTO    H3 5444   3.861   7.893   2.419 -0.4213  1.6548 -0.5425
   13CHTO    C9 5445   3.859   7.690   2.613  0.1843 -0.2072  0.8509
   13CHTO   H22 5446   3.917   7.599   2.636 -0.5189 -1.6517 -2.7480
   13CHTO    N2 5447   3.752   7.643   2.520  0.2078  0.5258  0.0089
   13CHTO   H10 5448   3.750   7.536   2.530 -2.2479  0.5515  0.2818
   13CHTO   H11 5449   3.657   7.693   2.535  1.1230  2.9572 -1.9614
   13CHTO    C7 5450   3.808   7.731   2.757  1.2225  0.1493 -0.6934
   13CHTO   H20 5451   3.858   7.657   2.823 -1.5617 -0.5257  0.7839
   13CHTO    O4 5452   3.838   7.865   2.787  0.4086  0.8849  0.2477
   13CHTO   C14 5453   3.981   7.893   2.793 -0.2758 -0.2028 -0.1597
   13CHTO   H27 5454   4.032   7.849   2.881 -0.1874  0.9537  0.3762
   13CHTO   C18 5455   3.980   8.049   2.824 -0.7162  0.6477 -0.0764
   13CHTO   O13 5456   3.926   8.124   2.718  0.2434  0.5395 -0.2116
   13CHTO    H7 5457   3.986   8.110   2.648  0.2915 -0.7451  0.0757
   13CHTO    O2 5458   3.642   7.711   2.789 -0.3088  0.2328 -0.1171
   13CHTO    C1 5459   3.622   7.677   2.924 -0.0230 -0.0486  0.8843
   13CHTO   H14 5460   3.713   7.693   2.985 -1.0687  1.5397  2.0896
   13CHTO    C2 5461   3.573   7.526   2.944 -0.3608  0.2990  0.2123
   13CHTO   H15 5462   3.475   7.531   2.896 -1.3114  2.7297  2.2740
   13CHTO    O6 5463   3.667   7.439   2.881  0.4375  0.2146 -0.1460
   13CHTO    H1 5464   3.661   7.432   2.788  3.0729  0.6369 -0.4004
   13CHTO    C3 5465   3.551   7.500   3.094  0.0036  0.4336 -0.3931
   13CHTO   H16 5466   3.646   7.507   3.149  0.5905  1.1719 -1.4751
   13CHTO    N1 5467   3.491   7.365   3.125 -0.4404 -0.0260  0.4587
   13CHTO    H8 5468   3.390   7.378   3.161 -1.3678 -0.3244 -1.9156
   13CHTO    H9 5469   3.496   7.296   3.042  0.2248  0.6926 -0.1117
   13CHTO    C4 5470   3.468   7.610   3.156 -0.4057 -0.1059 -0.3427
   13CHTO   H17 5471   3.363   7.603   3.127 -0.7182 -1.0099  0.9668
   13CHTO    O1 5472   3.513   7.743   3.124 -0.2286  0.0246 -0.1539
   13CHTO    C5 5473   3.519   7.771   2.989  0.1638  0.0284 -0.2426
   13CHTO   H18 5474   3.423   7.751   2.941 -0.0304  0.0535  0.1388
   13CHTO   C16 5475   3.554   7.923   2.969 -0.1772  0.0440  0.3056
   13CHTO   O11 5476   3.676   7.973   3.030  0.0570 -0.1101  0.4222
   13CHTO    H5 5477   3.737   7.991   2.961 -0.4034  1.2690  0.3503
   13CHTO    O3 5478   3.494   7.615   3.300  0.0811  0.0716  0.3350
   13CHTO    C6 5479   3.372   7.638   3.389 -0.1429  0.0135 -0.4597
   13CHTO   H19 5480   3.290   7.691   3.339  0.5761  0.5787 -1.0479
   13CHTO    C8 5481   3.319   7.508   3.446  0.1788  0.1577  0.0340
   13CHTO   H21 5482   3.406   7.452   3.478  0.7745  1.7603  1.2960
   13CHTO    O7 5483   3.259   7.438   3.334 -0.6649  0.3538 -0.5590
   13CHTO    H2 5484   3.222   7.499   3.273  0.2573 -1.0949 -2.6096
   13CHTO   C12 5485   3.208   7.523   3.560 -0.3147 -0.2938 -0.0686
   13CHTO   H25 5486   3.121   7.565   3.505  0.1249  1.7303  0.7447
   13CHTO    N3 5487   3.178   7.393   3.627  0.5660 -0.5473 -0.0995
   13CHTO   H12 5488   3.143   7.331   3.545  1.1051 -0.5309 -0.3443
   13CHTO   H13 5489   3.093   7.386   3.693 -0.2047  0.1889 -0.9872
   13CHTO   C15 5490   3.248   7.634   3.665  0.6244  0.2852 -0.3725
   13CHTO   H28 5491   3.320   7.600   3.740 -0.8863 -0.6590  0.6708
   13CHTO   O10 5492   3.131   7.696   3.731 -0.6099  0.4144 -0.1406
   13CHTO    H4 5493   3.049   7.661   3.702  0.9386 -1.2672 -2.6859
   13CHTO    O5 5494   3.307   7.747   3.598  0.4664 -0.0426 -0.0443
   13CHTO   C10 5495   3.416   7.727   3.502 -0.1403  0.0014 -0.2317
   13CHTO   H23 5496   3.506   7.682   3.544 -0.9085 -0.5069  0.9139
   13CHTO   C17 5497   3.448   7.871   3.449 -0.4386  0.3722  0.3924
   13CHTO   O12 5498   3.506   7.944   3.555  0.1101  0.5025 -0.7673
   13CHTO    H6 5499   3.587   7.982   3.526  1.5758 -1.8205  0.0845
   14CHTO  H203 5500   5.931   4.892   2.328  0.2399  0.8431 -0.2584
   14CHTO   O82 5501   5.897   4.963   2.378 -0.4789  0.2497  0.0993
   14CHTO  C123 5502   5.801   5.042   2.301  0.0564  0.2843 -0.0841
   14CHTO  H227 5503   5.842   5.068   2.202 -2.5003 -1.4776 -1.6578
   14CHTO   O77 5504   5.698   4.946   2.297  0.6440 -0.4279 -0.4226
   14CHTO  C118 5505   5.593   4.988   2.208 -0.2234 -0.0459  0.5567
   14CHTO  H222 5506   5.652   5.007   2.117  0.5887 -0.3315  1.0136
   14CHTO  C125 5507   5.498   4.859   2.187 -0.6425 -0.0799  0.6592
   14CHTO   O84 5508   5.449   4.809   2.313 -0.1110  0.0124  0.7461
   14CHTO  H205 5509   5.385   4.745   2.290 -1.3999  0.8969  1.7991
   14CHTO  C114 5510   5.527   5.113   2.270 -0.0624 -0.5567  0.2915
   14CHTO  H218 5511   5.486   5.087   2.367 -1.0963  1.9068  0.5679
   14CHTO  C116 5512   5.630   5.228   2.293 -0.1939 -0.0852  0.6011
   14CHTO  H220 5513   5.654   5.258   2.189  2.1070 -0.2364  1.0642
   14CHTO   O79 5514   5.570   5.330   2.377  0.4902  0.5717  0.1518
   14CHTO  H201 5515   5.510   5.377   2.322 -0.0527 -1.5752 -1.1614
   14CHTO  C120 5516   5.756   5.171   2.371 -0.0365 -0.0115 -0.4800
   14CHTO  H224 5517   5.725   5.157   2.477 -1.2324  0.4074 -0.7677
   14CHTO   N21 5518   5.863   5.274   2.372  0.4282  0.1458 -0.0367
   14CHTO  H211 5519   5.874   5.347   2.293  0.9940  1.0884  0.9080
   14CHTO  H212 5520   5.916   5.285   2.465  0.8490 -0.9567 -0.1392
   14CHTO   O75 5521   5.419   5.150   2.189 -0.5525  0.6218  0.4421
   14CHTO  C112 5522   5.281   5.144   2.263  0.6478 -0.5217  0.3336
   14CHTO  H216 5523   5.286   5.165   2.371  1.8254  1.6797 -0.1139
   14CHTO   O73 5524   5.223   5.011   2.236  0.2170  0.1430  0.2205
   14CHTO  C113 5525   5.094   4.993   2.291  0.8783  0.0906  0.5555
   14CHTO  H217 5526   5.091   5.014   2.400  0.7795  2.4105  0.1323
   14CHTO  C124 5527   5.054   4.844   2.260 -0.1244 -0.1736 -0.6421
   14CHTO   O83 5528   5.165   4.747   2.278  0.0354 -0.3885  0.5302
   14CHTO  H204 5529   5.145   4.674   2.333 -2.3355  1.3053  2.0428
   14CHTO  C109 5530   4.996   5.096   2.218 -0.2720  0.0023 -0.5276
   14CHTO  H213 5531   5.005   5.074   2.111  1.7022  3.1538 -1.0918
   14CHTO  C110 5532   5.047   5.240   2.247 -0.3229 -0.0035 -0.0257
   14CHTO  H214 5533   5.024   5.265   2.350 -1.1043 -1.3664  0.1413
   14CHTO   O78 5534   4.967   5.337   2.174  0.3134  0.6359 -0.1868
   14CHTO  H200 5535   4.875   5.330   2.192  0.0273 -2.9255 -2.6917
   14CHTO  C111 5536   5.194   5.268   2.208 -0.0511  0.0875  0.5738
   14CHTO  H215 5537   5.203   5.268   2.099  0.8592 -1.5237  0.6470
   14CHTO   N19 5538   5.244   5.406   2.251  0.3468  0.3527 -0.2834
   14CHTO  H207 5539   5.174   5.484   2.227 -0.2987 -0.2033 -0.2389
   14CHTO  H208 5540   5.344   5.423   2.215  0.3147  1.8525  0.3382
   14CHTO   O74 5541   4.855   5.083   2.257 -0.5238  0.5430  0.1777
   14CHTO  C115 5542   4.754   5.039   2.132  0.0676  0.9472 -0.1226
   14CHTO  H219 5543   4.769   5.097   2.041 -2.4644  1.4390 -0.2835
   14CHTO   O76 5544   4.766   4.874   2.088  0.0715 -0.3079  0.3696
   14CHTO  C122 5545   4.671   4.812   2.004 -0.2764  0.1296  0.2052
   14CHTO  H226 5546   4.686   4.704   2.006  0.1406  0.0833 -2.5283
   14CHTO  C126 5547   4.701   4.849   1.852  0.5207  0.4833  0.1759
   14CHTO   O85 5548   4.606   4.783   1.765  0.0445 -0.1658  0.5484
   14CHTO  H206 5549   4.547   4.850   1.736 -0.5664 -0.3024  1.4880
   14CHTO  C121 5550   4.523   4.854   2.046  0.0716 -0.2379 -0.1115
   14CHTO  H225 5551   4.455   4.824   1.963 -1.4415 -0.4531  1.1964
   14CHTO   O81 5552   4.477   4.777   2.159 -0.4977  0.0830  0.4611
   14CHTO  H202 5553   4.540   4.781   2.228 -0.1389  1.0465  0.0919
   14CHTO  C119 5554   4.507   5.007   2.074  0.4241 -0.6997 -0.2339
   14CHTO  H223 5555   4.545   5.053   1.983  1.8229 -0.2771  0.5537
   14CHTO  C117 5556   4.606   5.066   2.181  0.8092  0.6625  0.2358
   14CHTO  H221 5557   4.604   5.031   2.285  2.4048  2.3562  0.8666
   14CHTO   N20 5558   4.586   5.217   2.196 -0.0044 -0.0514 -0.7793
   14CHTO  H209 5559   4.481   5.226   2.221 -0.3177 -1.8748 -1.3386
   14CHTO  H210 5560   4.597   5.283   2.111  0.5553  2.8110  1.4359
   14CHTO   O80 5561   4.356   5.065   2.079  0.1859  0.1169 -0.5184
   14CHTO  C103 5562   4.279   5.114   1.946 -0.1629  0.3278  0.2828
   14CHTO  H190 5563   4.302   5.218   1.923 -1.6402  0.0275 -2.7274
   14CHTO  C101 5564   4.309   5.029   1.811 -0.1664 -0.6245 -0.6477
   14CHTO  H188 5565   4.326   4.928   1.849  1.5051  0.2751  1.1044
   14CHTO   O68 5566   4.454   5.087   1.745  0.8717  0.2308 -0.5405
   14CHTO  H168 5567   4.530   5.056   1.791 -0.5300 -2.5025  0.0820
   14CHTO   C99 5568   4.203   5.036   1.700 -0.2000  0.8511  0.6852
   14CHTO  H186 5569   4.220   5.129   1.642  2.6400  0.6334  1.1439
   14CHTO   N17 5570   4.205   4.926   1.596  0.0567  0.0495 -0.1488
   14CHTO  H174 5571   4.185   4.828   1.635 -2.1473 -0.4329 -2.3570
   14CHTO  H175 5572   4.150   4.946   1.505 -0.3852 -0.8833 -0.0898
   14CHTO   C97 5573   4.058   5.046   1.759 -0.0248  1.0327 -0.2198
   14CHTO  H184 5574   4.014   4.948   1.784 -0.9178  1.2991 -0.7306
   14CHTO   O64 5575   4.051   5.144   1.869  0.3455  0.1579 -0.2600
   14CHTO  C104 5576   4.125   5.101   1.983 -0.3479  0.4630 -0.1852
   14CHTO  H191 5577   4.103   4.997   2.005  4.2164 -0.7889 -1.0732
   14CHTO  C108 5578   4.093   5.179   2.110 -0.1439  0.0782 -0.2351
   14CHTO   O71 5579   3.952   5.174   2.132 -0.0856  0.6025  0.8675
   14CHTO  H171 5580   3.923   5.237   2.195 -2.3496 -0.2587  0.7257
   14CHTO   O62 5581   3.978   5.107   1.648  0.3023  0.0327 -0.2980
   14CHTO   C91 5582   3.839   5.081   1.654  0.5622  0.5643  0.7172
   14CHTO  H178 5583   3.809   4.982   1.688  1.6507  0.0930  0.3219
   14CHTO   C92 5584   3.784   5.074   1.506  0.2123  0.7971  0.8396
   14CHTO  H179 5585   3.840   5.001   1.446 -1.4492 -0.6873  1.0573
   14CHTO   O66 5586   3.651   5.018   1.508 -0.3986  0.3399  0.2479
   14CHTO  H166 5587   3.607   5.056   1.581  0.2849  1.4848  0.0677
   14CHTO   C93 5588   3.771   5.211   1.434  0.2647 -0.4169 -0.5474
   14CHTO  H180 5589   3.700   5.201   1.351  0.9961  4.1134 -1.9069
   14CHTO   N16 5590   3.893   5.258   1.364  0.1408  0.3789  0.1517
   14CHTO  H172 5591   3.884   5.250   1.257 -0.5579 -0.4768  0.2646
   14CHTO  H173 5592   3.925   5.358   1.387 -2.8897  1.6432 -0.9045
   14CHTO   C94 5593   3.710   5.310   1.542  0.9524  0.4133 -0.1513
   14CHTO  H181 5594   3.773   5.399   1.557 -0.2965  1.3999 -0.7235
   14CHTO   O61 5595   3.678   5.268   1.674 -0.1662  0.0300 -0.0165
   14CHTO   C95 5596   3.765   5.187   1.747 -0.3616 -0.4570 -0.8208
   14CHTO  H182 5597   3.846   5.252   1.782 -0.7696 -0.0516 -0.6167
   14CHTO  C106 5598   3.696   5.137   1.882 -0.2717  0.8141 -0.2794
   14CHTO   O69 5599   3.624   5.016   1.874 -0.3851  0.0056  0.5391
   14CHTO  H169 5600   3.559   5.024   1.807 -0.1860 -2.4658  0.0063
   14CHTO   O63 5601   3.573   5.374   1.465 -0.0512 -0.5169 -0.8576
   14CHTO   C96 5602   3.532   5.519   1.507  0.5489 -0.9141  0.3171
   14CHTO  H183 5603   3.600   5.542   1.589  0.9805  0.7575 -0.4939
   14CHTO   C98 5604   3.390   5.530   1.562  0.3951 -0.5338  0.0074
   14CHTO  H185 5605   3.316   5.490   1.491  0.1818 -2.5610  1.3197
   14CHTO   O67 5606   3.383   5.437   1.677 -0.6528 -0.1878 -0.7017
   14CHTO  H167 5607   3.292   5.433   1.696 -0.8605  1.3661 -1.2268
   14CHTO  C102 5608   3.338   5.673   1.597  0.2522  0.3019 -0.0468
   14CHTO  H189 5609   3.375   5.691   1.699  1.0152  3.6883 -0.8560
   14CHTO   N18 5610   3.192   5.687   1.613  0.0610  0.6677  0.3632
   14CHTO  H176 5611   3.160   5.706   1.512  0.2622  0.6352  0.2924
   14CHTO  H177 5612   3.169   5.773   1.674  1.6678  2.5965 -1.6505
   14CHTO  C105 5613   3.397   5.781   1.506 -0.9097 -0.2220 -0.6388
   14CHTO  H192 5614   3.328   5.804   1.426 -0.3202 -0.2207 -1.1483
   14CHTO   O65 5615   3.529   5.765   1.444  0.1378 -0.7421  0.3208
   14CHTO  C100 5616   3.552   5.632   1.393 -0.9269  0.3287  0.2470
   14CHTO  H187 5617   3.473   5.620   1.318  0.4009  1.3278 -1.3552
   14CHTO  C107 5618   3.695   5.630   1.327  0.0035 -0.0029 -0.4608
   14CHTO   O70 5619   3.701   5.712   1.203 -0.4256  0.3363 -0.6041
   14CHTO  H170 5620   3.698   5.800   1.235  0.8312  0.8537 -1.8913
   14CHTO   O57 5621   3.412   5.901   1.608 -0.3686  0.1369  0.0939
   14CHTO   C85 5622   3.323   6.012   1.596 -0.3453  0.3174 -0.3285
   14CHTO  H157 5623   3.231   5.962   1.559 -1.3393  0.0364  2.4044
   14CHTO   C83 5624   3.362   6.097   1.473 -0.0698  0.1173 -0.5773
   14CHTO  H155 5625   3.336   6.038   1.385 -0.7592 -0.6017  0.0962
   14CHTO   O56 5626   3.507   6.112   1.476  0.5597  0.6075 -0.8574
   14CHTO  H135 5627   3.526   6.121   1.567  0.4894 -1.7073 -0.5851
   14CHTO   C81 5628   3.277   6.227   1.469 -0.0535  0.6912 -0.2559
   14CHTO  H153 5629   3.173   6.194   1.463  0.6030 -1.4847 -0.0567
   14CHTO   N14 5630   3.288   6.304   1.347 -0.1707 -0.5249 -0.4752
   14CHTO  H141 5631   3.387   6.344   1.338 -0.4151 -0.3920 -2.8801
   14CHTO  H142 5632   3.284   6.230   1.269  0.0630  0.2547 -1.2394
   14CHTO   C79 5633   3.300   6.316   1.598  0.0429 -0.2166  0.2315
   14CHTO  H151 5634   3.250   6.412   1.580 -2.3509 -1.9559 -3.0986
   14CHTO   O52 5635   3.237   6.236   1.706  0.3328  0.2539  0.4199
   14CHTO   C86 5636   3.295   6.099   1.725  0.2031  0.1048 -0.4767
   14CHTO  H158 5637   3.394   6.109   1.773 -0.0651 -2.5637  0.7039
   14CHTO   C90 5638   3.212   6.015   1.827  0.2969 -0.3635 -0.6510
   14CHTO   O60 5639   3.080   6.018   1.785  0.5411 -0.0715  0.8738
   14CHTO  H138 5640   3.026   5.970   1.845  2.8687 -1.5436  1.8598
   14CHTO   O50 5641   3.439   6.345   1.621  0.0726  0.5361 -0.0815
   14CHTO   C73 5642   3.505   6.453   1.695 -0.2349 -0.8274  0.6255
   14CHTO  H145 5643   3.458   6.489   1.788 -1.5104  0.0525 -0.3581
   14CHTO   C74 5644   3.515   6.579   1.602 -0.1768 -0.3368 -0.3331
   14CHTO  H146 5645   3.409   6.604   1.583 -0.3086 -1.1211 -0.6391
   14CHTO   O54 5646   3.581   6.684   1.679  0.0530 -0.2946 -0.1682
   14CHTO  H133 5647   3.555   6.765   1.637 -3.0765 -1.1052  0.0474
   14CHTO   C75 5648   3.596   6.544   1.465  0.2338 -0.1265 -0.0293
   14CHTO  H147 5649   3.540   6.463   1.415 -1.4560 -0.2757  2.0231
   14CHTO   N13 5650   3.608   6.653   1.369 -0.4976 -0.0224 -1.1061
   14CHTO  H139 5651   3.508   6.680   1.339 -1.0073  1.2170  1.5062
   14CHTO  H140 5652   3.660   6.742   1.400 -0.8782 -0.3575  0.5495
   14CHTO   C76 5653   3.745   6.492   1.515 -0.0959 -0.7193 -0.0935
   14CHTO  H148 5654   3.803   6.577   1.551 -1.0562  0.4877 -1.3290
   14CHTO   O49 5655   3.734   6.387   1.613  0.5333  0.9455  0.2477
   14CHTO   C77 5656   3.652   6.405   1.730 -0.0986 -0.3652  0.0229
   14CHTO  H149 5657   3.701   6.483   1.788  3.6611 -1.1893 -1.8863
   14CHTO   C88 5658   3.646   6.273   1.808 -0.4517 -0.8008 -0.5776
   14CHTO   O58 5659   3.809   6.225   1.852 -0.3527  0.2957  0.6010
   14CHTO  H136 5660   3.862   6.220   1.775 -1.6057 -1.1186 -0.1783
   14CHTO   O51 5661   3.828   6.403   1.398 -1.1447  0.4136 -0.0409
   14CHTO   C78 5662   3.986   6.423   1.437  0.3195  0.7208 -0.6485
   14CHTO  H150 5663   4.006   6.469   1.535  2.3882 -0.0456 -0.6818
   14CHTO   C80 5664   4.053   6.513   1.324 -0.4844  0.4245  0.0014
   14CHTO  H152 5665   4.039   6.458   1.229 -0.5357  1.4748 -0.6074
   14CHTO   O55 5666   3.975   6.634   1.338  0.4419  0.2023 -0.0999
   14CHTO  H134 5667   3.982   6.695   1.268 -2.3066 -1.0847 -1.6032
   14CHTO   C84 5668   4.212   6.524   1.348 -0.5567 -0.2069  0.8235
   14CHTO  H156 5669   4.222   6.559   1.451 -0.0438 -0.1150  0.7471
   14CHTO   N15 5670   4.285   6.617   1.253 -0.6949  0.5855  0.8301
   14CHTO  H143 5671   4.323   6.554   1.175 -3.0891  2.0985 -1.6378
   14CHTO  H144 5672   4.223   6.693   1.210 -0.9885  0.3514  0.8407
   14CHTO   C87 5673   4.279   6.383   1.351  0.4385  0.0434 -0.2190
   14CHTO  H159 5674   4.274   6.336   1.253 -3.1615  0.7954 -0.4608
   14CHTO   O53 5675   4.190   6.291   1.461 -0.0954  0.7566  0.0190
   14CHTO   C82 5676   4.051   6.282   1.433 -0.2884  0.5201 -0.5786
   14CHTO  H154 5677   4.035   6.238   1.334 -0.5489 -0.7512  0.0208
   14CHTO   C89 5678   3.981   6.183   1.530  0.0610 -0.2905 -0.5168
   14CHTO   O59 5679   4.037   6.174   1.660  0.4497  0.6509  0.0832
   14CHTO  H137 5680   3.994   6.100   1.698  2.3557 -0.1589  0.6957
   14CHTO   O45 5681   4.430   6.388   1.409 -0.3312 -0.0768 -0.0074
   14CHTO   C67 5682   4.496   6.262   1.444 -0.4684  0.1424 -0.4718
   14CHTO  H124 5683   4.433   6.204   1.511  1.5596 -1.9050 -0.2589
   14CHTO   C65 5684   4.529   6.179   1.312 -1.0684 -0.6311  0.3421
   14CHTO  H122 5685   4.439   6.182   1.251 -1.0689 -1.2984  0.3021
   14CHTO   O44 5686   4.553   6.043   1.359  0.0152  0.3320  0.1655
   14CHTO  H102 5687   4.475   6.009   1.397 -0.2843  0.9511  0.1221
   14CHTO   C63 5688   4.641   6.245   1.230 -0.2162 -0.3359 -0.1832
   14CHTO  H120 5689   4.605   6.341   1.193 -2.8783 -1.1831  0.1560
   14CHTO   N11 5690   4.678   6.176   1.103 -0.2643  0.3413  0.2123
   14CHTO  H108 5691   4.739   6.091   1.126 -0.8188 -0.0340  0.3105
   14CHTO  H109 5692   4.727   6.241   1.034  0.0423 -1.8580 -1.6999
   14CHTO   C61 5693   4.766   6.275   1.319 -0.8979  0.4713 -0.9101
   14CHTO  H118 5694   4.822   6.344   1.254 -0.4013  0.1220 -0.8485
   14CHTO   O40 5695   4.734   6.350   1.443 -0.1514 -0.4067  0.3524
   14CHTO   C68 5696   4.616   6.304   1.525  0.7898 -0.0694  0.0040
   14CHTO  H125 5697   4.598   6.391   1.591 -1.6676  0.0221 -0.7549
   14CHTO   C72 5698   4.660   6.190   1.619  0.1949 -0.0928 -0.1164
   14CHTO   O48 5699   4.776   6.216   1.698 -0.4343 -0.3923  0.1848
   14CHTO  H105 5700   4.810   6.131   1.715  0.9991  0.2662  0.7484
   14CHTO   O38 5701   4.844   6.157   1.365 -0.1065  0.5277 -0.3582
   14CHTO   C55 5702   4.986   6.146   1.342  1.2828  0.7767  0.7422
   14CHTO  H112 5703   5.024   6.236   1.291 -0.4990  1.7396  1.0804
   14CHTO   C56 5704   5.023   6.013   1.259  0.5632  1.0366  0.0553
   14CHTO  H113 5705   4.998   5.923   1.319  1.9345 -1.8500 -3.5578
   14CHTO   O42 5706   4.953   6.018   1.135 -0.1075  0.0935  0.1184
   14CHTO  H100 5707   4.874   6.068   1.129 -0.0443  0.2375  0.5206
   14CHTO   C57 5708   5.179   6.015   1.232 -0.0075  0.4481  0.0073
   14CHTO  H114 5709   5.208   6.104   1.177  3.6462 -1.3883 -1.2730
   14CHTO   N10 5710   5.227   5.903   1.145  0.0007 -0.7765 -0.0369
   14CHTO  H106 5711   5.309   5.931   1.080 -1.4468  1.9656 -0.7056
   14CHTO  H107 5712   5.151   5.854   1.086  0.6427  0.5630 -2.0211
   14CHTO   C58 5713   5.254   6.017   1.371 -0.3346 -0.0659 -0.2285
   14CHTO  H115 5714   5.249   5.919   1.423 -1.3577 -0.4307 -0.9894
   14CHTO   O37 5715   5.206   6.130   1.440 -0.7836 -0.4338 -0.0168
   14CHTO   C59 5716   5.071   6.145   1.472  0.2133  1.1515 -0.2170
   14CHTO  H116 5717   5.032   6.066   1.536  1.0706  0.6314 -0.3203
   14CHTO   C70 5718   5.061   6.279   1.542 -0.0722  0.1471  0.0811
   14CHTO   O46 5719   5.076   6.397   1.460  0.1885 -0.2759  0.1007
   14CHTO  H103 5720   5.002   6.446   1.489  0.2578 -0.8349  1.2789
   14CHTO   O39 5721   5.414   6.051   1.356 -0.3068  0.4114 -0.1624
   14CHTO   C60 5722   5.502   6.023   1.465  0.1051  0.7024  0.6784
   14CHTO  H117 5723   5.457   6.046   1.562 -0.0952 -3.4950  1.6950
   14CHTO   C62 5724   5.533   5.870   1.477 -0.1798  0.3238 -0.1969
   14CHTO  H119 5725   5.439   5.812   1.489 -0.4066  0.9636  1.2686
   14CHTO   O43 5726   5.587   5.836   1.348  0.0438  0.8605 -1.0453
   14CHTO  H101 5727   5.642   5.761   1.355 -1.8392 -0.4536 -0.0472
   14CHTO   C66 5728   5.639   5.833   1.596 -0.0318  0.1493  0.1791
   14CHTO  H123 5729   5.600   5.864   1.693 -1.1259 -2.0663  0.4730
   14CHTO   N12 5730   5.662   5.687   1.604  0.3985  0.0306 -0.1289
   14CHTO  H110 5731   5.621   5.630   1.686 -0.5981 -1.0372 -1.3602
   14CHTO  H111 5732   5.766   5.665   1.585 -0.2047 -0.6495 -2.7280
   14CHTO   C69 5733   5.764   5.919   1.571 -0.4208 -0.1575  0.9249
   14CHTO  H126 5734   5.794   5.889   1.469 -0.6758  0.8544  0.5510
   14CHTO   O41 5735   5.729   6.074   1.581 -0.1936  0.1091 -0.1841
   14CHTO   C64 5736   5.630   6.108   1.456 -0.1770 -0.7194  0.6089
   14CHTO  H121 5737   5.671   6.086   1.355 -0.2397  1.9079 -0.0145
   14CHTO   C71 5738   5.600   6.257   1.458 -0.5072 -0.6241  0.1801
   14CHTO   O47 5739   5.517   6.313   1.352 -0.8122 -0.0687  0.9187
   14CHTO  H104 5740   5.430   6.329   1.384 -0.4759  2.4760  0.6539
   14CHTO   O34 5741   5.871   5.896   1.689 -0.1716  0.6443 -0.3242
   14CHTO   C49 5742   6.016   5.896   1.648  0.4754 -0.8708  0.3979
   14CHTO   H91 5743   6.040   5.807   1.590  1.7693  0.5737 -1.3337
   14CHTO   C47 5744   6.095   5.893   1.777 -0.5054 -0.3473  0.9743
   14CHTO   H89 5745   6.202   5.883   1.748 -0.0698 -0.3479  2.5466
   14CHTO   O33 5746   6.054   5.769   1.839 -0.0478  0.5674  0.1882
   14CHTO   H70 5747   5.974   5.776   1.886 -0.0609  0.4106  0.1890
   14CHTO   C45 5748   6.083   6.031   1.858 -0.4203 -0.0378 -0.0263
   14CHTO   H87 5749   5.993   6.022   1.921  1.0805 -0.5849  2.0959
   14CHTO    N8 5750   6.198   6.049   1.946 -0.2148 -0.0704  0.5766
   14CHTO   H75 5751   6.243   6.147   1.940  0.3578 -0.4203 -0.9358
   14CHTO   H76 5752   6.273   5.972   1.935  0.1955  0.5913 -1.4020
   14CHTO   C43 5753   6.030   6.146   1.768 -0.3146 -0.3722 -0.3086
   14CHTO   H85 5754   5.923   6.132   1.755 -0.1091 -1.7683 -0.5981
   14CHTO   O29 5755   6.092   6.146   1.645  0.1626 -0.7013  0.0808
   14CHTO   C50 5756   6.059   6.024   1.569 -0.3397 -0.0608 -0.0929
   14CHTO   H92 5757   5.989   6.038   1.485  1.3161  0.5988 -1.4095
   14CHTO   C54 5758   6.188   5.981   1.498  0.0463 -0.5596  0.3648
   14CHTO   O36 5759   6.223   6.058   1.387  0.4576 -0.3275 -0.2391
   14CHTO   H72 5760   6.145   6.061   1.334 -0.8777  2.6036  1.7542
   14CHTO   O27 5761   6.031   6.271   1.840 -0.8912  0.1857 -0.1233
   14CHTO   C37 5762   5.936   6.381   1.865  0.6440  0.2685 -0.1017
   14CHTO   H79 5763   5.992   6.470   1.898  1.2140 -0.4747  0.9761
   14CHTO   C38 5764   5.852   6.421   1.738  0.3440  0.6858 -0.3751
   14CHTO   H80 5765   5.812   6.332   1.686 -1.3862  0.8133  0.7109
   14CHTO   O31 5766   5.951   6.484   1.659 -0.3437 -0.3414 -0.3856
   14CHTO   H68 5767   5.912   6.530   1.588  3.1394  0.4333 -1.9139
   14CHTO   C39 5768   5.736   6.521   1.781 -1.2431  0.7807  0.0680
   14CHTO   H81 5769   5.793   6.605   1.821  1.7675 -1.3134  0.3442
   14CHTO    N7 5770   5.650   6.564   1.668 -0.1788 -0.0246  0.0393
   14CHTO   H73 5771   5.622   6.487   1.597 -1.2734 -0.1322  0.5650
   14CHTO   H74 5772   5.553   6.601   1.699  0.0622 -0.1282  0.9428
   14CHTO   C40 5773   5.648   6.463   1.903 -0.0335 -0.2961 -0.8644
   14CHTO   H82 5774   5.610   6.367   1.867  0.1677 -0.5802 -0.3211
   14CHTO   O26 5775   5.751   6.441   2.010 -0.1637 -0.0164  1.1527
   14CHTO   C41 5776   5.840   6.337   1.984 -1.1005  1.3276  0.1231
   14CHTO   H83 5777   5.784   6.247   1.956 -1.3783  2.2010 -2.2765
   14CHTO   C52 5778   5.928   6.310   2.105 -0.1943 -0.1748  0.8677
   14CHTO   O35 5779   6.009   6.439   2.144  0.1794  0.0286  0.3103
   14CHTO   H71 5780   5.950   6.508   2.169 -2.0608 -0.3456 -3.5172
   14CHTO   O28 5781   5.556   6.554   1.964  0.5551 -0.1515 -0.3167
   14CHTO   C42 5782   5.416   6.528   1.986  0.4336  0.8336 -0.3087
   14CHTO   H84 5783   5.397   6.578   2.081 -1.3056 -1.1046  0.3937
   14CHTO   C44 5784   5.372   6.375   2.011 -0.3518 -0.2010  0.0109
   14CHTO   H86 5785   5.383   6.321   1.917  0.9018  0.4117 -0.1925
   14CHTO   O32 5786   5.460   6.329   2.113  0.4415  0.1200 -0.7936
   14CHTO   H69 5787   5.536   6.292   2.072  0.9699  1.8007 -1.3913
   14CHTO   C48 5788   5.220   6.365   2.065 -0.4903 -0.1074 -0.3238
   14CHTO   H90 5789   5.217   6.418   2.160  0.3538  1.3639 -1.0860
   14CHTO    N9 5790   5.172   6.223   2.095 -0.0792  0.0215 -0.2381
   14CHTO   H77 5791   5.242   6.143   2.115 -0.4910 -0.7259 -1.7357
   14CHTO   H78 5792   5.105   6.224   2.180 -1.5125  0.3225 -1.3612
   14CHTO   C51 5793   5.129   6.438   1.967 -0.6676  0.1729  0.3973
   14CHTO   H93 5794   5.102   6.383   1.878  1.3605  2.3780 -1.6372
   14CHTO   O30 5795   5.170   6.573   1.935  0.4180 -0.0467 -0.2654
   14CHTO   C46 5796   5.323   6.593   1.876 -0.7582  0.4815  0.0612
   14CHTO   H88 5797   5.336   6.534   1.785  2.3727  2.0937 -0.5842
   14CHTO   C53 5798   5.349   6.741   1.854 -0.3579  0.2750  0.0695
   14CHTO   O72 5799   5.260   6.788   1.751 -0.1428  0.2123 -0.4615
   14CHTO  H199 5800   5.302   6.792   1.667  0.6942  0.4346 -0.0376
   14CHTO   O22 5801   5.002   6.462   2.032 -0.2564 -0.1913  0.0006
   14CHTO   C31 5802   4.873   6.429   1.970 -0.4611  0.6700  0.8794
   14CHTO   H59 5803   4.892   6.345   1.900 -2.5431  0.3529  0.6555
   14CHTO   C29 5804   4.773   6.381   2.078 -0.1496 -0.2372  0.1247
   14CHTO   H57 5805   4.752   6.458   2.153  1.0239 -0.1810  0.4172
   14CHTO   O21 5806   4.835   6.274   2.153 -0.1743  0.0439 -0.3328
   14CHTO   H37 5807   4.762   6.252   2.207  0.2844 -1.6613 -0.3751
   14CHTO   C27 5808   4.636   6.339   2.007 -0.4053  0.3573 -0.7226
   14CHTO   H55 5809   4.660   6.257   1.938  2.5781 -0.0034  0.6688
   14CHTO    N5 5810   4.531   6.291   2.107  0.0470 -0.2748  0.1627
   14CHTO   H43 5811   4.526   6.350   2.197  1.1435 -1.4295  1.0104
   14CHTO   H44 5812   4.553   6.188   2.131  1.7120  0.3257  1.3220
   14CHTO   C25 5813   4.579   6.463   1.928 -0.7301 -0.0789  1.2892
   14CHTO   H53 5814   4.572   6.547   1.999 -2.1151  0.7992  0.1360
   14CHTO   O17 5815   4.675   6.519   1.833 -0.4481 -0.0059 -0.1192
   14CHTO   C32 5816   4.813   6.543   1.884  0.4566 -0.9475  0.7564
   14CHTO   H60 5817   4.823   6.634   1.945 -1.9189 -0.0336 -0.1410
   14CHTO   C36 5818   4.894   6.567   1.751  0.3413 -0.4897 -0.4603
   14CHTO   O25 5819   4.863   6.686   1.678 -0.0614  0.4020  0.5925
   14CHTO   H40 5820   4.941   6.725   1.645  0.4463  0.6368  2.0414
   14CHTO   O15 5821   4.460   6.446   1.870 -0.4340 -0.7444 -0.0986
   14CHTO   C19 5822   4.340   6.491   1.797 -1.0596  0.0739  0.4400
   14CHTO   H47 5823   4.326   6.420   1.714 -1.9856  0.6178  0.1235
   14CHTO   C20 5824   4.217   6.477   1.891 -0.7122 -0.4202  0.4430
   14CHTO   H48 5825   4.234   6.522   1.990 -1.2239 -1.0736  0.8331
   14CHTO   O19 5826   4.197   6.335   1.916  0.1661 -0.3822  0.4457
   14CHTO   H35 5827   4.107   6.306   1.911 -0.3065  1.2500 -0.7408
   14CHTO   C21 5828   4.085   6.533   1.820  0.6121 -0.2164 -0.0177
   14CHTO   H49 5829   4.064   6.467   1.736 -0.0146  0.6093 -0.5101
   14CHTO    N4 5830   3.964   6.535   1.901  0.3168 -0.5679 -0.1529
   14CHTO   H41 5831   3.888   6.471   1.860 -2.0645  1.5328  0.8748
   14CHTO   H42 5832   3.924   6.634   1.915 -1.5335 -1.2401 -0.5713
   14CHTO   C22 5833   4.116   6.673   1.752  0.0168  0.3457 -0.2403
   14CHTO   H50 5834   4.143   6.740   1.834  1.1759  0.0719 -0.3859
   14CHTO   O14 5835   4.232   6.658   1.670 -0.5549 -0.1684  0.0863
   14CHTO   C23 5836   4.347   6.631   1.740  0.3608  0.7405 -0.6158
   14CHTO   H51 5837   4.353   6.709   1.818 -0.8141 -0.2673  0.5111
   14CHTO   C34 5838   4.467   6.655   1.648  0.5926 -0.4772  0.4919
   14CHTO   O23 5839   4.463   6.791   1.603 -0.6316  0.7023  0.1260
   14CHTO   H38 5840   4.465   6.846   1.678 -1.4083 -0.7891  1.2682
   14CHTO   O16 5841   4.003   6.724   1.671 -0.0027 -0.1078  0.4888
   14CHTO   C24 5842   4.000   6.894   1.652 -0.0227  0.0313 -1.0690
   14CHTO   H52 5843   3.917   6.924   1.589 -1.6902 -0.5190  0.8256
   14CHTO   C26 5844   4.146   6.942   1.604  0.5643 -0.5606 -0.4724
   14CHTO   H54 5845   4.228   6.898   1.664  0.8084  0.7720  0.1959
   14CHTO   O20 5846   4.157   6.908   1.467 -0.2023 -0.1062  0.1096
   14CHTO   H36 5847   4.246   6.908   1.436 -0.6772  0.7418 -1.2962
   14CHTO   C30 5848   4.150   7.100   1.613 -0.2770 -0.3111  0.3959
   14CHTO   H58 5849   4.095   7.152   1.533 -0.1093 -0.2650  0.3114
   14CHTO    N6 5850   4.290   7.145   1.587  0.5363  0.4130 -0.5212
   14CHTO   H45 5851   4.284   7.253   1.589 -1.0909  0.3245  2.0360
   14CHTO   H46 5852   4.348   7.113   1.672  1.4840  2.4190 -0.3770
   14CHTO   C33 5853   4.098   7.144   1.754  0.7186 -0.0829  0.6598
   14CHTO   H61 5854   4.164   7.111   1.836  2.7750 -0.4983 -1.1126
   14CHTO   O18 5855   3.963   7.091   1.781  0.9557  0.1867  0.1422
   14CHTO   C28 5856   3.965   6.950   1.787 -0.1098  0.0778 -0.1057
   14CHTO   H56 5857   4.039   6.914   1.859  1.7254  1.4081 -1.2886
   14CHTO   C35 5858   3.835   6.890   1.829  0.7453  0.0836 -0.4682
   14CHTO   O24 5859   3.777   6.948   1.952 -0.2670 -0.1305  0.3278
   14CHTO   H39 5860   3.840   6.984   2.011 -0.4101  0.8212 -0.0911
   14CHTO    O9 5861   4.102   7.289   1.767 -0.0608  0.3181  0.5115
   14CHTO   C13 5862   4.161   7.349   1.937 -0.3248 -0.1983 -0.3367
   14CHTO   H26 5863   4.226   7.270   1.980  2.0343  0.4376 -2.6059
   14CHTO   C11 5864   4.040   7.382   2.023  0.5545 -0.1384 -0.0075
   14CHTO   H24 5865   3.983   7.291   2.048 -0.2181  0.4240  0.2948
   14CHTO    O8 5866   3.954   7.462   1.934  0.2886 -0.1563 -0.0417
   14CHTO    H3 5867   3.873   7.420   1.911 -0.0896  1.0505 -0.9549
   14CHTO    C9 5868   4.091   7.447   2.154 -0.2918 -0.1419  0.1749
   14CHTO   H22 5869   4.146   7.364   2.201  1.3029  0.6569 -0.2333
   14CHTO    N2 5870   3.979   7.474   2.250  0.2872  0.2280 -0.3127
   14CHTO   H10 5871   4.002   7.427   2.345 -0.1353  0.9473  0.1510
   14CHTO   H11 5872   3.890   7.439   2.200  0.5491 -1.3612  0.3051
   14CHTO    C7 5873   4.203   7.557   2.133  0.3691 -0.2195  0.7277
   14CHTO   H20 5874   4.292   7.507   2.176  1.9304 -0.4450 -2.5690
   14CHTO    O4 5875   4.215   7.594   1.994  0.1521  0.0430  0.4441
   14CHTO   C14 5876   4.260   7.472   1.927 -0.6437  0.4823  0.4096
   14CHTO   H27 5877   4.360   7.444   1.964 -0.7406 -0.8250 -0.2884
   14CHTO   C18 5878   4.284   7.503   1.778 -0.6923  0.5773 -0.0554
   14CHTO   O13 5879   4.411   7.564   1.761 -0.2094  0.1449  0.1755
   14CHTO    H7 5880   4.475   7.518   1.813  0.1656  1.6322  1.0548
   14CHTO    O2 5881   4.189   7.706   2.235  0.0019  0.0947 -0.2200
   14CHTO    C1 5882   4.281   7.810   2.197  0.8922  1.1900 -0.4973
   14CHTO   H14 5883   4.264   7.834   2.090 -0.2287  0.0861 -0.5746
   14CHTO    C2 5884   4.434   7.765   2.214 -1.3215  0.1781 -0.2059
   14CHTO   H15 5885   4.451   7.734   2.317  0.6133  0.5775 -0.3895
   14CHTO    O6 5886   4.465   7.663   2.115  0.5126 -0.2528 -0.3575
   14CHTO    H1 5887   4.545   7.620   2.137 -0.4318 -0.9159  2.0229
   14CHTO    C3 5888   4.537   7.889   2.186  0.1829  0.4208 -0.0459
   14CHTO   H16 5889   4.526   7.914   2.079  0.5608  3.4564  0.5661
   14CHTO    N1 5890   4.681   7.855   2.208 -0.1574 -0.1759  0.0843
   14CHTO    H8 5891   4.729   7.903   2.292 -1.3222  2.0303 -0.4629
   14CHTO    H9 5892   4.734   7.874   2.116 -1.3516 -0.6325 -0.7133
   14CHTO    C4 5893   4.494   8.016   2.259 -0.5305  0.3066  0.2100
   14CHTO   H17 5894   4.514   7.997   2.364 -2.2577  0.5280  0.5861
   14CHTO    O1 5895   4.359   8.049   2.240 -0.2041  0.0912 -0.0929
   14CHTO    C5 5896   4.269   7.941   2.281 -0.1496 -0.1688  0.3313
   14CHTO   H18 5897   4.276   7.912   2.386  0.0845  0.7243  0.5600
   14CHTO   C16 5898   4.125   8.000   2.256  0.3181 -0.1455 -0.1878
   14CHTO   O11 5899   4.107   8.135   2.308 -0.4714  0.0245  0.0807
   14CHTO    H5 5900   4.054   8.142   2.385  2.0859  0.9208  1.8190
   14CHTO    O3 5901   4.568   8.126   2.201  0.3680  0.0024 -0.1421
   14CHTO    C6 5902   4.586   8.239   2.286 -0.0187 -0.4132 -0.2356
   14CHTO   H19 5903   4.529   8.231   2.379  1.1969  4.6227  1.0994
   14CHTO    C8 5904   4.735   8.250   2.323  0.2893 -0.2763  0.0982
   14CHTO   H21 5905   4.796   8.269   2.234  1.6726  0.8926  1.2866
   14CHTO    O7 5906   4.774   8.118   2.383 -0.2190  0.4712 -0.1767
   14CHTO    H2 5907   4.856   8.121   2.429 -1.6042 -0.0115  2.4463
   14CHTO   C12 5908   4.752   8.382   2.419 -0.1390 -0.0556  0.1160
   14CHTO   H25 5909   4.701   8.342   2.509  0.5412 -0.1836  0.4483
   14CHTO    N3 5910   4.898   8.411   2.451 -0.2372  0.5695 -0.3413
   14CHTO   H12 5911   4.960   8.381   2.368 -1.2936 -0.9588 -0.6088
   14CHTO   H13 5912   4.921   8.350   2.537  2.3153 -0.4585 -1.7112
   14CHTO   C15 5913   4.669   8.506   2.363 -0.0803  0.1869  0.7487
   14CHTO   H28 5914   4.734   8.543   2.284 -2.7367 -0.8345 -2.0050
   14CHTO   O10 5915   4.637   8.613   2.472  0.3481  0.5365  0.3524
   14CHTO    H4 5916   4.706   8.676   2.460 -0.7629  1.3780 -1.9637
   14CHTO    O5 5917   4.539   8.475   2.316 -0.4175  0.6757  0.1688
   14CHTO   C10 5918   4.545   8.379   2.213 -0.8839  0.1150  0.0631
   14CHTO   H23 5919   4.624   8.409   2.145  0.2525  0.0904  1.3365
   14CHTO   C17 5920   4.412   8.375   2.140  0.2116  0.1270  0.0944
   14CHTO   O12 5921   4.381   8.497   2.072 -0.7396 -0.2887 -0.3648
   14CHTO    H6 5922   4.293   8.520   2.091 -0.0992  0.8615  1.3582
   15CHTO  H203 5923   5.172   4.876   2.023 -1.0569  2.3508 -0.1578
   15CHTO   O82 5924   5.196   4.896   1.935  0.3066  0.4197 -0.2464
   15CHTO  C123 5925   5.119   4.834   1.830  0.0900 -0.6710  0.3501
   15CHTO  H227 5926   5.021   4.883   1.825  0.8130  0.8716  0.9304
   15CHTO   O77 5927   5.189   4.889   1.711  0.2324  0.1094  0.6477
   15CHTO  C118 5928   5.150   4.848   1.579  0.6567 -0.8332  1.0636
   15CHTO  H222 5929   5.047   4.880   1.559  1.3205  1.3152  0.9977
   15CHTO  C125 5930   5.242   4.913   1.470  0.1048 -0.2085  0.0229
   15CHTO   O84 5931   5.227   5.054   1.461 -0.6176  0.4036  0.4772
   15CHTO  H205 5932   5.279   5.104   1.521 -0.0765  0.4383 -0.0258
   15CHTO  C114 5933   5.168   4.694   1.571 -0.1198  0.2528 -0.4161
   15CHTO  H218 5934   5.274   4.669   1.581 -0.2216 -0.9221 -2.0070
   15CHTO  C116 5935   5.088   4.621   1.682  0.0750 -0.5696 -0.7390
   15CHTO  H220 5936   4.980   4.627   1.657 -0.4204 -0.9625  1.2250
   15CHTO   O79 5937   5.122   4.478   1.676  0.1190 -0.3827  0.6412
   15CHTO  H201 5938   5.065   4.425   1.729 -1.5481  0.5478 -0.1874
   15CHTO  C120 5939   5.125   4.675   1.827  0.1051  0.0932  0.5136
   15CHTO  H224 5940   5.230   4.642   1.843 -0.1303 -1.3036 -0.7081
   15CHTO   N21 5941   5.046   4.618   1.937 -0.0194 -0.2316 -0.5345
   15CHTO  H211 5942   4.957   4.578   1.892 -1.0562  0.7100  0.6609
   15CHTO  H212 5943   5.103   4.531   1.968 -0.7311 -1.0707 -1.5450
   15CHTO   O75 5944   5.112   4.660   1.446 -0.5678 -0.8071  0.1090
   15CHTO  C112 5945   5.223   4.586   1.347  0.8882  0.1852 -0.4852
   15CHTO  H216 5946   5.288   4.534   1.419 -0.5694 -3.3396 -1.6032
   15CHTO   O73 5947   5.299   4.674   1.263  0.0887 -0.1139  0.1387
   15CHTO  C113 5948   5.424   4.619   1.220  0.2382  1.0536 -0.1675
   15CHTO  H217 5949   5.483   4.581   1.306 -2.6603 -0.5780  1.1510
   15CHTO  C124 5950   5.500   4.739   1.169  0.3356  0.4149 -0.3999
   15CHTO   O83 5951   5.637   4.711   1.143 -0.1485 -0.2021  0.7916
   15CHTO  H204 5952   5.657   4.738   1.056 -4.3789  0.1047 -0.2199
   15CHTO  C109 5953   5.396   4.505   1.114  0.1682  0.4095  0.7877
   15CHTO  H213 5954   5.355   4.545   1.021 -0.5812 -0.5375  0.7060
   15CHTO  C110 5955   5.282   4.412   1.165  0.0260 -0.2466 -0.4985
   15CHTO  H214 5956   5.326   4.334   1.226  0.1637  0.3124  0.1192
   15CHTO   O78 5957   5.220   4.345   1.058  0.0356 -0.2220  0.5867
   15CHTO  H200 5958   5.283   4.279   1.037  0.6449  0.3061  0.7237
   15CHTO  C111 5959   5.171   4.478   1.254  0.5307  0.1021 -0.3535
   15CHTO  H215 5960   5.098   4.528   1.188 -1.0496 -0.4993  0.9122
   15CHTO   N19 5961   5.092   4.374   1.336 -0.0238 -0.5285 -0.3678
   15CHTO  H207 5962   5.038   4.318   1.261  2.2715 -0.4612 -2.1237
   15CHTO  H208 5963   5.026   4.436   1.395 -1.7708 -0.8027 -1.9816
   15CHTO   O74 5964   5.518   4.427   1.087 -0.2449  0.1961  0.1215
   15CHTO  C115 5965   5.529   4.359   0.948 -0.8740 -0.1701  0.7549
   15CHTO  H219 5966   5.435   4.316   0.916 -0.8453 -0.5804  1.2184
   15CHTO   O76 5967   5.574   4.463   0.834  0.1671  0.3045 -0.2037
   15CHTO  C122 5968   5.703   4.514   0.862  0.8436  0.3166  0.0995
   15CHTO  H226 5969   5.722   4.538   0.966 -0.7887 -0.3738  0.5595
   15CHTO  C126 5970   5.728   4.647   0.785  0.1021  1.1560  0.3947
   15CHTO   O85 5971   5.634   4.741   0.836  0.3589  1.0183 -0.7855
   15CHTO  H206 5972   5.677   4.820   0.865  3.1083 -0.3532 -0.9136
   15CHTO  C121 5973   5.807   4.384   0.824  0.5410 -0.2467 -0.1350
   15CHTO  H225 5974   5.843   4.404   0.721  0.4244 -0.1052 -0.1482
   15CHTO   O81 5975   5.910   4.384   0.925 -0.1902 -0.4109  0.0967
   15CHTO  H202 5976   5.980   4.327   0.900  0.1715 -0.2139  0.6641
   15CHTO  C119 5977   5.734   4.242   0.825 -0.1478  0.4646 -0.0998
   15CHTO  H223 5978   5.677   4.239   0.732 -0.1148 -0.1200 -0.1025
   15CHTO  C117 5979   5.635   4.236   0.950  0.3254  0.3445 -0.0994
   15CHTO  H221 5980   5.680   4.250   1.048  0.9966 -1.3704 -0.1382
   15CHTO   N20 5981   5.557   4.108   0.971  0.0577 -0.4429  0.3945
   15CHTO  H209 5982   5.451   4.121   0.988  0.3523  0.0567  1.9046
   15CHTO  H210 5983   5.581   4.038   0.892 -0.4492 -2.3075  1.8395
   15CHTO   O80 5984   5.837   4.107   0.801 -0.0757  0.1777  0.2047
   15CHTO  C103 5985   5.786   3.965   0.763 -0.6685 -0.2217  0.1673
   15CHTO  H190 5986   5.724   3.923   0.842 -2.7615 -1.4167 -2.0472
   15CHTO  C101 5987   5.695   3.956   0.638  0.8616 -0.0418  0.1080
   15CHTO  H188 5988   5.745   4.008   0.556  0.0884  2.9274  1.4796
   15CHTO   O68 5989   5.553   4.024   0.656  0.6827  0.2843  0.8760
   15CHTO  H168 5990   5.568   4.117   0.656  0.7755  0.2890  2.2978
   15CHTO   C99 5991   5.679   3.798   0.589 -0.1715 -0.0883  0.5859
   15CHTO  H186 5992   5.616   3.744   0.663 -2.4715  0.6385 -0.7881
   15CHTO   N17 5993   5.603   3.783   0.458  0.2342 -0.2302  0.3071
   15CHTO  H174 5994   5.550   3.689   0.454 -1.4197  0.7104 -0.3079
   15CHTO  H175 5995   5.654   3.808   0.366 -1.2289 -1.1908 -0.7755
   15CHTO   C97 5996   5.819   3.724   0.586  0.1008  0.4775 -0.0481
   15CHTO  H184 5997   5.877   3.764   0.502  1.3432 -0.9184  0.1289
   15CHTO   O64 5998   5.888   3.744   0.707 -0.4626  0.5908  0.4344
   15CHTO  C104 5999   5.913   3.879   0.752 -0.3465 -0.5422 -0.1782
   15CHTO  H191 6000   5.985   3.932   0.688  0.2214 -0.8113  0.2330
   15CHTO  C108 6001   5.984   3.878   0.887  0.2265 -0.1880 -0.0420
   15CHTO   O71 6002   5.928   3.788   0.985  0.5099 -0.5647  0.3959
   15CHTO  H171 6003   5.927   3.815   1.074  0.4688 -0.6991  0.4368
   15CHTO   O62 6004   5.805   3.582   0.558  0.4337  0.0437 -0.4991
   15CHTO   C91 6005   5.896   3.526   0.462 -0.3881 -0.8698  0.1049
   15CHTO  H178 6006   5.943   3.595   0.392 -1.1641  0.4442  0.8665
   15CHTO   C92 6007   5.814   3.416   0.375  0.3210 -0.1598 -0.2990
   15CHTO  H179 6008   5.717   3.450   0.337  0.7694  0.4389 -0.9337
   15CHTO   O66 6009   5.881   3.399   0.251 -0.0876  0.0379 -0.2056
   15CHTO  H166 6010   5.827   3.340   0.201  0.5004 -0.6659 -0.0156
   15CHTO   C93 6011   5.800   3.282   0.448 -0.3264 -0.3093 -0.0806
   15CHTO  H180 6012   5.771   3.209   0.370  1.2108 -0.2139 -0.7623
   15CHTO   N16 6013   5.697   3.270   0.547  0.8173  0.2765 -0.3509
   15CHTO  H172 6014   5.675   3.168   0.574 -0.9680  0.4112 -1.1727
   15CHTO  H173 6015   5.616   3.340   0.532  0.5669 -0.1990 -1.2378
   15CHTO   C94 6016   5.936   3.232   0.511 -0.6548 -0.9047  0.3635
   15CHTO  H181 6017   5.938   3.234   0.620 -0.7991 -2.6714  0.4101
   15CHTO   O61 6018   6.046   3.311   0.481 -0.2486  0.5740  0.0613
   15CHTO   C95 6019   6.034   3.450   0.517 -0.3632  0.0324 -0.6978
   15CHTO  H182 6020   6.048   3.467   0.624 -2.3986  1.1220 -0.5699
   15CHTO  C106 6021   6.158   3.511   0.447  0.1898 -0.7958 -0.5382
   15CHTO   O69 6022   6.176   3.651   0.472 -0.5306 -0.0937  0.0432
   15CHTO  H169 6023   6.263   3.676   0.445 -1.2667  0.3912 -1.9143
   15CHTO   O63 6024   5.958   3.082   0.466  0.2412 -0.3989  0.2020
   15CHTO   C96 6025   6.031   2.995   0.561 -0.2320  1.1546 -0.1103
   15CHTO  H183 6026   6.006   3.042   0.656 -0.1690  0.1646  0.4085
   15CHTO   C98 6027   6.187   2.991   0.533 -0.2135  0.5652  0.0193
   15CHTO  H185 6028   6.217   2.995   0.427  2.6963  0.8018  0.8009
   15CHTO   O67 6029   6.236   3.118   0.571  0.2793  0.3192  0.4526
   15CHTO  H167 6030   6.213   3.133   0.660  1.4156 -2.2628  1.2351
   15CHTO  C102 6031   6.256   2.872   0.616 -0.4540 -0.4568  0.4749
   15CHTO  H189 6032   6.248   2.894   0.724 -2.0514  2.5898 -0.2084
   15CHTO   N18 6033   6.399   2.843   0.586  0.6122 -0.2897 -0.0931
   15CHTO  H176 6034   6.441   2.897   0.503  0.7285 -1.5044 -0.8343
   15CHTO  H177 6035   6.449   2.867   0.679  1.5400 -2.1602 -0.0917
   15CHTO  C105 6036   6.175   2.741   0.590  0.0639  0.3703 -0.3677
   15CHTO  H192 6037   6.186   2.716   0.485 -2.4513  1.0061 -0.8323
   15CHTO   O65 6038   6.039   2.756   0.625  0.6989  0.2308  0.0700
   15CHTO  C100 6039   5.966   2.855   0.550  0.5088 -0.7654 -0.0934
   15CHTO  H187 6040   5.942   2.813   0.452  1.9407 -2.5418  0.2951
   15CHTO  C107 6041   5.815   2.852   0.611 -0.9425  0.3897  0.5348
   15CHTO   O70 6042   5.800   2.900   0.746  0.8434 -0.2582  0.5458
   15CHTO  H170 6043   5.771   2.825   0.794 -0.1011 -0.2270  0.0568
   15CHTO   O57 6044   6.235   2.606   0.685  0.0523 -0.4634 -0.3474
   15CHTO   C85 6045   6.155   2.491   0.728  0.1674 -0.9347 -0.5243
   15CHTO  H157 6046   6.063   2.529   0.776  1.9362  3.3135 -0.2901
   15CHTO   C83 6047   6.234   2.420   0.843 -0.0508 -0.6685 -0.5080
   15CHTO  H155 6048   6.260   2.491   0.922 -0.2064  0.5927 -1.5710
   15CHTO   O56 6049   6.363   2.376   0.801  0.5235  0.5914  0.1874
   15CHTO  H135 6050   6.420   2.451   0.806  0.0814  0.9645 -0.3213
   15CHTO   C81 6051   6.154   2.302   0.901 -0.0956 -0.0659  0.3239
   15CHTO  H153 6052   6.062   2.347   0.939  0.7043  0.8896  1.1379
   15CHTO   N14 6053   6.217   2.238   1.019 -0.2160  0.4628 -0.1438
   15CHTO  H141 6054   6.299   2.294   1.059  1.4147 -1.9608  0.0201
   15CHTO  H142 6055   6.260   2.148   0.980  1.0518  0.7150  0.6418
   15CHTO   C79 6056   6.116   2.194   0.785 -0.0284  0.1750 -0.1277
   15CHTO  H151 6057   6.049   2.122   0.833 -0.7638  0.6141 -0.4774
   15CHTO   O52 6058   6.058   2.250   0.663 -0.4123  0.1533 -0.4289
   15CHTO   C86 6059   6.125   2.374   0.616 -1.2447 -0.4083 -0.1089
   15CHTO  H158 6060   6.223   2.341   0.576 -2.3366 -0.4929 -2.8074
   15CHTO   C90 6061   6.043   2.420   0.489  0.4280 -0.2532 -0.5413
   15CHTO   O60 6062   6.064   2.316   0.386  0.2704 -0.6009  0.6776
   15CHTO  H138 6063   6.026   2.344   0.305 -1.4009  1.1959  2.0413
   15CHTO   O50 6064   6.231   2.114   0.749 -0.3165 -0.2997  0.4118
   15CHTO   C73 6065   6.245   1.989   0.675 -0.5060 -0.8104  0.2254
   15CHTO  H145 6066   6.176   1.983   0.590 -2.0399 -0.0216  1.3828
   15CHTO   C74 6067   6.216   1.868   0.759  0.2568 -0.3323  0.8781
   15CHTO  H146 6068   6.110   1.890   0.780 -0.2372 -0.9377 -0.9118
   15CHTO   O54 6069   6.227   1.740   0.690  0.3605  0.0766 -0.0323
   15CHTO  H133 6070   6.310   1.700   0.710 -0.6303 -2.5585 -0.8928
   15CHTO   C75 6071   6.306   1.870   0.887  0.6650 -0.2216  0.7941
   15CHTO  H147 6072   6.290   1.970   0.931  1.7285  0.7216 -0.9179
   15CHTO   N13 6073   6.266   1.765   0.984  0.4392 -0.5138  0.1831
   15CHTO  H139 6074   6.163   1.775   1.015  0.0252 -2.1900 -0.5831
   15CHTO  H140 6075   6.272   1.663   0.947 -0.1493 -0.4719 -0.0298
   15CHTO   C76 6076   6.452   1.859   0.840  0.4618 -0.1842  0.5082
   15CHTO  H148 6077   6.477   1.758   0.811  0.9394 -0.3835  1.5643
   15CHTO   O49 6078   6.486   1.960   0.730  0.0906  0.6318 -0.2241
   15CHTO   C77 6079   6.394   1.978   0.622  0.7870  0.9950 -0.6786
   15CHTO  H149 6080   6.409   1.882   0.573  1.1770 -0.1422  1.5728
   15CHTO   C88 6081   6.442   2.093   0.533 -0.9387 -0.2306  0.6189
   15CHTO   O58 6082   6.464   2.213   0.607 -0.6549 -0.0111  0.1652
   15CHTO  H136 6083   6.401   2.283   0.601  1.5064  2.2102  1.9268
   15CHTO   O51 6084   6.537   1.912   0.956  0.0770 -0.1395 -0.0780
   15CHTO   C78 6085   6.702   1.884   0.948 -0.0565 -0.2208 -0.1690
   15CHTO  H150 6086   6.726   1.858   0.843  0.4939 -0.1344 -0.0671
   15CHTO   C80 6087   6.761   1.784   1.052 -0.5826  0.2764  0.3737
   15CHTO  H152 6088   6.739   1.821   1.154 -2.3626 -4.2557  1.7542
   15CHTO   O55 6089   6.695   1.661   1.027  0.4991 -0.1154  0.0021
   15CHTO  H134 6090   6.678   1.654   0.935  0.5765 -2.1227  0.1057
   15CHTO   C84 6091   6.915   1.771   1.040 -0.3567 -0.5666  0.0667
   15CHTO  H156 6092   6.932   1.743   0.936 -3.4851 -0.6386 -0.4721
   15CHTO   N15 6093   6.979   1.667   1.128 -0.4776  0.1741  0.1809
   15CHTO  H143 6094   6.980   1.574   1.076 -0.2561 -0.8175  1.9370
   15CHTO  H144 6095   7.076   1.703   1.159 -1.1075  1.0332  1.1959
   15CHTO   C87 6096   6.978   1.914   1.057  0.2468 -0.2830 -0.2137
   15CHTO  H159 6097   6.968   1.947   1.161  0.0376  0.1583 -0.3748
   15CHTO   O53 6098   6.904   2.007   0.960 -0.1175  0.1662  0.5781
   15CHTO   C82 6099   6.763   2.025   0.974 -0.2086 -0.5087  0.5502
   15CHTO  H154 6100   6.737   2.061   1.073  0.9268 -0.1479  0.7146
   15CHTO   C89 6101   6.721   2.137   0.871  0.6562  0.0266  0.4774
   15CHTO   O59 6102   6.586   2.182   0.894 -0.4411  0.2347 -0.1213
   15CHTO  H137 6103   6.572   2.253   0.835  0.1409  2.1987  2.0205
   15CHTO   O45 6104   7.139   1.908   1.027  0.4674 -0.4836  0.4291
   15CHTO   C67 6105   7.205   2.035   1.013  0.0648  0.4802 -0.7901
   15CHTO  H124 6106   7.143   2.086   0.940 -0.8436  1.1329  0.4162
   15CHTO   C65 6107   7.217   2.110   1.151 -0.1431  0.0960 -0.6630
   15CHTO  H122 6108   7.201   2.034   1.227  0.0215  0.2628 -0.4609
   15CHTO   O44 6109   7.114   2.204   1.158 -0.8225 -0.5923 -0.0676
   15CHTO  H102 6110   7.101   2.246   1.241 -0.4918 -0.7951  0.0862
   15CHTO   C63 6111   7.370   2.155   1.179 -0.4071 -0.1745  0.6423
   15CHTO  H120 6112   7.434   2.067   1.169 -1.1254 -0.7907  1.3514
   15CHTO   N11 6113   7.408   2.214   1.319  0.0021  0.0169  0.0353
   15CHTO  H108 6114   7.455   2.139   1.380  0.1760  0.0611 -0.0449
   15CHTO  H109 6115   7.450   2.312   1.322 -0.2649  0.1072  1.6878
   15CHTO   C61 6116   7.418   2.234   1.055  0.1741 -0.4101 -0.0260
   15CHTO  H118 6117   7.523   2.262   1.072 -0.3415  1.5651  0.0368
   15CHTO   O40 6118   7.413   2.147   0.928  0.0152 -0.3481 -0.2928
   15CHTO   C68 6119   7.342   2.018   0.945 -0.8458 -0.1878  0.0081
   15CHTO  H125 6120   7.412   1.946   0.991  1.1804  2.4581  1.2079
   15CHTO   C72 6121   7.327   1.979   0.795  0.1295 -0.3150 -0.3041
   15CHTO   O48 6122   7.262   1.855   0.773  0.4131 -0.5045  0.0955
   15CHTO  H105 6123   7.321   1.789   0.804  1.9326  0.6900 -0.1911
   15CHTO   O38 6124   7.340   2.355   1.040  0.0708 -0.0590 -0.6494
   15CHTO   C55 6125   7.382   2.447   0.940 -1.0027  0.1084 -0.0917
   15CHTO  H112 6126   7.433   2.390   0.861 -0.0045  0.6173  0.1844
   15CHTO   C56 6127   7.471   2.564   0.992  0.6899  0.1731 -0.0194
   15CHTO  H113 6128   7.441   2.586   1.095  2.3878 -0.4147  0.6197
   15CHTO   O42 6129   7.602   2.504   0.991 -0.1239  0.0522  0.1760
   15CHTO  H100 6130   7.628   2.455   1.067 -0.9008 -1.0829 -0.2816
   15CHTO   C57 6131   7.468   2.690   0.898 -0.1304  0.5849 -0.3873
   15CHTO  H114 6132   7.533   2.661   0.815 -1.4365  1.8885 -1.8895
   15CHTO   N10 6133   7.530   2.805   0.965 -0.3792  0.0080 -0.0220
   15CHTO  H106 6134   7.447   2.853   1.016 -0.6622 -1.0735  0.5501
   15CHTO  H107 6135   7.600   2.772   1.041 -0.9445 -2.1096 -0.3778
   15CHTO   C58 6136   7.324   2.717   0.851 -0.0498 -0.4318 -0.9086
   15CHTO  H115 6137   7.266   2.736   0.943  1.6724 -1.4328  0.4254
   15CHTO   O37 6138   7.279   2.605   0.778 -0.4999  0.6280  0.0619
   15CHTO   C59 6139   7.250   2.502   0.872 -0.4035  0.5183 -0.7238
   15CHTO  H116 6140   7.189   2.538   0.955  1.1116  1.2464  0.1130
   15CHTO   C70 6141   7.176   2.391   0.790  0.4666 -0.1401  0.1073
   15CHTO   O46 6142   7.076   2.449   0.702  0.7690  0.1307  0.3784
   15CHTO  H103 6143   7.086   2.405   0.620  0.9219  2.1886 -0.7434
   15CHTO   O39 6144   7.320   2.853   0.757  0.0661 -0.0025 -0.1425
   15CHTO   C60 6145   7.211   2.854   0.664  0.0178 -0.1648  0.1664
   15CHTO  H117 6146   7.219   2.776   0.589  1.2503 -1.2289  1.3848
   15CHTO   C62 6147   7.068   2.832   0.733 -0.3629  0.9113  0.1205
   15CHTO  H119 6148   7.055   2.725   0.760 -2.0729  0.7465 -1.2700
   15CHTO   O43 6149   7.049   2.910   0.849 -0.3963 -0.1046  0.0712
   15CHTO  H101 6150   6.999   2.986   0.829 -2.6359 -1.0335  1.8383
   15CHTO   C66 6151   6.955   2.850   0.617 -0.1982  0.3044 -0.4683
   15CHTO  H123 6152   6.984   2.786   0.533 -0.9546  2.4026 -2.3893
   15CHTO   N12 6153   6.823   2.808   0.660  0.5986 -0.4661  0.0921
   15CHTO  H110 6154   6.751   2.889   0.665  2.1129  0.8333  1.3809
   15CHTO  H111 6155   6.824   2.768   0.760 -0.5091  1.0266  0.7163
   15CHTO   C69 6156   6.963   2.995   0.565 -0.2630  0.1115 -0.0110
   15CHTO  H126 6157   6.972   3.059   0.655  1.3931 -0.7500  0.4519
   15CHTO   O41 6158   7.087   3.009   0.495  0.6362  0.0473  0.0252
   15CHTO   C64 6159   7.217   2.997   0.589  0.3699 -0.4720  1.0426
   15CHTO  H121 6160   7.226   3.083   0.658  2.0161 -0.9611  1.4656
   15CHTO   C71 6161   7.349   2.985   0.506 -0.1855 -0.1667 -0.3506
   15CHTO   O47 6162   7.365   3.087   0.408  0.1830  0.0402  0.4177
   15CHTO  H104 6163   7.380   3.170   0.450 -0.0220  0.0320  0.5098
   15CHTO   O34 6164   6.851   3.035   0.492 -0.1893 -0.5192  0.1849
   15CHTO   C49 6165   6.772   3.026   0.354  0.0284  0.2153 -0.3487
   15CHTO   H91 6166   6.754   2.920   0.337 -0.3415  0.3086 -0.5352
   15CHTO   C47 6167   6.860   3.074   0.243 -0.5015 -0.3074  0.0241
   15CHTO   H89 6168   6.798   3.056   0.153 -2.0121  3.6829  0.1326
   15CHTO   O33 6169   6.974   2.990   0.229 -0.0510  0.7705 -0.2422
   15CHTO   H70 6170   7.020   3.014   0.150 -0.6105  2.6718 -0.0100
   15CHTO   C45 6171   6.880   3.231   0.266 -0.1174  0.2806  0.4326
   15CHTO   H87 6172   6.906   3.255   0.370 -0.0980  0.5807  0.3590
   15CHTO    N8 6173   6.976   3.301   0.175 -0.2777 -0.3266  0.1994
   15CHTO   H75 6174   6.979   3.240   0.086 -0.6526 -0.1492  0.0640
   15CHTO   H76 6175   7.070   3.308   0.227 -0.7771  1.4571  0.8918
   15CHTO   C43 6176   6.734   3.298   0.249 -0.2350  0.0429  0.9405
   15CHTO   H85 6177   6.742   3.407   0.257  2.1586 -0.1094  0.8153
   15CHTO   O29 6178   6.648   3.245   0.348  0.8307  0.6802 -0.2705
   15CHTO   C50 6179   6.637   3.103   0.360  0.4828  0.4446  0.8064
   15CHTO   H92 6180   6.583   3.088   0.454 -0.6214 -1.7268 -0.1474
   15CHTO   C54 6181   6.534   3.049   0.256  0.0815 -0.0200  0.1576
   15CHTO   O36 6182   6.404   3.106   0.292 -0.7884  0.3617  0.0746
   15CHTO   H72 6183   6.344   3.075   0.226 -0.5081 -0.7676  0.3374
   15CHTO   O27 6184   6.681   3.278   0.117  0.1610 -0.8300  0.2062
   15CHTO   C37 6185   6.596   3.360   0.026 -0.2579  0.5110  0.1633
   15CHTO   H79 6186   6.551   3.289  -0.046 -2.2613  1.3557  0.5633
   15CHTO   C38 6187   6.486   3.436   0.095  0.4818 -0.7004 -0.6303
   15CHTO   H80 6188   6.530   3.495   0.177 -0.4972  0.2248 -0.7691
   15CHTO   O31 6189   6.397   3.348   0.153 -0.4296  0.2357  0.0935
   15CHTO   H68 6190   6.339   3.403   0.200  0.0658 -0.4166  1.4874
   15CHTO   C39 6191   6.410   3.547   0.009  0.4054  0.3883 -0.5415
   15CHTO   H81 6192   6.351   3.492  -0.065 -1.2209  2.3089 -0.7318
   15CHTO    N7 6193   6.318   3.627   0.096  0.1094 -0.1280 -0.0861
   15CHTO   H73 6194   6.259   3.697   0.038  0.1541  0.6176  0.7411
   15CHTO   H74 6195   6.380   3.670   0.174  2.0317  1.5681 -2.4737
   15CHTO   C40 6196   6.517   3.640  -0.056  0.4695 -0.5464  0.1493
   15CHTO   H82 6197   6.562   3.708   0.016  1.1356 -0.0649 -0.7106
   15CHTO   O26 6198   6.616   3.568  -0.127  0.1216 -0.3689 -0.1300
   15CHTO   C41 6199   6.689   3.461  -0.052 -0.6704  0.7208  0.4018
   15CHTO   H83 6200   6.751   3.509   0.025  1.6782 -0.9831 -0.3950
   15CHTO   C52 6201   6.783   3.378  -0.150 -0.3962 -0.3952  0.6571
   15CHTO   O35 6202   6.920   3.425  -0.163 -0.1495 -0.1166 -0.0001
   15CHTO   H71 6203   6.932   3.518  -0.161 -0.0814 -0.1384  1.4655
   15CHTO   O28 6204   6.462   3.710  -0.170 -0.3218 -0.0581 -0.0872
   15CHTO   C42 6205   6.498   3.847  -0.205  0.2412  0.1516  0.8016
   15CHTO   H84 6206   6.489   3.837  -0.313 -0.2269 -0.5667  0.9047
   15CHTO   C44 6207   6.639   3.903  -0.177  0.3217  0.0412 -0.4673
   15CHTO   H86 6208   6.658   3.910  -0.070 -0.0492  1.5805 -0.4942
   15CHTO   O32 6209   6.728   3.825  -0.243  0.0515  0.1198 -0.0854
   15CHTO   H69 6210   6.811   3.845  -0.203  0.4334 -3.2120  0.9933
   15CHTO   C48 6211   6.643   4.055  -0.228 -0.4404  1.1050 -0.0408
   15CHTO   H90 6212   6.601   4.063  -0.328  0.9517 -0.6026 -0.7769
   15CHTO    N9 6213   6.782   4.121  -0.240  1.0569 -0.3030 -0.1695
   15CHTO   H77 6214   6.764   4.224  -0.267 -1.3147 -1.2205 -2.2277
   15CHTO   H78 6215   6.812   4.115  -0.136 -0.7602 -1.7475  0.3083
   15CHTO   C51 6216   6.548   4.131  -0.131 -0.8007 -0.2908 -0.2326
   15CHTO   H93 6217   6.572   4.095  -0.031  2.2274 -1.0703 -1.1952
   15CHTO   O30 6218   6.415   4.096  -0.174  0.1634 -0.3889 -0.2766
   15CHTO   C46 6219   6.389   3.939  -0.155 -0.1456 -0.5697 -0.7667
   15CHTO   H88 6220   6.375   3.926  -0.048 -0.4706  3.7022 -0.1855
   15CHTO   C53 6221   6.253   3.920  -0.222  0.7094  0.0773 -0.0827
   15CHTO   O72 6222   6.146   4.002  -0.159 -0.5077 -0.0156  0.1620
   15CHTO  H199 6223   6.066   3.957  -0.177  0.0855 -0.9724 -0.0892
   15CHTO   O22 6224   6.549   4.273  -0.135 -0.4310 -0.0295 -0.5681
   15CHTO   C31 6225   6.469   4.358  -0.040 -0.2498  0.3897  0.0859
   15CHTO   H59 6226   6.510   4.461  -0.045  0.5472  0.1559  1.5105
   15CHTO   C29 6227   6.317   4.377  -0.082  0.1428  1.1104 -0.1482
   15CHTO   H57 6228   6.269   4.278  -0.081  0.2728  1.0379 -0.8997
   15CHTO   O21 6229   6.308   4.421  -0.218  0.1726  0.2652 -0.0848
   15CHTO   H37 6230   6.347   4.357  -0.274  0.5137 -1.0842  1.6435
   15CHTO   C27 6231   6.245   4.475   0.019  0.1677 -0.7973  0.1254
   15CHTO   H55 6232   6.292   4.574   0.016 -1.5036  0.0579  1.3198
   15CHTO    N5 6233   6.099   4.492  -0.014  0.3459 -0.2324 -0.0183
   15CHTO   H43 6234   6.053   4.561   0.055 -0.4943 -0.4058 -0.4051
   15CHTO   H44 6235   6.052   4.399  -0.041 -0.8443 -0.1388  1.6430
   15CHTO   C25 6236   6.278   4.429   0.166 -0.3859  0.5684 -0.1483
   15CHTO   H53 6237   6.228   4.332   0.180 -1.6930  1.1939 -0.3763
   15CHTO   O17 6238   6.418   4.409   0.194 -0.2445  0.1248  0.6952
   15CHTO   C32 6239   6.483   4.317   0.107  0.5914  0.0037 -0.1817
   15CHTO   H60 6240   6.431   4.223   0.124  0.4849  0.1559  0.3600
   15CHTO   C36 6241   6.633   4.322   0.148 -0.2755 -0.0306  0.2451
   15CHTO   O25 6242   6.684   4.193   0.175 -0.1568 -0.2585  0.3673
   15CHTO   H40 6243   6.657   4.129   0.112 -2.2063 -0.0751  1.0304
   15CHTO   O15 6244   6.224   4.514   0.274 -1.1074  0.4798  0.0397
   15CHTO   C19 6245   6.262   4.631   0.348  0.6119 -0.6901  0.0166
   15CHTO   H47 6246   6.353   4.668   0.298 -0.1706 -0.4124 -1.2377
   15CHTO   C20 6247   6.143   4.733   0.338 -0.7796 -0.6438 -0.0850
   15CHTO   H48 6248   6.047   4.691   0.372 -1.6139  0.5897 -0.8225
   15CHTO   O19 6249   6.118   4.756   0.190  0.2851 -0.1571  0.1025
   15CHTO   H35 6250   6.092   4.677   0.148  1.3157 -1.5139  1.9587
   15CHTO   C21 6251   6.186   4.873   0.415 -0.0319  0.1254  0.2979
   15CHTO   H49 6252   6.272   4.919   0.367 -0.9731  1.2083 -0.3906
   15CHTO    N4 6253   6.075   4.971   0.411 -0.5718  0.1239  0.4421
   15CHTO   H41 6254   5.986   4.926   0.453 -1.1758  1.5030  0.6698
   15CHTO   H42 6255   6.055   5.019   0.316 -0.1010 -1.1292 -0.2873
   15CHTO   C22 6256   6.236   4.840   0.558  0.1945 -0.3363 -0.3291
   15CHTO   H50 6257   6.157   4.807   0.626  0.8171 -1.2330 -0.0384
   15CHTO   O14 6258   6.333   4.732   0.562  0.2309 -0.0813 -0.1625
   15CHTO   C23 6259   6.293   4.609   0.500 -1.0605  0.2425 -0.4936
   15CHTO   H51 6260   6.206   4.575   0.558 -0.4779 -1.2633 -0.5069
   15CHTO   C34 6261   6.409   4.506   0.514  1.0773  0.0732 -1.0909
   15CHTO   O23 6262   6.421   4.464   0.653 -0.0069 -0.2360  0.3412
   15CHTO   H38 6263   6.479   4.390   0.660  2.6077  1.4255 -2.6240
   15CHTO   O16 6264   6.309   4.956   0.602 -0.4674 -0.1587 -0.0087
   15CHTO   C24 6265   6.302   4.998   0.763 -0.4884  0.0356  0.6499
   15CHTO   H52 6266   6.234   4.927   0.811  0.4534 -2.2298 -1.3133
   15CHTO   C26 6267   6.252   5.149   0.775  0.3625  0.6302 -0.0678
   15CHTO   H54 6268   6.308   5.210   0.701  1.2794  1.7360  1.5015
   15CHTO   O20 6269   6.108   5.150   0.729  0.2535 -0.4304  0.2044
   15CHTO   H36 6270   6.051   5.136   0.802  0.9536 -0.8412  0.6794
   15CHTO   C30 6271   6.275   5.204   0.913 -0.6668  0.0646 -0.5149
   15CHTO   H58 6272   6.203   5.162   0.985  1.1101  0.4844  1.5598
   15CHTO    N6 6273   6.249   5.350   0.917 -0.7839  0.2938 -0.4812
   15CHTO   H45 6274   6.282   5.402   1.005 -1.3295  1.3952 -0.9179
   15CHTO   H46 6275   6.281   5.401   0.827  1.2118  1.5624  0.9297
   15CHTO   C33 6276   6.414   5.170   0.977 -0.4895  0.9558 -0.4080
   15CHTO   H61 6277   6.489   5.221   0.916  2.5678 -0.7450  1.7550
   15CHTO   O18 6278   6.428   5.029   0.966  0.1967  0.0952  0.2492
   15CHTO   C28 6279   6.439   4.980   0.830 -0.1563  0.1207  0.4104
   15CHTO   H56 6280   6.514   5.043   0.783 -0.5013  0.8630  0.8422
   15CHTO   C35 6281   6.480   4.834   0.824  0.1282 -0.0826  0.4429
   15CHTO   O24 6282   6.609   4.821   0.879  0.3253  1.3825 -0.2021
   15CHTO   H39 6283   6.665   4.819   0.804 -2.7294 -2.5929 -2.6658
   15CHTO    O9 6284   6.433   5.213   1.115  0.0140 -0.4728  0.1995
   15CHTO   C13 6285   6.587   5.215   1.183  0.8125  0.1195  0.0009
   15CHTO   H26 6286   6.584   5.312   1.237  1.3336 -0.2043  0.6103
   15CHTO   C11 6287   6.714   5.205   1.083  0.0145 -0.4051  0.4715
   15CHTO   H24 6288   6.705   5.293   1.019  0.7127  0.1784  1.1621
   15CHTO    O8 6289   6.716   5.088   1.005  0.1082  0.1221  0.1742
   15CHTO    H3 6290   6.640   5.095   0.949 -1.4135 -1.5068  1.9612
   15CHTO    C9 6291   6.844   5.237   1.165  0.3999  0.1446  0.3173
   15CHTO   H22 6292   6.816   5.330   1.216 -1.3665 -0.4281  0.4399
   15CHTO    N2 6293   6.970   5.273   1.085 -0.0944  0.0418 -0.3175
   15CHTO   H10 6294   7.055   5.299   1.147  0.3138 -1.1211 -0.3800
   15CHTO   H11 6295   6.988   5.180   1.033  0.3709  0.7293 -1.4130
   15CHTO    C7 6296   6.866   5.111   1.264 -0.1131 -0.1664  0.1915
   15CHTO   H20 6297   6.943   5.150   1.333 -0.3704 -1.2298  1.0986
   15CHTO    O4 6298   6.750   5.080   1.340  0.1591  0.3734  0.0340
   15CHTO   C14 6299   6.609   5.097   1.295 -0.6823 -0.2268  0.0232
   15CHTO   H27 6300   6.555   5.130   1.387  0.6911  1.5484  0.2232
   15CHTO   C18 6301   6.548   4.962   1.256  0.3435 -0.3977 -0.0423
   15CHTO   O13 6302   6.564   4.857   1.349  0.2416 -0.5941  0.5764
   15CHTO    H7 6303   6.492   4.797   1.355  0.6703 -1.2556 -0.6720
   15CHTO    O2 6304   6.912   4.976   1.196  0.0818 -0.0416 -0.3295
   15CHTO    C1 6305   7.017   4.909   1.255 -0.6378  0.3612 -0.2417
   15CHTO   H14 6306   7.007   4.897   1.365 -0.7498 -1.9680 -0.4789
   15CHTO    C2 6307   7.163   4.973   1.219  0.1576  0.3124 -0.2137
   15CHTO   H15 6308   7.174   4.980   1.110 -1.5254 -1.3558 -0.5182
   15CHTO    O6 6309   7.168   5.100   1.282 -0.1981 -0.0884 -0.4178
   15CHTO    H1 6310   7.255   5.134   1.274 -0.4470  0.1490 -2.2194
   15CHTO    C3 6311   7.279   4.872   1.270  0.1777 -0.3169  0.2260
   15CHTO   H16 6312   7.274   4.856   1.379  0.9706  0.6923  0.4228
   15CHTO    N1 6313   7.420   4.935   1.262  0.4105 -0.7795  0.1863
   15CHTO    H8 6314   7.508   4.874   1.276  0.3286 -0.7979  0.6152
   15CHTO    H9 6315   7.421   5.014   1.335 -1.6629  0.1446 -0.7512
   15CHTO    C4 6316   7.254   4.734   1.190  0.8186  0.0845 -0.7639
   15CHTO   H17 6317   7.261   4.762   1.085 -2.1564  2.0791 -0.5060
   15CHTO    O1 6318   7.123   4.681   1.213  0.7681  0.5042  0.7779
   15CHTO    C5 6319   7.008   4.764   1.185 -0.7542  0.7557  0.0176
   15CHTO   H18 6320   7.002   4.776   1.077  0.3327  1.7553  0.0580
   15CHTO   C16 6321   6.884   4.695   1.236 -0.5384  0.4402  0.5579
   15CHTO   O11 6322   6.881   4.660   1.370 -0.2440  0.2802 -0.3214
   15CHTO    H5 6323   6.857   4.571   1.385  0.4880 -0.3750 -2.8274
   15CHTO    O3 6324   7.352   4.633   1.217  0.3984 -0.0249 -0.1466
   15CHTO    C6 6325   7.405   4.554   1.106  0.4490 -0.3775 -0.1802
   15CHTO   H19 6326   7.334   4.558   1.023 -0.4222 -2.1400  0.4364
   15CHTO    C8 6327   7.537   4.610   1.052  0.5381 -0.1089  0.1949
   15CHTO   H21 6328   7.609   4.621   1.132  0.5758 -1.4279  0.3515
   15CHTO    O7 6329   7.501   4.736   1.005 -0.1752 -0.4308  0.3787
   15CHTO    H2 6330   7.530   4.797   1.070  0.5392  0.2429 -0.5447
   15CHTO   C12 6331   7.602   4.511   0.944 -0.0552 -0.1780 -0.1896
   15CHTO   H25 6332   7.543   4.517   0.850 -1.7800  0.1827  0.8825
   15CHTO    N3 6333   7.737   4.559   0.907  0.9531  0.2271  0.0589
   15CHTO   H12 6334   7.802   4.555   0.993 -1.4243  2.6920  2.0822
   15CHTO   H13 6335   7.732   4.661   0.873 -1.6984 -0.2497 -1.1344
   15CHTO   C15 6336   7.596   4.363   1.001  0.1079  0.7233  0.1035
   15CHTO   H28 6337   7.663   4.346   1.085  2.2922 -1.2660 -1.9430
   15CHTO   O10 6338   7.610   4.253   0.900  0.2404 -0.3404 -0.4716
   15CHTO    H4 6339   7.624   4.170   0.944 -2.0275  0.2983  1.5846
   15CHTO    O5 6340   7.465   4.323   1.038 -0.4023  0.1788  0.0259
   15CHTO   C10 6341   7.417   4.408   1.143 -0.5219  0.1003  0.5877
   15CHTO   H23 6342   7.485   4.388   1.226  2.2757  3.4499 -0.7460
   15CHTO   C17 6343   7.275   4.346   1.174 -0.4316 -0.3340 -0.2794
   15CHTO   O12 6344   7.174   4.363   1.084 -0.0629  0.3238 -0.4246
   15CHTO    H6 6345   7.091   4.349   1.125  0.7632 -0.5243  0.9883
   16CHTO  H203 6346   4.998   4.808  -0.083  0.4008  0.4962 -0.9157
   16CHTO   O82 6347   5.042   4.727  -0.100  0.0222  0.2373 -0.6681
   16CHTO  C123 6348   5.083   4.662   0.028 -0.3385 -0.0492 -0.5437
   16CHTO  H227 6349   4.990   4.639   0.083 -0.4934  0.2629 -0.6728
   16CHTO   O77 6350   5.160   4.538  -0.005  0.0462 -0.7963 -0.6494
   16CHTO  C118 6351   5.225   4.470   0.104 -0.2372  0.2406 -0.5717
   16CHTO  H222 6352   5.155   4.427   0.177 -1.2624  1.4213 -0.8365
   16CHTO  C125 6353   5.306   4.353   0.038  0.6918 -0.4177 -0.0199
   16CHTO   O84 6354   5.252   4.282  -0.075  0.3438  0.0277 -0.0799
   16CHTO  H205 6355   5.162   4.287  -0.100  0.9060  0.2828 -2.1797
   16CHTO  C114 6356   5.323   4.570   0.169 -0.1854 -0.1808 -0.1791
   16CHTO  H218 6357   5.388   4.617   0.095 -1.3899  0.8445 -0.5981
   16CHTO  C116 6358   5.239   4.684   0.230  0.0669  0.1674  0.4685
   16CHTO  H220 6359   5.160   4.641   0.296  0.2799  1.8274  1.8553
   16CHTO   O79 6360   5.317   4.773   0.311  0.1134  0.1424  0.1469
   16CHTO  H201 6361   5.255   4.824   0.360  0.7538 -0.3940  1.5421
   16CHTO  C120 6362   5.167   4.768   0.116  0.2963  0.3368  0.5265
   16CHTO  H224 6363   5.254   4.805   0.058 -1.9525  1.5732 -2.1906
   16CHTO   N21 6364   5.098   4.892   0.162  0.3680  0.6003 -0.0087
   16CHTO  H211 6365   4.992   4.874   0.179  0.2254 -0.7882 -2.1314
   16CHTO  H212 6366   5.147   4.940   0.245  1.0809  0.6175 -0.4406
   16CHTO   O75 6367   5.396   4.498   0.267  0.2631 -0.3880  0.1871
   16CHTO  C112 6368   5.554   4.471   0.230  0.6257  0.3047  0.1458
   16CHTO  H216 6369   5.576   4.533   0.142 -0.0055  0.7005  0.2637
   16CHTO   O73 6370   5.565   4.332   0.198  0.5644 -0.5978  0.2939
   16CHTO  C113 6371   5.702   4.297   0.180 -0.1423  0.7651  0.5584
   16CHTO  H217 6372   5.746   4.365   0.104  1.1015  1.6497  2.0490
   16CHTO  C124 6373   5.701   4.151   0.125  0.2004  0.2094  0.1264
   16CHTO   O83 6374   5.651   4.128  -0.003  0.9489 -0.0846  0.3475
   16CHTO  H204 6375   5.666   4.040  -0.033  1.1301  0.4040 -1.0331
   16CHTO  C109 6376   5.782   4.309   0.316  0.0024  0.2117  0.0919
   16CHTO  H213 6377   5.729   4.249   0.392  0.9871  0.6432  1.1359
   16CHTO  C110 6378   5.778   4.460   0.352  0.8081  0.2328 -0.3645
   16CHTO  H214 6379   5.823   4.514   0.269  1.2662  3.4806  1.9121
   16CHTO   O78 6380   5.858   4.480   0.471  0.2345 -0.4540 -0.3004
   16CHTO  H200 6381   5.885   4.567   0.493  0.5003 -0.8308  0.8877
   16CHTO  C111 6382   5.634   4.510   0.362 -0.4131 -0.1632  0.3254
   16CHTO  H215 6383   5.587   4.466   0.451 -0.8003 -0.6348 -0.1125
   16CHTO   N19 6384   5.628   4.659   0.380  0.3970 -0.3745 -0.7856
   16CHTO  H207 6385   5.722   4.703   0.351 -0.2825  0.6155 -1.5034
   16CHTO  H208 6386   5.546   4.699   0.323  1.5518  2.3248 -0.6433
   16CHTO   O74 6387   5.914   4.258   0.295 -0.5780 -0.1440 -0.3455
   16CHTO  C115 6388   5.973   4.151   0.420  0.2499  1.1424  0.1870
   16CHTO  H219 6389   5.923   4.171   0.515 -2.0011  3.9952 -1.5109
   16CHTO   O76 6390   5.941   4.006   0.389  0.1886 -0.1890  0.2266
   16CHTO  C122 6391   6.006   3.978   0.263  0.3863 -0.4390  0.1014
   16CHTO  H226 6392   5.980   4.046   0.182 -2.3769  1.0991  2.1917
   16CHTO  C126 6393   5.944   3.842   0.212 -0.4428  0.5086  0.0874
   16CHTO   O85 6394   6.004   3.807   0.083 -0.3895  0.6498 -0.1339
   16CHTO  H206 6395   5.947   3.753   0.031 -0.0720  0.7225 -0.5613
   16CHTO  C121 6396   6.164   3.982   0.272 -0.2006  0.2267 -0.5261
   16CHTO  H225 6397   6.201   3.878   0.259  0.1144  0.0601  1.5297
   16CHTO   O81 6398   6.229   4.067   0.181  0.2065  0.6438 -0.2989
   16CHTO  H202 6399   6.215   4.032   0.095 -1.5289 -0.1179  0.2607
   16CHTO  C119 6400   6.204   4.037   0.411 -0.1058  0.3275  0.4993
   16CHTO  H223 6401   6.172   3.967   0.488  1.8100  0.2635  1.2711
   16CHTO  C117 6402   6.133   4.169   0.434  0.6101  0.6208  1.0385
   16CHTO  H221 6403   6.161   4.246   0.362  0.0274  1.2393  1.4562
   16CHTO   N20 6404   6.164   4.234   0.564 -0.0314  0.0980  0.2710
   16CHTO  H209 6405   6.271   4.248   0.568  0.2506 -1.3276 -1.4911
   16CHTO  H210 6406   6.122   4.333   0.554 -0.1703 -0.0319 -0.4312
   16CHTO   O80 6407   6.370   4.033   0.429 -0.0981 -0.5581 -0.4356
   16CHTO  C103 6408   6.451   3.886   0.393  0.2059  1.0564  0.4197
   16CHTO  H190 6409   6.390   3.805   0.353 -0.0174  2.0115 -1.2304
   16CHTO  C101 6410   6.583   3.887   0.307  1.0400  0.0796 -0.3573
   16CHTO  H188 6411   6.651   3.964   0.345  1.4344 -0.3989 -0.0825
   16CHTO   O68 6412   6.543   3.929   0.170  0.8331 -0.4851  0.0062
   16CHTO  H168 6413   6.613   3.970   0.124 -1.4064  2.6606 -0.8255
   16CHTO   C99 6414   6.665   3.754   0.318  0.3709  1.2468 -0.1616
   16CHTO  H186 6415   6.602   3.671   0.279  2.6429 -0.2807 -0.6529
   16CHTO   N17 6416   6.788   3.755   0.231 -0.0797 -0.3631 -0.0337
   16CHTO  H174 6417   6.872   3.710   0.280 -0.8579 -2.0313 -0.2064
   16CHTO  H175 6418   6.779   3.708   0.134 -1.8428  2.0070 -1.0644
   16CHTO   C97 6419   6.694   3.722   0.466 -0.6293 -0.3939 -0.1862
   16CHTO  H184 6420   6.777   3.781   0.506  1.3630 -3.2552  0.0959
   16CHTO   O64 6421   6.574   3.731   0.543  0.3040 -0.3225 -0.5702
   16CHTO  C104 6422   6.492   3.848   0.542  0.4986  0.0914  0.0886
   16CHTO  H191 6423   6.540   3.933   0.591 -2.5544  2.6068 -1.1314
   16CHTO  C108 6424   6.368   3.826   0.625  0.5752  0.2836  0.1227
   16CHTO   O71 6425   6.398   3.789   0.763 -0.1078 -0.2415  0.0147
   16CHTO  H171 6426   6.317   3.799   0.809 -0.7562 -3.2878 -0.3247
   16CHTO   O62 6427   6.743   3.587   0.476 -0.3668  0.4654 -0.4105
   16CHTO   C91 6428   6.788   3.535   0.603  0.8261  0.1884  0.0463
   16CHTO  H178 6429   6.763   3.604   0.684  1.0274 -1.5939  1.6605
   16CHTO   C92 6430   6.937   3.496   0.615 -0.3038  0.3541  0.2674
   16CHTO  H179 6431   6.959   3.424   0.535 -0.3515  1.3761 -0.6755
   16CHTO   O66 6432   7.017   3.608   0.592  0.3004  0.4460  0.3283
   16CHTO  H166 6433   6.981   3.652   0.518 -1.2826  1.8907  1.9069
   16CHTO   C93 6434   6.972   3.431   0.755  0.4518  0.3826 -0.3405
   16CHTO  H180 6435   6.969   3.508   0.833 -1.2034 -1.7961  1.7998
   16CHTO   N16 6436   7.112   3.380   0.754  0.4327  0.1357 -0.4106
   16CHTO  H172 6437   7.106   3.285   0.804 -0.0628  0.5391  0.2948
   16CHTO  H173 6438   7.157   3.371   0.656  1.3143 -0.0317  0.0092
   16CHTO   C94 6439   6.866   3.320   0.797  0.3746  0.1217 -0.1151
   16CHTO  H181 6440   6.874   3.233   0.731  2.0044  0.3769 -0.2791
   16CHTO   O61 6441   6.732   3.375   0.783  0.3071 -0.2455  0.5566
   16CHTO   C95 6442   6.706   3.406   0.649 -0.5389 -0.4935  0.6348
   16CHTO  H182 6443   6.742   3.321   0.590  1.4347  0.4573  0.4335
   16CHTO  C106 6444   6.545   3.430   0.636  0.4319 -0.0544 -1.1261
   16CHTO   O69 6445   6.487   3.303   0.641 -0.0298 -0.4953 -0.2402
   16CHTO  H169 6446   6.420   3.292   0.576 -0.7094 -0.4705  0.4416
   16CHTO   O63 6447   6.894   3.279   0.964  0.1000 -0.0735  0.0017
   16CHTO   C96 6448   6.774   3.206   1.035  0.0714  0.4827 -0.4141
   16CHTO  H183 6449   6.828   3.157   1.115  2.9783  1.0111 -1.9816
   16CHTO   C98 6450   6.707   3.103   0.945 -0.0038  0.5858  0.0299
   16CHTO  H185 6451   6.694   3.134   0.841 -0.5418 -0.5648 -0.2608
   16CHTO   O67 6452   6.799   2.989   0.937 -0.4172 -0.0184  0.1420
   16CHTO  H167 6453   6.815   2.946   1.019 -0.3476 -2.5148 -1.1715
   16CHTO  C102 6454   6.577   3.046   1.024 -0.2605  0.2618  1.1011
   16CHTO  H189 6455   6.619   3.014   1.121  0.5414 -1.9657  0.0659
   16CHTO   N18 6456   6.514   2.925   0.963  0.2660 -0.0334 -0.2290
   16CHTO  H176 6457   6.426   2.913   1.025  0.5878 -0.6898  0.0999
   16CHTO  H177 6458   6.483   2.934   0.860  0.3456  1.2005 -0.1637
   16CHTO  C105 6459   6.491   3.171   1.041 -0.5261  0.3782  0.4700
   16CHTO  H192 6460   6.495   3.230   0.949 -0.4427 -3.1056 -1.8544
   16CHTO   O65 6461   6.546   3.253   1.148  0.2117 -0.0939  0.5587
   16CHTO  C100 6462   6.674   3.311   1.103 -1.0907  1.2192 -0.3127
   16CHTO  H187 6463   6.655   3.380   1.019 -1.7146 -0.8237 -1.8786
   16CHTO  C107 6464   6.741   3.373   1.227 -0.2963 -0.1715  0.4986
   16CHTO   O70 6465   6.663   3.482   1.273  0.2468 -0.0915 -0.4625
   16CHTO  H170 6466   6.690   3.503   1.360  0.7086 -3.1604  0.1967
   16CHTO   O57 6467   6.338   3.123   1.079  0.1958 -0.0412 -0.4649
   16CHTO   C85 6468   6.235   3.156   0.992  0.6412  0.7477  0.2159
   16CHTO  H157 6469   6.265   3.142   0.886  1.0201  1.1321  0.2704
   16CHTO   C83 6470   6.213   3.310   1.016  0.3391 -0.3552 -0.4684
   16CHTO  H155 6471   6.305   3.367   1.000 -0.2081  1.3996  2.3266
   16CHTO   O56 6472   6.168   3.332   1.155 -0.2674 -0.4857 -0.4729
   16CHTO  H135 6473   6.196   3.261   1.209 -2.1571 -1.7461 -1.0951
   16CHTO   C81 6474   6.117   3.359   0.911 -0.7631 -0.6427  0.0424
   16CHTO  H153 6475   6.157   3.336   0.812 -1.7492  0.5354 -0.6415
   16CHTO   N14 6476   6.100   3.502   0.913 -0.1126  0.7628  0.3398
   16CHTO  H141 6477   5.997   3.531   0.918  0.0449  1.2464  0.8437
   16CHTO  H142 6478   6.148   3.559   0.836  0.0075  0.0259 -0.1360
   16CHTO   C79 6479   5.982   3.283   0.928 -0.7008 -0.4729  0.4508
   16CHTO  H151 6480   5.924   3.296   0.836 -2.3798 -0.5138  1.4895
   16CHTO   O52 6481   5.988   3.143   0.932 -0.1368 -0.2861 -0.1859
   16CHTO   C86 6482   6.096   3.089   1.018  0.2003  0.5056 -0.0345
   16CHTO  H158 6483   6.067   3.094   1.125 -1.2311  1.1516 -0.4358
   16CHTO   C90 6484   6.113   2.940   0.981  0.5176  0.2869  0.0120
   16CHTO   O60 6485   5.996   2.862   1.012  0.2531 -0.2287  0.0815
   16CHTO  H138 6486   6.008   2.827   1.098  0.1573  0.7281  0.4910
   16CHTO   O50 6487   5.898   3.331   1.031 -0.1979 -0.0083 -0.0036
   16CHTO   C73 6488   5.764   3.288   1.058 -0.5750 -0.7879  0.3751
   16CHTO  H145 6489   5.771   3.180   1.077 -0.0497 -0.8029  0.0948
   16CHTO   C74 6490   5.661   3.322   0.949 -0.4498 -0.0595 -0.1452
   16CHTO  H146 6491   5.689   3.278   0.852  0.5094 -1.2516  0.6533
   16CHTO   O54 6492   5.538   3.253   0.979  0.5367  0.4455 -0.0811
   16CHTO  H133 6493   5.557   3.161   0.977  1.1087  0.5994 -2.3983
   16CHTO   C75 6494   5.650   3.477   0.938  0.3490 -0.5023  0.1669
   16CHTO  H147 6495   5.746   3.519   0.905 -0.6069  0.6038 -1.2424
   16CHTO   N13 6496   5.537   3.523   0.851  0.2474  0.6068  0.8211
   16CHTO  H139 6497   5.471   3.450   0.808 -1.1684  1.4500  1.4996
   16CHTO  H140 6498   5.545   3.614   0.794 -1.2551  0.4385  0.3021
   16CHTO   C76 6499   5.616   3.536   1.087  0.0498 -0.1387 -0.6775
   16CHTO  H148 6500   5.519   3.508   1.128  0.4940  0.7090  1.0008
   16CHTO   O49 6501   5.711   3.497   1.189 -0.2016 -0.1517  0.1693
   16CHTO   C77 6502   5.715   3.354   1.194 -0.6242  0.2074  0.0505
   16CHTO  H149 6503   5.610   3.331   1.210 -0.2296 -1.4680  0.3423
   16CHTO   C88 6504   5.799   3.315   1.314 -0.0949  0.1130  0.5201
   16CHTO   O58 6505   5.929   3.396   1.307 -0.4013  0.5823 -0.3739
   16CHTO  H136 6506   5.991   3.368   1.372 -0.2441  0.4340 -0.5878
   16CHTO   O51 6507   5.630   3.701   1.088 -0.6822 -0.0572 -0.3734
   16CHTO   C78 6508   5.582   3.759   1.227  0.4238 -0.1935 -0.7757
   16CHTO  H150 6509   5.593   3.681   1.305  0.1313  1.4904  0.9993
   16CHTO   C80 6510   5.437   3.809   1.222  0.6878 -0.0611  0.3206
   16CHTO  H152 6511   5.431   3.868   1.128  0.3160  1.9976  1.6085
   16CHTO   O55 6512   5.347   3.700   1.200 -0.1730 -0.1578 -0.4706
   16CHTO  H134 6513   5.281   3.732   1.142  0.6121  1.0407 -0.7036
   16CHTO   C84 6514   5.407   3.895   1.350  0.0674 -0.3263 -0.0466
   16CHTO  H156 6515   5.404   3.820   1.430  1.8281  0.6706  0.9818
   16CHTO   N15 6516   5.267   3.955   1.357  0.5336 -0.6864  0.5400
   16CHTO  H143 6517   5.256   3.995   1.259  3.2765 -1.7463 -0.2312
   16CHTO  H144 6518   5.262   4.037   1.425  0.6628 -0.4589  0.2764
   16CHTO   C87 6519   5.510   4.005   1.378  0.1836  0.0428 -0.0404
   16CHTO  H159 6520   5.520   4.073   1.293 -1.1282  0.8846  0.4658
   16CHTO   O53 6521   5.642   3.935   1.396  0.2927 -0.1079 -0.2138
   16CHTO   C82 6522   5.680   3.872   1.271  0.0779  0.0035  0.0186
   16CHTO  H154 6523   5.697   3.944   1.190 -0.4198  1.3723  1.1057
   16CHTO   C89 6524   5.820   3.820   1.316  0.3745  0.4467  0.4875
   16CHTO   O59 6525   5.907   3.931   1.329 -0.0592 -0.5153  0.0634
   16CHTO  H137 6526   5.947   3.958   1.248 -3.1996 -0.3654 -1.4888
   16CHTO   O45 6527   5.479   4.075   1.517 -0.3071 -0.2159  0.2462
   16CHTO   C67 6528   5.572   4.180   1.558 -0.5509 -0.0937  0.6799
   16CHTO  H124 6529   5.667   4.174   1.505 -0.5636 -0.3165  0.6818
   16CHTO   C65 6530   5.507   4.324   1.538  0.3606 -0.5037  0.1931
   16CHTO  H122 6531   5.399   4.319   1.548  0.4221  1.0192  1.7080
   16CHTO   O44 6532   5.549   4.347   1.405 -0.4717  0.4813  0.1989
   16CHTO  H102 6533   5.493   4.407   1.361 -1.0714 -2.2538 -2.9238
   16CHTO   C63 6534   5.550   4.434   1.650  0.5028  0.5755 -0.0629
   16CHTO  H120 6535   5.486   4.420   1.738  0.5168 -1.3224 -0.3419
   16CHTO   N11 6536   5.534   4.580   1.610  0.3333  0.6318  0.5585
   16CHTO  H108 6537   5.461   4.622   1.676 -0.1532 -1.3581  1.3193
   16CHTO  H109 6538   5.515   4.579   1.505 -0.9362 -2.5501  0.7599
   16CHTO   C61 6539   5.695   4.403   1.704 -0.2091  0.6414  0.6508
   16CHTO  H118 6540   5.722   4.473   1.785  1.0367 -2.3971  2.9765
   16CHTO   O40 6541   5.688   4.268   1.770 -0.7071  0.3137 -0.1967
   16CHTO   C68 6542   5.611   4.156   1.714  0.1761 -0.2005 -0.2560
   16CHTO  H125 6543   5.513   4.150   1.766  0.6268  1.4863  0.8169
   16CHTO   C72 6544   5.676   4.021   1.729 -0.2451  0.3357  0.1564
   16CHTO   O48 6545   5.663   3.972   1.861 -0.7443 -0.3332 -0.0222
   16CHTO  H105 6546   5.573   3.952   1.872 -1.7650  3.1024 -1.4267
   16CHTO   O38 6547   5.792   4.399   1.595 -1.0183  0.0544 -0.3388
   16CHTO   C55 6548   5.928   4.446   1.630  0.0390  0.2196 -0.2503
   16CHTO  H112 6549   5.943   4.437   1.739 -0.4070 -2.0548 -0.3706
   16CHTO   C56 6550   5.939   4.597   1.583  0.2287  0.2425 -0.2516
   16CHTO  H113 6551   5.888   4.609   1.486 -1.0480 -1.8380  0.1216
   16CHTO   O42 6552   5.864   4.678   1.682 -0.1864  0.5346  0.1320
   16CHTO  H100 6553   5.854   4.762   1.641  2.2649  0.3842 -0.8674
   16CHTO   C57 6554   6.093   4.639   1.570  0.3453 -0.7936  0.4676
   16CHTO  H114 6555   6.126   4.657   1.672  1.1717  2.0469 -0.2629
   16CHTO   N10 6556   6.110   4.765   1.492  0.1284  0.2168  0.3842
   16CHTO  H106 6557   6.048   4.776   1.404  1.7881  0.0973 -0.8330
   16CHTO  H107 6558   6.213   4.774   1.461  0.0864 -2.1065 -0.5086
   16CHTO   C58 6559   6.183   4.528   1.523  0.2804  0.2612  0.3203
   16CHTO  H115 6560   6.150   4.506   1.419 -0.2078  2.9434 -0.1087
   16CHTO   O37 6561   6.164   4.409   1.601 -0.3090 -0.2518 -0.2589
   16CHTO   C59 6562   6.038   4.350   1.580 -0.9094  0.1428 -0.4250
   16CHTO  H116 6563   6.027   4.339   1.472 -0.5746 -2.5628 -0.2094
   16CHTO   C70 6564   6.024   4.208   1.644  0.1309  0.3693 -0.8943
   16CHTO   O46 6565   6.091   4.113   1.566 -0.5413 -0.2618  0.3477
   16CHTO  H103 6566   6.182   4.128   1.580 -0.5863 -0.0661  0.4410
   16CHTO   O39 6567   6.343   4.566   1.539  0.1424  0.1199 -0.3777
   16CHTO   C60 6568   6.431   4.476   1.475 -0.5543 -0.3746 -0.6862
   16CHTO  H117 6569   6.393   4.375   1.492 -1.1066 -0.3046 -1.4653
   16CHTO   C62 6570   6.435   4.475   1.319 -0.6650  0.4772  0.7777
   16CHTO  H119 6571   6.334   4.445   1.282 -0.7330  1.2133  0.3591
   16CHTO   O43 6572   6.464   4.608   1.280  0.3586 -0.1594 -0.1274
   16CHTO  H101 6573   6.411   4.672   1.324  0.1902 -0.7022  0.4694
   16CHTO   C66 6574   6.537   4.364   1.265 -0.4697  0.3513  0.4116
   16CHTO  H123 6575   6.507   4.265   1.298 -2.5082  0.8326  0.0499
   16CHTO   N12 6576   6.543   4.353   1.116  0.0772  0.0503  0.2606
   16CHTO  H110 6577   6.441   4.342   1.085 -0.1026  0.6710  0.6110
   16CHTO  H111 6578   6.611   4.280   1.076  0.5149 -0.2931  1.5979
   16CHTO   C69 6579   6.676   4.381   1.327  0.3906  0.0625  0.3014
   16CHTO  H126 6580   6.717   4.479   1.296  0.9595 -0.0738  0.6171
   16CHTO   O41 6581   6.662   4.384   1.487  0.2382 -0.2708  0.0385
   16CHTO   C64 6582   6.572   4.479   1.537 -0.2188 -0.1142 -0.0950
   16CHTO  H121 6583   6.612   4.582   1.525  0.2948 -0.4936 -1.7465
   16CHTO   C71 6584   6.557   4.442   1.683  0.2284  0.2924 -0.3328
   16CHTO   O47 6585   6.513   4.553   1.760 -0.6403  0.3529  0.2666
   16CHTO  H104 6586   6.569   4.628   1.762 -1.6846  1.1426  0.1972
   16CHTO   O34 6587   6.779   4.258   1.287 -0.2291  0.1426  0.2304
   16CHTO   C49 6588   6.837   4.131   1.230  0.6208  0.0994  0.0901
   16CHTO   H91 6589   6.836   4.129   1.121  0.3813  1.2639  0.0665
   16CHTO   C47 6590   6.752   4.008   1.266  0.4510  0.3125  0.3817
   16CHTO   H89 6591   6.798   3.928   1.204 -1.2692  0.7833 -1.5736
   16CHTO   O33 6592   6.619   4.022   1.212 -0.2492 -0.3460  0.1087
   16CHTO   H70 6593   6.573   4.092   1.254 -1.8844  0.6277 -3.1502
   16CHTO   C45 6594   6.763   3.975   1.422 -0.4018  0.2533 -0.1152
   16CHTO   H87 6595   6.741   4.064   1.482  0.8180 -0.5081  1.5103
   16CHTO    N8 6596   6.670   3.868   1.469  0.2803 -0.1960  0.4773
   16CHTO   H75 6597   6.613   3.825   1.388 -0.2680  0.1116  0.7004
   16CHTO   H76 6598   6.716   3.789   1.526  2.0651 -0.8032 -1.7252
   16CHTO   C43 6599   6.919   3.944   1.451 -0.5157  0.0506 -0.0441
   16CHTO   H85 6600   6.926   3.928   1.559  0.6409 -1.9461 -0.3784
   16CHTO   O29 6601   6.997   4.057   1.408 -0.2936 -0.0573  0.3944
   16CHTO   C50 6602   6.988   4.108   1.277  0.3656 -0.3284  0.1829
   16CHTO   H92 6603   7.044   4.203   1.287 -0.4771  0.1206  0.7248
   16CHTO   C54 6604   7.075   4.023   1.179 -0.4455  0.4696  0.5394
   16CHTO   O36 6605   7.199   3.984   1.235 -0.1903 -0.0348 -0.1127
   16CHTO   H72 6606   7.264   4.052   1.239 -1.2228  0.9604 -0.3023
   16CHTO   O27 6607   6.964   3.817   1.408 -0.3171  0.0206 -0.0389
   16CHTO   C37 6608   7.064   3.716   1.436 -0.0086 -0.0032  0.2093
   16CHTO   H79 6609   7.162   3.767   1.442  0.0352 -0.0251 -0.2940
   16CHTO   C38 6610   7.036   3.627   1.565  0.0257  0.1864 -0.3874
   16CHTO   H80 6611   6.941   3.574   1.549 -0.8812  2.2624 -2.3032
   16CHTO   O31 6612   7.016   3.715   1.674 -0.6482  0.0244 -0.2855
   16CHTO   H68 6613   7.091   3.720   1.731  0.1266  0.7897 -1.3450
   16CHTO   C39 6614   7.148   3.520   1.599 -0.5387  0.0131 -0.2823
   16CHTO   H81 6615   7.235   3.581   1.624 -0.4151 -0.4975  0.5485
   16CHTO    N7 6616   7.118   3.429   1.716  0.0576  0.0264  0.0426
   16CHTO   H73 6617   7.048   3.355   1.682  0.3245 -1.2590  2.2017
   16CHTO   H74 6618   7.201   3.373   1.756 -0.1691  0.1874  0.7362
   16CHTO   C40 6619   7.172   3.446   1.468  0.4456 -0.0121  0.0344
   16CHTO   H82 6620   7.094   3.371   1.454 -1.3940  1.3627  2.6579
   16CHTO   O26 6621   7.182   3.533   1.350  0.7285 -0.6564  0.1410
   16CHTO   C41 6622   7.068   3.615   1.322  0.5742  0.6531  0.5250
   16CHTO   H83 6623   6.973   3.560   1.326 -0.0856  1.7566  0.2324
   16CHTO   C52 6624   7.078   3.667   1.186  0.2004 -0.1061 -1.1413
   16CHTO   O35 6625   7.044   3.572   1.091  0.3211 -0.0646 -0.1202
   16CHTO   H71 6626   7.084   3.598   1.010 -0.4834 -0.0726 -0.5209
   16CHTO   O28 6627   7.306   3.380   1.467  0.2223  0.6950 -0.6668
   16CHTO   C42 6628   7.310   3.248   1.395 -0.2047  0.5559 -0.4784
   16CHTO   H84 6629   7.415   3.219   1.397 -0.3162  0.1993  0.6944
   16CHTO   C44 6630   7.266   3.244   1.246 -0.5340 -0.1638  0.2109
   16CHTO   H86 6631   7.161   3.272   1.244 -0.9521 -1.6522  0.7100
   16CHTO   O32 6632   7.339   3.343   1.176 -0.5795  0.5696  0.4784
   16CHTO   H69 6633   7.430   3.345   1.199  0.1921 -1.3237 -2.1651
   16CHTO   C48 6634   7.273   3.097   1.181  0.3280  0.2810  0.6581
   16CHTO   H90 6635   7.378   3.081   1.157  0.5123  2.1785  0.1180
   16CHTO    N9 6636   7.211   3.104   1.046  0.0718  0.2291  0.0298
   16CHTO   H77 6637   7.120   3.046   1.041  0.2815  0.0327 -1.5778
   16CHTO   H78 6638   7.278   3.071   0.968  0.0858  0.5157 -0.0814
   16CHTO   C51 6639   7.204   2.991   1.274 -0.6791 -0.0265  0.5361
   16CHTO   H93 6640   7.097   3.015   1.273 -0.9282 -1.1972 -1.2942
   16CHTO   O30 6641   7.261   2.998   1.410  0.0905  0.5174  0.1905
   16CHTO   C46 6642   7.232   3.129   1.476 -0.1486  1.1985  0.8205
   16CHTO   H88 6643   7.129   3.161   1.460 -0.9972 -1.9642 -0.4928
   16CHTO   C53 6644   7.288   3.122   1.619 -0.6084 -0.7180  0.7279
   16CHTO   O72 6645   7.240   3.009   1.689 -0.1189 -0.1309  0.3560
   16CHTO  H199 6646   7.218   3.031   1.778 -0.6628  3.0914 -0.4943
   16CHTO   O22 6647   7.224   2.851   1.229  0.0094 -0.2982 -0.1400
   16CHTO   C31 6648   7.129   2.741   1.267 -0.3489 -1.0005  0.2372
   16CHTO   H59 6649   7.071   2.779   1.354 -1.0858  0.1809 -0.7521
   16CHTO   C29 6650   7.029   2.715   1.153  0.2811 -0.8719 -0.4106
   16CHTO   H57 6651   7.074   2.685   1.058 -0.6499  0.2877 -1.2359
   16CHTO   O21 6652   6.959   2.836   1.135 -0.1151  0.2854  0.2850
   16CHTO   H37 6653   6.882   2.832   1.081  0.7631  1.0901 -1.0619
   16CHTO   C27 6654   6.924   2.599   1.190 -0.0564 -0.8979 -0.0553
   16CHTO   H55 6655   6.866   2.638   1.274 -1.3206 -1.1940 -0.7822
   16CHTO    N5 6656   6.841   2.563   1.075 -0.2886 -0.0968 -0.4656
   16CHTO   H43 6657   6.755   2.506   1.107 -1.4960  0.7574 -2.1187
   16CHTO   H44 6658   6.897   2.501   1.007  0.5850 -1.4326  1.4020
   16CHTO   C25 6659   7.005   2.472   1.237 -0.0544 -0.3876  0.6617
   16CHTO   H53 6660   7.070   2.435   1.157 -1.6345 -0.0626 -0.8052
   16CHTO   O17 6661   7.097   2.493   1.342 -0.2829  0.2462  0.0331
   16CHTO   C32 6662   7.194   2.605   1.314 -0.0059  0.3455  0.8728
   16CHTO   H60 6663   7.263   2.569   1.238  0.4711 -0.0248  1.4770
   16CHTO   C36 6664   7.277   2.615   1.451  0.0315  0.4075 -0.2015
   16CHTO   O25 6665   7.376   2.711   1.453  0.2683  0.3033  0.1430
   16CHTO   H40 6666   7.367   2.773   1.524 -0.6845 -0.2094  0.4645
   16CHTO   O15 6667   6.896   2.352   1.287  0.1248 -0.2094 -0.4802
   16CHTO   C19 6668   6.797   2.334   1.394 -0.0392 -0.1164 -0.3191
   16CHTO   H47 6669   6.807   2.231   1.431  1.4694 -1.0746 -3.2098
   16CHTO   C20 6670   6.835   2.428   1.512 -0.3616 -0.5796  0.0873
   16CHTO   H48 6671   6.835   2.534   1.483 -2.1092 -0.7019 -0.4316
   16CHTO   O19 6672   6.963   2.381   1.565  0.2569  0.6594  0.0133
   16CHTO   H35 6673   6.975   2.404   1.656  2.7192 -0.1367 -0.0873
   16CHTO   C21 6674   6.722   2.428   1.625 -0.3058  0.2821 -0.0373
   16CHTO   H49 6675   6.726   2.333   1.680 -1.4122  0.9917  1.2890
   16CHTO    N4 6676   6.754   2.523   1.733 -0.4902 -0.3285  0.4540
   16CHTO   H41 6677   6.675   2.520   1.806  0.2729  0.1738  1.3181
   16CHTO   H42 6678   6.762   2.621   1.688 -0.1172 -0.7207 -0.3503
   16CHTO   C22 6679   6.581   2.438   1.564  0.3737  0.5527 -0.5150
   16CHTO   H50 6680   6.566   2.540   1.530  0.4260  1.0405  0.9244
   16CHTO   O14 6681   6.568   2.338   1.464 -0.4465  0.2734  0.7690
   16CHTO   C23 6682   6.656   2.358   1.352  0.4020 -0.7712  0.1822
   16CHTO   H51 6683   6.638   2.461   1.316  0.2715 -0.6903  0.4684
   16CHTO   C34 6684   6.603   2.271   1.236 -0.2450 -0.2471 -0.6065
   16CHTO   O23 6685   6.579   2.137   1.277 -0.5001 -0.3097 -0.2140
   16CHTO   H38 6686   6.564   2.082   1.203 -1.8866 -1.8687  1.1822
   16CHTO   O16 6687   6.483   2.404   1.667  0.3819 -0.2232  0.3797
   16CHTO   C24 6688   6.331   2.483   1.664  0.3819 -0.7599 -0.1883
   16CHTO   H52 6689   6.310   2.527   1.567  0.3152 -0.1601  0.0957
   16CHTO   C26 6690   6.336   2.585   1.782  0.4065 -0.2435 -1.1586
   16CHTO   H54 6691   6.382   2.532   1.867  1.2096  1.6689 -0.3807
   16CHTO   O20 6692   6.426   2.689   1.740 -0.3693  0.2843  0.3730
   16CHTO   H36 6693   6.446   2.741   1.815  0.2419  0.2172  0.2568
   16CHTO   C30 6694   6.194   2.639   1.816 -0.3004 -0.6960  0.0747
   16CHTO   H58 6695   6.161   2.692   1.725  1.3256  0.4476  0.1214
   16CHTO    N6 6696   6.185   2.728   1.934  0.2323 -0.1261  0.3738
   16CHTO   H45 6697   6.247   2.816   1.918  0.9289 -0.5981  0.4596
   16CHTO   H46 6698   6.082   2.756   1.950 -0.3791 -1.4265 -1.1015
   16CHTO   C33 6699   6.092   2.521   1.816 -0.2135 -0.4088 -0.5571
   16CHTO   H61 6700   6.115   2.448   1.894  0.5183 -1.3029 -1.5954
   16CHTO   O18 6701   6.106   2.452   1.685  0.3699 -0.4290 -0.5319
   16CHTO   C28 6702   6.223   2.379   1.683 -0.1424 -0.2843  1.2773
   16CHTO   H56 6703   6.242   2.319   1.772  0.7940 -1.8321  0.0605
   16CHTO   C35 6704   6.222   2.272   1.567  0.0800  0.2716 -0.1813
   16CHTO   O24 6705   6.103   2.195   1.561 -0.3690  0.1073  0.2778
   16CHTO   H39 6706   6.038   2.251   1.523 -0.0040  0.5630  0.3217
   16CHTO    O9 6707   5.957   2.564   1.836  0.2156  0.8217  0.5044
   16CHTO   C13 6708   5.863   2.442   1.896 -0.3387 -0.8183 -0.0515
   16CHTO   H26 6709   5.898   2.430   2.001 -1.4781 -2.3408  0.1649
   16CHTO   C11 6710   5.863   2.308   1.819  0.0909 -0.0838  0.1612
   16CHTO   H24 6711   5.959   2.255   1.834 -0.2018 -1.0432 -1.1548
   16CHTO    O8 6712   5.839   2.341   1.677 -0.1964  0.4628  0.0713
   16CHTO    H3 6713   5.855   2.259   1.635 -2.7467 -0.5992  1.0872
   16CHTO    C9 6714   5.746   2.218   1.866  1.0680 -0.5276 -0.1960
   16CHTO   H22 6715   5.766   2.203   1.973 -1.0300 -1.2716  0.1259
   16CHTO    N2 6716   5.757   2.080   1.824  0.2054 -1.0098  0.7457
   16CHTO   H10 6717   5.788   2.012   1.902 -1.2420  0.2792  2.5056
   16CHTO   H11 6718   5.816   2.075   1.734 -0.4656 -2.6516  0.3852
   16CHTO    C7 6719   5.611   2.286   1.836 -0.0484  0.1314  0.4645
   16CHTO   H20 6720   5.548   2.253   1.921 -1.2108 -2.8165 -1.4476
   16CHTO    O4 6721   5.623   2.431   1.822  0.2550 -0.1448  0.1217
   16CHTO   C14 6722   5.716   2.501   1.903 -0.0547 -0.1040 -0.2756
   16CHTO   H27 6723   5.686   2.486   2.008  0.7964 -1.0849 -0.1612
   16CHTO   C18 6724   5.710   2.657   1.871  0.3735 -0.0618 -0.0762
   16CHTO   O13 6725   5.752   2.732   1.984 -0.1675  0.4731 -0.7274
   16CHTO    H7 6726   5.681   2.761   2.038  0.2769 -0.4558  0.3619
   16CHTO    O2 6727   5.535   2.228   1.682 -0.4116  0.2942  0.5738
   16CHTO    C1 6728   5.391   2.229   1.681  0.2461 -0.3912 -0.1368
   16CHTO   H14 6729   5.356   2.183   1.586 -1.4556  0.3736  0.1016
   16CHTO    C2 6730   5.321   2.377   1.694  0.0235 -0.6939 -0.5263
   16CHTO   H15 6731   5.345   2.415   1.794 -0.7760  1.7271 -1.2212
   16CHTO    O6 6732   5.380   2.447   1.586  0.0289  0.0451  0.0728
   16CHTO    H1 6733   5.474   2.448   1.596  0.1232  1.6135 -0.8019
   16CHTO    C3 6734   5.161   2.377   1.687 -0.3579  0.7371 -0.0405
   16CHTO   H16 6735   5.131   2.348   1.585  0.6560  1.3355 -0.5221
   16CHTO    N1 6736   5.092   2.507   1.719  0.0591  0.0184  0.2384
   16CHTO    H8 6737   5.105   2.548   1.818  0.6488 -2.5253  1.2424
   16CHTO    H9 6738   4.985   2.495   1.713 -0.1483  2.0983 -0.5605
   16CHTO    C4 6739   5.114   2.264   1.787  0.2220  0.5567  0.3941
   16CHTO   H17 6740   5.124   2.302   1.889  2.4085 -0.0561  0.4170
   16CHTO    O1 6741   5.192   2.146   1.786  0.0873 -0.4635 -0.2361
   16CHTO    C5 6742   5.336   2.142   1.790  0.2794  0.2682 -0.3241
   16CHTO   H18 6743   5.358   2.184   1.888 -2.1761 -0.9538  0.7978
   16CHTO   C16 6744   5.382   1.995   1.790 -0.2337 -0.4176  0.1727
   16CHTO   O11 6745   5.330   1.909   1.690  0.0450  0.1554  0.0823
   16CHTO    H5 6746   5.340   1.956   1.609 -0.9736  1.8029  0.8851
   16CHTO    O3 6747   4.972   2.230   1.762  0.4737 -0.0401  0.1977
   16CHTO    C6 6748   4.910   2.108   1.817 -0.3657  0.1071 -0.9454
   16CHTO   H19 6749   4.981   2.035   1.856  0.6411  0.4535 -2.0992
   16CHTO    C8 6750   4.819   2.143   1.940 -0.2462  0.0972  0.1990
   16CHTO   H21 6751   4.762   2.230   1.908  0.9834  0.4559 -1.0842
   16CHTO    O7 6752   4.901   2.185   2.049  0.1195  0.0566 -0.2388
   16CHTO    H2 6753   4.976   2.236   2.027  0.4830 -0.7861 -0.9989
   16CHTO   C12 6754   4.725   2.025   1.980  0.4259  0.0500 -0.5372
   16CHTO   H25 6755   4.797   1.951   2.020 -0.9700 -0.6574  0.6952
   16CHTO    N3 6756   4.627   2.072   2.082 -0.2552 -0.1595 -0.4242
   16CHTO   H12 6757   4.588   2.167   2.048  0.4268  0.8310  1.4594
   16CHTO   H13 6758   4.551   1.997   2.098  1.7924 -2.3042 -0.4838
   16CHTO   C15 6759   4.662   1.959   1.850  0.4052 -0.1821  0.1652
   16CHTO   H28 6760   4.593   2.033   1.809  2.4057  0.3149 -2.4113
   16CHTO   O10 6761   4.626   1.838   1.868 -0.5916  0.0572  0.0123
   16CHTO    H4 6762   4.584   1.829   1.952  1.1609 -2.4149  0.6623
   16CHTO    O5 6763   4.767   1.924   1.760 -0.1348  0.5091 -0.0992
   16CHTO   C10 6764   4.834   2.039   1.710 -0.8006 -0.0571 -0.0911
   16CHTO   H23 6765   4.765   2.107   1.661  1.2475  2.2234  0.0964
   16CHTO   C17 6766   4.934   1.982   1.607  0.1232  0.6855  0.0429
   16CHTO   O12 6767   4.868   1.910   1.501 -0.0809 -0.1169  0.0237
   16CHTO    H6 6768   4.848   1.967   1.429  0.4781  0.9577  0.7130
   17CHTO  H203 6769   4.772   4.981  -0.127 -2.8306  3.1312 -0.8180
   17CHTO   O82 6770   4.818   5.040  -0.071  0.5970 -0.2908  0.1872
   17CHTO  C123 6771   4.726   5.097   0.023  0.0140 -0.5856 -0.1716
   17CHTO  H227 6772   4.654   5.018   0.050 -1.1133  1.1246  2.0004
   17CHTO   O77 6773   4.817   5.128   0.133 -0.1243  0.0241  0.9542
   17CHTO  C118 6774   4.768   5.197   0.249  0.0849  0.1911 -0.3045
   17CHTO  H222 6775   4.700   5.128   0.302  0.3909  0.8529  0.9927
   17CHTO  C125 6776   4.887   5.235   0.348  0.0972  0.3706  0.2018
   17CHTO   O84 6777   4.983   5.316   0.278  0.2400  0.1224  0.0962
   17CHTO  H205 6778   5.061   5.279   0.314  0.2583  0.1595  0.0939
   17CHTO  C114 6779   4.691   5.323   0.206 -0.0453 -0.3307 -0.1604
   17CHTO  H218 6780   4.755   5.393   0.152  0.1813 -0.1794  0.3058
   17CHTO  C116 6781   4.584   5.293   0.095 -0.2229  0.2183 -0.1435
   17CHTO  H220 6782   4.494   5.234   0.124 -0.1759  1.0811  1.7908
   17CHTO   O79 6783   4.533   5.423   0.060  0.3393  0.6704 -0.3785
   17CHTO  H201 6784   4.505   5.472   0.135  1.6357 -0.6671  1.0096
   17CHTO  C120 6785   4.647   5.221  -0.029  0.7019 -0.3807 -0.4698
   17CHTO  H224 6786   4.714   5.291  -0.083  0.4505 -0.2679 -0.6403
   17CHTO   N21 6787   4.542   5.179  -0.124 -0.0747  0.1906 -0.2670
   17CHTO  H211 6788   4.476   5.262  -0.144 -0.2734  0.0543 -0.1868
   17CHTO  H212 6789   4.489   5.094  -0.081  0.8183 -0.2270  0.0157
   17CHTO   O75 6790   4.634   5.376   0.336  0.1734 -0.2031 -0.1750
   17CHTO  C112 6791   4.636   5.538   0.338 -0.1626 -0.0525  0.0737
   17CHTO  H216 6792   4.552   5.573   0.278  0.8728  1.2257 -0.6382
   17CHTO   O73 6793   4.763   5.585   0.291  0.0482  0.2326  0.7377
   17CHTO  C113 6794   4.781   5.728   0.272  1.1018  0.5559  0.6308
   17CHTO  H217 6795   4.707   5.754   0.193  1.0925 -0.7537  0.1962
   17CHTO  C124 6796   4.917   5.757   0.210  0.0021 -0.5631 -0.9325
   17CHTO   O83 6797   4.924   5.883   0.158 -0.3751 -0.6446  0.0831
   17CHTO  H204 6798   4.871   5.884   0.081  0.3547  0.5337 -0.4121
   17CHTO  C109 6799   4.772   5.798   0.409  0.8205 -0.2320  0.0170
   17CHTO  H213 6800   4.867   5.783   0.462  0.6188 -1.6827 -0.0007
   17CHTO  C110 6801   4.651   5.747   0.494  0.2477  0.0097  0.4444
   17CHTO  H214 6802   4.563   5.806   0.467  1.1558  1.6036  0.9334
   17CHTO   O78 6803   4.693   5.785   0.630 -0.1421  0.5307 -0.0396
   17CHTO  H200 6804   4.725   5.708   0.672 -0.2183  0.6071  0.1614
   17CHTO  C111 6805   4.621   5.595   0.488  0.3647 -0.2699  0.7604
   17CHTO  H215 6806   4.695   5.545   0.552  2.9520  2.6227  0.1721
   17CHTO   N19 6807   4.486   5.558   0.545 -0.5087  0.4791  0.0121
   17CHTO  H207 6808   4.480   5.590   0.648 -1.1956  0.4360 -0.0089
   17CHTO  H208 6809   4.400   5.563   0.479 -0.1415 -1.0356 -0.6136
   17CHTO   O74 6810   4.753   5.938   0.384 -0.5646 -0.5121  0.0474
   17CHTO  C115 6811   4.824   6.031   0.481  0.0040 -0.7761  0.5313
   17CHTO  H219 6812   4.765   6.046   0.571  1.5132 -1.1785  1.6002
   17CHTO   O76 6813   4.956   5.976   0.535 -0.3132 -0.2093  0.2422
   17CHTO  C122 6814   5.034   6.066   0.622  0.2316  0.0098  0.3213
   17CHTO  H226 6815   5.129   6.020   0.648  1.1415  1.1926 -0.8543
   17CHTO  C126 6816   4.956   6.083   0.756  0.0585 -0.3103 -0.6906
   17CHTO   O85 6817   4.995   5.980   0.850  0.0019 -0.5606  0.2937
   17CHTO  H206 6818   5.085   5.999   0.866 -0.1203 -0.8292  1.3240
   17CHTO  C121 6819   5.065   6.200   0.549 -0.7157  0.2884 -0.4173
   17CHTO  H225 6820   5.115   6.268   0.621 -0.8951 -0.6796  0.6310
   17CHTO   O81 6821   5.169   6.172   0.451  0.1948  0.0576 -0.6233
   17CHTO  H202 6822   5.213   6.251   0.426  1.7664 -1.0767 -1.4921
   17CHTO  C119 6823   4.936   6.266   0.490 -0.8302 -0.4835  0.1826
   17CHTO  H223 6824   4.876   6.300   0.574  1.0161  1.4125  0.7480
   17CHTO  C117 6825   4.843   6.176   0.404  0.2031  0.6198  0.0424
   17CHTO  H221 6826   4.878   6.140   0.308 -0.0970  0.8985 -0.1704
   17CHTO   N20 6827   4.711   6.245   0.374  0.2492 -0.6442  0.0786
   17CHTO  H209 6828   4.648   6.194   0.303 -1.6855 -1.1519  2.1056
   17CHTO  H210 6829   4.727   6.348   0.346 -0.0690 -0.7669 -0.5672
   17CHTO   O80 6830   4.974   6.425   0.405 -0.1447  0.5203  0.0920
   17CHTO  C103 6831   5.037   6.541   0.482  0.2180 -0.2201  0.0336
   17CHTO  H190 6832   5.035   6.533   0.590  0.6242 -0.6566  0.0074
   17CHTO  C101 6833   5.188   6.565   0.441 -0.6288 -0.9381  0.5209
   17CHTO  H188 6834   5.205   6.563   0.334  1.5777  0.5311  0.7995
   17CHTO   O68 6835   5.281   6.469   0.498 -0.1100  0.0711  0.1726
   17CHTO  H168 6836   5.240   6.441   0.579 -1.2095  0.8725 -0.0858
   17CHTO   C99 6837   5.228   6.714   0.490  0.3073  0.2187 -0.1188
   17CHTO  H186 6838   5.228   6.737   0.599  0.5364 -1.8030  0.3148
   17CHTO   N17 6839   5.366   6.758   0.442 -0.0974  0.8436  0.0444
   17CHTO  H174 6840   5.362   6.752   0.334 -0.3887  3.0748 -0.1029
   17CHTO  H175 6841   5.385   6.860   0.472  2.4188  0.1849  0.7952
   17CHTO   C97 6842   5.122   6.811   0.431  0.1905  0.0794  0.2688
   17CHTO  H184 6843   5.120   6.799   0.322 -0.1486 -0.1330  0.2987
   17CHTO   O64 6844   4.992   6.785   0.494  0.7702 -0.3708  0.8652
   17CHTO  C104 6845   4.935   6.661   0.436  0.3528  0.0407  0.3507
   17CHTO  H191 6846   4.934   6.668   0.327  1.6426 -0.0312  0.3310
   17CHTO  C108 6847   4.790   6.648   0.476  0.2748 -0.5851  0.2719
   17CHTO   O71 6848   4.769   6.636   0.620 -0.5421  0.5016 -0.5121
   17CHTO  H171 6849   4.677   6.641   0.638 -0.8713  0.3210 -2.1314
   17CHTO   O62 6850   5.123   6.949   0.474  0.0872  0.2465 -0.2998
   17CHTO   C91 6851   5.072   7.052   0.378  0.4585  0.2893 -0.3594
   17CHTO  H178 6852   5.028   6.992   0.298  0.0205 -0.9516  0.7825
   17CHTO   C92 6853   5.175   7.150   0.308  0.2634 -0.3995 -0.1512
   17CHTO  H179 6854   5.254   7.086   0.266 -0.6219 -1.2568 -0.5155
   17CHTO   O66 6855   5.114   7.221   0.200  0.5161  0.2048 -0.3771
   17CHTO  H166 6856   5.127   7.177   0.118  0.7490 -0.0923 -0.1827
   17CHTO   C93 6857   5.227   7.257   0.417 -0.3955  0.5259  0.3484
   17CHTO  H180 6858   5.286   7.328   0.357  1.8177 -2.4103 -1.1058
   17CHTO   N16 6859   5.328   7.198   0.508 -0.4176 -0.3309 -0.2807
   17CHTO  H172 6860   5.275   7.198   0.602  1.7179 -0.9490  0.9535
   17CHTO  H173 6861   5.353   7.096   0.484 -1.0127 -0.7496  0.8288
   17CHTO   C94 6862   5.107   7.330   0.493  0.3085 -0.0291  0.2478
   17CHTO  H181 6863   5.099   7.307   0.599 -2.7288 -2.4289 -0.4123
   17CHTO   O61 6864   4.976   7.286   0.447 -0.1700  0.0836  0.3271
   17CHTO   C95 6865   4.961   7.143   0.448 -1.6480 -0.2471 -0.3031
   17CHTO  H182 6866   4.956   7.113   0.553  0.5836  3.3229  0.9194
   17CHTO  C106 6867   4.809   7.104   0.390 -0.1674  0.0953  0.0688
   17CHTO   O69 6868   4.788   6.970   0.413  0.6643  0.4144 -0.6672
   17CHTO  H169 6869   4.804   6.919   0.337  1.2955 -1.0124  0.4014
   17CHTO   O63 6870   5.119   7.489   0.461  0.5422 -0.5247 -0.2228
   17CHTO   C96 6871   5.019   7.589   0.529 -0.4240 -0.1084 -0.0050
   17CHTO  H183 6872   4.961   7.539   0.607  0.2796  1.1725  1.3822
   17CHTO   C98 6873   4.921   7.659   0.431  0.2890 -0.5914  0.2501
   17CHTO  H185 6874   4.980   7.704   0.350 -0.7791 -1.4079 -0.9910
   17CHTO   O67 6875   4.846   7.555   0.370  0.7270  0.7023 -0.1227
   17CHTO  H167 6876   4.759   7.576   0.344  1.0776  1.6224 -0.5771
   17CHTO  C102 6877   4.838   7.779   0.509  0.7630  0.3399 -0.6345
   17CHTO  H189 6878   4.766   7.723   0.570  1.3797 -4.2836 -3.8505
   17CHTO   N18 6879   4.752   7.855   0.416 -0.0928 -0.7441  0.0130
   17CHTO  H176 6880   4.718   7.947   0.463 -0.1827  0.3348 -2.1208
   17CHTO  H177 6881   4.664   7.799   0.389 -0.3678  1.0319 -3.0691
   17CHTO  C105 6882   4.928   7.864   0.600 -0.7054  0.1642 -0.0243
   17CHTO  H192 6883   4.973   7.946   0.544 -0.6183  1.4252  1.8655
   17CHTO   O65 6884   5.025   7.789   0.679  0.4616  0.0804 -0.2688
   17CHTO  C100 6885   5.107   7.696   0.609 -0.0797 -0.1383 -0.2477
   17CHTO  H187 6886   5.167   7.760   0.543  0.3302 -0.8938 -0.6106
   17CHTO  C107 6887   5.208   7.631   0.703 -0.1206 -0.0837  0.1629
   17CHTO   O70 6888   5.144   7.582   0.824  0.1798  0.4053 -0.0178
   17CHTO  H170 6889   5.186   7.503   0.852 -0.6936 -0.0705 -0.0541
   17CHTO   O57 6890   4.818   7.935   0.701 -0.8544  0.2377 -0.0258
   17CHTO   C85 6891   4.841   8.072   0.741  0.4117  0.2664 -0.9463
   17CHTO  H157 6892   4.871   8.116   0.643 -0.4078 -0.4509 -1.5263
   17CHTO   C83 6893   4.958   8.069   0.845 -0.4327 -0.1156  0.0932
   17CHTO  H155 6894   5.036   8.032   0.779 -0.1660  0.1010  0.2845
   17CHTO   O56 6895   4.932   7.991   0.964 -0.5882  0.1999 -0.4194
   17CHTO  H135 6896   4.946   7.900   0.946 -1.4317 -0.1458  0.6445
   17CHTO   C81 6897   4.992   8.219   0.875  0.1373 -0.0303 -0.1393
   17CHTO  H153 6898   5.008   8.266   0.778 -0.4070  1.6043  0.5443
   17CHTO   N14 6899   5.118   8.230   0.944  0.2158  0.1825 -0.3951
   17CHTO  H141 6900   5.177   8.311   0.907  1.4478 -0.1535  0.8059
   17CHTO  H142 6901   5.102   8.243   1.049  0.6149 -0.4899 -0.2488
   17CHTO   C79 6902   4.868   8.288   0.948 -0.3665  0.4001  0.1904
   17CHTO  H151 6903   4.895   8.392   0.960  0.8082  0.3467 -1.9226
   17CHTO   O52 6904   4.746   8.280   0.862  0.2832  0.5917 -0.0787
   17CHTO   C86 6905   4.715   8.142   0.809 -0.1193 -0.2941  0.0895
   17CHTO  H158 6906   4.679   8.086   0.898 -2.6286 -0.0556 -0.7266
   17CHTO   C90 6907   4.594   8.133   0.708  0.0137  0.6141  0.3984
   17CHTO   O60 6908   4.464   8.153   0.758  0.3202  0.4389  0.1478
   17CHTO  H138 6909   4.437   8.070   0.793  1.9916 -0.1299  0.1292
   17CHTO   O50 6910   4.838   8.227   1.068 -0.1731  0.5468 -0.3300
   17CHTO   C73 6911   4.790   8.228   1.207  0.1316 -0.9321  0.2210
   17CHTO  H145 6912   4.755   8.327   1.240 -0.0938 -0.6237 -0.9105
   17CHTO   C74 6913   4.906   8.186   1.310 -0.4486  0.0110 -0.1460
   17CHTO  H146 6914   4.981   8.265   1.294 -1.1278  0.3444 -1.7286
   17CHTO   O54 6915   4.854   8.189   1.445  0.3004 -0.3651  0.3332
   17CHTO  H133 6916   4.778   8.134   1.444 -0.6322  0.8239 -3.7322
   17CHTO   C75 6917   4.957   8.038   1.267  0.9710  0.3115  0.0882
   17CHTO  H147 6918   4.997   8.044   1.165  0.3797 -0.1338 -0.1720
   17CHTO   N13 6919   5.076   7.993   1.352 -0.1720  0.4657 -0.8023
   17CHTO  H139 6920   5.166   7.981   1.293  1.6709 -0.6134  2.1412
   17CHTO  H140 6921   5.049   7.908   1.412 -1.0100  0.3971 -1.2814
   17CHTO   C76 6922   4.834   7.937   1.273 -0.8877 -0.5944 -0.2419
   17CHTO  H148 6923   4.797   7.929   1.375  0.4056 -0.1568  0.2670
   17CHTO   O49 6924   4.721   7.987   1.193  0.1184  0.1975 -0.0278
   17CHTO   C77 6925   4.673   8.124   1.218 -0.2277 -0.2144  0.6193
   17CHTO  H149 6926   4.628   8.132   1.317 -0.7437 -1.1041  0.4530
   17CHTO   C88 6927   4.549   8.139   1.128  0.6694  0.5084 -0.6157
   17CHTO   O58 6928   4.506   8.291   1.122 -0.4245 -0.6140 -0.5347
   17CHTO  H136 6929   4.531   8.328   1.040 -0.8601  1.0926  0.0789
   17CHTO   O51 6930   4.874   7.801   1.202 -0.5718  0.2869  0.6604
   17CHTO   C78 6931   4.789   7.689   1.218  0.2119  0.3854  0.5215
   17CHTO  H150 6932   4.686   7.724   1.239 -0.8569 -2.3414 -0.0052
   17CHTO   C80 6933   4.831   7.596   1.334  0.0619 -0.1515  0.4477
   17CHTO  H152 6934   4.939   7.573   1.326 -0.1081 -1.0283  0.6156
   17CHTO   O55 6935   4.809   7.672   1.451  0.5312 -0.2337  0.1056
   17CHTO  H134 6936   4.889   7.712   1.476  0.4249  1.6659 -2.3734
   17CHTO   C84 6937   4.742   7.464   1.333  0.7219 -0.4845 -0.5136
   17CHTO  H156 6938   4.637   7.491   1.344  1.3103  1.4301  0.7759
   17CHTO   N15 6939   4.782   7.371   1.442 -0.1666 -0.2166  0.4641
   17CHTO  H143 6940   4.851   7.423   1.505  2.7632 -0.4013 -2.4346
   17CHTO  H144 6941   4.695   7.348   1.500  0.0477 -2.6062 -0.0902
   17CHTO   C87 6942   4.757   7.393   1.196  0.2346 -0.6604  0.1810
   17CHTO  H159 6943   4.865   7.377   1.191  0.8315  2.9950 -0.4304
   17CHTO   O53 6944   4.708   7.499   1.088 -0.2657  0.2753 -0.4069
   17CHTO   C82 6945   4.797   7.610   1.086  0.0201 -0.6098  0.1149
   17CHTO  H154 6946   4.897   7.571   1.064  0.1779  0.5704 -1.4013
   17CHTO   C89 6947   4.749   7.697   0.963 -0.1520 -0.6536  0.1023
   17CHTO   O59 6948   4.795   7.638   0.839 -0.1663 -0.2090 -0.3652
   17CHTO  H137 6949   4.882   7.658   0.812 -0.3823 -0.9318 -1.6404
   17CHTO   O45 6950   4.673   7.257   1.175  0.1407 -0.1054 -0.2359
   17CHTO   C67 6951   4.528   7.250   1.173  0.6111  0.8088 -0.0933
   17CHTO  H124 6952   4.486   7.289   1.266  0.7559  0.5869  0.0681
   17CHTO   C65 6953   4.469   7.325   1.052  0.0852 -0.3324  1.2138
   17CHTO  H122 6954   4.553   7.354   0.990 -0.6910 -0.4716  0.0870
   17CHTO   O44 6955   4.392   7.435   1.109 -0.5686  0.2799 -0.0166
   17CHTO  H102 6956   4.379   7.497   1.040 -0.2390 -0.3956 -0.6885
   17CHTO   C63 6957   4.380   7.229   0.957 -0.4311 -0.2875 -0.1836
   17CHTO  H120 6958   4.444   7.161   0.901 -0.5757  0.1862 -0.9379
   17CHTO   N11 6959   4.307   7.294   0.841 -0.2158 -0.2268  0.0466
   17CHTO  H108 6960   4.213   7.250   0.816  0.4314 -0.6509 -1.6603
   17CHTO  H109 6961   4.284   7.396   0.866 -0.8343 -0.1242 -0.8965
   17CHTO   C61 6962   4.284   7.140   1.054 -0.2134  0.5990 -0.2633
   17CHTO  H118 6963   4.238   7.062   0.993 -0.1443  0.1089  0.3031
   17CHTO   O40 6964   4.349   7.078   1.170  0.1504  0.2015 -0.2940
   17CHTO   C68 6965   4.487   7.096   1.172  0.7935 -0.5290 -0.6152
   17CHTO  H125 6966   4.538   7.043   1.090  0.7442 -0.4437 -0.7015
   17CHTO   C72 6967   4.540   7.031   1.307  0.1930 -0.8332  0.1596
   17CHTO   O48 6968   4.513   6.890   1.333  0.0928 -0.3379  0.4572
   17CHTO  H105 6969   4.423   6.871   1.318  0.3788 -0.1574 -1.6192
   17CHTO   O38 6970   4.191   7.223   1.114 -0.1188 -0.0147 -0.2208
   17CHTO   C55 6971   4.090   7.179   1.205  0.4254 -0.2276  0.0068
   17CHTO  H112 6972   4.138   7.127   1.289  0.4067  0.7715  0.6444
   17CHTO   C56 6973   3.979   7.087   1.141 -0.1974  0.3533 -0.9276
   17CHTO  H113 6974   3.941   7.148   1.058 -0.0935 -0.0585 -1.2778
   17CHTO   O42 6975   4.033   6.962   1.078  0.0663 -0.2780  0.0920
   17CHTO  H100 6976   4.029   6.986   0.988  0.3087 -0.8166 -0.0606
   17CHTO   C57 6977   3.865   7.054   1.245 -0.2011 -0.0991 -0.1909
   17CHTO  H114 6978   3.906   6.992   1.325 -2.4201  0.0110  1.0927
   17CHTO   N10 6979   3.756   6.981   1.177 -0.2834 -0.3670 -0.3642
   17CHTO  H106 6980   3.714   6.910   1.247 -2.3429 -0.2689 -1.4570
   17CHTO  H107 6981   3.676   7.048   1.147 -1.7394 -0.2596  3.4644
   17CHTO   C58 6982   3.814   7.176   1.314  0.9045  0.4697 -0.0965
   17CHTO  H115 6983   3.750   7.234   1.245 -1.4109  0.9794  2.4026
   17CHTO   O37 6984   3.921   7.257   1.362  0.6499 -0.2151  0.4049
   17CHTO   C59 6985   4.011   7.308   1.263  0.2140  0.2555  0.7021
   17CHTO  H116 6986   3.965   7.363   1.181 -1.0223  0.4257  1.5009
   17CHTO   C70 6987   4.126   7.403   1.312 -0.2426 -0.0484 -0.2895
   17CHTO   O46 6988   4.075   7.531   1.358  0.0283 -0.2828 -0.1733
   17CHTO  H103 6989   4.154   7.566   1.395 -0.2984  0.3085 -0.0271
   17CHTO   O39 6990   3.705   7.130   1.432 -0.2663 -0.7549  0.1742
   17CHTO   C60 6991   3.608   7.229   1.467  0.5528 -0.5144 -0.4092
   17CHTO  H117 6992   3.640   7.333   1.456  2.7397 -1.1412 -0.1175
   17CHTO   C62 6993   3.477   7.219   1.381 -0.5272  0.3949  0.2707
   17CHTO  H119 6994   3.512   7.220   1.276 -0.3831  0.8453  0.3259
   17CHTO   O43 6995   3.416   7.085   1.385 -0.2625 -0.4261 -0.6201
   17CHTO  H101 6996   3.410   7.052   1.297 -1.6694 -0.7040 -0.4425
   17CHTO   C66 6997   3.381   7.343   1.412 -0.5408  0.9646  0.1137
   17CHTO  H123 6998   3.435   7.436   1.395  2.3516 -0.6371  0.2731
   17CHTO   N12 6999   3.261   7.357   1.321  0.2864  0.2824  0.1600
   17CHTO  H110 7000   3.274   7.295   1.233  0.5690 -0.8066  0.9476
   17CHTO  H111 7001   3.228   7.458   1.305 -3.7637 -0.6632  1.8366
   17CHTO   C69 7002   3.336   7.337   1.562 -1.0807 -0.3124  0.2187
   17CHTO  H126 7003   3.273   7.246   1.566 -1.1491 -0.3720 -1.6966
   17CHTO   O41 7004   3.449   7.315   1.648 -0.4261  0.1156 -0.0598
   17CHTO   C64 7005   3.566   7.218   1.616  0.1130  0.5841 -0.1290
   17CHTO  H121 7006   3.528   7.117   1.642  1.2716 -0.5664 -2.7222
   17CHTO   C71 7007   3.693   7.232   1.708 -0.1110 -0.0508 -0.2152
   17CHTO   O47 7008   3.734   7.366   1.710 -0.0283  0.8921  0.7884
   17CHTO  H104 7009   3.791   7.377   1.784 -0.2314  1.9287  0.7945
   17CHTO   O34 7010   3.262   7.467   1.607 -0.0085 -0.7882  0.0216
   17CHTO   C49 7011   3.182   7.540   1.698 -0.0079  0.5543  0.0761
   17CHTO   H91 7012   3.251   7.615   1.737  1.3270 -0.9249  0.5967
   17CHTO   C47 7013   3.125   7.444   1.801  0.6856 -0.3300 -0.6691
   17CHTO   H89 7014   3.089   7.510   1.882 -0.7199  0.0101 -1.5521
   17CHTO   O33 7015   3.220   7.352   1.856  0.0234 -0.0139  0.0145
   17CHTO   H70 7016   3.261   7.303   1.788 -0.6568 -0.2048 -0.2570
   17CHTO   C45 7017   3.006   7.347   1.730 -0.5419  0.8551 -0.2867
   17CHTO   H87 7018   3.047   7.247   1.710 -0.4903  0.4138  1.8244
   17CHTO    N8 7019   2.899   7.329   1.823 -0.0237 -0.7781  0.8618
   17CHTO   H75 7020   2.822   7.403   1.810  1.2700  0.3846 -0.4427
   17CHTO   H76 7021   2.853   7.232   1.816 -1.0252 -0.2572  0.0690
   17CHTO   C43 7022   2.963   7.405   1.589 -0.0589 -0.2186  0.5725
   17CHTO   H85 7023   3.044   7.385   1.518 -0.8427 -0.0093 -0.3977
   17CHTO   O29 7024   2.943   7.545   1.610 -0.0846  0.2118 -0.5271
   17CHTO   C50 7025   3.064   7.615   1.630  0.3327 -0.2865 -0.6726
   17CHTO   H92 7026   3.092   7.631   1.525  1.7486 -1.1656 -0.4440
   17CHTO   C54 7027   3.044   7.757   1.682  0.0699 -0.2807 -0.5948
   17CHTO   O36 7028   2.995   7.759   1.818  0.1961 -0.1140  0.4095
   17CHTO   H72 7029   3.073   7.764   1.871  0.1202  1.8761  0.3590
   17CHTO   O27 7030   2.851   7.346   1.525  0.3881  0.5748 -0.2151
   17CHTO   C37 7031   2.800   7.278   1.414  0.6322 -0.1436  0.9484
   17CHTO   H79 7032   2.691   7.270   1.426  0.6664 -1.6040  0.3916
   17CHTO   C38 7033   2.825   7.359   1.279  0.0769 -0.2895 -0.8630
   17CHTO   H80 7034   2.933   7.380   1.274 -0.0228  0.6688  0.5828
   17CHTO   O31 7035   2.756   7.480   1.289  0.1617  0.3982  0.4299
   17CHTO   H68 7036   2.674   7.469   1.335  0.4058  1.1760  1.0544
   17CHTO   C39 7037   2.781   7.287   1.155  0.2240 -0.0900 -0.6068
   17CHTO   H81 7038   2.673   7.272   1.160  0.2172 -0.0465 -0.6346
   17CHTO    N7 7039   2.814   7.349   1.026  0.1149  0.1757  0.9073
   17CHTO   H73 7040   2.796   7.276   0.948  3.2304 -1.6287  1.8165
   17CHTO   H74 7041   2.909   7.399   1.023  0.7133 -0.9930 -0.0376
   17CHTO   C40 7042   2.848   7.137   1.151 -0.4149  0.3429 -0.5776
   17CHTO   H82 7043   2.957   7.141   1.148 -0.2661 -1.0408  1.6366
   17CHTO   O26 7044   2.811   7.071   1.272 -0.5661 -0.2366 -0.3338
   17CHTO   C41 7045   2.867   7.137   1.399  0.0067  0.3959  0.8538
   17CHTO   H83 7046   2.977   7.141   1.392  0.2726 -1.5931  3.0169
   17CHTO   C52 7047   2.838   7.059   1.531 -0.4310 -0.0816 -0.2522
   17CHTO   O35 7048   2.702   7.032   1.544 -0.3359 -0.0105 -0.2625
   17CHTO   H71 7049   2.660   7.116   1.540 -3.0616 -1.2511  0.9402
   17CHTO   O28 7050   2.784   7.045   1.060 -0.4085  0.1371 -0.5507
   17CHTO   C42 7051   2.847   6.917   1.018  0.1950 -0.7176  0.3098
   17CHTO   H84 7052   2.757   6.868   0.979  0.0615 -1.3193  1.3407
   17CHTO   C44 7053   2.898   6.824   1.129  0.8453  0.3827  0.4976
   17CHTO   H86 7054   2.970   6.880   1.188  1.4345 -1.0266  1.1384
   17CHTO   O32 7055   2.795   6.794   1.223  0.1835 -0.4748  0.3469
   17CHTO   H69 7056   2.726   6.752   1.175 -0.2033  0.0906  0.3973
   17CHTO   C48 7057   2.967   6.687   1.074 -0.5838  0.4745 -0.6809
   17CHTO   H90 7058   2.884   6.624   1.041  1.2116 -3.4563  1.9795
   17CHTO    N9 7059   3.035   6.608   1.181 -0.0811 -0.2574 -0.1348
   17CHTO   H77 7060   3.122   6.660   1.219 -0.7682 -0.1481  1.3100
   17CHTO   H78 7061   2.961   6.593   1.258 -1.3064 -0.7753 -1.3926
   17CHTO   C51 7062   3.067   6.726   0.960 -0.0029 -0.0613 -0.1478
   17CHTO   H93 7063   3.139   6.794   1.007 -0.6863 -0.5809  1.6972
   17CHTO   O30 7064   2.992   6.792   0.855  0.1940 -0.1917  0.2619
   17CHTO   C46 7065   2.949   6.928   0.894  0.5014 -0.9895 -0.4848
   17CHTO   H88 7066   3.029   6.992   0.931  0.0661 -0.4445 -0.4694
   17CHTO   C53 7067   2.887   6.985   0.760 -0.4904  0.0178  0.5777
   17CHTO   O72 7068   2.908   7.130   0.756  0.4428  0.1422 -0.1805
   17CHTO  H199 7069   2.844   7.179   0.709 -0.0636 -0.8773 -0.5638
   17CHTO   O22 7070   3.128   6.614   0.904  0.3865 -0.1047  0.1881
   17CHTO   C31 7071   3.280   6.603   0.909  0.0904  0.1369 -0.3028
   17CHTO   H59 7072   3.309   6.618   1.015 -0.3810  2.3321 -0.4536
   17CHTO   C29 7073   3.321   6.460   0.866 -0.1813  0.0310  0.1459
   17CHTO   H57 7074   3.266   6.447   0.772  0.3418  0.8689 -0.2825
   17CHTO   O21 7075   3.257   6.375   0.959 -0.3958 -0.1524  0.5684
   17CHTO   H37 7076   3.164   6.387   0.967 -0.1164  0.4339  3.9499
   17CHTO   C27 7077   3.472   6.431   0.849 -0.6154 -0.7500  0.0154
   17CHTO   H55 7078   3.517   6.439   0.949  0.0040  0.3593 -0.3417
   17CHTO    N5 7079   3.501   6.300   0.786  0.2613  0.0165 -1.1574
   17CHTO   H43 7080   3.437   6.253   0.713  2.1603 -0.8878 -2.2565
   17CHTO   H44 7081   3.607   6.280   0.786  0.7493  2.1880  1.9626
   17CHTO   C25 7082   3.526   6.540   0.750 -0.8066  0.7331 -0.8354
   17CHTO   H53 7083   3.464   6.532   0.659  0.1633  0.3082 -1.4601
   17CHTO   O17 7084   3.501   6.668   0.808  0.4045 -0.3456  0.8078
   17CHTO   C32 7085   3.362   6.709   0.825 -0.0157 -0.7480  0.3777
   17CHTO   H60 7086   3.311   6.732   0.732  2.0964  0.6973 -0.4557
   17CHTO   C36 7087   3.369   6.839   0.910 -0.2036 -1.2605 -0.1072
   17CHTO   O25 7088   3.400   6.938   0.807  0.1224 -0.0504  0.3021
   17CHTO   H40 7089   3.483   6.912   0.772 -0.3326 -0.3102 -0.5903
   17CHTO   O15 7090   3.684   6.548   0.733 -0.7259  0.1063  0.1633
   17CHTO   C19 7091   3.747   6.657   0.669  0.5275 -0.0342 -0.7608
   17CHTO   H47 7092   3.838   6.612   0.627 -0.5754 -0.5018 -2.6887
   17CHTO   C20 7093   3.660   6.709   0.540 -0.2105  0.2486  0.4466
   17CHTO   H48 7094   3.552   6.710   0.562 -0.3913 -1.4212 -0.2777
   17CHTO   O19 7095   3.688   6.626   0.430 -0.7798  0.2217  0.1734
   17CHTO   H35 7096   3.654   6.662   0.350  0.6964 -1.2131 -1.1387
   17CHTO   C21 7097   3.698   6.864   0.501 -1.0371 -0.0297 -0.5079
   17CHTO   H49 7098   3.787   6.860   0.438 -2.2679  1.7067 -2.4209
   17CHTO    N4 7099   3.594   6.923   0.411  0.2651  0.2185  0.1267
   17CHTO   H41 7100   3.577   6.864   0.323 -0.6454  2.6717 -1.4075
   17CHTO   H42 7101   3.634   7.017   0.376 -0.7862  0.4500 -0.4711
   17CHTO   C22 7102   3.724   6.946   0.630 -0.4698  0.8544  0.0344
   17CHTO   H50 7103   3.630   6.942   0.684  0.6226 -1.2947  1.8678
   17CHTO   O14 7104   3.829   6.884   0.700 -1.0851  1.0846  0.2415
   17CHTO   C23 7105   3.791   6.764   0.772 -0.4017 -0.3623 -0.8716
   17CHTO   H51 7106   3.709   6.798   0.836 -0.2739 -0.9813 -0.3773
   17CHTO   C34 7107   3.922   6.734   0.847  0.3864  0.5466 -0.3906
   17CHTO   O23 7108   3.894   6.639   0.950 -0.5205  0.2965 -0.5583
   17CHTO   H38 7109   3.947   6.562   0.940 -0.3165  0.2239  1.0333
   17CHTO   O16 7110   3.769   7.081   0.603  0.3313  0.5025  0.3512
   17CHTO   C24 7111   3.831   7.172   0.723 -0.0193  1.0859  0.2711
   17CHTO   H52 7112   3.890   7.111   0.792 -0.9113 -0.6470 -0.4755
   17CHTO   C26 7113   3.707   7.233   0.793  0.5522  0.5721 -0.4716
   17CHTO   H54 7114   3.639   7.277   0.717 -1.5928 -0.6720  0.6985
   17CHTO   O20 7115   3.641   7.130   0.868  0.6436 -0.2713 -0.1507
   17CHTO   H36 7116   3.559   7.095   0.838  0.4492  1.4220 -1.6798
   17CHTO   C30 7117   3.744   7.347   0.892  0.2732 -0.1933  0.2832
   17CHTO   H58 7118   3.804   7.304   0.974 -0.2592  0.4125  0.9915
   17CHTO    N6 7119   3.627   7.419   0.956 -0.7730 -0.4586 -0.1468
   17CHTO   H45 7120   3.664   7.497   1.020  2.4058 -1.2883 -0.8904
   17CHTO   H46 7121   3.577   7.463   0.870  1.2409  0.8538 -0.6787
   17CHTO   C33 7122   3.844   7.446   0.827  0.1379 -1.2591 -0.2972
   17CHTO   H61 7123   3.794   7.504   0.748  0.8282  1.4302  1.2044
   17CHTO   O18 7124   3.958   7.376   0.769 -0.2949  0.5707 -0.6483
   17CHTO   C28 7125   3.919   7.282   0.662  0.4208  0.3549  0.1251
   17CHTO   H56 7126   3.869   7.333   0.581  0.7690 -0.7569 -0.7985
   17CHTO   C35 7127   4.044   7.223   0.587  0.4316 -1.0169 -0.0520
   17CHTO   O24 7128   4.148   7.317   0.547  1.2386  0.4331 -0.2439
   17CHTO   H39 7129   4.228   7.275   0.521  1.2046  0.4980 -0.4521
   17CHTO    O9 7130   3.883   7.542   0.927  0.4839 -0.0086 -0.4172
   17CHTO   C13 7131   3.959   7.664   0.873 -0.0948 -0.0047 -0.1810
   17CHTO   H26 7132   3.946   7.665   0.763  1.1522  1.3538 -0.3237
   17CHTO   C11 7133   4.118   7.655   0.917  0.4049 -0.3051 -0.0577
   17CHTO   H24 7134   4.163   7.565   0.875  1.7435  1.2857 -2.1402
   17CHTO    O8 7135   4.123   7.640   1.061  0.0971  0.2501 -0.1684
   17CHTO    H3 7136   4.148   7.719   1.104  3.6171 -1.5504  1.2481
   17CHTO    C9 7137   4.182   7.788   0.862  0.5796  0.5104  0.0974
   17CHTO   H22 7138   4.179   7.776   0.752  0.6174 -1.0877  0.2609
   17CHTO    N2 7139   4.326   7.785   0.897  0.6605 -0.1773 -0.0962
   17CHTO   H10 7140   4.382   7.786   0.805 -0.6754  0.2489 -0.9206
   17CHTO   H11 7141   4.354   7.874   0.951  0.2823  0.8672 -1.6057
   17CHTO    C7 7142   4.107   7.923   0.905 -0.0356 -0.1734 -0.3663
   17CHTO   H20 7143   4.075   7.972   0.810 -0.3906 -0.7225 -0.5292
   17CHTO    O4 7144   3.992   7.888   0.984 -0.0297 -0.1107  0.0086
   17CHTO   C14 7145   3.895   7.805   0.916  0.5146 -0.3328 -0.7419
   17CHTO   H27 7146   3.849   7.866   0.835  0.5570  1.1034  0.3061
   17CHTO   C18 7147   3.781   7.780   1.012 -0.0533 -0.0966 -0.0543
   17CHTO   O13 7148   3.710   7.893   1.065  0.3674 -0.0638  0.2304
   17CHTO    H7 7149   3.707   7.884   1.158 -1.6003 -0.0158  0.1887
   17CHTO    O2 7150   4.206   8.041   0.993  0.2059 -0.4923 -0.0315
   17CHTO    C1 7151   4.143   8.170   0.985  0.2349  0.3850 -0.0666
   17CHTO   H14 7152   4.043   8.154   0.940 -0.7080 -0.2113  2.1265
   17CHTO    C2 7153   4.224   8.274   0.899  0.2805 -0.8085  0.2250
   17CHTO   H15 7154   4.328   8.252   0.929  1.0196 -0.6460 -2.1224
   17CHTO    O6 7155   4.207   8.260   0.760  0.5479 -0.3328  0.2370
   17CHTO    H1 7156   4.129   8.224   0.722  1.5332 -2.1584 -0.1394
   17CHTO    C3 7157   4.191   8.430   0.936 -0.4275  0.2651 -0.0107
   17CHTO   H16 7158   4.089   8.443   0.897 -0.7911 -0.9242  0.5179
   17CHTO    N1 7159   4.295   8.515   0.866  0.1202 -0.2903  0.1086
   17CHTO    H8 7160   4.315   8.471   0.770  0.8702 -1.0376  0.6079
   17CHTO    H9 7161   4.380   8.515   0.932  0.6166 -0.7787 -0.5352
   17CHTO    C4 7162   4.175   8.452   1.090 -0.1279 -0.0965  0.3473
   17CHTO   H17 7163   4.272   8.449   1.139 -0.2839  2.5258  0.8838
   17CHTO    O1 7164   4.075   8.361   1.133  0.0396 -0.0868 -0.1871
   17CHTO    C5 7165   4.122   8.228   1.132 -0.1653 -0.2529  0.1211
   17CHTO   H18 7166   4.220   8.237   1.180  0.5408  0.2522 -1.3669
   17CHTO   C16 7167   4.031   8.139   1.215  0.5912  0.5958  0.3136
   17CHTO   O11 7168   4.027   8.148   1.359 -0.0023 -0.7337 -0.1064
   17CHTO    H5 7169   4.033   8.060   1.392 -1.1936  0.0132  2.2301
   17CHTO    O3 7170   4.118   8.575   1.121  0.1751  0.2995 -0.2279
   17CHTO    C6 7171   4.146   8.632   1.258  1.0739 -0.2229 -0.7802
   17CHTO   H19 7172   4.070   8.711   1.264  0.7575 -0.3964 -2.3052
   17CHTO    C8 7173   4.133   8.535   1.382 -0.0447 -0.4413 -0.3515
   17CHTO   H21 7174   4.203   8.453   1.370 -0.5088 -0.5616 -2.5999
   17CHTO    O7 7175   3.997   8.483   1.373 -0.4365  0.1101  0.5134
   17CHTO    H2 7176   3.998   8.390   1.380 -0.9553 -0.1361 -2.1505
   17CHTO   C12 7177   4.157   8.617   1.511  0.1175  0.4046 -0.1586
   17CHTO   H25 7178   4.078   8.690   1.536  1.7965  1.7663  1.2956
   17CHTO    N3 7179   4.152   8.530   1.625 -0.1183  0.0265 -0.1199
   17CHTO   H12 7180   4.154   8.425   1.600 -2.0089 -0.3334  1.1733
   17CHTO   H13 7181   4.236   8.547   1.692  2.0451 -2.4261 -2.0840
   17CHTO   C15 7182   4.293   8.702   1.504 -0.1136 -0.1119 -0.6736
   17CHTO   H28 7183   4.381   8.638   1.516  0.6033  0.8358 -0.8500
   17CHTO   O10 7184   4.292   8.811   1.627 -0.5120 -0.1290  0.1487
   17CHTO    H4 7185   4.380   8.824   1.657 -0.1620 -0.4931 -0.7075
   17CHTO    O5 7186   4.300   8.778   1.385  0.2569 -0.0936 -0.1654
   17CHTO   C10 7187   4.285   8.703   1.263  0.1276  0.2841  0.1985
   17CHTO   H23 7188   4.360   8.624   1.256  0.0469  0.1176  1.0760
   17CHTO   C17 7189   4.304   8.809   1.151  0.1054 -0.2609  0.0451
   17CHTO   O12 7190   4.439   8.853   1.141 -0.2065  0.4275 -0.6509
   17CHTO    H6 7191   4.456   8.891   1.056 -0.2358  0.8336 -0.4781
   18CHTO  H203 7192   5.144   7.614   1.896  0.7083 -1.3379 -1.1151
   18CHTO   O82 7193   5.227   7.657   1.901  0.2240 -0.5100  0.1285
   18CHTO  C123 7194   5.225   7.755   1.797  0.0058 -0.2885  0.8355
   18CHTO  H227 7195   5.131   7.812   1.802  0.3688  0.1694  2.8399
   18CHTO   O77 7196   5.330   7.846   1.843  0.3657 -0.5651 -0.6457
   18CHTO  C118 7197   5.365   7.949   1.750 -0.5633 -0.5388  0.0524
   18CHTO  H222 7198   5.282   8.015   1.719 -0.5182  0.6455  2.3305
   18CHTO  C125 7199   5.469   8.040   1.832 -0.4284 -0.0105 -0.8541
   18CHTO   O84 7200   5.456   8.170   1.776  0.0637 -0.7908 -0.3007
   18CHTO  H205 7201   5.543   8.203   1.786  0.4812 -1.9561  0.0370
   18CHTO  C114 7202   5.424   7.879   1.626 -0.3061  0.4143  0.3146
   18CHTO  H218 7203   5.499   7.811   1.665 -0.9722 -0.1777  0.5671
   18CHTO  C116 7204   5.317   7.789   1.560 -0.0903  0.7111 -0.3806
   18CHTO  H220 7205   5.237   7.858   1.528 -1.6120 -1.0722 -0.4562
   18CHTO   O79 7206   5.370   7.721   1.445  0.3971 -0.1669  0.1076
   18CHTO  H201 7207   5.458   7.691   1.449  0.2530 -0.7620 -0.9246
   18CHTO  C120 7208   5.259   7.686   1.663 -0.0636 -0.0740  0.1107
   18CHTO  H224 7209   5.341   7.613   1.677 -0.1418 -0.1908 -0.0356
   18CHTO   N21 7210   5.142   7.612   1.598 -0.3316 -0.3108  0.1400
   18CHTO  H211 7211   5.170   7.518   1.552  1.4378  0.3549 -0.1912
   18CHTO  H212 7212   5.088   7.668   1.522  1.0238  0.1832 -0.4760
   18CHTO   O75 7213   5.474   7.988   1.554 -0.0524 -0.4083  0.7405
   18CHTO  C112 7214   5.652   7.988   1.537 -0.8545 -0.4019  0.1259
   18CHTO  H216 7215   5.701   7.906   1.592  0.9177  0.7053  0.2183
   18CHTO   O73 7216   5.697   8.117   1.592 -0.4133 -0.3207 -0.5725
   18CHTO  C113 7217   5.841   8.157   1.571 -0.0756  0.2242  0.1483
   18CHTO  H217 7218   5.894   8.088   1.639  1.2877  1.5673  0.4805
   18CHTO  C124 7219   5.862   8.295   1.633  0.3693 -0.3171  0.1140
   18CHTO   O83 7220   5.824   8.304   1.772 -0.1787  0.0095 -0.0333
   18CHTO  H204 7221   5.885   8.365   1.809 -0.0909  0.8944 -1.5845
   18CHTO  C109 7222   5.880   8.154   1.424  0.6376 -0.0182  0.3616
   18CHTO  H213 7223   5.825   8.238   1.379  2.2979 -0.1154 -1.9264
   18CHTO  C110 7224   5.842   8.012   1.358  0.1950  0.0646  0.1915
   18CHTO  H214 7225   5.890   7.944   1.428  0.1769  0.9700  1.0973
   18CHTO   O78 7226   5.879   8.012   1.213  0.5796  0.0785 -0.0860
   18CHTO  H200 7227   5.811   8.041   1.155 -1.5068 -2.0412  1.2250
   18CHTO  C111 7228   5.688   7.986   1.379  0.2555 -0.7219  0.6949
   18CHTO  H215 7229   5.633   8.057   1.316 -1.0705 -2.5239 -0.2164
   18CHTO   N19 7230   5.654   7.855   1.327 -0.1331 -0.7394 -0.0261
   18CHTO  H207 7231   5.547   7.845   1.338 -0.2120  1.5485  1.4900
   18CHTO  H208 7232   5.709   7.772   1.368 -0.6790 -0.5528  1.0972
   18CHTO   O74 7233   6.025   8.178   1.413  0.2526 -0.2711  0.8079
   18CHTO  C115 7234   6.060   8.256   1.281 -0.2662  0.3640  0.8732
   18CHTO  H219 7235   5.997   8.223   1.199 -0.5378  0.9852  0.8259
   18CHTO   O76 7236   6.039   8.426   1.295 -0.2336  0.1032  0.4673
   18CHTO  C122 7237   6.068   8.503   1.178 -0.5797 -0.5451  0.5148
   18CHTO  H226 7238   6.081   8.605   1.214  0.9549 -0.9294  1.1084
   18CHTO  C126 7239   5.948   8.503   1.073 -1.1135  0.2105 -0.5266
   18CHTO   O85 7240   5.967   8.603   0.970  0.5461  0.9471 -0.7302
   18CHTO  H206 7241   5.918   8.674   1.007  0.6203 -0.4838  2.2319
   18CHTO  C121 7242   6.198   8.464   1.108  0.3657 -0.1361 -0.3721
   18CHTO  H225 7243   6.202   8.513   1.008 -3.5328 -0.7678 -0.8932
   18CHTO   O81 7244   6.309   8.522   1.179 -0.3588 -0.2229  0.2784
   18CHTO  H202 7245   6.296   8.614   1.176 -1.1021 -0.3702 -1.3476
   18CHTO  C119 7246   6.232   8.314   1.102  0.5922 -0.7852 -0.4893
   18CHTO  H223 7247   6.143   8.283   1.048 -0.1437 -0.5046  0.5352
   18CHTO  C117 7248   6.215   8.238   1.242  0.1438  0.1804 -0.3288
   18CHTO  H221 7249   6.273   8.269   1.329  0.4113  1.5007 -0.9654
   18CHTO   N20 7250   6.248   8.095   1.239 -0.6079  0.0713  0.7035
   18CHTO  H209 7251   6.314   8.063   1.319 -1.0177 -0.6713  0.7393
   18CHTO  H210 7252   6.306   8.072   1.151  0.5093  0.8120  1.2227
   18CHTO   O80 7253   6.356   8.269   0.996  0.0426  0.1088  0.2475
   18CHTO  C103 7254   6.324   8.204   0.868  0.8002 -0.7333  0.6686
   18CHTO  H190 7255   6.415   8.174   0.815  0.6988 -2.9140  1.6579
   18CHTO  C101 7256   6.230   8.079   0.879  0.8532  0.1668  0.0928
   18CHTO  H188 7257   6.166   8.095   0.965  2.2280  0.9249  1.0072
   18CHTO   O68 7258   6.321   7.940   0.925 -0.0554 -0.4679 -0.1186
   18CHTO  H168 7259   6.385   7.921   0.859  2.7833  2.2721  1.7494
   18CHTO   C99 7260   6.137   8.049   0.756 -0.0297 -0.1859 -0.2719
   18CHTO  H186 7261   6.201   8.012   0.673  1.7453 -1.0530  1.4481
   18CHTO   N17 7262   6.038   7.935   0.784 -0.0012  0.1884  0.6661
   18CHTO  H174 7263   5.973   7.914   0.701  0.7548  1.5964 -0.3020
   18CHTO  H175 7264   6.089   7.849   0.824  0.3492  0.0102 -0.1421
   18CHTO   C97 7265   6.067   8.172   0.702  0.6714 -0.3847 -0.1605
   18CHTO  H184 7266   5.999   8.216   0.777  0.5070  0.5758 -0.8583
   18CHTO   O64 7267   6.171   8.265   0.670 -0.1295 -0.0189  0.3495
   18CHTO  C104 7268   6.245   8.319   0.784 -0.1025  0.6154 -0.3719
   18CHTO  H191 7269   6.174   8.368   0.850  1.3379  1.6423  0.4197
   18CHTO  C108 7270   6.344   8.426   0.730  0.0950  0.6365 -0.2934
   18CHTO   O71 7271   6.276   8.535   0.666  0.0642  0.1064  0.7819
   18CHTO  H171 7272   6.263   8.600   0.733  1.1952  1.2719 -0.0939
   18CHTO   O62 7273   6.002   8.144   0.573  0.9738 -0.3523  0.3446
   18CHTO   C91 7274   5.872   8.198   0.547  0.1188 -0.8080 -0.6302
   18CHTO  H178 7275   5.815   8.207   0.640  4.3386  0.6342  1.9798
   18CHTO   C92 7276   5.806   8.099   0.444  0.1936 -0.1014  0.4249
   18CHTO  H179 7277   5.874   8.098   0.357 -1.5835 -0.9997 -0.9788
   18CHTO   O66 7278   5.819   7.970   0.505 -0.2335 -0.3320 -0.1245
   18CHTO  H166 7279   5.762   7.912   0.459  0.6702 -0.0030 -1.6726
   18CHTO   C93 7280   5.662   8.147   0.397  0.2207 -0.3221  0.1118
   18CHTO  H180 7281   5.592   8.143   0.482 -1.0721 -0.5833 -0.9449
   18CHTO   N16 7282   5.606   8.063   0.285 -0.0587  0.1089 -0.5629
   18CHTO  H172 7283   5.589   7.962   0.320  1.3999  0.5719  1.5412
   18CHTO  H173 7284   5.507   8.095   0.256  0.0453  1.7214  0.8305
   18CHTO   C94 7285   5.659   8.299   0.359  0.8136 -0.6246 -0.1482
   18CHTO  H181 7286   5.711   8.318   0.265  1.5899 -0.5548  0.2855
   18CHTO   O61 7287   5.731   8.382   0.457  0.0818 -0.1279  0.7167
   18CHTO   C95 7288   5.867   8.346   0.483 -0.6720 -0.1218 -0.0926
   18CHTO  H182 7289   5.928   8.353   0.393  1.6552  2.2203  1.5993
   18CHTO  C106 7290   5.932   8.457   0.582 -0.3159  0.1676  0.5448
   18CHTO   O69 7291   5.851   8.475   0.691  0.5732 -0.6485 -0.2441
   18CHTO  H169 7292   5.870   8.405   0.751 -1.2724 -0.1578  0.9803
   18CHTO   O63 7293   5.503   8.366   0.329 -0.4918 -0.4599  0.1308
   18CHTO   C96 7294   5.494   8.507   0.247 -0.0826  0.1600  0.0929
   18CHTO  H183 7295   5.575   8.506   0.174 -0.7525  2.3810 -0.7215
   18CHTO   C98 7296   5.508   8.642   0.325 -0.0955  0.6770  0.3939
   18CHTO  H185 7297   5.430   8.635   0.402  0.1475 -2.4690  0.4284
   18CHTO   O67 7298   5.635   8.641   0.396  0.1590 -0.0564  0.1793
   18CHTO  H167 7299   5.682   8.562   0.375 -0.8248 -0.2065 -1.6010
   18CHTO  C102 7300   5.496   8.770   0.228 -0.3481  0.1738  0.1052
   18CHTO  H189 7301   5.589   8.779   0.170  0.6711  0.2974  1.7087
   18CHTO   N18 7302   5.490   8.903   0.300  0.4478 -0.4543  0.0499
   18CHTO  H176 7303   5.413   8.975   0.276  1.4927  0.1713 -1.5617
   18CHTO  H177 7304   5.496   8.881   0.405  2.4096 -4.3365 -0.7961
   18CHTO  C105 7305   5.375   8.747   0.133 -0.4127  0.1440 -0.6192
   18CHTO  H192 7306   5.284   8.757   0.191  1.5688 -0.6955  2.7512
   18CHTO   O65 7307   5.379   8.620   0.065 -0.4625  0.4641  0.2126
   18CHTO  C100 7308   5.371   8.506   0.149 -0.5623 -0.5233 -0.5123
   18CHTO  H187 7309   5.272   8.521   0.193  0.1645  0.7966  0.7021
   18CHTO  C107 7310   5.372   8.377   0.065 -0.1378  0.2583  0.4330
   18CHTO   O70 7311   5.238   8.353   0.014 -0.1831 -0.3466 -0.1364
   18CHTO  H170 7312   5.233   8.367  -0.078  1.1765 -0.1968 -0.1994
   18CHTO   O57 7313   5.401   8.861   0.013 -0.6458 -0.2638  0.1267
   18CHTO   C85 7314   5.302   8.938  -0.061 -0.4897  1.2224  0.0702
   18CHTO  H157 7315   5.367   8.987  -0.136  1.4770 -1.8132 -0.2790
   18CHTO   C83 7316   5.236   9.046   0.029 -0.7490 -0.0112 -0.5185
   18CHTO  H155 7317   5.320   9.104   0.068  0.4679 -0.4615 -2.4128
   18CHTO   O56 7318   5.180   8.978   0.147 -0.4913 -0.2603 -0.0154
   18CHTO  H135 7319   5.253   8.959   0.204  0.0544  0.3464 -0.5103
   18CHTO   C81 7320   5.143   9.135  -0.050 -0.0760 -0.3306  0.0401
   18CHTO  H153 7321   5.191   9.178  -0.138  0.4372  3.3003  2.0148
   18CHTO   N14 7322   5.081   9.251   0.018 -0.3700 -0.0688  0.2406
   18CHTO  H141 7323   5.032   9.312  -0.055  0.2027 -1.9135 -1.7275
   18CHTO  H142 7324   5.018   9.224   0.101 -1.2161  3.0965  0.7165
   18CHTO   C79 7325   5.024   9.043  -0.103 -0.3932 -0.6699 -0.4543
   18CHTO  H151 7326   4.955   9.106  -0.158 -0.2576 -0.8444 -0.8297
   18CHTO   O52 7327   5.087   8.939  -0.195  0.0632  0.0418 -0.4314
   18CHTO   C86 7328   5.189   8.858  -0.125  0.7156  0.5194  0.3130
   18CHTO  H158 7329   5.132   8.802  -0.047  1.4299 -1.9470 -0.8696
   18CHTO   C90 7330   5.238   8.737  -0.218 -0.1946 -0.4238  0.1087
   18CHTO   O60 7331   5.127   8.657  -0.265  0.4178 -0.4092 -0.1419
   18CHTO  H138 7332   5.072   8.615  -0.202 -0.9376  0.6727 -0.5731
   18CHTO   O50 7333   4.949   8.978   0.003  0.2151 -0.5407  0.3429
   18CHTO   C73 7334   4.843   8.883  -0.011  0.2146 -0.0271 -0.5179
   18CHTO  H145 7335   4.861   8.809  -0.090 -2.4246 -0.8664 -0.3789
   18CHTO   C74 7336   4.706   8.956  -0.031 -1.1306 -0.8593  0.3684
   18CHTO  H146 7337   4.722   9.015  -0.123  0.1297  0.9381  1.7030
   18CHTO   O54 7338   4.599   8.866  -0.061 -0.1040  0.4196  0.0578
   18CHTO  H133 7339   4.610   8.836  -0.150  1.9990  2.6489 -0.4879
   18CHTO   C75 7340   4.686   9.047   0.093  0.4505 -0.0044 -0.7456
   18CHTO  H147 7341   4.775   9.111   0.101 -0.1734  0.8373 -0.6083
   18CHTO   N13 7342   4.569   9.138   0.079 -0.4574 -0.2334 -0.5151
   18CHTO  H139 7343   4.573   9.205  -0.006 -1.7017  0.5819  0.0646
   18CHTO  H140 7344   4.578   9.211   0.158  1.8448 -0.2834 -0.6771
   18CHTO   C76 7345   4.687   8.958   0.233 -0.3107  0.0935  0.1619
   18CHTO  H148 7346   4.604   8.887   0.234  1.2681 -1.8105 -0.7510
   18CHTO   O49 7347   4.814   8.893   0.241 -0.7763 -0.6451 -0.7094
   18CHTO   C77 7348   4.835   8.805   0.125 -0.2464  0.2947 -0.8679
   18CHTO  H149 7349   4.753   8.732   0.123  0.5557 -0.5977 -1.4127
   18CHTO   C88 7350   4.960   8.711   0.146  0.6406  0.4216 -0.1348
   18CHTO   O58 7351   4.938   8.576   0.058  0.7301 -0.4256 -0.3627
   18CHTO  H136 7352   4.970   8.501   0.105 -2.6485 -2.3202 -1.0043
   18CHTO   O51 7353   4.688   9.050   0.357 -0.0776 -0.5972 -0.2207
   18CHTO   C78 7354   4.688   8.976   0.495  0.4486  0.5245 -0.5792
   18CHTO  H150 7355   4.706   8.868   0.475 -0.7103 -0.1857  2.0817
   18CHTO   C80 7356   4.560   8.997   0.570  0.5448  0.4401 -0.6641
   18CHTO  H152 7357   4.534   9.105   0.578  0.0614  0.1574  2.2757
   18CHTO   O55 7358   4.461   8.911   0.502 -0.1884  0.1265  0.1991
   18CHTO  H134 7359   4.383   8.956   0.476 -0.4024  0.5710  1.5904
   18CHTO   C84 7360   4.574   8.939   0.721 -0.7966  0.4122  0.1923
   18CHTO  H156 7361   4.569   8.830   0.721  1.4382  0.2841 -1.7614
   18CHTO   N15 7362   4.464   8.980   0.801 -0.2057  0.3486  0.4466
   18CHTO  H143 7363   4.370   8.934   0.780 -2.1944  4.5076 -0.2750
   18CHTO  H144 7364   4.491   8.950   0.900 -0.2064 -0.1616  0.2931
   18CHTO   C87 7365   4.705   8.989   0.779  1.4363 -0.5120 -0.9195
   18CHTO  H159 7366   4.708   9.098   0.776 -0.3582 -0.4636 -1.8267
   18CHTO   O53 7367   4.821   8.944   0.686 -0.0650  0.3309 -0.6266
   18CHTO   C82 7368   4.820   9.023   0.570  0.1277 -0.1721 -0.3846
   18CHTO  H154 7369   4.821   9.127   0.601 -1.7841 -0.2540  0.0244
   18CHTO   C89 7370   4.956   8.995   0.500 -0.6738 -0.1166 -0.2606
   18CHTO   O59 7371   4.993   9.083   0.394  0.1447 -0.7575 -0.5636
   18CHTO  H137 7372   4.935   9.078   0.319  0.3718 -0.6726 -0.7438
   18CHTO   O45 7373   4.720   8.928   0.928  0.5291  0.2939  0.7589
   18CHTO   C67 7374   4.857   8.923   0.969  0.5111 -0.0408  0.2151
   18CHTO  H124 7375   4.914   8.860   0.900  0.4410 -0.1912  0.2948
   18CHTO   C65 7376   4.925   9.068   0.970 -0.0284  0.6956 -0.5038
   18CHTO  H122 7377   4.843   9.139   0.980  0.5644  1.1637  1.2815
   18CHTO   O44 7378   5.002   9.097   0.851  0.4750  0.7677 -0.2450
   18CHTO  H102 7379   5.087   9.058   0.863 -0.1806 -0.4588  0.5367
   18CHTO   C63 7380   4.992   9.101   1.107  0.1411 -0.7143 -0.1216
   18CHTO  H120 7381   4.919   9.097   1.188  1.7797  0.6776  1.4744
   18CHTO   N11 7382   5.060   9.233   1.116  0.1236 -1.0021  0.0089
   18CHTO  H108 7383   5.083   9.264   1.216  2.7557  0.0964 -0.9202
   18CHTO  H109 7384   5.008   9.310   1.062 -1.2511 -0.8203  1.5271
   18CHTO   C61 7385   5.082   8.972   1.144  0.0762  0.3038  0.0696
   18CHTO  H118 7386   5.136   8.995   1.237 -3.0398 -0.3909  2.1409
   18CHTO   O40 7387   4.994   8.859   1.175 -0.1513  0.1309  0.1973
   18CHTO   C68 7388   4.860   8.849   1.110  0.1241 -0.1004 -0.5266
   18CHTO  H125 7389   4.788   8.900   1.178  0.0925  0.3164 -0.8716
   18CHTO   C72 7390   4.814   8.702   1.091  0.2604 -0.6434  0.1399
   18CHTO   O48 7391   4.750   8.654   1.208 -0.0971 -0.1363  0.2693
   18CHTO  H105 7392   4.672   8.703   1.225  1.2082  3.0443 -2.2572
   18CHTO   O38 7393   5.172   8.935   1.035  0.9232  0.1347  0.3752
   18CHTO   C55 7394   5.281   8.857   1.081 -0.1417 -0.6045 -0.0907
   18CHTO  H112 7395   5.251   8.811   1.177 -0.1982 -0.6957 -0.1514
   18CHTO   C56 7396   5.409   8.958   1.096  1.0529 -0.2225 -0.1367
   18CHTO  H113 7397   5.407   9.007   0.997  0.7853 -0.7524 -0.4016
   18CHTO   O42 7398   5.398   9.060   1.201  0.3070  0.4879  0.3569
   18CHTO  H100 7399   5.323   9.114   1.183 -0.4880 -0.9244 -0.6986
   18CHTO   C57 7400   5.544   8.868   1.127  0.0045  0.0054  0.2260
   18CHTO  H114 7401   5.538   8.843   1.233 -0.3517  0.1348  0.2377
   18CHTO   N10 7402   5.667   8.953   1.122 -0.0271  0.1905  0.1915
   18CHTO  H106 7403   5.622   9.048   1.147 -0.3373 -0.2655  1.4376
   18CHTO  H107 7404   5.738   8.922   1.197 -0.4794 -0.1393  0.4877
   18CHTO   C58 7405   5.561   8.742   1.043  0.4469 -0.1184  0.2166
   18CHTO  H115 7406   5.586   8.768   0.938  1.8551 -1.6099  0.1630
   18CHTO   O37 7407   5.434   8.673   1.031  0.2860  0.1612 -0.4371
   18CHTO   C59 7408   5.318   8.743   0.984 -0.0812  0.0897 -0.0978
   18CHTO  H116 7409   5.340   8.775   0.882 -1.9222  1.4576 -0.0851
   18CHTO   C70 7410   5.209   8.633   0.987  0.3888  0.0046 -0.5636
   18CHTO   O46 7411   5.201   8.565   1.111 -0.1907 -0.1258  0.1342
   18CHTO  H103 7412   5.282   8.526   1.139 -0.3182 -1.4635 -1.2514
   18CHTO   O39 7413   5.662   8.626   1.126 -0.3842 -0.3406  0.1731
   18CHTO   C60 7414   5.594   8.558   1.237 -0.1095 -0.4971 -0.2441
   18CHTO  H117 7415   5.512   8.622   1.269 -0.0499 -0.2194 -0.6407
   18CHTO   C62 7416   5.552   8.413   1.203  0.6028  0.4369 -0.0762
   18CHTO  H119 7417   5.496   8.418   1.107 -2.4167 -0.7486  1.5774
   18CHTO   O43 7418   5.665   8.335   1.191 -0.4778  0.9014 -0.2693
   18CHTO  H101 7419   5.643   8.247   1.168  1.1339  0.9762 -2.2678
   18CHTO   C66 7420   5.457   8.366   1.315 -0.4105  0.1575 -0.0397
   18CHTO  H123 7421   5.381   8.443   1.331  0.4193  0.6286  1.8093
   18CHTO   N12 7422   5.384   8.236   1.297 -0.0794 -0.6197 -0.1687
   18CHTO  H110 7423   5.339   8.223   1.199 -0.7848 -2.1548  0.3391
   18CHTO  H111 7424   5.308   8.232   1.373  1.1456  0.0310  1.1047
   18CHTO   C69 7425   5.532   8.357   1.451  0.0908  0.1101  0.3397
   18CHTO  H126 7426   5.591   8.266   1.472 -0.4011 -0.2017  0.3688
   18CHTO   O41 7427   5.625   8.481   1.481 -0.3340 -0.1334  0.2532
   18CHTO   C64 7428   5.693   8.547   1.364  0.4832 -0.0122 -0.1584
   18CHTO  H121 7429   5.773   8.476   1.337 -0.1404 -1.4815  1.7590
   18CHTO   C71 7430   5.754   8.686   1.401 -0.3024  0.2148 -0.4211
   18CHTO   O47 7431   5.662   8.765   1.477  0.4847 -0.0303  0.3592
   18CHTO  H104 7432   5.702   8.842   1.513 -0.1984  1.7577 -2.5806
   18CHTO   O34 7433   5.412   8.369   1.570 -0.4748  0.4469  0.2896
   18CHTO   C49 7434   5.317   8.474   1.660  0.2862 -0.7651 -0.2288
   18CHTO   H91 7435   5.329   8.446   1.765  1.1875 -0.0881 -0.1445
   18CHTO   C47 7436   5.171   8.460   1.623 -0.1201  0.0369 -0.4675
   18CHTO   H89 7437   5.112   8.514   1.700 -2.1575  0.6135 -2.3604
   18CHTO   O33 7438   5.145   8.323   1.639  0.8511  0.6142  0.0790
   18CHTO   H70 7439   5.055   8.316   1.616  0.8658 -0.0162  0.1932
   18CHTO   C45 7440   5.146   8.532   1.478  0.1841 -0.1937  0.0180
   18CHTO   H87 7441   5.207   8.481   1.402 -0.8086  0.0728 -0.9779
   18CHTO    N8 7442   5.004   8.509   1.441  0.3474  0.0642 -0.2387
   18CHTO   H75 7443   4.986   8.544   1.340 -0.5379 -2.2000 -0.8925
   18CHTO   H76 7444   4.944   8.569   1.507 -0.4967 -0.2862 -0.6776
   18CHTO   C43 7445   5.182   8.681   1.491 -0.5189 -0.2339  0.5457
   18CHTO   H85 7446   5.171   8.729   1.393 -2.1412  0.2823  0.9586
   18CHTO   O29 7447   5.321   8.692   1.538 -0.3003 -0.3159  0.3243
   18CHTO   C50 7448   5.368   8.624   1.649 -0.2754 -0.3667  0.3521
   18CHTO   H92 7449   5.474   8.635   1.623 -1.2357  1.8276 -3.0303
   18CHTO   C54 7450   5.346   8.702   1.782  0.7012 -0.4058 -0.5769
   18CHTO   O36 7451   5.442   8.804   1.802 -0.5531  0.4506 -0.1555
   18CHTO   H72 7452   5.413   8.855   1.876  0.7951 -0.2327  0.8815
   18CHTO   O27 7453   5.090   8.745   1.585  0.0430  0.2673 -0.1744
   18CHTO   C37 7454   5.016   8.869   1.611  1.1682 -0.2075  0.4586
   18CHTO   H79 7455   4.993   8.873   1.719 -0.1560 -2.8443  0.3021
   18CHTO   C38 7456   5.096   9.000   1.582  0.5472 -0.9430  0.5877
   18CHTO   H80 7457   5.143   8.997   1.483  1.9715  1.4012  1.1437
   18CHTO   O31 7458   5.199   9.008   1.685  0.7016  0.1498  0.0233
   18CHTO   H68 7459   5.274   8.967   1.646  1.8994  1.0796  1.3096
   18CHTO   C39 7460   5.010   9.135   1.571  0.4370  0.2917  0.2147
   18CHTO   H81 7461   4.987   9.162   1.674  0.4858 -0.2260  0.3651
   18CHTO    N7 7462   5.073   9.251   1.516  0.4383  1.1286 -0.2908
   18CHTO   H73 7463   5.159   9.275   1.576 -0.2545 -1.3502  1.7560
   18CHTO   H74 7464   5.099   9.235   1.412 -4.2294  0.3295 -1.4574
   18CHTO   C40 7465   4.865   9.109   1.499 -0.6436 -0.2778  0.0763
   18CHTO   H82 7466   4.888   9.087   1.395  1.3797  1.5369  0.0982
   18CHTO   O26 7467   4.808   8.995   1.565 -0.5099  0.1531  1.0740
   18CHTO   C41 7468   4.879   8.873   1.537  0.3703 -0.2976 -0.0519
   18CHTO   H83 7469   4.904   8.853   1.431  1.7988 -0.0395  0.2163
   18CHTO   C52 7470   4.786   8.753   1.582  0.1962  0.3449  0.5594
   18CHTO   O35 7471   4.661   8.741   1.498  0.1024 -0.0612  0.7775
   18CHTO   H71 7472   4.677   8.746   1.405 -0.3554  1.6811  0.7617
   18CHTO   O28 7473   4.778   9.229   1.513  0.0587  0.0683 -0.4545
   18CHTO   C42 7474   4.629   9.228   1.489 -0.2123  0.5600 -0.2822
   18CHTO   H84 7475   4.596   9.331   1.474 -0.3000  0.2797 -2.0693
   18CHTO   C44 7476   4.546   9.169   1.610 -0.2414  0.1309 -0.2436
   18CHTO   H86 7477   4.566   9.063   1.622 -1.1987 -0.0589 -0.2583
   18CHTO   O32 7478   4.578   9.233   1.739 -0.8401  0.2244 -0.8295
   18CHTO   H69 7479   4.514   9.296   1.766 -0.2668 -0.0061  1.1257
   18CHTO   C48 7480   4.390   9.197   1.574 -0.3720 -0.3723  0.3783
   18CHTO   H90 7481   4.365   9.302   1.584 -2.5551 -0.6396 -1.6104
   18CHTO    N9 7482   4.295   9.133   1.678  0.2681 -0.2737 -0.0095
   18CHTO   H77 7483   4.329   9.039   1.718 -1.7635 -0.6767  0.8644
   18CHTO   H78 7484   4.272   9.209   1.751 -2.1159 -0.7307 -0.2545
   18CHTO   C51 7485   4.355   9.141   1.433  0.3616  0.1660 -0.1868
   18CHTO   H93 7486   4.337   9.033   1.433  1.1134  0.0339 -1.8493
   18CHTO   O30 7487   4.449   9.175   1.331 -0.2490  0.1901 -0.1799
   18CHTO   C46 7488   4.599   9.156   1.360 -0.0671 -0.1301  0.7178
   18CHTO   H88 7489   4.612   9.048   1.366 -1.5383 -0.4448 -0.9719
   18CHTO   C53 7490   4.656   9.228   1.228 -1.2231 -0.3846 -0.0946
   18CHTO   O72 7491   4.621   9.152   1.108 -0.2891 -0.4013 -0.1609
   18CHTO  H199 7492   4.662   9.068   1.116 -0.9758 -0.6010  1.5514
   18CHTO   O22 7493   4.231   9.197   1.388  0.7120  0.0187 -0.5943
   18CHTO   C31 7494   4.149   9.135   1.290  0.3454  0.2355  0.6087
   18CHTO   H59 7495   4.197   9.044   1.248  2.2091  0.5187  2.0467
   18CHTO   C29 7496   4.024   9.085   1.371 -0.3003 -0.3403 -0.4409
   18CHTO   H57 7497   3.979   9.173   1.420 -0.4590 -0.9428  0.4986
   18CHTO   O21 7498   4.066   8.998   1.478  0.2803 -0.2372  0.4885
   18CHTO   H37 7499   4.127   9.047   1.530  0.7047 -1.1421  0.8474
   18CHTO   C27 7500   3.918   9.028   1.273 -0.8049 -0.7568  0.4969
   18CHTO   H55 7501   3.951   8.931   1.234 -0.6063 -0.0876 -0.9904
   18CHTO    N5 7502   3.783   9.010   1.340  0.0353 -0.8307 -0.0497
   18CHTO   H43 7503   3.704   9.069   1.297  0.2261 -0.4085  0.1705
   18CHTO   H44 7504   3.752   8.908   1.359  0.2745 -1.1267 -1.1894
   18CHTO   C25 7505   3.902   9.121   1.147  0.1109 -1.2103  0.3110
   18CHTO   H53 7506   3.857   9.218   1.171 -0.1456 -0.7026 -2.1072
   18CHTO   O17 7507   4.025   9.145   1.089 -0.2633 -0.2299 -0.2453
   18CHTO   C32 7508   4.113   9.221   1.174  0.2285 -0.3609  0.6946
   18CHTO   H60 7509   4.061   9.311   1.207 -0.5892  0.0948 -1.6977
   18CHTO   C36 7510   4.225   9.267   1.071  0.4540 -0.0251  0.1735
   18CHTO   O25 7511   4.316   9.163   1.026 -0.2010 -0.1701  0.5784
   18CHTO   H40 7512   4.280   9.092   0.975  2.0898 -1.3354  0.5135
   18CHTO   O15 7513   3.804   9.048   1.039 -0.3614  0.7445 -0.2080
   18CHTO   C19 7514   3.834   9.013   0.903 -0.3329 -0.0458  0.1384
   18CHTO   H47 7515   3.732   8.999   0.866 -0.8825 -0.7895  1.9350
   18CHTO   C20 7516   3.915   9.122   0.816 -0.6937  0.4255 -0.5871
   18CHTO   H48 7517   4.019   9.134   0.849  0.2351 -1.7847 -2.6050
   18CHTO   O19 7518   3.840   9.245   0.832 -0.0559  0.7317  0.0073
   18CHTO   H35 7519   3.884   9.295   0.897  0.2487 -1.0462  1.1924
   18CHTO   C21 7520   3.914   9.072   0.670 -0.8575 -0.2307 -0.2932
   18CHTO   H49 7521   3.812   9.061   0.634 -0.7701 -1.5334 -0.1717
   18CHTO    N4 7522   3.968   9.164   0.565  0.1308  0.4455 -0.2402
   18CHTO   H41 7523   3.900   9.169   0.481  1.8095 -0.8231 -1.7298
   18CHTO   H42 7524   4.063   9.124   0.532  0.9553  1.6962  0.5894
   18CHTO   C22 7525   3.990   8.934   0.657  0.2670  0.1252  0.1461
   18CHTO   H50 7526   4.093   8.931   0.692  0.6042 -1.1449 -0.9149
   18CHTO   O14 7527   3.911   8.853   0.743 -0.2594  0.2363 -0.0256
   18CHTO   C23 7528   3.905   8.879   0.882  0.2735 -0.0875 -0.2687
   18CHTO   H51 7529   4.011   8.884   0.913 -0.0415  1.6732  0.5835
   18CHTO   C34 7530   3.830   8.774   0.967 -0.8595 -0.0676  0.3216
   18CHTO   O23 7531   3.903   8.655   0.964 -0.3761 -0.2354 -0.1093
   18CHTO   H38 7532   3.857   8.589   1.012 -2.1034  1.7434  1.0505
   18CHTO   O16 7533   3.973   8.858   0.532  0.4059  0.5066  0.7845
   18CHTO   C24 7534   4.110   8.774   0.475  0.6646  0.2929 -0.1762
   18CHTO   H52 7535   4.195   8.784   0.543 -0.1058 -0.8398  0.9803
   18CHTO   C26 7536   4.159   8.833   0.332  0.5043 -0.2336 -0.4117
   18CHTO   H54 7537   4.081   8.823   0.254 -0.0950 -2.1271  0.3807
   18CHTO   O20 7538   4.176   8.972   0.353 -0.2046 -0.3459 -0.2538
   18CHTO   H36 7539   4.193   9.003   0.440  0.3741 -0.4442 -0.3287
   18CHTO   C30 7540   4.283   8.751   0.284  0.0813 -0.1267 -0.3614
   18CHTO   H58 7541   4.371   8.766   0.348 -1.4538  1.6483  1.4043
   18CHTO    N6 7542   4.323   8.805   0.148  0.3486  0.4019  0.2775
   18CHTO   H45 7543   4.239   8.792   0.081  1.7569 -3.1052 -0.9046
   18CHTO   H46 7544   4.407   8.745   0.117 -2.2607 -2.8803 -0.7030
   18CHTO   C33 7545   4.261   8.597   0.294 -0.2602 -0.2880  0.0582
   18CHTO   H61 7546   4.192   8.568   0.214  1.3613 -0.3357 -1.3404
   18CHTO   O18 7547   4.205   8.559   0.427 -1.1154  0.9287 -0.2513
   18CHTO   C28 7548   4.082   8.625   0.464 -0.4305  0.3768 -0.5427
   18CHTO   H56 7549   4.009   8.613   0.383  0.9324  1.7645 -2.0181
   18CHTO   C35 7550   4.035   8.566   0.604 -0.0000 -0.0673 -0.3307
   18CHTO   O24 7551   3.894   8.586   0.627 -0.2353 -0.3627 -0.3353
   18CHTO   H39 7552   3.868   8.554   0.711 -0.0242 -2.3400 -0.9983
   18CHTO    O9 7553   4.387   8.528   0.264  0.3674 -0.4691 -0.0385
   18CHTO   C13 7554   4.467   8.444   0.383 -0.1341 -0.1403  0.0259
   18CHTO   H26 7555   4.394   8.380   0.436  0.6510 -1.7021 -0.7461
   18CHTO   C11 7556   4.532   8.548   0.486  0.2549  0.5516 -0.0029
   18CHTO   H24 7557   4.455   8.595   0.548  0.7504  0.8373  0.4041
   18CHTO    O8 7558   4.588   8.661   0.413  0.4676  0.4742  0.0795
   18CHTO    H3 7559   4.530   8.704   0.353  0.4903 -1.1912 -1.2035
   18CHTO    C9 7560   4.627   8.472   0.582 -0.0015 -0.2309 -0.9304
   18CHTO   H22 7561   4.560   8.398   0.628 -0.3919  1.6395  1.5461
   18CHTO    N2 7562   4.683   8.556   0.693  0.6057 -0.3621  0.0567
   18CHTO   H10 7563   4.612   8.610   0.755 -0.0262 -0.5007 -0.5339
   18CHTO   H11 7564   4.763   8.613   0.649 -0.0731  1.5968  1.3070
   18CHTO    C7 7565   4.741   8.391   0.495 -0.2802 -0.3799 -0.2862
   18CHTO   H20 7566   4.781   8.320   0.570 -1.0269  0.2179  0.6922
   18CHTO    O4 7567   4.687   8.313   0.393 -0.0970 -0.0548  0.8096
   18CHTO   C14 7568   4.571   8.348   0.315  0.3541 -0.1771  0.2018
   18CHTO   H27 7569   4.523   8.252   0.286 -2.2961  0.8517  0.9859
   18CHTO   C18 7570   4.636   8.415   0.182  0.1452 -0.4621  0.3603
   18CHTO   O13 7571   4.551   8.393   0.066 -0.5045 -0.2576 -0.1582
   18CHTO    H7 7572   4.487   8.462   0.066 -0.6005 -0.3042 -2.5469
   18CHTO    O2 7573   4.871   8.496   0.425 -0.3710  0.3381 -0.4320
   18CHTO    C1 7574   5.012   8.454   0.419  0.4031 -0.2377 -0.5926
   18CHTO   H14 7575   5.070   8.520   0.350  0.5627  0.6376  0.3741
   18CHTO    C2 7576   5.036   8.308   0.369 -0.1055  0.5615 -0.9001
   18CHTO   H15 7577   4.965   8.246   0.426  0.6430  0.5037 -0.0175
   18CHTO    O6 7578   5.017   8.306   0.227 -0.2139  0.1453  0.0168
   18CHTO    H1 7579   4.991   8.391   0.195  0.7524 -0.0117 -1.2371
   18CHTO    C3 7580   5.182   8.258   0.406  0.4936 -0.3550  0.4680
   18CHTO   H16 7581   5.258   8.306   0.343  0.2288 -0.0538  0.3729
   18CHTO    N1 7582   5.202   8.114   0.371 -0.0906 -0.3214 -0.1698
   18CHTO    H8 7583   5.297   8.065   0.386  0.6341  1.1490  0.1590
   18CHTO    H9 7584   5.119   8.060   0.413 -0.2533  0.7083  0.8358
   18CHTO    C4 7585   5.221   8.280   0.553 -0.2444  0.7872  0.1687
   18CHTO   H17 7586   5.156   8.220   0.618 -0.9984  2.2683  0.8191
   18CHTO    O1 7587   5.209   8.427   0.574  0.7813 -0.9746  0.9890
   18CHTO    C5 7588   5.075   8.475   0.563 -0.0049  0.2165  0.2441
   18CHTO   H18 7589   5.030   8.418   0.644  1.1128  0.2941  0.9212
   18CHTO   C16 7590   5.076   8.624   0.608  0.3947 -0.3575  0.4263
   18CHTO   O11 7591   5.169   8.716   0.550  0.0472 -0.2473 -0.3427
   18CHTO    H5 7592   5.148   8.731   0.460 -1.6134 -3.2215 -0.5102
   18CHTO    O3 7593   5.362   8.253   0.579  0.3301 -0.4469 -0.0229
   18CHTO    C6 7594   5.401   8.207   0.710 -0.4575  0.4336 -0.7901
   18CHTO   H19 7595   5.316   8.221   0.776 -0.7251  0.0683 -1.0539
   18CHTO    C8 7596   5.431   8.055   0.726 -0.2620 -0.0004 -0.2286
   18CHTO   H21 7597   5.489   8.027   0.638 -0.0497  0.3400 -0.1960
   18CHTO    O7 7598   5.305   7.984   0.709  1.3854 -0.1317 -0.0321
   18CHTO    H2 7599   5.307   7.894   0.735  0.3005 -0.8278 -2.2230
   18CHTO   C12 7600   5.507   8.007   0.856  0.5011  1.0330 -0.1334
   18CHTO   H25 7601   5.436   8.011   0.941  0.7883  0.5729  0.1287
   18CHTO    N3 7602   5.563   7.865   0.839  0.0059 -0.6319 -1.1497
   18CHTO   H12 7603   5.574   7.811   0.932  0.7214  0.4266 -0.6124
   18CHTO   H13 7604   5.639   7.860   0.762  0.4056  1.8291 -0.9393
   18CHTO   C15 7605   5.622   8.114   0.893  0.2236  0.1925 -0.4584
   18CHTO   H28 7606   5.711   8.105   0.830  2.7034  1.3050  2.7237
   18CHTO   O10 7607   5.668   8.102   1.044  0.2651 -0.2043 -0.5049
   18CHTO    H4 7608   5.746   8.153   1.053  1.1270 -1.4084 -0.9600
   18CHTO    O5 7609   5.572   8.248   0.891  0.1407 -0.0753  0.2503
   18CHTO   C10 7610   5.516   8.292   0.763  0.1386 -0.2214  0.3480
   18CHTO   H23 7611   5.589   8.291   0.682  2.0438 -3.5454  1.9809
   18CHTO   C17 7612   5.471   8.437   0.783 -0.7120  0.3253 -0.1226
   18CHTO   O12 7613   5.579   8.524   0.830  0.0389  0.0949  0.1023
   18CHTO    H6 7614   5.545   8.586   0.891 -1.2810 -0.0623 -0.4558
   19CHTO  H203 7615   4.946  10.300  -0.100 -0.2019  1.9672  0.7054
   19CHTO   O82 7616   4.859  10.322  -0.126 -0.9761 -0.5708  1.0422
   19CHTO  C123 7617   4.806  10.202  -0.187 -0.7295  0.0047  0.9200
   19CHTO  H227 7618   4.721  10.238  -0.247  0.0183  2.5842  1.3399
   19CHTO   O77 7619   4.914  10.148  -0.277 -0.1323 -0.3551  0.2124
   19CHTO  C118 7620   4.870  10.052  -0.375 -1.0546 -0.2292 -0.0769
   19CHTO  H222 7621   4.795  10.101  -0.439 -0.2078 -0.9992 -1.7048
   19CHTO  C125 7622   4.987  10.013  -0.463 -0.0166  0.0284  0.9197
   19CHTO   O84 7623   5.100   9.955  -0.393 -0.3878  0.4583 -0.1623
   19CHTO  H205 7624   5.076   9.910  -0.314 -2.1420  0.6765 -0.5454
   19CHTO  C114 7625   4.817   9.936  -0.298 -0.4076  0.9990  0.3991
   19CHTO  H218 7626   4.894   9.897  -0.232  0.4540  1.7256 -0.1709
   19CHTO  C116 7627   4.705   9.976  -0.196 -0.0902  0.2323 -0.4340
   19CHTO  H220 7628   4.623  10.024  -0.252 -1.2648 -1.0930  0.1194
   19CHTO   O79 7629   4.643   9.858  -0.137  0.3465 -0.1556  0.0463
   19CHTO  H201 7630   4.549   9.854  -0.135  0.2227  2.3650  3.4574
   19CHTO  C120 7631   4.760  10.083  -0.094 -0.2531  0.0581 -0.1854
   19CHTO  H224 7632   4.841  10.039  -0.031 -0.0519  1.1754  0.3471
   19CHTO   N21 7633   4.664  10.124   0.015 -0.4545 -0.6940  0.3323
   19CHTO  H211 7634   4.564  10.087   0.003 -1.0301  0.7458  0.6181
   19CHTO  H212 7635   4.671  10.231   0.028  1.6217 -0.8455  0.6741
   19CHTO   O75 7636   4.773   9.832  -0.390 -0.1110 -0.3039  0.4045
   19CHTO  C112 7637   4.790   9.673  -0.325 -0.4341 -0.9266 -0.0976
   19CHTO  H216 7638   4.771   9.664  -0.217  1.3016 -0.9132  0.2184
   19CHTO   O73 7639   4.925   9.640  -0.354  0.1841 -0.2802 -0.1799
   19CHTO  C113 7640   4.971   9.505  -0.322 -0.2534 -0.3138 -0.3073
   19CHTO  H217 7641   4.949   9.480  -0.216  1.3359  0.3410  0.2058
   19CHTO  C124 7642   5.117   9.501  -0.356  0.0160 -1.4817 -0.0671
   19CHTO   O83 7643   5.201   9.523  -0.242 -0.4551 -0.8430 -0.2346
   19CHTO  H204 7644   5.292   9.520  -0.263 -0.5494 -0.6060 -0.6834
   19CHTO  C109 7645   4.883   9.408  -0.405 -0.1936 -0.3818 -0.1313
   19CHTO  H213 7646   4.907   9.434  -0.509 -1.4024 -2.2087 -0.8773
   19CHTO  C110 7647   4.732   9.429  -0.382  0.0510 -0.6900  0.2903
   19CHTO  H214 7648   4.697   9.392  -0.286 -0.6074 -2.1006 -0.4593
   19CHTO   O78 7649   4.646   9.344  -0.467 -0.0026 -0.0241  0.1203
   19CHTO  H200 7650   4.669   9.258  -0.438 -0.0517 -0.0088  0.2034
   19CHTO  C111 7651   4.697   9.579  -0.410 -0.1202 -0.2251 -0.0588
   19CHTO  H215 7652   4.711   9.598  -0.517  0.7315 -2.4799 -0.3890
   19CHTO   N19 7653   4.559   9.617  -0.378  0.4030  0.1646 -0.1333
   19CHTO  H207 7654   4.539   9.715  -0.420  1.2834 -0.0880 -1.1614
   19CHTO  H208 7655   4.486   9.544  -0.407 -0.0847  0.6453 -0.1205
   19CHTO   O74 7656   4.929   9.278  -0.378  0.1546  0.0412  0.7407
   19CHTO  C115 7657   4.899   9.183  -0.516  0.2372  0.8599 -0.4383
   19CHTO  H219 7658   4.803   9.211  -0.562  0.1992  2.2273  0.4516
   19CHTO   O76 7659   5.013   9.209  -0.638  1.0257  0.1369  0.0099
   19CHTO  C122 7660   5.134   9.147  -0.590 -1.0343  0.4478 -0.4618
   19CHTO  H226 7661   5.179   9.186  -0.499 -1.7667  1.6772 -0.6017
   19CHTO  C126 7662   5.242   9.175  -0.696 -0.1392  0.2623 -0.7317
   19CHTO   O85 7663   5.371   9.176  -0.646  0.0374 -0.2306  0.9434
   19CHTO  H206 7664   5.432   9.237  -0.681 -1.0488  2.0342  2.8252
   19CHTO  C121 7665   5.118   8.983  -0.571  0.2912 -0.0765  0.0894
   19CHTO  H225 7666   5.168   8.928  -0.654 -0.4062  1.5588 -1.4644
   19CHTO   O81 7667   5.189   8.946  -0.460  0.2655  0.8601  0.0565
   19CHTO  H202 7668   5.177   8.859  -0.428 -1.5510  1.4147  0.9233
   19CHTO  C119 7669   4.969   8.940  -0.555  0.1849 -0.2317  0.3035
   19CHTO  H223 7670   4.920   8.956  -0.651  0.6071 -0.1821  0.0914
   19CHTO  C117 7671   4.889   9.030  -0.466 -0.1264 -0.0188  0.3001
   19CHTO  H221 7672   4.926   9.027  -0.364  0.7346 -1.3931 -0.0325
   19CHTO   N20 7673   4.752   8.985  -0.442  0.0400  0.3931  0.1046
   19CHTO  H209 7674   4.716   8.900  -0.498 -1.2641  0.1108  1.3188
   19CHTO  H210 7675   4.704   9.001  -0.346  1.4040  2.6954  0.4431
   19CHTO   O80 7676   4.955   8.765  -0.523 -0.2224 -0.0491 -0.8796
   19CHTO  C103 7677   4.995   8.668  -0.642  0.0647  0.3421 -0.6313
   19CHTO  H190 7678   5.047   8.717  -0.724  0.3386  0.6010 -0.3045
   19CHTO  C101 7679   5.069   8.538  -0.593 -0.8144 -0.5747 -0.7759
   19CHTO  H188 7680   5.043   8.523  -0.488 -3.8759 -1.7003 -1.6364
   19CHTO   O68 7681   5.222   8.585  -0.596 -0.8335  0.0145 -0.1680
   19CHTO  H168 7682   5.266   8.530  -0.535 -0.3853 -1.1328 -1.4857
   19CHTO   C99 7683   5.046   8.394  -0.675 -0.6172 -1.0871  0.0050
   19CHTO  H186 7684   5.115   8.408  -0.760 -1.3891  2.5454 -0.0810
   19CHTO   N17 7685   5.087   8.272  -0.604  0.4547 -0.0009  0.3832
   19CHTO  H174 7686   5.174   8.298  -0.546 -0.8264  1.9613  1.4652
   19CHTO  H175 7687   5.118   8.201  -0.680 -1.4823 -0.2099 -0.2474
   19CHTO   C97 7688   4.900   8.393  -0.739  0.7169 -0.4641  0.6390
   19CHTO  H184 7689   4.821   8.361  -0.670 -0.8432  2.3408  0.2229
   19CHTO   O64 7690   4.868   8.519  -0.799 -0.2854  0.1923  0.1202
   19CHTO  C104 7691   4.848   8.622  -0.701  0.6852  0.6358 -0.7207
   19CHTO  H191 7692   4.786   8.582  -0.621  1.3697  0.3780 -0.3114
   19CHTO  C108 7693   4.761   8.737  -0.765  0.4472  0.3697  0.0425
   19CHTO   O71 7694   4.634   8.697  -0.822  0.3272  0.6226 -0.2919
   19CHTO  H171 7695   4.649   8.611  -0.857 -0.2664 -0.5861  2.3247
   19CHTO   O62 7696   4.896   8.298  -0.855  0.2502 -0.0192  0.1903
   19CHTO   C91 7697   4.791   8.202  -0.870  0.2522  0.1543  0.2577
   19CHTO  H178 7698   4.739   8.202  -0.774  1.2653 -2.6068  0.8296
   19CHTO   C92 7699   4.846   8.058  -0.901  0.1338  0.5847 -0.2881
   19CHTO  H179 7700   4.916   8.066  -0.986 -0.9437  1.4675 -1.1086
   19CHTO   O66 7701   4.927   8.021  -0.787 -0.3049 -0.1105 -0.1134
   19CHTO  H166 7702   4.953   7.933  -0.809  4.8171  0.9013  1.3115
   19CHTO   C93 7703   4.733   7.946  -0.928 -0.4704 -0.1566  0.1094
   19CHTO  H180 7704   4.672   7.943  -0.837  0.3861  2.5294  0.8236
   19CHTO   N16 7705   4.772   7.805  -0.965 -0.0960 -0.0034 -0.5957
   19CHTO  H172 7706   4.858   7.782  -0.903 -0.1000  1.4404 -0.0219
   19CHTO  H173 7707   4.693   7.732  -0.960 -0.7557  0.5800 -2.2252
   19CHTO   C94 7708   4.645   8.004  -1.044  0.4919 -0.8253 -0.4324
   19CHTO  H181 7709   4.700   8.011  -1.138 -2.1739 -0.1477 -2.0182
   19CHTO   O61 7710   4.598   8.132  -1.009  0.0106  0.1702 -0.0613
   19CHTO   C95 7711   4.695   8.238  -0.989  0.2187  0.7040 -0.2040
   19CHTO  H182 7712   4.761   8.245  -1.076 -1.1230 -0.2128 -1.3227
   19CHTO  C106 7713   4.623   8.371  -0.990 -0.1859  0.2516 -0.0371
   19CHTO   O69 7714   4.577   8.402  -1.123  0.2316 -0.3229 -0.0794
   19CHTO  H169 7715   4.651   8.404  -1.181 -0.0860 -1.4017 -0.5251
   19CHTO   O63 7716   4.520   7.904  -1.086 -0.0945 -0.1662 -0.0653
   19CHTO   C96 7717   4.404   7.975  -1.185 -0.0235 -0.2627  0.2090
   19CHTO  H183 7718   4.456   8.029  -1.263  0.5606 -1.4082 -0.1954
   19CHTO   C98 7719   4.309   8.091  -1.120 -0.0478 -0.2176 -0.4001
   19CHTO  H185 7720   4.366   8.154  -1.050 -3.1817  1.4925  0.6989
   19CHTO   O67 7721   4.267   8.177  -1.225  0.9425  0.0783 -0.3319
   19CHTO  H167 7722   4.345   8.225  -1.241  1.6024 -0.7660  0.3231
   19CHTO  C102 7723   4.183   8.028  -1.046 -0.2118  0.8508  0.0875
   19CHTO  H189 7724   4.101   8.100  -1.059 -0.9390 -0.3883 -2.6264
   19CHTO   N18 7725   4.199   8.014  -0.900 -0.4140 -0.2605  0.1484
   19CHTO  H176 7726   4.131   8.072  -0.840 -1.6581 -1.6865  0.1379
   19CHTO  H177 7727   4.303   8.033  -0.875 -0.0316 -0.0053 -1.5763
   19CHTO  C105 7728   4.129   7.899  -1.119 -0.8313  0.1695 -0.1748
   19CHTO  H192 7729   4.178   7.813  -1.074 -2.5825 -2.6513 -3.3648
   19CHTO   O65 7730   4.166   7.893  -1.252  0.2669  0.1446  0.4449
   19CHTO  C100 7731   4.307   7.868  -1.264 -0.4669  0.1752  0.1647
   19CHTO  H187 7732   4.324   7.763  -1.234  0.1731  0.1074 -0.4001
   19CHTO  C107 7733   4.329   7.863  -1.413 -0.0196  0.2455 -0.2760
   19CHTO   O70 7734   4.460   7.821  -1.440  0.4316 -0.6119 -0.7656
   19CHTO  H170 7735   4.529   7.878  -1.412 -0.2521  0.0551 -0.4218
   19CHTO   O57 7736   3.962   7.899  -1.088 -0.2439 -0.7970  0.1346
   19CHTO   C85 7737   3.882   7.778  -1.111  0.3396 -0.3231  0.0416
   19CHTO  H157 7738   3.950   7.692  -1.091 -0.7685 -1.4983 -1.1195
   19CHTO   C83 7739   3.835   7.756  -1.257  0.0311  0.1968 -0.1813
   19CHTO  H155 7740   3.924   7.742  -1.318 -0.1188 -1.1447 -0.1063
   19CHTO   O56 7741   3.770   7.881  -1.294 -0.3509 -0.1248 -0.3592
   19CHTO  H135 7742   3.677   7.875  -1.291 -0.4607  2.0939  1.3819
   19CHTO   C81 7743   3.749   7.629  -1.262  0.3955 -0.2054 -0.1676
   19CHTO  H153 7744   3.811   7.547  -1.226 -2.2079 -3.0821 -1.9766
   19CHTO   N14 7745   3.719   7.595  -1.396 -0.8534 -0.3055 -0.2804
   19CHTO  H141 7746   3.802   7.547  -1.444  0.8759  0.8774  1.4489
   19CHTO  H142 7747   3.676   7.674  -1.454 -0.1868 -0.1050 -0.5091
   19CHTO   C79 7748   3.627   7.643  -1.162  0.1661  0.3387 -0.4677
   19CHTO  H151 7749   3.570   7.550  -1.169 -0.1221  0.2275  2.6637
   19CHTO   O52 7750   3.674   7.666  -1.029  0.0724  0.6909 -0.1095
   19CHTO   C86 7751   3.765   7.777  -1.019 -0.2584  0.4094 -0.8123
   19CHTO  H158 7752   3.711   7.873  -1.033 -0.4776  0.3570 -0.3265
   19CHTO   C90 7753   3.808   7.779  -0.866 -0.1831 -0.6241  0.2586
   19CHTO   O60 7754   3.704   7.773  -0.763 -0.4814 -0.0923 -0.8580
   19CHTO  H138 7755   3.699   7.857  -0.720  0.4358 -0.3582 -0.2266
   19CHTO   O50 7756   3.530   7.738  -1.198  0.1839 -0.0707 -0.5664
   19CHTO   C73 7757   3.393   7.781  -1.212  0.1106 -0.0074  0.4130
   19CHTO  H145 7758   3.329   7.710  -1.158  1.3669 -0.6777  1.0661
   19CHTO   C74 7759   3.353   7.792  -1.359  0.1288 -0.0899 -0.0965
   19CHTO  H146 7760   3.367   7.701  -1.420 -0.5991 -0.5488  0.4134
   19CHTO   O54 7761   3.208   7.807  -1.358  0.2816  0.9553 -0.1143
   19CHTO  H133 7762   3.167   7.747  -1.417  0.2728 -0.1863  1.0292
   19CHTO   C75 7763   3.431   7.918  -1.420 -0.2441  0.1696  0.2206
   19CHTO  H147 7764   3.539   7.899  -1.421  0.0182  1.5893  0.7834
   19CHTO   N13 7765   3.398   7.963  -1.559  0.2783 -0.0423 -0.0327
   19CHTO  H139 7766   3.293   7.942  -1.571  0.7155 -2.3917  0.1357
   19CHTO  H140 7767   3.443   7.900  -1.634  0.6775 -0.3024  0.4260
   19CHTO   C76 7768   3.430   8.050  -1.319 -0.1580 -0.1791  0.8091
   19CHTO  H148 7769   3.333   8.099  -1.332  0.6375  0.6921 -2.2992
   19CHTO   O49 7770   3.457   8.016  -1.181 -0.8067  0.0310 -0.0090
   19CHTO   C77 7771   3.370   7.912  -1.131  0.1884  0.4507  0.3345
   19CHTO  H149 7772   3.269   7.950  -1.147 -0.2380  0.0717  1.9722
   19CHTO   C88 7773   3.390   7.881  -0.981  0.8784  0.7479  0.1644
   19CHTO   O58 7774   3.319   7.990  -0.880  0.6963 -0.5790 -0.4420
   19CHTO  H136 7775   3.230   7.968  -0.859  0.4713  0.1340 -0.6658
   19CHTO   O51 7776   3.541   8.148  -1.361  0.1507  0.5368  0.0054
   19CHTO   C78 7777   3.544   8.295  -1.297  0.3220 -0.0992 -0.7594
   19CHTO  H150 7778   3.487   8.310  -1.203 -0.2752  1.3183 -1.3319
   19CHTO   C80 7779   3.500   8.400  -1.407 -0.4946  0.0689  0.3875
   19CHTO  H152 7780   3.547   8.369  -1.503 -4.3778  1.2487 -1.9853
   19CHTO   O55 7781   3.363   8.382  -1.430  0.3634  0.1610  0.1178
   19CHTO  H134 7782   3.316   8.438  -1.371  0.3885  0.2553  0.0475
   19CHTO   C84 7783   3.546   8.550  -1.388 -0.4611 -0.3921  1.0922
   19CHTO  H156 7784   3.480   8.585  -1.308  1.0553  2.1203  1.2927
   19CHTO   N15 7785   3.523   8.640  -1.504  0.3256  0.2330 -0.2119
   19CHTO  H143 7786   3.455   8.717  -1.475  0.9218  1.5563 -2.2329
   19CHTO  H144 7787   3.480   8.577  -1.579 -1.0086 -0.9231  1.4775
   19CHTO   C87 7788   3.687   8.560  -1.332 -0.3505  0.1516 -0.7723
   19CHTO  H159 7789   3.772   8.553  -1.401  2.2162 -0.5783  2.3521
   19CHTO   O53 7790   3.718   8.448  -1.210 -0.6593 -0.1214  0.7777
   19CHTO   C82 7791   3.690   8.316  -1.262  0.0885 -0.0835  0.5352
   19CHTO  H154 7792   3.754   8.293  -1.347  0.6578 -2.9285  1.6821
   19CHTO   C89 7793   3.737   8.212  -1.153  0.1379 -0.0178 -0.1670
   19CHTO   O59 7794   3.866   8.234  -1.093  0.5467  0.5603  0.6863
   19CHTO  H137 7795   3.932   8.253  -1.157 -1.0684 -1.0835 -1.5548
   19CHTO   O45 7796   3.711   8.718  -1.268 -0.0684  0.4556 -0.7638
   19CHTO   C67 7797   3.663   8.716  -1.130 -0.0035 -0.0602  0.0589
   19CHTO  H124 7798   3.594   8.634  -1.109 -1.8124  1.6107  0.7611
   19CHTO   C65 7799   3.775   8.723  -1.020 -0.2298  0.0385 -0.5657
   19CHTO  H122 7800   3.866   8.709  -1.078  1.1515  2.1397  1.0404
   19CHTO   O44 7801   3.767   8.615  -0.931  0.4762  0.3342  0.3076
   19CHTO  H102 7802   3.778   8.537  -0.981 -2.3243  0.8008 -1.1025
   19CHTO   C63 7803   3.787   8.860  -0.951 -0.0654 -0.5549 -1.1635
   19CHTO  H120 7804   3.805   8.939  -1.024  0.7093  2.7627  2.4319
   19CHTO   N11 7805   3.910   8.881  -0.868 -0.1186  0.2374  0.1001
   19CHTO  H108 7806   3.916   8.984  -0.838  0.0925 -0.1722  1.4687
   19CHTO  H109 7807   3.918   8.810  -0.789 -0.4361 -0.5019 -0.5316
   19CHTO   C61 7808   3.647   8.891  -0.880  0.1619  0.1684 -0.3362
   19CHTO  H118 7809   3.653   9.000  -0.868  2.1508 -0.1048  1.5939
   19CHTO   O40 7810   3.539   8.866  -0.973  0.3960  0.3932 -0.0353
   19CHTO   C68 7811   3.566   8.844  -1.115  0.3938  0.6835 -0.4370
   19CHTO  H125 7812   3.625   8.925  -1.163  2.4409 -2.2057 -3.0519
   19CHTO   C72 7813   3.435   8.833  -1.195 -1.0104 -0.1610 -0.6830
   19CHTO   O48 7814   3.349   8.721  -1.163  0.0418  0.2273 -0.3392
   19CHTO  H105 7815   3.316   8.720  -1.075 -0.2843 -0.5315 -0.4687
   19CHTO   O38 7816   3.624   8.825  -0.753  0.5089  0.4361 -0.6154
   19CHTO   C55 7817   3.494   8.857  -0.688 -0.4080  0.2965 -0.1043
   19CHTO  H112 7818   3.422   8.894  -0.761  2.1733  2.2519 -1.7631
   19CHTO   C56 7819   3.513   8.967  -0.579  0.8376 -0.4814 -0.4464
   19CHTO  H113 7820   3.596   8.947  -0.510 -1.8234  0.7841  3.2609
   19CHTO   O42 7821   3.555   9.095  -0.628  0.3449  0.2519  0.6112
   19CHTO  H100 7822   3.476   9.125  -0.668 -0.4800 -2.5584  0.0306
   19CHTO   C57 7823   3.378   8.993  -0.496  0.5432  0.9181 -0.5765
   19CHTO  H114 7824   3.314   9.052  -0.562  0.2467  0.6708 -0.5140
   19CHTO   N10 7825   3.399   9.071  -0.372  1.2287  0.6163 -0.0712
   19CHTO  H106 7826   3.425   9.173  -0.397 -1.6000  1.4477  0.2893
   19CHTO  H107 7827   3.474   9.034  -0.304  0.2146  1.2076  1.4074
   19CHTO   C58 7828   3.301   8.861  -0.464 -0.0849  0.2538  0.3172
   19CHTO  H115 7829   3.344   8.811  -0.375 -0.5593  1.0611  1.0030
   19CHTO   O37 7830   3.305   8.764  -0.570  0.3179  0.2079 -0.0984
   19CHTO   C59 7831   3.428   8.730  -0.621 -0.4000 -0.0451 -0.2009
   19CHTO  H116 7832   3.497   8.695  -0.545 -0.7728  1.8262  1.0362
   19CHTO   C70 7833   3.404   8.626  -0.729  0.2388  0.1174  0.4204
   19CHTO   O46 7834   3.513   8.540  -0.757  0.4358 -0.0552  0.2344
   19CHTO  H103 7835   3.499   8.458  -0.713 -0.6170 -1.0339 -1.8683
   19CHTO   O39 7836   3.135   8.883  -0.441  0.3507  0.1310  0.0218
   19CHTO   C60 7837   3.044   8.873  -0.552 -0.8237 -0.1292 -0.3042
   19CHTO  H117 7838   3.102   8.872  -0.645  1.2837  0.2968  0.9717
   19CHTO   C62 7839   2.975   8.733  -0.555 -0.0628  0.2205  0.1034
   19CHTO  H119 7840   3.054   8.655  -0.568  0.2706  0.5320  0.2397
   19CHTO   O43 7841   2.891   8.704  -0.433  0.2376 -0.1019 -0.0583
   19CHTO  H101 7842   2.883   8.612  -0.415 -2.6346  0.4234  1.5771
   19CHTO   C66 7843   2.885   8.740  -0.694  0.0696  0.6542 -0.3565
   19CHTO  H123 7844   2.954   8.750  -0.778  0.8421 -1.7758 -0.0444
   19CHTO   N12 7845   2.832   8.601  -0.716  0.1595  0.1781  0.2104
   19CHTO  H110 7846   2.865   8.567  -0.813  0.9284 -3.0323  1.5468
   19CHTO  H111 7847   2.724   8.596  -0.711 -0.1287  3.7011 -1.0663
   19CHTO   C69 7848   2.785   8.860  -0.681 -0.4140 -0.2212 -0.5033
   19CHTO  H126 7849   2.723   8.851  -0.590  0.2958 -2.8606 -0.2383
   19CHTO   O41 7850   2.866   8.989  -0.673  0.4525  0.0530 -0.5089
   19CHTO   C64 7851   2.949   8.996  -0.548  0.2891 -0.5166 -0.2248
   19CHTO  H121 7852   2.879   8.982  -0.463 -0.3065  0.4582 -0.5518
   19CHTO   C71 7853   3.030   9.125  -0.538  0.1502 -0.2976 -0.3836
   19CHTO   O47 7854   2.944   9.239  -0.551  0.5461 -0.2367 -0.4542
   19CHTO  H104 7855   2.965   9.312  -0.495  0.2060 -0.8849  0.5265
   19CHTO   O34 7856   2.698   8.880  -0.806 -0.2152  0.6094 -0.6089
   19CHTO   C49 7857   2.709   8.912  -0.966 -0.0444 -0.3779  0.7932
   19CHTO   H91 7858   2.708   9.019  -0.990  1.0439 -0.9656 -2.1171
   19CHTO   C47 7859   2.588   8.851  -1.042  0.4064 -0.5948 -0.9069
   19CHTO   H89 7860   2.605   8.892  -1.144  1.5315 -0.5294 -0.7028
   19CHTO   O33 7861   2.469   8.909  -0.990 -0.1364  0.3350 -0.0973
   19CHTO   H70 7862   2.420   8.853  -0.933  1.0518  1.3794  2.0226
   19CHTO   C45 7863   2.596   8.691  -1.036 -0.5657 -0.2027 -0.4763
   19CHTO   H87 7864   2.597   8.673  -0.927 -0.0299 -1.0498 -0.6107
   19CHTO    N8 7865   2.477   8.624  -1.089  0.1609 -0.1167 -0.0772
   19CHTO   H75 7866   2.382   8.638  -1.039 -0.0523  0.9781 -0.7879
   19CHTO   H76 7867   2.473   8.652  -1.193 -3.0965 -0.7143 -0.1772
   19CHTO   C43 7868   2.739   8.637  -1.094 -0.1867 -0.5490 -0.1085
   19CHTO   H85 7869   2.745   8.529  -1.079 -1.1975 -0.6589 -0.4662
   19CHTO   O29 7870   2.854   8.712  -1.037 -0.1630 -0.3431  0.2265
   19CHTO   C50 7871   2.840   8.854  -1.028  0.5647  0.8751 -0.4973
   19CHTO   H92 7872   2.918   8.890  -0.960 -1.0176  2.9571  0.2552
   19CHTO   C54 7873   2.886   8.913  -1.163 -0.1265  0.0781 -0.1080
   19CHTO   O36 7874   3.027   8.893  -1.185  0.2014  0.2561  0.4290
   19CHTO   H72 7875   3.078   8.962  -1.148  2.3419 -0.9444 -0.1696
   19CHTO   O27 7876   2.745   8.652  -1.242  0.0968 -0.0964  0.3607
   19CHTO   C37 7877   2.774   8.575  -1.353  0.4525  0.4058  0.6919
   19CHTO   H79 7878   2.757   8.469  -1.327  1.3189  0.0467 -0.2021
   19CHTO   C38 7879   2.692   8.617  -1.483  0.3390  0.4048 -0.5309
   19CHTO   H80 7880   2.695   8.726  -1.498  2.0537  0.3916 -0.4238
   19CHTO   O31 7881   2.558   8.576  -1.464 -0.8045 -0.2050 -0.2494
   19CHTO   H68 7882   2.549   8.485  -1.440 -0.6157  0.1623  1.2825
   19CHTO   C39 7883   2.752   8.549  -1.607 -1.3810  0.1609 -0.9345
   19CHTO   H81 7884   2.728   8.443  -1.612 -2.1065  0.1365  2.1885
   19CHTO    N7 7885   2.690   8.610  -1.735  0.1047  0.0685 -0.0779
   19CHTO   H73 7886   2.582   8.616  -1.734  0.0843 -0.0388 -0.9904
   19CHTO   H74 7887   2.729   8.569  -1.827  0.9577  0.6050  0.0496
   19CHTO   C40 7888   2.907   8.566  -1.616  0.1153  0.0020  0.4653
   19CHTO   H82 7889   2.923   8.674  -1.626 -1.2903  0.1174 -0.7970
   19CHTO   O26 7890   2.964   8.515  -1.496  0.4066  0.4223 -0.3200
   19CHTO   C41 7891   2.924   8.592  -1.374  0.4966 -0.3579  0.5063
   19CHTO   H83 7892   2.953   8.695  -1.398  0.6844 -0.3842  0.6238
   19CHTO   C52 7893   3.014   8.550  -1.253 -0.1030  0.3048 -0.6574
   19CHTO   O35 7894   3.149   8.569  -1.294  0.0211 -0.0212 -0.2069
   19CHTO   H71 7895   3.193   8.620  -1.229 -1.1876  0.8347 -0.0370
   19CHTO   O28 7896   2.958   8.496  -1.732 -0.3509 -0.5618  0.2008
   19CHTO   C42 7897   3.101   8.485  -1.750 -1.0390  0.1823  0.3197
   19CHTO   H84 7898   3.142   8.488  -1.649  1.8375  2.3890 -0.8403
   19CHTO   C44 7899   3.169   8.605  -1.829 -0.0544 -0.4874 -0.6612
   19CHTO   H86 7900   3.130   8.606  -1.931  0.0233 -1.4095 -0.7010
   19CHTO   O32 7901   3.141   8.731  -1.765 -0.2137 -0.0842 -0.0472
   19CHTO   H69 7902   3.063   8.766  -1.804  1.1051  0.2227 -2.4848
   19CHTO   C48 7903   3.331   8.585  -1.836  0.2552  0.1565  0.7780
   19CHTO   H90 7904   3.370   8.595  -1.735 -0.7491  1.1047  1.0733
   19CHTO    N9 7905   3.403   8.688  -1.920 -0.0791 -0.5872  0.3138
   19CHTO   H77 7906   3.471   8.744  -1.857 -0.3186 -0.0619  0.1085
   19CHTO   H78 7907   3.461   8.642  -1.999 -1.4985 -2.0298  0.1010
   19CHTO   C51 7908   3.366   8.442  -1.888 -0.0413 -0.5137  0.1454
   19CHTO   H93 7909   3.340   8.424  -1.992 -2.3144 -0.5719  0.6860
   19CHTO   O30 7910   3.304   8.346  -1.803 -0.4230 -0.1534 -0.0267
   19CHTO   C46 7911   3.142   8.351  -1.812 -0.1468 -0.3671 -0.5226
   19CHTO   H88 7912   3.107   8.357  -1.915 -0.9992 -0.0304 -0.2135
   19CHTO   C53 7913   3.066   8.237  -1.733  0.1807  0.5010 -0.3834
   19CHTO   O72 7914   3.113   8.122  -1.794 -0.4909  0.0715  0.3003
   19CHTO  H199 7915   3.190   8.075  -1.769  0.4934  1.4123 -0.1674
   19CHTO   O22 7916   3.499   8.410  -1.853 -0.1671 -0.7170 -0.3306
   19CHTO   C31 7917   3.587   8.312  -1.932  0.5632  0.1453  0.0242
   19CHTO   H59 7918   3.521   8.224  -1.948  0.6200  0.1836 -0.4322
   19CHTO   C29 7919   3.630   8.357  -2.074 -0.2422  0.2964  0.3497
   19CHTO   H57 7920   3.677   8.457  -2.067 -0.8677  0.5456  1.0801
   19CHTO   O21 7921   3.512   8.380  -2.152  0.1755  0.1167 -0.5310
   19CHTO   H37 7922   3.469   8.458  -2.123 -1.9443 -0.6313 -1.5780
   19CHTO   C27 7923   3.718   8.248  -2.150 -1.0372  0.5326 -0.3869
   19CHTO   H55 7924   3.657   8.160  -2.176 -1.4540  0.1364  1.8603
   19CHTO    N5 7925   3.769   8.304  -2.275  0.2029 -0.6341 -0.0827
   19CHTO   H43 7926   3.852   8.370  -2.256  0.1255  0.5053 -3.5043
   19CHTO   H44 7927   3.689   8.352  -2.329 -1.6746 -1.4020  1.9406
   19CHTO   C25 7928   3.839   8.194  -2.056 -0.1656 -0.2286 -0.1858
   19CHTO   H53 7929   3.913   8.274  -2.043 -1.5448  1.3878 -2.1060
   19CHTO   O17 7930   3.781   8.162  -1.924 -0.2614  0.5039 -0.1926
   19CHTO   C32 7931   3.712   8.264  -1.855 -0.1657  0.3915 -0.2605
   19CHTO   H60 7932   3.777   8.349  -1.838  2.4185 -1.4395 -0.6187
   19CHTO   C36 7933   3.667   8.210  -1.715  0.2181 -0.3934 -0.2681
   19CHTO   O25 7934   3.766   8.242  -1.619 -0.3603 -0.0712 -0.0324
   19CHTO   H40 7935   3.724   8.293  -1.552 -1.2067  0.1920 -0.7462
   19CHTO   O15 7936   3.924   8.080  -2.109  0.3329  0.1855 -0.1427
   19CHTO   C19 7937   3.999   7.995  -2.194 -0.2344 -0.2390 -0.1018
   19CHTO   H47 7938   3.957   8.007  -2.295  2.5780 -0.9843 -1.4211
   19CHTO   C20 7939   4.149   8.034  -2.195 -0.7777 -0.5417  0.4736
   19CHTO   H48 7940   4.198   8.017  -2.098 -2.3678 -2.0222  1.0523
   19CHTO   O19 7941   4.164   8.178  -2.229 -0.1741 -0.2683  0.4117
   19CHTO   H35 7942   4.158   8.241  -2.160  1.3311  1.8961 -1.3474
   19CHTO   C21 7943   4.223   7.942  -2.299 -0.4061 -0.5486  0.0956
   19CHTO   H49 7944   4.193   7.975  -2.399 -0.6619 -1.6084 -0.1832
   19CHTO    N4 7945   4.376   7.952  -2.298  0.7393  0.6065 -0.0874
   19CHTO   H41 7946   4.406   7.880  -2.224  1.5232 -0.2484 -1.2202
   19CHTO   H42 7947   4.408   8.051  -2.268  1.0211  0.1522  1.1056
   19CHTO   C22 7948   4.184   7.792  -2.282 -0.4114 -0.2788 -0.3945
   19CHTO   H50 7949   4.235   7.744  -2.199 -0.7728  0.0709  0.0352
   19CHTO   O14 7950   4.042   7.774  -2.258 -0.2979 -0.2448  0.2683
   19CHTO   C23 7951   3.980   7.850  -2.152  0.1978 -0.7649  0.2462
   19CHTO   H51 7952   4.028   7.831  -2.055  1.5947 -0.8347 -0.4391
   19CHTO   C34 7953   3.830   7.813  -2.158  0.1426  0.3093 -0.3980
   19CHTO   O23 7954   3.796   7.669  -2.150 -0.4262  0.3484 -0.3191
   19CHTO   H38 7955   3.725   7.664  -2.089 -0.1771  1.9358  0.1264
   19CHTO   O16 7956   4.202   7.712  -2.404 -0.2797 -0.5312 -0.1190
   19CHTO   C24 7957   4.240   7.554  -2.376 -0.4075  0.1976  0.2528
   19CHTO   H52 7958   4.203   7.520  -2.279 -0.8726  0.9548  0.3377
   19CHTO   C26 7959   4.399   7.536  -2.385  0.9307  0.5481  0.0466
   19CHTO   H54 7960   4.431   7.584  -2.480  0.5871 -0.3837 -0.5389
   19CHTO   O20 7961   4.454   7.605  -2.272 -0.3817  0.2875 -1.0142
   19CHTO   H36 7962   4.459   7.545  -2.200  1.4612  0.5304 -0.9316
   19CHTO   C30 7963   4.451   7.392  -2.393  0.6473  0.7512 -0.0271
   19CHTO   H58 7964   4.453   7.345  -2.294 -1.2365  3.5978  1.4146
   19CHTO    N6 7965   4.597   7.384  -2.431 -0.5612 -0.1298  0.1915
   19CHTO   H45 7966   4.616   7.299  -2.495  1.4336 -0.4777  1.2204
   19CHTO   H46 7967   4.624   7.473  -2.486  1.4347 -0.2527  0.9509
   19CHTO   C33 7968   4.364   7.310  -2.490  0.3003  0.7743  0.8509
   19CHTO   H61 7969   4.384   7.341  -2.593 -0.9641  1.0992  0.6971
   19CHTO   O18 7970   4.222   7.334  -2.457  0.1789 -0.2094 -0.4126
   19CHTO   C28 7971   4.174   7.466  -2.488 -0.1839 -0.2882 -0.4574
   19CHTO   H56 7972   4.197   7.507  -2.586 -0.3539 -0.1901 -0.4551
   19CHTO   C35 7973   4.019   7.470  -2.479  0.3804  0.0711 -0.7262
   19CHTO   O24 7974   3.952   7.381  -2.563  0.3322 -0.2917  0.4597
   19CHTO   H39 7975   3.859   7.397  -2.566  0.3302 -0.5563 -0.9300
   19CHTO    O9 7976   4.398   7.172  -2.467  0.3781  0.4607  0.7329
   19CHTO   C13 7977   4.323   7.046  -2.563 -0.2699 -0.2907 -0.0216
   19CHTO   H26 7978   4.308   7.085  -2.666  1.3247  0.8044  0.1490
   19CHTO   C11 7979   4.175   7.019  -2.495 -0.0745  0.0203  0.4698
   19CHTO   H24 7980   4.117   7.112  -2.509  0.8171  0.6521  0.9331
   19CHTO    O8 7981   4.186   7.002  -2.351  0.1952  0.0563 -0.2910
   19CHTO    H3 7982   4.220   6.921  -2.316 -0.1668  0.6900  1.5708
   19CHTO    C9 7983   4.101   6.897  -2.565 -0.6450  0.0352 -0.3724
   19CHTO   H22 7984   4.096   6.931  -2.670  0.9927  0.7649 -0.2321
   19CHTO    N2 7985   3.957   6.887  -2.515  1.0758  0.2312 -0.2705
   19CHTO   H10 7986   3.890   6.933  -2.586  0.3881 -2.9241 -1.7345
   19CHTO   H11 7987   3.936   6.921  -2.415  0.5867 -0.0290 -0.2883
   19CHTO    C7 7988   4.190   6.766  -2.553  0.7084  0.4674 -0.6920
   19CHTO   H20 7989   4.141   6.697  -2.625 -1.1838  0.9135  0.1345
   19CHTO    O4 7990   4.326   6.788  -2.591  0.8592  0.2555 -0.1232
   19CHTO   C14 7991   4.401   6.914  -2.569  0.1548  1.1592 -0.0387
   19CHTO   H27 7992   4.467   6.924  -2.657  0.5510  2.0917  0.3617
   19CHTO   C18 7993   4.486   6.889  -2.443  0.3477  0.5453 -0.0759
   19CHTO   O13 7994   4.584   6.788  -2.469 -0.0636  0.0726 -0.1811
   19CHTO    H7 7995   4.631   6.816  -2.545 -2.8051  1.0215 -1.6302
   19CHTO    O2 7996   4.182   6.691  -2.397 -0.3500 -0.0697 -0.7589
   19CHTO    C1 7997   4.155   6.552  -2.403 -0.2206 -0.1905 -0.5763
   19CHTO   H14 7998   4.186   6.504  -2.498 -0.4148  0.4756 -0.9776
   19CHTO    C2 7999   4.009   6.512  -2.384 -0.0376 -0.1345  0.0961
   19CHTO   H15 8000   3.975   6.564  -2.293 -0.4162  0.5422 -0.4248
   19CHTO    O6 8001   3.927   6.550  -2.497  0.2882  0.2822 -0.0739
   19CHTO    H1 8002   3.853   6.493  -2.501 -0.5190  1.1848  1.3453
   19CHTO    C3 8003   4.006   6.353  -2.359  0.6243  0.1344  0.2945
   19CHTO   H16 8004   4.024   6.295  -2.451 -2.6335 -0.6930  0.1135
   19CHTO    N1 8005   3.869   6.319  -2.306 -0.4232  0.6085 -0.7799
   19CHTO    H8 8006   3.791   6.383  -2.344 -0.8052  0.2315 -0.6395
   19CHTO    H9 8007   3.846   6.213  -2.309  0.2505  0.4683 -1.0303
   19CHTO    C4 8008   4.115   6.300  -2.252  0.0136  0.1010 -0.4059
   19CHTO   H17 8009   4.082   6.322  -2.150  4.5509  1.9179  0.7776
   19CHTO    O1 8010   4.247   6.352  -2.276 -0.0229  0.1988 -0.0614
   19CHTO    C5 8011   4.250   6.496  -2.291  0.5630 -0.0627  0.0075
   19CHTO   H18 8012   4.215   6.524  -2.192  0.2649  0.3125 -0.2002
   19CHTO   C16 8013   4.402   6.537  -2.310  0.3492  0.1399  0.1866
   19CHTO   O11 8014   4.484   6.489  -2.202 -0.2905  0.1759 -0.2641
   19CHTO    H5 8015   4.485   6.548  -2.128  0.0235  1.2054 -1.0718
   19CHTO    O3 8016   4.138   6.155  -2.276  0.4512  0.6875  0.0454
   19CHTO    C6 8017   4.137   6.052  -2.175 -0.2481  0.6940  0.6447
   19CHTO   H19 8018   4.170   6.098  -2.082 -0.3996  1.9477  0.0992
   19CHTO    C8 8019   3.990   5.996  -2.148  0.3312 -0.3129  0.4796
   19CHTO   H21 8020   3.945   5.970  -2.243  0.8821 -0.0134  0.1363
   19CHTO    O7 8021   3.914   6.092  -2.085  0.1098 -0.2872 -0.7181
   19CHTO    H2 8022   3.870   6.054  -2.011  1.8712 -0.5066  0.2435
   19CHTO   C12 8023   4.003   5.862  -2.061  0.1761 -0.3308  0.4420
   19CHTO   H25 8024   4.005   5.889  -1.954 -0.7276 -1.7809  0.8259
   19CHTO    N3 8025   3.870   5.794  -2.079 -0.3196 -0.1860 -0.2822
   19CHTO   H12 8026   3.890   5.713  -2.147  1.2953  1.8692 -2.3574
   19CHTO   H13 8027   3.825   5.769  -1.984  0.5844 -1.2508 -0.1294
   19CHTO   C15 8028   4.128   5.780  -2.096  0.2208 -0.5106 -0.0886
   19CHTO   H28 8029   4.120   5.723  -2.188 -3.4475 -0.8655  0.3760
   19CHTO   O10 8030   4.156   5.684  -1.995 -0.0519 -0.5032  0.1229
   19CHTO    H4 8031   4.080   5.656  -1.947 -0.7836  2.7327  0.9292
   19CHTO    O5 8032   4.239   5.863  -2.088 -0.1273 -0.3764 -0.0476
   19CHTO   C10 8033   4.240   5.945  -2.206 -0.1550 -0.4196 -0.4618
   19CHTO   H23 8034   4.221   5.887  -2.296  3.3914 -0.4682 -1.2413
   19CHTO   C17 8035   4.382   6.009  -2.210  0.2236  0.4356  0.4955
   19CHTO   O12 8036   4.403   6.076  -2.334  0.0431 -0.1567 -0.2607
   19CHTO    H6 8037   4.471   6.139  -2.319 -2.9369  2.8961  1.1093
   20CHTO  H203 8038   4.677   1.316   1.883  4.4613 -1.4845 -1.3808
   20CHTO   O82 8039   4.726   1.390   1.913  0.2746  1.0172 -0.4017
   20CHTO  C123 8040   4.800   1.463   1.812  0.4041 -0.2599  0.3302
   20CHTO  H227 8041   4.731   1.540   1.776 -1.7302 -1.1623  2.3733
   20CHTO   O77 8042   4.914   1.525   1.879  0.4008  0.3296 -0.3759
   20CHTO  C118 8043   4.996   1.601   1.792 -0.4419  0.4643  0.2188
   20CHTO  H222 8044   4.934   1.684   1.754  0.2576 -0.2569 -2.6259
   20CHTO  C125 8045   5.105   1.667   1.888 -0.3226  0.4512  0.5246
   20CHTO   O84 8046   5.062   1.769   1.977  0.3297  0.1678  0.7210
   20CHTO  H205 8047   4.978   1.749   2.013 -0.7386  2.8030 -0.1157
   20CHTO  C114 8048   5.057   1.517   1.672 -0.1939 -0.5757  0.1131
   20CHTO  H218 8049   5.111   1.433   1.715  0.8134 -0.7926 -1.5416
   20CHTO  C116 8050   4.948   1.448   1.590  0.5854 -1.1601 -0.5596
   20CHTO  H220 8051   4.898   1.533   1.538 -0.3640 -0.1784  1.8984
   20CHTO   O79 8052   5.006   1.358   1.496 -0.0998  0.0053 -0.3139
   20CHTO  H201 8053   4.947   1.286   1.487 -0.0889  0.0033 -0.3696
   20CHTO  C120 8054   4.849   1.376   1.690 -0.4535  0.1671 -0.1315
   20CHTO  H224 8055   4.910   1.290   1.723 -1.7995 -0.6516  0.2770
   20CHTO   N21 8056   4.730   1.310   1.623  0.0233  0.4881 -0.1302
   20CHTO  H211 8057   4.652   1.383   1.610  0.5210  1.4994  2.2251
   20CHTO  H212 8058   4.685   1.251   1.701 -0.4248  1.8328  0.6365
   20CHTO   O75 8059   5.132   1.622   1.609 -0.2306  0.1447 -1.0603
   20CHTO  C112 8060   5.236   1.587   1.500 -0.0796 -0.7744  1.0438
   20CHTO  H216 8061   5.227   1.481   1.470  1.4944 -0.4510 -0.7012
   20CHTO   O73 8062   5.366   1.621   1.540  0.1186 -0.2228 -0.7675
   20CHTO  C113 8063   5.469   1.642   1.444 -1.2414  0.1652 -1.4072
   20CHTO  H217 8064   5.489   1.557   1.375  2.0216 -0.4572  0.1937
   20CHTO  C124 8065   5.599   1.666   1.522 -0.1597 -0.3008 -0.1631
   20CHTO   O83 8066   5.714   1.717   1.457 -0.3451  0.0438  0.4376
   20CHTO  H204 8067   5.726   1.665   1.379  1.8963  3.2724 -1.4638
   20CHTO  C109 8068   5.424   1.763   1.360  0.1655  0.4197 -0.0548
   20CHTO  H213 8069   5.404   1.844   1.431  1.6103  0.2332  0.5838
   20CHTO  C110 8070   5.295   1.726   1.281  0.0912  0.1078 -0.4074
   20CHTO  H214 8071   5.302   1.646   1.207 -1.0329 -1.3530  1.0228
   20CHTO   O78 8072   5.254   1.841   1.203 -0.0501 -0.2925  0.3456
   20CHTO  H200 8073   5.312   1.857   1.131  0.0618  2.2592  0.9406
   20CHTO  C111 8074   5.182   1.683   1.381 -0.4731 -0.0032 -0.4046
   20CHTO  H215 8075   5.150   1.771   1.438 -0.8945 -1.0880  1.0713
   20CHTO   N19 8076   5.061   1.634   1.307 -0.0977 -0.0531  0.1956
   20CHTO  H207 8077   5.092   1.557   1.238  1.1571  0.3464  0.3098
   20CHTO  H208 8078   5.025   1.716   1.246 -3.1677 -1.8288 -0.4539
   20CHTO   O74 8079   5.527   1.810   1.269  0.1519 -0.2176 -0.3539
   20CHTO  C115 8080   5.576   1.966   1.270 -0.1301  0.4388 -0.2870
   20CHTO  H219 8081   5.515   2.021   1.342 -0.5223 -3.2570  2.3470
   20CHTO   O76 8082   5.724   1.976   1.333 -0.4732  0.2580 -0.2899
   20CHTO  C122 8083   5.830   1.962   1.234  0.5778  0.2700 -0.0048
   20CHTO  H226 8084   5.830   1.854   1.219  1.6118  0.3311 -0.4939
   20CHTO  C126 8085   5.960   1.989   1.309 -0.3256 -0.6497  0.4088
   20CHTO   O85 8086   6.067   1.955   1.226 -0.0856 -0.3940  0.1045
   20CHTO  H206 8087   6.094   2.028   1.175  2.5245 -1.8818 -0.7578
   20CHTO  C121 8088   5.825   2.054   1.105 -0.3699 -0.1040 -0.1807
   20CHTO  H225 8089   5.898   2.137   1.118 -2.4579  1.7273  0.1697
   20CHTO   O81 8090   5.868   1.966   1.001 -0.7909  0.1373  0.0184
   20CHTO  H202 8091   5.854   2.016   0.923 -1.9525 -2.1649 -1.2989
   20CHTO  C119 8092   5.686   2.122   1.090  0.4610 -0.5142  0.5647
   20CHTO  H223 8093   5.691   2.195   1.171  1.5742 -0.7307  0.6996
   20CHTO  C117 8094   5.569   2.024   1.122  0.3362 -0.1130 -0.1375
   20CHTO  H221 8095   5.565   1.935   1.059  1.9629 -1.6909  1.8954
   20CHTO   N20 8096   5.441   2.092   1.103  0.2133  0.2390 -0.1051
   20CHTO  H209 8097   5.361   2.023   1.125  2.1443 -1.4933  1.7591
   20CHTO  H210 8098   5.428   2.184   1.158 -0.4803  0.0781 -0.0069
   20CHTO   O80 8099   5.688   2.232   0.956  0.6922  0.0880  0.2476
   20CHTO  C103 8100   5.690   2.188   0.805  0.7604 -0.7080 -0.1660
   20CHTO  H190 8101   5.791   2.158   0.776  1.1093  0.6413 -0.3808
   20CHTO  C101 8102   5.577   2.088   0.760  0.0331 -0.5561  0.4291
   20CHTO  H188 8103   5.479   2.111   0.803 -0.5879 -2.3341  0.0257
   20CHTO   O68 8104   5.637   1.938   0.797 -0.3988  0.3160  0.1639
   20CHTO  H168 8105   5.650   1.922   0.888 -2.0244  0.4238  0.4183
   20CHTO   C99 8106   5.559   2.084   0.597 -0.9196  0.1161  0.2357
   20CHTO  H186 8107   5.652   2.044   0.552 -2.1746 -1.2209 -1.2328
   20CHTO   N17 8108   5.441   2.007   0.558 -0.1233 -0.1821 -0.2814
   20CHTO  H174 8109   5.352   2.045   0.605  1.0964 -0.0931  2.0210
   20CHTO  H175 8110   5.446   1.907   0.599  0.0644 -0.0010  0.1419
   20CHTO   C97 8111   5.543   2.228   0.541  0.6566  0.5005  0.4806
   20CHTO  H184 8112   5.446   2.266   0.578 -1.2580 -1.6152 -2.1078
   20CHTO   O64 8113   5.652   2.312   0.593  0.6952 -0.2903 -0.4802
   20CHTO  C104 8114   5.660   2.331   0.737  0.4091  0.0038 -0.4323
   20CHTO  H191 8115   5.570   2.374   0.782  1.5347 -0.3560  2.2717
   20CHTO  C108 8116   5.772   2.422   0.782  0.3340 -0.4767  0.2055
   20CHTO   O71 8117   5.756   2.551   0.721 -0.0864  0.5651  0.0098
   20CHTO  H171 8118   5.750   2.535   0.629 -0.1382  1.1782 -0.0939
   20CHTO   O62 8119   5.543   2.230   0.391  0.2161 -0.0392  0.6620
   20CHTO   C91 8120   5.491   2.358   0.330 -0.2698  0.8565 -0.3503
   20CHTO  H178 8121   5.487   2.431   0.410  0.2020  2.2567 -1.5754
   20CHTO   C92 8122   5.347   2.336   0.278  0.0240 -0.0284  0.0823
   20CHTO  H179 8123   5.346   2.260   0.198 -3.8954 -0.5940  0.5715
   20CHTO   O66 8124   5.268   2.282   0.383  0.0041  0.1171  0.4094
   20CHTO  H166 8125   5.247   2.345   0.449 -1.6196 -1.4055  1.4075
   20CHTO   C93 8126   5.278   2.462   0.210  0.3197 -0.3123  0.2906
   20CHTO  H180 8127   5.263   2.534   0.292 -1.7530  1.8147 -1.8646
   20CHTO   N16 8128   5.148   2.431   0.145  0.2511  0.4563  0.0381
   20CHTO  H172 8129   5.149   2.345   0.079 -0.6921  0.0671  0.5204
   20CHTO  H173 8130   5.099   2.508   0.088 -0.9143  0.0357  0.4647
   20CHTO   C94 8131   5.380   2.529   0.112  0.7941  0.1405  0.7612
   20CHTO  H181 8132   5.403   2.466   0.026 -0.2111  0.3104  0.3608
   20CHTO   O61 8133   5.503   2.554   0.184  0.2064 -0.3886 -0.3535
   20CHTO   C95 8134   5.569   2.434   0.223  0.2054  0.5630  0.1714
   20CHTO  H182 8135   5.578   2.363   0.141  1.8238  1.4766 -0.4695
   20CHTO  C106 8136   5.717   2.474   0.267 -0.4435  0.3050  0.3104
   20CHTO   O69 8137   5.710   2.538   0.396  0.2676 -0.5635  0.6645
   20CHTO  H169 8138   5.664   2.479   0.452 -0.3097  2.8077  3.8968
   20CHTO   O63 8139   5.333   2.677   0.080 -0.4301 -0.8219  0.1153
   20CHTO   C96 8140   5.357   2.735  -0.085 -0.1058 -0.1777  0.2682
   20CHTO  H183 8141   5.370   2.648  -0.148  0.4645  1.4916 -2.0012
   20CHTO   C98 8142   5.486   2.822  -0.097 -0.3304  0.4467  0.0748
   20CHTO  H185 8143   5.486   2.891  -0.012  1.3301  2.9613 -1.8948
   20CHTO   O67 8144   5.608   2.746  -0.080 -0.3128  0.1853  0.5562
   20CHTO  H167 8145   5.612   2.699   0.001  2.3063 -0.1112  0.2808
   20CHTO  C102 8146   5.500   2.904  -0.236 -0.0844 -0.8659 -0.0853
   20CHTO  H189 8147   5.516   2.825  -0.310 -3.7843 -0.3239 -1.5362
   20CHTO   N18 8148   5.608   3.012  -0.251  0.0874 -0.1222 -0.1734
   20CHTO  H176 8149   5.706   2.968  -0.246  0.2199  0.1410 -0.4825
   20CHTO  H177 8150   5.601   3.046  -0.353 -2.2169  2.5263  0.7932
   20CHTO  C105 8151   5.361   2.968  -0.265 -0.5674 -0.0080  0.5011
   20CHTO  H192 8152   5.337   3.048  -0.194 -1.6741  0.9987 -0.9606
   20CHTO   O65 8153   5.256   2.871  -0.260  0.7462  0.0313  0.6285
   20CHTO  C100 8154   5.238   2.825  -0.131 -0.1148  0.7902  0.4305
   20CHTO  H187 8155   5.217   2.914  -0.071 -1.9432 -0.1323  1.2207
   20CHTO  C107 8156   5.099   2.748  -0.144  0.2237  0.6874 -0.7034
   20CHTO   O70 8157   5.052   2.696  -0.022  1.0466  0.2713  0.8224
   20CHTO  H170 8158   5.116   2.635   0.008  1.2686 -0.6566 -1.4234
   20CHTO   O57 8159   5.353   3.028  -0.409  0.6314 -0.2565  0.3076
   20CHTO   C85 8160   5.282   3.141  -0.448  0.9758 -0.0742  0.3182
   20CHTO  H157 8161   5.282   3.221  -0.371  0.4212  1.2180 -0.9888
   20CHTO   C83 8162   5.130   3.098  -0.457  0.1742  0.5040 -0.3384
   20CHTO  H155 8163   5.101   3.070  -0.356  1.5637  1.8461  0.4525
   20CHTO   O56 8164   5.123   2.976  -0.532 -0.2735 -0.2513 -0.1393
   20CHTO  H135 8165   5.197   2.921  -0.515  1.2174  1.0519 -2.2240
   20CHTO   C81 8166   5.044   3.218  -0.500  0.3072 -0.1986  0.6562
   20CHTO  H153 8167   5.047   3.302  -0.430 -2.9836  0.7127 -0.2103
   20CHTO   N14 8168   4.900   3.186  -0.517 -0.0639  0.0553 -0.0742
   20CHTO  H141 8169   4.864   3.098  -0.470  1.7561  0.2892  1.8508
   20CHTO  H142 8170   4.839   3.271  -0.495 -0.3567 -0.5177  1.3253
   20CHTO   C79 8171   5.099   3.273  -0.637 -0.4706  0.7197  0.0795
   20CHTO  H151 8172   5.046   3.363  -0.668 -0.8880 -0.3219 -2.3704
   20CHTO   O52 8173   5.246   3.303  -0.633 -0.3709 -0.3434  0.1749
   20CHTO   C86 8174   5.328   3.193  -0.584  0.0412  0.2282  0.7891
   20CHTO  H158 8175   5.316   3.116  -0.664 -0.8159  0.7068  0.4527
   20CHTO   C90 8176   5.475   3.222  -0.578 -0.7883  0.4200  0.4506
   20CHTO   O60 8177   5.497   3.345  -0.509  0.0184  0.4361 -0.0109
   20CHTO  H138 8178   5.589   3.356  -0.489  0.6485 -1.9546 -1.4026
   20CHTO   O50 8179   5.080   3.173  -0.748  0.1799  0.0088 -0.9128
   20CHTO   C73 8180   5.111   3.151  -0.883  0.1369  0.3049 -0.1209
   20CHTO  H145 8181   5.218   3.130  -0.896  0.3336  1.1844  0.0287
   20CHTO   C74 8182   5.065   3.269  -0.978  0.5380 -0.2258  0.4658
   20CHTO  H146 8183   5.120   3.358  -0.945 -0.7525  0.5627  0.5248
   20CHTO   O54 8184   5.112   3.246  -1.111 -0.0591  0.7082 -0.8263
   20CHTO  H133 8185   5.114   3.326  -1.160  0.7843  0.8092 -0.6313
   20CHTO   C75 8186   4.913   3.288  -0.962  0.5300  0.5406  0.9749
   20CHTO  H147 8187   4.890   3.315  -0.858 -0.1773  0.2614  0.8957
   20CHTO   N13 8188   4.855   3.393  -1.053 -1.1493 -0.7361  0.7995
   20CHTO  H139 8189   4.893   3.492  -1.032 -2.1760  0.3263 -2.0939
   20CHTO  H140 8190   4.861   3.363  -1.157  2.7064 -2.2185  1.3840
   20CHTO   C76 8191   4.837   3.150  -0.994  0.7414  0.6747 -0.3404
   20CHTO  H148 8192   4.846   3.127  -1.100 -2.8591 -0.8999 -0.3912
   20CHTO   O49 8193   4.892   3.038  -0.917  0.5252  0.5448 -0.4931
   20CHTO   C77 8194   5.036   3.023  -0.929 -0.9241 -0.7433 -0.7619
   20CHTO  H149 8195   5.067   2.992  -1.028 -0.9423 -0.6921 -0.7841
   20CHTO   C88 8196   5.068   2.906  -0.837  0.4686 -0.5722  0.3180
   20CHTO   O58 8197   5.220   2.868  -0.817 -0.8008 -0.3651 -0.7270
   20CHTO  H136 8198   5.237   2.799  -0.756  1.7781 -0.4723 -1.5134
   20CHTO   O51 8199   4.665   3.167  -0.960  0.0057 -0.3116  0.0266
   20CHTO   C78 8200   4.619   3.128  -0.805 -0.5602 -0.1590  0.2553
   20CHTO  H150 8201   4.695   3.111  -0.726 -0.1551 -0.5407 -0.2161
   20CHTO   C80 8202   4.542   2.994  -0.816  0.4248  0.4290  0.0266
   20CHTO  H152 8203   4.460   3.014  -0.888  0.0819  0.2573  0.3728
   20CHTO   O55 8204   4.623   2.893  -0.872  0.2184  0.4481 -0.0909
   20CHTO  H134 8205   4.610   2.810  -0.832  1.3626  1.7869  3.1842
   20CHTO   C84 8206   4.480   2.967  -0.671 -0.3734 -0.1900 -0.0320
   20CHTO  H156 8207   4.563   2.960  -0.601 -1.7981  1.9617  1.9293
   20CHTO   N15 8208   4.395   2.841  -0.662 -0.0694  0.3437 -0.1571
   20CHTO  H143 8209   4.453   2.756  -0.694 -0.1060  0.7732 -1.3671
   20CHTO  H144 8210   4.349   2.820  -0.568  1.0780 -0.6409  0.2060
   20CHTO   C87 8211   4.402   3.088  -0.618  0.5662 -0.1788 -0.2493
   20CHTO  H159 8212   4.304   3.099  -0.665  0.9089  0.4183 -0.8239
   20CHTO   O53 8213   4.476   3.209  -0.633 -0.0399 -0.2330  0.2078
   20CHTO   C82 8214   4.530   3.242  -0.752  0.3154  0.2369 -0.3754
   20CHTO  H154 8215   4.453   3.266  -0.824  0.9744 -0.7782 -1.4276
   20CHTO   C89 8216   4.621   3.363  -0.737 -0.1545 -0.0849  1.1725
   20CHTO   O59 8217   4.547   3.482  -0.715  0.1136  0.2174  0.0113
   20CHTO  H137 8218   4.503   3.476  -0.633 -0.6374 -0.2610 -0.4177
   20CHTO   O45 8219   4.354   3.075  -0.462 -0.0359  0.0901 -0.2289
   20CHTO   C67 8220   4.457   3.101  -0.365  0.2393  1.1412 -0.0782
   20CHTO  H124 8221   4.553   3.083  -0.413  0.1880  0.0940  0.2161
   20CHTO   C65 8222   4.449   3.251  -0.318  0.0965 -0.2563 -0.2567
   20CHTO  H122 8223   4.379   3.291  -0.390  1.3477  0.9444 -0.8276
   20CHTO   O44 8224   4.578   3.303  -0.334  0.4150 -0.4007 -0.4036
   20CHTO  H102 8225   4.592   3.389  -0.299  0.5534 -0.5483 -0.0941
   20CHTO   C63 8226   4.387   3.266  -0.177 -0.5892  0.3391 -0.1045
   20CHTO  H120 8227   4.284   3.230  -0.180 -0.5165  0.2013 -0.9672
   20CHTO   N11 8228   4.357   3.408  -0.136 -0.3908  0.4296 -0.9633
   20CHTO  H108 8229   4.453   3.455  -0.134  0.0780 -0.5702  0.5578
   20CHTO  H109 8230   4.296   3.410  -0.048  0.0747  1.7567 -0.6612
   20CHTO   C61 8231   4.470   3.179  -0.078  0.2079 -0.3828  0.1333
   20CHTO  H118 8232   4.397   3.170   0.003 -1.0952 -1.1928 -1.1012
   20CHTO   O40 8233   4.505   3.045  -0.121  0.1938  0.0518  0.1740
   20CHTO   C68 8234   4.437   2.996  -0.247 -0.2468  0.0659 -0.8732
   20CHTO  H125 8235   4.327   2.990  -0.241 -0.0360 -2.9165  1.3432
   20CHTO   C72 8236   4.485   2.861  -0.272  0.1206 -0.4596 -0.1987
   20CHTO   O48 8237   4.625   2.855  -0.260 -0.1534  0.4679  0.4356
   20CHTO  H105 8238   4.674   2.905  -0.323  0.5575 -0.4496  0.2572
   20CHTO   O38 8239   4.593   3.246  -0.032 -0.0270  0.2207  0.1468
   20CHTO   C55 8240   4.630   3.195   0.096 -0.0547  0.5687  0.5611
   20CHTO  H112 8241   4.560   3.120   0.137 -1.5394  0.8166 -1.4391
   20CHTO   C56 8242   4.629   3.327   0.183 -0.4553  0.0770  0.6962
   20CHTO  H113 8243   4.703   3.385   0.126  0.6497 -1.4335  0.5565
   20CHTO   O42 8244   4.503   3.394   0.184  0.3469  0.0679 -0.1420
   20CHTO  H100 8245   4.511   3.472   0.236 -0.1055 -0.3525  0.5652
   20CHTO   C57 8246   4.676   3.282   0.329 -0.2971 -0.6415 -0.1292
   20CHTO  H114 8247   4.596   3.232   0.383 -0.6280 -1.1570 -1.0991
   20CHTO   N10 8248   4.726   3.399   0.406 -0.1765 -0.3530 -0.5461
   20CHTO  H106 8249   4.800   3.368   0.478  1.7642  1.6633 -1.6433
   20CHTO  H107 8250   4.647   3.450   0.459  0.7982 -0.6987  1.2715
   20CHTO   C58 8251   4.795   3.179   0.326  0.1207 -0.0695 -0.2790
   20CHTO  H115 8252   4.888   3.238   0.312 -1.7685  3.1545  0.1784
   20CHTO   O37 8253   4.782   3.086   0.221  0.1734 -0.6912 -0.5620
   20CHTO   C59 8254   4.774   3.136   0.091 -0.8185 -0.7145 -0.0642
   20CHTO  H116 8255   4.849   3.214   0.079 -0.4900 -1.1319 -0.7264
   20CHTO   C70 8256   4.799   3.027  -0.012 -0.0783  0.1664  0.6673
   20CHTO   O46 8257   4.932   2.990  -0.039  0.0676  0.5870  0.0059
   20CHTO  H103 8258   4.933   2.957  -0.127  0.5731 -0.7171  0.4941
   20CHTO   O39 8259   4.798   3.097   0.467  0.2034 -0.3407 -0.3943
   20CHTO   C60 8260   4.931   3.050   0.499 -0.0068 -0.0691 -0.0995
   20CHTO  H117 8261   5.000   3.062   0.416  0.2376 -0.2064  0.0815
   20CHTO   C62 8262   4.997   3.135   0.609 -0.3920  0.5130  0.4804
   20CHTO  H119 8263   5.020   3.233   0.561 -2.3598  1.5183  1.4992
   20CHTO   O43 8264   4.903   3.157   0.715 -0.0033 -0.4478  0.1814
   20CHTO  H101 8265   4.937   3.140   0.801 -0.7618 -0.6510  0.4457
   20CHTO   C66 8266   5.136   3.058   0.643  0.0228  0.2598 -0.0292
   20CHTO  H123 8267   5.201   3.064   0.555  1.5202  1.6691  1.1336
   20CHTO   N12 8268   5.215   3.138   0.736  0.0434  0.3125 -0.2140
   20CHTO  H110 8269   5.211   3.080   0.827  0.0194  0.4226 -0.1446
   20CHTO  H111 8270   5.174   3.237   0.752  1.1398  0.4509  2.0113
   20CHTO   C69 8271   5.101   2.912   0.683 -0.0095  0.2050 -0.7120
   20CHTO  H126 8272   5.022   2.905   0.761 -0.3143 -1.8942 -1.1834
   20CHTO   O41 8273   5.053   2.844   0.574 -0.0870  0.4656 -0.2864
   20CHTO   C64 8274   4.930   2.900   0.523 -0.4810  0.2075 -1.3843
   20CHTO  H121 8275   4.851   2.890   0.601  1.8667 -2.0007  0.8018
   20CHTO   C71 8276   4.888   2.824   0.394  0.4951 -0.0959  0.5321
   20CHTO   O47 8277   4.818   2.706   0.431 -0.3556 -0.0455  0.9462
   20CHTO  H104 8278   4.862   2.628   0.402  0.2551  0.6342  0.0110
   20CHTO   O34 8279   5.232   2.836   0.745  0.1572  0.6228 -0.3960
   20CHTO   C49 8280   5.199   2.703   0.806  0.5483 -0.9261 -0.6606
   20CHTO   H91 8281   5.127   2.652   0.742  0.0213 -2.0974  0.8381
   20CHTO   C47 8282   5.127   2.710   0.944 -0.5046 -0.4926  0.2137
   20CHTO   H89 8283   5.021   2.737   0.924 -0.2134  1.5753  1.2729
   20CHTO   O33 8284   5.185   2.814   1.018  0.0062  0.1449  0.5904
   20CHTO   H70 8285   5.195   2.894   0.969 -0.5413 -0.0836  0.0984
   20CHTO   C45 8286   5.131   2.580   1.040  0.1102 -0.2288 -0.1491
   20CHTO   H87 8287   5.207   2.600   1.117 -0.6897  0.7783  0.4021
   20CHTO    N8 8288   5.005   2.548   1.114  0.1589 -0.3567  0.0018
   20CHTO   H75 8289   4.930   2.512   1.044 -0.9044 -0.8970  1.3811
   20CHTO   H76 8290   5.016   2.468   1.186  1.0447  2.2827  2.8496
   20CHTO   C43 8291   5.188   2.458   0.956 -0.5028  0.5216  0.5806
   20CHTO   H85 8292   5.197   2.371   1.022  0.6371 -0.5570 -0.9350
   20CHTO   O29 8293   5.319   2.498   0.905  0.1740 -0.1851 -0.3398
   20CHTO   C50 8294   5.329   2.609   0.814  0.2715  0.1531  0.2699
   20CHTO   H92 8295   5.417   2.667   0.845 -0.0197 -0.9704  3.3083
   20CHTO   C54 8296   5.362   2.554   0.668 -0.4110  0.5980  0.4458
   20CHTO   O36 8297   5.382   2.651   0.559  0.0906  1.1031 -0.5247
   20CHTO   H72 8298   5.381   2.617   0.472  1.6485  0.2703 -0.2317
   20CHTO   O27 8299   5.109   2.410   0.848 -0.6990 -0.7492  0.1306
   20CHTO   C37 8300   5.003   2.329   0.810 -0.9509 -0.0281 -0.2751
   20CHTO   H79 8301   4.941   2.302   0.897  0.3859 -1.1607  0.3417
   20CHTO   C38 8302   4.910   2.406   0.703  0.3470 -0.3652  0.3646
   20CHTO   H80 8303   4.978   2.436   0.622  1.0182  1.1083  1.4464
   20CHTO   O31 8304   4.866   2.533   0.757  0.6842  0.0551  0.6902
   20CHTO   H68 8305   4.776   2.545   0.736  0.8337  1.0133  0.5816
   20CHTO   C39 8306   4.788   2.308   0.653 -0.1741  0.6018 -0.6306
   20CHTO   H81 8307   4.727   2.285   0.740  1.7240 -1.6913  0.1376
   20CHTO    N7 8308   4.702   2.367   0.549  0.0170 -0.0997  0.5497
   20CHTO   H73 8309   4.600   2.379   0.580 -0.4000  1.6886 -1.3887
   20CHTO   H74 8310   4.692   2.307   0.460 -0.8542  0.3906  0.3175
   20CHTO   C40 8311   4.847   2.165   0.607  0.6311  0.3970 -0.5440
   20CHTO   H82 8312   4.914   2.179   0.523  0.6769  0.1653 -0.5462
   20CHTO   O26 8313   4.926   2.127   0.723  0.2528 -0.4002  0.6961
   20CHTO   C41 8314   5.051   2.193   0.740  0.6390  0.2312  0.3652
   20CHTO   H83 8315   5.094   2.206   0.640  0.2665  1.2475  0.3224
   20CHTO   C52 8316   5.138   2.114   0.841  0.6360  0.5928 -0.1065
   20CHTO   O35 8317   5.062   2.089   0.964  0.1984  0.1055 -0.2976
   20CHTO   H71 8318   5.113   2.101   1.042 -3.1951  0.5910  1.9277
   20CHTO   O28 8319   4.733   2.074   0.579  0.3813  0.0940  0.0486
   20CHTO   C42 8320   4.755   1.959   0.492  0.0758 -0.2746 -0.7344
   20CHTO   H84 8321   4.657   1.915   0.477  0.3357 -0.4427 -1.9553
   20CHTO   C44 8322   4.839   1.851   0.569 -0.0059  0.3145 -0.0483
   20CHTO   H86 8323   4.937   1.896   0.585  1.0408 -0.1482 -4.4939
   20CHTO   O32 8324   4.773   1.812   0.695 -0.5129  0.0104  0.1938
   20CHTO   H69 8325   4.811   1.842   0.775  0.2576  0.1958 -0.2441
   20CHTO   C48 8326   4.870   1.726   0.471  0.9189 -0.3035 -0.7967
   20CHTO   H90 8327   4.783   1.679   0.426 -1.1553  0.0761  2.5850
   20CHTO    N9 8328   4.946   1.618   0.546 -0.1176 -0.5591  0.5536
   20CHTO   H77 8329   4.885   1.530   0.565  2.5262 -2.5224  0.2169
   20CHTO   H78 8330   4.991   1.652   0.638  0.6008 -1.0528  0.3877
   20CHTO   C51 8331   4.946   1.783   0.352 -0.4439 -0.0863  0.3832
   20CHTO   H93 8332   5.030   1.842   0.386  0.6361 -1.8573  0.8452
   20CHTO   O30 8333   4.851   1.862   0.275  0.5263 -0.1391 -0.4899
   20CHTO   C46 8334   4.809   1.992   0.351  0.0649 -0.0781  0.2307
   20CHTO   H88 8335   4.902   2.050   0.358  0.4336 -0.6736  0.2556
   20CHTO   C53 8336   4.697   2.055   0.259 -0.0194  0.6473  0.2251
   20CHTO   O72 8337   4.763   2.100   0.141  0.1451  0.7317  0.1928
   20CHTO  H199 8338   4.721   2.184   0.130  0.9809  1.0686 -0.4964
   20CHTO   O22 8339   4.997   1.688   0.259  0.5794  0.3847  0.3154
   20CHTO   C31 8340   5.113   1.725   0.172  0.5381  0.3634  0.6430
   20CHTO   H59 8341   5.111   1.653   0.088  0.3627 -0.9870  1.7720
   20CHTO   C29 8342   5.101   1.869   0.113 -0.2170  0.3720 -0.6902
   20CHTO   H57 8343   5.077   1.938   0.195 -1.1843 -0.6407 -0.1052
   20CHTO   O21 8344   4.991   1.879   0.021  0.6266  0.0592  0.4735
   20CHTO   H37 8345   5.025   1.889  -0.066  1.4417  0.2468  0.8093
   20CHTO   C27 8346   5.233   1.923   0.047 -0.2230  0.4683  0.7292
   20CHTO   H55 8347   5.241   1.872  -0.051  1.5569  3.4246 -0.7454
   20CHTO    N5 8348   5.237   2.069   0.018  0.7408 -0.1415 -0.2506
   20CHTO   H43 8349   5.265   2.114  -0.076 -0.1490  1.4299  0.2195
   20CHTO   H44 8350   5.288   2.121   0.097 -0.9278 -0.5274  1.1200
   20CHTO   C25 8351   5.356   1.879   0.125  0.1015  0.0104 -0.4796
   20CHTO   H53 8352   5.364   1.934   0.220  0.0901 -1.0865  0.1660
   20CHTO   O17 8353   5.357   1.739   0.170 -0.6133 -0.2541 -0.1623
   20CHTO   C32 8354   5.248   1.700   0.249  0.9770 -0.4715 -0.6142
   20CHTO   H60 8355   5.239   1.757   0.341 -2.8181 -0.5561 -0.8457
   20CHTO   C36 8356   5.261   1.553   0.277  0.4486  0.1925 -0.0805
   20CHTO   O25 8357   5.377   1.524   0.361  0.4464  0.6575 -0.4923
   20CHTO   H40 8358   5.435   1.452   0.346  0.2417  0.5078 -0.5769
   20CHTO   O15 8359   5.482   1.891   0.039 -0.3105  0.0955  0.6508
   20CHTO   C19 8360   5.626   1.895   0.058 -0.0233  1.0708 -0.4504
   20CHTO   H47 8361   5.657   1.936  -0.039 -2.3522  1.4087 -1.0726
   20CHTO   C20 8362   5.673   1.973   0.178  0.4051 -0.1017  1.2537
   20CHTO   H48 8363   5.633   1.926   0.269  1.2179 -1.1623  1.0682
   20CHTO   O19 8364   5.621   2.106   0.152 -0.2449 -0.2003  0.7820
   20CHTO   H35 8365   5.642   2.130   0.063 -0.9744  1.9542  1.1679
   20CHTO   C21 8366   5.829   1.977   0.181  0.1457 -0.2002 -0.2049
   20CHTO   H49 8367   5.866   2.047   0.106  1.0042 -2.0472 -1.5420
   20CHTO    N4 8368   5.872   2.025   0.315 -0.4014  0.4884 -0.2643
   20CHTO   H41 8369   5.939   2.109   0.326  1.0638 -0.9991  2.6344
   20CHTO   H42 8370   5.907   1.941   0.373 -1.8366  1.3043  1.8505
   20CHTO   C22 8371   5.899   1.843   0.146  0.0180 -0.2450  0.2426
   20CHTO   H50 8372   5.923   1.786   0.236  2.0815  0.3310  0.0666
   20CHTO   O14 8373   5.829   1.763   0.054  0.6558  0.2413  0.5550
   20CHTO   C23 8374   5.685   1.752   0.069 -0.4132  0.4261  0.2673
   20CHTO   H51 8375   5.663   1.710   0.169  0.4141  2.0891  1.1807
   20CHTO   C34 8376   5.640   1.656  -0.050  0.1788 -0.0826 -0.4686
   20CHTO   O23 8377   5.698   1.529  -0.030  0.0156 -0.1171  0.0892
   20CHTO   H38 8378   5.655   1.484   0.040 -1.9858  0.7210 -0.5578
   20CHTO   O16 8379   6.017   1.869   0.076 -0.2488 -0.0402 -0.3962
   20CHTO   C24 8380   6.144   1.776   0.117 -0.3285 -0.2658 -0.1087
   20CHTO   H52 8381   6.125   1.711   0.203 -0.1518  0.3282  0.3813
   20CHTO   C26 8382   6.262   1.868   0.150  0.0994  0.1501 -0.1277
   20CHTO   H54 8383   6.267   1.950   0.074  1.1552  0.6784  0.5024
   20CHTO   O20 8384   6.225   1.938   0.276  0.1533  0.0799  0.4049
   20CHTO   H36 8385   6.292   1.996   0.306 -1.5642  1.9448  0.6890
   20CHTO   C30 8386   6.401   1.802   0.161 -0.4681  0.2804  0.1672
   20CHTO   H58 8387   6.410   1.744   0.255 -0.4064  0.8905  0.5414
   20CHTO    N6 8388   6.511   1.906   0.169  0.4409 -0.6054 -0.1416
   20CHTO   H45 8389   6.499   1.967   0.081 -0.9856 -0.0655  0.4046
   20CHTO   H46 8390   6.604   1.852   0.172  0.4554 -0.5721 -0.0119
   20CHTO   C33 8391   6.431   1.700   0.049  0.2404 -0.2845  0.1340
   20CHTO   H61 8392   6.457   1.752  -0.044  4.6768 -1.2387  0.7339
   20CHTO   O18 8393   6.316   1.618   0.024  0.4938 -0.4939  0.6565
   20CHTO   C28 8394   6.191   1.686   0.000  0.8302 -0.1641  0.3287
   20CHTO   H56 8395   6.193   1.742  -0.093  0.5698  0.7096  0.8448
   20CHTO   C35 8396   6.087   1.571  -0.010 -0.8613 -0.2289 -0.4791
   20CHTO   O24 8397   6.103   1.502  -0.135  0.2656  0.6242  0.0346
   20CHTO   H39 8398   6.041   1.433  -0.132  1.3604 -0.3706  0.3631
   20CHTO    O9 8399   6.546   1.624   0.078 -0.8950 -0.5090  0.3312
   20CHTO   C13 8400   6.652   1.574  -0.047  0.1792 -0.8417 -0.1263
   20CHTO   H26 8401   6.726   1.654  -0.070 -0.3956 -0.4291 -0.5176
   20CHTO   C11 8402   6.577   1.530  -0.175  0.6186 -0.9164  0.4295
   20CHTO   H24 8403   6.544   1.622  -0.225  0.6039  0.3657  2.7291
   20CHTO    O8 8404   6.468   1.448  -0.125  0.1285  0.3429  0.7671
   20CHTO    H3 8405   6.507   1.368  -0.097  1.2475  0.7966  0.5416
   20CHTO    C9 8406   6.676   1.464  -0.272 -0.4341  0.3714 -0.2941
   20CHTO   H22 8407   6.759   1.535  -0.286  1.2890 -1.3147  0.9720
   20CHTO    N2 8408   6.620   1.438  -0.412  0.3935 -0.3477  0.6599
   20CHTO   H10 8409   6.679   1.461  -0.500 -0.0203  0.7920  0.6823
   20CHTO   H11 8410   6.519   1.475  -0.415  0.3831 -0.2752  1.7082
   20CHTO    C7 8411   6.737   1.325  -0.209  0.0169  0.3035  0.1379
   20CHTO   H20 8412   6.843   1.334  -0.237 -0.0771  1.9812  0.2824
   20CHTO    O4 8413   6.732   1.334  -0.068 -0.5368 -0.5156 -0.1184
   20CHTO   C14 8414   6.755   1.462   0.006  0.2863 -0.5616  0.0535
   20CHTO   H27 8415   6.855   1.504  -0.021 -0.6121  3.3534  2.5107
   20CHTO   C18 8416   6.756   1.429   0.158  0.0115  0.6472 -0.0557
   20CHTO   O13 8417   6.633   1.364   0.190  0.9562 -0.6433 -0.3907
   20CHTO    H7 8418   6.645   1.332   0.277  0.5991  0.7475  0.1768
   20CHTO    O2 8419   6.653   1.182  -0.257 -0.7566 -0.4371 -0.4152
   20CHTO    C1 8420   6.577   1.091  -0.164 -0.0070  0.2285 -0.3545
   20CHTO   H14 8421   6.535   1.147  -0.077  2.9172 -1.2461  2.1241
   20CHTO    C2 8422   6.663   0.983  -0.103  0.8259  0.7999 -0.1501
   20CHTO   H15 8423   6.697   0.932  -0.194  2.8316  1.0430  0.4398
   20CHTO    O6 8424   6.771   1.049  -0.023  0.2219  0.2009 -0.3183
   20CHTO    H1 8425   6.783   1.004   0.059 -1.7633  1.2134  0.5582
   20CHTO    C3 8426   6.574   0.888  -0.003  0.6911  0.0363  0.6025
   20CHTO   H16 8427   6.547   0.942   0.089 -1.6274 -2.5963  1.5404
   20CHTO    N1 8428   6.668   0.780   0.048  0.3368  0.1594 -0.0259
   20CHTO    H8 8429   6.710   0.731  -0.039 -0.1545 -0.6797  0.2094
   20CHTO    H9 8430   6.605   0.712   0.103  0.6292 -1.5936 -1.8251
   20CHTO    C4 8431   6.435   0.839  -0.073  0.1398  0.2030  0.8932
   20CHTO   H17 8432   6.457   0.763  -0.148  0.1756  0.2507  0.8559
   20CHTO    O1 8433   6.365   0.944  -0.136  0.3536  0.0724 -0.1670
   20CHTO    C5 8434   6.448   1.021  -0.232  0.2117 -0.0116 -0.0704
   20CHTO   H18 8435   6.482   0.956  -0.312 -0.1228  0.6555 -0.7684
   20CHTO   C16 8436   6.359   1.135  -0.290  0.1940 -0.3930 -0.1860
   20CHTO   O11 8437   6.243   1.088  -0.357 -0.4385  0.2945  0.1175
   20CHTO    H5 8438   6.258   1.059  -0.445 -4.3133  1.6860 -1.1181
   20CHTO    O3 8439   6.354   0.771   0.021  0.3455  0.9711  0.3386
   20CHTO    C6 8440   6.244   0.686  -0.023  0.1767 -0.0636 -0.0175
   20CHTO   H19 8441   6.219   0.707  -0.127  1.0310  1.0161 -0.0187
   20CHTO    C8 8442   6.284   0.538  -0.007  0.0217 -0.0993  0.4673
   20CHTO   H21 8443   6.324   0.517   0.092 -2.3578 -1.4304  1.1847
   20CHTO    O7 8444   6.383   0.508  -0.106 -0.1559 -0.1334  0.1909
   20CHTO    H2 8445   6.341   0.508  -0.189  2.1962 -1.1668 -1.0432
   20CHTO   C12 8446   6.166   0.438  -0.033 -0.1056 -0.0126  0.0174
   20CHTO   H25 8447   6.146   0.442  -0.142  0.6598 -0.3740 -0.1362
   20CHTO    N3 8448   6.203   0.293   0.005 -0.4262 -0.6473 -0.4022
   20CHTO   H12 8449   6.299   0.268  -0.038 -0.4658  0.6050 -1.2514
   20CHTO   H13 8450   6.196   0.263   0.109  3.0828  2.4682  0.8428
   20CHTO   C15 8451   6.032   0.486   0.040  0.3499 -0.3890 -0.0566
   20CHTO   H28 8452   6.032   0.462   0.146 -0.9227 -0.3577 -0.0356
   20CHTO   O10 8453   5.916   0.435  -0.010  0.1624  0.9066  0.4177
   20CHTO    H4 8454   5.888   0.462  -0.095 -0.7271  0.5829  0.6082
   20CHTO    O5 8455   6.001   0.625   0.025 -0.6725 -0.5266  0.0162
   20CHTO   C10 8456   6.112   0.711   0.063  0.5992 -0.2451  0.1390
   20CHTO   H23 8457   6.123   0.701   0.171 -0.2249  0.3309  0.2843
   20CHTO   C17 8458   6.060   0.853   0.053  0.0443 -0.0942  0.5938
   20CHTO   O12 8459   5.943   0.874   0.125 -0.0270 -0.2125  0.0477
   20CHTO    H6 8460   5.953   0.858   0.217 -1.8711 -0.2237  0.2627
   21GLOH   H03 8461   3.485   1.440   1.458  0.2864  1.0610  0.2113
   21GLOH    O1 8462   3.399   1.485   1.464  0.0663  0.6031  0.5611
   21GLOH    C1 8463   3.404   1.592   1.565  0.3691  0.1172 -0.7621
   21GLOH   H02 8464   3.370   1.559   1.663  0.3771 -0.4138 -0.9305
   21GLOH   H08 8465   3.322   1.662   1.552 -1.2620 -1.1837  1.9863
   21GLOH    C2 8466   3.530   1.675   1.569 -0.0920 -0.3181 -0.0729
   21GLOH   H04 8467   3.497   1.763   1.627 -1.8574 -2.3570  2.1052
   21GLOH    O2 8468   3.635   1.593   1.622 -0.5497 -0.4617  0.0409
   21GLOH   H05 8469   3.682   1.650   1.685 -1.1669  0.4800 -0.3464
   21GLOH    C3 8470   3.571   1.720   1.428  0.2789 -0.0828 -0.1127
   21GLOH   H06 8471   3.562   1.639   1.355  0.0233 -0.4486  0.3242
   21GLOH   H07 8472   3.676   1.749   1.433  0.3836  0.1135 -2.5252
   21GLOH    O3 8473   3.483   1.824   1.379 -0.0841 -0.0826 -0.7893
   21GLOH   H01 8474   3.522   1.913   1.386 -0.8150  0.2818 -1.3207
   22GLOH   H03 8475   3.126   1.910   2.114  0.9276 -0.2296 -1.4001
   22GLOH    O1 8476   3.096   1.819   2.098  0.5054 -0.3811  0.1812
   22GLOH    C1 8477   3.104   1.762   2.229  0.1113  0.7969  0.0505
   22GLOH   H02 8478   3.043   1.828   2.291 -1.0532 -0.0018 -0.2473
   22GLOH   H08 8479   3.202   1.755   2.277  0.3069  0.2835 -0.4269
   22GLOH    C2 8480   3.029   1.624   2.249 -0.0251 -0.1363 -0.1248
   22GLOH   H04 8481   2.929   1.633   2.204 -0.2383 -2.0241 -0.0795
   22GLOH    O2 8482   3.093   1.523   2.162  0.0004 -0.0432  0.2161
   22GLOH   H05 8483   3.188   1.521   2.183  1.1797 -0.6579 -4.5216
   22GLOH    C3 8484   3.024   1.582   2.396 -0.0384 -0.0148  0.4149
   22GLOH   H06 8485   3.124   1.553   2.425 -1.0059 -1.8273  2.0553
   22GLOH   H07 8486   2.961   1.494   2.409  1.1269 -1.1928 -1.7668
   22GLOH    O3 8487   2.980   1.691   2.483 -0.3655  0.4051  0.5867
   22GLOH   H01 8488   3.056   1.727   2.533  0.4630  0.9922 -1.0495
   23GLOH   H03 8489   3.594   9.349   1.408 -0.3963  0.4136  0.8499
   23GLOH    O1 8490   3.502   9.336   1.379 -0.2733 -0.5660  0.8873
   23GLOH    C1 8491   3.459   9.453   1.306 -0.1268 -0.2469  0.5429
   23GLOH   H02 8492   3.528   9.472   1.224  0.2751 -0.0092  0.9344
   23GLOH   H08 8493   3.468   9.540   1.372  1.2760 -0.8409  1.1497
   23GLOH    C2 8494   3.318   9.444   1.241 -0.0868  0.0116  0.7272
   23GLOH   H04 8495   3.258   9.413   1.327 -1.2276 -2.1257 -0.8186
   23GLOH    O2 8496   3.263   9.567   1.182  0.0562 -0.2495  0.2215
   23GLOH   H05 8497   3.194   9.606   1.238  1.0758  1.0419  0.6146
   23GLOH    C3 8498   3.315   9.333   1.134  0.1914 -0.2304 -0.1366
   23GLOH   H06 8499   3.367   9.369   1.045  0.0960  2.0834  0.7106
   23GLOH   H07 8500   3.210   9.322   1.109 -0.0145 -2.0786  1.4188
   23GLOH    O3 8501   3.369   9.207   1.176 -0.7166  0.2151  0.6157
   23GLOH   H01 8502   3.433   9.224   1.246 -1.4455 -0.8817  1.5674
   24GLOH   H03 8503   4.096   1.598   0.884 -1.8095  2.1386  0.8385
   24GLOH    O1 8504   4.111   1.632   0.794  0.1710  0.1143  0.3806
   24GLOH    C1 8505   4.109   1.771   0.791 -0.1680  0.6320  0.3426
   24GLOH   H02 8506   4.154   1.800   0.886  0.6500 -1.8293  0.7346
   24GLOH   H08 8507   4.006   1.807   0.796  0.3480  1.9638  1.9347
   24GLOH    C2 8508   4.181   1.844   0.677  0.3629  0.2706  0.7757
   24GLOH   H04 8509   4.147   1.812   0.578  1.1965  0.0600  0.5561
   24GLOH    O2 8510   4.170   1.985   0.682  0.4944  0.4492  0.2131
   24GLOH   H05 8511   4.078   2.018   0.679  0.4692  0.3998  0.4182
   24GLOH    C3 8512   4.331   1.800   0.680  0.9139  0.1163 -1.0189
   24GLOH   H06 8513   4.374   1.828   0.775  0.4594 -3.3935  0.3106
   24GLOH   H07 8514   4.394   1.854   0.609  0.3842  0.6219 -1.1080
   24GLOH    O3 8515   4.329   1.660   0.665 -0.4009 -0.0448 -0.5707
   24GLOH   H01 8516   4.246   1.623   0.699  0.3394 -0.0468  1.2830
   25GLOH   H03 8517   4.185   3.932  -0.341 -2.5571  1.3455  2.1747
   25GLOH    O1 8518   4.249   3.928  -0.268  0.7488  0.5532 -0.6315
   25GLOH    C1 8519   4.225   3.793  -0.218 -0.1966  0.1800 -0.1803
   25GLOH   H02 8520   4.307   3.773  -0.150 -2.1061  0.0949  2.1824
   25GLOH   H08 8521   4.227   3.715  -0.294  3.6703 -0.1182  0.1573
   25GLOH    C2 8522   4.083   3.783  -0.151 -0.4404 -0.2969 -1.0144
   25GLOH   H04 8523   4.022   3.858  -0.204 -1.1560 -0.7458 -0.8338
   25GLOH    O2 8524   4.028   3.647  -0.146 -0.1905 -0.0090 -0.7325
   25GLOH   H05 8525   4.022   3.622  -0.240  0.1268  1.4568 -1.1496
   25GLOH    C3 8526   4.101   3.833  -0.006  0.5871  0.1581  0.7134
   25GLOH   H06 8527   4.142   3.751   0.053 -0.6242 -0.2660  0.9879
   25GLOH   H07 8528   3.997   3.843   0.027 -0.0487 -3.6161  0.1422
   25GLOH    O3 8529   4.182   3.957   0.004  0.2192  0.2021 -0.1555
   25GLOH   H01 8530   4.143   4.032  -0.045  3.5332  1.4581 -1.0596
   26GLOH   H03 8531   4.631   2.096   1.386  0.6250  1.3698 -0.0745
   26GLOH    O1 8532   4.688   2.089   1.308  0.3083 -0.2714 -0.1655
   26GLOH    C1 8533   4.610   2.062   1.187  0.7503 -0.4718 -0.3615
   26GLOH   H02 8534   4.544   2.146   1.166  1.6996  0.9471  2.1294
   26GLOH   H08 8535   4.550   1.971   1.193 -0.5926  0.3942 -0.5097
   26GLOH    C2 8536   4.708   2.051   1.070  0.3791 -0.0305 -0.2803
   26GLOH   H04 8537   4.780   2.133   1.081  0.3493 -0.4452  3.7247
   26GLOH    O2 8538   4.789   1.933   1.090 -0.3085  0.2507 -0.0268
   26GLOH   H05 8539   4.746   1.852   1.059  1.8950 -1.3310  0.9177
   26GLOH    C3 8540   4.650   2.054   0.926 -0.4800  0.3368 -0.5108
   26GLOH   H06 8541   4.600   1.958   0.908 -0.9281  0.4824 -0.0600
   26GLOH   H07 8542   4.728   2.065   0.851  0.8546  1.2364  0.9758
   26GLOH    O3 8543   4.555   2.161   0.906 -0.0814 -0.3498 -0.1738
   26GLOH   H01 8544   4.597   2.242   0.942  0.9259 -0.6367 -0.6788
   27GLOH   H03 8545   4.551   1.448   0.706  1.4561  0.6195 -1.9893
   27GLOH    O1 8546   4.522   1.369   0.657 -0.0232 -0.3707  0.4043
   27GLOH    C1 8547   4.463   1.274   0.748 -0.0153 -0.6689  0.6535
   27GLOH   H02 8548   4.372   1.313   0.794  0.3964  0.9641  0.1334
   27GLOH   H08 8549   4.533   1.254   0.830 -2.3156 -0.6739  2.6703
   27GLOH    C2 8550   4.424   1.145   0.685 -0.3090 -0.0071 -0.0780
   27GLOH   H04 8551   4.369   1.164   0.591 -0.2801  1.2579  0.1554
   27GLOH    O2 8552   4.543   1.067   0.658 -0.4006 -0.1052  0.6732
   27GLOH   H05 8553   4.598   1.127   0.605  0.7175  0.2245  2.1666
   27GLOH    C3 8554   4.332   1.066   0.776  0.7868 -0.2681  0.1652
   27GLOH   H06 8555   4.390   1.040   0.864  1.3670 -2.1022 -0.7337
   27GLOH   H07 8556   4.320   0.970   0.725  0.7686  0.2620 -0.8547
   27GLOH    O3 8557   4.202   1.115   0.802 -0.3319  0.2426  0.0569
   27GLOH   H01 8558   4.171   1.051   0.869  0.4510 -0.7090 -0.4808
   28GLOH   H03 8559   4.287   2.221   1.266 -0.6074  1.9076  2.8586
   28GLOH    O1 8560   4.305   2.147   1.327 -0.2258  0.0860  0.5739
   28GLOH    C1 8561   4.290   2.196   1.462  0.1159  0.2855 -0.7352
   28GLOH   H02 8562   4.193   2.241   1.480 -0.4603 -0.4887 -1.8011
   28GLOH   H08 8563   4.366   2.273   1.475 -0.1647  0.6213 -1.0702
   28GLOH    C2 8564   4.311   2.085   1.572  0.2923  0.0596 -0.0564
   28GLOH   H04 8565   4.311   2.143   1.666 -1.2424  2.0045 -1.2013
   28GLOH    O2 8566   4.198   2.000   1.570  0.1435  0.6834 -0.7115
   28GLOH   H05 8567   4.144   2.014   1.649 -0.2787 -0.9729 -0.7059
   28GLOH    C3 8568   4.443   2.009   1.552 -0.5973 -0.4308  0.0129
   28GLOH   H06 8569   4.447   1.966   1.452 -0.4248  0.9133 -0.5591
   28GLOH   H07 8570   4.445   1.929   1.627 -2.7629  1.1775  1.8377
   28GLOH    O3 8571   4.550   2.102   1.560  0.6959 -0.2708 -0.0697
   28GLOH   H01 8572   4.549   2.149   1.646 -2.0086 -1.4711  0.6030
   29GLOH   H03 8573   3.175  10.164   1.194 -0.5005 -0.9606  0.2542
   29GLOH    O1 8574   3.104  10.101   1.217 -0.5852 -0.7633  0.5257
   29GLOH    C1 8575   3.073  10.028   1.096  0.0191 -0.4965  0.0485
   29GLOH   H02 8576   3.049  10.100   1.018  1.9840 -1.7565 -1.7765
   29GLOH   H08 8577   2.983   9.968   1.111  0.0590 -0.0889  2.1508
   29GLOH    C2 8578   3.194   9.950   1.042 -0.7704 -0.5750  0.0938
   29GLOH   H04 8579   3.287   9.976   1.095 -1.7295  1.1928  0.9511
   29GLOH    O2 8580   3.174   9.819   1.085 -0.5572 -0.1965  0.1856
   29GLOH   H05 8581   3.250   9.788   1.137  1.5177 -1.2588 -3.3262
   29GLOH    C3 8582   3.211   9.963   0.889  0.0154 -0.2815  0.5967
   29GLOH   H06 8583   3.114   9.937   0.847 -0.8966 -0.0615  2.4936
   29GLOH   H07 8584   3.286   9.889   0.863 -0.4092 -0.8850  1.0534
   29GLOH    O3 8585   3.241  10.095   0.849  1.2975  0.0758  0.3017
   29GLOH   H01 8586   3.259  10.095   0.753  1.2103 -1.0417  0.2769
   30GLOH   H03 8587   3.379   3.683   0.083 -1.8830  3.0151 -0.2239
   30GLOH    O1 8588   3.297   3.650   0.125 -0.2749 -0.3624  0.4164
   30GLOH    C1 8589   3.269   3.514   0.084  0.2415  0.6621 -0.1907
   30GLOH   H02 8590   3.344   3.441   0.115 -0.6964 -0.8642 -1.4749
   30GLOH   H08 8591   3.269   3.512  -0.025  2.3091  1.5494 -0.2440
   30GLOH    C2 8592   3.124   3.474   0.126  0.0786  0.2343 -0.3633
   30GLOH   H04 8593   3.051   3.547   0.086 -0.3564 -2.0616 -4.0104
   30GLOH    O2 8594   3.085   3.339   0.085 -0.2307 -0.1809  0.2247
   30GLOH   H05 8595   3.099   3.339  -0.011 -0.8392  1.8659  0.1114
   30GLOH    C3 8596   3.111   3.486   0.280  0.0572 -0.4565  0.0474
   30GLOH   H06 8597   3.182   3.412   0.318 -0.0041 -0.4214  0.2324
   30GLOH   H07 8598   3.010   3.466   0.315 -0.6736 -0.0143 -1.7967
   30GLOH    O3 8599   3.154   3.616   0.330 -0.2359 -0.4266  0.5197
   30GLOH   H01 8600   3.201   3.653   0.253 -0.5589 -0.6976  0.1925
   31GLOH   H03 8601   4.144   2.344   0.085 -2.1596 -1.4841 -0.0177
   31GLOH    O1 8602   4.163   2.312  -0.005 -0.4539 -0.8641  0.1005
   31GLOH    C1 8603   4.115   2.177  -0.022 -0.2941 -0.2908 -0.1482
   31GLOH   H02 8604   4.145   2.118   0.065  0.1078  0.3872  0.1776
   31GLOH   H08 8605   4.147   2.121  -0.110  1.8083  1.1186 -0.3112
   31GLOH    C2 8606   3.965   2.161  -0.019 -0.2215  0.0449  0.1791
   31GLOH   H04 8607   3.929   2.173   0.084 -1.3651  1.1527 -0.3229
   31GLOH    O2 8608   3.896   2.252  -0.107 -0.2867 -0.5184 -0.1554
   31GLOH   H05 8609   3.925   2.235  -0.198  1.0471  2.3275 -0.3180
   31GLOH    C3 8610   3.916   2.021  -0.054 -0.2184 -0.3128 -0.6289
   31GLOH   H06 8611   3.974   1.945  -0.001 -2.5327 -0.9367  1.1003
   31GLOH   H07 8612   3.933   2.011  -0.161  1.6622 -3.3397 -0.1144
   31GLOH    O3 8613   3.779   2.000  -0.027  0.1360  0.4484 -0.8587
   31GLOH   H01 8614   3.722   2.041  -0.094 -2.1640 -0.9016  0.1997
   32GLOH   H03 8615   3.158   4.021   2.056  2.3862  2.2802 -0.6361
   32GLOH    O1 8616   3.187   4.017   2.149  0.0012  0.4145  0.0622
   32GLOH    C1 8617   3.244   4.140   2.181  0.4091 -0.0798 -0.5275
   32GLOH   H02 8618   3.260   4.147   2.288 -3.6717 -1.6903  0.2533
   32GLOH   H08 8619   3.179   4.223   2.151  1.7732  1.8728  1.7174
   32GLOH    C2 8620   3.383   4.164   2.125  0.3663 -0.6514 -0.3350
   32GLOH   H04 8621   3.441   4.079   2.165  0.5048 -0.3675  0.0802
   32GLOH    O2 8622   3.389   4.158   1.983 -0.0988  0.3740 -0.3791
   32GLOH   H05 8623   3.387   4.249   1.950  0.2560 -0.0964 -1.6964
   32GLOH    C3 8624   3.436   4.295   2.191 -0.1487 -0.2583  0.2808
   32GLOH   H06 8625   3.525   4.321   2.134 -1.2046 -1.6701 -2.0738
   32GLOH   H07 8626   3.465   4.271   2.293  1.5869  1.2059  0.1664
   32GLOH    O3 8627   3.351   4.407   2.187  0.7263  0.0690 -0.1404
   32GLOH   H01 8628   3.355   4.430   2.092  1.3089  3.5298  0.6630
   33GLOH   H03 8629   4.349   1.856   1.143  0.8772  0.3553  0.2626
   33GLOH    O1 8630   4.387   1.786   1.087  0.1597 -0.3254  0.6070
   33GLOH    C1 8631   4.400   1.667   1.169  0.3056 -0.1364  0.0206
   33GLOH   H02 8632   4.406   1.582   1.101 -2.1847 -1.5501  1.5003
   33GLOH   H08 8633   4.321   1.654   1.243  0.2747  1.0406  0.1919
   33GLOH    C2 8634   4.535   1.661   1.244 -0.2190  0.1304 -0.2498
   33GLOH   H04 8635   4.549   1.763   1.285  0.9292  0.3752 -1.2124
   33GLOH    O2 8636   4.534   1.570   1.351  0.3025 -0.1624 -0.0313
   33GLOH   H05 8637   4.569   1.623   1.425  0.0014  0.8932 -0.6433
   33GLOH    C3 8638   4.644   1.631   1.138  0.2969 -0.8287  0.9206
   33GLOH   H06 8639   4.651   1.523   1.119 -0.1550 -0.7252  0.1338
   33GLOH   H07 8640   4.737   1.651   1.190  0.0959 -2.4844  1.9596
   33GLOH    O3 8641   4.632   1.719   1.022 -0.3344  0.6951  0.4080
   33GLOH   H01 8642   4.545   1.761   1.029 -1.8194 -1.8710 -1.6414
   34GLOH   H03 8643   5.023   3.650   0.520 -0.7734  0.2920 -1.6045
   34GLOH    O1 8644   4.984   3.733   0.552  0.2395  0.1473  0.0717
   34GLOH    C1 8645   4.851   3.697   0.587 -0.0435  0.1950 -0.1084
   34GLOH   H02 8646   4.856   3.630   0.674  0.2512 -0.8153 -0.8965
   34GLOH   H08 8647   4.800   3.632   0.516  0.6295  0.3956 -0.7796
   34GLOH    C2 8648   4.767   3.819   0.627 -0.2623  0.1261 -0.2639
   34GLOH   H04 8649   4.759   3.870   0.529 -0.7653 -0.3322 -0.4622
   34GLOH    O2 8650   4.638   3.778   0.660  0.1799 -0.3087 -0.0891
   34GLOH   H05 8651   4.648   3.748   0.751  0.3190 -1.4281 -0.4703
   34GLOH    C3 8652   4.827   3.918   0.731  0.1144 -0.4064 -0.3345
   34GLOH   H06 8653   4.829   3.860   0.823  2.0386 -0.5212 -0.4204
   34GLOH   H07 8654   4.761   4.004   0.744  0.5280 -0.2274  0.6329
   34GLOH    O3 8655   4.963   3.960   0.702  0.2254  0.4622 -0.4086
   34GLOH   H01 8656   4.997   3.882   0.654  0.0642 -0.5853  1.1247
   35GLOH   H03 8657   4.505   4.208   1.632 -1.0084 -1.7264 -1.3758
   35GLOH    O1 8658   4.546   4.156   1.704  0.0056  0.5832 -0.2348
   35GLOH    C1 8659   4.483   4.208   1.829 -0.4173  0.0269 -0.8173
   35GLOH   H02 8660   4.480   4.125   1.899  0.6943  1.5989  1.1473
   35GLOH   H08 8661   4.377   4.235   1.819  0.0442  0.5565 -4.9203
   35GLOH    C2 8662   4.562   4.322   1.901 -0.6726  0.7752 -0.2443
   35GLOH   H04 8663   4.497   4.349   1.985 -3.5488 -1.9531 -1.5279
   35GLOH    O2 8664   4.695   4.288   1.947 -0.1822  0.2242  0.5372
   35GLOH   H05 8665   4.697   4.307   2.042 -3.6609  0.3707  0.6420
   35GLOH    C3 8666   4.575   4.441   1.800  1.0693 -0.6423  0.2411
   35GLOH   H06 8667   4.651   4.417   1.726  0.3788 -2.8784  0.2237
   35GLOH   H07 8668   4.610   4.523   1.863  0.3265 -1.7673  2.1872
   35GLOH    O3 8669   4.451   4.469   1.736  0.1775 -0.8190 -0.8200
   35GLOH   H01 8670   4.384   4.505   1.797  1.8680  2.2482 -0.6462
   36GLOH   H03 8671   4.288   3.692   2.181  0.4676 -1.7770  2.0887
   36GLOH    O1 8672   4.200   3.654   2.163  0.2195  0.0872 -1.0132
   36GLOH    C1 8673   4.227   3.517   2.135  0.3435  0.5172 -0.7376
   36GLOH   H02 8674   4.292   3.477   2.214  0.1642  0.8618 -0.4163
   36GLOH   H08 8675   4.275   3.500   2.039  2.9335  0.5075  0.4846
   36GLOH    C2 8676   4.098   3.435   2.143  0.0802  0.4612  0.0058
   36GLOH   H04 8677   4.030   3.471   2.064 -0.9139  0.9941  1.0913
   36GLOH    O2 8678   4.123   3.292   2.123  0.0765  0.5345  0.4581
   36GLOH   H05 8679   4.123   3.271   2.028 -3.1056  1.8620  0.0971
   36GLOH    C3 8680   4.038   3.454   2.280 -0.2652  0.1310  0.3799
   36GLOH   H06 8681   4.100   3.401   2.352 -0.1122  0.1711  0.2778
   36GLOH   H07 8682   3.943   3.401   2.284  0.6921 -1.5670  1.4872
   36GLOH    O3 8683   4.013   3.586   2.308  0.0362  0.7116  0.5136
   36GLOH   H01 8684   4.064   3.636   2.241 -1.1649  0.2598 -0.7489
   37GLOH   H03 8685   3.891   3.133   0.826 -0.8506 -0.2332 -0.6246
   37GLOH    O1 8686   3.921   3.156   0.736  0.5638  0.1924 -0.0551
   37GLOH    C1 8687   3.821   3.242   0.676  0.2490  0.8455 -0.0029
   37GLOH   H02 8688   3.731   3.179   0.676 -0.1746  1.4425 -0.6375
   37GLOH   H08 8689   3.843   3.258   0.570 -0.9716 -0.3450 -0.4647
   37GLOH    C2 8690   3.781   3.372   0.735  0.1699  1.1282  0.2277
   37GLOH   H04 8691   3.694   3.408   0.677  0.9163 -0.8607 -2.2190
   37GLOH    O2 8692   3.741   3.362   0.869 -0.5534 -0.1054  0.2729
   37GLOH   H05 8693   3.716   3.451   0.897  0.6547  1.0338 -2.1014
   37GLOH    C3 8694   3.900   3.467   0.717 -0.5736 -0.0261 -0.2122
   37GLOH   H06 8695   3.993   3.418   0.745 -0.6409 -0.1374 -0.1859
   37GLOH   H07 8696   3.870   3.546   0.787  0.2206 -0.8821  1.0985
   37GLOH    O3 8697   3.920   3.519   0.584 -0.0356 -0.2694 -0.1900
   37GLOH   H01 8698   4.013   3.547   0.578  0.7151 -2.4830  0.4094
   38GLOH   H03 8699   3.253   4.198   1.345 -1.5071 -0.1426  0.6584
   38GLOH    O1 8700   3.299   4.226   1.426 -0.6512  0.0651  0.1064
   38GLOH    C1 8701   3.399   4.133   1.457 -0.9471 -0.3427  0.2693
   38GLOH   H02 8702   3.352   4.039   1.484 -2.1369 -0.6492 -2.6993
   38GLOH   H08 8703   3.447   4.160   1.551  1.8071  1.3771 -1.5343
   38GLOH    C2 8704   3.503   4.108   1.347 -0.9834 -0.1055  0.7570
   38GLOH   H04 8705   3.455   4.054   1.264  1.3137 -0.4441 -0.3978
   38GLOH    O2 8706   3.557   4.229   1.299  0.4427 -0.3235  0.8441
   38GLOH   H05 8707   3.507   4.256   1.221 -0.0422 -1.9568  0.5843
   38GLOH    C3 8708   3.612   4.024   1.417 -0.5233 -0.1259 -0.7704
   38GLOH   H06 8709   3.668   4.074   1.496 -0.6447  1.8445 -1.8868
   38GLOH   H07 8710   3.689   3.998   1.345  0.1988 -0.9292  0.2927
   38GLOH    O3 8711   3.565   3.898   1.469  0.3801  0.2780  0.3806
   38GLOH   H01 8712   3.635   3.857   1.523  1.0846 -0.2655 -0.9439
   39GLOH   H03 8713   4.264   2.089   0.296  2.3976 -0.5515  1.2071
   39GLOH    O1 8714   4.228   1.999   0.302 -0.2337  0.3619  0.2616
   39GLOH    C1 8715   4.329   1.899   0.350  0.9764  0.3503 -0.0463
   39GLOH   H02 8716   4.271   1.826   0.406 -0.5292  2.1797  0.8651
   39GLOH   H08 8717   4.404   1.948   0.413 -0.6375  2.3867  0.3475
   39GLOH    C2 8718   4.406   1.833   0.236  0.2704  0.0351  0.0931
   39GLOH   H04 8719   4.473   1.905   0.187  1.2297  0.2182  1.6468
   39GLOH    O2 8720   4.500   1.742   0.286 -0.4734 -0.0805 -0.1006
   39GLOH   H05 8721   4.448   1.668   0.323  0.9201 -1.5107 -0.9213
   39GLOH    C3 8722   4.314   1.768   0.135  0.2652 -0.8233 -0.5470
   39GLOH   H06 8723   4.263   1.688   0.188  1.3734 -0.2467  1.4122
   39GLOH   H07 8724   4.377   1.724   0.058 -0.2285 -1.9331 -0.3271
   39GLOH    O3 8725   4.218   1.849   0.070 -0.5746  0.5058  0.3363
   39GLOH   H01 8726   4.229   1.934   0.116  2.8062  0.0826  0.4879
   40GLOH   H03 8727   3.723   1.453   0.365 -1.2682  1.4228 -2.2267
   40GLOH    O1 8728   3.809   1.499   0.357 -0.2095 -0.1087  0.0336
   40GLOH    C1 8729   3.854   1.578   0.469  0.2112 -0.1521 -0.5668
   40GLOH   H02 8730   3.809   1.677   0.465 -2.8840 -1.4613  0.2975
   40GLOH   H08 8731   3.961   1.599   0.472  0.2173 -0.3272  1.2094
   40GLOH    C2 8732   3.800   1.523   0.606  0.1654 -0.2233  0.1106
   40GLOH   H04 8733   3.844   1.426   0.634  2.4728  0.9254  0.5595
   40GLOH    O2 8734   3.840   1.611   0.713  0.2247 -0.3404 -0.4886
   40GLOH   H05 8735   3.935   1.607   0.734 -0.1584  1.0735  1.5546
   40GLOH    C3 8736   3.648   1.513   0.592 -0.0188 -0.2008 -0.4396
   40GLOH   H06 8737   3.604   1.604   0.552  2.1930  0.9505 -0.2880
   40GLOH   H07 8738   3.611   1.491   0.692 -0.3863  0.1911 -0.4908
   40GLOH    O3 8739   3.599   1.412   0.504  0.0462  0.2082  0.5458
   40GLOH   H01 8740   3.638   1.328   0.533  2.0213  0.5312 -1.0889
   41GLOH   H03 8741   4.449   1.322   0.086  0.0296 -1.0123 -0.9260
   41GLOH    O1 8742   4.477   1.348  -0.004  0.9278 -0.2481 -0.4288
   41GLOH    C1 8743   4.368   1.407  -0.073 -0.0211  0.2984 -0.4490
   41GLOH   H02 8744   4.310   1.468  -0.003  2.2684  0.9598  0.9176
   41GLOH   H08 8745   4.298   1.324  -0.087 -2.1815  2.0283 -0.1885
   41GLOH    C2 8746   4.397   1.470  -0.214  0.4508  0.0485 -0.5807
   41GLOH   H04 8747   4.456   1.403  -0.279  0.5602  1.4866 -1.9828
   41GLOH    O2 8748   4.280   1.510  -0.287 -0.4333  0.2908 -0.0246
   41GLOH   H05 8749   4.227   1.568  -0.231 -2.9108  0.1994 -2.1714
   41GLOH    C3 8750   4.493   1.590  -0.199 -0.2541 -0.4235  0.7529
   41GLOH   H06 8751   4.428   1.672  -0.167 -1.3302 -0.3948 -1.3955
   41GLOH   H07 8752   4.537   1.610  -0.296 -0.9035 -0.6635  0.4080
   41GLOH    O3 8753   4.601   1.555  -0.107 -0.1986 -0.1136 -0.4541
   41GLOH   H01 8754   4.574   1.475  -0.058  1.2796 -0.9407 -0.9659
   42GLOH   H03 8755   3.607   3.114  -0.173  1.8092  1.1091  0.6118
   42GLOH    O1 8756   3.637   3.103  -0.081  0.2053 -0.2793  0.9802
   42GLOH    C1 8757   3.540   3.128   0.025 -0.0954  0.3453  0.1515
   42GLOH   H02 8758   3.504   3.230   0.036 -1.4024 -0.1941  0.9114
   42GLOH   H08 8759   3.597   3.114   0.117 -1.3477 -0.9805  0.7432
   42GLOH    C2 8760   3.423   3.030   0.013 -0.9271 -0.0812  0.0926
   42GLOH   H04 8761   3.369   3.051  -0.080  2.0894 -3.5347 -2.5487
   42GLOH    O2 8762   3.467   2.889   0.025 -0.1465  0.3216  0.2003
   42GLOH   H05 8763   3.475   2.865   0.119  0.5311  2.7676  0.7993
   42GLOH    C3 8764   3.324   3.067   0.128 -0.1470 -0.0843 -0.1342
   42GLOH   H06 8765   3.303   3.173   0.116 -2.3672 -0.6321 -1.3521
   42GLOH   H07 8766   3.371   3.060   0.226  0.4165  1.3819 -0.2894
   42GLOH    O3 8767   3.213   2.980   0.121  0.2537 -0.4738  0.5748
   42GLOH   H01 8768   3.131   3.026   0.147  1.0101  0.1315  1.9323
   43GLOH   H03 8769   3.398   9.386  -0.140  0.2915 -0.5654 -0.0244
   43GLOH    O1 8770   3.454   9.423  -0.210  0.4654 -0.7430  0.0214
   43GLOH    C1 8771   3.578   9.480  -0.157  0.6563  0.1454 -0.6638
   43GLOH   H02 8772   3.626   9.541  -0.234  0.5016 -0.7397 -1.4649
   43GLOH   H08 8773   3.641   9.398  -0.124  1.0959  1.5504  2.2001
   43GLOH    C2 8774   3.561   9.566  -0.032 -0.2308 -0.7568  0.0220
   43GLOH   H04 8775   3.511   9.508   0.046  3.2824 -1.9856  1.4476
   43GLOH    O2 8776   3.700   9.596   0.011 -0.2406 -0.0615 -0.1717
   43GLOH   H05 8777   3.737   9.648  -0.063  0.0355  0.3689  0.2682
   43GLOH    C3 8778   3.476   9.695  -0.067  0.3009 -0.0140 -0.5130
   43GLOH   H06 8779   3.486   9.750   0.027  2.2237 -2.2201  0.6351
   43GLOH   H07 8780   3.369   9.676  -0.075  0.1220  2.0224 -3.6029
   43GLOH    O3 8781   3.523   9.772  -0.176  0.1254 -0.0234 -0.5211
   43GLOH   H01 8782   3.449   9.810  -0.227 -0.3966  0.7048  0.7474
   44GLOH   H03 8783   3.927   4.665   1.582 -0.4402  1.2417  1.0619
   44GLOH    O1 8784   3.981   4.606   1.638 -0.1942  0.0994 -0.3660
   44GLOH    C1 8785   4.086   4.538   1.570 -0.4016 -0.4646  1.0734
   44GLOH   H02 8786   4.182   4.575   1.608  1.3316 -1.2615 -2.3434
   44GLOH   H08 8787   4.076   4.568   1.466  1.0155  1.5054  1.4669
   44GLOH    C2 8788   4.077   4.387   1.593 -0.2708 -0.2527  0.1141
   44GLOH   H04 8789   3.978   4.354   1.558 -0.3772 -0.4622  0.6066
   44GLOH    O2 8790   4.176   4.316   1.508 -0.6361 -0.2396  0.5158
   44GLOH   H05 8791   4.158   4.221   1.502  0.3850 -0.4429  0.5695
   44GLOH    C3 8792   4.096   4.351   1.741 -0.9247  0.7503 -0.2726
   44GLOH   H06 8793   4.198   4.372   1.771 -1.2587  0.1839  1.3125
   44GLOH   H07 8794   4.081   4.245   1.758  2.3673  0.0622 -1.4442
   44GLOH    O3 8795   4.016   4.429   1.819 -0.2614  0.0730  0.4384
   44GLOH   H01 8796   3.999   4.514   1.775 -2.0622 -0.2181  0.5408
   45GLOH   H03 8797   3.836   1.758   2.244 -0.5929  0.0874  0.7842
   45GLOH    O1 8798   3.739   1.760   2.235 -0.5603  0.0989  0.4401
   45GLOH    C1 8799   3.697   1.840   2.121  0.3638 -0.1363 -1.6491
   45GLOH   H02 8800   3.768   1.840   2.039 -0.4404 -1.4751 -2.3589
   45GLOH   H08 8801   3.688   1.944   2.153  2.0287 -0.3800 -0.3148
   45GLOH    C2 8802   3.569   1.789   2.062 -0.2950 -0.5195 -1.1450
   45GLOH   H04 8803   3.489   1.785   2.137 -0.4973  1.0191 -1.2576
   45GLOH    O2 8804   3.537   1.882   1.961  0.2484 -0.5174 -0.6661
   45GLOH   H05 8805   3.443   1.864   1.940  0.4011 -1.4244 -0.5887
   45GLOH    C3 8806   3.588   1.646   2.017  0.4890  0.2211  0.3130
   45GLOH   H06 8807   3.638   1.595   2.100  0.9302 -0.2760 -0.2500
   45GLOH   H07 8808   3.665   1.639   1.940 -1.2025 -0.1312 -1.3808
   45GLOH    O3 8809   3.467   1.586   1.964 -0.4417  0.1494 -0.2077
   45GLOH   H01 8810   3.484   1.496   1.932  0.7861 -0.3514  1.7582
   46GLOH   H03 8811   4.090   1.320   1.944 -0.2140  1.3111 -1.0343
   46GLOH    O1 8812   4.038   1.379   2.001  0.1377  0.3078  0.3483
   46GLOH    C1 8813   3.915   1.313   2.042  0.1356  0.2416  0.7383
   46GLOH   H02 8814   3.925   1.208   2.069 -1.8589 -0.6427 -1.8040
   46GLOH   H08 8815   3.849   1.314   1.956  0.0481 -1.3400  0.7768
   46GLOH    C2 8816   3.860   1.389   2.170 -0.0726  0.1334  0.7189
   46GLOH   H04 8817   3.888   1.495   2.166  0.6250 -0.0049  1.7167
   46GLOH    O2 8818   3.715   1.354   2.175  0.0881 -0.2400 -0.3393
   46GLOH   H05 8819   3.678   1.422   2.235 -0.6299  0.0725 -1.1220
   46GLOH    C3 8820   3.923   1.335   2.296 -1.3171  0.7075 -0.2460
   46GLOH   H06 8821   3.936   1.227   2.305 -3.2669  0.4002 -1.0319
   46GLOH   H07 8822   3.849   1.352   2.374 -0.7399  0.8409  0.2759
   46GLOH    O3 8823   4.046   1.408   2.329  0.2621  0.0007 -0.6110
   46GLOH   H01 8824   4.106   1.349   2.378  0.1417 -0.9687 -1.6296
   47GLOH   H03 8825   3.441   0.988   0.465  0.0982 -1.2030  1.3160
   47GLOH    O1 8826   3.435   0.895   0.435  0.5749 -0.7096 -0.3364
   47GLOH    C1 8827   3.379   0.811   0.535  0.5444 -0.4420 -0.3473
   47GLOH   H02 8828   3.283   0.858   0.557  0.2389 -0.5207 -1.4691
   47GLOH   H08 8829   3.436   0.818   0.627  0.9689 -0.7119 -0.5846
   47GLOH    C2 8830   3.357   0.670   0.499 -0.8302  0.0978 -0.7968
   47GLOH   H04 8831   3.453   0.622   0.474 -0.1082  0.1353  1.8201
   47GLOH    O2 8832   3.303   0.599   0.607 -0.0274  0.4617  0.0935
   47GLOH   H05 8833   3.328   0.510   0.576 -1.1860  0.5913 -1.2596
   47GLOH    C3 8834   3.278   0.656   0.367  0.1050 -0.0989  1.0743
   47GLOH   H06 8835   3.176   0.689   0.385 -0.0479  0.2748 -0.3740
   47GLOH   H07 8836   3.279   0.548   0.355 -0.2137 -0.0780  0.8695
   47GLOH    O3 8837   3.346   0.728   0.261  0.0073 -0.0724 -0.7547
   47GLOH   H01 8838   3.378   0.814   0.295  1.8502 -1.3005  0.7503
   48GLOH   H03 8839   3.500  10.108  -0.261 -0.0974 -1.9946  1.2929
   48GLOH    O1 8840   3.589  10.078  -0.285 -0.0788 -0.5517 -0.5301
   48GLOH    C1 8841   3.617  10.080  -0.427 -0.3117 -0.3440  0.7177
   48GLOH   H02 8842   3.593  10.180  -0.463 -1.5249 -1.3811 -1.4641
   48GLOH   H08 8843   3.550  10.014  -0.483  1.4396  1.0408 -3.1669
   48GLOH    C2 8844   3.760  10.058  -0.469  0.7449 -0.5304 -0.4307
   48GLOH   H04 8845   3.774   9.950  -0.460 -0.0365 -0.7330 -1.4736
   48GLOH    O2 8846   3.785  10.107  -0.606  0.0983  0.0101 -0.0231
   48GLOH   H05 8847   3.774  10.204  -0.614  0.1396  0.0063 -0.1314
   48GLOH    C3 8848   3.855  10.136  -0.373  0.0606  0.1200  0.1287
   48GLOH   H06 8849   3.817  10.238  -0.373 -1.8899 -0.5307  2.7385
   48GLOH   H07 8850   3.954  10.125  -0.417  0.8697  2.3725  1.3447
   48GLOH    O3 8851   3.843  10.082  -0.241 -0.0491 -0.0604  0.0601
   48GLOH   H01 8852   3.747  10.073  -0.229 -0.3832  1.3974 -1.3299
   49GLOH   H03 8853   3.275   3.880   2.218 -0.4471  0.1412  0.3893
   49GLOH    O1 8854   3.301   3.790   2.247 -0.0238  0.2461  0.3292
   49GLOH    C1 8855   3.297   3.684   2.147 -0.1907 -0.4284  0.5435
   49GLOH   H02 8856   3.378   3.613   2.160  0.5167  0.1366 -0.6912
   49GLOH   H08 8857   3.302   3.734   2.050 -1.4907  0.1315  0.7545
   49GLOH    C2 8858   3.167   3.608   2.160  0.3048 -0.2811 -0.8076
   49GLOH   H04 8859   3.093   3.686   2.137  0.7576 -0.0585 -1.5383
   49GLOH    O2 8860   3.172   3.499   2.068 -0.1177  0.3714 -0.0166
   49GLOH   H05 8861   3.110   3.434   2.107  1.3102 -2.8091 -2.7704
   49GLOH    C3 8862   3.145   3.569   2.311  0.2150  0.6789  0.9788
   49GLOH   H06 8863   3.118   3.654   2.374  0.0825 -0.0113  1.8670
   49GLOH   H07 8864   3.239   3.524   2.344  0.0297 -0.3511  0.1303
   49GLOH    O3 8865   3.038   3.472   2.323 -0.1700  0.1259  0.7528
   49GLOH   H01 8866   3.033   3.439   2.414  2.0070 -0.9722  0.5069
   50GLOH   H03 8867   3.267   2.668   2.100  2.3388 -1.3935  1.9637
   50GLOH    O1 8868   3.294   2.747   2.149 -0.0941  0.7338  0.0028
   50GLOH    C1 8869   3.388   2.697   2.249  0.6429 -0.2404  0.2481
   50GLOH   H02 8870   3.440   2.608   2.215 -0.7425 -1.2617  0.7439
   50GLOH   H08 8871   3.329   2.671   2.337 -0.8673 -1.5891 -1.1243
   50GLOH    C2 8872   3.477   2.808   2.299 -0.6762 -0.5091  0.5078
   50GLOH   H04 8873   3.553   2.849   2.231  0.2208  0.9159  2.3066
   50GLOH    O2 8874   3.396   2.915   2.336  0.1937  0.8267 -0.6322
   50GLOH   H05 8875   3.336   2.877   2.403 -0.6032  1.7936 -0.7764
   50GLOH    C3 8876   3.563   2.767   2.415 -0.0907  0.3823  0.2606
   50GLOH   H06 8877   3.626   2.851   2.442 -0.0805  0.4259  0.0976
   50GLOH   H07 8878   3.623   2.686   2.373  1.4280  1.9467 -0.6525
   50GLOH    O3 8879   3.493   2.724   2.532 -0.6032 -0.2633  0.1578
   50GLOH   H01 8880   3.482   2.797   2.596  4.4232  0.0986  0.8559
   51GLOH   H03 8881   3.609   0.751   2.090  1.5230 -0.3783  2.1112
   51GLOH    O1 8882   3.562   0.671   2.119  0.6602 -0.5478  0.3674
   51GLOH    C1 8883   3.614   0.559   2.053 -0.2318  0.0289 -0.0099
   51GLOH   H02 8884   3.677   0.587   1.969  1.3175  2.7325  1.9818
   51GLOH   H08 8885   3.532   0.499   2.012  0.5960  0.4261 -2.2745
   51GLOH    C2 8886   3.692   0.462   2.144 -0.2856 -0.3756 -0.1995
   51GLOH   H04 8887   3.622   0.426   2.221 -1.8213 -0.1524 -1.4662
   51GLOH    O2 8888   3.748   0.347   2.081 -0.4840  0.1471  0.4358
   51GLOH   H05 8889   3.714   0.347   1.990 -0.1504  3.0498  0.2599
   51GLOH    C3 8890   3.801   0.537   2.219  0.5530  0.0300 -0.3000
   51GLOH   H06 8891   3.859   0.464   2.275  1.9611  1.9915  0.8679
   51GLOH   H07 8892   3.766   0.605   2.296  1.1155  0.8681 -0.7731
   51GLOH    O3 8893   3.885   0.617   2.130 -0.4097  0.5100 -0.4338
   51GLOH   H01 8894   3.925   0.694   2.176  0.9829  1.4426 -3.0899
   52GLOH   H03 8895   3.708   2.363   0.376 -0.5106 -0.3144 -1.7088
   52GLOH    O1 8896   3.713   2.450   0.332  0.1911  0.3105 -0.4255
   52GLOH    C1 8897   3.771   2.431   0.204 -0.2237 -0.1223 -0.3893
   52GLOH   H02 8898   3.815   2.331   0.206  0.1053  0.0156 -0.7627
   52GLOH   H08 8899   3.853   2.501   0.189  0.5803 -0.7508  1.0006
   52GLOH    C2 8900   3.668   2.440   0.094 -0.5634  0.4468  0.5282
   52GLOH   H04 8901   3.616   2.536   0.102 -1.0670  0.2903 -0.7280
   52GLOH    O2 8902   3.726   2.430  -0.040  0.3262 -0.6852 -0.2418
   52GLOH   H05 8903   3.795   2.361  -0.039  3.0367  1.9188  2.1463
   52GLOH    C3 8904   3.573   2.320   0.105 -0.2001  0.4638 -0.3141
   52GLOH   H06 8905   3.522   2.337   0.200  1.7002 -0.9343  0.9893
   52GLOH   H07 8906   3.641   2.236   0.114 -0.0294  0.2483 -3.0352
   52GLOH    O3 8907   3.474   2.316  -0.007 -0.1083  0.0010 -0.3466
   52GLOH   H01 8908   3.424   2.400  -0.015 -0.2641 -0.1773 -1.3517
   53GLOH   H03 8909   3.114   3.067  -0.340  0.6124  2.2309 -1.0060
   53GLOH    O1 8910   3.050   3.098  -0.274  0.5568  0.3675 -0.1379
   53GLOH    C1 8911   2.946   2.993  -0.265  0.1326 -0.3063 -0.4591
   53GLOH   H02 8912   2.934   2.947  -0.364 -0.8109 -0.3815 -0.3149
   53GLOH   H08 8913   2.850   3.035  -0.234  0.5556  0.0506  0.3791
   53GLOH    C2 8914   2.983   2.884  -0.162 -0.5520  0.4557 -0.3841
   53GLOH   H04 8915   2.999   2.927  -0.062  2.4370 -2.6421  0.5625
   53GLOH    O2 8916   2.867   2.799  -0.151  0.1835 -0.1862 -0.2572
   53GLOH   H05 8917   2.822   2.822  -0.069 -0.9871 -1.6915 -0.4494
   53GLOH    C3 8918   3.111   2.809  -0.215  0.6709  0.4393 -0.7466
   53GLOH   H06 8919   3.106   2.807  -0.324 -2.8320 -0.2622 -0.6132
   53GLOH   H07 8920   3.101   2.708  -0.175 -1.5847 -0.9681 -4.5832
   53GLOH    O3 8921   3.234   2.874  -0.172 -0.1300 -0.5658  0.0669
   53GLOH   H01 8922   3.249   2.863  -0.076  2.2159  0.0192 -0.1989
   54GLOH   H03 8923   3.748   3.100   2.100 -0.6415  0.1946  0.4030
   54GLOH    O1 8924   3.802   3.140   2.170 -0.0549 -0.0749  0.1035
   54GLOH    C1 8925   3.726   3.105   2.284  0.2364  0.1310  0.0284
   54GLOH   H02 8926   3.779   3.150   2.368 -0.5014 -1.5609  1.4179
   54GLOH   H08 8927   3.716   2.998   2.296 -2.2551  0.0413 -2.5143
   54GLOH    C2 8928   3.588   3.176   2.268  0.5003  0.0815  0.3727
   54GLOH   H04 8929   3.546   3.144   2.171  1.7698  1.1763 -0.5632
   54GLOH    O2 8930   3.512   3.137   2.382  0.3100  0.0509  0.0753
   54GLOH   H05 8931   3.467   3.052   2.367  1.1389 -0.5088  0.6931
   54GLOH    C3 8932   3.601   3.329   2.268  0.2553 -0.6132 -0.1903
   54GLOH   H06 8933   3.702   3.356   2.238  0.1992  0.6943  0.7460
   54GLOH   H07 8934   3.596   3.372   2.369 -3.2928 -1.7029  0.1610
   54GLOH    O3 8935   3.496   3.404   2.197 -0.1958 -0.2552 -0.5258
   54GLOH   H01 8936   3.411   3.358   2.200 -0.4029 -0.2231 -3.5734
   55GLOH   H03 8937   4.227   2.664   0.086  0.9521 -2.0786 -3.0725
   55GLOH    O1 8938   4.321   2.678   0.110 -0.0067 -0.0409 -0.2656
   55GLOH    C1 8939   4.335   2.761   0.228  0.2787 -0.2196 -0.1858
   55GLOH   H02 8940   4.420   2.717   0.280  2.2031  2.0498 -1.3088
   55GLOH   H08 8941   4.253   2.753   0.300  1.1042  2.7226  1.1723
   55GLOH    C2 8942   4.360   2.914   0.204 -0.4066 -0.5296  0.0431
   55GLOH   H04 8943   4.432   2.922   0.121  0.0505  0.0147  0.4839
   55GLOH    O2 8944   4.243   2.994   0.168 -0.3660  0.5286  0.3521
   55GLOH   H05 8945   4.215   2.960   0.081  0.9226 -2.1222  0.8944
   55GLOH    C3 8946   4.433   2.979   0.325  0.1870 -0.1154  0.0142
   55GLOH   H06 8947   4.362   2.968   0.407  0.3836 -1.1954  0.0445
   55GLOH   H07 8948   4.443   3.085   0.303  0.8448 -0.2038 -0.1215
   55GLOH    O3 8949   4.560   2.918   0.369 -0.0193  0.1132  0.0907
   55GLOH   H01 8950   4.627   2.895   0.302  0.6910 -2.2594  1.5547
   56GLOH   H03 8951   4.246   2.758   0.945  0.8169  0.7719 -0.1550
   56GLOH    O1 8952   4.168   2.785   0.892  0.5093 -0.3136 -0.2677
   56GLOH    C1 8953   4.068   2.834   0.985  0.3811 -0.2393  0.3426
   56GLOH   H02 8954   3.996   2.894   0.929  1.7610  2.7197  1.6276
   56GLOH   H08 8955   4.107   2.904   1.059 -1.4649  0.0984  1.0408
   56GLOH    C2 8956   3.982   2.726   1.053  0.6501  0.0725 -0.2234
   56GLOH   H04 8957   4.050   2.655   1.102 -0.3338 -1.7353 -1.4325
   56GLOH    O2 8958   3.901   2.784   1.157  0.1522  0.2683 -0.7081
   56GLOH   H05 8959   3.814   2.751   1.131 -0.3198  0.9499 -0.0185
   56GLOH    C3 8960   3.898   2.641   0.953 -0.1124  1.0743  0.1558
   56GLOH   H06 8961   3.852   2.550   0.991 -1.8701  2.3092  1.0631
   56GLOH   H07 8962   3.975   2.615   0.880 -1.6163  5.4629 -3.2159
   56GLOH    O3 8963   3.787   2.705   0.881 -0.3500 -0.1465 -0.7403
   56GLOH   H01 8964   3.700   2.665   0.894 -1.0875  1.8826  0.8266
   57GLOH   H03 8965   3.485   9.488   2.341  0.4042  0.8787  0.1393
   57GLOH    O1 8966   3.504   9.523   2.252 -0.1634  0.7870 -0.0223
   57GLOH    C1 8967   3.446   9.439   2.144 -0.3191 -0.4376 -0.1302
   57GLOH   H02 8968   3.339   9.418   2.154 -0.5702 -1.1133 -3.5855
   57GLOH   H08 8969   3.502   9.345   2.139 -1.4407 -1.1725  0.6488
   57GLOH    C2 8970   3.457   9.499   2.007 -0.1058 -0.3923 -0.1899
   57GLOH   H04 8971   3.559   9.485   1.968 -0.3849  0.4239 -1.2148
   57GLOH    O2 8972   3.369   9.431   1.914 -0.4705 -0.2294 -0.6212
   57GLOH   H05 8973   3.278   9.467   1.915  0.1018  1.2392  2.1561
   57GLOH    C3 8974   3.431   9.654   2.003 -0.2623 -0.8709  0.7043
   57GLOH   H06 8975   3.326   9.673   2.026  0.4618  0.0233  3.4997
   57GLOH   H07 8976   3.465   9.689   1.906  1.9886 -1.0050  1.4101
   57GLOH    O3 8977   3.507   9.728   2.098  0.3622  0.6897 -0.0338
   57GLOH   H01 8978   3.512   9.670   2.177 -1.3093  1.5211  0.7087
   58GLOH   H03 8979   3.754   3.327   1.831 -1.6065  0.2395  2.2271
   58GLOH    O1 8980   3.723   3.240   1.799  0.1029  0.3211  0.2277
   58GLOH    C1 8981   3.815   3.181   1.712  0.1286 -0.0591 -0.3138
   58GLOH   H02 8982   3.831   3.256   1.634  0.5149 -0.5419 -0.6987
   58GLOH   H08 8983   3.769   3.094   1.666 -0.1625  0.4505 -1.0019
   58GLOH    C2 8984   3.957   3.148   1.764  0.2951 -0.2166 -0.0064
   58GLOH   H04 8985   3.942   3.076   1.847  0.9761 -1.4515 -0.9327
   58GLOH    O2 8986   4.026   3.073   1.665  0.1747 -0.4158 -0.0409
   58GLOH   H05 8987   4.097   3.027   1.713  2.5718  2.2146 -0.9467
   58GLOH    C3 8988   4.033   3.271   1.803 -0.8232  0.4370 -0.1040
   58GLOH   H06 8989   3.975   3.321   1.881 -2.9577  0.3935 -1.6251
   58GLOH   H07 8990   4.034   3.340   1.718 -1.6102 -1.8910 -2.0395
   58GLOH    O3 8991   4.169   3.255   1.855 -0.4155 -0.0488  0.2254
   58GLOH   H01 8992   4.224   3.191   1.806  0.8385  1.5547 -0.5164
   59GLOH   H03 8993   4.561   1.933  -0.175  0.0868 -0.9078 -1.9759
   59GLOH    O1 8994   4.528   2.023  -0.194 -0.1173 -0.4978  0.1509
   59GLOH    C1 8995   4.537   2.102  -0.077  0.1443 -0.4771 -0.0037
   59GLOH   H02 8996   4.637   2.140  -0.055  1.0306 -1.8922 -1.4803
   59GLOH   H08 8997   4.502   2.055   0.015  1.0441  0.7466  0.9793
   59GLOH    C2 8998   4.457   2.234  -0.103 -0.0922  0.4007  0.0218
   59GLOH   H04 8999   4.354   2.209  -0.132 -0.0488  2.5406 -2.1743
   59GLOH    O2 9000   4.460   2.319   0.012 -0.1156 -0.4428  0.0604
   59GLOH   H05 9001   4.447   2.412  -0.013  1.3773 -0.0892  0.5463
   59GLOH    C3 9002   4.525   2.309  -0.224  0.4624  0.7511 -0.2684
   59GLOH   H06 9003   4.628   2.330  -0.196  0.3514 -0.8025  1.3596
   59GLOH   H07 9004   4.469   2.401  -0.242  0.4302  1.2770  2.2790
   59GLOH    O3 9005   4.540   2.230  -0.342  0.1752 -0.2717  0.8915
   59GLOH   H01 9006   4.546   2.136  -0.316 -1.2050 -0.5769  0.1519
   60GLOH   H03 9007   3.623   3.743   0.122 -0.0005  1.9294 -0.9890
   60GLOH    O1 9008   3.546   3.710   0.073 -0.0831  0.5285  0.0663
   60GLOH    C1 9009   3.536   3.813  -0.032  0.1878 -0.3263  0.9444
   60GLOH   H02 9010   3.630   3.860  -0.060  1.2227 -3.0701 -0.2723
   60GLOH   H08 9011   3.463   3.888  -0.003 -0.3884 -0.5514  0.0830
   60GLOH    C2 9012   3.474   3.754  -0.159  0.3105 -0.5462  0.0528
   60GLOH   H04 9013   3.377   3.712  -0.131  0.3015 -0.8896 -0.4965
   60GLOH    O2 9014   3.460   3.857  -0.258 -0.7606 -0.1963  0.3435
   60GLOH   H05 9015   3.396   3.831  -0.326 -0.2999 -0.5316  0.0354
   60GLOH    C3 9016   3.563   3.639  -0.205 -0.2498  0.1767  0.0514
   60GLOH   H06 9017   3.662   3.680  -0.229 -0.1087  0.7402  1.5192
   60GLOH   H07 9018   3.524   3.615  -0.303  0.9814  0.0491 -0.4120
   60GLOH    O3 9019   3.578   3.529  -0.120 -0.5028  0.7246 -0.0475
   60GLOH   H01 9020   3.560   3.566  -0.032  0.0171  0.7541  0.0526
   61GLOH   H03 9021   3.512  10.023   0.437 -1.9684  0.1531  0.2332
   61GLOH    O1 9022   3.503   9.947   0.498  0.0688 -0.5532 -0.3115
   61GLOH    C1 9023   3.625   9.918   0.565 -0.4998  0.3124  0.3963
   61GLOH   H02 9024   3.649   9.996   0.638  1.6298 -0.0087  0.0529
   61GLOH   H08 9025   3.705   9.932   0.493 -1.2344 -0.4786 -0.5815
   61GLOH    C2 9026   3.631   9.773   0.631 -0.4933 -0.3949 -0.5741
   61GLOH   H04 9027   3.604   9.693   0.561  1.6710  0.0830 -1.9853
   61GLOH    O2 9028   3.757   9.746   0.706 -0.0096 -0.0417  0.6924
   61GLOH   H05 9029   3.771   9.651   0.724 -1.6284 -0.6020 -0.9055
   61GLOH    C3 9030   3.517   9.777   0.733  0.2773  0.1126  0.1361
   61GLOH   H06 9031   3.529   9.861   0.801 -0.1730  1.2095 -1.1199
   61GLOH   H07 9032   3.534   9.698   0.807 -0.5856  0.5729  0.8297
   61GLOH    O3 9033   3.382   9.779   0.685  0.3419  0.4659 -0.2108
   61GLOH   H01 9034   3.383   9.711   0.615  1.1802 -1.4355  1.6060
   62GLOH   H03 9035   3.055   3.839   1.615 -0.3587 -0.4261  0.7793
   62GLOH    O1 9036   3.060   3.909   1.683  0.0532  0.8426 -0.5260
   62GLOH    C1 9037   3.080   4.046   1.629  0.0281  0.5045 -0.0580
   62GLOH   H02 9038   2.991   4.108   1.618  1.4965  2.8310  0.6555
   62GLOH   H08 9039   3.122   4.032   1.529  0.9088 -0.9532  0.5058
   62GLOH    C2 9040   3.174   4.126   1.725  0.4436  0.0180 -0.1248
   62GLOH   H04 9041   3.265   4.070   1.750 -0.5215 -1.9412 -0.9229
   62GLOH    O2 9042   3.222   4.252   1.661  0.0157  0.3153  0.0575
   62GLOH   H05 9043   3.264   4.239   1.574 -0.3407 -2.2979  0.2433
   62GLOH    C3 9044   3.104   4.149   1.858  0.0106 -0.0282 -0.6441
   62GLOH   H06 9045   3.009   4.201   1.843 -0.2002 -0.6547 -1.5418
   62GLOH   H07 9046   3.165   4.202   1.931  0.4348 -0.2551 -0.8285
   62GLOH    O3 9047   3.075   4.019   1.916  0.3535 -0.3029  0.4437
   62GLOH   H01 9048   3.056   3.966   1.837 -0.6928  0.3606  0.2346
   63GLOH   H03 9049   4.314   1.252   0.249 -1.0924 -1.8711 -0.8986
   63GLOH    O1 9050   4.378   1.218   0.183  0.5851 -0.2251 -0.1394
   63GLOH    C1 9051   4.358   1.079   0.182 -0.0546  0.1635  0.7590
   63GLOH   H02 9052   4.265   1.056   0.129  0.3076  0.4239 -0.0071
   63GLOH   H08 9053   4.334   1.052   0.284 -0.5057  1.1632  0.9224
   63GLOH    C2 9054   4.476   1.003   0.111  0.6894 -0.1938  0.4293
   63GLOH   H04 9055   4.451   0.897   0.098 -2.0837  0.4535  0.1713
   63GLOH    O2 9056   4.514   1.062  -0.014 -0.3550  0.3029  0.5545
   63GLOH   H05 9057   4.510   1.159  -0.018 -2.5829  0.2598  1.0010
   63GLOH    C3 9058   4.603   1.012   0.203 -0.1642  0.1981 -1.0127
   63GLOH   H06 9059   4.649   1.111   0.199 -1.7940  0.9127 -4.5901
   63GLOH   H07 9060   4.683   0.946   0.168  2.1272  1.5611  1.4823
   63GLOH    O3 9061   4.586   0.972   0.340 -0.3444 -0.3479 -0.3257
   63GLOH   H01 9062   4.599   1.049   0.399  0.5591  0.0578 -1.0401
   64GLOH   H03 9063   4.206   2.455  -0.110 -0.7003  0.5214 -0.5090
   64GLOH    O1 9064   4.232   2.534  -0.162  0.0085  0.4558 -0.2619
   64GLOH    C1 9065   4.102   2.595  -0.186 -0.6395 -0.3104  0.0760
   64GLOH   H02 9066   4.058   2.533  -0.263  0.6047 -0.4804 -0.5047
   64GLOH   H08 9067   4.116   2.693  -0.231 -0.9306  0.5204  1.7312
   64GLOH    C2 9068   4.013   2.611  -0.061  0.2972  0.5014  0.0584
   64GLOH   H04 9069   3.981   2.509  -0.037 -1.6200  1.2930  1.0156
   64GLOH    O2 9070   4.073   2.668   0.058 -0.3382  0.1631 -0.1491
   64GLOH   H05 9071   4.022   2.747   0.083 -2.1070 -1.6031  2.0523
   64GLOH    C3 9072   3.892   2.699  -0.091  0.9472  0.3976  0.7373
   64GLOH   H06 9073   3.926   2.798  -0.120 -0.3406  0.5291 -0.3405
   64GLOH   H07 9074   3.822   2.714  -0.009  0.8915  1.0493  0.5731
   64GLOH    O3 9075   3.812   2.645  -0.200  0.3147  0.0424  0.0465
   64GLOH   H01 9076   3.750   2.583  -0.157 -0.2902  0.8672  0.3780
   65GLOH   H03 9077   3.444   9.011   0.818  3.0371 -3.2883  1.5341
   65GLOH    O1 9078   3.472   9.010   0.725  0.3481  0.4487  0.5361
   65GLOH    C1 9079   3.390   9.110   0.652  0.2758 -0.4064  0.2581
   65GLOH   H02 9080   3.288   9.116   0.689  0.1679 -1.1093  0.0843
   65GLOH   H08 9081   3.377   9.074   0.550  1.5875  0.8078 -0.3550
   65GLOH    C2 9082   3.432   9.259   0.647 -0.2816  0.2921 -0.8362
   65GLOH   H04 9083   3.537   9.253   0.615 -0.4325  2.9190 -2.0071
   65GLOH    O2 9084   3.364   9.347   0.550  0.1347  0.0751  0.2248
   65GLOH   H05 9085   3.362   9.312   0.459  0.7507 -2.1086  1.0192
   65GLOH    C3 9086   3.456   9.325   0.781 -0.1812  1.0323  0.4956
   65GLOH   H06 9087   3.509   9.261   0.851  3.2381  1.5584 -1.5184
   65GLOH   H07 9088   3.356   9.341   0.822 -0.3754 -0.3139  0.5617
   65GLOH    O3 9089   3.520   9.459   0.783  0.2545 -0.0189 -0.0041
   65GLOH   H01 9090   3.444   9.510   0.818  0.2183  1.9209 -2.7541
   66GLOH   H03 9091   3.323  10.298   1.364  0.0198 -2.4078 -2.3421
   66GLOH    O1 9092   3.420  10.293   1.377 -0.1726  0.0825  0.5879
   66GLOH    C1 9093   3.467  10.239   1.253 -0.2070 -0.0614  0.4840
   66GLOH   H02 9094   3.444  10.133   1.244  0.5271 -0.4062  2.3934
   66GLOH   H08 9095   3.572  10.257   1.233 -0.3978  0.4145 -0.1036
   66GLOH    C2 9096   3.404  10.316   1.135  1.1594 -0.2486 -0.2453
   66GLOH   H04 9097   3.448  10.275   1.043  1.3004 -0.7262  0.0368
   66GLOH    O2 9098   3.258  10.292   1.135  0.2341 -0.2119  0.1363
   66GLOH   H05 9099   3.216  10.331   1.057  0.9357  2.1294  0.8540
   66GLOH    C3 9100   3.420  10.465   1.135  0.0782 -0.6715  0.5269
   66GLOH   H06 9101   3.362  10.506   1.218  0.5725 -1.5304  1.3100
   66GLOH   H07 9102   3.382  10.503   1.041  0.9862 -0.0826  0.3918
   66GLOH    O3 9103   3.558  10.497   1.154  0.0550  0.0407  0.0036
   66GLOH   H01 9104   3.573  10.585   1.116  3.6705 -0.2709  0.5292
   67GLOH   H03 9105   4.491   2.591   1.555 -0.2216  0.7872 -1.4837
   67GLOH    O1 9106   4.493   2.506   1.507 -0.0417 -0.1007  0.0983
   67GLOH    C1 9107   4.617   2.431   1.533 -0.2892  0.2730  0.1052
   67GLOH   H02 9108   4.695   2.469   1.467 -1.0704  1.7709  0.0267
   67GLOH   H08 9109   4.596   2.330   1.498  1.8044  0.1900 -0.9726
   67GLOH    C2 9110   4.677   2.436   1.675 -0.8525 -0.9068 -0.8511
   67GLOH   H04 9111   4.764   2.371   1.684 -0.4954 -0.4428 -0.9347
   67GLOH    O2 9112   4.712   2.571   1.705  0.3945 -1.1441 -0.0386
   67GLOH   H05 9113   4.630   2.620   1.688 -0.3625 -1.4677  2.5306
   67GLOH    C3 9114   4.577   2.391   1.781  0.2465  0.6026 -0.0700
   67GLOH   H06 9115   4.506   2.471   1.799  0.7231  0.8029  0.9654
   67GLOH   H07 9116   4.632   2.385   1.875  1.2784  1.2456 -0.6103
   67GLOH    O3 9117   4.521   2.262   1.761  0.3428 -0.3241 -0.5087
   67GLOH   H01 9118   4.458   2.269   1.835  1.3274  1.5299  0.1857
   68GLOH   H03 9119   4.481   3.592   1.494  1.7510 -2.6170  1.1256
   68GLOH    O1 9120   4.406   3.536   1.520 -0.3409 -0.5489 -0.2889
   68GLOH    C1 9121   4.409   3.425   1.429  0.3269  0.0109 -0.0675
   68GLOH   H02 9122   4.513   3.392   1.433  0.9169  1.7011 -1.0661
   68GLOH   H08 9123   4.380   3.461   1.330 -1.7904 -0.8840  0.1986
   68GLOH    C2 9124   4.305   3.316   1.476 -0.5679 -0.1360 -0.1664
   68GLOH   H04 9125   4.207   3.362   1.493 -0.8716 -1.3592  1.5071
   68GLOH    O2 9126   4.301   3.212   1.374  0.0184 -0.7165  0.0170
   68GLOH   H05 9127   4.385   3.172   1.348 -0.5403  0.5126 -3.9847
   68GLOH    C3 9128   4.349   3.262   1.612 -0.2985  0.2704  0.3409
   68GLOH   H06 9129   4.341   3.330   1.697  0.1539  1.2280 -0.3760
   68GLOH   H07 9130   4.456   3.250   1.595 -0.3724  0.9603 -0.6788
   68GLOH    O3 9131   4.288   3.130   1.648 -0.4712  0.0002  0.0317
   68GLOH   H01 9132   4.308   3.068   1.575  1.2143  1.3959 -0.7371
   69GLOH   H03 9133   3.937   2.704   1.528 -3.8897  0.5626 -0.4375
   69GLOH    O1 9134   3.935   2.643   1.604  0.3856  0.0342 -0.6306
   69GLOH    C1 9135   4.045   2.655   1.692 -0.4534  0.1732  0.5107
   69GLOH   H02 9136   4.014   2.602   1.782 -1.0796 -3.0088 -1.4926
   69GLOH   H08 9137   4.058   2.761   1.713 -1.4467  0.0327  1.9505
   69GLOH    C2 9138   4.181   2.592   1.658  0.2099 -0.0380  1.1471
   69GLOH   H04 9139   4.221   2.631   1.563 -0.8456 -0.6744  0.4254
   69GLOH    O2 9140   4.279   2.623   1.759 -0.5985 -0.8832 -0.7813
   69GLOH   H05 9141   4.254   2.588   1.846  1.1820  1.5310  0.7525
   69GLOH    C3 9142   4.163   2.442   1.642 -0.6097  0.0573 -0.6388
   69GLOH   H06 9143   4.248   2.410   1.582 -1.2302  0.0542 -1.5379
   69GLOH   H07 9144   4.069   2.427   1.588 -0.7178  1.9864 -1.0039
   69GLOH    O3 9145   4.155   2.373   1.768  0.1769  0.1176  0.0803
   69GLOH   H01 9146   4.063   2.353   1.792 -0.4295  2.3582 -0.2420
   70GLOH   H03 9147   3.977   2.126   1.772 -1.1450  0.5474 -1.7844
   70GLOH    O1 9148   4.013   2.040   1.742 -0.6279  0.1923 -0.2049
   70GLOH    C1 9149   3.944   1.944   1.821 -0.4030 -0.2434  0.0138
   70GLOH   H02 9150   3.903   1.977   1.917  1.3709  1.7295  0.1224
   70GLOH   H08 9151   4.007   1.862   1.856  0.0482  1.2804  2.9420
   70GLOH    C2 9152   3.845   1.875   1.730  0.0804  0.4458 -0.5595
   70GLOH   H04 9153   3.885   1.861   1.628  1.8084 -0.1441  0.1809
   70GLOH    O2 9154   3.809   1.746   1.781 -0.0230  0.0411  0.2582
   70GLOH   H05 9155   3.881   1.698   1.825  0.2991 -1.2513 -1.6285
   70GLOH    C3 9156   3.728   1.978   1.727  0.1294  1.5048  0.0317
   70GLOH   H06 9157   3.648   1.915   1.688  1.6351 -0.3015 -0.1963
   70GLOH   H07 9158   3.757   2.047   1.648 -1.2474 -0.7603 -2.5276
   70GLOH    O3 9159   3.690   2.031   1.855 -0.1405  0.2442 -0.7379
   70GLOH   H01 9160   3.625   1.973   1.898  0.3247 -0.0104 -0.3706
   71GLOH   H03 9161   4.080   4.047   1.966  2.6431 -1.1876 -1.0652
   71GLOH    O1 9162   4.133   4.057   2.048  0.0404  0.2704  0.5100
   71GLOH    C1 9163   4.098   4.189   2.096  0.5374  0.2559  0.4577
   71GLOH   H02 9164   3.992   4.186   2.121  0.5908 -1.3598  0.5569
   71GLOH   H08 9165   4.114   4.269   2.024  2.2150 -0.2293  0.2575
   71GLOH    C2 9166   4.182   4.223   2.218  0.1576 -0.1640 -0.1344
   71GLOH   H04 9167   4.203   4.141   2.288 -2.7603  0.5890  1.6912
   71GLOH    O2 9168   4.310   4.284   2.184 -0.2459 -0.2993 -0.0644
   71GLOH   H05 9169   4.381   4.221   2.168 -0.6509 -0.4818 -1.1820
   71GLOH    C3 9170   4.100   4.325   2.303  0.0794 -0.0557 -0.3988
   71GLOH   H06 9171   4.057   4.403   2.240  0.1469  2.3990  2.4934
   71GLOH   H07 9172   4.159   4.370   2.383 -0.4000  2.8638 -1.6401
   71GLOH    O3 9173   3.990   4.256   2.362  0.6211  0.3996 -0.1571
   71GLOH   H01 9174   3.919   4.321   2.348  0.9186  0.7364 -0.0916
   72GLOH   H03 9175   3.953   4.712   1.916  0.1697 -0.5027  0.0190
   72GLOH    O1 9176   4.045   4.689   1.941  0.3682  0.4548  0.1956
   72GLOH    C1 9177   4.064   4.662   2.075 -0.3291  0.2834 -0.0983
   72GLOH   H02 9178   4.004   4.575   2.104 -0.1325  0.2871  0.3076
   72GLOH   H08 9179   4.031   4.752   2.126 -0.5610 -0.8553  1.7982
   72GLOH    C2 9180   4.209   4.650   2.109 -0.4776 -0.0020 -0.6067
   72GLOH   H04 9181   4.262   4.744   2.091 -0.2793 -0.0182 -0.1144
   72GLOH    O2 9182   4.224   4.624   2.251 -0.3737  0.2540 -0.7069
   72GLOH   H05 9183   4.316   4.605   2.273 -1.0452 -0.2816  1.7989
   72GLOH    C3 9184   4.271   4.537   2.022 -0.2337 -0.6803  0.2503
   72GLOH   H06 9185   4.206   4.450   2.025  0.0793 -0.9276 -0.0697
   72GLOH   H07 9186   4.368   4.500   2.055 -0.3868 -0.4749  0.9438
   72GLOH    O3 9187   4.263   4.580   1.884  0.0679  0.1866  0.1885
   72GLOH   H01 9188   4.184   4.636   1.878 -1.4537 -2.0318 -1.1330
   73GLOH   H03 9189   4.261   2.456  -0.291  0.1460 -1.7520  1.3791
   73GLOH    O1 9190   4.242   2.402  -0.370 -0.2568  0.0987  0.1603
   73GLOH    C1 9191   4.210   2.505  -0.467  0.0179 -0.1684 -0.4095
   73GLOH   H02 9192   4.269   2.596  -0.452 -1.9133  0.8623  1.2791
   73GLOH   H08 9193   4.108   2.543  -0.457 -0.8752 -3.2384  3.1464
   73GLOH    C2 9194   4.223   2.455  -0.616  0.1109 -0.1721  0.9277
   73GLOH   H04 9195   4.144   2.382  -0.634  1.2370 -1.3940  0.8667
   73GLOH    O2 9196   4.213   2.556  -0.714  0.1940  0.2384 -0.2683
   73GLOH   H05 9197   4.140   2.612  -0.684 -0.7839 -0.7710 -0.7410
   73GLOH    C3 9198   4.353   2.378  -0.644  0.1114 -0.3387  0.1906
   73GLOH   H06 9199   4.375   2.309  -0.562 -1.8090  1.0251  1.9097
   73GLOH   H07 9200   4.433   2.451  -0.649 -0.6314  0.4296 -0.8583
   73GLOH    O3 9201   4.352   2.305  -0.771  0.5263  0.2677  0.5096
   73GLOH   H01 9202   4.290   2.353  -0.829 -1.3402 -0.8251  1.5413
   74GLOH   H03 9203   3.631   1.521   0.007 -1.8518  1.4996 -0.8292
   74GLOH    O1 9204   3.683   1.573  -0.057  0.1736  0.2270 -0.2821
   74GLOH    C1 9205   3.708   1.710  -0.010 -0.0773 -0.4998  0.8715
   74GLOH   H02 9206   3.625   1.773  -0.040  1.3204 -0.1844 -2.5115
   74GLOH   H08 9207   3.796   1.749  -0.062 -0.5122  2.0665  2.0005
   74GLOH    C2 9208   3.742   1.718   0.143  0.2059  0.2728 -0.2198
   74GLOH   H04 9209   3.804   1.635   0.179 -0.9423 -0.8709 -0.8138
   74GLOH    O2 9210   3.800   1.854   0.174  0.5515 -0.3236  0.1894
   74GLOH   H05 9211   3.766   1.922   0.113  0.4722  1.1735  1.8672
   74GLOH    C3 9212   3.621   1.712   0.232  0.3126 -0.0213  0.0960
   74GLOH   H06 9213   3.652   1.742   0.331  0.3291  0.8401 -0.1640
   74GLOH   H07 9214   3.590   1.610   0.254 -0.6858  0.6395  1.8583
   74GLOH    O3 9215   3.509   1.789   0.183  0.3327  0.9934 -0.2191
   74GLOH   H01 9216   3.467   1.744   0.108  0.3109  1.9635 -0.7977
   75GLOH   H03 9217   3.291   2.050   1.759  1.7542 -0.5553 -0.6293
   75GLOH    O1 9218   3.335   2.133   1.785 -0.3602  0.1076  0.9019
   75GLOH    C1 9219   3.445   2.154   1.698  0.2738 -0.6076 -0.1442
   75GLOH   H02 9220   3.499   2.061   1.687  0.4871 -0.3935 -0.9228
   75GLOH   H08 9221   3.517   2.222   1.743  1.6757 -2.3389  0.2598
   75GLOH    C2 9222   3.408   2.201   1.558 -0.1956 -0.2595  0.3691
   75GLOH   H04 9223   3.327   2.137   1.520  2.2122 -2.5163 -1.1273
   75GLOH    O2 9224   3.361   2.338   1.556 -0.4861 -0.5817  0.1884
   75GLOH   H05 9225   3.265   2.338   1.575 -0.3220  1.1059  1.1087
   75GLOH    C3 9226   3.526   2.198   1.458 -0.2655 -0.1807 -0.1912
   75GLOH   H06 9227   3.606   2.262   1.495 -0.7213  0.3989 -0.2224
   75GLOH   H07 9228   3.501   2.248   1.364  1.5854  0.8134 -0.1701
   75GLOH    O3 9229   3.579   2.068   1.433 -0.5259  0.4502 -0.0200
   75GLOH   H01 9230   3.649   2.097   1.371  0.0483 -0.6182  0.1228
   76GLOH   H03 9231   3.988   4.000   0.691  0.0877 -1.1711  0.4001
   76GLOH    O1 9232   3.892   3.986   0.696 -0.1974  0.4910 -0.0479
   76GLOH    C1 9233   3.873   3.866   0.787  0.3162 -1.1317  0.3814
   76GLOH   H02 9234   3.860   3.775   0.728 -0.4450 -1.2087  0.6631
   76GLOH   H08 9235   3.778   3.877   0.839  0.6623  0.1015  0.7757
   76GLOH    C2 9236   3.985   3.843   0.885 -0.2582  0.1373 -0.1083
   76GLOH   H04 9237   3.995   3.937   0.940  1.9413  0.1842 -0.5128
   76GLOH    O2 9238   3.952   3.731   0.972  0.1377  0.6670  0.2187
   76GLOH   H05 9239   3.928   3.759   1.062 -0.5904  0.9912 -0.0714
   76GLOH    C3 9240   4.123   3.826   0.815  0.0255 -0.1786  0.0083
   76GLOH   H06 9241   4.114   3.734   0.758  1.7667 -1.5852  1.9257
   76GLOH   H07 9242   4.203   3.807   0.887  2.1744  1.0276 -1.9721
   76GLOH    O3 9243   4.164   3.945   0.741  0.1369  0.3755 -0.0157
   76GLOH   H01 9244   4.257   3.969   0.758  0.3644 -0.7378  0.3738
   77GLOH   H03 9245   3.736   1.541   1.491 -2.9655 -3.9655 -1.5678
   77GLOH    O1 9246   3.797   1.535   1.415 -0.5512 -0.2981 -0.0786
   77GLOH    C1 9247   3.932   1.567   1.466 -0.2155  0.2165  0.2661
   77GLOH   H02 9248   3.938   1.667   1.507  1.7016 -0.5284  1.8923
   77GLOH   H08 9249   4.005   1.570   1.384 -0.3488  0.4277  0.1562
   77GLOH    C2 9250   3.983   1.473   1.574  0.2494 -0.6274  0.0653
   77GLOH   H04 9251   4.082   1.510   1.603 -0.1212 -0.7573  1.5290
   77GLOH    O2 9252   3.895   1.469   1.689 -0.4061  0.2460  0.2747
   77GLOH   H05 9253   3.929   1.506   1.772 -2.2636  2.4692  0.1186
   77GLOH    C3 9254   3.995   1.333   1.513  0.1667 -0.2542 -0.6891
   77GLOH   H06 9255   3.895   1.296   1.488 -1.0107  2.3358  0.0476
   77GLOH   H07 9256   4.027   1.263   1.590 -1.2524  2.9103  2.9437
   77GLOH    O3 9257   4.077   1.318   1.396 -0.3668 -0.1151 -0.1360
   77GLOH   H01 9258   4.167   1.347   1.420 -0.1717  0.4569 -1.5016
   78GLOH   H03 9259   3.491   4.155   0.471 -1.2452 -3.8834 -2.1497
   78GLOH    O1 9260   3.539   4.101   0.536  0.0318 -0.0873  0.2061
   78GLOH    C1 9261   3.507   4.146   0.673  0.2753 -0.3548  0.0673
   78GLOH   H02 9262   3.553   4.080   0.746  0.6936  1.0460  1.0852
   78GLOH   H08 9263   3.398   4.144   0.681  0.0602 -1.6366 -2.5391
   78GLOH    C2 9264   3.573   4.283   0.706  0.4441  0.0661 -0.3137
   78GLOH   H04 9265   3.575   4.347   0.616  0.3196 -1.1688 -1.2157
   78GLOH    O2 9266   3.506   4.348   0.817  0.2710 -0.0177  0.5232
   78GLOH   H05 9267   3.432   4.390   0.771  0.9474 -0.2892 -0.8302
   78GLOH    C3 9268   3.723   4.264   0.739  0.2036  0.0740 -0.9180
   78GLOH   H06 9269   3.761   4.357   0.781  0.8953 -0.0885 -1.1712
   78GLOH   H07 9270   3.774   4.240   0.645  1.1040 -1.9996  0.0733
   78GLOH    O3 9271   3.745   4.153   0.831  0.3771  0.1504  0.1186
   78GLOH   H01 9272   3.794   4.089   0.777  0.2495 -0.5152  0.7763
   79GLOH   H03 9273   3.371   2.194   0.625  1.1446 -0.7061 -0.9754
   79GLOH    O1 9274   3.330   2.120   0.577 -0.4126 -0.5072  0.0182
   79GLOH    C1 9275   3.363   2.139   0.440 -0.4309 -0.6684  0.5226
   79GLOH   H02 9276   3.392   2.239   0.411 -1.0232 -0.9678 -1.1683
   79GLOH   H08 9277   3.285   2.100   0.374  0.7525  0.3298 -1.5048
   79GLOH    C2 9278   3.486   2.045   0.401  0.3817 -0.0297 -0.1665
   79GLOH   H04 9279   3.474   1.944   0.443  1.4326  0.1338  0.5528
   79GLOH    O2 9280   3.501   2.038   0.260 -0.2602  0.3256  0.3101
   79GLOH   H05 9281   3.560   1.961   0.249 -0.6723 -0.0019  0.3597
   79GLOH    C3 9282   3.612   2.095   0.462 -0.2020 -0.3550 -0.0886
   79GLOH   H06 9283   3.691   2.034   0.418  0.5817  1.6446 -1.5447
   79GLOH   H07 9284   3.610   2.079   0.570 -0.9327  1.2610  0.1588
   79GLOH    O3 9285   3.642   2.232   0.434 -0.1477 -0.5033  0.3590
   79GLOH   H01 9286   3.704   2.262   0.503  0.3735 -1.3102  0.2461
   80GLOH   H03 9287   3.809   9.959   1.334 -3.0359  0.0509 -1.0567
   80GLOH    O1 9288   3.826   9.908   1.252 -0.4158  0.1597 -0.6158
   80GLOH    C1 9289   3.962   9.877   1.252  0.8780 -0.2533  0.3902
   80GLOH   H02 9290   3.993   9.876   1.148  1.8218 -1.2577  0.6743
   80GLOH   H08 9291   3.983   9.776   1.288  1.2688 -0.2691  0.1137
   80GLOH    C2 9292   4.050   9.986   1.322 -0.0589  0.5650  0.1122
   80GLOH   H04 9293   4.040   9.980   1.431  0.7665  1.9232  0.2742
   80GLOH    O2 9294   4.186   9.960   1.285 -0.4078 -0.0516 -0.1222
   80GLOH   H05 9295   4.213  10.044   1.245 -0.5492  0.1147  0.1254
   80GLOH    C3 9296   4.010  10.132   1.284 -0.2710  0.1336 -0.3918
   80GLOH   H06 9297   4.000  10.197   1.371 -2.5018 -1.3720  0.5161
   80GLOH   H07 9298   3.913  10.136   1.235 -0.8181 -0.5123  0.6201
   80GLOH    O3 9299   4.103  10.192   1.198  0.0031  0.4718 -0.0162
   80GLOH   H01 9300   4.054  10.214   1.117 -2.0843 -0.0582  1.0692
   81GLOH   H03 9301   4.490   3.934  -0.199  1.2097  0.3924  1.0001
   81GLOH    O1 9302   4.544   3.888  -0.266 -0.5266 -0.2702  0.0319
   81GLOH    C1 9303   4.595   3.983  -0.361  0.3673  0.1840 -0.5875
   81GLOH   H02 9304   4.689   3.940  -0.394  1.1130  0.2985  1.3065
   81GLOH   H08 9305   4.616   4.082  -0.320  1.0149 -0.5627  0.9184
   81GLOH    C2 9306   4.492   4.016  -0.473 -0.1273 -0.1504 -0.2160
   81GLOH   H04 9307   4.396   4.053  -0.434  1.1912  1.2687  1.8058
   81GLOH    O2 9308   4.538   4.118  -0.560  0.4501  0.5733 -0.1952
   81GLOH   H05 9309   4.597   4.073  -0.622  0.1419 -0.5864  0.3441
   81GLOH    C3 9310   4.457   3.886  -0.542  0.2925  0.0971  0.1548
   81GLOH   H06 9311   4.539   3.862  -0.609  1.2299 -0.8779  1.6305
   81GLOH   H07 9312   4.376   3.920  -0.607 -0.2616  0.9336  1.2648
   81GLOH    O3 9313   4.424   3.769  -0.455 -0.6953  0.4959 -0.3598
   81GLOH   H01 9314   4.462   3.790  -0.368  0.2736 -2.4900 -0.0014
   82GLOH   H03 9315   3.990   0.594   0.007 -1.1633 -0.5856  0.8403
   82GLOH    O1 9316   4.031   0.587   0.095  0.0458  0.0113  0.3290
   82GLOH    C1 9317   4.043   0.717   0.158  0.0683  0.1066 -0.1878
   82GLOH   H02 9318   3.939   0.751   0.164  0.1882  0.0851  2.5253
   82GLOH   H08 9319   4.096   0.789   0.096 -0.5840  0.0256 -0.8614
   82GLOH    C2 9320   4.097   0.710   0.294 -0.0491  0.2501  0.3554
   82GLOH   H04 9321   4.203   0.685   0.280  0.3263  1.1433  1.5679
   82GLOH    O2 9322   4.090   0.836   0.372  0.2554  0.2786 -0.7206
   82GLOH   H05 9323   4.162   0.821   0.437 -1.8345 -1.4495  1.2823
   82GLOH    C3 9324   4.023   0.600   0.379 -0.2106  0.2741 -0.3666
   82GLOH   H06 9325   3.914   0.608   0.373 -0.1897 -0.6798 -2.6869
   82GLOH   H07 9326   4.051   0.617   0.483 -0.8077 -0.6064 -0.0532
   82GLOH    O3 9327   4.058   0.469   0.329 -0.1376 -0.1598 -0.1349
   82GLOH   H01 9328   4.055   0.480   0.232  0.7252 -0.2161 -0.1737
   83GLOH   H03 9329   4.710   2.770   1.131 -0.4422 -1.4369 -0.4707
   83GLOH    O1 9330   4.685   2.798   1.041 -0.0080  0.0383 -0.1316
   83GLOH    C1 9331   4.654   2.675   0.979 -0.1189 -0.1467 -0.4873
   83GLOH   H02 9332   4.739   2.613   1.008  2.3133  3.1723 -0.1298
   83GLOH   H08 9333   4.651   2.696   0.872 -0.2032  0.3816 -0.3870
   83GLOH    C2 9334   4.515   2.624   1.020 -0.5373  0.9259 -0.5443
   83GLOH   H04 9335   4.511   2.602   1.128 -1.7221 -0.4477 -0.8614
   83GLOH    O2 9336   4.412   2.720   0.992 -0.0186 -0.4081  0.1049
   83GLOH   H05 9337   4.448   2.770   0.917  0.9466 -1.0804  0.1038
   83GLOH    C3 9338   4.489   2.489   0.965 -0.6174  0.0019 -0.8421
   83GLOH   H06 9339   4.456   2.489   0.861 -2.8853 -1.9668 -0.1565
   83GLOH   H07 9340   4.409   2.448   1.026  0.7732  0.1292  1.0935
   83GLOH    O3 9341   4.603   2.404   0.984 -0.2385  0.4304 -0.7192
   83GLOH   H01 9342   4.637   2.418   1.074 -0.7239 -0.4620 -0.3912
   84GLOH   H03 9343   3.594   2.219   2.213 -0.7742 -1.4587 -0.8984
   84GLOH    O1 9344   3.515   2.212   2.269 -0.2076  0.0992  0.1238
   84GLOH    C1 9345   3.423   2.123   2.196  0.0936 -0.3092 -0.6588
   84GLOH   H02 9346   3.468   2.025   2.179  1.7959  0.5941 -1.4902
   84GLOH   H08 9347   3.423   2.167   2.096 -0.0297  1.3097  0.0288
   84GLOH    C2 9348   3.274   2.125   2.251 -0.6719 -0.0895  0.3164
   84GLOH   H04 9349   3.249   2.232   2.258  0.5452  0.2558 -0.2631
   84GLOH    O2 9350   3.184   2.046   2.175 -0.1810  0.2068  0.0801
   84GLOH   H05 9351   3.113   2.105   2.144 -1.2386  0.1189  2.2093
   84GLOH    C3 9352   3.262   2.070   2.395 -0.4646 -0.4247  0.1121
   84GLOH   H06 9353   3.298   1.967   2.389 -2.1389 -1.1120  1.3496
   84GLOH   H07 9354   3.155   2.061   2.413 -0.4953 -0.9055 -0.2987
   84GLOH    O3 9355   3.325   2.150   2.489 -0.7764 -0.2655 -0.1536
   84GLOH   H01 9356   3.288   2.240   2.492  1.2468  0.6139 -0.6555
   85GLOH   H03 9357   3.929   3.168   1.309 -1.1534 -0.2217  0.7279
   85GLOH    O1 9358   3.881   3.220   1.242  0.0914  0.0663  0.0363
   85GLOH    C1 9359   3.964   3.333   1.217 -0.0720 -0.0583  0.6974
   85GLOH   H02 9360   3.924   3.398   1.140  0.0395  0.0300  0.7136
   85GLOH   H08 9361   4.066   3.304   1.192  0.1272 -0.4780  1.9433
   85GLOH    C2 9362   3.973   3.432   1.329  0.1815  0.1262 -0.5372
   85GLOH   H04 9363   4.008   3.382   1.420 -3.6047 -0.2951  0.7676
   85GLOH    O2 9364   4.066   3.531   1.289  0.0265 -0.1738 -0.2031
   85GLOH   H05 9365   4.121   3.483   1.224 -0.0452 -0.0749 -0.3352
   85GLOH    C3 9366   3.834   3.494   1.364 -0.0339 -0.0982  0.1553
   85GLOH   H06 9367   3.798   3.544   1.274  1.1593 -0.7922 -0.7178
   85GLOH   H07 9368   3.839   3.570   1.442 -2.2797 -0.1299  0.3702
   85GLOH    O3 9369   3.730   3.400   1.398 -0.1662  0.1632 -0.7195
   85GLOH   H01 9370   3.742   3.317   1.348  0.6325  0.2013 -0.6049
   86GLOH   H03 9371   4.183   4.164   0.590 -1.9830 -1.1370  1.1034
   86GLOH    O1 9372   4.151   4.255   0.603 -0.1245 -0.2637 -0.2438
   86GLOH    C1 9373   4.152   4.334   0.482 -0.5087  0.1918 -0.1774
   86GLOH   H02 9374   4.251   4.379   0.468 -0.0444 -0.5495  0.6672
   86GLOH   H08 9375   4.078   4.412   0.500  1.4688  1.5190  2.6139
   86GLOH    C2 9376   4.110   4.242   0.368 -0.8333 -0.0401  0.5870
   86GLOH   H04 9377   4.117   4.317   0.288 -1.4487  0.3038  0.8489
   86GLOH    O2 9378   4.199   4.126   0.359  0.5306  0.0029 -0.0317
   86GLOH   H05 9379   4.281   4.158   0.401  0.3201 -1.4690  1.5982
   86GLOH    C3 9380   3.961   4.200   0.375 -0.3643 -0.6751  0.2262
   86GLOH   H06 9381   3.940   4.147   0.467  0.3927 -0.6966  0.3874
   86GLOH   H07 9382   3.956   4.120   0.301 -1.5318  1.3924 -2.0391
   86GLOH    O3 9383   3.867   4.308   0.346  0.6452 -0.6093  0.0211
   86GLOH   H01 9384   3.841   4.312   0.252 -0.9494 -0.8234  0.4323
   87GLOH   H03 9385   3.095   2.442   1.492  1.2297  0.1646  1.0123
   87GLOH    O1 9386   3.133   2.517   1.444  0.1585 -0.0424 -0.1952
   87GLOH    C1 9387   3.092   2.645   1.495 -0.0332 -0.1386 -0.7262
   87GLOH   H02 9388   3.150   2.670   1.584  0.1231  0.3566 -0.9660
   87GLOH   H08 9389   2.990   2.643   1.532  0.6247 -1.4851  1.0522
   87GLOH    C2 9390   3.114   2.759   1.398  0.2507 -0.7991  0.0187
   87GLOH   H04 9391   3.063   2.722   1.308 -0.5639  2.6567 -0.9980
   87GLOH    O2 9392   3.044   2.874   1.450  0.1250  0.3628  0.0697
   87GLOH   H05 9393   3.041   2.931   1.370 -1.3210 -0.6175 -0.5799
   87GLOH    C3 9394   3.265   2.786   1.365 -0.5928  0.0360  0.5318
   87GLOH   H06 9395   3.260   2.867   1.292 -1.2271  0.1301  0.6820
   87GLOH   H07 9396   3.310   2.702   1.311 -2.7053  0.1674 -1.4925
   87GLOH    O3 9397   3.352   2.827   1.480  0.6343  0.4597 -0.6979
   87GLOH   H01 9398   3.313   2.902   1.528 -2.0434 -0.3296 -1.5404
   88GLOH   H03 9399   4.322   3.972  -0.086  0.4084 -0.9202 -0.4146
   88GLOH    O1 9400   4.417   3.993  -0.078  0.1959 -0.1295  0.1375
   88GLOH    C1 9401   4.446   4.081   0.033 -0.0645 -0.0947  0.0432
   88GLOH   H02 9402   4.554   4.080   0.050  0.0480 -0.9438 -0.6875
   88GLOH   H08 9403   4.405   4.044   0.126 -3.0309 -0.8935 -1.5327
   88GLOH    C2 9404   4.387   4.224   0.026  0.0468 -0.3041 -0.1551
   88GLOH   H04 9405   4.280   4.219   0.055  0.3872  0.3157  1.2645
   88GLOH    O2 9406   4.447   4.310   0.127 -0.3720  0.1268 -0.2803
   88GLOH   H05 9407   4.468   4.397   0.090 -0.0720 -0.1139 -0.6790
   88GLOH    C3 9408   4.389   4.281  -0.123 -0.3710  0.0291  0.5725
   88GLOH   H06 9409   4.342   4.219  -0.199  3.1240 -0.6297 -1.1776
   88GLOH   H07 9410   4.494   4.282  -0.151 -0.5936 -1.3381 -0.3780
   88GLOH    O3 9411   4.336   4.412  -0.135  0.0965 -0.3912  0.4043
   88GLOH   H01 9412   4.246   4.399  -0.100 -0.0781 -2.4841 -0.7724
   89GLOH   H03 9413   3.952   2.079   0.987  1.1631  1.8975  3.7750
   89GLOH    O1 9414   3.970   1.989   1.021 -1.0383  0.1496  0.5743
   89GLOH    C1 9415   4.083   2.017   1.107 -0.0250  0.1273  0.0714
   89GLOH   H02 9416   4.062   2.108   1.163  1.8520  0.8545 -0.3786
   89GLOH   H08 9417   4.174   2.036   1.049  0.1376 -2.2006 -0.5009
   89GLOH    C2 9418   4.120   1.898   1.206 -0.3044  0.0899  0.5625
   89GLOH   H04 9419   4.125   1.802   1.152 -1.3852  0.3570 -0.0264
   89GLOH    O2 9420   4.249   1.924   1.264 -0.1075  0.3210 -0.7022
   89GLOH   H05 9421   4.251   2.010   1.310 -1.7283 -0.6821  1.3615
   89GLOH    C3 9422   4.010   1.884   1.313 -0.4610 -0.1728  0.6330
   89GLOH   H06 9423   4.036   1.798   1.374 -1.1946 -0.7459  0.1420
   89GLOH   H07 9424   3.915   1.863   1.264 -0.8257 -1.4706  1.8741
   89GLOH    O3 9425   3.995   1.995   1.400 -0.3522  0.2601  0.1287
   89GLOH   H01 9426   4.062   1.987   1.471  1.7365 -2.0480 -1.9726
   90GLOH   H03 9427   4.153   1.357   0.274  0.5791 -0.0321 -0.4824
   90GLOH    O1 9428   4.215   1.342   0.348 -0.2200 -0.1341  0.1809
   90GLOH    C1 9429   4.137   1.335   0.466 -0.1853  0.4557 -0.5491
   90GLOH   H02 9430   4.059   1.411   0.464  0.6614  1.3848  1.1392
   90GLOH   H08 9431   4.193   1.361   0.556 -0.1016 -0.7906 -0.2220
   90GLOH    C2 9432   4.075   1.195   0.490  0.1272  0.3034 -0.0161
   90GLOH   H04 9433   4.158   1.124   0.473  0.2820  0.8373 -1.5467
   90GLOH    O2 9434   4.020   1.180   0.623 -0.1354 -0.1478 -1.1045
   90GLOH   H05 9435   4.091   1.194   0.687  0.3858 -0.4442 -1.6158
   90GLOH    C3 9436   3.970   1.180   0.380  0.8589  0.1842 -0.2680
   90GLOH   H06 9437   4.017   1.193   0.282 -0.5960  0.4353 -0.9378
   90GLOH   H07 9438   3.901   1.263   0.392  0.1588 -0.3250 -0.6860
   90GLOH    O3 9439   3.908   1.047   0.386 -0.5550  0.5283  0.1091
   90GLOH   H01 9440   3.979   0.980   0.386 -0.1053  0.9861 -1.4259
   91GLOH   H03 9441   4.053   4.176  -0.223 -2.1730  0.0134  0.5058
   91GLOH    O1 9442   4.082   4.148  -0.134 -0.0348  0.1014 -0.1369
   91GLOH    C1 9443   3.997   4.173  -0.026 -0.1061 -0.2814  0.1424
   91GLOH   H02 9444   4.045   4.157   0.071  1.6833  0.9672 -0.5072
   91GLOH   H08 9445   3.911   4.106  -0.033  1.4159 -2.0318 -2.6871
   91GLOH    C2 9446   3.927   4.312  -0.006 -0.4221 -0.4422 -0.7517
   91GLOH   H04 9447   3.864   4.341  -0.091 -0.4593 -0.0033 -0.5757
   91GLOH    O2 9448   3.826   4.297   0.096  0.3847 -0.4529  0.0464
   91GLOH   H05 9449   3.744   4.258   0.062  0.4020  0.5259 -1.1786
   91GLOH    C3 9450   4.018   4.426   0.027 -0.2188  0.1572 -0.4898
   91GLOH   H06 9451   4.080   4.380   0.104 -0.2871 -0.7534 -0.9727
   91GLOH   H07 9452   3.955   4.509   0.059 -1.1377 -0.5418 -0.4508
   91GLOH    O3 9453   4.101   4.468  -0.078  0.0211 -0.2686  0.4264
   91GLOH   H01 9454   4.058   4.545  -0.121 -0.4999 -0.0087  1.3989
   92GLOH   H03 9455   3.208   1.910   1.058 -1.7477  1.1264 -3.9429
   92GLOH    O1 9456   3.255   1.996   1.062 -0.3218  0.2380 -0.2907
   92GLOH    C1 9457   3.263   2.040   1.197 -0.0037 -0.7110 -0.2378
   92GLOH   H02 9458   3.322   2.131   1.191 -3.4418  1.5864 -0.9491
   92GLOH   H08 9459   3.323   1.972   1.257 -0.5205 -0.2472  0.8210
   92GLOH    C2 9460   3.134   2.079   1.274  0.1722 -0.0641  0.1904
   92GLOH   H04 9461   3.167   2.127   1.367 -1.9337  0.4783  0.6889
   92GLOH    O2 9462   3.061   2.176   1.202  0.2489 -0.7177 -0.0964
   92GLOH   H05 9463   3.016   2.132   1.127 -1.8684  2.1250 -0.6042
   92GLOH    C3 9464   3.062   1.950   1.319 -0.0873 -0.5244  0.0550
   92GLOH   H06 9465   3.055   1.889   1.229 -0.8474  0.6469 -0.7077
   92GLOH   H07 9466   2.959   1.975   1.346  0.1592  1.8459 -1.0511
   92GLOH    O3 9467   3.130   1.892   1.430 -0.0262 -0.2346 -0.7146
   92GLOH   H01 9468   3.105   1.798   1.430  1.6277 -0.6975  0.8087
   93GLOH   H03 9469   3.780   1.353   1.708  2.2609 -2.8402 -0.1694
   93GLOH    O1 9470   3.711   1.287   1.726  0.0649 -0.7584 -0.7899
   93GLOH    C1 9471   3.773   1.159   1.718  0.6030  0.1675 -0.1132
   93GLOH   H02 9472   3.847   1.164   1.797  0.6387 -2.7743  0.0742
   93GLOH   H08 9473   3.819   1.138   1.621 -0.6036 -0.2534 -0.6101
   93GLOH    C2 9474   3.675   1.044   1.745  0.2328 -0.2028 -0.6261
   93GLOH   H04 9475   3.632   1.073   1.842  0.0244  0.7070 -0.9857
   93GLOH    O2 9476   3.561   1.049   1.654  0.1789  0.4780  0.5769
   93GLOH   H05 9477   3.597   1.031   1.566 -0.5828 -0.7676  0.5098
   93GLOH    C3 9478   3.737   0.903   1.739  0.0163 -0.5546  0.1962
   93GLOH   H06 9479   3.774   0.890   1.637  1.6202 -1.0799  0.8181
   93GLOH   H07 9480   3.669   0.822   1.765  2.0879 -2.0421  1.1304
   93GLOH    O3 9481   3.852   0.899   1.823 -0.8806  0.2934 -0.4912
   93GLOH   H01 9482   3.880   0.807   1.842 -0.4956  0.5686  0.2885
   94GLOH   H03 9483   3.810   3.559   0.498  0.5799 -0.2056  0.9407
   94GLOH    O1 9484   3.734   3.566   0.437  0.6697 -0.0054  0.8506
   94GLOH    C1 9485   3.652   3.679   0.464  0.0691  0.6763  0.1147
   94GLOH   H02 9486   3.668   3.741   0.375 -0.7744  0.7090 -0.0195
   94GLOH   H08 9487   3.692   3.722   0.556 -0.5560 -1.7954  1.5883
   94GLOH    C2 9488   3.503   3.647   0.487 -0.8178 -0.3057  0.6531
   94GLOH   H04 9489   3.485   3.597   0.583  0.3119 -0.6426  0.6928
   94GLOH    O2 9490   3.420   3.759   0.487 -0.4976  0.5721  0.5667
   94GLOH   H05 9491   3.424   3.807   0.402  2.9695 -1.8907 -0.7464
   94GLOH    C3 9492   3.465   3.543   0.382  0.5958  0.6149  0.2323
   94GLOH   H06 9493   3.450   3.597   0.288 -3.2486  1.7041  1.3861
   94GLOH   H07 9494   3.367   3.508   0.416  1.7166 -0.0924  2.8382
   94GLOH    O3 9495   3.557   3.438   0.357 -0.3334  0.4242 -0.0841
   94GLOH   H01 9496   3.644   3.471   0.387 -0.1462  1.7866 -2.0553
   95GLOH   H03 9497   3.638   3.917   2.016 -0.6887  0.2513  0.5297
   95GLOH    O1 9498   3.670   3.848   2.076  0.5646  0.6825  0.3632
   95GLOH    C1 9499   3.703   3.904   2.208  0.4558  0.3185 -0.2659
   95GLOH   H02 9500   3.704   3.822   2.281  3.1877  0.5105 -0.0554
   95GLOH   H08 9501   3.615   3.961   2.239  0.1706 -0.5528  0.5776
   95GLOH    C2 9502   3.835   3.973   2.227  0.0018  0.6232  0.4942
   95GLOH   H04 9503   3.852   4.039   2.141 -1.9103  0.0487 -0.3579
   95GLOH    O2 9504   3.829   4.053   2.349  0.0858 -0.5033  0.0961
   95GLOH   H05 9505   3.899   4.121   2.344  0.3966 -0.8338 -0.0391
   95GLOH    C3 9506   3.949   3.871   2.236 -0.5272  0.4836  0.0155
   95GLOH   H06 9507   3.932   3.797   2.158 -2.5259  2.3922 -1.4432
   95GLOH   H07 9508   3.925   3.822   2.330 -0.6251  0.1533 -0.1830
   95GLOH    O3 9509   4.083   3.925   2.243  0.7611 -0.3572  0.3628
   95GLOH   H01 9510   4.108   3.968   2.158  0.9457  0.7988  0.9931
   96GLOH   H03 9511   4.349   1.314   1.130 -0.3187 -2.8773  0.3539
   96GLOH    O1 9512   4.254   1.295   1.131 -0.8998 -0.1473 -0.3385
   96GLOH    C1 9513   4.190   1.387   1.038 -0.1831  0.5827  0.2576
   96GLOH   H02 9514   4.183   1.338   0.941 -2.4058 -0.8322  1.1042
   96GLOH   H08 9515   4.260   1.468   1.014 -0.2008  0.4067 -0.3997
   96GLOH    C2 9516   4.057   1.432   1.094  0.7232  0.2146 -0.1827
   96GLOH   H04 9517   4.073   1.455   1.200  0.5660  1.0470 -0.3288
   96GLOH    O2 9518   4.007   1.549   1.018  0.3348  0.5665 -1.1733
   96GLOH   H05 9519   3.944   1.606   1.065  1.3838  0.7875  0.0235
   96GLOH    C3 9520   3.961   1.312   1.087  0.4586 -0.0071  0.1223
   96GLOH   H06 9521   3.975   1.270   0.988 -0.1417  0.3278 -0.1034
   96GLOH   H07 9522   3.858   1.346   1.094  0.3542 -0.1367 -0.6967
   96GLOH    O3 9523   3.990   1.209   1.183 -0.3594 -0.6107  0.2073
   96GLOH   H01 9524   4.015   1.245   1.271 -3.0550 -0.3952  0.9381
   97GLOH   H03 9525   4.052   3.710   1.668 -0.7595 -0.6676 -0.6443
   97GLOH    O1 9526   3.993   3.759   1.728  0.3812  0.2965 -0.2830
   97GLOH    C1 9527   3.951   3.665   1.828 -0.1614 -0.2988  0.8095
   97GLOH   H02 9528   3.919   3.713   1.920 -0.4662 -1.0267  1.0894
   97GLOH   H08 9529   4.034   3.600   1.854 -0.3634 -0.0488  2.1127
   97GLOH    C2 9530   3.834   3.583   1.776 -0.9613 -0.3315  0.5524
   97GLOH   H04 9531   3.866   3.529   1.686  0.7897  0.5063  0.6628
   97GLOH    O2 9532   3.793   3.483   1.874  0.1771  0.1281 -0.3696
   97GLOH   H05 9533   3.746   3.527   1.946 -1.3615 -1.5742 -0.3005
   97GLOH    C3 9534   3.724   3.669   1.735  0.6479 -0.0281 -0.2291
   97GLOH   H06 9535   3.704   3.733   1.821  0.8540 -0.9356  0.5060
   97GLOH   H07 9536   3.636   3.605   1.728 -0.4680  1.1905  1.9507
   97GLOH    O3 9537   3.733   3.747   1.619  0.0422 -1.1595 -0.2074
   97GLOH   H01 9538   3.821   3.788   1.625 -0.0211 -0.9200 -0.9421
   98GLOH   H03 9539   4.003   3.925   1.213  0.1439 -0.5594  0.0660
   98GLOH    O1 9540   4.019   4.019   1.192 -0.3976 -0.4141  0.3044
   98GLOH    C1 9541   3.988   4.102   1.309  0.8014 -0.2839  0.0895
   98GLOH   H02 9542   3.886   4.139   1.302  0.0590 -1.4950  3.4305
   98GLOH   H08 9543   4.053   4.190   1.309  1.0400 -0.4452 -1.7519
   98GLOH    C2 9544   4.004   4.041   1.449  0.3614 -0.3860  0.3094
   98GLOH   H04 9545   3.993   4.126   1.519 -0.0660  2.7295 -3.3692
   98GLOH    O2 9546   3.908   3.944   1.485 -0.3073 -0.0391 -0.2573
   98GLOH   H05 9547   3.925   3.871   1.423 -0.4017 -1.2056  1.0657
   98GLOH    C3 9548   4.144   3.980   1.474 -0.1017  0.5050  0.1805
   98GLOH   H06 9549   4.188   3.964   1.376 -1.2542 -1.4378 -0.0424
   98GLOH   H07 9550   4.136   3.881   1.518 -1.8114 -0.4720 -2.1763
   98GLOH    O3 9551   4.223   4.068   1.554 -0.0545 -0.1758  0.6997
   98GLOH   H01 9552   4.293   4.024   1.605 -0.3326 -1.2521  0.1815
   99GLOH   H03 9553   3.904   0.639   1.974 -1.1656  0.2554  0.2663
   99GLOH    O1 9554   3.886   0.656   1.880  0.4187  0.3348 -0.0393
   99GLOH    C1 9555   3.907   0.530   1.806 -0.0698  0.2257  0.0116
   99GLOH   H02 9556   3.898   0.453   1.884 -1.6615  0.5512  0.1560
   99GLOH   H08 9557   4.010   0.528   1.769  1.2565 -2.1168  3.4635
   99GLOH    C2 9558   3.814   0.500   1.685  0.4862  0.7047 -0.2501
   99GLOH   H04 9559   3.709   0.504   1.716  0.8031 -2.1841  1.3382
   99GLOH    O2 9560   3.847   0.594   1.584 -0.1500 -0.5766  0.3636
   99GLOH   H05 9561   3.781   0.580   1.514 -1.7429  1.5171  1.3623
   99GLOH    C3 9562   3.840   0.355   1.639  1.0745  0.3659  0.0661
   99GLOH   H06 9563   3.802   0.291   1.718 -1.7500 -0.9513 -2.2725
   99GLOH   H07 9564   3.947   0.338   1.628  1.9133  4.4556  1.3815
   99GLOH    O3 9565   3.776   0.320   1.511  0.0354 -0.4490 -0.3041
   99GLOH   H01 9566   3.753   0.401   1.462 -0.0165 -1.2352 -1.6074
  100GLOH   H03 9567   3.197   0.450   1.613  0.2742  2.4901 -0.4240
  100GLOH    O1 9568   3.237   0.459   1.702 -0.2022 -0.1606  0.1141
  100GLOH    C1 9569   3.247   0.322   1.755 -0.1894 -0.6794 -0.4294
  100GLOH   H02 9570   3.276   0.259   1.671  0.9865  1.8606 -1.9820
  100GLOH   H08 9571   3.152   0.294   1.799 -0.3094 -0.0507 -0.2914
  100GLOH    C2 9572   3.360   0.303   1.854 -0.0488 -0.0367 -0.2027
  100GLOH   H04 9573   3.356   0.364   1.946  1.6369  2.6532 -1.8574
  100GLOH    O2 9574   3.353   0.165   1.884  0.1035  0.1321 -0.4690
  100GLOH   H05 9575   3.430   0.111   1.858  0.3262  1.1834 -2.0498
  100GLOH    C3 9576   3.497   0.336   1.789 -0.8790  0.6496  0.5707
  100GLOH   H06 9577   3.511   0.444   1.793  0.3493  0.6069 -1.6024
  100GLOH   H07 9578   3.490   0.313   1.683  0.0903  1.8640  0.2247
  100GLOH    O3 9579   3.610   0.279   1.863  0.0683  0.1919  0.1401
  100GLOH   H01 9580   3.592   0.184   1.876 -3.3887  0.6449 -0.9994
  101GLOH   H03 9581   4.169   3.052   0.326  0.3123  1.9212 -1.8923
  101GLOH    O1 9582   4.118   3.103   0.392  0.7142 -0.1714  0.1082
  101GLOH    C1 9583   4.076   3.227   0.327 -0.0800 -0.0662 -0.4065
  101GLOH   H02 9584   4.003   3.281   0.387  1.3453  0.1951  1.1304
  101GLOH   H08 9585   4.034   3.209   0.228 -0.7484 -0.5721 -0.0327
  101GLOH    C2 9586   4.203   3.318   0.314  0.5453  0.1192  0.3624
  101GLOH   H04 9587   4.282   3.257   0.268 -1.2864 -0.9777 -1.4516
  101GLOH    O2 9588   4.179   3.436   0.239 -0.1845 -0.1205  0.4288
  101GLOH   H05 9589   4.139   3.421   0.152  2.7664  0.7841 -1.1341
  101GLOH    C3 9590   4.261   3.348   0.456 -0.3069 -0.0455  0.2417
  101GLOH   H06 9591   4.180   3.400   0.506 -1.3903  0.0485 -1.5442
  101GLOH   H07 9592   4.340   3.422   0.466 -2.0482  1.4943  3.4193
  101GLOH    O3 9593   4.302   3.227   0.524 -0.3850  0.2005 -0.1133
  101GLOH   H01 9594   4.252   3.152   0.487 -0.8478  0.2795  0.3521
  102GLOH   H03 9595   3.774   3.144  -0.052  1.1638 -1.7182 -0.8609
  102GLOH    O1 9596   3.852   3.202  -0.051  0.1755 -0.3847 -0.0806
  102GLOH    C1 9597   3.812   3.341  -0.041 -0.8083 -0.2597  0.0456
  102GLOH   H02 9598   3.708   3.360  -0.013 -0.8350 -0.3700  0.0249
  102GLOH   H08 9599   3.822   3.383  -0.141  2.2031  2.9329  1.6085
  102GLOH    C2 9600   3.905   3.411   0.059  0.2197 -0.3052  0.2620
  102GLOH   H04 9601   3.920   3.343   0.144  1.1218  0.5449  0.7943
  102GLOH    O2 9602   4.036   3.431   0.007 -0.0438  0.2495  0.3674
  102GLOH   H05 9603   4.037   3.482  -0.076  0.6765  0.7105  0.6555
  102GLOH    C3 9604   3.849   3.541   0.117 -0.1940  0.0007 -1.0333
  102GLOH   H06 9605   3.923   3.574   0.191  1.2620 -1.4752 -1.8186
  102GLOH   H07 9606   3.751   3.516   0.159  0.1614  1.0674  0.5026
  102GLOH    O3 9607   3.824   3.641   0.014 -0.3736 -0.1297  0.2001
  102GLOH   H01 9608   3.902   3.645  -0.045 -0.3090 -0.5893  0.2503
  103GLOH   H03 9609   4.323   1.172   1.584 -1.5922  0.2979 -0.0360
  103GLOH    O1 9610   4.309   1.098   1.522 -0.0236 -0.1678  0.1456
  103GLOH    C1 9611   4.345   1.123   1.388  0.8582 -0.0792 -0.4293
  103GLOH   H02 9612   4.453   1.126   1.380  0.7082  0.0909 -2.5982
  103GLOH   H08 9613   4.310   1.222   1.358 -0.3240 -0.7475 -1.3277
  103GLOH    C2 9614   4.280   1.016   1.292 -0.0030  0.0270 -0.3972
  103GLOH   H04 9615   4.171   1.020   1.306  0.2304 -1.5840  2.1320
  103GLOH    O2 9616   4.310   1.056   1.166 -0.4206  0.2165  0.0659
  103GLOH   H05 9617   4.285   1.150   1.165 -3.4439 -0.5076  1.3145
  103GLOH    C3 9618   4.317   0.875   1.337  0.1624 -0.6169 -0.1778
  103GLOH   H06 9619   4.426   0.867   1.338  0.2154  0.0831 -0.2455
  103GLOH   H07 9620   4.279   0.804   1.264  0.2819  0.4835 -1.3379
  103GLOH    O3 9621   4.250   0.850   1.462 -0.0901 -0.7956 -0.1322
  103GLOH   H01 9622   4.278   0.921   1.523 -0.3046  0.3747 -1.3731
  104GLOH   H03 9623   3.780   4.795   1.784  0.0652 -2.1642 -1.2790
  104GLOH    O1 9624   3.822   4.746   1.857  0.5283 -0.1624 -0.1596
  104GLOH    C1 9625   3.726   4.667   1.931 -0.2561 -0.7802  0.2291
  104GLOH   H02 9626   3.645   4.729   1.969  1.8376  0.8077  2.2568
  104GLOH   H08 9627   3.765   4.609   2.014 -0.3719  2.1514  2.3935
  104GLOH    C2 9628   3.659   4.577   1.833  0.4806  0.6567 -0.0181
  104GLOH   H04 9629   3.735   4.546   1.760  2.4319  1.6922  1.5167
  104GLOH    O2 9630   3.615   4.455   1.898 -0.5846  0.1222  0.1804
  104GLOH   H05 9631   3.692   4.412   1.938 -0.7109  0.4431  0.7817
  104GLOH    C3 9632   3.551   4.658   1.758  0.3128 -0.1368  0.3595
  104GLOH   H06 9633   3.467   4.684   1.821  0.1040 -0.8713  0.3970
  104GLOH   H07 9634   3.501   4.590   1.689  1.7432 -0.0958 -0.7526
  104GLOH    O3 9635   3.596   4.780   1.688 -0.2568 -0.3096  0.6092
  104GLOH   H01 9636   3.514   4.829   1.665  0.4343  1.6665  2.2268
  105GLOH   H03 9637   3.672   4.287   1.394  0.9347  1.7301 -1.5939
  105GLOH    O1 9638   3.720   4.317   1.473 -0.0259 -0.6398 -0.0509
  105GLOH    C1 9639   3.701   4.457   1.496  0.2922 -0.4113 -0.4449
  105GLOH   H02 9640   3.776   4.489   1.569 -0.7551 -0.3155  0.6132
  105GLOH   H08 9641   3.607   4.464   1.550  0.4682 -0.2284 -0.1593
  105GLOH    C2 9642   3.706   4.544   1.368 -0.9563 -0.6540 -0.0521
  105GLOH   H04 9643   3.794   4.518   1.306  1.8157  2.0029  2.5884
  105GLOH    O2 9644   3.585   4.526   1.288 -0.5740  0.0041 -0.0714
  105GLOH   H05 9645   3.602   4.477   1.206  2.0473  0.6033  0.0775
  105GLOH    C3 9646   3.711   4.697   1.395  0.4234  0.3418 -0.9268
  105GLOH   H06 9647   3.609   4.734   1.402 -0.0196 -1.1811  1.0413
  105GLOH   H07 9648   3.742   4.751   1.305 -0.2935  2.1254 -0.1197
  105GLOH    O3 9649   3.781   4.738   1.515 -0.2005 -0.1355  0.1011
  105GLOH   H01 9650   3.711   4.754   1.581 -0.0933  2.1038 -0.2762
  106GLOH   H03 9651   3.128   3.010   1.507  2.7869 -4.2119 -0.4089
  106GLOH    O1 9652   3.208   3.064   1.521  0.1609 -0.4224  0.6906
  106GLOH    C1 9653   3.258   3.116   1.397  0.1008  0.3269  0.2140
  106GLOH   H02 9654   3.337   3.054   1.355  1.3535  1.7585  0.4213
  106GLOH   H08 9655   3.302   3.214   1.414  0.1880  0.7146 -2.0800
  106GLOH    C2 9656   3.147   3.145   1.291 -0.1245 -0.0708  0.7580
  106GLOH   H04 9657   3.195   3.205   1.212 -0.8421  0.4324  0.7043
  106GLOH    O2 9658   3.082   3.025   1.239  0.1798  0.2334  0.4081
  106GLOH   H05 9659   3.141   2.997   1.167  0.1006 -0.8518  0.7559
  106GLOH    C3 9660   3.048   3.239   1.350  0.6221  0.4793 -0.7159
  106GLOH   H06 9661   3.011   3.197   1.444  1.8014 -1.5279 -1.1111
  106GLOH   H07 9662   2.965   3.243   1.279 -0.0003  3.4586  0.1026
  106GLOH    O3 9663   3.092   3.376   1.364 -1.0605 -0.2432  0.3382
  106GLOH   H01 9664   3.123   3.404   1.276  1.1793  0.7487  1.4001
  107GLOH   H03 9665   4.522   4.270   1.408 -1.2275 -2.2748  0.1727
  107GLOH    O1 9666   4.565   4.232   1.329 -0.1182  0.6090 -0.6544
  107GLOH    C1 9667   4.491   4.204   1.210 -0.2967 -0.7850 -0.3515
  107GLOH   H02 9668   4.430   4.287   1.174 -1.5662 -0.9837  1.2730
  107GLOH   H08 9669   4.412   4.132   1.233  0.0445 -0.4916  1.8702
  107GLOH    C2 9670   4.575   4.155   1.087  0.3076  0.0563  0.5083
  107GLOH   H04 9671   4.596   4.049   1.108 -1.4406 -0.3783  0.1391
  107GLOH    O2 9672   4.507   4.174   0.961 -0.1029  0.0251 -0.2252
  107GLOH   H05 9673   4.418   4.214   0.960 -0.1330 -0.0429 -0.3340
  107GLOH    C3 9674   4.708   4.238   1.080 -0.1595 -0.3429 -0.2885
  107GLOH   H06 9675   4.693   4.344   1.059  2.6400  0.6171  2.2652
  107GLOH   H07 9676   4.771   4.202   0.999 -0.7494 -4.0152  0.8237
  107GLOH    O3 9677   4.774   4.218   1.210 -0.2721  0.3267 -0.3632
  107GLOH   H01 9678   4.709   4.251   1.274  2.2832  0.6582  2.1590
  108GLOH   H03 9679   2.827   2.407  -0.106  2.6589 -4.0031  0.6725
  108GLOH    O1 9680   2.886   2.452  -0.043  0.0443  0.5183  0.0952
  108GLOH    C1 9681   3.024   2.398  -0.058 -0.2104  0.4605  0.4636
  108GLOH   H02 9682   3.022   2.292  -0.032  0.4182  0.2378 -0.3651
  108GLOH   H08 9683   3.087   2.448   0.015  1.5632 -0.1758 -0.6109
  108GLOH    C2 9684   3.074   2.404  -0.202  0.0441  0.3728  0.3710
  108GLOH   H04 9685   3.049   2.502  -0.245 -0.2497 -0.1428 -0.6587
  108GLOH    O2 9686   3.214   2.370  -0.220  0.1125  0.3004 -0.0564
  108GLOH   H05 9687   3.257   2.433  -0.160  2.3635 -1.3747  0.1939
  108GLOH    C3 9688   2.998   2.305  -0.291  0.0420  0.9911 -0.2010
  108GLOH   H06 9689   3.020   2.214  -0.236 -0.8245  1.0278  0.2105
  108GLOH   H07 9690   3.044   2.297  -0.389 -1.1603 -1.7644 -0.5839
  108GLOH    O3 9691   2.854   2.335  -0.285 -0.0145  0.0466  0.1621
  108GLOH   H01 9692   2.853   2.428  -0.314  2.3419 -0.0022 -0.2201
  109GLOH   H03 9693   4.444   3.271   0.625  0.1848 -0.5705  0.2455
  109GLOH    O1 9694   4.513   3.242   0.688  0.3660 -0.0376  0.2908
  109GLOH    C1 9695   4.519   3.101   0.697 -0.1324 -0.1735 -0.5525
  109GLOH   H02 9696   4.607   3.058   0.648  0.4361  1.2180 -0.7776
  109GLOH   H08 9697   4.436   3.061   0.639 -0.9061  0.9503 -0.2234
  109GLOH    C2 9698   4.515   3.040   0.837  0.0584 -0.8178 -0.2169
  109GLOH   H04 9699   4.421   3.077   0.880 -0.6559 -0.6380 -1.8948
  109GLOH    O2 9700   4.518   2.896   0.833 -0.1540 -0.2905 -0.4473
  109GLOH   H05 9701   4.553   2.861   0.749 -1.6389  0.2095 -1.2941
  109GLOH    C3 9702   4.630   3.102   0.925 -0.4905 -0.7949 -0.5211
  109GLOH   H06 9703   4.606   3.209   0.929 -0.4813 -0.7682 -1.1291
  109GLOH   H07 9704   4.726   3.080   0.880  0.8715  1.5665  1.1201
  109GLOH    O3 9705   4.633   3.045   1.056  0.3756 -0.1383 -0.8025
  109GLOH   H01 9706   4.636   2.948   1.055 -4.2359 -0.5307  2.7878
  110GLOH   H03 9707   4.262   3.192   1.139  0.7343  0.6218  0.2047
  110GLOH    O1 9708   4.241   3.117   1.080 -0.1084  0.7543  0.3292
  110GLOH    C1 9709   4.175   3.167   0.964 -0.1271 -0.1653  0.7933
  110GLOH   H02 9710   4.070   3.185   0.984 -0.2602  0.6542 -0.5579
  110GLOH   H08 9711   4.179   3.087   0.889  2.9331  1.0056 -0.3777
  110GLOH    C2 9712   4.235   3.288   0.884 -0.0667 -0.4763  0.0976
  110GLOH   H04 9713   4.345   3.288   0.887 -0.0428 -2.2513 -0.5111
  110GLOH    O2 9714   4.186   3.295   0.751  0.4559  0.1757 -0.2547
  110GLOH   H05 9715   4.239   3.235   0.696 -2.2684 -2.6025  0.0308
  110GLOH    C3 9716   4.190   3.418   0.956  0.3537 -0.4621  0.0377
  110GLOH   H06 9717   4.084   3.436   0.944  0.4308 -0.3075 -0.4068
  110GLOH   H07 9718   4.230   3.497   0.894  0.0816  0.1580  0.6488
  110GLOH    O3 9719   4.231   3.434   1.095 -0.1226  0.5160  0.0358
  110GLOH   H01 9720   4.319   3.475   1.094  0.9767 -1.7548  0.9407
  111GLOH   H03 9721   4.356   3.904   1.183  1.4313  1.6841  0.2255
  111GLOH    O1 9722   4.429   3.854   1.223 -0.1110 -0.5630  0.3498
  111GLOH    C1 9723   4.410   3.711   1.203 -0.3930 -0.0279 -0.2457
  111GLOH   H02 9724   4.312   3.688   1.162  0.8477 -1.6780 -2.4282
  111GLOH   H08 9725   4.420   3.673   1.305 -2.2917  2.3240  0.8461
  111GLOH    C2 9726   4.519   3.656   1.113 -0.3534 -0.0915  0.8365
  111GLOH   H04 9727   4.611   3.651   1.173  0.7118 -0.3371 -0.7626
  111GLOH    O2 9728   4.480   3.522   1.081  0.4749  0.0308  0.3127
  111GLOH   H05 9729   4.548   3.453   1.084  1.4028  0.7281 -2.8109
  111GLOH    C3 9730   4.534   3.739   0.982  0.5117  0.3818 -0.1859
  111GLOH   H06 9731   4.530   3.846   1.002 -0.3467  0.8604 -2.7205
  111GLOH   H07 9732   4.441   3.729   0.925  1.7661  0.1796 -2.2589
  111GLOH    O3 9733   4.657   3.698   0.909 -0.1260 -0.3804  0.0016
  111GLOH   H01 9734   4.652   3.604   0.882  4.0236 -0.4607 -0.8368
  112GLOH   H03 9735   5.018   3.804   0.990 -1.8370 -2.5306 -3.1855
  112GLOH    O1 9736   5.091   3.814   0.927  0.1202 -0.0973 -0.6652
  112GLOH    C1 9737   5.192   3.899   0.980 -0.4811  0.7201  0.2126
  112GLOH   H02 9738   5.286   3.870   0.933  0.9036 -0.1895  3.4172
  112GLOH   H08 9739   5.214   3.872   1.084 -2.3722  1.7120  0.8839
  112GLOH    C2 9740   5.153   4.048   0.967 -0.3598 -0.4062  0.4243
  112GLOH   H04 9741   5.227   4.105   1.024 -0.2478 -0.3707  0.2418
  112GLOH    O2 9742   5.156   4.094   0.830 -0.7756 -0.1877  0.1131
  112GLOH   H05 9743   5.086   4.045   0.784  0.0906 -0.2438 -1.1572
  112GLOH    C3 9744   5.012   4.070   1.024 -0.9230  0.1632  0.4735
  112GLOH   H06 9745   4.949   3.994   0.978 -0.5348  0.0630  0.1083
  112GLOH   H07 9746   4.983   4.161   0.972 -0.5395  0.4932  0.8307
  112GLOH    O3 9747   4.999   4.075   1.168  0.3591 -0.1948  0.1130
  112GLOH   H01 9748   4.955   4.157   1.196 -0.2217 -0.0781 -1.1461
  113GLOH   H03 9749   4.955   2.909   1.316 -2.8255 -0.0377  0.7428
  113GLOH    O1 9750   4.977   2.834   1.374  0.5127  0.3148  0.0699
  113GLOH    C1 9751   4.895   2.830   1.492 -0.8658  0.7021  0.6018
  113GLOH   H02 9752   4.931   2.888   1.577 -1.6852  2.3104 -0.1228
  113GLOH   H08 9753   4.896   2.730   1.535  1.1959  0.2018 -0.5665
  113GLOH    C2 9754   4.744   2.866   1.455 -0.2191 -0.2526  0.4795
  113GLOH   H04 9755   4.686   2.858   1.548 -1.1432  0.4345 -0.0259
  113GLOH    O2 9756   4.735   2.999   1.407 -0.2407 -0.1340 -0.3397
  113GLOH   H05 9757   4.784   3.006   1.323 -1.1390 -0.0965 -0.8773
  113GLOH    C3 9758   4.682   2.769   1.357  0.5923 -0.5153 -1.0460
  113GLOH   H06 9759   4.600   2.817   1.302  0.2613 -0.0657 -0.1561
  113GLOH   H07 9760   4.642   2.686   1.416  1.5952 -1.3245 -1.4825
  113GLOH    O3 9761   4.777   2.715   1.259  0.4767  0.2799  0.2991
  113GLOH   H01 9762   4.864   2.745   1.290 -0.4797  2.0442  1.3330
  114GLOH   H03 9763   4.268   3.987   0.320 -1.1369  0.2156 -0.4158
  114GLOH    O1 9764   4.268   3.891   0.302  0.1138  0.0677  0.3122
  114GLOH    C1 9765   4.260   3.813   0.419 -0.3340  0.1354 -0.6169
  114GLOH   H02 9766   4.254   3.875   0.509 -0.7051  0.2916 -0.7462
  114GLOH   H08 9767   4.348   3.751   0.434 -0.5138  0.7914  3.6828
  114GLOH    C2 9768   4.149   3.709   0.418  0.2215 -0.1277 -0.3776
  114GLOH   H04 9769   4.168   3.631   0.342  0.6083  0.2580 -0.6787
  114GLOH    O2 9770   4.149   3.647   0.549  0.0189  0.1007  0.2807
  114GLOH   H05 9771   4.241   3.656   0.579 -0.0188  2.0861 -0.1283
  114GLOH    C3 9772   4.014   3.782   0.390 -0.4278 -0.3594 -0.2314
  114GLOH   H06 9773   4.011   3.841   0.481 -0.5294 -1.1183  0.2618
  114GLOH   H07 9774   3.937   3.705   0.381 -1.4525  0.4536  1.3208
  114GLOH    O3 9775   4.014   3.865   0.268 -0.3135 -0.5411  0.0989
  114GLOH   H01 9776   4.106   3.899   0.260 -0.1133 -0.9329  0.7217
  115GLOH   H03 9777   2.672   2.875   2.078  0.0644  1.3060  2.2996
  115GLOH    O1 9778   2.737   2.804   2.089 -0.5558  0.3180 -0.0264
  115GLOH    C1 9779   2.721   2.732   2.216  0.3076  0.5969 -0.1779
  115GLOH   H02 9780   2.647   2.656   2.190 -0.1710  1.5563 -1.7528
  115GLOH   H08 9781   2.683   2.797   2.295 -0.4625 -1.4647  1.1732
  115GLOH    C2 9782   2.855   2.664   2.261 -0.0936 -0.1687 -0.0680
  115GLOH   H04 9783   2.929   2.745   2.275  1.4217 -1.4081 -0.7768
  115GLOH    O2 9784   2.842   2.600   2.381  0.0746  0.3979  0.4478
  115GLOH   H05 9785   2.843   2.669   2.450 -1.0202  2.5312 -1.5966
  115GLOH    C3 9786   2.901   2.565   2.153 -0.2730 -0.7120  0.3384
  115GLOH   H06 9787   2.831   2.482   2.142 -0.5625 -0.3676 -0.4266
  115GLOH   H07 9788   2.999   2.526   2.180 -0.3819 -1.3504 -0.1869
  115GLOH    O3 9789   2.914   2.639   2.029  0.7845  0.3697  0.1328
  115GLOH   H01 9790   2.843   2.706   2.026  0.0169 -0.4216  0.6915
  116GLOH   H03 9791   3.117   9.569   0.133  1.3664  0.1378  0.5788
  116GLOH    O1 9792   3.125   9.475   0.110  0.6097  0.2138 -0.0296
  116GLOH    C1 9793   3.164   9.391   0.222  0.0730 -0.5355 -0.3912
  116GLOH   H02 9794   3.109   9.297   0.222  0.5014 -0.8249  1.7704
  116GLOH   H08 9795   3.147   9.445   0.315 -0.1626  0.4262 -0.9841
  116GLOH    C2 9796   3.312   9.350   0.202  0.1900 -0.0856  0.0534
  116GLOH   H04 9797   3.357   9.449   0.192  0.0297 -0.0969 -0.8315
  116GLOH    O2 9798   3.362   9.275   0.311 -0.2350  0.1953  0.2560
  116GLOH   H05 9799   3.452   9.242   0.293 -0.7211 -0.4968 -0.9855
  116GLOH    C3 9800   3.322   9.268   0.073 -0.1404 -0.0812 -0.2785
  116GLOH   H06 9801   3.262   9.178   0.083 -0.0670 -0.1135 -0.1263
  116GLOH   H07 9802   3.429   9.249   0.066  0.1328  0.2252  2.4648
  116GLOH    O3 9803   3.276   9.348  -0.034 -0.5674 -0.6113  1.0408
  116GLOH   H01 9804   3.211   9.407   0.008  1.4232  0.9772  2.0072
  117GLOH   H03 9805   4.310   2.303   0.691 -3.0676 -0.4809  0.0930
  117GLOH    O1 9806   4.297   2.356   0.611  0.2834  0.1456 -0.1040
  117GLOH    C1 9807   4.327   2.269   0.499 -0.1686 -0.0301  0.2873
  117GLOH   H02 9808   4.254   2.188   0.494 -0.3123  0.1005  0.2671
  117GLOH   H08 9809   4.416   2.214   0.530  1.5338  1.4012 -1.8778
  117GLOH    C2 9810   4.347   2.326   0.354  0.4695  0.1884 -1.1577
  117GLOH   H04 9811   4.428   2.401   0.350 -1.4654  2.5935  2.0916
  117GLOH    O2 9812   4.375   2.209   0.276 -0.1110  0.2523  0.1741
  117GLOH   H05 9813   4.398   2.241   0.187 -2.2896 -2.1149 -1.2874
  117GLOH    C3 9814   4.223   2.401   0.298  0.1485  0.3057  0.2694
  117GLOH   H06 9815   4.264   2.461   0.216  1.4253  0.6757  1.1510
  117GLOH   H07 9816   4.177   2.472   0.367  1.0959  0.5534  0.6587
  117GLOH    O3 9817   4.121   2.320   0.243 -0.0384  0.6239 -0.0406
  117GLOH   H01 9818   4.070   2.277   0.314 -0.3660  1.5475  0.2956
  118GLOH   H03 9819   3.870   2.352   0.644  0.2755 -0.6850 -1.5782
  118GLOH    O1 9820   3.774   2.353   0.626 -0.0268  0.1167 -0.0470
  118GLOH    C1 9821   3.721   2.458   0.709 -0.7321  0.2253  0.7090
  118GLOH   H02 9822   3.690   2.543   0.649 -1.0785 -0.4754 -0.1159
  118GLOH   H08 9823   3.809   2.492   0.764  0.4060 -1.2858 -0.1535
  118GLOH    C2 9824   3.606   2.419   0.802  0.5899  0.5410 -0.4261
  118GLOH   H04 9825   3.625   2.315   0.833 -0.3188  0.5324  0.1027
  118GLOH    O2 9826   3.604   2.502   0.915  0.4793 -0.9562  0.5609
  118GLOH   H05 9827   3.546   2.466   0.985 -0.3435 -1.4747 -0.3763
  118GLOH    C3 9828   3.477   2.438   0.717 -0.1363  0.3084  0.4080
  118GLOH   H06 9829   3.498   2.439   0.610  0.5751  2.6497  0.5509
  118GLOH   H07 9830   3.444   2.541   0.733 -1.6971  0.6079 -4.0144
  118GLOH    O3 9831   3.385   2.338   0.745 -0.1765 -0.2353  0.0650
  118GLOH   H01 9832   3.293   2.371   0.735  0.3902  1.3158 -0.1706
  119GLOH   H03 9833   3.172   2.938   0.397 -1.7060 -2.4130  0.6755
  119GLOH    O1 9834   3.242   2.870   0.387  0.0446 -0.4861 -0.6337
  119GLOH    C1 9835   3.271   2.843   0.526  0.3256  0.0636  0.1601
  119GLOH   H02 9836   3.311   2.744   0.549 -2.5683 -1.3539 -0.5698
  119GLOH   H08 9837   3.181   2.838   0.589  0.2792  3.5855  0.4703
  119GLOH    C2 9838   3.358   2.950   0.591  0.3475  0.1506 -0.2746
  119GLOH   H04 9839   3.455   2.929   0.545  0.0702 -1.2518 -0.2153
  119GLOH    O2 9840   3.299   3.087   0.571 -0.0392 -0.5795  0.0953
  119GLOH   H05 9841   3.345   3.132   0.498 -1.8418 -0.4553 -0.9877
  119GLOH    C3 9842   3.366   2.917   0.738  0.0189  0.4374  0.1761
  119GLOH   H06 9843   3.264   2.898   0.770 -0.4209  1.6865 -0.4439
  119GLOH   H07 9844   3.391   3.011   0.788  1.3660 -0.4284  1.1758
  119GLOH    O3 9845   3.454   2.804   0.761  0.2639  0.2658 -0.3063
  119GLOH   H01 9846   3.541   2.819   0.720 -0.2797  2.8291 -0.6227
  120GLOH   H03 9847   4.980   3.308   1.167 -0.1870  0.3588 -0.0529
  120GLOH    O1 9848   4.926   3.265   1.236 -0.1273  0.2802 -0.0552
  120GLOH    C1 9849   4.920   3.368   1.339  0.3683  0.1265 -0.3850
  120GLOH   H02 9850   4.987   3.336   1.419 -1.6729 -0.5249  1.1111
  120GLOH   H08 9851   4.822   3.368   1.387  0.2315 -1.5284 -0.6120
  120GLOH    C2 9852   4.947   3.508   1.281  0.2488 -0.3281  0.0161
  120GLOH   H04 9853   4.861   3.526   1.214 -1.0495 -0.0856  1.7278
  120GLOH    O2 9854   4.956   3.610   1.383 -0.2264 -0.2329 -0.2600
  120GLOH   H05 9855   4.954   3.701   1.348 -0.9805 -0.1043  0.1059
  120GLOH    C3 9856   5.071   3.516   1.195  0.0345  0.2177  0.3999
  120GLOH   H06 9857   5.152   3.480   1.257 -0.0798 -0.3911  0.1998
  120GLOH   H07 9858   5.085   3.620   1.167  1.6033  0.1577  0.9522
  120GLOH    O3 9859   5.064   3.435   1.077  0.1082  0.9106  0.5090
  120GLOH   H01 9860   5.105   3.484   1.004 -1.4801 -1.6331 -2.1824
  121ACOH    H4 9861   5.237   4.199   0.743  0.4836 -1.3636  0.0917
  121ACOH    O2 9862   5.281   4.262   0.684 -0.6079 -0.6797 -0.0165
  121ACOH    C2 9863   5.296   4.183   0.575 -0.2506 -0.1176  0.3076
  121ACOH    O1 9864   5.264   4.067   0.553  0.3121 -0.5770  0.0310
  121ACOH    C1 9865   5.361   4.260   0.465  0.3822  0.0065 -0.2784
  121ACOH    H1 9866   5.411   4.350   0.499 -0.9772  0.1547  1.3815
  121ACOH    H2 9867   5.286   4.300   0.397 -0.1017  0.5459  0.5647
  121ACOH    H3 9868   5.424   4.200   0.399 -0.6432 -1.0771 -0.2986
  122ACOH    H4 9869   4.776   4.159   1.874  1.9517  1.1155  0.1022
  122ACOH    O2 9870   4.823   4.089   1.826  0.1717 -0.1812  0.1975
  122ACOH    C2 9871   4.811   3.997   1.925 -0.2197  0.3547 -0.5039
  122ACOH    O1 9872   4.731   3.984   2.020  0.4782  0.1503 -0.2389
  122ACOH    C1 9873   4.897   3.885   1.884 -0.2846 -0.2393 -0.4908
  122ACOH    H1 9874   4.904   3.819   1.971  2.2583  0.7371  0.0912
  122ACOH    H2 9875   5.001   3.914   1.869 -0.1718 -1.4065 -2.0057
  122ACOH    H3 9876   4.855   3.840   1.794 -1.4077  1.7504 -0.9944
  123ACOH    H4 9877   3.424   5.983   1.127  0.4345  0.0854  0.1617
  123ACOH    O2 9878   3.446   6.077   1.142  0.0341  0.2677 -0.3987
  123ACOH    C2 9879   3.574   6.104   1.128  0.4567 -0.0600  0.4487
  123ACOH    O1 9880   3.652   6.018   1.100 -0.3433  0.0538  0.4413
  123ACOH    C1 9881   3.618   6.245   1.147 -0.2144 -0.0659  0.0184
  123ACOH    H1 9882   3.651   6.288   1.053  1.8732  1.5782  1.4638
  123ACOH    H2 9883   3.696   6.242   1.223  1.2346 -1.6064 -1.5026
  123ACOH    H3 9884   3.538   6.310   1.184 -0.7839 -0.6643 -0.1496
  124ACOH    H4 9885   3.572   8.898   0.656  0.0952  1.0010 -1.6492
  124ACOH    O2 9886   3.633   8.833   0.617 -0.0444 -0.3662  0.3389
  124ACOH    C2 9887   3.576   8.820   0.493 -0.8126 -0.5992 -0.4354
  124ACOH    O1 9888   3.480   8.878   0.446  0.6018 -0.8473 -0.8152
  124ACOH    C1 9889   3.655   8.729   0.403  0.4170 -0.6664  0.2241
  124ACOH    H1 9890   3.710   8.789   0.331  2.7888 -1.5509  1.2622
  124ACOH    H2 9891   3.589   8.669   0.340  0.3773  0.2263 -0.5857
  124ACOH    H3 9892   3.720   8.659   0.456 -1.2944 -1.8202  0.8737
  125ACOH    H4 9893   3.519   3.138   0.861  0.8708  1.3588  0.2473
  125ACOH    O2 9894   3.506   3.208   0.795 -0.7330  0.6917 -0.1748
  125ACOH    C2 9895   3.408   3.278   0.851 -0.3505 -0.7682  0.5639
  125ACOH    O1 9896   3.322   3.242   0.922  0.5764 -0.3723  0.0215
  125ACOH    C1 9897   3.409   3.413   0.792  0.5665  0.2995  0.1688
  125ACOH    H1 9898   3.380   3.409   0.687 -0.7374  1.8565  0.4401
  125ACOH    H2 9899   3.507   3.460   0.798  1.5084 -1.5670 -0.0921
  125ACOH    H3 9900   3.346   3.482   0.848  0.4714  0.9279 -0.7033
  126ACOH    H4 9901   3.832   4.410   0.462  0.3481  0.7991 -1.4457
  126ACOH    O2 9902   3.817   4.488   0.518 -0.2978 -0.3881  0.0597
  126ACOH    C2 9903   3.712   4.552   0.467 -0.4250 -0.4113 -0.3204
  126ACOH    O1 9904   3.643   4.525   0.373  0.2238  0.2999  0.4641
  126ACOH    C1 9905   3.693   4.661   0.560 -0.9225 -0.2848 -0.4980
  126ACOH    H1 9906   3.627   4.735   0.513  0.7258  1.8002  0.3855
  126ACOH    H2 9907   3.788   4.704   0.589 -1.3209  1.6432 -1.9083
  126ACOH    H3 9908   3.635   4.624   0.645 -1.3038  0.7092 -0.3150
  127ACOH    H4 9909   4.430   0.955   1.088 -1.9897 -2.3881  0.4769
  127ACOH    O2 9910   4.486   0.892   1.039  0.2385  0.1332 -0.3745
  127ACOH    C2 9911   4.597   0.958   1.015 -0.2528 -0.4923  0.2923
  127ACOH    O1 9912   4.612   1.073   1.043  0.0548  0.0918 -0.3428
  127ACOH    C1 9913   4.697   0.869   0.945  0.1692 -0.4300  0.5413
  127ACOH    H1 9914   4.740   0.928   0.864  0.8336  1.3379  2.1204
  127ACOH    H2 9915   4.649   0.778   0.911  2.2431 -1.4747  0.3204
  127ACOH    H3 9916   4.782   0.845   1.009 -0.3959 -0.7209  1.1892
  128ACOH    H4 9917   4.350   3.821   0.183 -0.0234  2.0344 -2.1562
  128ACOH    O2 9918   4.389   3.755   0.124 -0.3491  0.2180 -0.4012
  128ACOH    C2 9919   4.522   3.763   0.132 -0.4304  0.2285  0.3927
  128ACOH    O1 9920   4.582   3.829   0.219 -0.8794  0.4973 -0.2332
  128ACOH    C1 9921   4.602   3.700   0.019  0.1685  0.1822 -0.0194
  128ACOH    H1 9922   4.690   3.653   0.064  0.1723  0.0798 -0.1332
  128ACOH    H2 9923   4.629   3.778  -0.052 -2.5924 -0.6087 -1.9890
  128ACOH    H3 9924   4.545   3.623  -0.033 -0.2847 -1.1890  2.3910
  129ACOH    H4 9925   4.457   2.647   0.026 -0.2167 -2.9450  1.0009
  129ACOH    O2 9926   4.542   2.609  -0.002  0.8089 -0.2115  0.2951
  129ACOH    C2 9927   4.642   2.653   0.073 -0.3896  0.4075  0.0347
  129ACOH    O1 9928   4.643   2.756   0.139  0.8337 -0.6318  0.0259
  129ACOH    C1 9929   4.758   2.573   0.046  0.3540  0.1773 -0.0304
  129ACOH    H1 9930   4.753   2.464   0.046  0.4015  0.1718 -0.6695
  129ACOH    H2 9931   4.837   2.596   0.118  1.3101 -2.8826 -0.0135
  129ACOH    H3 9932   4.800   2.583  -0.054  1.2460 -2.7035  0.0015
  130ACOH    H4 9933   4.084   9.443   1.557  0.3415 -1.7710 -1.3607
  130ACOH    O2 9934   4.170   9.484   1.536 -0.1506 -0.1186 -0.3218
  130ACOH    C2 9935   4.165   9.549   1.416  0.4663  0.4386 -0.2852
  130ACOH    O1 9936   4.069   9.547   1.339 -0.3004  0.0919  0.0590
  130ACOH    C1 9937   4.298   9.618   1.391  0.1275  0.1398  0.5403
  130ACOH    H1 9938   4.348   9.548   1.323 -0.1210 -0.0922  0.5936
  130ACOH    H2 9939   4.365   9.628   1.476 -0.2611 -0.3162  0.9050
  130ACOH    H3 9940   4.281   9.715   1.344  3.1244  1.3475  1.8440
  131ACOH    H4 9941   3.817   0.976   2.330 -2.1373  2.1737 -0.9832
  131ACOH    O2 9942   3.879   1.004   2.260 -0.2701  0.1901 -0.1710
  131ACOH    C2 9943   3.995   0.934   2.273 -0.4198  0.9813 -0.0453
  131ACOH    O1 9944   3.995   0.812   2.291 -0.0299  0.0025  0.0417
  131ACOH    C1 9945   4.106   0.989   2.192 -0.1788  0.6099 -0.5811
  131ACOH    H1 9946   4.103   0.940   2.095  0.7198 -0.5929 -0.0158
  131ACOH    H2 9947   4.203   0.980   2.241  0.2639 -0.8668 -1.7041
  131ACOH    H3 9948   4.094   1.097   2.183  1.5757  1.0634  1.7131
  132ACOH    H4 9949   4.574   4.009   1.702 -0.4497  0.1528  0.3371
  132ACOH    O2 9950   4.593   3.917   1.728  0.4422  0.1471 -0.3113
  132ACOH    C2 9951   4.477   3.854   1.736  0.9123 -0.3508 -0.2191
  132ACOH    O1 9952   4.364   3.894   1.713  0.4102  0.1423 -0.2694
  132ACOH    C1 9953   4.502   3.720   1.792  0.1645 -0.0512  0.0276
  132ACOH    H1 9954   4.474   3.638   1.726  1.2730 -0.2930 -0.1509
  132ACOH    H2 9955   4.444   3.711   1.883 -0.6499  1.3649 -0.3403
  132ACOH    H3 9956   4.607   3.712   1.819 -0.4712 -1.6658  2.1992
  133ACOH    H4 9957   4.508   0.845   0.344 -2.2068  0.1594 -1.4301
  133ACOH    O2 9958   4.487   0.753   0.366 -0.9623  0.0883 -0.5285
  133ACOH    C2 9959   4.416   0.761   0.478  0.5232  0.7042 -0.3467
  133ACOH    O1 9960   4.323   0.840   0.494  0.7585 -0.4833 -0.3779
  133ACOH    C1 9961   4.421   0.648   0.571 -0.5811  0.1898  0.0887
  133ACOH    H1 9962   4.491   0.675   0.651  0.7893 -1.0178 -0.6963
  133ACOH    H2 9963   4.450   0.561   0.514  0.0062 -0.8014  1.8680
  133ACOH    H3 9964   4.320   0.627   0.606 -0.7142 -0.7147 -0.8348
  134ACOH    H4 9965   3.723   9.570   0.163 -1.4445  2.8601  0.9910
  134ACOH    O2 9966   3.739   9.563   0.258  0.1491 -0.4961  0.5574
  134ACOH    C2 9967   3.684   9.454   0.318 -0.4790 -0.7310  0.1080
  134ACOH    O1 9968   3.635   9.351   0.271  0.9349 -0.2313 -0.9523
  134ACOH    C1 9969   3.729   9.453   0.457  0.3783 -0.9804  0.6061
  134ACOH    H1 9970   3.646   9.458   0.527 -1.8165  1.6831 -2.0463
  134ACOH    H2 9971   3.799   9.534   0.479 -0.1988 -0.6058  1.0798
  134ACOH    H3 9972   3.771   9.353   0.469  1.1041 -1.2040 -3.0857
  135ACOH    H4 9973   3.666   9.493   0.812 -0.3234  2.2967 -0.4916
  135ACOH    O2 9974   3.748   9.533   0.844  0.7665  0.0500 -0.4317
  135ACOH    C2 9975   3.764   9.495   0.973 -0.9077 -0.1036 -0.2117
  135ACOH    O1 9976   3.680   9.427   1.035 -0.0709 -0.0144  0.0715
  135ACOH    C1 9977   3.894   9.528   1.040 -0.7825  0.2606  0.6193
  135ACOH    H1 9978   3.940   9.429   1.048 -3.1408 -0.9790 -0.6309
  135ACOH    H2 9979   3.885   9.569   1.141  0.5618  1.8838  0.1077
  135ACOH    H3 9980   3.950   9.591   0.971 -0.5262  0.7801  1.2890
  136ACOH    H4 9981   4.067   4.271   0.748 -1.8190 -2.4551 -0.5083
  136ACOH    O2 9982   4.018   4.292   0.829  0.0017  0.1709 -0.0181
  136ACOH    C2 9983   4.105   4.288   0.931  0.0829 -0.2667 -0.2908
  136ACOH    O1 9984   4.221   4.249   0.926  0.2308  0.7625 -0.5087
  136ACOH    C1 9985   4.035   4.334   1.054 -0.4643  0.3549 -0.1129
  136ACOH    H1 9986   3.955   4.262   1.073  1.2340 -1.9624 -1.4581
  136ACOH    H2 9987   3.999   4.436   1.039 -0.6327  0.2155 -0.6438
  136ACOH    H3 9988   4.103   4.318   1.138 -1.1815  1.4879  0.7029
  137ACOH    H4 9989   3.022   4.131   0.793  1.8031  0.6982  0.8835
  137ACOH    O2 9990   2.998   4.221   0.767 -0.1884  0.0414  0.3282
  137ACOH    C2 9991   3.034   4.300   0.871 -0.6326 -0.9273 -0.4928
  137ACOH    O1 9992   3.120   4.288   0.954  0.1386  0.3080  0.3489
  137ACOH    C1 9993   2.960   4.422   0.873 -0.2577  0.2479  0.9345
  137ACOH    H1 9994   2.993   4.494   0.948  3.4324 -1.4690  1.0761
  137ACOH    H2 9995   2.856   4.393   0.892 -0.3161 -0.3449 -0.2774
  137ACOH    H3 9996   2.963   4.465   0.773 -0.4377 -0.2744  0.7025
  138ACOH    H4 9997   3.359   9.261   1.905  0.3867 -0.5630  1.5067
  138ACOH    O2 9998   3.324   9.170   1.903  0.3257 -0.5165 -0.4162
  138ACOH    C2 9999   3.224   9.168   1.814 -0.0071 -0.5782 -0.1041
  138ACOH    O110000   3.162   9.263   1.776 -0.1671 -0.1524 -0.0744
  138ACOH    C110001   3.188   9.030   1.778  0.5652 -0.0588 -0.3574
  138ACOH    H110002   3.278   8.989   1.732  1.4391 -0.1300  1.3530
  138ACOH    H210003   3.106   9.022   1.708  0.4863  3.8080 -0.7741
  138ACOH    H310004   3.156   8.980   1.870 -1.9988 -1.0777 -1.7545
  139ACOH    H410005   4.847   2.094   1.304 -0.4605  1.4793 -0.6206
  139ACOH    O210006   4.940   2.102   1.276 -0.1358 -0.2218 -0.0783
  139ACOH    C210007   4.983   2.215   1.336  0.1473  0.0740 -0.7268
  139ACOH    O110008   4.915   2.307   1.367  0.2758 -1.0688 -0.6870
  139ACOH    C110009   5.129   2.216   1.352 -0.1099 -1.0437  0.4202
  139ACOH    H110010   5.159   2.183   1.451 -0.2169 -0.6436  0.5849
  139ACOH    H210011   5.175   2.312   1.328 -1.2310 -0.6822 -0.2794
  139ACOH    H310012   5.176   2.157   1.273 -2.0367 -1.0701 -0.7329
  140ACOH    H410013   3.534   4.759   2.274  0.3970 -1.1264  1.0535
  140ACOH    O210014   3.594   4.821   2.319 -0.0423 -0.2645  0.4684
  140ACOH    C210015   3.722   4.791   2.276  0.2950  0.1832  0.1843
  140ACOH    O110016   3.768   4.680   2.252  0.2341 -0.0331  0.8068
  140ACOH    C110017   3.812   4.909   2.287  0.2068  0.2224 -0.0279
  140ACOH    H110018   3.821   4.917   2.395  0.7283 -1.3924  0.0596
  140ACOH    H210019   3.757   4.995   2.249 -3.5466 -2.2649 -0.5585
  140ACOH    H310020   3.902   4.891   2.229  0.3509 -2.5400  0.9485
  141ACOH    H410021   3.771   9.433   1.413 -2.8098  1.2745  0.0898
  141ACOH    O210022   3.732   9.356   1.458 -0.9182  0.1225 -0.2116
  141ACOH    C210023   3.800   9.333   1.568  0.0384 -0.2668 -0.3243
  141ACOH    O110024   3.914   9.364   1.598 -0.1572  0.0404  0.9697
  141ACOH    C110025   3.728   9.229   1.642 -0.5005  0.5202 -0.3608
  141ACOH    H110026   3.684   9.152   1.580  1.5300 -0.7789 -0.2581
  141ACOH    H210027   3.643   9.264   1.701 -0.6164  0.7272 -0.6528
  141ACOH    H310028   3.797   9.184   1.714 -1.1724  0.9271  0.5532
  142ACOH    H410029   4.628   1.637   0.245 -0.9405  0.5461 -0.3806
  142ACOH    O210030   4.699   1.634   0.178 -0.2606 -0.0801  0.3475
  142ACOH    C210031   4.724   1.507   0.153  0.3360  0.3118 -0.0197
  142ACOH    O110032   4.674   1.421   0.219 -0.1187 -0.7949  0.0484
  142ACOH    C110033   4.839   1.493   0.060  0.1963 -0.0082  0.1443
  142ACOH    H110034   4.929   1.464   0.115 -0.3722 -2.5004 -0.1989
  142ACOH    H210035   4.845   1.583  -0.002 -0.8531 -0.8446 -1.1848
  142ACOH    H310036   4.802   1.412  -0.002  0.1747  0.2340 -0.1626
  143ACOH    H410037   3.188   3.115   0.684  0.2522 -2.3088  0.5063
  143ACOH    O210038   3.134   3.102   0.763 -0.3715 -0.8837  0.3322
  143ACOH    C210039   3.047   3.206   0.765 -0.4556  0.3308  0.0590
  143ACOH    O110040   3.046   3.297   0.683  0.3078  0.1422 -0.0310
  143ACOH    C110041   2.960   3.195   0.887 -0.6007 -0.6574  0.0313
  143ACOH    H110042   2.984   3.102   0.938  0.1497 -0.8116 -0.5879
  143ACOH    H210043   2.858   3.179   0.853 -1.2095 -1.4890  2.2138
  143ACOH    H310044   2.954   3.282   0.952  0.3611 -0.7403  0.2384
  144ACOH    H410045   3.468   9.499   1.645 -0.3003  2.3115 -0.7529
  144ACOH    O210046   3.557   9.515   1.681 -0.0450  0.3285 -0.4414
  144ACOH    C210047   3.589   9.645   1.670  0.6532 -0.7149 -0.2118
  144ACOH    O110048   3.515   9.733   1.636  0.5674 -0.4461  0.1668
  144ACOH    C110049   3.732   9.657   1.711 -0.0776 -0.2874 -0.5444
  144ACOH    H110050   3.749   9.758   1.749  1.7433 -0.8234  0.1258
  144ACOH    H210051   3.795   9.650   1.623 -0.0196 -0.4162 -0.4925
  144ACOH    H310052   3.749   9.590   1.796 -4.0128  0.8656  1.2535
  145ACOH    H410053   5.297   3.690   0.639  0.8329  2.0069 -0.8165
  145ACOH    O210054   5.360   3.628   0.598 -0.4793  0.1623 -0.0987
  145ACOH    C210055   5.284   3.522   0.551 -0.8283 -0.2470 -0.2049
  145ACOH    O110056   5.175   3.489   0.593 -0.5746 -0.2431  0.3875
  145ACOH    C110057   5.366   3.429   0.472 -0.0331  0.1231  0.0224
  145ACOH    H110058   5.446   3.477   0.416 -0.5893 -0.5666 -1.3777
  145ACOH    H210059   5.311   3.363   0.406  0.6542  0.3233 -0.7599
  145ACOH    H310060   5.417   3.369   0.548 -0.6619  0.1236  0.4434
  146ACOH    H410061   4.090  10.349   0.419 -0.6833 -0.6499 -0.3187
  146ACOH    O210062   4.116  10.290   0.492 -0.0931 -0.1666 -0.1293
  146ACOH    C210063   4.025  10.194   0.488  0.4913  0.0852 -0.3557
  146ACOH    O110064   3.931  10.181   0.414  0.3096  0.4275  0.3677
  146ACOH    C110065   4.054  10.092   0.597 -0.2733 -0.3318 -0.1768
  146ACOH    H110066   4.002   9.998   0.585 -1.1357 -0.0228  1.1468
  146ACOH    H210067   4.022  10.130   0.694 -0.5142 -1.4962  0.2101
  146ACOH    H310068   4.162  10.074   0.602 -0.0556  0.5802 -1.2779
  147SOL     OW10069   3.813   2.441   1.720 -0.7018 -0.1090  0.0860
  147SOL    HW110070   3.730   2.472   1.766  0.6066  1.3137  1.5472
  147SOL    HW210071   3.862   2.520   1.682  0.0353 -0.9120 -0.6475
  148SOL     OW10072   4.512   1.334   1.184  0.4268  0.0382  0.0054
  148SOL    HW110073   4.575   1.256   1.175  0.2699 -0.0717 -0.1513
  148SOL    HW210074   4.552   1.403   1.244 -0.0734 -0.7948  1.2916
  149SOL     OW10075   3.758   3.963   0.469 -0.2231 -0.2208 -0.4770
  149SOL    HW110076   3.813   3.942   0.550  1.0185  2.1893 -0.6469
  149SOL    HW210077   3.676   4.013   0.496 -1.7501 -2.7372 -0.3511
  150SOL     OW10078   3.767  10.197   0.759  0.1262 -0.4942  0.4157
  150SOL    HW110079   3.831  10.139   0.810 -0.5600 -2.2444 -0.6259
  150SOL    HW210080   3.673  10.170   0.781 -0.2151  0.7139  0.4456
  151SOL     OW10081   3.315   1.532   1.063  0.4568  0.5349 -0.6207
  151SOL    HW110082   3.307   1.535   0.964  0.3023 -1.7346 -0.6971
  151SOL    HW210083   3.336   1.439   1.092  0.2374  1.1200  1.4971
  152SOL     OW10084   3.301   9.603   0.483 -0.1468 -0.5390  0.1268
  152SOL    HW110085   3.294   9.522   0.541  0.7230 -0.0148  0.9914
  152SOL    HW210086   3.381   9.594   0.423 -0.5370 -0.6917 -0.3726
  153SOL     OW10087   3.329   9.862  -0.337  1.0165 -0.1442  0.1482
  153SOL    HW110088   3.230   9.851  -0.326  0.9184  1.7489  1.3782
  153SOL    HW210089   3.349   9.896  -0.429  0.4761  0.0908  0.1178
  154SOL     OW10090   4.165   1.694  -0.136  0.2022  0.2001  0.2686
  154SOL    HW110091   4.089   1.633  -0.112 -1.2255  2.1879  0.9755
  154SOL    HW210092   4.173   1.765  -0.066  2.6573  0.0975  0.1197
  155SOL     OW10093   3.779   9.795  -0.187 -0.2936 -0.5481 -0.2485
  155SOL    HW110094   3.682   9.791  -0.213 -0.2209 -1.1661 -0.4317
  155SOL    HW210095   3.815   9.886  -0.207 -1.0017 -0.1135  0.4170
  156SOL     OW10096   3.712   9.839   1.995 -0.5857  0.0317 -0.2292
  156SOL    HW110097   3.768   9.882   2.066 -0.2270 -1.1662  0.2310
  156SOL    HW210098   3.630   9.800   2.037 -0.7033 -0.0957 -0.5733
  157SOL     OW10099   3.438   0.953  -0.057 -0.2630  0.3945  0.1397
  157SOL    HW110100   3.374   0.879  -0.034 -0.2183  0.4473  0.4238
  157SOL    HW210101   3.400   1.040  -0.027  0.2185  0.3591  0.8369
  158SOL     OW10102   4.416   3.974   0.759 -0.0469  0.0210  0.0907
  158SOL    HW110103   4.470   4.036   0.817  2.8291 -1.4734 -0.8911
  158SOL    HW210104   4.453   3.975   0.666 -0.0013 -3.0525  0.0361
  159SOL     OW10105   3.840   1.766   1.067 -0.3799 -0.1049 -0.7133
  159SOL    HW110106   3.743   1.783   1.048 -0.6239  0.0260  0.5774
  159SOL    HW210107   3.892   1.850   1.051 -0.4883 -0.1621 -1.3646
  160SOL     OW10108   2.792  10.334   0.763  1.0174 -0.7197 -0.6665
  160SOL    HW110109   2.828  10.427   0.772  1.1661 -0.7339 -1.1169
  160SOL    HW210110   2.818  10.281   0.843 -0.4218  0.0758  0.3563
  161SOL     OW10111   2.894   2.420   0.231 -0.1257  0.1319  0.5202
  161SOL    HW110112   2.875   2.322   0.231 -3.4186  0.7270  0.3831
  161SOL    HW210113   2.905   2.451   0.136 -1.8178  0.3925  0.4106
  162SOL     OW10114   4.010   2.701   2.062 -0.1441  0.5802 -0.1186
  162SOL    HW110115   3.940   2.733   1.998 -0.5094  0.8019  0.3892
  162SOL    HW210116   3.992   2.739   2.152 -0.4391 -0.8582  0.4322
  163SOL     OW10117   3.779  10.295  -0.077 -0.1407 -0.7123  0.2187
  163SOL    HW110118   3.778  10.252   0.013  0.4165 -0.1254  0.5101
  163SOL    HW210119   3.826  10.235  -0.141  2.3728  0.3009  1.0655
  164SOL     OW10120   4.150   3.604   1.560  0.1550  0.1716  0.1982
  164SOL    HW110121   4.250   3.603   1.550  0.1682 -1.7058  0.2557
  164SOL    HW210122   4.108   3.567   1.477 -0.4701  0.4943  0.3688
  165SOL     OW10123   3.451   0.573   1.452  0.2570 -0.0907 -0.5176
  165SOL    HW110124   3.460   0.474   1.448 -1.6401 -0.2729 -0.6835
  165SOL    HW210125   3.367   0.601   1.406  0.9998  1.6465 -0.8902
  166SOL     OW10126   3.272   1.146   2.216 -0.8678  0.1818  0.3638
  166SOL    HW110127   3.223   1.177   2.135 -0.3877  0.7729  0.2964
  166SOL    HW210128   3.288   1.048   2.210  1.3187  0.6033 -1.4292
  167SOL     OW10129   3.624  10.387   0.576  0.6898 -0.1096 -0.0059
  167SOL    HW110130   3.681  10.310   0.604 -0.4075 -0.9891 -0.1359
  167SOL    HW210131   3.625  10.395   0.476  1.2971  0.4403  0.0401
  168SOL     OW10132   3.253  10.322   0.019  0.2764  0.3151 -0.6233
  168SOL    HW110133   3.272  10.272   0.104  0.3165 -1.2828 -1.5580
  168SOL    HW210134   3.332  10.380  -0.004  0.5732  0.1740  0.0179
  169SOL     OW10135   4.011   0.421   1.274 -0.1144  0.6334  0.1784
  169SOL    HW110136   4.031   0.449   1.368 -2.4989  0.3747  0.7848
  169SOL    HW210137   4.065   0.339   1.252 -0.3590  0.0421  1.6969
  170SOL     OW10138   3.188   9.923  -0.006  0.5118  0.2098  0.0958
  170SOL    HW110139   3.140   9.962  -0.085  0.2843 -0.5023 -0.1287
  170SOL    HW210140   3.282   9.957  -0.003  0.1795  1.1406  0.1858
  171SOL     OW10141   3.984   1.927   0.350 -0.2727 -0.0095  0.2905
  171SOL    HW110142   3.928   1.885   0.278 -0.7162 -0.1977  0.7402
  171SOL    HW210143   4.078   1.938   0.317  0.0294 -1.9970  0.3974
  172SOL     OW10144   3.909   2.250   0.913 -0.4589  0.3242  0.0840
  172SOL    HW110145   3.846   2.272   0.987  0.7920 -0.5521  1.4355
  172SOL    HW210146   3.973   2.325   0.900 -0.0922  0.0885  0.5224
  173SOL     OW10147   3.864   0.590  -0.126  0.3777 -0.2723  0.7193
  173SOL    HW110148   3.786   0.650  -0.143  0.0860 -0.4140  1.5288
  173SOL    HW210149   3.832   0.499  -0.101  0.8141 -0.6048  0.0791
  174SOL     OW10150   3.114   4.787   1.692  0.6264 -0.2229  0.6642
  174SOL    HW110151   3.166   4.701   1.692  0.8895 -0.0702  1.8431
  174SOL    HW210152   3.025   4.772   1.651  0.4263 -1.2212  1.4428
  175SOL     OW10153   3.782   4.185   1.715  0.4821 -0.3117 -0.7051
  175SOL    HW110154   3.754   4.216   1.624  1.1081  1.8519 -0.1812
  175SOL    HW210155   3.700   4.171   1.772  0.1543 -0.5321 -1.2252
  176SOL     OW10156   3.382   1.503   0.360 -0.3875  0.5866 -0.1789
  176SOL    HW110157   3.446   1.479   0.432  0.9506  0.5900 -1.3532
  176SOL    HW210158   3.367   1.602   0.361  1.1767  0.8511 -1.1520
  177SOL     OW10159   2.787   0.949   1.847  0.1844  0.1210 -0.3857
  177SOL    HW110160   2.847   0.968   1.924  0.8016 -0.0645 -0.8209
  177SOL    HW210161   2.733   0.867   1.866 -0.3012  0.5730  0.2145
  178SOL     OW10162   4.639   3.672   1.473 -0.6260  0.0957  0.2857
  178SOL    HW110163   4.628   3.768   1.447 -2.6551 -0.2106 -0.1146
  178SOL    HW210164   4.736   3.652   1.486  0.1394  1.3297 -2.9430
  179SOL     OW10165   3.305   0.955   1.682  0.5788 -0.0047  0.1663
  179SOL    HW110166   3.383   1.016   1.688 -0.7023  1.4613  2.6205
  179SOL    HW210167   3.337   0.861   1.670  2.6542  0.7050 -0.0145
  180SOL     OW10168   3.544   1.161  -0.329  0.1999  0.1115 -0.2204
  180SOL    HW110169   3.491   1.146  -0.413 -0.1837 -0.9283  0.2025
  180SOL    HW210170   3.526   1.087  -0.264  1.8353 -0.0085  0.1114
  181SOL     OW10171   3.194   3.194   1.746  0.1070 -0.2202 -0.0398
  181SOL    HW110172   3.216   3.148   1.661 -0.9236  1.9694 -1.5535
  181SOL    HW210173   3.257   3.271   1.759  1.6314 -1.7853  2.2976
  182SOL     OW10174   4.875   3.007   1.194  0.2335 -0.1480  0.6564
  182SOL    HW110175   4.808   2.998   1.121  0.4766 -0.0466  0.4204
  182SOL    HW210176   4.917   3.097   1.190 -0.1863  0.0834  1.2957
  183SOL     OW10177   3.788   0.436   0.865 -0.0384  0.9012 -0.2974
  183SOL    HW110178   3.872   0.470   0.822  0.5385 -1.6747 -1.2889
  183SOL    HW210179   3.761   0.351   0.822 -2.0814  0.6728  1.3664
  184SOL     OW10180   3.173   2.584   1.971 -0.3755  0.1926 -0.6702
  184SOL    HW110181   3.187   2.490   1.999 -0.3612 -0.5057 -2.9044
  184SOL    HW210182   3.078   2.610   1.988 -0.2943 -0.1183  0.2528
  185SOL     OW10183   4.307   1.471   1.473  0.0644  0.6154 -0.3648
  185SOL    HW110184   4.396   1.488   1.431 -0.2208  0.6270 -0.9831
  185SOL    HW210185   4.270   1.557   1.508  0.0931  0.6948 -0.5250
  186SOL     OW10186   3.504   9.772   1.212  0.1012 -0.2023  0.4160
  186SOL    HW110187   3.527   9.833   1.136 -0.0312 -0.4106  0.2091
  186SOL    HW210188   3.433   9.815   1.269 -2.1724 -1.4340 -1.4148
  187SOL     OW10189   3.505   2.448   2.003  0.4950  0.2401 -0.5043
  187SOL    HW110190   3.465   2.483   1.918  1.7601 -0.2652 -1.3319
  187SOL    HW210191   3.565   2.517   2.042 -1.4137  1.1428  0.9390
  188SOL     OW10192   4.285   2.091   2.293 -0.1643  0.4507  0.1357
  188SOL    HW110193   4.336   2.034   2.356  1.8402  0.7093 -1.1919
  188SOL    HW210194   4.316   2.186   2.301 -0.2405  0.5695 -0.8930
  189SOL     OW10195   3.587   0.465  -0.214  0.6253 -0.3854 -0.4335
  189SOL    HW110196   3.548   0.531  -0.151 -1.8359 -1.1858 -1.0441
  189SOL    HW210197   3.626   0.388  -0.163  0.9949  0.2083  0.1813
  190SOL     OW10198   3.123   9.640   1.403  0.0317 -0.1680 -0.1405
  190SOL    HW110199   3.073   9.727   1.400  0.0879 -0.1751 -1.2191
  190SOL    HW210200   3.076   9.578   1.466 -1.2315 -0.1053 -0.9860
  191SOL     OW10201   3.937   2.252   1.873  0.7916 -0.5363 -0.2791
  191SOL    HW110202   3.899   2.214   1.958  1.5636 -1.0952 -0.1823
  191SOL    HW210203   3.868   2.309   1.829  0.2384 -0.5838  0.5090
  192SOL     OW10204   3.128   9.547   1.878 -0.1209 -0.3859  0.4352
  192SOL    HW110205   3.058   9.579   1.941 -0.2709 -0.3170  0.2346
  192SOL    HW210206   3.091   9.472   1.822 -0.5320  0.6644 -0.7284
  193SOL     OW10207   3.377   3.203   1.994 -0.2385 -0.2268  0.8710
  193SOL    HW110208   3.442   3.278   2.009  1.2278 -0.6880 -2.8696
  193SOL    HW210209   3.284   3.237   2.011  0.5047  2.0549  0.6271
  194SOL     OW10210   3.642   1.535  -0.354  0.4455 -0.3129  0.1203
  194SOL    HW110211   3.677   1.619  -0.394 -0.9681 -0.0335 -0.5571
  194SOL    HW210212   3.693   1.514  -0.271  1.5671  0.5872 -0.3192
  195SOL     OW10213   3.217   0.779   0.004  0.1045  0.2306 -0.2462
  195SOL    HW110214   3.224   0.689  -0.039  1.7181 -0.2844  1.0524
  195SOL    HW210215   3.200   0.768   0.102  1.0795  1.3280  0.0518
  196SOL     OW10216   3.439   3.778   0.868 -0.2912 -0.3853 -0.2008
  196SOL    HW110217   3.519   3.807   0.816 -1.1003  1.0220 -0.6752
  196SOL    HW210218   3.362   3.764   0.806 -1.1954  1.0396  0.5823
  197SOL     OW10219   3.990   1.631   1.926  0.2905  0.2496 -0.7750
  197SOL    HW110220   4.015   1.712   1.977 -1.6539  0.4818 -0.1317
  197SOL    HW210221   4.021   1.549   1.975 -0.7570  0.5037  0.3425
  198SOL     OW10222   3.137   1.639   1.388 -0.0370  0.6573  0.4508
  198SOL    HW110223   3.097   1.619   1.477 -0.4338  0.3444  0.2030
  198SOL    HW210224   3.198   1.565   1.361 -0.2324  0.5540  0.2828
  199SOL     OW10225   3.134   1.755   1.027  0.4373  0.7373  0.4159
  199SOL    HW110226   3.053   1.701   1.009  1.4420 -0.2527 -1.1960
  199SOL    HW210227   3.209   1.695   1.056  1.5974  1.2014 -1.5126
  200SOL     OW10228   3.708   0.600   0.234 -0.3735  0.2285 -0.1179
  200SOL    HW110229   3.798   0.615   0.193 -0.0138 -0.3459  0.4484
  200SOL    HW210230   3.699   0.658   0.315 -0.4371  0.1456 -0.0656
  201SOL     OW10231   4.289   2.178   0.802  0.0896  0.1377 -0.4243
  201SOL    HW110232   4.363   2.147   0.863 -0.9609  1.3218  1.5242
  201SOL    HW210233   4.246   2.099   0.758  0.0872 -0.8700  1.3369
  202SOL     OW10234   4.262   1.042  -0.177  0.2647  0.1070  0.3890
  202SOL    HW110235   4.197   0.974  -0.144 -0.2564  1.0765  1.3905
  202SOL    HW210236   4.353   1.022  -0.140  0.2253 -0.3595  0.2346
  203SOL     OW10237   4.035   0.452   0.707 -0.5074  0.5772 -0.1610
  203SOL    HW110238   4.038   0.412   0.616 -0.3916  1.0963 -0.3842
  203SOL    HW210239   4.037   0.552   0.700 -0.1808  0.6123  0.4199
  204SOL     OW10240   4.071   2.666   0.525 -0.3993  0.1848  0.2591
  204SOL    HW110241   4.103   2.746   0.575  0.2256  0.4722 -0.5909
  204SOL    HW210242   3.992   2.691   0.468 -0.6840  0.0159  0.5773
  205SOL     OW10243   3.691   0.806  -0.027 -0.2026  0.2355 -0.3494
  205SOL    HW110244   3.735   0.833   0.059 -0.4877  0.9489 -0.4244
  205SOL    HW210245   3.598   0.841  -0.029  0.1981  1.2435 -1.4748
  206SOL     OW10246   4.052   0.869  -0.110  0.0093  0.0946 -0.1835
  206SOL    HW110247   4.019   0.819  -0.190 -1.2435 -1.2756  1.1344
  206SOL    HW210248   3.978   0.928  -0.076  0.7648  1.1942 -0.4380
  207SOL     OW10249   3.670   3.038   1.971 -0.3732 -0.4835 -0.3307
  207SOL    HW110250   3.672   3.106   1.898 -1.0757  0.0140  0.1075
  207SOL    HW210251   3.582   2.991   1.972 -1.0806  0.8168  1.3573
  208SOL     OW10252   3.476   3.472   1.473  0.1336 -0.4479 -0.0611
  208SOL    HW110253   3.573   3.475   1.449  0.8717 -0.3951  2.7406
  208SOL    HW210254   3.459   3.397   1.537 -1.3260  0.6574  0.8908
  209SOL     OW10255   3.464   2.586   0.418  0.0055 -0.1114 -0.2839
  209SOL    HW110256   3.372   2.549   0.406  0.4389 -1.2458 -0.1710
  209SOL    HW210257   3.531   2.519   0.387  0.7802  0.8866 -0.7821
  210SOL     OW10258   3.140   2.428   1.166  0.1750 -0.0941  0.1071
  210SOL    HW110259   3.123   2.331   1.182 -0.4671 -0.4424 -2.5008
  210SOL    HW210260   3.155   2.474   1.254  1.3206 -2.6830  1.3129
  211SOL     OW10261   3.957   3.771   1.281  0.0894 -0.2204 -0.1731
  211SOL    HW110262   3.870   3.766   1.233  0.2764 -0.2697 -0.5095
  211SOL    HW210263   3.993   3.679   1.296 -0.7151 -0.2804  1.4382
  212SOL     OW10264   4.573   1.229   0.424 -0.6014 -0.8654  0.2969
  212SOL    HW110265   4.581   1.268   0.333  2.5230 -1.0538  0.4275
  212SOL    HW210266   4.539   1.298   0.488 -0.3358  0.0261 -0.5205
  213SOL     OW10267   3.524   1.167   0.778  0.3194 -0.1612  0.6528
  213SOL    HW110268   3.523   1.067   0.782 -3.0761 -0.1479  1.5349
  213SOL    HW210269   3.517   1.204   0.871 -1.0860  0.8655  0.1523
  214SOL     OW10270   2.989   1.267   1.831 -0.1609  0.0819 -0.1488
  214SOL    HW110271   3.046   1.186   1.844  2.5918  1.6256 -2.1226
  214SOL    HW210272   2.956   1.270   1.737 -2.2529  0.0223  0.5648
  215SOL     OW10273   2.863  10.165   0.542  0.3057 -0.2560  0.1566
  215SOL    HW110274   2.872  10.202   0.635 -1.0497 -1.1034  0.6437
  215SOL    HW210275   2.772  10.186   0.507  0.7027 -0.2264 -0.8516
  216SOL     OW10276   4.375   2.602   0.528 -0.3888  0.2431  0.1593
  216SOL    HW110277   4.376   2.511   0.569 -0.5414  0.8167  1.4690
  216SOL    HW210278   4.282   2.627   0.504 -0.2831 -0.1439 -0.6639
  217SOL     OW10279   3.600   3.090   1.475  0.0106  0.3101  0.0848
  217SOL    HW110280   3.588   3.098   1.376  1.3504 -0.4571 -0.1511
  217SOL    HW210281   3.537   3.152   1.521 -2.5802 -1.3471 -1.1460
  218SOL     OW10282   2.921   0.602   0.807 -0.3034 -0.4522 -0.1710
  218SOL    HW110283   2.991   0.638   0.869  0.7632 -0.2862 -1.4631
  218SOL    HW210284   2.848   0.670   0.796  0.6098  0.4386 -0.8514
  219SOL     OW10285   4.172   1.207   1.860  0.1765  0.5443  0.8594
  219SOL    HW110286   4.152   1.110   1.846  0.2067  0.2699  2.5218
  219SOL    HW210287   4.255   1.232   1.811 -0.0292 -0.1797  0.1312
  220SOL     OW10288   3.153   4.142   1.224 -0.6392 -0.4440  0.2992
  220SOL    HW110289   3.150   4.070   1.155 -1.2948  0.2403 -0.4015
  220SOL    HW210290   3.068   4.196   1.219  0.0480  0.6756  0.4828
  221SOL     OW10291   3.283  10.077   0.588  0.4995  0.2729 -0.1349
  221SOL    HW110292   3.360  10.016   0.569 -0.5614 -1.2283  0.3211
  221SOL    HW210293   3.203  10.049   0.535 -0.3355  0.5367  0.9430
  222SOL     OW10294   3.538   1.391   0.100  0.2028 -0.5354 -0.1411
  222SOL    HW110295   3.543   1.320   0.171  2.1907 -1.2059 -0.9168
  222SOL    HW210296   3.469   1.365   0.032 -1.8849  0.2279  1.6330
  223SOL     OW10297   3.044  10.018   0.407 -0.4071 -0.0416 -0.2985
  223SOL    HW110298   2.963  10.055   0.453 -0.6095 -0.6461 -0.1625
  223SOL    HW210299   3.046   9.919   0.418  0.5717  0.0120  0.0496
  224SOL     OW10300   3.650   3.583   2.071 -0.1090 -0.1805  0.2750
  224SOL    HW110301   3.575   3.534   2.117 -0.7738  1.3746  0.8761
  224SOL    HW210302   3.655   3.677   2.106  1.4189  0.0639 -0.5681
  225SOL     OW10303   3.008   3.426   1.601  0.1380  0.3874  0.5775
  225SOL    HW110304   3.038   3.376   1.520  1.2983 -0.2788  1.3951
  225SOL    HW210305   3.004   3.364   1.679  3.9615  1.9513  2.1805
  226SOL     OW10306   2.963   1.555   0.251 -0.5630  1.1846  0.1545
  226SOL    HW110307   2.928   1.548   0.158 -2.4736 -0.6997  0.9780
  226SOL    HW210308   2.990   1.650   0.269 -1.8705  1.9471 -1.7227
  227SOL     OW10309   3.821   2.479   2.236  0.2384  0.8946  0.0371
  227SOL    HW110310   3.737   2.464   2.289 -0.4220  1.7044 -0.7525
  227SOL    HW210311   3.889   2.525   2.293 -0.2658  1.2644  0.3439
  228SOL     OW10312   3.982   4.638  -0.252  0.4309 -0.3897  0.0943
  228SOL    HW110313   4.061   4.698  -0.270  1.7348 -2.4479 -1.2686
  228SOL    HW210314   3.937   4.616  -0.338 -0.2889 -1.0222  0.6295
  229SOL     OW10315   3.110   1.000   1.866  0.0339  0.2498 -0.6115
  229SOL    HW110316   3.082   0.928   1.931  0.2813  0.8809  0.1990
  229SOL    HW210317   3.183   0.965   1.808  0.5150  0.0092  0.1253
  230SOL     OW10318   3.611   2.438  -0.284  0.0736  0.0136 -0.1250
  230SOL    HW110319   3.609   2.422  -0.185  3.8735  1.6243  0.2961
  230SOL    HW210320   3.559   2.366  -0.330 -1.1214 -1.2133  2.9576
  231SOL     OW10321   4.039   3.056   2.260 -0.0653  0.6249 -0.1373
  231SOL    HW110322   3.950   3.067   2.218  0.2949  1.2799 -0.7399
  231SOL    HW210323   4.094   3.139   2.245 -0.0191  0.9808  1.8295
  232SOL     OW10324   3.353   4.918   1.605 -0.6580  0.1082 -0.2535
  232SOL    HW110325   3.264   4.890   1.642  0.4125  0.6835  2.9170
  232SOL    HW210326   3.339   4.980   1.528 -2.9881 -0.7173 -0.5512
  233SOL     OW10327   3.298   1.760   1.903 -0.9193 -0.2351 -0.0293
  233SOL    HW110328   3.209   1.750   1.947 -1.0377 -0.6717 -0.3607
  233SOL    HW210329   3.355   1.680   1.924 -0.6780 -0.0518  0.0159
  234SOL     OW10330   2.772   0.606   1.608  0.2723 -0.0631 -0.9193
  234SOL    HW110331   2.842   0.645   1.549 -0.5522  1.1489 -1.1299
  234SOL    HW210332   2.684   0.608   1.561 -0.3917  0.8879  0.3038
  235SOL     OW10333   3.944   2.210   2.328 -0.7582 -0.9266  0.0517
  235SOL    HW110334   4.030   2.161   2.314 -1.3720 -1.9051 -0.3645
  235SOL    HW210335   3.921   2.261   2.245  1.0258  1.9308  1.2504
  236SOL     OW10336   3.687   4.408   1.030 -0.1802 -0.0533 -0.0245
  236SOL    HW110337   3.767   4.352   1.010 -0.4595 -0.4075 -0.1587
  236SOL    HW210338   3.610   4.378   0.974 -0.6748 -0.3479  0.7941
  237SOL     OW10339   3.467   2.136   0.967 -0.1112  0.1309 -0.1380
  237SOL    HW110340   3.433   2.192   0.891  0.6559  0.5349 -0.1896
  237SOL    HW210341   3.390   2.094   1.015 -0.5517 -1.6248 -2.2726
  238SOL     OW10342   3.059   9.705   2.125  0.1120 -0.0507 -0.1275
  238SOL    HW110343   3.106   9.759   2.056 -0.3321 -0.9185 -1.1243
  238SOL    HW210344   3.011   9.766   2.188  1.0325  0.7670 -0.2110
  239SOL     OW10345   3.097   1.809   0.268 -0.4200  0.2132  0.4846
  239SOL    HW110346   3.076   1.824   0.171 -0.1041 -1.7881  0.1007
  239SOL    HW210347   3.145   1.889   0.304 -0.8239  1.1116 -0.9169
  240SOL     OW10348   3.389   9.032   0.977 -0.2086  0.0865 -0.0309
  240SOL    HW110349   3.359   9.110   1.032  2.0985  1.0782 -0.1020
  240SOL    HW210350   3.421   8.959   1.037  0.8120  0.5523  0.0191
  241SOL     OW10351   4.198   1.565   2.160 -0.1801 -0.0465 -0.2592
  241SOL    HW110352   4.242   1.580   2.249 -0.5255 -1.0064  0.0724
  241SOL    HW210353   4.124   1.499   2.169  0.2301 -0.6742 -1.3972
  242SOL     OW10354   3.039   0.831   2.079  0.3978  0.2231  0.1435
  242SOL    HW110355   3.079   0.746   2.114  0.4590  0.3930  0.4859
  242SOL    HW210356   3.046   0.902   2.148 -0.4470  0.2688  0.1886
  243SOL     OW10357   3.556   2.794   1.163 -0.5012 -0.4328 -0.4919
  243SOL    HW110358   3.542   2.869   1.227 -0.9467 -0.4439 -0.5707
  243SOL    HW210359   3.613   2.724   1.205 -2.5346 -1.4186  0.6884
  244SOL     OW10360   3.607   0.813   1.367  0.1031  0.0697 -0.2916
  244SOL    HW110361   3.558   0.742   1.418  0.6028 -0.4944 -0.5895
  244SOL    HW210362   3.687   0.773   1.323 -0.2751  0.5778 -1.4394
  245SOL     OW10363   3.576   2.698   1.492  0.2790  0.0622 -0.5027
  245SOL    HW110364   3.568   2.639   1.572  0.8559  1.1143  0.3482
  245SOL    HW210365   3.489   2.744   1.475  0.5988  1.0350  0.4726
  246SOL     OW10366   3.353   5.827   1.127  0.0053  0.4298 -0.0174
  246SOL    HW110367   3.417   5.804   1.053  0.7864  0.9497  0.4938
  246SOL    HW210368   3.276   5.878   1.089  0.1116  0.1858 -0.5687
  247SOL     OW10369   4.033   3.104   1.404  0.2938 -0.0442  0.4180
  247SOL    HW110370   4.023   3.075   1.500  1.9392 -1.4678  0.1943
  247SOL    HW210371   4.129   3.124   1.386  0.3002 -1.5533 -1.3901
  248SOL     OW10372   3.334   0.880   2.266  0.2102 -0.2188  0.1165
  248SOL    HW110373   3.393   0.829   2.328  1.8555  0.3491 -0.9620
  248SOL    HW210374   3.353   0.854   2.172 -2.0025 -0.7868 -0.2132
  249SOL     OW10375   4.259   1.725   1.573  0.0873  0.3388  0.2466
  249SOL    HW110376   4.244   1.810   1.522  0.4865 -0.0651 -0.5606
  249SOL    HW210377   4.291   1.747   1.665 -0.3290  1.0749  0.2200
  250SOL     OW10378   3.258   1.921   1.673 -0.2901  0.0902 -0.3540
  250SOL    HW110379   3.270   1.852   1.744 -0.1066  1.0735  0.5910
  250SOL    HW210380   3.253   1.877   1.583 -1.5868 -1.2499  0.3565
  251SOL     OW10381   3.762   1.051   1.130 -0.2254 -0.0658 -0.3092
  251SOL    HW110382   3.699   1.092   1.065 -0.1345 -0.4557 -0.6446
  251SOL    HW210383   3.845   1.106   1.135 -0.7171  0.6244  0.3717
  252SOL     OW10384   3.414   2.460   1.128 -0.7764 -0.2762 -0.1328
  252SOL    HW110385   3.316   2.452   1.109 -0.6566 -1.1403 -0.4424
  252SOL    HW210386   3.428   2.469   1.227 -1.2707  1.8155 -0.2479
  253SOL     OW10387   3.173   1.813  -0.100  0.1426  0.5245 -0.2049
  253SOL    HW110388   3.173   1.904  -0.058 -2.4468 -0.1179  1.2824
  253SOL    HW210389   3.258   1.765  -0.077  0.2900  1.4976  1.3290
  254SOL     OW10390   2.418   3.202   2.210  0.2866 -0.5335 -0.5541
  254SOL    HW110391   2.340   3.243   2.259  0.7711 -0.9809  0.6079
  254SOL    HW210392   2.499   3.260   2.222  0.3730 -0.5782 -0.9335
  255SOL     OW10393   4.001   0.744   0.707 -0.5439 -0.3016 -0.1526
  255SOL    HW110394   4.079   0.740   0.770  1.3534 -0.1817 -2.4335
  255SOL    HW210395   3.946   0.825   0.727  1.3671  1.0260 -0.1497
  256SOL     OW10396   4.308   1.808   1.866 -0.1001  0.6141 -0.1735
  256SOL    HW110397   4.231   1.752   1.896 -0.0381  0.7436  0.2247
  256SOL    HW210398   4.296   1.901   1.900  1.6664 -0.0171  2.2935
  257SOL     OW10399   4.027   1.447   0.204  0.0093  0.1995  0.2558
  257SOL    HW110400   3.946   1.472   0.258  0.1843  0.4513  0.3995
  257SOL    HW210401   4.005   1.456   0.107  0.2196  1.3692  0.3143
  258SOL     OW10402   3.606   3.570   1.041  0.2758 -0.0562 -0.1774
  258SOL    HW110403   3.538   3.642   1.027  0.0582 -0.5474 -1.6879
  258SOL    HW210404   3.560   3.488   1.076  0.2640 -0.0208 -0.1091
  259SOL     OW10405   3.564   0.739   1.063 -0.3626 -0.1442 -0.2830
  259SOL    HW110406   3.550   0.730   0.965 -2.0800 -1.0380  0.0186
  259SOL    HW210407   3.650   0.786   1.081  0.3590 -0.7203 -2.1933
  260SOL     OW10408   3.379   2.677   1.834 -0.2556  0.1927 -0.2963
  260SOL    HW110409   3.295   2.645   1.877 -0.2857  1.4783  0.6413
  260SOL    HW210410   3.397   2.771   1.862  0.9097  0.3043 -1.3696
  261SOL     OW10411   2.913   2.467   0.510  0.1174  0.0511 -0.3586
  261SOL    HW110412   2.891   2.451   0.414 -1.8960 -0.3877  0.1628
  261SOL    HW210413   2.880   2.557   0.538 -0.4400 -0.3372  0.2498
  262SOL     OW10414   3.211  10.228   0.326 -0.5627  0.3452  0.1733
  262SOL    HW110415   3.151  10.148   0.329 -1.3792  0.9134 -0.3941
  262SOL    HW210416   3.176  10.298   0.388  0.3974  0.1000  0.9974
  263SOL     OW10417   3.078   3.992   0.821 -0.8867  0.0211 -0.0079
  263SOL    HW110418   3.092   3.926   0.747 -0.4327  1.0267 -0.8342
  263SOL    HW210419   3.128   3.962   0.902  2.7076  1.3749 -1.6158
  264SOL     OW10420   3.799   2.375   1.452 -0.4592 -0.1248 -0.9628
  264SOL    HW110421   3.830   2.392   1.546 -1.6989 -0.3762 -0.4942
  264SOL    HW210422   3.864   2.414   1.388  1.6720 -2.0687 -0.0453
  265SOL     OW10423   3.138   0.931  -0.218 -0.4122  0.2877  0.6506
  265SOL    HW110424   3.201   0.915  -0.294 -0.6051 -1.3541  0.8023
  265SOL    HW210425   3.168   0.876  -0.139 -1.9317 -0.3659  0.7799
  266SOL     OW10426   4.691   4.453   2.187 -0.2645 -0.2802 -0.1412
  266SOL    HW110427   4.672   4.550   2.167 -0.5057 -0.2840  0.0637
  266SOL    HW210428   4.636   4.425   2.266 -0.1936 -0.5855 -0.2036
  267SOL     OW10429   3.236   1.269   1.502 -0.7252  0.0206 -0.4482
  267SOL    HW110430   3.253   1.252   1.599 -0.2808  1.0775 -0.3337
  267SOL    HW210431   3.281   1.354   1.474 -0.8673 -0.2577 -1.5776
  268SOL     OW10432   3.659   9.928   1.028 -0.0587  0.2384  0.1565
  268SOL    HW110433   3.734   9.952   0.967  0.3168  3.1480  1.7075
  268SOL    HW210434   3.696   9.884   1.110 -0.0319  1.4624  0.8152
  269SOL     OW10435   4.144   2.386   0.921  0.0753 -0.4394 -0.3282
  269SOL    HW110436   4.183   2.305   0.877  0.3111 -0.4188 -0.1632
  269SOL    HW210437   4.129   2.457   0.852 -1.4362 -1.1034 -0.7048
  270SOL     OW10438   3.319   9.836   1.378  0.2451 -0.1256 -0.3939
  270SOL    HW110439   3.226   9.861   1.403  0.2789  0.4557 -0.8405
  270SOL    HW210440   3.327   9.736   1.374  0.1129 -0.2068  1.3517
  271SOL     OW10441   3.899   9.937   0.872 -0.4467 -0.4021  0.3172
  271SOL    HW110442   3.960   9.884   0.931 -3.5209 -1.1121  2.9950
  271SOL    HW210443   3.868   9.879   0.796  0.6463 -0.6213  0.0232
  272SOL     OW10444   3.102   9.729   0.144  0.5288  0.3065  0.4884
  272SOL    HW110445   3.079   9.767   0.234 -1.7310  0.5022 -0.1428
  272SOL    HW210446   3.136   9.802   0.084  0.8678  0.3970  0.7870
  273SOL     OW10447   3.459   3.317   1.701 -0.1848  0.1400 -0.1388
  273SOL    HW110448   3.414   3.376   1.768  0.1185 -2.3131  2.3065
  273SOL    HW210449   3.525   3.259   1.748 -0.0213 -1.6938 -2.5904
  274SOL     OW10450   3.293   4.420   0.362 -0.0399 -1.1118 -0.4247
  274SOL    HW110451   3.343   4.334   0.363  1.2522 -0.3726  0.5536
  274SOL    HW210452   3.342   4.486   0.306  1.2775  0.2763  2.2460
  275SOL     OW10453   3.199   1.284   0.636  0.1744 -0.1448 -0.1144
  275SOL    HW110454   3.127   1.295   0.568  1.7732 -0.0439 -1.8282
  275SOL    HW210455   3.239   1.374   0.656  0.2675 -0.2872  0.3364
  276SOL     OW10456   3.286   0.564   2.146  0.3441 -0.4989  0.3579
  276SOL    HW110457   3.305   0.520   2.234 -1.7303  0.8316  1.5033
  276SOL    HW210458   3.373   0.591   2.103  1.3369 -0.1986  2.4957
  277SOL     OW10459   4.068   3.037  -0.087 -0.1243 -0.5043 -0.2470
  277SOL    HW110460   4.001   3.111  -0.082 -0.8260 -1.1738  0.3216
  277SOL    HW210461   4.099   3.026  -0.181 -2.9635 -2.0852 -1.0516
  278SOL     OW10462   3.507   1.123   0.250  0.0793  0.6828 -0.1140
  278SOL    HW110463   3.427   1.134   0.191 -0.0975  0.9762  0.1837
  278SOL    HW210464   3.481   1.133   0.346  0.1639 -0.9452  0.0880
  279SOL     OW10465   3.217   2.487   0.345  0.3777  0.0248 -0.3906
  279SOL    HW110466   3.239   2.416   0.278 -0.4563  0.9436 -1.6504
  279SOL    HW210467   3.126   2.471   0.382  0.4892  0.0204 -0.1145
  280SOL     OW10468   4.049   0.988   1.037  0.2626 -0.1027  0.4968
  280SOL    HW110469   4.075   1.063   1.098  0.1065  0.4033 -0.0486
  280SOL    HW210470   4.080   0.901   1.075  2.4565  0.4403  0.0337
  281SOL     OW10471   3.723   1.174   0.573  0.4238  0.5921 -0.3693
  281SOL    HW110472   3.714   1.157   0.671  0.1389  3.2454  0.1027
  281SOL    HW210473   3.787   1.108   0.533 -1.6511 -2.3167  1.0361
  282SOL     OW10474   3.135   3.333  -0.166 -0.0419  0.5031  0.0434
  282SOL    HW110475   3.113   3.248  -0.214 -0.4122 -1.0557  2.8708
  282SOL    HW210476   3.234   3.349  -0.170  0.2167 -0.8454  0.7080
  283SOL     OW10477   3.159   3.704   1.227  1.0905  0.5661  1.0753
  283SOL    HW110478   3.065   3.681   1.252  1.5721 -0.7314  1.7146
  283SOL    HW210479   3.208   3.740   1.307  1.4502  0.2393  1.0040
  284SOL     OW10480   3.362   1.250   1.742 -0.4927 -0.5410  0.3754
  284SOL    HW110481   3.363   1.290   1.834  0.1999 -0.2663  0.2524
  284SOL    HW210482   3.454   1.218   1.719 -0.7142 -0.8109 -0.1371
  285SOL     OW10483   3.409   1.138   0.530 -0.3064  0.1781  0.5829
  285SOL    HW110484   3.485   1.162   0.591  0.8126  0.1026 -0.7648
  285SOL    HW210485   3.327   1.188   0.558  0.1874  0.1463  2.1466
  286SOL     OW10486   3.609   3.016   0.972 -0.4586  0.0404  0.0331
  286SOL    HW110487   3.605   2.947   1.044 -0.7230  1.3438  1.2920
  286SOL    HW210488   3.699   3.059   0.971 -0.9768  1.1687  0.6916
  287SOL     OW10489   3.481   3.193   0.401  0.1839 -0.1617 -0.2580
  287SOL    HW110490   3.512   3.286   0.380  2.7150 -1.3016 -1.7326
  287SOL    HW210491   3.559   3.130   0.400 -1.5259 -2.3738  0.4978
  288SOL     OW10492   4.572   1.601   0.764  0.3123 -0.4233 -0.5256
  288SOL    HW110493   4.617   1.654   0.837  0.3305 -0.1220 -0.7546
  288SOL    HW210494   4.493   1.653   0.730  1.2727  0.1862 -1.8671
  289SOL     OW10495   3.379   1.646  -0.004 -0.1266  0.3119  0.9186
  289SOL    HW110496   3.404   1.591  -0.084  1.2411  1.0129  0.8422
  289SOL    HW210497   3.306   1.600   0.046  1.8214 -2.2856  1.5663
  290SOL     OW10498   3.806   4.398   2.269 -0.3787  0.6122 -0.0667
  290SOL    HW110499   3.775   4.359   2.182  0.5546  0.7124 -0.4501
  290SOL    HW210500   3.779   4.494   2.275 -1.2233  0.3633  0.1473
  291SOL     OW10501   4.268   2.603   1.317  0.3753  0.3024 -0.2333
  291SOL    HW110502   4.305   2.689   1.283 -0.5369  1.2946  1.2040
  291SOL    HW210503   4.341   2.551   1.363  0.3481  1.5807  1.3090
  292SOL     OW10504   3.581   4.104  -0.217 -0.1064 -0.0207  0.2067
  292SOL    HW110505   3.529   4.019  -0.218 -0.5994  0.2590 -1.5792
  292SOL    HW210506   3.650   4.102  -0.289  0.3259  0.8166  0.5846
  293SOL     OW10507   3.205   1.027   1.049 -0.1511 -0.0812  0.1274
  293SOL    HW110508   3.233   0.949   1.104 -0.4979  0.0189  0.4491
  293SOL    HW210509   3.263   1.106   1.070  0.9011 -0.5390 -0.9784
  294SOL     OW10510   3.534   2.495   1.684  0.1221 -0.6238 -0.2894
  294SOL    HW110511   3.479   2.444   1.618 -0.5895 -0.0464 -0.1507
  294SOL    HW210512   3.474   2.556   1.737  1.0682  0.9066 -0.9643
  295SOL     OW10513   3.344  10.355   0.588  0.1133 -0.3101  0.0251
  295SOL    HW110514   3.440  10.382   0.589 -0.1995  0.9100 -1.5361
  295SOL    HW210515   3.337  10.256   0.591  1.4416 -0.4255 -0.5755
  296SOL     OW10516   1.782   5.206  -0.240  0.2198  0.3954 -0.2278
  296SOL    HW110517   1.711   5.174  -0.304 -0.6782  0.2749  0.8159
  296SOL    HW210518   1.792   5.140  -0.166  1.6331  0.2813 -0.5014
  297SOL     OW10519   3.694   0.778   0.428 -0.3893 -0.7993 -0.1618
  297SOL    HW110520   3.734   0.772   0.519 -2.2659 -1.5786  0.6307
  297SOL    HW210521   3.605   0.823   0.433 -0.1961 -0.1964 -1.7176
  298SOL     OW10522   4.885   3.443   0.839 -0.2162 -0.7531  0.0984
  298SOL    HW110523   4.948   3.521   0.840 -0.3702 -0.6286  0.8129
  298SOL    HW210524   4.937   3.358   0.846 -0.1991 -0.5799  2.6833
  299SOL     OW10525   3.364  10.203  -0.220 -0.4576  0.2777  0.2085
  299SOL    HW110526   3.282  10.217  -0.275 -0.1985 -0.0694 -0.2601
  299SOL    HW210527   3.341  10.150  -0.139 -0.3499 -1.3593 -0.8167
  300SOL     OW10528   4.637   1.810  -0.048  0.0228  0.2519  0.7409
  300SOL    HW110529   4.680   1.807   0.042  1.2627 -0.3836  0.1509
  300SOL    HW210530   4.657   1.725  -0.097  2.0468  1.8372 -1.3146
  301SOL     OW10531   2.933   1.030   2.281  0.0411 -0.1848  0.2706
  301SOL    HW110532   2.953   1.124   2.253  1.7601 -0.4949  0.3735
  301SOL    HW210533   2.981   1.011   2.367 -0.6425 -1.0237  0.4660
  302SOL     OW10534   4.092   0.950   1.734 -0.0887 -0.4912 -0.4348
  302SOL    HW110535   4.027   0.924   1.806  0.9491 -2.5682 -0.1868
  302SOL    HW210536   4.080   0.890   1.655  2.4701 -1.9531  0.1976
  303SOL     OW10537   3.881   1.074  -0.013  0.0608 -0.0419 -0.0168
  303SOL    HW110538   3.815   1.141  -0.047  0.4165  0.4689  0.2889
  303SOL    HW210539   3.841   1.025   0.065 -0.5409 -0.8215 -0.8019
  304SOL     OW10540   3.292   1.537   0.778  0.1277  0.1609  0.0340
  304SOL    HW110541   3.197   1.558   0.756  0.4732  1.7363 -0.0211
  304SOL    HW210542   3.349   1.616   0.758  1.5039 -0.8845 -0.2397
  305SOL     OW10543   3.176   0.402   0.900 -0.0247  0.1396  0.4898
  305SOL    HW110544   3.106   0.457   0.854  1.1554  0.2128 -1.2432
  305SOL    HW210545   3.213   0.334   0.837  0.0914 -1.2199  1.9772
  306SOL     OW10546   3.095  10.067  -0.281 -0.3531 -0.4481  0.1377
  306SOL    HW110547   3.116  10.104  -0.371 -2.3346 -1.3825 -0.7464
  306SOL    HW210548   2.999  10.086  -0.259  0.6687  1.7265  3.0269
  307SOL     OW10549   4.438   4.215   0.376  0.4640 -0.4474 -0.8531
  307SOL    HW110550   4.503   4.148   0.412  0.2149 -0.5430 -0.5749
  307SOL    HW210551   4.448   4.222   0.277  0.4115 -0.9795 -0.8937
  308SOL     OW10552   3.213   3.883   1.033 -0.5832  0.1933  0.4176
  308SOL    HW110553   3.306   3.880   0.996 -1.3041 -1.2774 -1.3284
  308SOL    HW210554   3.194   3.799   1.083 -1.2809  0.0973  0.0012
  309SOL     OW10555   3.813  10.162   0.146  0.0139 -0.1448  0.5422
  309SOL    HW110556   3.769  10.076   0.124 -1.4428  0.4735  1.0075
  309SOL    HW210557   3.871  10.151   0.226 -0.4443 -0.6029  0.8101
  310SOL     OW10558   3.708   0.874   2.058 -0.7312  0.1482  0.0124
  310SOL    HW110559   3.752   0.936   2.123  1.1378 -0.7491 -0.3673
  310SOL    HW210560   3.750   0.885   1.968 -1.0444 -0.9751 -0.2781
  311SOL     OW10561   3.330   2.548  -0.044  0.3250  0.1801 -0.0164
  311SOL    HW110562   3.295   2.614   0.022 -0.8844 -0.6839  0.2364
  311SOL    HW210563   3.412   2.584  -0.089  1.4616  0.5516  2.3183
  312SOL     OW10564   3.294   0.784   1.131  0.3058  0.5083 -0.0402
  312SOL    HW110565   3.394   0.774   1.129  0.5448  2.7562 -0.1073
  312SOL    HW210566   3.256   0.753   1.044  1.1560  1.6650 -0.8374
  313SOL     OW10567   3.740   0.539   1.356 -0.6480  0.2025 -0.8136
  313SOL    HW110568   3.816   0.499   1.304 -0.5262  0.0432 -0.5132
  313SOL    HW210569   3.656   0.535   1.301 -0.0131  2.2501 -1.9563
  314SOL     OW10570   4.582   2.758   0.598 -0.0777 -0.3532  0.2873
  314SOL    HW110571   4.585   2.809   0.512  1.3812 -0.5421  0.2186
  314SOL    HW210572   4.512   2.687   0.591 -0.3975  0.0313 -0.5218
  315SOL     OW10573   2.844   1.914  -0.138  0.0873  0.3471 -0.0627
  315SOL    HW110574   2.893   1.840  -0.185  0.3538  0.9659 -0.7730
  315SOL    HW210575   2.786   1.963  -0.204 -0.8853  0.1182  0.6190
  316SOL     OW10576   4.393   1.300   1.674 -0.0891  0.4924  0.3203
  316SOL    HW110577   4.374   1.381   1.619  0.4306  0.1228 -0.4055
  316SOL    HW210578   4.487   1.302   1.706  0.1233 -0.1406 -0.2435
  317SOL     OW10579   3.722   2.568   1.248 -0.4051 -0.1633 -0.5705
  317SOL    HW110580   3.688   2.497   1.186 -0.0879 -1.3643  0.6018
  317SOL    HW210581   3.687   2.551   1.340  1.1511  0.1538  0.0958
  318SOL     OW10582   3.106   0.994   1.490 -0.2569 -0.5976 -0.1053
  318SOL    HW110583   3.138   1.050   1.414 -0.4730  1.5242  1.3051
  318SOL    HW210584   3.182   0.976   1.553 -0.3760 -1.1776 -0.1252
  319SOL     OW10585   3.359   9.376   1.590  0.1995 -0.8152  0.3590
  319SOL    HW110586   3.283   9.330   1.636 -0.5431 -0.6795 -0.7115
  319SOL    HW210587   3.384   9.325   1.508  1.6100 -1.1360  0.9756
  320SOL     OW10588   2.972   3.107   0.187  0.3725 -0.1277  0.8525
  320SOL    HW110589   2.895   3.066   0.138 -0.4059  1.4261  0.7320
  320SOL    HW210590   3.006   3.186   0.135  1.7483 -0.5127  1.1417
  321SOL     OW10591   2.979   2.060   1.598  0.1185 -0.2284 -0.1275
  321SOL    HW110592   3.065   2.033   1.556  0.6588 -1.6156  1.8038
  321SOL    HW210593   2.942   1.984   1.651 -1.7003  0.7354  0.0332
  322SOL     OW10594   2.603  10.258   0.593  0.0040  0.0509 -0.0889
  322SOL    HW110595   2.671  10.290   0.659 -0.4524 -1.3911  1.1247
  322SOL    HW210596   2.516  10.242   0.640  0.2960 -3.2466 -0.5227
  323SOL     OW10597   3.471   9.746   0.328  0.2744  0.8051 -0.4583
  323SOL    HW110598   3.383   9.769   0.286 -1.1956 -0.9559  1.5455
  323SOL    HW210599   3.494   9.816   0.396 -0.3781  0.3983  0.1771
  324SOL     OW10600   3.077   3.697   1.518 -0.5465 -0.5966  0.0521
  324SOL    HW110601   3.038   3.606   1.530  1.6384 -1.4561  1.0213
  324SOL    HW210602   3.176   3.688   1.502 -0.1507  1.6256  1.0927
  325SOL     OW10603   3.338   3.721   1.483 -0.4703 -0.8135 -0.2867
  325SOL    HW110604   3.379   3.632   1.500 -0.7475 -0.8003  0.4913
  325SOL    HW210605   3.408   3.792   1.487 -0.3726 -0.9175 -0.1556
  326SOL     OW10606   2.962   1.351   0.438 -0.2103 -0.3134  0.1666
  326SOL    HW110607   2.911   1.270   0.410  2.3637 -0.8298 -3.2936
  326SOL    HW210608   2.944   1.426   0.374  1.1915  0.3421  0.5159
  327SOL     OW10609   3.680   3.032   0.348 -0.5943 -0.9542 -0.8759
  327SOL    HW110610   3.657   2.940   0.315 -0.5420 -1.1734 -0.2953
  327SOL    HW210611   3.753   3.026   0.416 -1.6134 -0.6161  0.2494
  328SOL     OW10612   3.381   0.407   2.322 -0.0570  0.1928  0.0819
  328SOL    HW110613   3.360   0.356   2.405 -0.6559  0.2683 -0.0231
  328SOL    HW210614   3.477   0.437   2.325  0.1300 -0.4323  0.4042
  329SOL     OW10615   3.186   3.482   1.107  0.5018  0.3580  0.1835
  329SOL    HW110616   3.183   3.572   1.151  3.4158  1.3478 -1.5027
  329SOL    HW210617   3.146   3.488   1.016 -1.8242 -0.7364  1.1051
  330SOL     OW10618   3.554   1.336   1.939 -0.1710 -0.2495  0.5701
  330SOL    HW110619   3.605   1.323   2.024 -0.4109 -1.1540  0.5816
  330SOL    HW210620   3.618   1.332   1.861 -0.1112 -0.6314  0.6342
  331SOL     OW10621   3.473   0.576   0.067  0.4565 -0.2206  0.3096
  331SOL    HW110622   3.413   0.642   0.113  1.6140 -0.8544  2.8046
  331SOL    HW210623   3.560   0.571   0.115  1.2963 -1.7693 -1.3082
  332SOL     OW10624   3.532   0.698  -0.339 -0.5289  0.2247  0.1089
  332SOL    HW110625   3.545   0.693  -0.438  1.1778 -0.2698  0.3392
  332SOL    HW210626   3.547   0.607  -0.299 -1.6967  0.3121  0.7808
  333SOL     OW10627   3.248   0.749   0.829 -0.1569 -0.5249 -0.0702
  333SOL    HW110628   3.274   0.684   0.757 -1.9487 -0.8301 -0.4618
  333SOL    HW210629   3.252   0.842   0.792 -1.2399 -0.6923 -0.6468
  334SOL     OW10630   3.395   4.679   2.232 -0.0158  0.0636  0.4919
  334SOL    HW110631   3.372   4.582   2.242  1.4066 -0.3349 -0.1003
  334SOL    HW210632   3.314   4.728   2.201 -0.9676 -0.7923  1.5360
  335SOL     OW10633   3.697   9.881   0.132 -0.2625 -0.2992 -0.0155
  335SOL    HW110634   3.655   9.794   0.158  0.5169 -0.4551  0.7713
  335SOL    HW210635   3.787   9.863   0.091  0.0968  0.1438  0.5629
  336SOL     OW10636   3.684   2.286   1.102 -0.5768 -0.1963 -0.0500
  336SOL    HW110637   3.725   2.209   1.150  1.8453 -0.2784 -2.1930
  336SOL    HW210638   3.613   2.254   1.040 -0.9726 -0.4615  0.5290
  337SOL     OW10639   2.805   1.778   1.762  0.1958 -0.1045 -0.2725
  337SOL    HW110640   2.858   1.699   1.794  0.2880 -0.2438 -0.7737
  337SOL    HW210641   2.742   1.750   1.691 -0.4385  0.0984  0.2020
  338SOL     OW10642   4.296   2.898   1.468  0.6613  0.4058 -0.5761
  338SOL    HW110643   4.202   2.867   1.484  0.9449  0.1463  0.6772
  338SOL    HW210644   4.314   2.901   1.370 -0.8599  1.0873 -0.8443
  339SOL     OW10645   4.634   3.464   0.791 -0.2580  0.3888 -0.1243
  339SOL    HW110646   4.596   3.374   0.771 -0.9228  0.7424 -0.4804
  339SOL    HW210647   4.734   3.457   0.800 -0.4689 -0.6909  1.6308
  340SOL     OW10648   3.045   3.040   1.933 -0.2992  0.1516 -0.5948
  340SOL    HW110649   3.100   3.112   1.892  1.4031 -0.5113  0.4853
  340SOL    HW210650   3.002   2.986   1.861 -0.9273  1.7060 -1.4196
  341SOL     OW10651   3.182   2.725   0.136  0.0841  0.6860  0.1240
  341SOL    HW110652   3.190   2.684   0.227 -1.6663  1.8702  0.8354
  341SOL    HW210653   3.191   2.824   0.143  2.1190  0.6204 -1.2950
  342SOL     OW10654   3.217  10.205   2.207 -0.7412  0.0447  0.0337
  342SOL    HW110655   3.227  10.184   2.110  1.0159 -1.1910  0.4679
  342SOL    HW210656   3.263  10.292   2.228  1.3118 -1.0876  0.2840
  343SOL     OW10657   3.256   0.995   0.779 -0.4501 -0.7402  0.0790
  343SOL    HW110658   3.230   1.035   0.867 -0.3139 -2.0404  0.7133
  343SOL    HW210659   3.269   1.068   0.712 -2.8774  0.1284  0.5013
  344SOL     OW10660   4.479   2.726   1.625 -0.1059  0.4184  0.4348
  344SOL    HW110661   4.424   2.795   1.579  0.0464 -0.5483 -1.2515
  344SOL    HW210662   4.430   2.693   1.706 -0.4422  2.0393  0.9092
  345SOL     OW10663   4.913   3.864   1.298  0.1145  0.1481  0.2125
  345SOL    HW110664   4.890   3.876   1.394 -0.9325 -1.3192  0.1640
  345SOL    HW210665   4.948   3.950   1.260  1.9269  0.3568  2.2683
  346SOL     OW10666   3.824   4.320   1.978 -0.5213  0.0036  0.0287
  346SOL    HW110667   3.802   4.225   1.957  1.6648 -0.4520 -0.3571
  346SOL    HW210668   3.895   4.352   1.916 -0.3722  1.5102  0.9489
  347SOL     OW10669   3.721   1.294  -0.140  0.7157  0.2439 -0.2471
  347SOL    HW110670   3.691   1.240  -0.218  0.8635 -0.6473  0.3035
  347SOL    HW210671   3.641   1.327  -0.090  0.5992 -2.2366  1.2929
  348SOL     OW10672   3.520  10.112   0.849  0.4432  0.1945 -0.3378
  348SOL    HW110673   3.435  10.155   0.880  1.5058  2.5404 -0.5837
  348SOL    HW210674   3.558  10.056   0.923 -1.0993 -0.6024 -0.1175
  349SOL     OW10675   4.184   2.946   0.665 -0.1601  0.0944  0.1771
  349SOL    HW110676   4.099   2.992   0.692 -0.2093  0.6590 -0.9336
  349SOL    HW210677   4.199   2.868   0.725 -1.7298 -0.2966  0.0941
  350SOL     OW10678   4.403   3.639   0.635 -0.3842 -0.0948  0.3363
  350SOL    HW110679   4.437   3.558   0.683 -0.9437  0.0028  0.9117
  350SOL    HW210680   4.475   3.708   0.630 -0.4319  0.0394  1.3757
  351SOL     OW10681   3.626   0.897   0.803  0.4050 -0.0716  0.1403
  351SOL    HW110682   3.724   0.912   0.817  0.2915 -0.0206  0.8578
  351SOL    HW210683   3.611   0.802   0.775  0.6919  0.0136 -0.3102
  352SOL     OW10684   3.398   0.683   1.727  0.6361  0.4854 -0.1262
  352SOL    HW110685   3.427   0.652   1.636 -0.0853 -0.7052  0.0437
  352SOL    HW210686   3.313   0.637   1.753  0.4822  1.3128  0.8805
  353SOL     OW10687   3.443   3.416   1.206  0.3117  0.0954 -0.2460
  353SOL    HW110688   3.447   3.444   1.303 -1.0273  3.1934 -1.0114
  353SOL    HW210689   3.348   3.409   1.178  0.6849 -2.2078 -1.0045
  354SOL     OW10690   3.666   1.061   1.400 -0.5778  0.1717 -0.0561
  354SOL    HW110691   3.644   0.965   1.383 -1.4868  0.4564 -0.5507
  354SOL    HW210692   3.746   1.087   1.345 -1.0672  0.0142 -0.8517
  355SOL     OW10693   4.261   4.008   1.083 -0.0682 -0.6333 -0.0399
  355SOL    HW110694   4.259   4.077   1.011  0.5452 -1.6992 -1.0969
  355SOL    HW210695   4.169   3.993   1.118 -0.0808  1.3604  0.8306
  356SOL     OW10696   5.225   3.826   0.681 -0.2807  0.4355 -0.1631
  356SOL    HW110697   5.251   3.909   0.631 -4.0399  0.8774 -1.5200
  356SOL    HW210698   5.201   3.850   0.776 -0.2499  0.7315 -0.2302
  357SOL     OW10699   3.532   5.778   0.922  0.1803  0.0205  0.3884
  357SOL    HW110700   3.581   5.696   0.891 -0.0185  0.2627 -0.6068
  357SOL    HW210701   3.598   5.845   0.956  0.3513 -0.5192  1.1290
  358SOL     OW10702   3.316   9.587   0.884  0.1672  0.3413  0.0203
  358SOL    HW110703   3.307   9.585   0.984 -0.8411 -0.9365 -0.0865
  358SOL    HW210704   3.301   9.680   0.851  2.2423  1.1377  1.2034
  359SOL     OW10705   2.881   1.609   0.970 -0.1754  0.0790 -0.4562
  359SOL    HW110706   2.846   1.645   1.056  1.1482 -0.2436  0.2218
  359SOL    HW210707   2.836   1.522   0.949  0.7738 -0.7364  0.8144
  360SOL     OW10708   3.052   1.595   0.658  0.5280 -0.3885 -0.0096
  360SOL    HW110709   3.054   1.661   0.584 -0.2348 -0.3598 -0.0053
  360SOL    HW210710   2.965   1.546   0.658  0.8713 -1.0146  0.3178
  361SOL     OW10711   2.927  10.373   1.551  0.7035 -0.2592  0.1111
  361SOL    HW110712   2.867  10.306   1.509  0.9087 -0.4468  0.1134
  361SOL    HW210713   2.872  10.440   1.601  0.5121 -0.6003  0.3612
  362SOL     OW10714   2.840   1.494   0.013 -0.1988 -0.0184 -0.0008
  362SOL    HW110715   2.805   1.437  -0.061 -1.5146 -1.3907  1.6398
  362SOL    HW210716   2.816   1.590  -0.005  0.8049 -0.1225 -2.0656
  363SOL     OW10717   2.806   1.968   0.122  0.0549  0.1284 -0.1914
  363SOL    HW110718   2.708   1.980   0.142  0.1406  0.9986 -0.2717
  363SOL    HW210719   2.817   1.948   0.025 -0.0967 -0.7500 -0.0377
  364SOL     OW10720   3.765   2.724   0.401 -0.4455 -0.1726 -0.2103
  364SOL    HW110721   3.746   2.627   0.389  1.9364 -1.0216  2.3718
  364SOL    HW210722   3.728   2.755   0.488  0.4769  0.7481 -0.1340
  365SOL     OW10723   3.176   1.374   0.195 -0.0187 -0.4458  0.0149
  365SOL    HW110724   3.101   1.440   0.200 -0.3738 -0.9180  0.8045
  365SOL    HW210725   3.247   1.400   0.260  0.4997 -0.0243 -0.6995
  366SOL     OW10726   3.776   2.882   1.523  0.1576  0.3787  0.2179
  366SOL    HW110727   3.721   2.964   1.541  0.1703  0.3981  0.1689
  366SOL    HW210728   3.716   2.808   1.493  0.4049  1.0433 -1.9831
  367SOL     OW10729   3.187   3.017   2.215  0.0835 -0.1674  0.0928
  367SOL    HW110730   3.136   3.008   2.129 -0.2410  0.9764  0.1612
  367SOL    HW210731   3.263   2.951   2.215  0.9832  0.8182 -1.7183
  368SOL     OW10732   3.889   0.990   0.810 -0.2259  0.2460 -0.4730
  368SOL    HW110733   3.938   1.051   0.747 -0.6337  1.1993  0.1272
  368SOL    HW210734   3.924   1.003   0.902 -1.4848  0.8200 -0.0632
  369SOL     OW10735   4.033   2.408   0.649  0.2800 -0.3489  0.0407
  369SOL    HW110736   4.008   2.489   0.595  0.1708  0.8588  1.8348
  369SOL    HW210737   4.123   2.375   0.620  1.5747  2.0890  1.0938
  370SOL     OW10738   2.777   2.092   2.323 -0.0098 -0.2150 -0.5874
  370SOL    HW110739   2.812   2.101   2.230  0.5883  0.2668 -0.3216
  370SOL    HW210740   2.787   2.180   2.370 -1.6863 -0.0250 -0.5434
  371SOL     OW10741   3.039   0.727   1.744  0.5669  0.1286 -0.1200
  371SOL    HW110742   3.012   0.820   1.768 -0.8894 -0.6013  1.1481
  371SOL    HW210743   3.023   0.666   1.822  0.9059 -1.3088 -1.1443
  372SOL     OW10744   3.794   2.139   1.322 -0.3191  0.0140  0.3583
  372SOL    HW110745   3.816   2.232   1.352  0.7066 -0.2225  0.3538
  372SOL    HW210746   3.872   2.079   1.339  0.1250 -0.2324 -2.2867
  373SOL     OW10747   2.956   2.812   0.810 -0.3222  0.2352  0.1855
  373SOL    HW110748   2.956   2.720   0.848 -2.0471 -0.4755 -1.4194
  373SOL    HW210749   3.026   2.867   0.854  1.3517 -2.1076  0.5248
  374SOL     OW10750   4.420   1.452   1.989 -0.3251 -0.7497  0.3197
  374SOL    HW110751   4.378   1.490   2.072  0.3937 -1.5696  1.0694
  374SOL    HW210752   4.392   1.357   1.978 -2.4407  0.0487 -1.7690
  375SOL     OW10753   3.168   0.631   1.324 -0.1277 -0.0335  0.0840
  375SOL    HW110754   3.190   0.699   1.254  0.4262 -0.6042 -0.2971
  375SOL    HW210755   3.087   0.661   1.374 -1.0205 -0.0174 -1.3404
  376SOL     OW10756   3.447  10.028   0.004 -0.0916  0.0842  0.1437
  376SOL    HW110757   3.454  10.065   0.097 -3.4419 -3.4304  1.9768
  376SOL    HW210758   3.523   9.964  -0.012  0.1964  0.2903  0.6812
  377SOL     OW10759   3.149   0.530  -0.098 -0.1995 -0.2371  0.4660
  377SOL    HW110760   3.059   0.557  -0.062  0.8036  2.3714  1.0947
  377SOL    HW210761   3.176   0.443  -0.057 -2.1214 -0.6986  0.8134
  378SOL     OW10762   3.251   3.766   0.676  0.2026  0.0256  0.1963
  378SOL    HW110763   3.330   3.768   0.613  1.1860  1.5059  1.4371
  378SOL    HW210764   3.184   3.701   0.642  2.0676 -1.4659 -0.7646
  379SOL     OW10765   2.864   2.718   0.567  0.0463 -0.1810  0.1211
  379SOL    HW110766   2.877   2.768   0.653  1.1862 -0.2260 -0.0072
  379SOL    HW210767   2.871   2.783   0.491 -0.3143 -0.2469  0.0306
  380SOL     OW10768   3.610   4.152   0.052  1.0373  0.6841  0.1314
  380SOL    HW110769   3.546   4.117  -0.016 -1.0276 -0.5767  2.6345
  380SOL    HW210770   3.664   4.077   0.089  0.8990  1.0523  1.1153
  381SOL     OW10771   2.916   2.702   0.239  0.3516 -0.3601  0.2170
  381SOL    HW110772   2.912   2.607   0.272  0.3217 -1.1207 -1.8782
  381SOL    HW210773   2.994   2.712   0.177  0.7995  1.1936  1.0200
  382SOL     OW10774   3.905   2.790   2.312 -0.5264 -0.1106  0.1793
  382SOL    HW110775   3.935   2.881   2.341 -0.6459  0.7314 -2.2031
  382SOL    HW210776   3.849   2.749   2.383 -1.7214  2.3184  0.6812
  383SOL     OW10777   3.100   2.166   0.723  0.1347 -0.0461 -0.2932
  383SOL    HW110778   3.182   2.122   0.687  1.0868  0.9570  0.6435
  383SOL    HW210779   3.109   2.265   0.716 -0.5987  0.0940  0.6778
  384SOL     OW10780   3.715   0.919  -0.276  0.2123 -0.0691  0.1299
  384SOL    HW110781   3.665   0.852  -0.330  0.2295 -0.1798  0.2513
  384SOL    HW210782   3.708   0.896  -0.179  0.2568  0.0778  0.1679
  385SOL     OW10783   3.181   1.211  -0.224  0.3140 -0.8421  0.2936
  385SOL    HW110784   3.149   1.118  -0.207  1.4092 -1.0242  1.4143
  385SOL    HW210785   3.210   1.219  -0.320  0.1591 -1.6424  0.1773
  386SOL     OW10786   3.498   4.253   0.315 -0.0412 -0.0795 -0.1327
  386SOL    HW110787   3.505   4.211   0.225 -0.7602  0.4729 -0.4524
  386SOL    HW210788   3.558   4.333   0.319 -0.5155  0.2890 -0.3505
  387SOL     OW10789   3.758   1.859   0.743 -0.2816  0.2231 -0.0569
  387SOL    HW110790   3.704   1.889   0.822 -4.0367 -0.7927 -2.1168
  387SOL    HW210791   3.797   1.769   0.761 -1.7618 -0.3430  0.3885
  388SOL     OW10792   2.979   2.030   0.966 -0.2024  0.7087 -0.5913
  388SOL    HW110793   3.014   1.936   0.969  0.8433  1.0787 -0.9014
  388SOL    HW210794   3.015   2.076   0.885 -0.7655  1.3582 -0.4731
  389SOL     OW10795   3.085   3.578   0.577  0.6448 -0.0728 -0.1097
  389SOL    HW110796   3.123   3.593   0.485 -0.5704  0.4952 -0.5305
  389SOL    HW210797   3.039   3.490   0.581 -1.2943  0.8826 -0.7447
  390SOL     OW10798   3.672   2.653   2.084  0.3189 -0.2962  0.7829
  390SOL    HW110799   3.712   2.738   2.052  1.7133  0.4279  4.2098
  390SOL    HW210800   3.744   2.593   2.121 -0.7543 -2.5604 -0.6826
  391SOL     OW10801   4.703   2.447   1.221 -0.2989 -0.1574 -0.5157
  391SOL    HW110802   4.721   2.545   1.226 -0.1273 -0.2461  0.6992
  391SOL    HW210803   4.769   2.398   1.277 -1.2383 -0.8630 -0.0226
  392SOL     OW10804   3.695   5.554   0.792 -0.1474  0.0644 -0.0098
  392SOL    HW110805   3.658   5.512   0.710 -0.8034  0.7813 -0.0853
  392SOL    HW210806   3.778   5.506   0.820 -0.3118 -0.6152 -0.6897
  393SOL     OW10807   3.348   4.506   1.449 -0.2801 -0.2983  0.0677
  393SOL    HW110808   3.335   4.407   1.455 -2.4522 -0.2614 -3.0846
  393SOL    HW210809   3.411   4.528   1.374 -1.7735  0.7856 -0.9126
  394SOL     OW10810   3.464  10.138   0.296 -0.0729 -0.3312  0.5407
  394SOL    HW110811   3.378  10.185   0.314  0.7769  0.1868  3.5606
  394SOL    HW210812   3.540  10.201   0.312  0.9724 -1.7694  1.3263
  395SOL     OW10813   4.542   3.968   0.457 -0.0829  0.5126 -0.3457
  395SOL    HW110814   4.558   3.896   0.525 -2.2122  0.8052  0.4853
  395SOL    HW210815   4.561   3.931   0.366  2.4511  0.0192  0.3336
  396SOL     OW10816   3.575   3.980   1.878 -0.3086  0.4643  0.1536
  396SOL    HW110817   3.503   4.042   1.907 -0.2266 -0.6315  2.8300
  396SOL    HW210818   3.537   3.909   1.819 -1.1885  0.6154  0.5378
  397SOL     OW10819   3.950   2.888   0.096 -0.2126 -0.1477  0.3660
  397SOL    HW110820   3.885   2.933   0.158  0.5417  2.5717 -0.7526
  397SOL    HW210821   3.988   2.956   0.033  0.5793 -2.4844 -1.7407
  398SOL     OW10822   4.045   0.635   1.097 -0.1716  0.1731  0.4098
  398SOL    HW110823   4.044   0.563   1.166  2.3132 -1.3782 -1.0818
  398SOL    HW210824   3.966   0.695   1.109 -0.4610 -0.8073  3.7751
  399SOL     OW10825   3.091   2.306   1.604 -0.4698  0.5670 -0.0933
  399SOL    HW110826   3.102   2.294   1.702  2.3645  1.2989 -0.2935
  399SOL    HW210827   3.019   2.245   1.571  0.4293 -1.6539  1.9766
  400SOL     OW10828   3.996   2.797   1.396 -0.3012  0.1592  0.1306
  400SOL    HW110829   3.928   2.852   1.445  1.4625  2.3101  0.2290
  400SOL    HW210830   3.992   2.816   1.298 -0.0449  0.0752  0.1011
  401SOL     OW10831   3.835   0.790   1.202  0.2461 -0.0350  0.0342
  401SOL    HW110832   3.908   0.782   1.269 -0.9565 -0.5065  1.3026
  401SOL    HW210833   3.802   0.884   1.198  0.9781  0.2046 -0.6256
  402SOL     OW10834   2.793   2.881   0.100 -0.3065  0.6522  0.4959
  402SOL    HW110835   2.839   2.819   0.163 -1.0947 -1.6365 -1.1325
  402SOL    HW210836   2.700   2.900   0.134 -0.6298 -0.3491  0.1756
  403SOL     OW10837   3.237   6.010   0.954 -0.1562 -0.5177 -0.4799
  403SOL    HW110838   3.276   5.971   0.871  3.1092  0.7148  0.4186
  403SOL    HW210839   3.222   6.108   0.941  1.0378 -0.1844  0.6200
  404SOL     OW10840   3.728   3.940   0.199  0.1484 -0.6806 -0.0011
  404SOL    HW110841   3.726   3.943   0.299  1.5730  0.6927  0.0022
  404SOL    HW210842   3.821   3.922   0.167  0.1334  1.1321 -1.1190
  405SOL     OW10843   3.473  10.043   1.529 -0.3419  0.1674  0.2781
  405SOL    HW110844   3.408   9.972   1.504  0.7693 -0.5013 -0.7832
  405SOL    HW210845   3.431  10.133   1.514 -0.7536 -0.2465 -1.2201
  406SOL     OW10846   4.003   0.729   1.407 -0.4064 -0.1572 -0.0120
  406SOL    HW110847   3.944   0.697   1.481 -0.1510  0.6035  0.5299
  406SOL    HW210848   4.093   0.754   1.444 -0.7783  1.7123 -0.3019
  407SOL     OW10849   3.602   1.896   0.980 -0.1029  0.2611 -0.5489
  407SOL    HW110850   3.559   1.829   1.041  2.8403 -0.5971  0.6590
  407SOL    HW210851   3.564   1.987   0.998 -1.1565 -0.4054  0.6983
  408SOL     OW10852   4.482   1.598   1.765  0.2992  0.0459 -0.3219
  408SOL    HW110853   4.426   1.672   1.803  0.1737 -0.0389 -0.3401
  408SOL    HW210854   4.473   1.517   1.823 -1.7292 -0.8164 -1.7866
  409SOL     OW10855   3.725  10.089   1.410 -0.0651  1.1421 -0.1855
  409SOL    HW110856   3.642  10.052   1.452  0.0154  0.7633 -0.3503
  409SOL    HW210857   3.742  10.182   1.443 -0.9970  1.5170 -0.7660
  410SOL     OW10858   3.060   9.747   0.422 -0.6302 -0.2826 -0.0948
  410SOL    HW110859   2.991   9.675   0.426 -0.9090 -0.0149 -0.0142
  410SOL    HW210860   3.149   9.710   0.449 -0.7736 -0.5919 -0.0468
  411SOL     OW10861   2.981   9.878   1.692 -0.4619 -0.0730 -0.0099
  411SOL    HW110862   2.972   9.913   1.785  0.0876  2.6557 -0.9249
  411SOL    HW210863   3.060   9.817   1.686  0.0751  0.5006  1.0943
  412SOL     OW10864   2.891   1.612   1.240  0.3774  0.2181 -0.0020
  412SOL    HW110865   2.811   1.585   1.293 -1.0920  0.9077 -1.7813
  412SOL    HW210866   2.967   1.632   1.301 -1.5112  1.8110  1.8890
  413SOL     OW10867   3.629   2.129  -0.189  0.0381  0.1259  0.3842
  413SOL    HW110868   3.583   2.118  -0.278 -0.9696 -0.7206  0.9925
  413SOL    HW210869   3.571   2.184  -0.129 -0.2764 -1.1117  1.2284
  414SOL     OW10870   3.671  10.351   0.323  0.0596 -0.0338 -0.1683
  414SOL    HW110871   3.729  10.282   0.279 -1.2371 -0.8125 -0.7004
  414SOL    HW210872   3.692  10.441   0.285  2.3406  0.0006  1.1143
  415SOL     OW10873   4.069   1.249  -0.119  0.0324  0.3145  0.2013
  415SOL    HW110874   4.140   1.190  -0.157 -0.4839  0.2901 -0.7501
  415SOL    HW210875   4.012   1.196  -0.056 -0.7766 -0.3607 -1.0761
  416SOL     OW10876   3.591   1.314   1.457  0.0281 -0.1832 -0.1029
  416SOL    HW110877   3.650   1.339   1.534  0.7650 -2.2114  0.0344
  416SOL    HW210878   3.605   1.217   1.435 -2.7743 -0.5467 -0.4918
  417SOL     OW10879   3.359   3.492   1.884  0.1978 -0.3790 -0.4055
  417SOL    HW110880   3.344   3.579   1.837  0.2867 -0.9246 -1.4538
  417SOL    HW210881   3.299   3.488   1.965  0.9378  1.0767  0.2390
  418SOL     OW10882   3.428   4.251   1.066 -0.0196  0.1621 -0.4011
  418SOL    HW110883   3.438   4.309   0.984  0.2425 -1.6020 -1.6433
  418SOL    HW210884   3.334   4.215   1.069 -0.2994  0.9615  0.5870
  419SOL     OW10885   3.557  10.020   1.830  0.0395  0.0912 -0.0327
  419SOL    HW110886   3.555  10.006   1.731  1.3919 -0.4939  0.0127
  419SOL    HW210887   3.642   9.983   1.867 -1.1538 -1.1404  1.5632
  420SOL     OW10888   3.419   1.365  -0.181 -0.1844  0.5136  0.6157
  420SOL    HW110889   3.466   1.290  -0.227 -0.2869  0.5389  0.4727
  420SOL    HW210890   3.320   1.350  -0.183 -0.2066  0.6674  0.5613
  421SOL     OW10891   3.222   2.971   1.022 -0.0351  0.3755  0.0399
  421SOL    HW110892   3.246   3.030   0.945 -0.3252 -0.2921 -0.5685
  421SOL    HW210893   3.265   2.881   1.010  2.0951  1.0877  1.9904
  422SOL     OW10894   4.633   1.699   1.554 -0.0382  0.4149  0.6060
  422SOL    HW110895   4.600   1.667   1.643 -0.7190  0.4364  0.3644
  422SOL    HW210896   4.680   1.786   1.565  0.0856  0.3003  0.9821
  423SOL     OW10897   3.754   0.972   0.193  0.3336  0.1254  0.5354
  423SOL    HW110898   3.809   0.984   0.276  0.2432  1.1470  0.4534
  423SOL    HW210899   3.670   1.026   0.200  0.7770  0.9849 -0.6182
  424SOL     OW10900   3.491   1.712   1.119  0.0367  0.1430  0.5875
  424SOL    HW110901   3.415   1.649   1.100 -0.3732  0.5429  0.9016
  424SOL    HW210902   3.480   1.751   1.210  0.1589  0.8561  0.3007
  425SOL     OW10903   3.228   9.767   1.721  0.0811  0.0203 -0.2325
  425SOL    HW110904   3.205   9.689   1.779  0.6073  0.2524  0.2882
  425SOL    HW210905   3.326   9.764   1.698  0.0199  0.3096 -0.5395
  426SOL     OW10906   3.021   9.892   1.421 -0.1651 -0.0817  0.5991
  426SOL    HW110907   3.000   9.978   1.374  1.3831  0.6731  1.2523
  426SOL    HW210908   2.986   9.896   1.514 -2.0785 -1.0710 -0.0429
  427SOL     OW10909   3.959   1.679   2.348 -0.2878  0.0788  0.5133
  427SOL    HW110910   3.978   1.582   2.333  0.0552  0.1076  0.7444
  427SOL    HW210911   4.018   1.714   2.421  1.1693  0.9825 -1.0542
  428SOL     OW10912   2.834   1.049   1.600  0.4383  0.3061 -0.1448
  428SOL    HW110913   2.808   1.001   1.684 -0.3479 -0.0609 -0.5983
  428SOL    HW210914   2.928   1.025   1.576  0.8934  0.9101  0.9778
  429SOL     OW10915   2.954   1.581   1.889 -0.5508  0.6718  0.0594
  429SOL    HW110916   2.922   1.487   1.884 -1.5103  1.0734 -1.9163
  429SOL    HW210917   3.017   1.591   1.966 -2.0168 -1.0899  1.5394
  430SOL     OW10918   4.685   3.353   1.123 -0.2966 -0.2213  0.2834
  430SOL    HW110919   4.641   3.268   1.095 -0.9173 -0.4227  1.8065
  430SOL    HW210920   4.777   3.335   1.156 -0.1863 -0.2203 -0.0299
  431SOL     OW10921   3.106   2.606   0.924 -0.1104  0.0628 -0.1668
  431SOL    HW110922   3.199   2.641   0.937  0.0423 -0.2892 -0.3132
  431SOL    HW210923   3.093   2.523   0.978 -0.1247 -0.2691 -0.6804
  432SOL     OW10924   2.525   2.983   2.111  0.0317  0.3606 -0.2687
  432SOL    HW110925   2.456   2.931   2.060 -0.0007 -0.6456  0.7804
  432SOL    HW210926   2.485   3.069   2.142 -0.6148 -0.0139 -0.0519
  433SOL     OW10927   3.175   0.399   1.461  0.0300 -0.1142 -0.0965
  433SOL    HW110928   3.082   0.378   1.491 -0.2676  1.1302 -0.1220
  433SOL    HW210929   3.172   0.450   1.375  0.7635 -0.8148 -0.5366
  434SOL     OW10930   3.350   1.141   1.293 -0.8646  0.0266  0.0018
  434SOL    HW110931   3.411   1.077   1.340 -1.0127 -0.3257 -0.2835
  434SOL    HW210932   3.303   1.199   1.360  0.6276  1.0730  0.1783
  435SOL     OW10933   3.967   1.513  -0.085  0.0707  0.3598 -0.1770
  435SOL    HW110934   3.869   1.528  -0.103 -0.7811 -1.7780  2.3041
  435SOL    HW210935   3.994   1.423  -0.118  0.4658 -0.2212  1.6409
  436SOL     OW10936   4.003   2.493   1.310  0.1827 -0.4190 -0.3626
  436SOL    HW110937   4.093   2.534   1.320  0.1314 -0.6109  0.9732
  436SOL    HW210938   3.935   2.564   1.291  0.4543 -0.1588 -0.3495
  437SOL     OW10939   3.774   2.791   1.850 -0.5563  0.0762  0.1820
  437SOL    HW110940   3.742   2.786   1.756 -0.5586  1.9054  0.0652
  437SOL    HW210941   3.728   2.866   1.897 -0.4715 -0.7385  1.6147
  438SOL     OW10942   3.355   9.947   2.099  0.0562 -0.0312  0.6677
  438SOL    HW110943   3.409   9.863   2.104 -1.6567 -1.1791  0.6066
  438SOL    HW210944   3.362   9.986   2.007  1.7528  0.5156  1.0208
  439SOL     OW10945   5.166   3.555   0.878  0.3486 -0.3444  0.8397
  439SOL    HW110946   5.189   3.534   0.783 -0.5517  0.9887  0.3133
  439SOL    HW210947   5.165   3.655   0.891  0.6400 -0.5147  2.2919
  440SOL     OW10948   3.714   2.854   0.650 -0.0283 -0.3464  0.0435
  440SOL    HW110949   3.751   2.937   0.607 -3.3197  0.4419 -1.5199
  440SOL    HW210950   3.755   2.841   0.739  1.7728  2.0695 -0.3844
  441SOL     OW10951   3.643   1.459   1.163 -0.3483  0.0527 -0.1216
  441SOL    HW110952   3.594   1.547   1.161 -2.2201 -0.9750 -0.7814
  441SOL    HW210953   3.706   1.458   1.241 -2.0507  1.0809  1.3095
  442SOL     OW10954   4.098   1.819   2.073 -0.6296  0.8541  0.3579
  442SOL    HW110955   4.168   1.783   2.135 -1.5354 -0.9311  0.3606
  442SOL    HW210956   4.120   1.914   2.050  2.3874 -0.0064 -0.5132
  443SOL     OW10957   3.537   3.162   1.213 -0.3075  0.7740  0.1509
  443SOL    HW110958   3.544   3.119   1.122  0.6260 -1.2382  1.1297
  443SOL    HW210959   3.496   3.252   1.204 -2.6746 -0.4350 -1.9849
  444SOL     OW10960   2.983   2.953   0.452  0.4724 -0.0378 -0.0216
  444SOL    HW110961   2.978   3.033   0.393 -0.1137  0.0244  0.1130
  444SOL    HW210962   3.017   2.979   0.542 -0.6793  0.2318  0.3379
  445SOL     OW10963   3.464   1.757   0.731  0.2699  0.1853 -0.3749
  445SOL    HW110964   3.533   1.762   0.658 -0.4829  0.7212 -1.0521
  445SOL    HW210965   3.492   1.817   0.806  0.1561  1.0066 -0.9775
  446SOL     OW10966   4.551   3.150   1.297 -0.9569  0.0236 -0.2710
  446SOL    HW110967   4.589   3.113   1.212 -1.5516  1.4652 -1.1841
  446SOL    HW210968   4.606   3.119   1.375  0.3290 -0.3055 -1.2957
  447SOL     OW10969   2.887   1.961   1.967  0.0383 -0.3494 -0.0320
  447SOL    HW110970   2.816   1.914   1.914  0.1298 -0.1913 -0.2971
  447SOL    HW210971   2.946   1.893   2.010 -0.4412 -0.4835  0.4213
  448SOL     OW10972   3.981  10.257   0.979  0.0344  0.3860 -0.2932
  448SOL    HW110973   3.902  10.317   0.968 -0.4086 -0.4927 -2.0217
  448SOL    HW210974   4.043  10.269   0.902  0.1535 -1.0386 -0.4385
  449SOL     OW10975   2.967   2.148   0.206  0.3039  0.0735 -0.2119
  449SOL    HW110976   2.910   2.076   0.166  1.8565 -0.5105 -1.4003
  449SOL    HW210977   2.959   2.146   0.306 -1.5650 -0.1497 -0.3470
  450SOL     OW10978   3.030   1.532   1.605  0.2147 -0.6004  0.1608
  450SOL    HW110979   3.024   1.433   1.610  2.3379 -0.7443  0.4487
  450SOL    HW210980   2.985   1.572   1.685 -1.0662 -1.2970 -0.2008
  451SOL     OW10981   2.946   1.286   1.536 -0.3875  0.3781  0.5448
  451SOL    HW110982   3.041   1.262   1.515 -0.1403  1.5900  0.2571
  451SOL    HW210983   2.892   1.202   1.546  0.5244 -0.2966 -0.1222
  452SOL     OW10984   3.385   0.865   2.004  0.1971 -0.8745  0.2315
  452SOL    HW110985   3.483   0.885   2.007  0.0261 -0.1149  0.6971
  452SOL    HW210986   3.356   0.855   1.908  0.6135 -0.5453  0.0703
  453SOL     OW10987   3.740   3.793   1.129  0.0947  0.1102 -0.1516
  453SOL    HW110988   3.684   3.710   1.121 -1.5085  1.0679  1.0057
  453SOL    HW210989   3.692   3.870   1.087 -0.1366  1.2434  2.1284
  454SOL     OW10990   3.990   4.002   1.852  0.2165  0.3453 -0.0855
  454SOL    HW110991   3.971   3.906   1.831 -0.2560  0.2245  0.8658
  454SOL    HW210992   3.931   4.060   1.797 -1.1688  0.0259  1.0254
  455SOL     OW10993   4.341   2.867   1.189 -0.0412 -0.0381 -0.4116
  455SOL    HW110994   4.310   2.957   1.157 -1.1014  0.1872  1.2120
  455SOL    HW210995   4.384   2.818   1.113 -0.4431  1.4001 -1.5906
  456SOL     OW10996   4.358   1.563   0.395 -0.0567 -0.1289 -0.8622
  456SOL    HW110997   4.306   1.478   0.380  0.5904 -0.4046 -1.6034
  456SOL    HW210998   4.383   1.570   0.491 -0.3629 -0.6443 -0.7411
  457SOL     OW10999   2.973   0.761   1.484 -0.0248 -0.3333  0.3071
  457SOL    HW111000   2.992   0.856   1.459  2.0395 -0.5543  0.9318
  457SOL    HW211001   2.996   0.746   1.580 -0.1056 -1.5159  0.1510
  458SOL     OW11002   3.962   2.185   0.446  0.3102 -0.5908 -0.0399
  458SOL    HW111003   3.961   2.176   0.545  1.6053 -0.9962 -0.0576
  458SOL    HW211004   3.940   2.096   0.404 -1.2624 -0.1792 -0.1186
  459SOL     OW11005   3.317   2.009   0.055  0.4646  0.0541  0.4304
  459SOL    HW111006   3.401   2.012   0.109  1.4696 -0.6252 -1.0301
  459SOL    HW211007   3.325   2.073  -0.022  0.6885 -1.7896 -1.1221
  460SOL     OW11008   3.344   4.435   1.926 -0.4188 -0.2581 -0.2856
  460SOL    HW111009   3.441   4.439   1.903 -0.6342 -0.6903 -1.3367
  460SOL    HW211010   3.290   4.459   1.846 -1.1836 -0.2385  0.2292
  461SOL     OW11011   3.255   3.281   2.237  0.2982 -0.2839 -1.0945
  461SOL    HW111012   3.233   3.184   2.250  0.4808 -0.4090 -1.7179
  461SOL    HW211013   3.182   3.337   2.277 -0.1651 -0.6861 -1.3754
  462SOL     OW11014   4.436   4.326   1.526  0.3466  0.3799  0.4066
  462SOL    HW111015   4.439   4.393   1.600  0.8055 -0.9941  1.6467
  462SOL    HW211016   4.341   4.303   1.506  0.1941  1.2618  0.0881
  463SOL     OW11017   2.980   2.194   0.474  0.1776  0.4334  0.0735
  463SOL    HW111018   3.028   2.145   0.547  1.8563  0.8180 -0.7502
  463SOL    HW211019   2.962   2.288   0.504  2.4426  1.1308 -0.6191
  464SOL     OW11020   2.978   2.210   2.099 -0.2677  0.0524 -0.5726
  464SOL    HW111021   3.054   2.236   2.039 -0.7092  0.8299 -0.8016
  464SOL    HW211022   2.931   2.130   2.061  0.5418 -0.5499 -0.3344
  465SOL     OW11023   3.875   3.027   0.519 -0.0106  0.1869  0.4845
  465SOL    HW111024   3.892   3.068   0.608  0.3502  0.8275  0.1243
  465SOL    HW211025   3.958   3.032   0.463  0.0549 -1.0644  0.4415
  466SOL     OW11026   3.658   2.204   2.035 -0.5211 -0.0445  0.5608
  466SOL    HW111027   3.619   2.293   2.012  0.1595  0.2014  0.3355
  466SOL    HW211028   3.660   2.147   1.953  0.9299  0.4593  0.2280
  467SOL     OW11029   3.415   2.934   1.978 -0.1147  0.3571 -0.3868
  467SOL    HW111030   3.383   2.868   2.046  1.7733  1.8636  2.0398
  467SOL    HW211031   3.357   3.016   1.980 -0.3495  0.2100 -0.9539
  468SOL     OW11032   3.057   3.575   0.880  0.4786 -0.0929 -0.2022
  468SOL    HW111033   3.047   3.495   0.821 -0.2801 -0.0391 -0.1535
  468SOL    HW211034   3.064   3.657   0.823  0.6939 -0.1352 -0.2379
  469SOL     OW11035   4.182   2.326   1.185 -0.1022  0.5702  0.5042
  469SOL    HW111036   4.105   2.359   1.240 -0.0785 -0.5761  1.2356
  469SOL    HW211037   4.169   2.353   1.090 -1.0689  0.9725  0.7454
  470SOL     OW11038   4.435   4.474   2.338  0.1581  0.2480  0.1716
  470SOL    HW111039   4.386   4.398   2.296 -0.4074  0.6781  0.0488
  470SOL    HW211040   4.395   4.496   2.427  0.4320  0.2887  0.2874
  471SOL     OW11041   4.583   3.987   1.450  0.1143  0.5758 -0.0175
  471SOL    HW111042   4.484   3.996   1.460  0.0939  0.1659  0.1663
  471SOL    HW211043   4.616   4.054   1.384 -0.2735  0.7740 -0.0127
  472SOL     OW11044   3.113   2.434   0.695 -0.1143  0.0357 -0.9094
  472SOL    HW111045   3.121   2.519   0.746 -0.7390 -0.1245 -0.5412
  472SOL    HW211046   3.053   2.448   0.616  0.6891  0.2301 -1.4904
  473SOL     OW11047   3.504   1.265   1.080  0.1566 -0.2486  0.0155
  473SOL    HW111048   3.461   1.234   1.165  0.4685 -1.6895 -0.3417
  473SOL    HW211049   3.549   1.353   1.096  0.4224 -0.6180  1.4070
  474SOL     OW11050   4.891   3.716   1.066 -0.0364  0.5099  0.6308
  474SOL    HW111051   4.880   3.784   1.139 -0.8284 -0.7305  1.6827
  474SOL    HW211052   4.802   3.696   1.027  0.2938  0.6072 -0.1691
  475SOL     OW11053   3.360   1.513   2.254  0.0520 -1.0653 -0.2011
  475SOL    HW111054   3.408   1.533   2.169  0.2399 -0.1115  0.1261
  475SOL    HW211055   3.426   1.502   2.328 -0.2499  0.9602  0.3943
  476SOL     OW11056   3.222   2.262   0.174  0.3585  0.2746 -0.2206
  476SOL    HW111057   3.140   2.210   0.200  1.0725 -1.0837 -0.6607
  476SOL    HW211058   3.285   2.202   0.125  1.3292  1.4915 -0.4644
  477SOL     OW11059   3.844   3.161   0.983  0.1935  0.2205  0.3455
  477SOL    HW111060   3.804   3.248   0.955  2.0222  0.8433 -0.4428
  477SOL    HW211061   3.866   3.163   1.080  1.1604  1.0279  0.1153
  478SOL     OW11062   3.239   2.302   1.991  0.3900 -0.0644 -0.0759
  478SOL    HW111063   3.319   2.347   2.031  0.3101  0.6866 -0.7432
  478SOL    HW211064   3.269   2.223   1.936  0.6489  0.0448 -0.0909
  479SOL     OW11065   4.277   2.033   2.007  0.4586  0.3365  0.1672
  479SOL    HW111066   4.271   2.051   2.105 -0.1902 -0.8494  0.3574
  479SOL    HW211067   4.344   2.094   1.965  2.0478 -0.3508  1.6669
  480SOL     OW11068   4.835   3.916   1.567 -0.2317  0.1827 -0.1091
  480SOL    HW111069   4.745   3.918   1.522  0.1438  1.0635 -0.8358
  480SOL    HW211070   4.835   3.983   1.642 -0.4490 -0.3997  0.4116
  481SOL     OW11071   3.360   2.729   0.989 -0.4287 -0.1944  0.3298
  481SOL    HW111072   3.420   2.747   1.067 -0.0965 -0.1520  0.0650
  481SOL    HW211073   3.409   2.747   0.904 -1.0275  0.5049  0.1209
  482SOL     OW11074   3.245   3.749   1.759 -0.3283 -0.2473 -0.0971
  482SOL    HW111075   3.163   3.803   1.744 -1.2592 -1.5874  0.0627
  482SOL    HW211076   3.281   3.719   1.670  0.6911  1.3468 -0.2351
  483SOL     OW11077   3.481   2.820   0.284 -0.0335 -0.7479 -0.2525
  483SOL    HW111078   3.481   2.733   0.332 -0.8195 -0.3332  0.5013
  483SOL    HW211079   3.413   2.881   0.324  0.5160  0.2190 -0.7652
  484SOL     OW11080   3.393   3.327  -0.192 -0.1458  0.0066 -0.1249
  484SOL    HW111081   3.468   3.391  -0.177 -0.3524 -0.4103  3.1070
  484SOL    HW211082   3.425   3.250  -0.246  1.6618  0.0385  0.8680
  485SOL     OW11083   2.969   0.888   0.941 -0.2153  0.2642  0.3420
  485SOL    HW111084   3.065   0.890   0.913 -0.5057  1.4294 -0.5859
  485SOL    HW211085   2.960   0.920   1.035  0.0860  2.0014 -0.2142
  486SOL     OW11086   3.163   9.991   1.881  0.4520  0.2529  0.2801
  486SOL    HW111087   3.192   9.911   1.828 -1.9251 -0.1239 -0.5384
  486SOL    HW211088   3.224  10.067   1.862  0.9927 -0.5292 -1.2640
  487SOL     OW11089   3.616   4.014   1.021  0.0958 -0.1848 -0.6171
  487SOL    HW111090   3.562   4.074   1.081  1.9830 -0.6071  1.5804
  487SOL    HW211091   3.658   4.068   0.949  0.2054  0.8544  0.2079
  488SOL     OW11092   4.186   0.735   0.910 -0.1083  1.0795  0.2914
  488SOL    HW111093   4.117   0.684   0.960  1.6727 -2.7939 -1.0343
  488SOL    HW211094   4.262   0.758   0.971 -0.8397  2.1169  0.8438
  489SOL     OW11095   3.320   1.166   0.055  0.3615 -0.2202 -0.3575
  489SOL    HW111096   3.264   1.223   0.115  0.4025 -2.4157  1.8285
  489SOL    HW211097   3.283   1.169  -0.038 -0.4593  2.2162  0.0060
  490SOL     OW11098   3.635   0.630   0.724 -0.5428 -0.0096 -0.1248
  490SOL    HW111099   3.629   0.569   0.645 -0.0122  0.2298 -0.3490
  490SOL    HW211100   3.681   0.583   0.799 -0.0275  0.1558 -0.3370
  491SOL     OW11101   3.004   1.257   2.107  0.3912 -0.0494  0.0020
  491SOL    HW111102   3.020   1.262   2.009 -1.1797  0.2952 -0.2367
  491SOL    HW211103   3.001   1.349   2.145  0.7729 -0.1753  0.3499
  492SOL     OW11104   3.282   4.460   0.626  0.2683  0.2343  0.2155
  492SOL    HW111105   3.194   4.475   0.670  0.6192 -2.1884  1.8621
  492SOL    HW211106   3.267   4.437   0.530 -0.7654  1.5801  0.0447
  493SOL     OW11107   3.225   4.535   1.692 -0.5068 -0.2125  0.3783
  493SOL    HW111108   3.281   4.545   1.609 -0.3965 -0.2710  0.4457
  493SOL    HW211109   3.188   4.443   1.697  2.7048 -1.4880  2.3986
  494SOL     OW11110   3.930   2.082   0.705 -0.0659  0.2273 -0.5636
  494SOL    HW111111   3.903   2.147   0.776  0.2808  0.9490 -1.0808
  494SOL    HW211112   3.861   2.011   0.697 -0.2268  0.2752  0.3263
  495SOL     OW11113   3.350   5.893   0.739  0.1602 -0.0979 -0.6265
  495SOL    HW111114   3.441   5.877   0.775  0.8829  0.6940 -2.0495
  495SOL    HW211115   3.293   5.812   0.753  1.4185 -1.0062 -0.7251
  496SOL     OW11116   3.757   9.605   1.368  0.0957  0.5979  0.3759
  496SOL    HW111117   3.694   9.673   1.330 -0.0737 -1.2005 -2.6817
  496SOL    HW211118   3.851   9.634   1.352  0.0322 -0.3973 -1.9899
  10.00000  10.00000   2.87400
