chitosan Film  in water:acetic acid 2%
24181
    1CHTO  H203    1   5.974   7.209   2.354 -0.9816 -0.0248 -1.1145
    1CHTO   O82    2   6.013   7.126   2.335  0.1904  0.1626  0.3675
    1CHTO  C123    3   6.134   7.112   2.404  0.2489  0.0433 -0.2198
    1CHTO  H227    4   6.132   7.180   2.491  1.2417  2.2629 -1.8874
    1CHTO   O77    5   6.121   6.969   2.436  0.5607 -0.4791 -0.0089
    1CHTO  C118    6   6.233   6.913   2.506 -0.3570  0.6091  0.0369
    1CHTO  H222    7   6.246   6.970   2.599  0.8023  0.1682  0.1448
    1CHTO  C125    8   6.200   6.769   2.545  0.4033 -0.1990  0.2794
    1CHTO   O84    9   6.159   6.695   2.429 -0.4135  0.6973  0.2729
    1CHTO  H205   10   6.173   6.741   2.349 -0.2334  1.9179  1.0083
    1CHTO  C114   11   6.363   6.934   2.420  0.1591  0.3820 -0.3880
    1CHTO  H218   12   6.348   6.878   2.328  2.1906  1.0471 -1.1339
    1CHTO  C116   13   6.385   7.081   2.374 -0.5159 -0.4341  0.8652
    1CHTO  H220   14   6.426   7.147   2.453 -0.6971  0.2103  0.4270
    1CHTO   O79   15   6.489   7.076   2.275  0.7770  0.1256 -0.8407
    1CHTO  H201   16   6.449   7.070   2.191 -0.5796  1.1860 -0.2860
    1CHTO  C120   17   6.254   7.136   2.309 -0.1046  0.7071  0.2011
    1CHTO  H224   18   6.246   7.082   2.212  0.1402 -1.2066  1.2242
    1CHTO   N21   19   6.257   7.277   2.271 -0.3126 -0.3125  0.6941
    1CHTO  H211   20   6.354   7.308   2.233 -0.8100 -1.3096 -1.4397
    1CHTO  H212   21   6.183   7.295   2.195 -1.2609 -0.4996  1.5717
    1CHTO   O75   22   6.475   6.878   2.492  0.0396 -0.0293 -0.3479
    1CHTO  C112   23   6.525   6.721   2.427  0.0717 -0.4968  0.5134
    1CHTO  H216   24   6.494   6.708   2.323  0.0299  1.5389  0.2573
    1CHTO   O73   25   6.477   6.616   2.511 -0.3265  0.7706  0.0904
    1CHTO  C113   26   6.515   6.481   2.486  0.4117 -0.1125 -0.2687
    1CHTO  H217   27   6.484   6.461   2.382  0.1552  1.1214 -0.4299
    1CHTO  C124   28   6.430   6.390   2.578 -0.1860  0.0449 -0.0416
    1CHTO   O83   29   6.288   6.395   2.529  0.4540  0.5468  0.4875
    1CHTO  H204   30   6.260   6.485   2.520  2.3400  1.0616 -0.4404
    1CHTO  C109   31   6.667   6.462   2.503  0.1774  0.0979  0.8657
    1CHTO  H213   32   6.698   6.501   2.601 -0.4045 -0.4716  1.2808
    1CHTO  C110   33   6.735   6.562   2.400 -0.3135 -0.2458  0.0318
    1CHTO  H214   34   6.706   6.522   2.303 -0.7417 -2.7439  1.1508
    1CHTO   O78   35   6.876   6.554   2.418 -0.2541 -0.0788  0.0203
    1CHTO  H200   36   6.930   6.577   2.344  1.0377 -0.2745  0.8849
    1CHTO  C111   37   6.683   6.704   2.432 -0.6439  0.1558 -0.6404
    1CHTO  H215   38   6.720   6.733   2.531 -0.6477  3.1103 -1.4580
    1CHTO   N19   39   6.740   6.806   2.336 -0.1823  0.4104  0.4438
    1CHTO  H207   40   6.685   6.829   2.245 -0.5819 -1.8870  0.0710
    1CHTO  H208   41   6.844   6.787   2.313  0.0329  0.4034  1.4271
    1CHTO   O74   42   6.717   6.326   2.481  0.2477 -0.1710  0.1402
    1CHTO  C115   43   6.812   6.278   2.577 -0.5350  0.3423 -0.0639
    1CHTO  H219   44   6.838   6.355   2.649  1.6280 -1.4049  1.1070
    1CHTO   O76   45   6.752   6.165   2.667 -0.4426  0.2535  0.3597
    1CHTO  C122   46   6.686   6.068   2.587 -0.4749 -1.4322  0.5915
    1CHTO  H226   47   6.608   6.117   2.530  2.2367 -1.1714 -3.0596
    1CHTO  C126   48   6.627   5.965   2.680 -0.4515 -0.6300 -0.1271
    1CHTO   O85   49   6.540   5.878   2.610 -0.3388 -0.1235  0.0045
    1CHTO  H206   50   6.478   5.937   2.570  0.3234 -0.1450 -1.0768
    1CHTO  C121   51   6.788   6.005   2.481 -0.3279 -0.0436  0.2241
    1CHTO  H225   52   6.798   5.897   2.505 -1.4947 -0.1776  0.1514
    1CHTO   O81   53   6.715   6.029   2.360 -0.2922 -0.4572  0.2756
    1CHTO  H202   54   6.656   5.958   2.341  0.7364 -1.4659  0.8222
    1CHTO  C119   55   6.931   6.070   2.481  0.2337  0.3627 -0.2927
    1CHTO  H223   56   6.984   6.018   2.560 -0.4535 -0.9029 -0.6580
    1CHTO  C117   57   6.938   6.225   2.505  0.2048 -0.4554 -0.4069
    1CHTO  H221   58   6.942   6.284   2.414 -0.3316  0.3724  0.1027
    1CHTO   N20   59   7.072   6.268   2.573 -0.2462  0.3239 -0.5436
    1CHTO  H209   60   7.071   6.208   2.663  0.2390 -1.5217 -1.7448
    1CHTO  H210   61   7.061   6.373   2.597 -0.3756  0.3299 -0.6316
    1CHTO   O80   62   7.024   6.030   2.353  0.0865  0.1656 -0.4231
    1CHTO  C103   63   7.054   5.884   2.320 -0.4711 -0.4267  0.3435
    1CHTO  H190   64   7.016   5.818   2.398 -0.0209 -0.3526  0.6261
    1CHTO  C101   65   7.017   5.844   2.171 -0.8691 -0.7768 -0.2604
    1CHTO  H188   66   7.048   5.922   2.102 -0.3398 -1.0408 -0.3183
    1CHTO   O68   67   6.853   5.842   2.161 -0.6965 -0.1885 -0.2652
    1CHTO  H168   68   6.832   5.769   2.106  0.6158 -0.4815 -0.3929
    1CHTO   C99   69   7.086   5.704   2.143  0.1950 -0.2830 -0.3221
    1CHTO  H186   70   7.049   5.632   2.219 -0.9384  1.2906  0.6309
    1CHTO   N17   71   7.041   5.651   2.010 -0.3501 -0.4373 -0.5673
    1CHTO  H174   72   6.949   5.686   1.967  0.8130  1.2015 -1.7782
    1CHTO  H175   73   7.035   5.544   2.023  0.5792 -0.4059  0.1929
    1CHTO   C97   74   7.241   5.716   2.156  0.3998 -0.5357  0.3211
    1CHTO  H184   75   7.278   5.795   2.089  1.2689 -1.9153 -0.8286
    1CHTO   O64   76   7.260   5.752   2.292  0.4691 -0.2677 -0.0204
    1CHTO  C104   77   7.207   5.880   2.331 -0.3413  0.0424  0.7198
    1CHTO  H191   78   7.257   5.950   2.264  2.9587 -1.0495  1.9513
    1CHTO  C108   79   7.258   5.905   2.471 -0.1407  0.9024  0.6177
    1CHTO   O71   80   7.394   5.873   2.495 -0.6038 -0.0275  0.6257
    1CHTO  H171   81   7.440   5.954   2.492  1.3054 -1.0550  1.1751
    1CHTO   O62   82   7.307   5.593   2.133 -0.5747 -0.6779 -0.2948
    1CHTO   C91   83   7.431   5.599   2.075  0.2106 -0.3398  0.0789
    1CHTO  H178   84   7.449   5.705   2.057 -1.4787 -0.2557 -1.1788
    1CHTO   C92   85   7.433   5.521   1.947 -0.6730 -0.4578  1.0627
    1CHTO  H179   86   7.335   5.522   1.897 -1.7505  0.4801  3.1113
    1CHTO   O66   87   7.515   5.595   1.856  0.0963  0.0249 -0.3420
    1CHTO  H166   88   7.468   5.615   1.778 -0.5266  1.6360  0.4327
    1CHTO   C93   89   7.496   5.377   1.950 -0.4737 -0.5287 -0.1041
    1CHTO  H180   90   7.505   5.352   1.844  0.7318  0.9735 -0.3594
    1CHTO   N16   91   7.411   5.281   2.015  0.6722  0.3860  0.3538
    1CHTO  H172   92   7.308   5.305   1.992  0.4650 -1.5096 -0.8347
    1CHTO  H173   93   7.414   5.264   2.122 -0.2343 -1.1408  0.1603
    1CHTO   C94   94   7.636   5.388   2.020 -1.3664  0.1444  0.0234
    1CHTO  H181   95   7.658   5.306   2.088 -2.1047 -1.3079 -1.4639
    1CHTO   O61   96   7.664   5.506   2.094 -0.0800 -0.0735  0.2401
    1CHTO   C95   97   7.550   5.553   2.162  0.7843  0.3552 -0.3244
    1CHTO  H182   98   7.520   5.483   2.240  0.9772  0.4491 -0.1653
    1CHTO  C106   99   7.596   5.663   2.257  0.0182 -0.0927 -0.2109
    1CHTO   O69  100   7.680   5.624   2.365  0.6766 -0.3174 -0.6276
    1CHTO  H169  101   7.766   5.602   2.334  1.8906  1.4453  1.3477
    1CHTO   O63  102   7.736   5.386   1.917  0.4394 -0.2615 -0.2275
    1CHTO   C96  103   7.860   5.294   1.953  0.3883 -0.0905 -0.6368
    1CHTO  H183  104   7.856   5.274   2.060 -2.2147 -1.5366 -0.9747
    1CHTO   C98  105   7.997   5.370   1.932 -0.1384 -0.6517 -0.3046
    1CHTO  H185  106   7.993   5.477   1.960  1.1265 -1.0053  1.3048
    1CHTO   O67  107   8.092   5.311   2.021 -0.2313  0.2494  0.3557
    1CHTO  H167  108   8.166   5.368   2.026 -0.1325  0.2425 -0.8334
    1CHTO  C102  109   8.047   5.371   1.778 -0.4428 -0.5816  0.2745
    1CHTO  H189  110   8.147   5.417   1.779  0.9059 -3.2967 -2.4341
    1CHTO   N18  111   7.971   5.460   1.681  0.4957  0.5129  0.3505
    1CHTO  H176  112   7.879   5.496   1.724 -0.1931 -0.4914 -0.2667
    1CHTO  H177  113   7.960   5.407   1.588 -0.2952 -1.9310  1.7820
    1CHTO  C105  114   8.061   5.224   1.736 -0.3847  0.4632  0.1232
    1CHTO  H192  115   8.028   5.217   1.632 -1.8479 -1.4293  0.6873
    1CHTO   O65  116   7.991   5.129   1.830 -0.4538  0.8751  0.2490
    1CHTO  C100  117   7.861   5.163   1.867  0.3691  0.5823  0.4062
    1CHTO  H187  118   7.796   5.173   1.778  2.3080  1.4275 -0.9563
    1CHTO  C107  119   7.793   5.045   1.939  0.6130 -0.5736 -0.1048
    1CHTO   O70  120   7.785   4.926   1.863  0.4119  0.4837  0.0670
    1CHTO  H170  121   7.697   4.893   1.864  0.6818 -0.4548 -3.1787
    1CHTO   O57  122   8.229   5.200   1.736  0.3111  0.1375  0.4045
    1CHTO   C85  123   8.289   5.090   1.668  0.5011 -0.2995 -0.2095
    1CHTO  H157  124   8.226   5.073   1.578 -0.4353  2.1018 -0.0400
    1CHTO   C83  125   8.273   4.956   1.750  0.2667 -0.5033 -0.2791
    1CHTO  H155  126   8.168   4.944   1.779  0.0906  1.4051 -0.1070
    1CHTO   O56  127   8.349   4.967   1.875 -0.0974  0.4534 -0.1858
    1CHTO  H135  128   8.346   5.043   1.929 -0.4170  0.0223  0.4088
    1CHTO   C81  129   8.318   4.829   1.667 -0.5339 -0.0474 -0.0156
    1CHTO  H153  130   8.261   4.824   1.574 -1.9399 -1.6673  0.9091
    1CHTO   N14  131   8.285   4.703   1.740 -0.4853  0.1412  0.0744
    1CHTO  H141  132   8.353   4.683   1.820 -1.3514 -0.7523  0.6122
    1CHTO  H142  133   8.188   4.707   1.786 -0.4784 -2.9594  0.4472
    1CHTO   C79  134   8.463   4.844   1.626  0.0050 -0.5469  0.1336
    1CHTO  H151  135   8.483   4.766   1.553 -1.6832 -1.1482  0.3000
    1CHTO   O52  136   8.483   4.972   1.566 -0.1686  0.2677  0.2220
    1CHTO   C86  137   8.442   5.101   1.637  0.4994 -0.2892 -0.1988
    1CHTO  H158  138   8.503   5.112   1.729  0.1637 -0.9859  0.1137
    1CHTO   C90  139   8.472   5.226   1.547  0.5997  0.3126  0.0350
    1CHTO   O60  140   8.461   5.339   1.628  0.0246  0.2236 -0.1163
    1CHTO  H138  141   8.512   5.408   1.591 -1.6871  0.6907 -1.6217
    1CHTO   O50  142   8.554   4.829   1.736 -0.1385  0.2432  0.5634
    1CHTO   C73  143   8.674   4.769   1.793 -0.5082 -0.2898  0.3749
    1CHTO  H145  144   8.734   4.726   1.711 -1.2498 -1.1790  0.2813
    1CHTO   C74  145   8.639   4.652   1.897 -0.1702 -0.0995 -0.1307
    1CHTO  H146  146   8.571   4.590   1.837 -1.0891 -0.7977  1.5834
    1CHTO   O54  147   8.761   4.583   1.929  0.4078 -0.3885  0.2059
    1CHTO  H133  148   8.829   4.645   1.944  1.3700 -1.1110 -1.0623
    1CHTO   C75  149   8.559   4.706   2.026  0.1089 -0.6561  0.1623
    1CHTO  H147  150   8.461   4.742   1.994 -0.2037 -1.5693  0.0846
    1CHTO   N13  151   8.529   4.605   2.128 -0.2222  0.1199  0.2915
    1CHTO  H139  152   8.597   4.523   2.143 -1.2522 -0.8346 -0.1552
    1CHTO  H140  153   8.483   4.644   2.218 -4.4580 -3.1920 -0.2937
    1CHTO   C76  154   8.630   4.844   2.088 -0.2104  0.2834  0.1866
    1CHTO  H148  155   8.713   4.823   2.155  0.5253  2.5572  0.0343
    1CHTO   O49  156   8.680   4.931   1.977  0.2976  0.3595 -0.1849
    1CHTO   C77  157   8.759   4.874   1.872  0.8528 -0.0562 -0.5530
    1CHTO  H149  158   8.847   4.829   1.918 -1.6512 -2.6584  1.9509
    1CHTO   C88  159   8.804   4.992   1.790  0.0224 -0.7308  0.2887
    1CHTO   O58  160   8.896   4.944   1.673  0.5244  0.4081 -1.2729
    1CHTO  H136  161   8.854   4.963   1.591 -1.9010  2.6053  0.3689
    1CHTO   O51  162   8.511   4.930   2.153 -0.4130 -0.4642 -0.0337
    1CHTO   C78  163   8.556   5.008   2.267 -0.1823 -0.4795 -1.1379
    1CHTO  H150  164   8.661   5.041   2.256  0.6411 -2.6143  0.0495
    1CHTO   C80  165   8.530   4.943   2.403 -0.6369  0.3483 -1.0099
    1CHTO  H152  166   8.422   4.918   2.403 -0.7992  1.0081 -0.0413
    1CHTO   O55  167   8.602   4.820   2.416  0.0622 -0.0838  0.6078
    1CHTO  H134  168   8.656   4.813   2.493  1.1891 -1.7438 -0.2927
    1CHTO   C84  169   8.564   5.044   2.521 -0.3200  0.3679 -1.0039
    1CHTO  H156  170   8.671   5.067   2.523 -0.0545 -0.6071 -2.5482
    1CHTO   N15  171   8.528   4.992   2.653 -0.0953  0.5781  0.3167
    1CHTO  H143  172   8.446   5.049   2.692 -0.7238 -0.5868  0.7271
    1CHTO  H144  173   8.606   4.999   2.726 -1.0210 -2.2140  1.6471
    1CHTO   C87  174   8.488   5.176   2.483 -0.1884 -0.4184  0.2920
    1CHTO  H159  175   8.383   5.145   2.482 -0.6301  0.9355  1.7881
    1CHTO   O53  176   8.531   5.226   2.345 -0.2188 -0.0849  0.3654
    1CHTO   C82  177   8.484   5.144   2.245  0.0670  0.7380 -0.0892
    1CHTO  H154  178   8.375   5.135   2.247  0.2689 -1.9553  0.5223
    1CHTO   C89  179   8.526   5.218   2.114  0.2024  0.0746 -0.2130
    1CHTO   O59  180   8.429   5.209   2.010  0.0440  0.6378  0.1833
    1CHTO  H137  181   8.421   5.120   1.982 -1.8305  0.4003  1.3529
    1CHTO   O45  182   8.527   5.295   2.608  0.2199  0.0099  0.4508
    1CHTO   C67  183   8.414   5.385   2.624 -0.3122  0.0606 -0.7022
    1CHTO  H124  184   8.410   5.437   2.528  1.4993 -0.7226 -1.2199
    1CHTO   C65  185   8.272   5.323   2.661 -0.0331  0.2791  0.7543
    1CHTO  H122  186   8.292   5.223   2.699 -1.9220 -0.3517  0.1504
    1CHTO   O44  187   8.198   5.304   2.541 -0.1117  0.9910  0.4960
    1CHTO  H102  188   8.197   5.214   2.514 -0.4835  0.9432  0.6596
    1CHTO   C63  189   8.197   5.405   2.778  0.3461  0.0199 -0.3990
    1CHTO  H120  190   8.244   5.383   2.874  1.6015 -3.2569 -1.7004
    1CHTO   N11  191   8.063   5.358   2.816  0.0634 -0.5392 -0.0930
    1CHTO  H108  192   7.999   5.359   2.730  0.4009 -0.2829 -0.3400
    1CHTO  H109  193   8.010   5.405   2.896  0.2141  0.5189 -0.6095
    1CHTO   C61  194   8.210   5.550   2.746 -0.4685  0.6582  0.4222
    1CHTO  H118  195   8.156   5.600   2.828 -0.8892 -0.4447  0.8164
    1CHTO   O40  196   8.349   5.598   2.752 -0.5230 -0.7484  0.0044
    1CHTO   C68  197   8.452   5.499   2.735 -1.0791  0.1457  0.9643
    1CHTO  H125  198   8.479   5.470   2.839  0.0630 -0.7735  0.4207
    1CHTO   C72  199   8.575   5.578   2.684  0.1449 -0.4340 -0.0721
    1CHTO   O48  200   8.641   5.674   2.769  0.4141 -0.2590  0.2694
    1CHTO  H105  201   8.707   5.628   2.818  0.5211  1.5604  1.8784
    1CHTO   O38  202   8.158   5.591   2.621  0.0820  0.3964  1.0668
    1CHTO   C55  203   8.114   5.732   2.614  0.5893  0.2051 -0.7050
    1CHTO  H112  204   8.153   5.795   2.695 -2.4639  1.5733 -0.2306
    1CHTO   C56  205   7.955   5.744   2.602  0.5638 -0.3520 -0.0105
    1CHTO  H113  206   7.922   5.697   2.508 -0.9833 -1.0124  0.8430
    1CHTO   O42  207   7.882   5.663   2.698  0.3925  0.5739 -0.4489
    1CHTO  H100  208   7.890   5.571   2.683 -1.2941  0.4558 -0.7465
    1CHTO   C57  209   7.896   5.896   2.603  0.6079 -0.3384  0.5249
    1CHTO  H114  210   7.887   5.938   2.703  0.0824  1.2552 -0.1882
    1CHTO   N10  211   7.762   5.905   2.551  0.5594  0.5856  0.0982
    1CHTO  H106  212   7.731   5.990   2.493  0.1749  0.0084 -0.5502
    1CHTO  H107  213   7.731   5.812   2.504 -0.0873  0.3661  0.9374
    1CHTO   C58  214   7.988   5.985   2.516 -0.1699  0.4351  0.4849
    1CHTO  H115  215   7.951   6.006   2.414  1.0495  0.6315  0.0770
    1CHTO   O37  216   8.126   5.944   2.504 -0.0652  0.6253 -0.1105
    1CHTO   C59  217   8.165   5.808   2.489  0.1065  0.1427  0.8922
    1CHTO  H116  218   8.121   5.766   2.398  1.2291  0.8097  0.0313
    1CHTO   C70  219   8.320   5.789   2.468  0.6857  0.6435  0.1389
    1CHTO   O46  220   8.402   5.874   2.548  0.6869  0.1371  0.5998
    1CHTO  H103  221   8.366   5.959   2.565 -0.5293  0.4329 -3.0459
    1CHTO   O39  222   8.001   6.126   2.584  0.0148  0.3650 -0.2988
    1CHTO   C60  223   7.961   6.243   2.512  0.4593  0.2248  0.3659
    1CHTO  H117  224   7.931   6.208   2.413 -0.9737  1.5397  0.3149
    1CHTO   C62  225   7.840   6.316   2.586  0.0328 -0.6032 -0.6639
    1CHTO  H119  226   7.755   6.245   2.593 -0.5438  0.0533 -0.8448
    1CHTO   O43  227   7.872   6.363   2.718 -0.1503  0.0826 -0.2088
    1CHTO  H101  228   7.946   6.418   2.737  1.1312 -1.4759 -0.6297
    1CHTO   C66  229   7.778   6.440   2.498 -0.1768  0.6135  0.6239
    1CHTO  H123  230   7.754   6.405   2.397  0.5692  0.0477  0.6360
    1CHTO   N12  231   7.645   6.486   2.554  0.4119  0.2016 -0.3082
    1CHTO  H110  232   7.602   6.406   2.613 -0.3089  1.5947  1.0869
    1CHTO  H111  233   7.635   6.572   2.618  0.4665  0.0421 -0.0825
    1CHTO   C69  234   7.890   6.547   2.482 -0.4458  0.4343  0.2649
    1CHTO  H126  235   7.920   6.589   2.580  0.7816 -1.0351  0.5354
    1CHTO   O41  236   8.032   6.471   2.408  0.2036  0.0800 -0.2131
    1CHTO   C64  237   8.084   6.343   2.493 -0.1809  0.0241 -0.6457
    1CHTO  H121  238   8.124   6.373   2.592  0.9901 -0.7739 -0.8736
    1CHTO   C71  239   8.204   6.268   2.422  0.1705  0.2102 -0.2629
    1CHTO   O47  240   8.326   6.341   2.426  0.1291  0.5338 -0.1926
    1CHTO  H104  241   8.339   6.390   2.346  1.2583 -1.3279 -1.1638
    1CHTO   O34  242   7.835   6.656   2.381  0.2975 -0.2195 -0.2449
    1CHTO   C49  243   7.777   6.796   2.335  0.2309  0.2049  0.5003
    1CHTO   H91  244   7.772   6.800   2.226  1.1356  1.8429  0.5058
    1CHTO   C47  245   7.876   6.907   2.378  0.3384  0.0993  0.0440
    1CHTO   H89  246   7.828   7.001   2.342  1.8390  1.1779  0.8174
    1CHTO   O33  247   8.001   6.894   2.308  0.2097  0.1444 -0.1484
    1CHTO   H70  248   8.062   6.846   2.361  0.2442 -0.0774 -0.3920
    1CHTO   C45  249   7.879   6.915   2.537  0.0653  0.0185  0.5584
    1CHTO   H87  250   7.911   6.818   2.577 -0.9972 -0.9005 -0.7580
    1CHTO    N8  251   7.971   7.017   2.581 -0.3770  0.6195  0.2987
    1CHTO   H75  252   7.981   7.017   2.688 -1.3121 -0.3152  0.3974
    1CHTO   H76  253   8.067   7.014   2.531 -0.9930  1.1176 -0.9461
    1CHTO   C43  254   7.728   6.936   2.596  0.9867 -0.8064  0.6591
    1CHTO   H85  255   7.730   6.932   2.705 -1.8647  0.0509  0.7824
    1CHTO   O29  256   7.636   6.842   2.540  0.0546  0.4166  0.3063
    1CHTO   C50  257   7.636   6.820   2.398 -0.0909 -0.2690  0.4286
    1CHTO   H92  258   7.579   6.726   2.388  0.4670 -0.9421  3.2212
    1CHTO   C54  259   7.539   6.920   2.321 -0.3732 -0.5824 -0.3289
    1CHTO   O36  260   7.436   6.869   2.239  0.2988 -0.1310 -0.1335
    1CHTO   H72  261   7.354   6.904   2.269 -1.0279 -3.4429  0.2740
    1CHTO   O27  262   7.686   7.078   2.581 -0.5000 -0.0633  0.5159
    1CHTO   C37  263   7.600   7.179   2.640  0.6673  0.7596  0.5808
    1CHTO   H79  264   7.499   7.143   2.619  1.2487  1.1299 -3.2683
    1CHTO   C38  265   7.628   7.194   2.789  0.0991 -0.1626 -0.1148
    1CHTO   H80  266   7.737   7.192   2.808 -0.2949  1.9654  2.7529
    1CHTO   O31  267   7.563   7.086   2.864 -0.1418  0.1159  0.0252
    1CHTO   H68  268   7.588   7.089   2.954  1.0945 -0.8070 -0.2868
    1CHTO   C39  269   7.587   7.332   2.855  0.1771 -0.0930  0.2199
    1CHTO   H81  270   7.478   7.332   2.863  0.1620  1.0065 -0.0268
    1CHTO    N7  271   7.639   7.359   2.997 -0.2042 -0.1695  0.8615
    1CHTO   H73  272   7.613   7.461   3.021 -0.4018 -0.3894  1.5683
    1CHTO   H74  273   7.577   7.299   3.060  0.8608 -1.4211  0.7495
    1CHTO   C40  274   7.621   7.448   2.752  0.0278  0.1874  0.2766
    1CHTO   H82  275   7.729   7.462   2.741  0.1706 -0.7420  0.4827
    1CHTO   O26  276   7.561   7.417   2.626  0.1623  0.3611  0.3620
    1CHTO   C41  277   7.623   7.309   2.553 -0.3547  0.5334 -0.2892
    1CHTO   H83  278   7.726   7.344   2.537 -0.2043  0.1304 -0.2077
    1CHTO   C52  279   7.557   7.304   2.421  0.5936  0.3710 -0.2559
    1CHTO   O35  280   7.616   7.410   2.333  0.2099 -0.0474  0.0534
    1CHTO   H71  281   7.636   7.487   2.382 -2.4627 -0.3524  1.7024
    1CHTO   O28  282   7.552   7.573   2.789 -0.0464  0.4376  0.3364
    1CHTO   C42  283   7.602   7.701   2.730 -0.2036 -0.3971 -0.0414
    1CHTO   H84  284   7.668   7.668   2.650 -1.3805 -1.9065 -0.4137
    1CHTO   C44  285   7.687   7.787   2.820  0.5335  0.3566 -0.6038
    1CHTO   H86  286   7.627   7.832   2.899  3.3909  0.5195  1.5576
    1CHTO   O32  287   7.783   7.703   2.873  0.0270  0.1962 -0.8419
    1CHTO   H69  288   7.830   7.744   2.944 -0.4768 -0.6343 -0.0140
    1CHTO   C48  289   7.753   7.907   2.737  0.2031 -0.3275  0.5239
    1CHTO   H90  290   7.820   7.852   2.671  1.4151 -0.4310  1.8151
    1CHTO    N9  291   7.849   7.986   2.829  0.2918 -0.6517  0.2474
    1CHTO   H77  292   7.780   8.024   2.904 -1.1094 -0.3874 -1.1411
    1CHTO   H78  293   7.906   8.065   2.783  0.3928 -0.3564  0.8689
    1CHTO   C51  294   7.647   7.994   2.665 -0.3508 -0.1708 -0.1019
    1CHTO   H93  295   7.596   8.046   2.746  3.1515  3.7803 -0.2911
    1CHTO   O30  296   7.566   7.905   2.587  0.1092  0.1751 -0.3178
    1CHTO   C46  297   7.497   7.795   2.660  0.6325 -0.5494  0.0298
    1CHTO   H88  298   7.426   7.841   2.729 -0.1920 -1.1544 -0.3942
    1CHTO   C53  299   7.421   7.706   2.554 -0.3581 -0.3542  0.0086
    1CHTO   O72  300   7.502   7.680   2.438 -0.9437  0.0195 -0.2062
    1CHTO  H199  301   7.555   7.602   2.438  1.7840  1.7196 -3.9746
    1CHTO   O22  302   7.702   8.090   2.572 -0.2953  0.2246  0.0701
    1CHTO   C31  303   7.665   8.115   2.430  0.4737 -0.6176  0.9619
    1CHTO   H59  304   7.577   8.051   2.407 -0.1131  0.8303 -0.9468
    1CHTO   C29  305   7.623   8.262   2.411  0.5923 -0.1952 -0.5187
    1CHTO   H57  306   7.707   8.323   2.447 -0.2753  0.4253  0.4880
    1CHTO   O21  307   7.502   8.277   2.491  0.1386  0.8250  0.0504
    1CHTO   H37  308   7.481   8.368   2.498  1.7490  1.2635 -0.5798
    1CHTO   C27  309   7.590   8.306   2.260 -0.1876  1.0487 -0.5827
    1CHTO   H55  310   7.498   8.254   2.229  0.5700  0.5853 -2.0788
    1CHTO    N5  311   7.572   8.450   2.232 -0.0756  0.3469  0.0678
    1CHTO   H43  312   7.540   8.467   2.131 -0.5765 -0.6817  0.0467
    1CHTO   H44  313   7.491   8.480   2.296  0.3071 -1.7659  1.6032
    1CHTO   C25  314   7.701   8.246   2.171  0.0192 -0.0225  0.4368
    1CHTO   H53  315   7.797   8.294   2.196  0.0261 -1.0460  2.4950
    1CHTO   O17  316   7.732   8.102   2.190 -0.1044 -0.3069  0.5231
    1CHTO   C32  317   7.779   8.084   2.324  0.5703  0.2659  0.0584
    1CHTO   H60  318   7.867   8.148   2.339  1.2909 -0.1123 -2.3327
    1CHTO   C36  319   7.814   7.930   2.338  0.0024 -0.2895  0.2469
    1CHTO   O25  320   7.699   7.850   2.316  0.6449  0.3820  0.3770
    1CHTO   H40  321   7.670   7.793   2.385 -0.8548  2.0098  1.1548
    1CHTO   O15  322   7.675   8.274   2.023  0.5133 -0.1506 -0.1056
    1CHTO   C19  323   7.665   8.219   1.891 -0.6665 -0.7145  0.6291
    1CHTO   H47  324   7.672   8.311   1.831  0.5320 -1.4111 -0.3358
    1CHTO   C20  325   7.782   8.124   1.853  0.0570 -0.0264 -0.9811
    1CHTO   H48  326   7.787   8.038   1.921  2.4857  1.8504  1.3272
    1CHTO   O19  327   7.906   8.198   1.866  0.1596 -0.3221  0.1348
    1CHTO   H35  328   7.963   8.159   1.803 -2.5456 -1.4733 -1.6839
    1CHTO   C21  329   7.771   8.064   1.708 -0.6683 -0.2295  0.5438
    1CHTO   H49  330   7.792   8.148   1.642 -2.7037  0.2299  0.4373
    1CHTO    N4  331   7.876   7.966   1.668 -0.1756 -0.1959 -0.3331
    1CHTO   H41  332   7.959   7.983   1.735  1.0227 -0.2401 -1.7658
    1CHTO   H42  333   7.913   8.007   1.575  0.8688  1.9968  1.0277
    1CHTO   C22  334   7.627   8.002   1.694  0.5298 -0.0274 -0.0631
    1CHTO   H50  335   7.629   7.918   1.762  0.8821  0.0771  0.0585
    1CHTO   O14  336   7.528   8.100   1.730 -0.2625 -0.2986  0.4198
    1CHTO   C23  337   7.526   8.148   1.861 -0.2809 -0.5238  0.2204
    1CHTO   H51  338   7.507   8.069   1.937  0.7338 -0.9900  0.0022
    1CHTO   C34  339   7.415   8.255   1.876  0.5198 -0.0921  0.5973
    1CHTO   O23  340   7.291   8.197   1.838 -0.1967 -0.1389 -0.3925
    1CHTO   H38  341   7.236   8.258   1.793  0.8399  0.2476 -1.1642
    1CHTO   O16  342   7.593   7.964   1.564  0.1966 -0.6374 -0.2269
    1CHTO   C24  343   7.563   7.808   1.540  0.2720  0.5172  0.6332
    1CHTO   H52  344   7.575   7.748   1.630 -0.6497 -1.1210 -0.3176
    1CHTO   C26  345   7.645   7.749   1.424  0.8569  0.1958 -0.8336
    1CHTO   H54  346   7.638   7.821   1.340  1.5381  1.3047  0.0479
    1CHTO   O20  347   7.779   7.749   1.463 -0.0559 -0.2268  0.3590
    1CHTO   H36  348   7.825   7.709   1.392 -1.2175 -1.3644  0.2280
    1CHTO   C30  349   7.598   7.609   1.361 -0.2146  0.0151  0.0653
    1CHTO   H58  350   7.644   7.523   1.411 -1.6454 -0.2768  0.9358
    1CHTO    N6  351   7.640   7.588   1.223  0.0449  0.4024  0.0002
    1CHTO   H45  352   7.686   7.492   1.205 -2.7388 -0.7070 -1.4248
    1CHTO   H46  353   7.580   7.626   1.141  1.7479  0.1807 -1.3845
    1CHTO   C33  354   7.448   7.584   1.383 -0.1677 -0.4744  0.0177
    1CHTO   H61  355   7.393   7.627   1.297  0.1583  1.0741  0.5636
    1CHTO   O18  356   7.399   7.649   1.500  0.2863  0.4460  0.6117
    1CHTO   C28  357   7.417   7.794   1.497 -0.6662  0.5532 -0.4800
    1CHTO   H56  358   7.402   7.836   1.397  1.8770  0.7386 -0.8217
    1CHTO   C35  359   7.307   7.864   1.593 -0.4736 -0.0347 -0.4742
    1CHTO   O24  360   7.331   7.838   1.736  0.3266  0.0747  0.3069
    1CHTO   H39  361   7.378   7.907   1.778  2.0498 -0.0088 -1.4081
    1CHTO    O9  362   7.420   7.448   1.384  0.8066 -0.3261  0.6031
    1CHTO   C13  363   7.250   7.413   1.394 -0.5993 -0.0578 -0.4412
    1CHTO   H26  364   7.194   7.506   1.419 -1.1241 -0.4692 -0.0710
    1CHTO   C11  365   7.224   7.298   1.507 -0.0976  0.1386  0.3451
    1CHTO   H24  366   7.230   7.339   1.609  0.0342  2.0325 -0.4213
    1CHTO    O8  367   7.339   7.206   1.507  0.2100  0.8909  0.6989
    1CHTO    H3  368   7.338   7.144   1.437  2.2504 -1.3821  2.6187
    1CHTO    C9  369   7.087   7.222   1.486 -0.0831  0.2720 -0.9480
    1CHTO   H22  370   7.007   7.296   1.496 -0.3700 -0.4396  2.6337
    1CHTO    N2  371   7.061   7.131   1.601 -0.3637 -0.4670  0.1394
    1CHTO   H10  372   7.068   7.176   1.698 -4.2671 -0.4477  0.4883
    1CHTO   H11  373   7.126   7.045   1.592  0.2287  0.1245 -1.3609
    1CHTO    C7  374   7.094   7.158   1.345 -0.7384 -0.4134 -0.0717
    1CHTO   H20  375   6.991   7.143   1.309 -1.5459 -1.0129  2.4043
    1CHTO    O4  376   7.176   7.228   1.251  1.2712 -0.4775 -0.2734
    1CHTO   C14  377   7.188   7.374   1.253 -0.7075 -0.0368 -0.5127
    1CHTO   H27  378   7.091   7.428   1.243 -0.8353  0.1747  1.6850
    1CHTO   C18  379   7.272   7.412   1.131 -0.3618  0.9951 -0.6392
    1CHTO   O13  380   7.211   7.408   1.004  0.3872  0.7948 -0.4588
    1CHTO    H7  381   7.247   7.339   0.951  0.2896 -0.7812  1.4697
    1CHTO    O2  382   7.156   7.004   1.348 -0.0715  0.4694  0.0141
    1CHTO    C1  383   7.260   6.975   1.253  0.2028 -0.3598 -0.1689
    1CHTO   H14  384   7.331   7.060   1.242  0.6253 -0.9170 -1.9366
    1CHTO    C2  385   7.212   6.922   1.103  0.2262  0.5064 -0.6987
    1CHTO   H15  386   7.143   6.839   1.123  1.1165 -0.1023 -0.1097
    1CHTO    O6  387   7.138   7.028   1.039 -0.2578  0.4154 -0.9753
    1CHTO    H1  388   7.193   7.104   1.044  2.4099 -1.4840 -0.2980
    1CHTO    C3  389   7.338   6.876   1.016 -0.6390 -0.2869 -0.5514
    1CHTO   H16  390   7.377   6.978   1.003  0.5853 -0.1519  3.4359
    1CHTO    N1  391   7.294   6.813   0.892 -0.5259 -0.3749 -0.1808
    1CHTO    H8  392   7.244   6.885   0.828 -1.8652 -0.1826  1.0603
    1CHTO    H9  393   7.376   6.770   0.837 -0.4804 -1.2165  0.5418
    1CHTO    C4  394   7.438   6.787   1.103 -0.2068 -0.3181 -0.0791
    1CHTO   H17  395   7.402   6.684   1.113  1.1659 -0.7604  0.3766
    1CHTO    O1  396   7.463   6.833   1.235 -0.0285  0.4241  0.4721
    1CHTO    C5  397   7.346   6.854   1.315 -0.6712  0.3267 -0.0028
    1CHTO   H18  398   7.281   6.767   1.322  0.7914 -0.6510  2.0153
    1CHTO   C16  399   7.400   6.878   1.452  0.5621 -0.1883  0.2061
    1CHTO   O11  400   7.470   6.770   1.511  0.2705  0.7495 -0.1610
    1CHTO    H5  401   7.533   6.801   1.573  0.2664  2.4819 -1.0024
    1CHTO    O3  402   7.569   6.795   1.041 -0.4893 -0.0833  0.4091
    1CHTO    C6  403   7.650   6.678   1.037  0.4891  0.0781  0.0308
    1CHTO   H19  404   7.607   6.599   1.100  1.2392 -1.0141 -0.8038
    1CHTO    C8  405   7.669   6.629   0.890  0.7043 -0.3544 -0.4135
    1CHTO   H21  406   7.711   6.711   0.831 -0.1379  0.2981 -0.1305
    1CHTO    O7  407   7.534   6.596   0.849 -0.0018 -0.1660 -0.0182
    1CHTO    H2  408   7.501   6.679   0.821  1.7988  0.2847 -0.9059
    1CHTO   C12  409   7.767   6.506   0.883  0.2340  0.0156 -0.6616
    1CHTO   H25  410   7.715   6.422   0.934 -2.3309  1.9395  0.0038
    1CHTO    N3  411   7.800   6.469   0.741  0.1703  0.1538 -0.3367
    1CHTO   H12  412   7.794   6.555   0.676 -1.9665  0.4528  0.2139
    1CHTO   H13  413   7.897   6.423   0.734 -0.0761 -0.2599 -1.1807
    1CHTO   C15  414   7.897   6.544   0.957  0.3470 -0.7158 -0.5525
    1CHTO   H28  415   7.945   6.622   0.897  0.7480 -1.3431 -1.0587
    1CHTO   O10  416   8.010   6.428   0.984 -0.2941 -0.5848  0.2140
    1CHTO    H4  417   8.085   6.478   1.009 -1.8547  1.0018  1.8262
    1CHTO    O5  418   7.868   6.582   1.092 -0.3959  0.1229  0.6097
    1CHTO   C10  419   7.791   6.701   1.098  0.7118 -0.2612  0.3471
    1CHTO   H23  420   7.851   6.780   1.054 -2.4701  1.8468 -0.3795
    1CHTO   C17  421   7.781   6.738   1.251 -0.2829 -0.2002  0.0502
    1CHTO   O12  422   7.911   6.774   1.304 -0.7191  0.0452  0.3088
    1CHTO    H6  423   7.948   6.854   1.271 -2.7981  1.0820  0.4637
    2CHTO  H203  424   6.671   4.821   0.129  0.2976 -0.8426 -2.9697
    2CHTO   O82  425   6.578   4.810   0.135  0.2941  0.0580 -0.3847
    2CHTO  C123  426   6.538   4.858   0.009  0.4453  0.4818 -0.0461
    2CHTO  H227  427   6.624   4.845  -0.059  1.2133 -0.6149  1.1148
    2CHTO   O77  428   6.430   4.760  -0.015 -0.2174 -0.1584  0.0353
    2CHTO  C118  429   6.349   4.790  -0.129  0.2752 -0.4875  0.8928
    2CHTO  H222  430   6.409   4.798  -0.221 -0.6834  1.2025  0.3855
    2CHTO  C125  431   6.245   4.669  -0.147 -0.3043  0.4326 -0.0522
    2CHTO   O84  432   6.317   4.546  -0.121  0.1008 -0.2362  0.1202
    2CHTO  H205  433   6.292   4.472  -0.173  0.2145 -1.7958  2.2306
    2CHTO  C114  434   6.280   4.927  -0.115  0.0546 -0.6540  0.0535
    2CHTO  H218  435   6.217   4.929  -0.025 -0.6395 -0.2048 -0.4382
    2CHTO  C116  436   6.383   5.041  -0.097  0.2099 -0.1895 -0.0345
    2CHTO  H220  437   6.445   5.044  -0.189  1.1166  1.4953  0.6089
    2CHTO   O79  438   6.313   5.160  -0.075  0.0887  0.3815  0.1214
    2CHTO  H201  439   6.361   5.213  -0.015  1.4903  2.1348 -2.4764
    2CHTO  C120  440   6.482   5.003   0.022 -0.4653 -0.8570 -0.1650
    2CHTO  H224  441   6.422   5.009   0.115  0.6413  2.0075  0.4251
    2CHTO   N21  442   6.594   5.098   0.034 -0.2215  0.1705  0.4724
    2CHTO  H211  443   6.570   5.196  -0.005  1.5479 -0.2234 -1.6500
    2CHTO  H212  444   6.635   5.107   0.134  0.9725  0.1681 -0.0168
    2CHTO   O75  445   6.195   4.940  -0.233 -0.3178 -0.2048 -0.2527
    2CHTO  C112  446   6.040   5.015  -0.192  1.0416 -0.1845 -0.0515
    2CHTO  H216  447   6.044   5.084  -0.106 -0.1609 -1.9239  1.4380
    2CHTO   O73  448   5.949   4.904  -0.169 -0.2267  0.1329  0.2683
    2CHTO  C113  449   5.806   4.925  -0.172  0.1864 -0.1550 -0.3101
    2CHTO  H217  450   5.781   4.996  -0.090  0.8971 -0.9462  0.6127
    2CHTO  C124  451   5.745   4.789  -0.139 -0.6302  0.1382 -0.1282
    2CHTO   O83  452   5.787   4.700  -0.239  0.4792  0.1827  0.0878
    2CHTO  H204  453   5.744   4.618  -0.226 -0.8090  1.0293  1.3762
    2CHTO  C109  454   5.762   4.993  -0.305  0.4865 -0.2591 -0.5732
    2CHTO  H213  455   5.779   4.920  -0.386  0.1955 -1.1320  0.1455
    2CHTO  C110  456   5.843   5.125  -0.320  0.1310 -0.4322  0.2631
    2CHTO  H214  457   5.823   5.181  -0.229 -0.6482 -0.0501 -0.1415
    2CHTO   O78  458   5.796   5.200  -0.432 -0.0917 -0.3280  0.4333
    2CHTO  H200  459   5.758   5.279  -0.400  0.7753  0.1280  0.3754
    2CHTO  C111  460   5.992   5.092  -0.319 -0.0865 -0.8582 -0.4335
    2CHTO  H215  461   6.018   5.029  -0.406  1.7729 -2.2630  1.0987
    2CHTO   N19  462   6.082   5.213  -0.325  0.7331  0.4401  0.1550
    2CHTO  H207  463   6.095   5.248  -0.427  1.3039 -0.7001 -0.1608
    2CHTO  H208  464   6.069   5.289  -0.249  1.5853  0.4742  0.2670
    2CHTO   O74  465   5.619   5.011  -0.294  0.3761  0.3203  0.3689
    2CHTO  C115  466   5.541   5.036  -0.414  0.0127 -0.4177  0.2937
    2CHTO  H219  467   5.578   5.124  -0.467 -2.4272 -0.4486 -1.5524
    2CHTO   O76  468   5.545   4.916  -0.508 -0.3394 -0.0663 -0.0096
    2CHTO  C122  469   5.496   4.791  -0.457  0.4487 -0.2529 -0.4130
    2CHTO  H226  470   5.573   4.744  -0.396  1.3132  0.6530 -0.7989
    2CHTO  C126  471   5.482   4.690  -0.584 -0.2550 -0.2953  0.4231
    2CHTO   O85  472   5.401   4.735  -0.685  0.0741 -0.9180  0.0013
    2CHTO  H206  473   5.442   4.724  -0.768 -0.9570 -1.2523 -0.4639
    2CHTO  C121  474   5.369   4.801  -0.379 -0.1719  0.0950 -0.2955
    2CHTO  H225  475   5.298   4.719  -0.405 -1.2418  1.1270 -0.6948
    2CHTO   O81  476   5.396   4.789  -0.240 -0.6661  0.0148 -0.1483
    2CHTO  H202  477   5.449   4.863  -0.215 -1.8348  0.9331 -0.3356
    2CHTO  C119  478   5.296   4.940  -0.403 -0.5072  0.5541  0.4505
    2CHTO  H223  479   5.283   4.940  -0.511 -1.4156 -0.5276  0.5433
    2CHTO  C117  480   5.391   5.062  -0.356  0.4027 -0.2512 -0.1433
    2CHTO  H221  481   5.399   5.082  -0.250  0.6851  1.8472 -0.5324
    2CHTO   N20  482   5.341   5.199  -0.418  0.3499  0.3921 -0.1794
    2CHTO  H209  483   5.405   5.285  -0.404  1.1147 -0.0370 -1.0008
    2CHTO  H210  484   5.243   5.219  -0.378  0.5573  1.0995 -0.0271
    2CHTO   O80  485   5.145   4.944  -0.357 -0.3983 -0.2456 -0.8921
    2CHTO  C103  486   5.040   4.977  -0.461  0.2966  0.9638  0.6674
    2CHTO  H190  487   5.072   5.057  -0.528 -1.8406 -0.7146 -2.4660
    2CHTO  C101  488   4.989   4.857  -0.557 -0.6879  0.1779 -0.1345
    2CHTO  H188  489   4.975   4.772  -0.490  2.1341 -0.6516 -0.5038
    2CHTO   O68  490   5.103   4.815  -0.641  0.2702 -0.1168 -0.1958
    2CHTO  H168  491   5.079   4.740  -0.691 -1.6300  0.5289 -0.2809
    2CHTO   C99  492   4.862   4.888  -0.646 -0.3861  0.9780 -0.1491
    2CHTO  H186  493   4.893   4.959  -0.725  0.9944  0.5585  0.0096
    2CHTO   N17  494   4.808   4.773  -0.725  0.1537 -0.0439 -0.1573
    2CHTO  H174  495   4.733   4.809  -0.794  1.8419 -0.7280 -2.4202
    2CHTO  H175  496   4.764   4.700  -0.659 -1.3734  3.0406  2.4313
    2CHTO   C97  497   4.754   4.966  -0.559 -0.2249  0.1607 -0.1865
    2CHTO  H184  498   4.702   4.888  -0.501 -1.9459 -0.6455 -2.6852
    2CHTO   O64  499   4.817   5.064  -0.478  0.3890 -0.5228  0.5838
    2CHTO  C104  500   4.914   5.032  -0.378 -0.0435 -0.1034 -0.0588
    2CHTO  H191  501   4.885   4.955  -0.307 -0.6947 -0.1879 -0.4150
    2CHTO  C108  502   4.936   5.156  -0.288 -0.2177  0.5160 -0.6293
    2CHTO   O71  503   4.812   5.194  -0.225  0.1991 -0.2618  0.2020
    2CHTO  H171  504   4.760   5.129  -0.182 -1.6835 -0.6870 -2.6291
    2CHTO   O62  505   4.669   5.049  -0.635 -0.0505 -0.1026  0.4005
    2CHTO   C91  506   4.549   5.102  -0.582  0.5385 -0.7869 -0.1519
    2CHTO  H178  507   4.484   5.023  -0.543  0.3955  0.1236  1.4800
    2CHTO   C92  508   4.468   5.141  -0.713 -0.0587  0.1416 -0.0914
    2CHTO  H179  509   4.469   5.060  -0.787  2.6387  0.4484 -0.4569
    2CHTO   O66  510   4.330   5.166  -0.684  0.3258  0.7788 -0.1674
    2CHTO  H166  511   4.322   5.219  -0.607  1.5421  0.3221  0.2927
    2CHTO   C93  512   4.538   5.269  -0.782 -0.0143  0.3143 -0.2838
    2CHTO  H180  513   4.465   5.306  -0.855  1.6413  2.6839 -0.7996
    2CHTO   N16  514   4.652   5.241  -0.865 -0.0317 -0.0249 -0.0819
    2CHTO  H172  515   4.734   5.197  -0.809  1.0717  0.1517 -1.5142
    2CHTO  H173  516   4.631   5.174  -0.947  0.1034  0.9666 -0.9323
    2CHTO   C94  517   4.559   5.386  -0.671 -0.3849 -0.2617 -0.0412
    2CHTO  H181  518   4.665   5.396  -0.649 -0.4204  2.0561 -0.7857
    2CHTO   O61  519   4.500   5.356  -0.543  0.0321 -0.3585  0.2110
    2CHTO   C95  520   4.560   5.234  -0.484 -0.1776 -0.4215 -0.1501
    2CHTO  H182  521   4.664   5.254  -0.458 -0.3332 -0.6777  0.7008
    2CHTO  C106  522   4.495   5.204  -0.343  0.1341  0.2784 -0.1705
    2CHTO   O69  523   4.550   5.090  -0.277  0.0534 -0.2714  0.3071
    2CHTO  H169  524   4.540   5.018  -0.335  0.2006  0.4107 -0.5759
    2CHTO   O63  525   4.505   5.508  -0.728 -0.6427  0.6312 -0.6382
    2CHTO   C96  526   4.526   5.647  -0.643  0.0926 -0.5189  0.8240
    2CHTO  H183  527   4.589   5.632  -0.555  2.5104  0.3459 -0.7171
    2CHTO   C98  528   4.380   5.699  -0.614  0.5019 -0.4240  0.7103
    2CHTO  H185  529   4.322   5.694  -0.708  0.8830 -0.0216  0.4481
    2CHTO   O67  530   4.311   5.620  -0.513  0.5220  0.7087 -0.0239
    2CHTO  H167  531   4.233   5.580  -0.545 -0.4716  2.1600  0.5817
    2CHTO  C102  532   4.378   5.852  -0.571  1.0932 -0.0691 -0.2209
    2CHTO  H189  533   4.419   5.853  -0.468  0.9236  5.0114 -0.0725
    2CHTO   N18  534   4.241   5.908  -0.554  0.6782  0.1797 -0.0594
    2CHTO  H176  535   4.177   5.855  -0.486  0.3229  1.1827  0.3950
    2CHTO  H177  536   4.187   5.901  -0.648  0.7724  1.2681 -0.2022
    2CHTO  C105  537   4.469   5.936  -0.663 -0.5163 -0.2426 -0.1756
    2CHTO  H192  538   4.417   5.947  -0.758  0.0333  0.7856 -0.3537
    2CHTO   O65  539   4.604   5.883  -0.675 -0.3974  0.1121  0.0814
    2CHTO  C100  540   4.605   5.757  -0.731 -0.5314  1.2709  0.8481
    2CHTO  H187  541   4.557   5.773  -0.829 -0.7144  1.8515  1.0361
    2CHTO  C107  542   4.752   5.712  -0.752 -0.0145  0.1362  0.0839
    2CHTO   O70  543   4.766   5.586  -0.808  0.3264  0.1841  0.2577
    2CHTO  H170  544   4.702   5.574  -0.875 -0.9458  3.1839  0.8145
    2CHTO   O57  545   4.483   6.079  -0.609  0.3243  0.1866  0.1592
    2CHTO   C85  546   4.461   6.192  -0.698 -0.2772  0.0059 -0.0586
    2CHTO  H157  547   4.361   6.167  -0.741  0.6970 -0.1173 -2.3202
    2CHTO   C83  548   4.564   6.197  -0.814  0.8636 -0.5045  0.1495
    2CHTO  H155  549   4.543   6.109  -0.875 -0.5497  1.3346 -2.0929
    2CHTO   O56  550   4.698   6.184  -0.760 -0.1141 -0.3050  0.2519
    2CHTO  H135  551   4.754   6.228  -0.821 -3.2305  1.5052 -1.4393
    2CHTO   C81  552   4.539   6.329  -0.896  0.2072 -0.1959  0.7635
    2CHTO  H153  553   4.435   6.331  -0.930  0.3364  0.8992  0.4269
    2CHTO   N14  554   4.613   6.330  -1.024 -0.3830  0.0923 -0.0067
    2CHTO  H141  555   4.714   6.296  -1.010 -0.7294 -1.3615 -0.9341
    2CHTO  H142  556   4.612   6.429  -1.065 -1.0838  0.2783  0.4581
    2CHTO   C79  557   4.571   6.451  -0.803  0.4111  0.5423 -0.9358
    2CHTO  H151  558   4.547   6.544  -0.855  0.4592  0.4985 -1.0334
    2CHTO   O52  559   4.474   6.450  -0.690  0.5345 -0.7412  0.4389
    2CHTO   C86  560   4.460   6.326  -0.615  0.1799 -0.0025  0.5372
    2CHTO  H158  561   4.540   6.336  -0.539 -0.5584  0.6375  1.2529
    2CHTO   C90  562   4.327   6.342  -0.534  0.1234  0.2254 -0.8609
    2CHTO   O60  563   4.338   6.426  -0.421 -0.1622 -0.1399  0.3072
    2CHTO  H138  564   4.349   6.512  -0.456  0.2011 -0.0786  0.5717
    2CHTO   O50  565   4.705   6.460  -0.749 -0.0938  0.1714 -0.0425
    2CHTO   C73  566   4.747   6.583  -0.684  0.0110 -0.4480  0.6931
    2CHTO  H145  567   4.666   6.624  -0.622 -0.9856  0.5297 -1.2055
    2CHTO   C74  568   4.786   6.692  -0.787  0.5647  0.0095 -0.4397
    2CHTO  H146  569   4.702   6.716  -0.855  0.7290 -1.6620 -1.2649
    2CHTO   O54  570   4.810   6.814  -0.719  0.1668 -0.1800 -0.2705
    2CHTO  H133  571   4.862   6.799  -0.642  1.1969  1.6164 -0.5875
    2CHTO   C75  572   4.907   6.642  -0.867  0.8169  0.0649  0.1004
    2CHTO  H147  573   4.873   6.544  -0.906  1.0037 -0.3376  0.9424
    2CHTO   N13  574   4.938   6.746  -0.976 -0.0875  0.3333  0.2657
    2CHTO  H139  575   4.884   6.716  -1.064 -2.1405  1.4445  1.1087
    2CHTO  H140  576   4.930   6.851  -0.951  0.1018  0.1555  1.1186
    2CHTO   C76  577   5.028   6.614  -0.768  0.4638 -0.0685  0.6363
    2CHTO  H148  578   5.054   6.710  -0.724  0.8773  0.7463 -1.2974
    2CHTO   O49  579   4.988   6.526  -0.660  0.1370  0.6926  0.4640
    2CHTO   C77  580   4.866   6.557  -0.593 -0.1611 -0.0506  0.9636
    2CHTO  H149  581   4.888   6.651  -0.541  1.7098 -1.7944  3.4812
    2CHTO   C88  582   4.848   6.450  -0.486  0.0001  0.4553 -0.7713
    2CHTO   O58  583   4.712   6.472  -0.414 -0.1067  0.1461  0.5311
    2CHTO  H136  584   4.721   6.432  -0.330 -0.6304  0.7212  0.8708
    2CHTO   O51  585   5.136   6.556  -0.839 -0.4437  0.3790 -0.5977
    2CHTO   C78  586   5.199   6.401  -0.772 -0.5852  0.2571  0.1202
    2CHTO  H150  587   5.156   6.383  -0.670 -0.7960 -1.0544 -0.1830
    2CHTO   C80  588   5.345   6.401  -0.760 -0.0596 -0.1327 -0.0755
    2CHTO  H152  589   5.391   6.394  -0.861  0.1203 -0.7175  0.0453
    2CHTO   O55  590   5.374   6.527  -0.687 -0.3146 -0.2916 -0.3332
    2CHTO  H134  591   5.443   6.571  -0.733 -0.2693  0.0800  0.0840
    2CHTO   C84  592   5.384   6.272  -0.685 -0.0877  0.0711  0.9138
    2CHTO  H156  593   5.335   6.264  -0.588  0.4581  1.3135  1.3109
    2CHTO   N15  594   5.526   6.263  -0.665 -0.7178  0.5560 -0.2634
    2CHTO  H143  595   5.559   6.257  -0.563  2.5251 -3.5459 -1.4445
    2CHTO  H144  596   5.574   6.180  -0.712 -0.0287 -0.4550  2.1205
    2CHTO   C87  597   5.331   6.147  -0.758  0.2866 -0.0739 -0.0813
    2CHTO  H159  598   5.384   6.125  -0.851 -1.3112 -1.3985 -0.6848
    2CHTO   O53  599   5.179   6.167  -0.781  0.0955  0.1967  0.0190
    2CHTO   C82  600   5.148   6.287  -0.852  0.9859  0.2815  0.8684
    2CHTO  H154  601   5.199   6.296  -0.948 -1.3191  1.3024 -0.3073
    2CHTO   C89  602   4.996   6.272  -0.886 -0.9192 -0.5967  1.1390
    2CHTO   O59  603   4.960   6.140  -0.950  0.0774 -0.2348  0.5418
    2CHTO  H137  604   4.866   6.137  -0.959  0.0486  0.8870  0.3812
    2CHTO   O45  605   5.352   6.017  -0.674  0.4070 -0.6282 -0.6854
    2CHTO   C67  606   5.242   5.943  -0.610  0.0336 -0.8112  0.5633
    2CHTO  H124  607   5.148   5.990  -0.637  0.3424 -0.8891 -0.6826
    2CHTO   C65  608   5.237   5.796  -0.669  0.4010 -0.6965  0.2258
    2CHTO  H122  609   5.327   5.776  -0.726  0.4763  0.1146  0.0537
    2CHTO   O44  610   5.118   5.796  -0.757 -0.5288  0.5535  0.2075
    2CHTO  H102  611   5.068   5.719  -0.735 -1.9793  0.9770 -1.4832
    2CHTO   C63  612   5.246   5.686  -0.555  0.3352 -0.3154 -0.4673
    2CHTO  H120  613   5.345   5.691  -0.510  0.6175 -1.0867 -0.9994
    2CHTO   N11  614   5.252   5.541  -0.595 -0.0320  0.0615  0.0888
    2CHTO  H108  615   5.150   5.529  -0.626 -0.0793 -2.6271  1.1551
    2CHTO  H109  616   5.272   5.486  -0.506 -1.8983 -1.5309 -0.4365
    2CHTO   C61  617   5.150   5.734  -0.435  0.2927 -0.5805 -0.1982
    2CHTO  H118  618   5.162   5.662  -0.353 -2.2481 -0.2925  0.4576
    2CHTO   O40  619   5.181   5.856  -0.386 -0.8939 -0.0318 -0.4643
    2CHTO   C68  620   5.263   5.953  -0.448 -0.6739  0.6298 -0.0060
    2CHTO  H125  621   5.368   5.927  -0.423 -0.0420  1.3349 -1.9138
    2CHTO   C72  622   5.237   6.095  -0.385  0.1452 -0.2232 -0.4333
    2CHTO   O48  623   5.252   6.102  -0.237  0.4394 -0.1435 -0.2876
    2CHTO  H105  624   5.166   6.117  -0.204  1.3577  1.2629  1.6201
    2CHTO   O38  625   5.012   5.754  -0.472  0.2681  0.2021  0.1702
    2CHTO   C55  626   4.911   5.766  -0.370  0.0377  0.0781 -0.1854
    2CHTO  H112  627   4.963   5.812  -0.285  1.1600  1.3887 -1.5554
    2CHTO   C56  628   4.846   5.630  -0.335  0.1804 -0.6670 -0.0237
    2CHTO  H113  629   4.798   5.588  -0.424  1.6355  0.9422 -1.5934
    2CHTO   O42  630   4.949   5.542  -0.303 -0.2282  0.1089  0.0968
    2CHTO  H100  631   4.958   5.533  -0.210 -1.6779 -0.1572  0.2237
    2CHTO   C57  632   4.727   5.650  -0.225  0.1205 -0.0956  0.0889
    2CHTO  H114  633   4.786   5.693  -0.144  1.0522 -1.2016  0.0110
    2CHTO   N10  634   4.651   5.528  -0.184  0.8304 -0.2075 -0.1997
    2CHTO  H106  635   4.695   5.483  -0.097  0.3017 -1.3508 -0.5056
    2CHTO  H107  636   4.545   5.543  -0.173  0.8472  0.6691 -1.1530
    2CHTO   C58  637   4.630   5.762  -0.280  0.8283 -0.6896  0.3173
    2CHTO  H115  638   4.573   5.726  -0.368  1.1646  0.7074 -0.4828
    2CHTO   O37  639   4.703   5.888  -0.306  0.6409 -0.2689 -0.6689
    2CHTO   C59  640   4.796   5.874  -0.410 -1.0023  0.4362 -0.3552
    2CHTO  H116  641   4.741   5.843  -0.499 -1.3095 -0.6870  0.2065
    2CHTO   C70  642   4.851   6.015  -0.449  0.6567 -0.5024 -0.6505
    2CHTO   O46  643   4.756   6.086  -0.524  0.0751  0.2966  0.0915
    2CHTO  H103  644   4.793   6.100  -0.609 -1.6095 -1.6187 -0.9976
    2CHTO   O39  645   4.520   5.792  -0.160  0.3454  0.1667  0.4501
    2CHTO   C60  646   4.411   5.875  -0.193  0.0254  0.1933  0.4868
    2CHTO  H117  647   4.427   5.922  -0.290 -0.0134  1.6660  1.1871
    2CHTO   C62  648   4.279   5.789  -0.193 -0.7383 -0.2507  0.2169
    2CHTO  H119  649   4.284   5.715  -0.276  0.7864  0.2009 -0.1223
    2CHTO   O43  650   4.275   5.714  -0.070 -0.6346 -0.4576  0.2195
    2CHTO  H101  651   4.355   5.667  -0.071  0.5352  1.4683 -0.3354
    2CHTO   C66  652   4.154   5.887  -0.202  0.1017 -0.7801  0.5101
    2CHTO  H123  653   4.152   5.942  -0.296 -1.5143  2.5203  2.3416
    2CHTO   N12  654   4.024   5.809  -0.202 -0.0763 -0.1096 -0.4995
    2CHTO  H110  655   3.993   5.801  -0.099 -1.9295  2.3142 -0.8295
    2CHTO  H111  656   4.011   5.719  -0.260  1.8188 -0.4756 -0.3767
    2CHTO   C69  657   4.154   6.006  -0.103  0.1357  0.1064 -0.0606
    2CHTO  H126  658   4.154   5.968   0.001 -0.3117  1.6844  0.5344
    2CHTO   O41  659   4.280   6.068  -0.121 -0.7085 -0.1933 -0.3212
    2CHTO   C64  660   4.403   5.990  -0.090  0.3629  0.6892  0.7091
    2CHTO  H121  661   4.409   5.944   0.011  3.6860 -0.8510 -0.1081
    2CHTO   C71  662   4.523   6.087  -0.090  0.1900  0.3396 -0.4108
    2CHTO   O47  663   4.561   6.126  -0.221 -0.2461 -0.3491  0.5781
    2CHTO  H104  664   4.587   6.055  -0.276  0.4613  1.1416 -1.0628
    2CHTO   O34  665   4.047   6.100  -0.129 -0.1802  0.0958 -0.0677
    2CHTO   C49  666   4.018   6.236  -0.057  0.3473 -0.4795 -0.5664
    2CHTO   H91  667   4.053   6.230   0.046 -0.7101  2.3993  0.0107
    2CHTO   C47  668   3.865   6.250  -0.069  0.0604 -0.5178  0.1754
    2CHTO   H89  669   3.828   6.334  -0.006  1.3864 -0.5843  1.0606
    2CHTO   O33  670   3.807   6.127  -0.013 -0.0687 -0.8291  0.0857
    2CHTO   H70  671   3.810   6.055  -0.073  3.3428 -0.5632 -0.1511
    2CHTO   C45  672   3.815   6.275  -0.229 -0.2883 -0.4434  0.0907
    2CHTO   H87  673   3.852   6.190  -0.288  2.0075  0.4857  0.1337
    2CHTO    N8  674   3.672   6.294  -0.249 -0.1821 -0.1134 -0.0808
    2CHTO   H75  675   3.645   6.381  -0.191  3.4105 -0.7985  2.7370
    2CHTO   H76  676   3.654   6.312  -0.354  1.0095 -4.1815 -1.1090
    2CHTO   C43  677   3.901   6.402  -0.283  0.1790  0.6090  0.2699
    2CHTO   H85  678   3.883   6.413  -0.390 -1.2781  1.5478  0.5908
    2CHTO   O29  679   4.041   6.374  -0.260 -1.6768 -0.1420 -0.8986
    2CHTO   C50  680   4.087   6.349  -0.126 -0.4189  0.0250  0.1780
    2CHTO   H92  681   4.191   6.315  -0.135 -0.9363 -2.2622  2.3256
    2CHTO   C54  682   4.101   6.473  -0.033  0.4228 -0.0215 -0.6560
    2CHTO   O36  683   4.200   6.551  -0.100 -0.6623 -0.0093  0.0697
    2CHTO   H72  684   4.217   6.629  -0.049  1.3436 -0.3706 -0.0154
    2CHTO   O27  685   3.859   6.532  -0.225 -0.3031 -0.0816 -0.3705
    2CHTO   C37  686   3.830   6.657  -0.293 -0.5558  0.3316 -0.1287
    2CHTO   H79  687   3.802   6.631  -0.396  0.2212  0.3833 -0.3519
    2CHTO   C38  688   3.708   6.738  -0.231 -0.1959 -1.3853  0.1289
    2CHTO   H80  689   3.728   6.763  -0.126 -0.0278 -0.8163 -0.0355
    2CHTO   O31  690   3.594   6.658  -0.245 -0.0822  0.1704  0.5181
    2CHTO   H68  691   3.521   6.717  -0.242 -0.5922 -0.3831 -0.5391
    2CHTO   C39  692   3.684   6.880  -0.305  0.2105 -0.8594 -0.0278
    2CHTO   H81  693   3.656   6.851  -0.406  2.3762 -1.1265 -0.5795
    2CHTO    N7  694   3.570   6.959  -0.250 -0.0848 -0.5123  0.9223
    2CHTO   H73  695   3.612   7.006  -0.162 -0.6690  2.2809 -0.2476
    2CHTO   H74  696   3.481   6.899  -0.239 -1.8689  1.7019 -0.9160
    2CHTO   C40  697   3.823   6.953  -0.314 -0.0855 -0.8335 -0.6264
    2CHTO   H82  698   3.837   6.988  -0.212  0.5229 -1.2491 -0.5628
    2CHTO   O26  699   3.927   6.867  -0.362 -0.0248  0.2242 -0.4844
    2CHTO   C41  700   3.957   6.748  -0.294 -0.3614 -0.0142  0.3584
    2CHTO   H83  701   4.001   6.760  -0.194  1.6567 -1.7823 -0.2786
    2CHTO   C52  702   4.072   6.688  -0.375  0.8467  0.0545  0.1323
    2CHTO   O35  703   4.190   6.736  -0.332 -0.4570 -0.4289  0.1076
    2CHTO   H71  704   4.252   6.738  -0.402  0.9696  2.4512  1.3905
    2CHTO   O28  705   3.799   7.058  -0.412 -0.2271 -0.5280 -0.2501
    2CHTO   C42  706   3.861   7.186  -0.370 -0.2912 -0.3254 -0.4400
    2CHTO   H84  707   3.845   7.243  -0.462 -2.8214 -0.6850 -0.2449
    2CHTO   C44  708   4.011   7.184  -0.343  0.4373 -0.2042  0.4777
    2CHTO   H86  709   4.031   7.114  -0.262  1.8118  1.0297  1.2325
    2CHTO   O32  710   4.081   7.131  -0.460  0.3644 -0.3477 -0.4701
    2CHTO   H69  711   4.013   7.130  -0.524  2.1543  1.3543 -2.4406
    2CHTO   C48  712   4.070   7.327  -0.301  0.0516 -0.3977 -0.0809
    2CHTO   H90  713   4.058   7.399  -0.382  3.2286 -0.4424 -0.6461
    2CHTO    N9  714   4.215   7.329  -0.282  0.2176  0.1596 -0.3512
    2CHTO   H77  715   4.248   7.428  -0.252 -0.6586 -0.1954  1.8689
    2CHTO   H78  716   4.260   7.297  -0.374  0.3892  2.3961 -1.0677
    2CHTO   C51  717   3.991   7.366  -0.175  0.0275 -0.3894 -0.4297
    2CHTO   H93  718   4.003   7.292  -0.096  1.1457  2.8132  2.5056
    2CHTO   O30  719   3.851   7.384  -0.211 -0.2602  0.4549 -0.0200
    2CHTO   C46  720   3.785   7.263  -0.246 -0.7160 -0.4300 -0.4191
    2CHTO   H88  721   3.794   7.204  -0.154  1.7537 -0.3335 -0.5669
    2CHTO   C53  722   3.642   7.300  -0.289 -0.0882 -0.4387  0.3483
    2CHTO   O72  723   3.591   7.422  -0.221 -0.1724 -0.3080  0.2895
    2CHTO  H199  724   3.559   7.403  -0.135  0.6603 -0.0618  0.6581
    2CHTO   O22  725   4.027   7.497  -0.132 -0.2569  0.5462 -0.0266
    2CHTO   C31  726   3.998   7.558   0.005 -0.5742  0.2204  0.2653
    2CHTO   H59  727   4.053   7.655   0.003 -0.6943  0.2701 -1.3498
    2CHTO   C29  728   3.848   7.584   0.039  0.3746  0.3318 -1.1385
    2CHTO   H57  729   3.791   7.491   0.027 -0.0052  0.6668 -2.0311
    2CHTO   O21  730   3.800   7.678  -0.061  0.0348 -0.2501 -0.0093
    2CHTO   H37  731   3.708   7.687  -0.047  0.0913  0.5682 -0.1837
    2CHTO   C27  732   3.828   7.638   0.187  0.1218 -0.0123  0.7977
    2CHTO   H55  733   3.866   7.742   0.189 -0.6300  0.3499 -1.9870
    2CHTO    N5  734   3.686   7.645   0.229  0.0890 -0.3159 -0.5085
    2CHTO   H43  735   3.667   7.750   0.246  1.1678 -0.4712  1.7984
    2CHTO   H44  736   3.619   7.615   0.149  0.0033  1.8186 -1.2631
    2CHTO   C25  737   3.908   7.549   0.284  0.4526 -0.9945  0.2193
    2CHTO   H53  738   3.877   7.445   0.272 -0.4858 -0.8394  1.2582
    2CHTO   O17  739   4.043   7.546   0.247  0.6372  0.4417  0.1993
    2CHTO   C32  740   4.072   7.480   0.121 -0.0461  0.3807 -0.4195
    2CHTO   H60  741   4.038   7.376   0.127  0.5063  0.2272  0.0614
    2CHTO   C36  742   4.219   7.490   0.093  0.1665  0.7931  0.3365
    2CHTO   O25  743   4.318   7.436   0.188 -0.1027  0.3680 -0.2893
    2CHTO   H40  744   4.317   7.342   0.192  4.1118  0.1908 -1.1062
    2CHTO   O15  745   3.907   7.588   0.429  0.0520  0.0331  0.2498
    2CHTO   C19  746   3.889   7.476   0.521  0.0014  0.0989  0.2149
    2CHTO   H47  747   3.792   7.443   0.480 -0.1908  0.8598  0.0541
    2CHTO   C20  748   3.997   7.357   0.533  0.0820 -0.3270  0.4382
    2CHTO   H48  749   4.093   7.395   0.569  0.1667 -1.1711  1.1155
    2CHTO   O19  750   4.029   7.290   0.403 -0.3980  0.5733 -0.1288
    2CHTO   H35  751   3.954   7.263   0.353 -0.5781  0.7543  0.0429
    2CHTO   C21  752   3.954   7.243   0.635 -0.7147 -0.0476 -0.2222
    2CHTO   H49  753   3.878   7.184   0.584  2.1146 -3.1970 -0.9590
    2CHTO    N4  754   4.076   7.156   0.671  0.5044 -0.3956  0.2155
    2CHTO   H41  755   4.115   7.190   0.766  1.8940  1.9025 -1.1405
    2CHTO   H42  756   4.157   7.160   0.600  1.6131  0.4042  1.4940
    2CHTO   C22  757   3.883   7.301   0.763  0.0415  0.1789  1.0069
    2CHTO   H50  758   3.963   7.337   0.828  0.7198  1.3233 -0.4325
    2CHTO   O14  759   3.792   7.412   0.735  0.8143  0.3890 -0.3186
    2CHTO   C23  760   3.855   7.524   0.671 -0.4939 -0.3475  0.0318
    2CHTO   H51  761   3.943   7.549   0.732 -1.3912 -0.0219  1.2106
    2CHTO   C34  762   3.758   7.645   0.678  1.0782 -0.0399  0.1974
    2CHTO   O23  763   3.743   7.699   0.806  0.6680 -0.0759  0.1892
    2CHTO   H38  764   3.708   7.785   0.795  1.3216  0.1964  0.2258
    2CHTO   O16  765   3.803   7.203   0.826  0.1477  0.5366 -0.4917
    2CHTO   C24  766   3.826   7.180   0.977  1.0025 -0.0057  0.3914
    2CHTO   H52  767   3.916   7.231   1.012  2.1738 -0.3959 -1.9177
    2CHTO   C26  768   3.841   7.026   1.003  0.2479 -0.0872  0.1281
    2CHTO   H54  769   3.744   6.978   0.979  0.4542 -0.8787  0.8756
    2CHTO   O20  770   3.945   6.975   0.912 -0.2017 -0.6143 -0.8247
    2CHTO   H36  771   3.913   6.893   0.880 -1.3440 -0.6085  0.2281
    2CHTO   C30  772   3.876   6.998   1.153  0.1562 -0.2164 -0.2255
    2CHTO   H58  773   3.972   7.045   1.176  0.4280 -0.9825  0.2099
    2CHTO    N6  774   3.893   6.851   1.186 -0.1252  0.5851 -0.1382
    2CHTO   H45  775   3.888   6.783   1.102  1.9857 -1.1246  1.0557
    2CHTO   H46  776   3.985   6.830   1.240  0.9752  2.8751 -1.0692
    2CHTO   C33  777   3.770   7.067   1.244 -0.1817 -0.2990  0.3604
    2CHTO   H61  778   3.679   7.007   1.233 -0.5130 -0.2712  2.5950
    2CHTO   O18  779   3.741   7.204   1.198 -0.2674  0.1218 -0.4305
    2CHTO   C28  780   3.699   7.234   1.062  0.3769 -0.1407 -0.2814
    2CHTO   H56  781   3.612   7.176   1.034 -1.4110  2.0146  0.6897
    2CHTO   C35  782   3.672   7.388   1.055 -0.1510  0.2409 -0.4807
    2CHTO   O24  783   3.564   7.420   1.150  0.1159 -0.0333 -0.2902
    2CHTO   H39  784   3.533   7.507   1.134 -0.9781 -0.6676 -1.7847
    2CHTO    O9  785   3.801   7.067   1.384 -0.5850  0.3886  0.2076
    2CHTO   C13  786   3.680   7.086   1.484  0.4489 -0.5673  0.2896
    2CHTO   H26  787   3.602   7.011   1.461 -1.7624  1.6236  0.4309
    2CHTO   C11  788   3.619   7.227   1.484 -0.0693 -0.0550  0.8234
    2CHTO   H24  789   3.573   7.246   1.386  2.4025  2.7654  0.1435
    2CHTO    O8  790   3.725   7.325   1.494  0.0010 -0.4824 -0.0871
    2CHTO    H3  791   3.693   7.411   1.476 -2.7050 -1.4778 -0.1980
    2CHTO    C9  792   3.511   7.230   1.593 -0.1553 -0.2326  0.5512
    2CHTO   H22  793   3.443   7.147   1.567  0.0279 -0.9079  2.1594
    2CHTO    N2  794   3.427   7.349   1.594 -0.6879  0.0822 -0.4200
    2CHTO   H10  795   3.343   7.327   1.658  0.1711 -1.2042  0.3087
    2CHTO   H11  796   3.481   7.413   1.662 -0.4772 -0.7694  0.2269
    2CHTO    C7  797   3.576   7.203   1.737 -0.2776  0.4340  0.6087
    2CHTO   H20  798   3.488   7.195   1.804  1.8010  1.8511  3.5939
    2CHTO    O4  799   3.650   7.085   1.728 -0.3805 -0.2089  0.2377
    2CHTO   C14  800   3.743   7.048   1.626 -0.0378  0.1900 -0.0960
    2CHTO   H27  801   3.750   6.938   1.635  1.8505  0.3378  0.4453
    2CHTO   C18  802   3.883   7.102   1.647 -0.4271 -0.5015 -0.1225
    2CHTO   O13  803   3.938   7.048   1.768 -0.2535 -0.5264 -0.0439
    2CHTO    H7  804   3.921   7.095   1.848  0.8328  0.1336 -0.1819
    2CHTO    O2  805   3.670   7.329   1.808  0.8554  0.1392 -0.0339
    2CHTO    C1  806   3.646   7.366   1.946  0.1693  1.0191 -0.4031
    2CHTO   H14  807   3.616   7.275   2.002  1.5069  1.2922  0.7834
    2CHTO    C2  808   3.531   7.472   1.973  0.2951 -0.0303  0.3198
    2CHTO   H15  809   3.536   7.532   1.882  2.2559  1.8349  1.6090
    2CHTO    O6  810   3.404   7.404   1.974  0.1636  0.0198 -0.1164
    2CHTO    H1  811   3.367   7.393   1.888 -0.2099 -1.9579  0.2660
    2CHTO    C3  812   3.559   7.556   2.117  1.0402  0.4699  0.0967
    2CHTO   H16  813   3.523   7.505   2.208  0.5310  0.5918 -0.0390
    2CHTO    N1  814   3.476   7.678   2.110  0.4825  0.0598 -0.8384
    2CHTO    H8  815   3.372   7.656   2.089  0.7266 -1.7457 -0.1646
    2CHTO    H9  816   3.519   7.738   2.031 -0.2590 -0.1566 -1.4263
    2CHTO    C4  817   3.707   7.585   2.152 -0.4262 -0.1129  0.2321
    2CHTO   H17  818   3.747   7.659   2.083 -0.1355 -0.0569  0.4558
    2CHTO    O1  819   3.778   7.457   2.142  0.3634 -0.8173 -0.3860
    2CHTO    C5  820   3.787   7.409   2.004 -0.3552  0.3763  0.1759
    2CHTO   H18  821   3.823   7.492   1.942 -0.2872 -0.6392 -1.1669
    2CHTO   C16  822   3.893   7.298   1.989 -0.8473 -0.2395 -0.6581
    2CHTO   O11  823   4.007   7.310   2.067  0.2137  0.0526  0.8316
    2CHTO    H5  824   4.085   7.343   2.027  1.2535 -2.9624  0.2554
    2CHTO    O3  825   3.734   7.617   2.290 -0.2931 -0.3540 -0.0410
    2CHTO    C6  826   3.808   7.742   2.315 -0.1732 -0.3310  0.3013
    2CHTO   H19  827   3.808   7.800   2.222  0.2337  0.3956  0.7486
    2CHTO    C8  828   3.731   7.827   2.420 -0.0007  0.0926  0.2820
    2CHTO   H21  829   3.726   7.761   2.507  0.8333  0.6699  0.7737
    2CHTO    O7  830   3.600   7.850   2.363 -0.3157 -0.0628 -0.3786
    2CHTO    H2  831   3.605   7.923   2.305  1.7609  0.3614  0.2827
    2CHTO   C12  832   3.810   7.957   2.460  0.1326 -0.5989  0.3504
    2CHTO   H25  833   3.822   8.022   2.372 -0.6319 -0.9673 -0.0306
    2CHTO    N3  834   3.735   8.039   2.562 -0.3325 -0.0087 -0.0583
    2CHTO   H12  835   3.643   8.078   2.521 -1.3106 -1.7457  0.4247
    2CHTO   H13  836   3.714   7.991   2.656  0.2315 -0.7762 -0.3127
    2CHTO   C15  837   3.953   7.906   2.507 -0.2642 -0.4518 -0.0511
    2CHTO   H28  838   3.939   7.838   2.592  1.2814  0.3204  0.8449
    2CHTO   O10  839   4.049   8.020   2.547 -0.4909  0.0837  0.2691
    2CHTO    H4  840   4.098   8.055   2.475 -0.0535 -0.9596  0.0502
    2CHTO    O5  841   4.020   7.845   2.392 -0.1858  0.2317  0.3101
    2CHTO   C10  842   3.959   7.719   2.349 -0.4243  0.5037 -0.9182
    2CHTO   H23  843   3.972   7.631   2.412  2.4976 -0.3486 -2.5861
    2CHTO   C17  844   4.040   7.682   2.224  0.5222 -0.0805 -0.8207
    2CHTO   O12  845   4.157   7.599   2.249  0.7735  0.3175  0.1581
    2CHTO    H6  846   4.203   7.632   2.324 -0.2445 -0.5379  1.1665
    3CHTO  H203  847   7.285   2.477   0.912  0.2728  0.1903 -2.8625
    3CHTO   O82  848   7.358   2.420   0.929 -0.6148 -0.0149  0.5099
    3CHTO  C123  849   7.335   2.293   0.880 -0.0343  0.1449 -0.0298
    3CHTO  H227  850   7.346   2.297   0.770  0.7023  1.1450  0.0689
    3CHTO   O77  851   7.455   2.219   0.927  0.4151 -0.2338 -0.6034
    3CHTO  C118  852   7.469   2.080   0.922 -0.3112  1.0100  0.1440
    3CHTO  H222  853   7.472   2.055   0.815  2.7813 -1.3006  0.7134
    3CHTO  C125  854   7.614   2.038   0.995 -0.0293  0.0777 -0.1634
    3CHTO   O84  855   7.655   1.904   0.969  0.2125 -0.1783 -0.2139
    3CHTO  H205  856   7.657   1.899   0.875 -3.3561  1.6610 -0.4763
    3CHTO  C114  857   7.349   2.013   0.989 -0.5697  0.0205 -0.1289
    3CHTO  H218  858   7.348   2.040   1.095  0.3355 -0.2816 -0.0372
    3CHTO  C116  859   7.216   2.064   0.928  0.2527  0.5610  0.1379
    3CHTO  H220  860   7.216   2.021   0.826  1.6660  2.7739 -0.8125
    3CHTO   O79  861   7.118   2.001   1.008  0.2091 -0.3483  0.0622
    3CHTO  H201  862   7.119   1.910   0.984  1.0495 -0.6523  1.2286
    3CHTO  C120  863   7.202   2.221   0.933 -0.0614 -0.2696  0.3661
    3CHTO  H224  864   7.187   2.253   1.038  0.4589  0.7743  0.1295
    3CHTO   N21  865   7.083   2.261   0.857  0.3373 -0.5252 -0.1014
    3CHTO  H211  866   7.102   2.238   0.753  0.5041 -0.5467 -0.0664
    3CHTO  H212  867   7.065   2.367   0.866 -1.2847 -0.7995  0.0671
    3CHTO   O75  868   7.383   1.874   0.989  0.0286 -0.1198 -0.1225
    3CHTO  C112  869   7.295   1.786   1.106 -0.1251  0.3715  0.1598
    3CHTO  H216  870   7.190   1.790   1.072  0.2654  0.2633 -1.1055
    3CHTO   O73  871   7.312   1.847   1.234 -0.1851 -0.5668 -0.0916
    3CHTO  C113  872   7.232   1.798   1.338 -0.0089 -0.1486 -0.0451
    3CHTO  H217  873   7.128   1.831   1.316 -0.3282  0.4229  2.1946
    3CHTO  C124  874   7.280   1.863   1.466 -0.1285  0.0489 -0.1706
    3CHTO   O83  875   7.185   1.852   1.576 -0.8594 -0.3846 -0.4970
    3CHTO  H204  876   7.206   1.777   1.627 -0.0577 -0.6260 -1.1650
    3CHTO  C109  877   7.252   1.638   1.349  0.1351 -0.3769  0.2990
    3CHTO  H213  878   7.344   1.622   1.408 -0.5484  2.0276  2.0719
    3CHTO  C110  879   7.264   1.560   1.208 -0.3997  0.0366 -0.6358
    3CHTO  H214  880   7.162   1.551   1.169 -0.2466  1.2964 -1.3566
    3CHTO   O78  881   7.311   1.429   1.233  0.2539  0.0522 -0.7274
    3CHTO  H200  882   7.405   1.424   1.230  0.2641 -0.6842  0.7026
    3CHTO  C111  883   7.349   1.641   1.104  0.4765 -0.0783 -0.2942
    3CHTO  H215  884   7.448   1.644   1.153 -0.4382 -0.4195  1.6405
    3CHTO   N19  885   7.365   1.575   0.970  0.3762 -0.0758  0.1924
    3CHTO  H207  886   7.360   1.659   0.902 -2.2366  0.9556  1.5568
    3CHTO  H208  887   7.308   1.486   0.947 -0.7350  0.8765 -0.8259
    3CHTO   O74  888   7.144   1.599   1.429 -0.1485  0.3447  0.1175
    3CHTO  C115  889   7.124   1.472   1.516 -0.2728 -0.2176  0.0431
    3CHTO  H219  890   7.219   1.419   1.530 -0.6155 -0.5516  1.1399
    3CHTO   O76  891   7.071   1.512   1.671  0.5283  0.0669  0.0319
    3CHTO  C122  892   6.955   1.591   1.665 -0.9207 -0.4084 -0.0012
    3CHTO  H226  893   6.981   1.695   1.643  1.0570 -0.8491  0.1733
    3CHTO  C126  894   6.898   1.593   1.806 -0.2067 -0.2796  0.0300
    3CHTO   O85  895   6.774   1.664   1.821 -0.8666  0.1745 -0.2969
    3CHTO  H206  896   6.797   1.746   1.861  1.9594 -0.2307 -0.9825
    3CHTO  C121  897   6.848   1.549   1.552 -0.3021 -0.2292 -1.1239
    3CHTO  H225  898   6.744   1.550   1.589 -0.1909  1.4334 -0.8023
    3CHTO   O81  899   6.847   1.644   1.446 -0.5700 -0.1881  0.3543
    3CHTO  H202  900   6.930   1.664   1.408 -0.8278  1.7068  0.7134
    3CHTO  C119  901   6.877   1.401   1.507 -0.3186  0.6091  0.3075
    3CHTO  H223  902   6.881   1.347   1.601  2.7085  0.4982  0.1743
    3CHTO  C117  903   7.022   1.382   1.438 -0.0224  0.2273 -0.3855
    3CHTO  H221  904   7.030   1.415   1.334  1.0114 -0.9921 -0.7032
    3CHTO   N20  905   7.049   1.234   1.434 -0.4250  0.5122  0.5780
    3CHTO  H209  906   7.057   1.196   1.535 -1.7561  1.6494  1.1297
    3CHTO  H210  907   7.144   1.218   1.385  0.3155 -0.5469  2.2919
    3CHTO   O80  908   6.756   1.333   1.430  0.1831  0.1233 -0.2838
    3CHTO  C103  909   6.633   1.310   1.496 -0.2429  0.5030  0.9656
    3CHTO  H190  910   6.637   1.341   1.600 -0.1798 -0.5832  1.2976
    3CHTO  C101  911   6.501   1.372   1.426 -0.5906  0.0479 -0.0168
    3CHTO  H188  912   6.502   1.345   1.321  1.9178 -0.8439  0.2182
    3CHTO   O68  913   6.502   1.530   1.434 -0.4231 -0.0053 -0.2295
    3CHTO  H168  914   6.550   1.569   1.364 -1.1285 -0.7804 -1.1529
    3CHTO   C99  915   6.362   1.316   1.485  0.0871 -0.0473 -0.1670
    3CHTO  H186  916   6.358   1.334   1.595 -2.0609  1.0749 -0.3958
    3CHTO   N17  917   6.239   1.380   1.422 -0.2452 -0.0626 -0.2795
    3CHTO  H174  918   6.263   1.407   1.320 -1.8067  1.4861 -0.2501
    3CHTO  H175  919   6.191   1.464   1.469 -0.6929  0.1214 -1.0572
    3CHTO   C97  920   6.363   1.162   1.468  0.1371 -0.6796  0.5371
    3CHTO  H184  921   6.379   1.133   1.363 -0.0289 -1.2391  0.6614
    3CHTO   O64  922   6.473   1.123   1.552 -0.2415  0.0778 -0.3339
    3CHTO  C104  923   6.605   1.151   1.500  0.2516 -0.1016 -0.6160
    3CHTO  H191  924   6.621   1.113   1.399  3.4869  0.1456 -0.2648
    3CHTO  C108  925   6.716   1.083   1.580 -0.2326  0.0111  0.4834
    3CHTO   O71  926   6.708   1.133   1.712 -0.1188  0.2386 -0.2041
    3CHTO  H171  927   6.783   1.178   1.744 -0.5685  2.1595 -1.7327
    3CHTO   O62  928   6.246   1.094   1.515  0.6502  0.8444  0.3333
    3CHTO   C91  929   6.210   0.967   1.456  0.4047  0.2133  0.4875
    3CHTO  H178  930   6.231   0.974   1.350  0.2729 -0.3231  0.4238
    3CHTO   C92  931   6.055   0.948   1.464 -0.6577 -0.0746  0.1990
    3CHTO  H179  932   6.015   0.980   1.560 -0.1670 -0.2104  0.4526
    3CHTO   O66  933   5.997   1.035   1.369  0.2845  1.0235  1.3339
    3CHTO  H166  934   5.977   1.118   1.409 -0.3576  1.6247 -0.1992
    3CHTO   C93  935   6.012   0.803   1.442  0.0928 -0.1385  0.4609
    3CHTO  H180  936   6.021   0.792   1.333  1.1850  1.9520  0.3062
    3CHTO   N16  937   5.864   0.782   1.471  0.1891  0.2334  0.2450
    3CHTO  H172  938   5.812   0.875   1.486  0.5991  0.5414 -0.2141
    3CHTO  H173  939   5.817   0.724   1.393 -0.0729 -0.6544  1.0478
    3CHTO   C94  940   6.094   0.690   1.508 -0.2948 -0.1789 -0.1488
    3CHTO  H181  941   6.035   0.640   1.584 -1.0002  1.9669  0.7509
    3CHTO   O61  942   6.205   0.745   1.583  0.2153  0.0815  0.0449
    3CHTO   C95  943   6.287   0.848   1.527 -0.2402 -0.3080  0.4035
    3CHTO  H182  944   6.334   0.896   1.612 -1.6797 -1.3854  1.8509
    3CHTO  C106  945   6.386   0.786   1.424 -1.2112  0.1238  0.4695
    3CHTO   O69  946   6.493   0.714   1.483 -0.3324  0.1801  0.7743
    3CHTO  H169  947   6.482   0.623   1.466 -0.7513  0.4179 -0.3209
    3CHTO   O63  948   6.155   0.593   1.405  0.0428 -0.3417  0.6635
    3CHTO   C96  949   6.102   0.446   1.409 -0.0857 -0.1963 -0.3356
    3CHTO  H183  950   6.162   0.393   1.335  0.4762 -1.0583  0.7393
    3CHTO   C98  951   5.946   0.424   1.387 -0.9517 -0.0491  0.3269
    3CHTO  H185  952   5.887   0.483   1.459 -1.1614  0.0266  0.0950
    3CHTO   O67  953   5.928   0.476   1.249 -0.4577 -0.3728 -0.4127
    3CHTO  H167  954   5.844   0.462   1.211 -0.5311 -2.1566  0.3298
    3CHTO  C102  955   5.903   0.271   1.390 -0.1018 -0.0212  0.4321
    3CHTO  H189  956   5.964   0.223   1.313 -2.2818  0.6723 -1.7929
    3CHTO   N18  957   5.763   0.247   1.357 -0.1269  0.0808 -0.0791
    3CHTO  H176  958   5.753   0.229   1.250  1.4706 -1.3725  0.0083
    3CHTO  H177  959   5.726   0.162   1.413  2.0399  0.8995  2.6565
    3CHTO  C105  960   5.950   0.210   1.524  0.8407 -0.1500 -0.0598
    3CHTO  H192  961   5.884   0.253   1.599  1.3089  1.7215 -0.6952
    3CHTO   O65  962   6.091   0.239   1.542  0.4247 -0.4477  0.5425
    3CHTO  C100  963   6.133   0.376   1.546 -0.8776  0.1488 -0.1822
    3CHTO  H187  964   6.072   0.427   1.622 -0.4142 -0.9717  0.9590
    3CHTO  C107  965   6.285   0.388   1.575  0.3692 -0.3565  0.0246
    3CHTO   O70  966   6.320   0.329   1.700 -0.3357  0.0151  0.5152
    3CHTO  H170  967   6.400   0.282   1.686 -2.9058 -4.7773  1.0039
    3CHTO   O57  968   5.939   0.047   1.505  0.2377  0.4622  0.4158
    3CHTO   C85  969   5.915  -0.049   1.617 -0.5266 -0.6463 -0.2561
    3CHTO  H157  970   5.925  -0.151   1.574 -0.1962 -0.9056  0.4391
    3CHTO   C83  971   5.766  -0.039   1.659  0.6577 -0.2720 -0.4496
    3CHTO  H155  972   5.707  -0.069   1.573 -2.3893  1.7485  0.8915
    3CHTO   O56  973   5.731   0.091   1.700  0.4297  0.5147  0.3747
    3CHTO  H135  974   5.790   0.131   1.760 -0.7620  2.1626  0.4755
    3CHTO   C81  975   5.735  -0.142   1.764 -0.1306  0.8070 -0.0393
    3CHTO  H153  976   5.771  -0.237   1.724  0.8607  1.1696 -0.0212
    3CHTO   N14  977   5.591  -0.167   1.784 -0.0431  0.5062  0.2725
    3CHTO  H141  978   5.569  -0.087   1.851  0.9547  1.3351 -0.3620
    3CHTO  H142  979   5.563  -0.261   1.826 -2.0023  0.9455 -0.0338
    3CHTO   C79  980   5.817  -0.113   1.898 -0.3130 -0.3123  0.1327
    3CHTO  H151  981   5.801  -0.198   1.964 -2.7280 -0.0656 -0.0873
    3CHTO   O52  982   5.965  -0.106   1.860 -0.1580 -0.0766 -0.0871
    3CHTO   C86  983   6.009  -0.028   1.744 -0.4416 -0.1110  0.0370
    3CHTO  H158  984   6.010   0.079   1.774 -0.6249 -0.4441  1.2594
    3CHTO   C90  985   6.156  -0.053   1.704 -0.2290  0.1548 -0.3045
    3CHTO   O60  986   6.248   0.010   1.798  0.0358  0.1340  0.2009
    3CHTO  H138  987   6.335  -0.022   1.784 -0.1978 -1.5070  2.1770
    3CHTO   O50  988   5.791   0.011   1.966 -0.2935 -0.5611 -0.1482
    3CHTO   C73  989   5.786   0.067   2.101  0.4318  0.4193 -0.0893
    3CHTO  H145  990   5.862   0.021   2.166  1.0790 -1.0169 -1.8185
    3CHTO   C74  991   5.643   0.036   2.161 -0.2987 -0.0747 -0.0731
    3CHTO  H146  992   5.628  -0.073   2.157 -0.7559 -0.0013 -0.3591
    3CHTO   O54  993   5.656   0.065   2.303 -0.4150  0.5539 -0.3041
    3CHTO  H133  994   5.585   0.025   2.350  1.2698 -1.4526  0.5796
    3CHTO   C75  995   5.528   0.115   2.084 -0.1063 -0.1926 -0.1874
    3CHTO  H147  996   5.528   0.083   1.979  1.6002 -0.5118 -0.1076
    3CHTO   N13  997   5.392   0.095   2.132  0.0024 -0.1709 -0.2770
    3CHTO  H139  998   5.375   0.138   2.230  0.6807 -2.2639  0.7934
    3CHTO  H140  999   5.364  -0.009   2.136 -2.1703  0.4128 -0.0385
    3CHTO   C76 1000   5.564   0.270   2.079 -0.1763  0.5630  0.7060
    3CHTO  H148 1001   5.565   0.311   2.180  2.0713  0.3063  0.8156
    3CHTO   O49 1002   5.697   0.290   2.027 -0.0865 -0.0866 -0.1709
    3CHTO   C77 1003   5.807   0.221   2.085 -0.6917 -0.4350  0.1696
    3CHTO  H149 1004   5.839   0.261   2.182  0.9664  0.1011 -0.5984
    3CHTO   C88 1005   5.932   0.251   1.992 -0.3638  0.1551  0.4855
    3CHTO   O58 1006   6.064   0.183   2.059 -0.5038 -0.0279  0.6326
    3CHTO  H136 1007   6.084   0.096   2.030 -0.5985  0.2899 -0.4215
    3CHTO   O51 1008   5.480   0.347   1.966  0.7021 -0.4481 -0.1046
    3CHTO   C78 1009   5.504   0.503   1.965  0.2942  0.4293  0.3399
    3CHTO  H150 1010   5.600   0.536   2.009  0.5972 -0.2125  0.1798
    3CHTO   C80 1011   5.390   0.567   2.047  0.3798 -0.5188  0.3913
    3CHTO  H152 1012   5.290   0.526   2.020 -1.6585  3.4281  1.5383
    3CHTO   O55 1013   5.414   0.511   2.180  0.1297 -0.2025  0.0824
    3CHTO  H134 1014   5.343   0.513   2.242  1.1070  0.9843  1.1773
    3CHTO   C84 1015   5.409   0.722   2.046  0.1198 -0.5461 -0.5733
    3CHTO  H156 1016   5.500   0.741   2.102 -0.0392  1.8992 -1.0836
    3CHTO   N15 1017   5.301   0.791   2.120 -0.4723 -0.5076  0.0508
    3CHTO  H143 1018   5.240   0.840   2.048  0.4590 -2.1882 -1.9286
    3CHTO  H144 1019   5.332   0.850   2.204  2.4623 -1.8149 -0.0362
    3CHTO   C87 1020   5.421   0.766   1.898 -0.1144  0.2551 -0.3209
    3CHTO  H159 1021   5.326   0.773   1.845  1.1744 -1.1112 -2.9229
    3CHTO   O53 1022   5.514   0.685   1.806  0.1965 -0.1798  0.6962
    3CHTO   C82 1023   5.504   0.539   1.817 -0.1655  0.4448 -0.3708
    3CHTO  H154 1024   5.410   0.501   1.776  0.6496 -0.2258 -1.6224
    3CHTO   C89 1025   5.619   0.467   1.746  0.4785 -0.0563 -0.4619
    3CHTO   O59 1026   5.611   0.497   1.611  0.1002 -0.1475  0.1679
    3CHTO  H137 1027   5.684   0.449   1.576 -1.4190 -1.7096 -0.9519
    3CHTO   O45 1028   5.469   0.927   1.901 -0.2390 -0.2512 -0.9543
    3CHTO   C67 1029   5.608   0.968   1.883  0.8729  0.3118 -0.0993
    3CHTO  H124 1030   5.676   0.883   1.878  0.9538  0.3817 -0.1765
    3CHTO   C65 1031   5.622   1.049   1.744 -0.6123  0.0269  0.2944
    3CHTO  H122 1032   5.529   1.104   1.728 -0.4967  0.0451 -0.2901
    3CHTO   O44 1033   5.636   0.939   1.653  0.1842  0.1177  0.5449
    3CHTO  H102 1034   5.610   0.968   1.568  2.4627 -0.1139 -0.2824
    3CHTO   C63 1035   5.734   1.157   1.746 -0.2659 -0.3104  0.6388
    3CHTO  H120 1036   5.694   1.248   1.790  3.9862  2.6654 -1.2509
    3CHTO   N11 1037   5.778   1.212   1.612  0.3370  0.1353 -0.1163
    3CHTO  H108 1038   5.748   1.142   1.537  0.3965  0.5675 -0.5438
    3CHTO  H109 1039   5.742   1.308   1.581  2.3390  0.9111 -0.1420
    3CHTO   C61 1040   5.848   1.127   1.851 -0.1306 -0.2857 -0.7562
    3CHTO  H118 1041   5.915   1.215   1.849 -0.7062  0.2512  1.9403
    3CHTO   O40 1042   5.792   1.121   1.981  0.2936  0.2251 -0.2706
    3CHTO   C68 1043   5.659   1.063   1.997  0.4400  0.0784  0.4701
    3CHTO  H125 1044   5.589   1.150   1.996 -0.4476 -0.6022 -2.9358
    3CHTO   C72 1045   5.643   0.998   2.140  1.1466  0.5372  0.3198
    3CHTO   O48 1046   5.749   0.911   2.164 -0.1484  0.6580  0.1824
    3CHTO  H105 1047   5.719   0.828   2.196 -1.1222  0.7382 -0.5100
    3CHTO   O38 1048   5.935   1.018   1.810 -0.3764 -0.2799  0.1610
    3CHTO   C55 1049   6.050   0.974   1.889 -0.1164 -0.5435 -0.5026
    3CHTO  H112 1050   6.017   1.008   1.989 -0.9301  0.0735 -0.9807
    3CHTO   C56 1051   6.192   1.041   1.845  0.3749 -0.2218 -0.6657
    3CHTO  H113 1052   6.223   1.013   1.743  1.5310 -1.8255  0.1004
    3CHTO   O42 1053   6.174   1.183   1.845  0.0053 -0.1408  0.0922
    3CHTO  H100 1054   6.125   1.212   1.771  1.9896  1.3874 -0.6531
    3CHTO   C57 1055   6.298   0.999   1.949  0.3670  0.6871 -0.0542
    3CHTO  H114 1056   6.265   1.033   2.047  1.0287  1.3328 -0.0503
    3CHTO   N10 1057   6.434   1.050   1.913 -0.3832  0.1314  0.6124
    3CHTO  H106 1058   6.479   1.078   2.008 -0.4427  1.0732  0.3609
    3CHTO  H107 1059   6.437   1.136   1.848  0.3594 -0.9868 -0.8529
    3CHTO   C58 1060   6.303   0.843   1.949  0.6936  0.2657 -0.2936
    3CHTO  H115 1061   6.314   0.810   1.844  2.1005  1.0881 -0.4197
    3CHTO   O37 1062   6.175   0.795   1.998 -0.3925  0.2057 -0.4291
    3CHTO   C59 1063   6.073   0.819   1.900 -0.1686  0.2673 -0.2069
    3CHTO  H116 1064   6.103   0.782   1.802  2.8925 -0.0873  0.8104
    3CHTO   C70 1065   5.940   0.754   1.924 -1.4571  0.1339  0.0928
    3CHTO   O46 1066   5.960   0.609   1.919  0.3211 -0.2315  1.0237
    3CHTO  H103 1067   5.931   0.571   2.000  0.6531 -0.7342  0.9037
    3CHTO   O39 1068   6.412   0.775   2.030 -0.2729  0.3596 -0.1476
    3CHTO   C60 1069   6.488   0.669   1.969  0.4877 -0.1462 -0.0238
    3CHTO  H117 1070   6.452   0.647   1.868 -0.0016 -0.7575  0.2807
    3CHTO   C62 1071   6.639   0.713   1.953 -0.0052 -0.3006  0.5459
    3CHTO  H119 1072   6.639   0.806   1.892 -0.7275  0.3949  1.5850
    3CHTO   O43 1073   6.676   0.739   2.091 -0.2619 -0.0115 -0.2754
    3CHTO  H101 1074   6.693   0.832   2.095 -1.9009  0.4570 -3.0544
    3CHTO   C66 1075   6.728   0.602   1.876 -0.0699 -0.2717  0.2574
    3CHTO  H123 1076   6.664   0.558   1.799 -0.1196 -2.9663  1.7840
    3CHTO   N12 1077   6.842   0.664   1.813 -0.0248  0.1651 -0.2778
    3CHTO  H110 1078   6.908   0.585   1.779  0.6985  0.2565  0.9135
    3CHTO  H111 1079   6.906   0.716   1.883 -0.4949 -0.6394  0.7621
    3CHTO   C69 1080   6.753   0.490   1.984  0.5584  0.5212  0.5724
    3CHTO  H126 1081   6.831   0.518   2.059 -0.2101  2.2041  0.7506
    3CHTO   O41 1082   6.596   0.439   2.060  0.2862  0.0708  0.4198
    3CHTO   C64 1083   6.473   0.534   2.054  0.1325 -0.3883 -0.2378
    3CHTO  H121 1084   6.452   0.559   2.160 -0.1199  0.6388 -0.5291
    3CHTO   C71 1085   6.339   0.458   2.010 -0.1361  0.0913 -0.9587
    3CHTO   O47 1086   6.325   0.345   2.099  0.6555 -0.3527 -0.1333
    3CHTO  H104 1087   6.249   0.359   2.152  0.3763  1.5927 -1.0119
    3CHTO   O34 1088   6.819   0.367   1.912 -0.1191  0.0505  0.0558
    3CHTO   C49 1089   6.878   0.294   1.795 -0.6457 -0.0185  0.1443
    3CHTO   H91 1090   6.964   0.349   1.758  0.3197 -0.6282  1.4463
    3CHTO   C47 1091   6.776   0.274   1.676  0.5475  0.2928 -0.4601
    3CHTO   H89 1092   6.767   0.368   1.618  2.3867  1.4249  1.0341
    3CHTO   O33 1093   6.641   0.233   1.715  0.5157  0.0835 -0.0399
    3CHTO   H70 1094   6.579   0.268   1.655  2.1717  3.4890  0.1070
    3CHTO   C45 1095   6.813   0.157   1.562 -0.4935 -0.2734 -0.3437
    3CHTO   H87 1096   6.755   0.068   1.591  1.0871 -1.5059 -0.8519
    3CHTO    N8 1097   6.777   0.192   1.428  0.3125  0.0222 -0.0726
    3CHTO   H75 1098   6.823   0.272   1.373 -0.4896  0.8563  0.4621
    3CHTO   H76 1099   6.672   0.216   1.424  0.2523 -0.5318 -2.6490
    3CHTO   C43 1100   6.967   0.117   1.580  0.0104  0.0976 -0.1272
    3CHTO   H85 1101   6.979   0.033   1.512  0.4957  0.8689 -1.0076
    3CHTO   O29 1102   6.984   0.078   1.714  0.4656  0.0175 -0.2527
    3CHTO   C50 1103   6.936   0.148   1.831  0.5919  0.5445 -0.1466
    3CHTO   H92 1104   6.870   0.086   1.894  1.2079  0.9362  0.8794
    3CHTO   C54 1105   7.053   0.159   1.925 -0.1262  0.0268 -0.0304
    3CHTO   O36 1106   7.165   0.230   1.875 -0.4104  0.4542  0.8745
    3CHTO   H72 1107   7.138   0.294   1.812  1.5627 -0.2493 -0.7557
    3CHTO   O27 1108   7.065   0.214   1.535 -0.0855 -0.0675  0.0813
    3CHTO   C37 1109   7.192   0.245   1.475 -0.0151 -0.1111  1.0559
    3CHTO   H79 1110   7.276   0.212   1.537  1.7179  0.0804 -1.1485
    3CHTO   C38 1111   7.207   0.164   1.345  0.5011 -0.8218 -0.3396
    3CHTO   H80 1112   7.108   0.166   1.297 -0.8795 -1.2621  2.4252
    3CHTO   O31 1113   7.229   0.028   1.381  0.3672  0.1419  0.5128
    3CHTO   H68 1114   7.255  -0.036   1.318 -0.9703  1.3474 -1.3151
    3CHTO   C39 1115   7.327   0.216   1.257 -0.0828 -0.2078  0.2020
    3CHTO   H81 1116   7.424   0.198   1.305  0.9721 -1.0456 -2.1670
    3CHTO    N7 1117   7.325   0.163   1.114 -0.2932  0.9408 -0.3361
    3CHTO   H73 1118   7.417   0.188   1.064  0.3084  0.8896  0.7228
    3CHTO   H74 1119   7.303   0.057   1.115  0.9855  0.6591 -1.7255
    3CHTO   C40 1120   7.320   0.376   1.246  0.2972 -0.4739  0.6403
    3CHTO   H82 1121   7.230   0.420   1.204  0.9932  0.3286 -0.0247
    3CHTO   O26 1122   7.339   0.417   1.379 -0.3095 -0.2523  0.2551
    3CHTO   C41 1123   7.208   0.393   1.444  0.3225 -0.2622 -0.1076
    3CHTO   H83 1124   7.120   0.431   1.390  0.3499  1.2183  0.8556
    3CHTO   C52 1125   7.214   0.468   1.582  0.0446 -0.2973 -0.4840
    3CHTO   O35 1126   7.208   0.607   1.572 -0.1662 -0.0246  0.0647
    3CHTO   H71 1127   7.132   0.649   1.608 -1.7031 -0.5387 -2.4186
    3CHTO   O28 1128   7.437   0.430   1.186 -0.1625  0.5634  0.5061
    3CHTO   C42 1129   7.438   0.562   1.123 -0.4088  0.7109 -0.5060
    3CHTO   H84 1130   7.542   0.581   1.097 -0.1419 -0.2958 -0.1923
    3CHTO   C44 1131   7.389   0.679   1.223  0.2806 -0.6562  0.6670
    3CHTO   H86 1132   7.306   0.642   1.282 -1.1438  0.9475 -0.3131
    3CHTO   O32 1133   7.498   0.697   1.318 -0.0892 -0.3876 -0.4850
    3CHTO   H69 1134   7.464   0.699   1.406  0.6367 -2.1116 -0.1447
    3CHTO   C48 1135   7.339   0.819   1.152  0.2145  0.5163 -0.2168
    3CHTO   H90 1136   7.428   0.854   1.099 -0.2587  0.4526 -1.0613
    3CHTO    N9 1137   7.313   0.928   1.256 -0.0706 -0.4846 -0.1738
    3CHTO   H77 1138   7.336   0.889   1.353  2.7192 -0.1763 -0.6803
    3CHTO   H78 1139   7.374   1.015   1.236  1.5955 -2.4228 -4.2033
    3CHTO   C51 1140   7.221   0.775   1.061 -0.2546 -0.6867  0.1758
    3CHTO   H93 1141   7.152   0.717   1.123 -0.9104  1.7859  1.8290
    3CHTO   O30 1142   7.278   0.700   0.955 -0.4372 -0.3082  0.4446
    3CHTO   C46 1143   7.359   0.560   0.992 -0.1462  0.2728 -0.4788
    3CHTO   H88 1144   7.286   0.480   0.998  0.0444  0.2864  2.7892
    3CHTO   C53 1145   7.461   0.541   0.877 -0.0796 -0.6396 -0.3188
    3CHTO   O72 1146   7.383   0.510   0.757 -0.1097  0.1768 -0.1068
    3CHTO  H199 1147   7.440   0.474   0.692  1.7890 -2.1097  2.6889
    3CHTO   O22 1148   7.154   0.886   0.997  0.5234 -0.5527 -0.5763
    3CHTO   C31 1149   7.006   0.887   0.975  0.3051 -0.3648 -0.3319
    3CHTO   H59 1150   6.977   0.795   0.921 -1.8481  1.2576 -2.0262
    3CHTO   C29 1151   6.922   0.897   1.100  0.6820  0.2334  0.0928
    3CHTO   H57 1152   6.946   0.981   1.168  0.5955  0.2325  0.1236
    3CHTO   O21 1153   6.937   0.773   1.170 -0.1158 -0.2510 -0.0774
    3CHTO   H37 1154   7.025   0.743   1.170 -0.0289 -0.0627  2.4079
    3CHTO   C27 1155   6.766   0.917   1.066 -0.1200 -0.1902 -0.2842
    3CHTO   H55 1156   6.733   0.826   1.013  1.4124  0.1354 -1.8654
    3CHTO    N5 1157   6.689   0.940   1.188  0.7851  0.5306 -0.1154
    3CHTO   H43 1158   6.604   0.874   1.192  2.2280 -1.3691  0.0209
    3CHTO   H44 1159   6.667   1.045   1.195 -2.0945 -0.0946  0.8342
    3CHTO   C25 1160   6.748   1.027   0.964 -0.8270 -0.7871  0.7319
    3CHTO   H53 1161   6.755   1.131   0.996 -1.3417 -0.8912  1.1682
    3CHTO   O17 1162   6.839   1.008   0.841 -0.2571  0.7180  0.9030
    3CHTO   C32 1163   6.979   0.999   0.874 -0.3130 -0.4763  0.0035
    3CHTO   H60 1164   7.003   1.095   0.919 -2.0103 -0.5736  1.1625
    3CHTO   C36 1165   7.067   0.982   0.750 -0.2071 -0.2476  0.1521
    3CHTO   O25 1166   7.024   0.875   0.664  0.1060 -0.2181 -0.5182
    3CHTO   H40 1167   7.084   0.874   0.592 -1.2715 -0.1567 -1.6979
    3CHTO   O15 1168   6.597   1.024   0.917 -0.1565  0.2091  0.6699
    3CHTO   C19 1169   6.522   1.146   0.885  0.0604  0.4044 -0.2337
    3CHTO   H47 1170   6.427   1.110   0.842  0.4578 -0.3177 -0.5051
    3CHTO   C20 1171   6.487   1.244   1.007 -0.0806  0.5028  0.8508
    3CHTO   H48 1172   6.578   1.291   1.046  0.6780  1.3543 -1.8479
    3CHTO   O19 1173   6.418   1.166   1.108 -0.2823 -0.0164  0.7893
    3CHTO   H35 1174   6.366   1.221   1.163 -1.1754  0.7300 -0.7461
    3CHTO   C21 1175   6.388   1.365   0.956 -0.3402 -0.3261  0.0640
    3CHTO   H49 1176   6.292   1.330   0.917 -0.0189  0.6091 -1.6175
    3CHTO    N4 1177   6.352   1.471   1.057  0.3849 -0.3491  0.3565
    3CHTO   H41 1178   6.307   1.425   1.145 -0.5184 -0.0803  0.0382
    3CHTO   H42 1179   6.445   1.514   1.092 -0.6733  2.5429 -0.3150
    3CHTO   C22 1180   6.453   1.426   0.830 -0.1268  1.0158  0.4645
    3CHTO   H50 1181   6.544   1.477   0.860 -0.4215  1.0779  1.2729
    3CHTO   O14 1182   6.483   1.330   0.726 -0.6264  0.0905 -0.7093
    3CHTO   C23 1183   6.584   1.236   0.768  0.3715  0.3212  0.2361
    3CHTO   H51 1184   6.676   1.287   0.802 -0.5247 -0.4165  4.0259
    3CHTO   C34 1185   6.609   1.134   0.648  0.9288 -0.1963 -0.1661
    3CHTO   O23 1186   6.664   1.199   0.537 -0.2624  0.1169 -0.2997
    3CHTO   H38 1187   6.618   1.280   0.521 -0.3253  0.0296 -0.5591
    3CHTO   O16 1188   6.363   1.521   0.763 -0.1168  0.1461  0.0962
    3CHTO   C24 1189   6.442   1.626   0.655 -0.3559  0.0676 -0.3279
    3CHTO   H52 1190   6.546   1.596   0.638 -0.3340  0.0233 -0.1133
    3CHTO   C26 1191   6.445   1.770   0.711  0.7780 -0.4727 -0.1306
    3CHTO   H54 1192   6.339   1.804   0.724  1.8119  2.2033  1.9124
    3CHTO   O20 1193   6.508   1.772   0.847  0.5025  0.6411 -0.1633
    3CHTO   H36 1194   6.543   1.857   0.861  1.6216  0.1804 -0.1004
    3CHTO   C30 1195   6.522   1.862   0.605 -0.4496 -0.3516  0.0902
    3CHTO   H58 1196   6.623   1.818   0.602 -0.6400 -0.7856 -0.0346
    3CHTO    N6 1197   6.535   2.003   0.655 -0.2824  0.5362  0.8022
    3CHTO   H45 1198   6.468   2.069   0.602 -0.1317 -0.1173 -0.2218
    3CHTO   H46 1199   6.636   2.038   0.638  0.6681 -2.1257  0.7641
    3CHTO   C33 1200   6.455   1.850   0.470 -0.4531  0.9392 -0.5280
    3CHTO   H61 1201   6.354   1.894   0.481 -1.3163 -0.8712 -0.9369
    3CHTO   O18 1202   6.451   1.707   0.438  0.4063  0.2062  0.8855
    3CHTO   C28 1203   6.366   1.625   0.518  0.0850 -0.1945 -0.4234
    3CHTO   H56 1204   6.271   1.677   0.525  0.2543 -0.1817  1.9581
    3CHTO   C35 1205   6.362   1.478   0.450 -0.5151 -0.2732 -0.2061
    3CHTO   O24 1206   6.248   1.407   0.484  0.6886  0.2254  0.5763
    3CHTO   H39 1207   6.231   1.427   0.574 -1.6693 -2.3411  0.7722
    3CHTO    O9 1208   6.534   1.929   0.367  0.2607  0.3414 -0.1975
    3CHTO   C13 1209   6.682   1.898   0.347  0.8208 -0.0652  0.7315
    3CHTO   H26 1210   6.720   1.863   0.445 -1.6068 -2.4250  0.8786
    3CHTO   C11 1211   6.752   2.031   0.298  0.0303  0.0382  0.3514
    3CHTO   H24 1212   6.741   2.103   0.380 -1.3318  1.6158 -1.1706
    3CHTO    O8 1213   6.702   2.072   0.170  0.4514 -0.3041 -0.3741
    3CHTO    H3 1214   6.615   2.098   0.193  0.7305  1.5943 -1.3435
    3CHTO    C9 1215   6.903   1.991   0.295 -0.8599 -0.1568 -0.4919
    3CHTO   H22 1216   6.929   1.961   0.397 -1.9401 -0.8162 -0.3977
    3CHTO    N2 1217   6.996   2.096   0.272  0.2250 -0.4104  0.2247
    3CHTO   H10 1218   6.990   2.116   0.166  0.5852 -0.1860  0.2469
    3CHTO   H11 1219   6.977   2.184   0.330 -0.8911  1.3830 -2.7291
    3CHTO    C7 1220   6.928   1.855   0.215  0.2589  0.3098 -0.3733
    3CHTO   H20 1221   6.969   1.776   0.281  0.6243 -1.2982 -2.4706
    3CHTO    O4 1222   6.816   1.796   0.150 -0.1423  0.0900 -0.2812
    3CHTO   C14 1223   6.710   1.767   0.246  0.2150  0.1822 -0.0144
    3CHTO   H27 1224   6.723   1.681   0.314  0.3398  0.7620  0.7110
    3CHTO   C18 1225   6.584   1.738   0.155 -0.3738 -0.2515 -0.0954
    3CHTO   O13 1226   6.595   1.614   0.078 -0.2146 -0.1690  0.4454
    3CHTO    H7 1227   6.671   1.616   0.023  0.9581 -0.0816  2.0246
    3CHTO    O2 1228   7.049   1.882   0.097 -0.1300 -0.7305 -0.1846
    3CHTO    C1 1229   7.171   1.807   0.121  0.0122 -0.0711 -0.0585
    3CHTO   H14 1230   7.176   1.762   0.222  0.9132  0.7566  0.2787
    3CHTO    C2 1231   7.305   1.901   0.096 -0.4502  0.4938 -0.5442
    3CHTO   H15 1232   7.294   1.942  -0.006  0.3931 -1.1771 -1.3314
    3CHTO    O6 1233   7.295   2.005   0.195 -0.3373 -0.4025 -0.0859
    3CHTO    H1 1234   7.327   2.088   0.165  0.4728 -0.6201  0.1627
    3CHTO    C3 1235   7.439   1.817   0.109 -0.5903 -0.2053  0.0556
    3CHTO   H16 1236   7.444   1.783   0.214  0.0368 -0.1839  0.0358
    3CHTO    N1 1237   7.561   1.900   0.085  0.0905 -0.4148  0.2383
    3CHTO    H8 1238   7.541   1.968   0.004 -1.6493 -3.1865 -1.7316
    3CHTO    H9 1239   7.605   1.951   0.170  1.0688 -0.6801 -0.0992
    3CHTO    C4 1240   7.434   1.694   0.020 -0.9096  0.9063  0.3236
    3CHTO   H17 1241   7.445   1.729  -0.082 -1.6037 -2.9641 -1.1481
    3CHTO    O1 1242   7.314   1.620   0.037 -0.3382 -0.7637 -0.3081
    3CHTO    C5 1243   7.185   1.693   0.019  0.4684 -0.5837  0.2094
    3CHTO   H18 1244   7.169   1.729  -0.082  0.1663  0.6434  0.6768
    3CHTO   C16 1245   7.073   1.584   0.054  0.0162  0.2387 -0.2486
    3CHTO   O11 1246   7.095   1.458  -0.013 -0.0028 -0.5862 -0.2293
    3CHTO    H5 1247   7.149   1.392   0.026  1.4693  0.3402 -0.7050
    3CHTO    O3 1248   7.543   1.595   0.045  0.4052 -0.1934 -0.0938
    3CHTO    C6 1249   7.554   1.499  -0.068  1.0613  0.2264 -0.2832
    3CHTO   H19 1250   7.466   1.507  -0.133  1.8271  2.4449 -1.1020
    3CHTO    C8 1251   7.686   1.528  -0.148 -0.0313  0.2380  0.0827
    3CHTO   H21 1252   7.769   1.519  -0.079  0.9619  0.0938 -1.1087
    3CHTO    O7 1253   7.681   1.665  -0.203 -0.1389  0.5232  0.0646
    3CHTO    H2 1254   7.756   1.668  -0.259  0.1402 -2.3112  0.1914
    3CHTO   C12 1255   7.693   1.415  -0.262  0.0799  0.2372  0.0172
    3CHTO   H25 1256   7.601   1.436  -0.322 -1.1334 -0.7208  1.5060
    3CHTO    N3 1257   7.815   1.432  -0.347 -0.1621  0.0414  0.6508
    3CHTO   H12 1258   7.791   1.496  -0.431 -1.1611 -1.0849  0.0760
    3CHTO   H13 1259   7.870   1.341  -0.366  0.0542 -0.0113  1.5191
    3CHTO   C15 1260   7.678   1.270  -0.191 -0.2914 -0.6555 -0.0671
    3CHTO   H28 1261   7.770   1.255  -0.134 -0.4047  1.1790  0.6382
    3CHTO   O10 1262   7.673   1.162  -0.307  0.2526  0.0590 -0.8965
    3CHTO    H4 1263   7.668   1.075  -0.273 -1.7886  1.4263  2.6026
    3CHTO    O5 1264   7.562   1.252  -0.107 -0.9644 -0.0567  0.0619
    3CHTO   C10 1265   7.553   1.357  -0.005 -0.5016  0.3984  0.0160
    3CHTO   H23 1266   7.636   1.352   0.065  1.2179  0.0238 -1.9890
    3CHTO   C17 1267   7.424   1.324   0.063  0.6488  0.3427  0.2662
    3CHTO   O12 1268   7.404   1.353   0.199 -0.0262 -0.7903 -0.1551
    3CHTO    H6 1269   7.419   1.275   0.249 -0.4959 -1.0676 -0.4524
    4CHTO  H203 1270   7.070   7.985   2.271  0.9821  0.0043 -0.2975
    4CHTO   O82 1271   7.087   8.064   2.319 -0.2221  0.0978  0.0144
    4CHTO  C123 1272   7.035   8.175   2.241 -0.4835 -0.0704  0.6394
    4CHTO  H227 1273   6.931   8.195   2.272 -0.2424  0.4896  1.0926
    4CHTO   O77 1274   7.106   8.297   2.278  0.3765 -0.3672  0.4087
    4CHTO  C118 1275   7.041   8.413   2.238  0.8650  0.4684  0.8238
    4CHTO  H222 1276   6.938   8.416   2.277  0.8492  0.2658  0.7936
    4CHTO  C125 1277   7.125   8.538   2.304  0.3037  0.2564 -0.4321
    4CHTO   O84 1278   7.144   8.532   2.450 -0.0008 -0.1939 -1.3684
    4CHTO  H205 1279   7.085   8.591   2.491 -1.0504 -1.5206 -0.9342
    4CHTO  C114 1280   7.042   8.430   2.085  0.6613  0.8546  1.0953
    4CHTO  H218 1281   7.145   8.440   2.051 -0.0955 -0.4096 -1.8090
    4CHTO  C116 1282   6.980   8.299   2.023  0.4320  0.1780 -0.0766
    4CHTO  H220 1283   6.871   8.295   2.045  0.5858 -0.5386  0.5786
    4CHTO   O79 1284   6.996   8.301   1.878 -0.0751 -0.1534 -0.1629
    4CHTO  H201 1285   6.937   8.240   1.839 -0.8640 -2.1423  3.8131
    4CHTO  C120 1286   7.035   8.163   2.082  0.1772  0.2833 -0.2030
    4CHTO  H224 1287   7.140   8.158   2.049 -0.5407 -0.0723 -2.5377
    4CHTO   N21 1288   6.959   8.044   2.038  0.0098 -0.1750  0.0811
    4CHTO  H211 1289   6.964   7.961   2.107 -0.1051  2.2809  3.1609
    4CHTO  H212 1290   7.017   8.023   1.950 -0.6974  2.9456 -1.1872
    4CHTO   O75 1291   6.973   8.552   2.061 -0.1159  0.0798  0.7600
    4CHTO  C112 1292   7.027   8.639   1.919  0.4863 -0.5913 -0.0171
    4CHTO  H216 1293   6.995   8.596   1.823  0.1788 -0.2311 -0.0769
    4CHTO   O73 1294   7.166   8.653   1.933 -0.2248  0.1245  0.2825
    4CHTO  C113 1295   7.234   8.726   1.832 -0.7540  0.0377 -0.0075
    4CHTO  H217 1296   7.243   8.671   1.736 -0.3490 -2.0781  1.2120
    4CHTO  C124 1297   7.374   8.738   1.890  0.5642 -0.6062  0.1497
    4CHTO   O83 1298   7.448   8.617   1.899 -0.1088 -0.6715  0.1353
    4CHTO  H204 1299   7.417   8.565   1.971  0.1990  0.6427  1.2325
    4CHTO  C109 1300   7.181   8.868   1.795  0.8088  0.2107 -0.3904
    4CHTO  H213 1301   7.222   8.939   1.869  0.4198  0.7588 -0.6945
    4CHTO  C110 1302   7.026   8.859   1.793 -0.2900  0.6540 -0.1119
    4CHTO  H214 1303   6.997   8.800   1.706  1.6559 -0.1411 -0.2522
    4CHTO   O78 1304   6.975   8.990   1.766  0.4020  0.3710 -0.0744
    4CHTO  H200 1305   6.965   9.039   1.846  1.1681  1.8170 -0.8360
    4CHTO  C111 1306   6.971   8.789   1.923 -0.8234  0.6267  0.5424
    4CHTO  H215 1307   7.011   8.843   2.010  1.7917  0.2460 -0.3760
    4CHTO   N19 1308   6.824   8.782   1.943  0.1609 -0.4033  0.0816
    4CHTO  H207 1309   6.783   8.750   1.848  0.2860 -0.5413  0.0748
    4CHTO  H208 1310   6.784   8.882   1.953  1.1185  0.0038 -0.1566
    4CHTO   O74 1311   7.233   8.905   1.675  0.0361  0.3233  0.4556
    4CHTO  C115 1312   7.273   9.060   1.625 -0.3507 -0.3286 -0.8483
    4CHTO  H219 1313   7.197   9.132   1.654  0.8259  0.4254  0.4007
    4CHTO   O76 1314   7.393   9.110   1.701  0.0988 -0.6529 -0.3851
    4CHTO  C122 1315   7.511   9.020   1.672  0.1173  0.6409 -0.3066
    4CHTO  H226 1316   7.510   8.937   1.744  0.4286  0.3275 -0.6577
    4CHTO  C126 1317   7.647   9.100   1.702  0.0825  0.1106 -0.2052
    4CHTO   O85 1318   7.655   9.225   1.630 -0.3226 -0.2020  0.2283
    4CHTO  H206 1319   7.740   9.251   1.600 -1.0569 -0.9587 -2.7068
    4CHTO  C121 1320   7.514   8.965   1.517 -0.0918  0.2368  0.4752
    4CHTO  H225 1321   7.620   8.966   1.484 -0.7715 -2.4851 -2.0181
    4CHTO   O81 1322   7.489   8.829   1.517  0.2153  0.0367  0.2571
    4CHTO  H202 1323   7.464   8.801   1.431 -3.6114 -0.2127  1.3207
    4CHTO  C119 1324   7.423   9.042   1.416 -0.6475  1.1071  0.4455
    4CHTO  H223 1325   7.465   9.142   1.425  0.2037  0.7208  0.8753
    4CHTO  C117 1326   7.274   9.058   1.466  0.1110  0.2234 -0.1633
    4CHTO  H221 1327   7.207   8.976   1.443  2.1775 -2.6806  3.4490
    4CHTO   N20 1328   7.217   9.186   1.405  0.4871 -0.8201 -0.4326
    4CHTO  H209 1329   7.229   9.192   1.297  0.1152 -1.8135 -0.5365
    4CHTO  H210 1330   7.110   9.186   1.421  0.6877 -0.6902  0.9740
    4CHTO   O80 1331   7.449   9.005   1.260  0.2298 -0.0138 -0.0197
    4CHTO  C103 1332   7.577   9.018   1.210 -0.0527  0.2077 -0.0332
    4CHTO  H190 1333   7.645   9.044   1.291 -1.0933  1.4614  0.4586
    4CHTO  C101 1334   7.625   8.881   1.144  0.2901 -0.0778  0.0287
    4CHTO  H188 1335   7.552   8.853   1.068 -0.6907  0.0853  0.9084
    4CHTO   O68 1336   7.637   8.755   1.250 -0.2495  0.1170 -0.0724
    4CHTO  H168 1337   7.641   8.796   1.335 -1.2861 -1.3072  0.6825
    4CHTO   C99 1338   7.759   8.904   1.052  0.0626  0.2379 -0.7354
    4CHTO  H186 1339   7.849   8.923   1.114  0.1290 -1.3127 -0.3323
    4CHTO   N17 1340   7.794   8.786   0.966  0.2973 -0.2513  0.3862
    4CHTO  H174 1341   7.888   8.800   0.914 -0.7561  1.0027 -1.2215
    4CHTO  H175 1342   7.708   8.760   0.907  1.1908 -2.9661  0.2018
    4CHTO   C97 1343   7.739   9.026   0.962 -1.1988 -0.0561 -0.3372
    4CHTO  H184 1344   7.657   9.009   0.890 -2.2014 -1.1183  1.0174
    4CHTO   O64 1345   7.712   9.144   1.039 -0.1838 -0.1463 -0.5376
    4CHTO  C104 1346   7.580   9.132   1.099  0.1316 -0.4061 -0.2990
    4CHTO  H191 1347   7.505   9.111   1.023 -1.4053 -0.1261  1.1223
    4CHTO  C108 1348   7.548   9.270   1.152 -0.1747  0.2679  0.2496
    4CHTO   O71 1349   7.653   9.329   1.235  0.1311 -0.1245 -0.5247
    4CHTO  H171 1350   7.649   9.422   1.227  1.4407 -0.0986 -0.9244
    4CHTO   O62 1351   7.865   9.070   0.901  0.2692 -0.0589  0.2119
    4CHTO   C91 1352   7.854   9.158   0.788 -0.1737  0.3326 -0.2628
    4CHTO  H178 1353   7.751   9.191   0.779 -0.1975  0.0368 -1.0833
    4CHTO   C92 1354   7.894   9.092   0.667  0.1610 -0.2123  0.2982
    4CHTO  H179 1355   8.000   9.063   0.679  0.7527  1.3320 -1.0462
    4CHTO   O66 1356   7.816   8.972   0.651 -0.4320  0.3914  0.2898
    4CHTO  H166 1357   7.854   8.917   0.586 -1.0689  0.9125 -0.5350
    4CHTO   C93 1358   7.866   9.188   0.541 -0.0871 -0.2557  0.0928
    4CHTO  H180 1359   7.758   9.209   0.547 -0.1541 -1.0113  1.6102
    4CHTO   N16 1360   7.899   9.115   0.413  0.0793  0.2449 -0.3306
    4CHTO  H172 1361   7.829   9.032   0.419 -0.5793  0.9255  2.1550
    4CHTO  H173 1362   7.852   9.173   0.335  0.0793  0.3407 -0.2593
    4CHTO   C94 1363   7.944   9.318   0.559 -0.3975  0.4592 -0.6491
    4CHTO  H181 1364   8.052   9.301   0.556 -0.8971 -3.1083  0.2081
    4CHTO   O61 1365   7.921   9.372   0.690  0.4898 -0.2463 -0.1925
    4CHTO   C95 1366   7.940   9.284   0.803 -0.2121 -0.0087  0.0957
    4CHTO  H182 1367   8.045   9.255   0.809 -0.2582 -0.5579 -1.4943
    4CHTO  C106 1368   7.908   9.375   0.934 -0.4283  0.0788  0.1572
    4CHTO   O69 1369   7.775   9.425   0.921 -0.2870 -0.1526 -0.1620
    4CHTO  H169 1370   7.728   9.412   1.000  0.5587 -0.1826  0.3450
    4CHTO   O63 1371   7.904   9.431   0.448  0.0271 -0.0513  0.3097
    4CHTO   C96 1372   7.774   9.509   0.483 -0.5003  0.1847 -0.2027
    4CHTO  H183 1373   7.742   9.481   0.583  0.6199  0.7806  0.3404
    4CHTO   C98 1374   7.655   9.497   0.385 -0.4856  0.0750 -0.0507
    4CHTO  H185 1375   7.695   9.516   0.284 -0.1639 -0.4523 -0.0265
    4CHTO   O67 1376   7.624   9.354   0.389  0.2128  0.5601  1.0328
    4CHTO  H167 1377   7.684   9.304   0.338  0.6652 -0.4045  2.4500
    4CHTO  C102 1378   7.526   9.582   0.422 -0.0319  0.3326 -0.1941
    4CHTO  H189 1379   7.463   9.517   0.484  2.4055 -1.1768  0.7585
    4CHTO   N18 1380   7.443   9.611   0.300 -0.0506 -0.5459  0.0647
    4CHTO  H176 1381   7.501   9.675   0.236 -2.3708 -0.4931 -2.0614
    4CHTO  H177 1382   7.350   9.654   0.335  0.1541  1.1410 -1.4628
    4CHTO  C105 1383   7.568   9.701   0.510 -0.2098 -0.2957 -0.0203
    4CHTO  H192 1384   7.503   9.784   0.485  0.0200 -0.0729  0.1264
    4CHTO   O65 1385   7.706   9.754   0.500  0.2957  0.3020 -0.0843
    4CHTO  C100 1386   7.819   9.662   0.505 -0.0226  0.1453  0.5115
    4CHTO  H187 1387   7.871   9.693   0.413  0.2973 -1.7753  0.0322
    4CHTO  C107 1388   7.896   9.687   0.631 -0.3615 -0.0207 -0.0612
    4CHTO   O70 1389   7.816   9.717   0.743 -0.0763 -0.1039  0.1830
    4CHTO  H170 1390   7.869   9.754   0.811 -1.4740 -0.1096  1.3206
    4CHTO   O57 1391   7.542   9.656   0.666 -0.8832 -0.4521  0.1015
    4CHTO   C85 1392   7.454   9.729   0.752 -0.0093 -0.6277  0.1874
    4CHTO  H157 1393   7.498   9.821   0.795  0.2623 -0.0546 -1.2678
    4CHTO   C83 1394   7.449   9.633   0.876 -0.2073 -0.5970 -0.4325
    4CHTO  H155 1395   7.540   9.650   0.933 -0.0700  0.4461 -0.9542
    4CHTO   O56 1396   7.454   9.491   0.840  0.0456 -0.9064 -0.0044
    4CHTO  H135 1397   7.378   9.470   0.789  0.0377 -0.6773 -0.0912
    4CHTO   C81 1398   7.323   9.668   0.965 -0.4854 -0.1600  0.4228
    4CHTO  H153 1399   7.326   9.775   0.986  1.2159  0.4530 -2.5819
    4CHTO   N14 1400   7.321   9.608   1.098 -0.0288  0.2306 -0.7886
    4CHTO  H141 1401   7.314   9.678   1.178 -0.6217 -1.4176  0.6251
    4CHTO  H142 1402   7.245   9.534   1.110  0.6052 -0.4017 -0.6594
    4CHTO   C79 1403   7.196   9.644   0.871  0.2849 -0.2968  0.3696
    4CHTO  H151 1404   7.106   9.658   0.931 -0.3013  2.5462 -1.0630
    4CHTO   O52 1405   7.191   9.753   0.773 -0.1187  0.7460  0.2774
    4CHTO   C86 1406   7.306   9.762   0.687  0.0735  0.2557 -0.2688
    4CHTO  H158 1407   7.296   9.697   0.597 -0.8439  1.7257 -1.2493
    4CHTO   C90 1408   7.304   9.905   0.638 -0.3954  0.2106 -0.2897
    4CHTO   O60 1409   7.191   9.938   0.564  0.5289  0.5561  0.8988
    4CHTO  H138 1410   7.211   9.995   0.493 -2.4058  0.3420 -0.1756
    4CHTO   O50 1411   7.193   9.519   0.799 -0.9860  0.0651 -0.4367
    4CHTO   C73 1412   7.082   9.427   0.777 -0.0287  0.9309  0.0146
    4CHTO  H145 1413   6.995   9.486   0.745 -0.2723 -0.0386 -1.1287
    4CHTO   C74 1414   7.058   9.341   0.906 -0.2506 -0.2386 -0.8147
    4CHTO  H146 1415   7.041   9.406   0.992  0.5125 -0.8717 -0.1800
    4CHTO   O54 1416   6.935   9.266   0.891 -0.2990  0.4877  0.0638
    4CHTO  H133 1417   6.935   9.201   0.959  0.7665  0.5462  0.1376
    4CHTO   C75 1418   7.176   9.243   0.935 -0.0923 -0.4642  1.0167
    4CHTO  H147 1419   7.264   9.306   0.953 -0.5315  0.1006  1.1971
    4CHTO   N13 1420   7.157   9.162   1.053 -0.5863  0.1826 -0.5002
    4CHTO  H139 1421   7.244   9.169   1.117  0.0036 -0.5494 -1.2054
    4CHTO  H140 1422   7.132   9.061   1.028 -0.5666  0.0316  0.0734
    4CHTO   C76 1423   7.210   9.156   0.808  0.0682  0.0387 -0.8900
    4CHTO  H148 1424   7.127   9.088   0.786 -0.9525  0.8785  0.2963
    4CHTO   O49 1425   7.229   9.251   0.694 -0.1555  0.0378  0.0699
    4CHTO   C77 1426   7.118   9.333   0.662 -0.3171  0.4456 -0.2503
    4CHTO  H149 1427   7.032   9.270   0.640 -0.8470  1.1335 -0.1719
    4CHTO   C88 1428   7.157   9.408   0.535 -0.2389  0.0292 -0.2835
    4CHTO   O58 1429   7.044   9.497   0.510  0.1273 -0.0993  0.1895
    4CHTO  H136 1430   6.977   9.448   0.466 -0.9401  0.2089  1.4538
    4CHTO   O51 1431   7.350   9.067   0.825 -0.6114  0.2877 -0.1236
    4CHTO   C78 1432   7.356   8.954   0.742 -0.2058 -0.0458  0.0317
    4CHTO  H150 1433   7.277   8.959   0.665 -0.0730 -1.2962 -0.1940
    4CHTO   C80 1434   7.334   8.826   0.827 -0.0629  0.1558 -0.5581
    4CHTO  H152 1435   7.404   8.823   0.913 -0.7000  0.1328 -0.0381
    4CHTO   O55 1436   7.199   8.834   0.875  0.1116 -0.0351  0.1610
    4CHTO  H134 1437   7.142   8.809   0.805 -0.8638  0.7567  0.6547
    4CHTO   C84 1438   7.362   8.698   0.744  0.2629  0.2244  0.2930
    4CHTO  H156 1439   7.277   8.694   0.675 -0.0014  1.9674  0.4829
    4CHTO   N15 1440   7.350   8.582   0.839  0.1721 -0.1273  0.8539
    4CHTO  H143 1441   7.406   8.502   0.795  0.2470 -0.4873  1.6010
    4CHTO  H144 1442   7.247   8.553   0.846  0.8889 -2.5772  1.8010
    4CHTO   C87 1443   7.496   8.712   0.677 -0.1078 -0.5853 -0.3732
    4CHTO  H159 1444   7.573   8.720   0.753 -0.0824 -0.2717 -0.4289
    4CHTO   O53 1445   7.501   8.839   0.587  0.2746 -0.1926  0.2613
    4CHTO   C82 1446   7.488   8.960   0.661  0.6838  0.7463  0.3175
    4CHTO  H154 1447   7.576   8.968   0.726  0.2318 -3.0746  1.5664
    4CHTO   C89 1448   7.491   9.085   0.564 -0.7679 -0.0793 -0.7081
    4CHTO   O59 1449   7.513   9.206   0.634 -0.1760  0.1758  0.1470
    4CHTO  H137 1450   7.447   9.267   0.610 -0.5828  0.1521  1.1734
    4CHTO   O45 1451   7.519   8.573   0.585  0.0350  0.1749 -0.5260
    4CHTO   C67 1452   7.651   8.545   0.543  0.1445  0.0244  0.0907
    4CHTO  H124 1453   7.691   8.639   0.504  0.2812  0.7754  1.9554
    4CHTO   C65 1454   7.734   8.500   0.664  0.2997 -0.4832  0.6824
    4CHTO  H122 1455   7.727   8.581   0.737  2.2656 -0.6192  1.0761
    4CHTO   O44 1456   7.877   8.486   0.639  0.2576 -0.8113  0.0886
    4CHTO  H102 1457   7.933   8.538   0.694  1.6379 -1.5442 -0.5892
    4CHTO   C63 1458   7.662   8.379   0.726  0.3225 -0.5810 -0.3351
    4CHTO  H120 1459   7.554   8.390   0.734  0.2327 -0.2858 -1.8504
    4CHTO   N11 1460   7.692   8.364   0.869 -0.4308  0.1051  1.0894
    4CHTO  H108 1461   7.654   8.267   0.894 -0.4834  0.6719  3.3146
    4CHTO  H109 1462   7.797   8.371   0.889 -0.0816 -4.6743  1.7146
    4CHTO   C61 1463   7.693   8.262   0.624 -0.4458 -0.1802  0.2891
    4CHTO  H118 1464   7.621   8.187   0.659 -0.2791 -0.1774  0.6398
    4CHTO   O40 1465   7.661   8.290   0.482 -0.0595 -0.3715  0.7465
    4CHTO   C68 1466   7.659   8.433   0.430 -0.2603  0.9640  0.1828
    4CHTO  H125 1467   7.564   8.440   0.373 -1.5024 -0.8618  1.9361
    4CHTO   C72 1468   7.775   8.455   0.327 -0.0714  0.4425  0.7771
    4CHTO   O48 1469   7.784   8.575   0.257 -0.6761 -0.2975  0.1778
    4CHTO  H105 1470   7.799   8.641   0.322  0.3393  1.1885 -1.5254
    4CHTO   O38 1471   7.832   8.224   0.615 -0.2756  0.4931  0.3780
    4CHTO   C55 1472   7.880   8.111   0.689  0.3572 -0.7030  0.2744
    4CHTO  H112 1473   7.805   8.084   0.765 -1.1125  1.7363 -0.2480
    4CHTO   C56 1474   8.020   8.131   0.751  0.3903  0.2825 -0.4557
    4CHTO  H113 1475   8.083   8.187   0.680  0.8318  0.0885 -0.2222
    4CHTO   O42 1476   8.000   8.225   0.859  0.0694 -0.1962  0.1991
    4CHTO  H100 1477   7.950   8.303   0.845  0.4889  0.2196  0.9664
    4CHTO   C57 1478   8.087   7.995   0.807  0.0253  0.0145 -0.3427
    4CHTO  H114 1479   8.028   7.968   0.894 -1.9314 -1.0821 -1.9670
    4CHTO   N10 1480   8.232   8.005   0.844 -0.5141  0.0206 -0.1034
    4CHTO  H106 1481   8.255   8.102   0.885  0.4061 -0.2570  0.0567
    4CHTO  H107 1482   8.284   7.989   0.751  0.2159 -1.2398  0.4956
    4CHTO   C58 1483   8.060   7.883   0.702  0.4586 -0.5038 -0.2183
    4CHTO  H115 1484   8.122   7.902   0.612  1.1348 -1.1704  0.1025
    4CHTO   O37 1485   7.923   7.873   0.674  0.5804 -0.0809  0.1054
    4CHTO   C59 1486   7.873   7.986   0.599  0.8541  0.2909  0.1647
    4CHTO  H116 1487   7.926   8.008   0.507  1.5976 -0.4678  0.4131
    4CHTO   C70 1488   7.735   7.943   0.549 -0.5045  0.2302  0.1166
    4CHTO   O46 1489   7.747   7.834   0.455 -0.0834 -0.3014 -0.3632
    4CHTO  H103 1490   7.668   7.799   0.419  0.7516 -1.3535 -1.2296
    4CHTO   O39 1491   8.089   7.735   0.760 -0.1873  0.0321  0.0481
    4CHTO   C60 1492   8.070   7.626   0.671  0.2512  0.3928  0.7864
    4CHTO  H117 1493   7.967   7.631   0.637  1.0341 -1.2211 -2.0129
    4CHTO   C62 1494   8.151   7.632   0.541 -0.2851 -0.3868  0.1454
    4CHTO  H119 1495   8.121   7.726   0.490  0.4440 -1.0164 -1.5189
    4CHTO   O43 1496   8.292   7.654   0.571  0.3217  0.4560  0.5877
    4CHTO  H101 1497   8.326   7.585   0.625  3.4742 -0.2167 -2.0899
    4CHTO   C66 1498   8.125   7.503   0.446 -0.6105  0.9443 -0.6487
    4CHTO  H123 1499   8.018   7.496   0.426 -0.4066 -1.4824 -1.0194
    4CHTO   N12 1500   8.195   7.499   0.316 -0.6591 -0.5308 -0.2955
    4CHTO  H110 1501   8.189   7.409   0.257  0.4882 -0.3348 -0.7338
    4CHTO  H111 1502   8.296   7.537   0.313 -0.3113 -1.3596  0.8352
    4CHTO   C69 1503   8.155   7.368   0.519 -0.5043  0.1407 -0.1574
    4CHTO  H126 1504   8.263   7.350   0.536 -0.4933  0.3185 -0.0377
    4CHTO   O41 1505   8.079   7.385   0.671  0.4033  0.0774  0.4065
    4CHTO   C64 1506   8.090   7.504   0.752  0.1630 -0.5202 -0.1980
    4CHTO  H121 1507   8.181   7.509   0.816 -0.7864 -0.2722  1.1460
    4CHTO   C71 1508   7.978   7.490   0.862 -0.3982  0.1507  0.0633
    4CHTO   O47 1509   7.851   7.457   0.814  0.5627  0.1146 -0.3135
    4CHTO  H104 1510   7.800   7.411   0.877  1.7289 -1.2628 -0.3489
    4CHTO   O34 1511   8.088   7.246   0.435  0.1450 -0.7945 -0.2134
    4CHTO   C49 1512   8.202   7.137   0.347 -0.0678 -0.1128  0.0103
    4CHTO   H91 1513   8.275   7.213   0.320 -0.3876  0.2598  0.2061
    4CHTO   C47 1514   8.119   7.084   0.225 -0.1397  0.0593 -0.1922
    4CHTO   H89 1515   8.191   7.030   0.159  0.2146  0.4011 -0.0895
    4CHTO   O33 1516   8.067   7.193   0.151  0.2346 -0.5851 -0.0152
    4CHTO   H70 1517   8.037   7.258   0.212 -0.2788 -0.1140 -0.7597
    4CHTO   C45 1518   8.009   6.981   0.287  0.4209 -0.3267 -0.2829
    4CHTO   H87 1519   7.956   7.047   0.358  0.4201 -0.4094 -0.2052
    4CHTO    N8 1520   7.912   6.932   0.186  0.1913 -0.1591  0.4941
    4CHTO   H75 1521   7.940   6.954   0.084  0.6602  1.1230  0.9029
    4CHTO   H76 1522   7.818   6.980   0.206 -0.1334 -1.1958  1.5741
    4CHTO   C43 1523   8.070   6.864   0.382  0.1703  0.0423 -0.5756
    4CHTO   H85 1524   7.984   6.820   0.433  0.6545 -0.9285 -0.5768
    4CHTO   O29 1525   8.163   6.923   0.476  0.0623  0.0606 -0.3298
    4CHTO   C50 1526   8.257   7.024   0.435  0.3024 -0.4136 -0.4291
    4CHTO   H92 1527   8.290   7.078   0.526  0.5156 -0.0604 -0.7152
    4CHTO   C54 1528   8.382   6.958   0.373 -0.1761 -0.2662 -0.7286
    4CHTO   O36 1529   8.496   7.046   0.354  0.5796  0.6804 -0.6724
    4CHTO   H72 1530   8.562   7.032   0.419  2.6798 -0.5052 -2.9906
    4CHTO   O27 1531   8.138   6.756   0.313  0.7746  0.4903 -0.1778
    4CHTO   C37 1532   8.139   6.661   0.206  0.1793  0.0473 -0.2714
    4CHTO   H79 1533   8.073   6.693   0.124  1.2528  0.0446 -1.1389
    4CHTO   C38 1534   8.284   6.639   0.155  0.3099  0.4599  0.2090
    4CHTO   H80 1535   8.349   6.615   0.241 -0.0396  0.1827  0.3988
    4CHTO   O31 1536   8.322   6.765   0.092  0.2858  0.2238 -0.9550
    4CHTO   H68 1537   8.412   6.768   0.065  0.3016 -0.7218 -1.0336
    4CHTO   C39 1538   8.293   6.522   0.059 -0.4089 -0.1971 -0.3420
    4CHTO   H81 1539   8.225   6.540  -0.025  0.1050 -0.1267 -0.7455
    4CHTO    N7 1540   8.434   6.500   0.012 -0.3058 -0.1677  0.0235
    4CHTO   H73 1541   8.459   6.566  -0.069  1.7871  1.4577  1.9329
    4CHTO   H74 1542   8.490   6.520   0.103 -1.8765 -0.9617  1.1945
    4CHTO   C40 1543   8.240   6.393   0.125 -1.0594 -0.4180 -0.0274
    4CHTO   H82 1544   8.299   6.370   0.214  0.9961  0.6820 -1.0635
    4CHTO   O26 1545   8.110   6.427   0.158  0.0913 -0.2390  0.2866
    4CHTO   C41 1546   8.098   6.526   0.262  0.4058 -0.0539  0.0934
    4CHTO   H83 1547   8.158   6.495   0.349  0.5253  0.0070  0.0331
    4CHTO   C52 1548   7.960   6.529   0.319 -0.1470  0.1351  0.6846
    4CHTO   O35 1549   7.919   6.395   0.373 -0.0560 -0.5099 -0.3064
    4CHTO   H71 1550   7.837   6.409   0.415  0.4602 -0.9754  0.8732
    4CHTO   O28 1551   8.210   6.281   0.034  0.7208  0.6226 -0.3224
    4CHTO   C42 1552   8.201   6.147   0.083 -0.3517  0.1912  0.4479
    4CHTO   H84 1553   8.168   6.092  -0.005  0.1144  0.2015  0.2666
    4CHTO   C44 1554   8.090   6.113   0.193 -0.1092 -0.4922 -0.1169
    4CHTO   H86 1555   8.111   6.167   0.286 -1.7941 -0.2454  0.1381
    4CHTO   O32 1556   7.956   6.137   0.132 -0.2956 -0.4749 -0.0216
    4CHTO   H69 1557   7.953   6.132   0.039  1.1480  1.0573 -0.1836
    4CHTO   C48 1558   8.092   5.962   0.237 -0.5292 -0.7972  0.5184
    4CHTO   H90 1559   8.070   5.895   0.154 -2.9701  0.1608  0.3596
    4CHTO    N9 1560   7.995   5.922   0.346  0.4470  0.2438 -0.2703
    4CHTO   H77 1561   7.906   5.980   0.327  0.7680  1.5179  1.9016
    4CHTO   H78 1562   7.967   5.819   0.329 -0.3816  0.3043  0.6691
    4CHTO   C51 1563   8.238   5.914   0.280  0.1877 -0.4169  0.3798
    4CHTO   H93 1564   8.271   5.956   0.375  2.3152  1.1971 -1.0306
    4CHTO   O30 1565   8.328   5.947   0.174  0.2872 -0.0084  0.3277
    4CHTO   C46 1566   8.338   6.090   0.126  0.4238  0.0531 -0.7561
    4CHTO   H88 1567   8.382   6.156   0.201 -1.7803  2.5110 -1.5280
    4CHTO   C53 1568   8.428   6.085  -0.004 -0.5508  0.3731 -0.1104
    4CHTO   O72 1569   8.556   6.023   0.028  0.1690 -0.3470  0.1522
    4CHTO  H199 1570   8.546   5.930   0.019  2.4972 -0.5361 -0.8650
    4CHTO   O22 1571   8.256   5.771   0.271 -0.2403  0.4833 -0.1301
    4CHTO   C31 1572   8.307   5.690   0.378 -0.4793 -0.3574  0.3773
    4CHTO   H59 1573   8.324   5.762   0.460  3.1901  0.1369 -0.7329
    4CHTO   C29 1574   8.208   5.580   0.426 -0.1510 -0.3484 -0.1180
    4CHTO   H57 1575   8.193   5.508   0.344  1.0966 -1.9094  1.0092
    4CHTO   O21 1576   8.085   5.649   0.450  0.5156  0.1509  0.1321
    4CHTO   H37 1577   8.026   5.644   0.378 -1.1759 -3.0333  1.6120
    4CHTO   C27 1578   8.269   5.502   0.555  0.1765 -0.0759  0.0291
    4CHTO   H55 1579   8.273   5.574   0.638  1.4448  0.2786 -0.3281
    4CHTO    N5 1580   8.175   5.389   0.588 -0.6203  0.1524 -0.4164
    4CHTO   H43 1581   8.179   5.302   0.525  0.4678 -0.6495  0.7370
    4CHTO   H44 1582   8.076   5.430   0.578 -0.6376  1.0836  2.9587
    4CHTO   C25 1583   8.413   5.462   0.531 -0.0047  1.0065  0.2796
    4CHTO   H53 1584   8.420   5.376   0.463 -0.8980  2.4216 -1.6500
    4CHTO   O17 1585   8.496   5.559   0.463  0.2464 -0.0344  0.1257
    4CHTO   C32 1586   8.445   5.629   0.344  0.6359 -0.0471  0.2171
    4CHTO   H60 1587   8.432   5.556   0.264 -0.0165 -1.8014  1.8907
    4CHTO   C36 1588   8.560   5.731   0.316 -0.4189  0.0029 -0.1053
    4CHTO   O25 1589   8.676   5.659   0.280 -0.2194 -0.1634 -0.1401
    4CHTO   H40 1590   8.732   5.700   0.216  0.2620  0.5193  0.7001
    4CHTO   O15 1591   8.489   5.422   0.677 -0.2192 -0.1854 -0.2847
    4CHTO   C19 1592   8.548   5.512   0.779  0.0017 -0.0339  0.9100
    4CHTO   H47 1593   8.619   5.461   0.846 -0.3094 -0.0603  1.2243
    4CHTO   C20 1594   8.638   5.636   0.724 -0.1048 -0.5307 -0.6516
    4CHTO   H48 1595   8.579   5.699   0.656 -0.5311  0.0673  0.2664
    4CHTO   O19 1596   8.743   5.575   0.637  0.2781 -0.1539 -0.1939
    4CHTO   H35 1597   8.801   5.638   0.598 -1.8892  2.2013  0.1902
    4CHTO   C21 1598   8.683   5.734   0.839 -0.2092  0.8656  0.9937
    4CHTO   H49 1599   8.749   5.677   0.904 -0.1020 -0.7934 -0.5140
    4CHTO    N4 1600   8.757   5.851   0.798 -0.0591 -0.3339 -0.3348
    4CHTO   H41 1601   8.794   5.841   0.697 -0.2134  3.3638 -0.8282
    4CHTO   H42 1602   8.844   5.851   0.863  0.5506 -1.7126 -1.1288
    4CHTO   C22 1603   8.557   5.774   0.921 -0.4274  0.6623  0.6888
    4CHTO   H50 1604   8.483   5.801   0.846 -1.8269 -0.7445  1.5356
    4CHTO   O14 1605   8.500   5.654   0.978 -0.2681  0.1221 -0.2208
    4CHTO   C23 1606   8.440   5.565   0.880  0.4239 -0.2254  0.3869
    4CHTO   H51 1607   8.357   5.618   0.832 -0.3252 -1.4907  0.2515
    4CHTO   C34 1608   8.368   5.444   0.947 -0.1839  0.0135 -0.3655
    4CHTO   O23 1609   8.448   5.371   1.040 -0.4223  0.0128  0.1791
    4CHTO   H38 1610   8.477   5.295   0.994 -0.8588  0.7359 -1.3105
    4CHTO   O16 1611   8.574   5.873   1.020 -0.2949  0.1185  0.0182
    4CHTO   C24 1612   8.437   5.981   1.033  0.2116 -0.6177  0.0011
    4CHTO   H52 1613   8.344   5.933   1.004 -0.8507  0.9579  0.7712
    4CHTO   C26 1614   8.468   6.107   0.944  0.0063 -0.7458  0.3642
    4CHTO   H54 1615   8.576   6.132   0.949 -0.6463  2.4641 -0.6117
    4CHTO   O20 1616   8.441   6.061   0.811  0.2511  0.3840  0.3446
    4CHTO   H36 1617   8.361   6.011   0.805 -0.6793  1.7834  0.9610
    4CHTO   C30 1618   8.386   6.235   0.977 -0.3578  0.2806  0.2745
    4CHTO   H58 1619   8.280   6.226   0.951 -1.0734  2.1854  2.4322
    4CHTO    N6 1620   8.435   6.356   0.898 -0.0317  0.7697  0.3494
    4CHTO   H45 1621   8.529   6.349   0.844 -0.3243 -1.9783  0.1422
    4CHTO   H46 1622   8.361   6.374   0.822  0.5673 -1.3675 -0.7893
    4CHTO   C33 1623   8.367   6.268   1.128 -0.1660 -0.1219 -0.3471
    4CHTO   H61 1624   8.460   6.311   1.170  0.2694  0.6759 -2.1046
    4CHTO   O18 1625   8.335   6.140   1.199 -0.3143 -0.5936 -0.2717
    4CHTO   C28 1626   8.423   6.026   1.184 -0.2498  0.1883 -0.3280
    4CHTO   H56 1627   8.522   6.060   1.214 -0.5316 -0.4579  1.4144
    4CHTO   C35 1628   8.392   5.910   1.286  0.5885  0.0196  0.0836
    4CHTO   O24 1629   8.352   5.977   1.406 -0.4568  0.4058 -0.4277
    4CHTO   H39 1630   8.351   5.919   1.480 -0.1648  0.3826 -0.4412
    4CHTO    O9 1631   8.273   6.369   1.151  0.3280  0.6538 -0.1808
    4CHTO   C13 1632   8.279   6.415   1.311 -0.2755 -0.0122  0.3942
    4CHTO   H26 1633   8.357   6.353   1.361  0.2077  2.2839  2.5848
    4CHTO   C11 1634   8.132   6.394   1.380  0.1263 -0.2841 -0.2408
    4CHTO   H24 1635   8.102   6.293   1.348 -2.0640  1.2979 -3.5150
    4CHTO    O8 1636   8.033   6.480   1.326 -0.1186 -0.0050 -0.1646
    4CHTO    H3 1637   8.032   6.568   1.356 -0.4061 -0.4136  1.0180
    4CHTO    C9 1638   8.159   6.423   1.534  0.1158 -0.0343  0.0144
    4CHTO   H22 1639   8.246   6.363   1.564  0.2743  0.1576 -0.0671
    4CHTO    N2 1640   8.044   6.380   1.614 -0.3560 -0.6501  0.3873
    4CHTO   H10 1641   8.058   6.415   1.715  1.5610  0.1998 -0.1356
    4CHTO   H11 1642   7.956   6.424   1.569  1.0380  1.1507 -0.6725
    4CHTO    C7 1643   8.208   6.569   1.550  0.7012 -0.3204 -0.6667
    4CHTO   H20 1644   8.238   6.584   1.656 -0.9017  1.1708 -0.4018
    4CHTO    O4 1645   8.322   6.596   1.471 -0.4602 -0.2337  0.2518
    4CHTO   C14 1646   8.332   6.555   1.334  0.1886 -0.4670  0.5177
    4CHTO   H27 1647   8.441   6.553   1.311  0.5552 -1.3083  2.2401
    4CHTO   C18 1648   8.271   6.666   1.247  0.4249  0.3259  0.2968
    4CHTO   O13 1649   8.301   6.654   1.109 -0.0992  0.0087 -0.1008
    4CHTO    H7 1650   8.303   6.562   1.087  0.5978 -0.1484  0.5800
    4CHTO    O2 1651   8.097   6.673   1.514 -0.3356  0.1930  0.1029
    4CHTO    C1 1652   8.100   6.802   1.582 -0.1860 -0.2024  0.5061
    4CHTO   H14 1653   8.047   6.871   1.513  2.5872  0.7520 -0.7179
    4CHTO    C2 1654   8.244   6.864   1.623  0.6012 -0.4082 -0.7828
    4CHTO   H15 1655   8.294   6.788   1.685 -0.0747 -0.9900 -0.9467
    4CHTO    O6 1656   8.316   6.889   1.506 -0.0764 -0.0883  0.0088
    4CHTO    H1 1657   8.318   6.808   1.458 -0.2247  0.9573 -1.8183
    4CHTO    C3 1658   8.216   7.001   1.708  0.7447 -0.2837  0.3450
    4CHTO   H16 1659   8.181   7.084   1.645  2.0184 -0.0056 -0.0051
    4CHTO    N1 1660   8.347   7.051   1.757 -0.8233 -0.2049  0.0913
    4CHTO    H8 1661   8.395   7.108   1.679 -1.7436  1.1160  0.4620
    4CHTO    H9 1662   8.369   7.099   1.852 -0.7041  0.3302 -0.2034
    4CHTO    C4 1663   8.106   6.980   1.814 -0.0320 -0.2630 -1.1036
    4CHTO   H17 1664   8.145   6.923   1.899 -0.6126 -1.0628 -1.3711
    4CHTO    O1 1665   7.994   6.914   1.763  0.3504 -0.1720  0.1435
    4CHTO    C5 1666   8.008   6.787   1.703 -0.1312  0.8037  0.6233
    4CHTO   H18 1667   8.047   6.716   1.776 -4.5246 -1.6714  0.7414
    4CHTO   C16 1668   7.858   6.750   1.680 -0.4498  0.6461 -0.6209
    4CHTO   O11 1669   7.827   6.616   1.649  0.2997 -0.3852 -0.9943
    4CHTO    H5 1670   7.902   6.561   1.651  0.1598 -0.5495  0.6934
    4CHTO    O3 1671   8.061   7.111   1.863  0.4606  0.4526 -0.5104
    4CHTO    C6 1672   8.034   7.130   2.005  0.2158  0.5096  0.1044
    4CHTO   H19 1673   8.070   7.038   2.052  4.3206  0.2460 -3.2664
    4CHTO    C8 1674   8.111   7.259   2.050 -0.6640  0.4095 -0.6916
    4CHTO   H21 1675   8.085   7.336   1.978 -1.0393  0.7716 -0.1692
    4CHTO    O7 1676   8.248   7.219   2.048  0.0584  0.5773  0.1437
    4CHTO    H2 1677   8.280   7.215   1.960  2.1593  1.7000  0.7943
    4CHTO   C12 1678   8.074   7.298   2.193  0.2278 -0.4008  0.1427
    4CHTO   H25 1679   8.128   7.239   2.270 -1.9104 -1.4208  0.8658
    4CHTO    N3 1680   8.118   7.437   2.225 -0.1086 -0.0148  0.0206
    4CHTO   H12 1681   8.220   7.433   2.193  0.2799  0.3022  1.1850
    4CHTO   H13 1682   8.063   7.501   2.158 -0.6555 -1.0137 -0.4910
    4CHTO   C15 1683   7.920   7.288   2.216 -0.0953 -0.1711  0.2483
    4CHTO   H28 1684   7.865   7.376   2.183  0.3491 -0.3017 -0.8650
    4CHTO   O10 1685   7.900   7.273   2.367  0.3801  0.3956 -0.8634
    4CHTO    H4 1686   7.919   7.348   2.421 -0.8096 -1.4184  2.2039
    4CHTO    O5 1687   7.851   7.176   2.165  0.1724 -0.4993  0.4868
    4CHTO   C10 1688   7.884   7.143   2.029 -0.6673 -0.2030  0.8690
    4CHTO   H23 1689   7.838   7.214   1.960  1.0369 -2.6184 -2.8809
    4CHTO   C17 1690   7.810   7.011   2.000  0.4448  0.0159 -0.9271
    4CHTO   O12 1691   7.668   7.046   1.994 -0.1724  0.0343 -0.3096
    4CHTO    H6 1692   7.664   7.101   1.918  1.2232 -0.3954 -0.6967
    5CHTO  H203 1693   8.440   3.940   1.239  0.5281  0.1472 -1.6550
    5CHTO   O82 1694   8.361   3.904   1.204  0.4047 -0.8698 -0.3378
    5CHTO  C123 1695   8.310   3.821   1.305 -0.0934  0.0789  0.0032
    5CHTO  H227 1696   8.210   3.855   1.336  0.4807  0.5805  1.3395
    5CHTO   O77 1697   8.305   3.694   1.244  0.5158  0.1497 -0.1778
    5CHTO  C118 1698   8.261   3.588   1.326 -0.2382  0.4169  0.1523
    5CHTO  H222 1699   8.158   3.609   1.360 -0.3260 -0.8470  0.6658
    5CHTO  C125 1700   8.267   3.460   1.235 -0.1147  0.1870 -1.0682
    5CHTO   O84 1701   8.175   3.483   1.127  0.2568 -0.5259  0.1197
    5CHTO  H205 1702   8.151   3.397   1.097  1.7521 -0.9380  0.0614
    5CHTO  C114 1703   8.348   3.568   1.448 -0.2498 -0.3534  0.3385
    5CHTO  H218 1704   8.447   3.538   1.412  0.7295  0.9415  1.8544
    5CHTO  C116 1705   8.362   3.698   1.521 -0.0560 -0.9223 -0.3486
    5CHTO  H220 1706   8.277   3.735   1.580  1.2193  2.4291 -0.5298
    5CHTO   O79 1707   8.451   3.671   1.634  0.4634  0.0438  0.2220
    5CHTO  H201 1708   8.505   3.746   1.652  2.0936 -0.5579 -2.0146
    5CHTO  C120 1709   8.410   3.807   1.428  0.6806  0.1129  0.2554
    5CHTO  H224 1710   8.506   3.764   1.394  0.0873 -1.4315  0.5269
    5CHTO   N21 1711   8.437   3.934   1.500  0.3038 -1.0302 -0.2146
    5CHTO  H211 1712   8.350   3.997   1.493  0.6918 -0.0700  2.8134
    5CHTO  H212 1713   8.476   3.924   1.601 -0.6614 -2.2134  0.0489
    5CHTO   O75 1714   8.289   3.457   1.524  0.1830 -0.3259 -0.2575
    5CHTO  C112 1715   8.153   3.485   1.595  0.2584 -0.3479 -0.2384
    5CHTO  H216 1716   8.095   3.556   1.535 -0.2058 -0.6956 -0.2041
    5CHTO   O73 1717   8.182   3.543   1.719 -0.2028 -0.3008 -0.1130
    5CHTO  C113 1718   8.063   3.571   1.796  0.7458  0.0952  0.5130
    5CHTO  H217 1719   8.003   3.645   1.738 -2.5378 -0.9919  2.3698
    5CHTO  C124 1720   8.109   3.639   1.923 -0.0050 -0.2530  0.6993
    5CHTO   O83 1721   8.160   3.772   1.909  0.3717  0.1313 -0.6704
    5CHTO  H204 1722   8.237   3.783   1.961 -1.0198  2.2087  1.0045
    5CHTO  C109 1723   7.977   3.446   1.821  0.0729 -0.4509  0.0828
    5CHTO  H213 1724   8.032   3.389   1.897  0.0824 -0.4320  0.0898
    5CHTO  C110 1725   7.941   3.370   1.685 -0.1487 -0.3364 -0.2412
    5CHTO  H214 1726   7.864   3.426   1.632 -0.7314  0.2342  1.1723
    5CHTO   O78 1727   7.881   3.249   1.722  0.1731 -0.2975 -0.0208
    5CHTO  H200 1728   7.832   3.214   1.650 -1.2201 -1.0481  1.2868
    5CHTO  C111 1729   8.070   3.346   1.607 -0.0745 -0.2812 -0.2934
    5CHTO  H215 1730   8.133   3.281   1.668 -0.7434 -1.0708 -0.4339
    5CHTO   N19 1731   8.050   3.282   1.474  0.0733  0.2936 -0.3442
    5CHTO  H207 1732   7.991   3.349   1.413 -1.3288 -0.1824  0.4706
    5CHTO  H208 1733   7.991   3.192   1.484  0.7105  0.0207  1.0339
    5CHTO   O74 1734   7.855   3.500   1.883 -0.0351  0.0541  0.4413
    5CHTO  C115 1735   7.800   3.417   2.014 -0.4742  0.1308 -0.7959
    5CHTO  H219 1736   7.839   3.316   2.022 -1.0649  0.1444  3.1557
    5CHTO   O76 1737   7.844   3.486   2.148 -0.0639  0.0398 -0.1620
    5CHTO  C122 1738   7.788   3.622   2.164 -0.0477  0.3105 -0.4423
    5CHTO  H226 1739   7.847   3.689   2.102 -0.6822 -0.0455 -1.4444
    5CHTO  C126 1740   7.826   3.660   2.315 -0.0390 -0.1928  0.2399
    5CHTO   O85 1741   7.964   3.659   2.349 -0.5208 -0.1274 -0.6297
    5CHTO  H206 1742   8.013   3.686   2.273  0.0201 -0.2819 -0.3337
    5CHTO  C121 1743   7.625   3.631   2.134 -0.0549 -0.4403 -0.0215
    5CHTO  H225 1744   7.580   3.672   2.227  1.1158  1.0686 -0.1028
    5CHTO   O81 1745   7.591   3.722   2.026  0.4423  0.3433 -0.2778
    5CHTO  H202 1746   7.651   3.792   2.008  2.6443 -2.0564 -2.7311
    5CHTO  C119 1747   7.568   3.484   2.108  0.5543  0.6685  0.2477
    5CHTO  H223 1748   7.600   3.426   2.195  0.4631 -1.1451 -0.9065
    5CHTO  C117 1749   7.642   3.420   1.996  0.6110  0.6815 -0.1986
    5CHTO  H221 1750   7.621   3.471   1.902  2.4129  2.3086  0.2489
    5CHTO   N20 1751   7.585   3.280   1.981 -0.2047 -0.6350 -0.6809
    5CHTO  H209 1752   7.587   3.223   2.073 -1.0548 -0.1346 -0.3411
    5CHTO  H210 1753   7.620   3.229   1.892 -1.0424 -3.5928  0.6244
    5CHTO   O80 1754   7.404   3.484   2.120 -0.7293 -0.3069  0.0577
    5CHTO  C103 1755   7.319   3.575   2.014  0.0968  0.4296 -0.1884
    5CHTO  H190 1756   7.354   3.677   2.025  0.8155  0.0558  1.0945
    5CHTO  C101 1757   7.329   3.534   1.866  0.9180  0.1142  0.0963
    5CHTO  H188 1758   7.330   3.426   1.860  1.5214  0.1243 -0.1150
    5CHTO   O68 1759   7.445   3.596   1.812  0.0381  0.6025 -0.3363
    5CHTO  H168 1760   7.444   3.690   1.815 -0.5626  0.5695  2.3307
    5CHTO   C99 1761   7.201   3.586   1.781 -0.3728  0.2767  0.1111
    5CHTO  H186 1762   7.197   3.696   1.788 -2.2984  0.4349 -2.7602
    5CHTO   N17 1763   7.200   3.551   1.635 -0.2582  0.0586  0.3874
    5CHTO  H174 1764   7.235   3.633   1.575 -0.4157 -0.7382 -0.8282
    5CHTO  H175 1765   7.261   3.463   1.621  0.8975  0.4777  2.6453
    5CHTO   C97 1766   7.072   3.539   1.852  0.0028 -0.6704 -1.1505
    5CHTO  H184 1767   7.089   3.431   1.860 -2.1966 -0.9271  0.6070
    5CHTO   O64 1768   7.071   3.602   1.984 -0.4683  0.2774  0.1793
    5CHTO  C104 1769   7.172   3.566   2.075 -0.5567 -0.5433  0.3539
    5CHTO  H191 1770   7.156   3.468   2.120 -0.5541  0.2033  2.0052
    5CHTO  C108 1771   7.158   3.669   2.188 -0.0223  0.2248  0.2023
    5CHTO   O71 1772   7.220   3.622   2.309 -0.4744  0.2152  0.1359
    5CHTO  H171 1773   7.161   3.574   2.364 -0.9283  1.3450  0.6269
    5CHTO   O62 1774   6.944   3.581   1.800  0.0800  0.2279  0.2180
    5CHTO   C91 1775   6.822   3.547   1.869  0.5111 -0.6370 -0.1691
    5CHTO  H178 1776   6.848   3.532   1.974  0.1475  1.4457  0.2572
    5CHTO   C92 1777   6.771   3.408   1.816 -0.2092  0.1110 -0.6245
    5CHTO  H179 1778   6.774   3.410   1.706 -0.3160  2.2812 -0.6188
    5CHTO   O66 1779   6.862   3.301   1.854  0.6211  0.0599  0.4239
    5CHTO  H166 1780   6.943   3.307   1.808 -1.0240 -0.6664 -2.6799
    5CHTO   C93 1781   6.630   3.368   1.867  0.2530 -0.6346  0.0132
    5CHTO  H180 1782   6.635   3.339   1.973 -0.7874  0.0728  0.2653
    5CHTO   N16 1783   6.570   3.248   1.803  0.7407 -0.2459 -0.2427
    5CHTO  H172 1784   6.473   3.223   1.844  1.1999 -0.4443  0.7179
    5CHTO  H173 1785   6.568   3.259   1.695 -0.5632  1.8211 -0.0226
    5CHTO   C94 1786   6.530   3.487   1.851  0.5163  0.4171  0.1745
    5CHTO  H181 1787   6.506   3.505   1.746 -0.5134  1.4049  0.5686
    5CHTO   O61 1788   6.586   3.603   1.909 -0.0476  0.2257  0.1342
    5CHTO   C95 1789   6.707   3.659   1.849  0.5156  0.7586  0.3259
    5CHTO  H182 1790   6.685   3.692   1.747 -0.0825 -1.3987 -0.2541
    5CHTO  C106 1791   6.757   3.790   1.914  0.1015 -0.2913 -0.0578
    5CHTO   O69 1792   6.735   3.798   2.053 -0.1849 -0.4765  0.0593
    5CHTO  H169 1793   6.784   3.873   2.082 -1.5849 -0.0376  1.3714
    5CHTO   O63 1794   6.388   3.467   1.938 -0.1583  0.0638 -0.4580
    5CHTO   C96 1795   6.255   3.445   1.842 -0.1276 -0.8687 -0.4976
    5CHTO  H183 1796   6.287   3.408   1.744  2.9024 -0.2162  0.1972
    5CHTO   C98 1797   6.178   3.572   1.818 -0.4045  0.1221 -0.1103
    5CHTO  H185 1798   6.151   3.610   1.918  0.6939  0.4920  0.0459
    5CHTO   O67 1799   6.259   3.676   1.756 -0.3188  0.9480  0.5368
    5CHTO  H167 1800   6.243   3.767   1.777 -1.6931  0.8175  0.1025
    5CHTO  C102 1801   6.040   3.556   1.727  0.1589  0.1209 -0.3381
    5CHTO  H189 1802   6.084   3.570   1.627  1.9376  6.3732  1.1056
    5CHTO   N18 1803   5.942   3.663   1.734 -0.9200 -1.6450 -0.5289
    5CHTO  H176 1804   5.928   3.722   1.644 -1.0524  0.4489  0.8114
    5CHTO  H177 1805   5.964   3.733   1.813 -2.1629  0.0735 -1.6561
    5CHTO  C105 1806   5.985   3.416   1.744 -0.3092  0.9988  0.1005
    5CHTO  H192 1807   5.876   3.417   1.747 -0.5287 -1.3215 -3.5560
    5CHTO   O65 1808   6.024   3.350   1.862 -0.6634  0.7982  0.1835
    5CHTO  C100 1809   6.160   3.337   1.899 -0.3908  0.7705 -0.4684
    5CHTO  H187 1810   6.153   3.341   2.009  0.4948  2.5811 -0.4571
    5CHTO  C107 1811   6.214   3.188   1.863 -0.3429  0.3400 -0.3031
    5CHTO   O70 1812   6.146   3.094   1.940 -0.0257  1.0363  0.4787
    5CHTO  H170 1813   6.202   3.076   2.014  0.7087 -2.0647 -0.7711
    5CHTO   O57 1814   6.017   3.337   1.610  0.0628  0.1975 -0.1290
    5CHTO   C85 1815   5.906   3.265   1.551  0.1029  0.4489  0.4417
    5CHTO  H157 1816   5.813   3.287   1.607 -0.0708  3.6676 -1.0582
    5CHTO   C83 1817   5.936   3.107   1.571 -0.3317  0.3481 -0.1148
    5CHTO  H155 1818   5.926   3.090   1.678 -0.0374  2.2444  0.2361
    5CHTO   O56 1819   6.066   3.069   1.522 -0.2535  0.2786  0.0924
    5CHTO  H135 1820   6.056   3.073   1.429 -0.0186 -0.3778  0.0343
    5CHTO   C81 1821   5.822   3.031   1.506  0.4743 -0.1237  0.0276
    5CHTO  H153 1822   5.725   3.064   1.543  0.3129 -0.5217 -0.0505
    5CHTO   N14 1823   5.821   2.886   1.531  0.8599 -0.3890 -0.2483
    5CHTO  H141 1824   5.782   2.871   1.630 -0.9710 -0.5492 -0.9759
    5CHTO  H142 1825   5.919   2.844   1.524  0.6225 -0.8836 -0.6265
    5CHTO   C79 1826   5.826   3.059   1.345  0.1591  0.3625  0.5758
    5CHTO  H151 1827   5.744   3.004   1.299 -0.8209 -0.0596  2.7335
    5CHTO   O52 1828   5.796   3.201   1.336 -0.3055 -0.0682  0.1579
    5CHTO   C86 1829   5.887   3.293   1.398 -0.1110  0.0164 -0.3181
    5CHTO  H158 1830   5.980   3.285   1.339  0.0953  2.1823 -0.3190
    5CHTO   C90 1831   5.835   3.439   1.374 -0.2741 -0.3360 -0.6428
    5CHTO   O60 1832   5.708   3.465   1.435  0.1832  0.3613  0.2325
    5CHTO  H138 1833   5.665   3.527   1.379 -1.0796 -0.7347 -0.0389
    5CHTO   O50 1834   5.947   3.021   1.270 -0.1367  0.0167 -0.8412
    5CHTO   C73 1835   5.973   2.939   1.154 -0.3682  0.6560 -0.1490
    5CHTO  H145 1836   5.901   2.957   1.074 -3.4600 -1.2880  2.0755
    5CHTO   C74 1837   5.963   2.793   1.195  0.4246 -0.4793  0.3344
    5CHTO  H146 1838   5.860   2.789   1.233 -0.1647  0.7052 -1.0523
    5CHTO   O54 1839   5.961   2.708   1.081 -0.0290  0.0133 -0.1982
    5CHTO  H133 1840   6.003   2.627   1.102 -1.9609 -0.4879  1.8750
    5CHTO   C75 1841   6.076   2.753   1.300 -0.2595  0.4648 -0.1437
    5CHTO  H147 1842   6.053   2.797   1.398  1.8314  1.8893 -0.2479
    5CHTO   N13 1843   6.079   2.608   1.332 -0.1155 -0.6644 -0.0761
    5CHTO  H139 1844   6.123   2.557   1.248  3.0071  1.0065  0.4492
    5CHTO  H140 1845   6.141   2.580   1.416  0.2695  1.7488  0.4763
    5CHTO   C76 1846   6.224   2.808   1.256  0.2250  0.2183  0.0429
    5CHTO  H148 1847   6.255   2.735   1.182  0.2281 -0.3293  0.5846
    5CHTO   O49 1848   6.214   2.946   1.209 -0.1874  0.2478 -0.4605
    5CHTO   C77 1849   6.114   2.968   1.107 -0.3855  0.5069 -0.2708
    5CHTO  H149 1850   6.143   2.890   1.037  1.9631  0.8084  0.3047
    5CHTO   C88 1851   6.138   3.107   1.035 -0.6513 -0.2036 -0.1772
    5CHTO   O58 1852   6.007   3.157   0.928 -0.2850  0.1920 -0.0349
    5CHTO  H136 1853   5.962   3.086   0.887 -0.5295  0.6113 -0.5006
    5CHTO   O51 1854   6.328   2.814   1.378 -0.0000  0.2699 -0.0024
    5CHTO   C78 1855   6.478   2.848   1.351 -0.6123  0.4032  0.3305
    5CHTO  H150 1856   6.497   2.918   1.266 -2.1098 -0.9085 -1.1344
    5CHTO   C80 1857   6.565   2.720   1.327  0.0646 -0.3183  0.4693
    5CHTO  H152 1858   6.553   2.658   1.419  1.5827 -1.0813  0.1674
    5CHTO   O55 1859   6.507   2.661   1.203  0.5448 -0.1368 -0.4588
    5CHTO  H134 1860   6.544   2.577   1.184 -1.6562 -1.5756  1.2821
    5CHTO   C84 1861   6.712   2.763   1.306 -0.7666 -0.4509 -0.3189
    5CHTO  H156 1862   6.722   2.834   1.224 -2.4788  0.2270  0.0353
    5CHTO   N15 1863   6.804   2.651   1.283  0.0447 -0.0901  0.1600
    5CHTO  H143 1864   6.774   2.566   1.341  0.2778  0.8758  1.7435
    5CHTO  H144 1865   6.911   2.653   1.290  0.0278  1.5656  0.1168
    5CHTO   C87 1866   6.753   2.851   1.424 -0.2850  0.1942  0.5745
    5CHTO  H159 1867   6.766   2.800   1.519 -0.1466 -1.0095 -0.0713
    5CHTO   O53 1868   6.668   2.973   1.423  0.2397 -0.5586 -0.1282
    5CHTO   C82 1869   6.540   2.927   1.470  0.1164  0.1542 -0.3671
    5CHTO  H154 1870   6.552   2.866   1.560 -0.7375  1.9674  1.0240
    5CHTO   C89 1871   6.460   3.044   1.517  0.1907 -0.3657 -0.9424
    5CHTO   O59 1872   6.362   3.007   1.621 -0.1062  0.1650 -0.3246
    5CHTO  H137 1873   6.317   2.933   1.587  1.2996 -0.8455 -0.0387
    5CHTO   O45 1874   6.892   2.907   1.399  0.0461  0.5820 -0.1460
    5CHTO   C67 1875   6.964   2.943   1.513 -0.1593  0.2919  0.1116
    5CHTO  H124 1876   6.903   2.932   1.602  0.0804 -2.2717 -0.0221
    5CHTO   C65 1877   7.083   2.839   1.527  0.3111 -0.5855  0.1373
    5CHTO  H122 1878   7.111   2.821   1.423 -0.3393 -1.7468  0.1632
    5CHTO   O44 1879   7.025   2.719   1.585  0.8646 -0.1756  0.2489
    5CHTO  H102 1880   7.049   2.635   1.550 -2.2446 -0.3639 -1.6070
    5CHTO   C63 1881   7.215   2.900   1.599  0.0191 -0.5939 -0.0869
    5CHTO  H120 1882   7.274   2.958   1.528  1.2520  1.3519  2.4069
    5CHTO   N11 1883   7.315   2.797   1.647  0.1931  0.0350 -0.2696
    5CHTO  H108 1884   7.392   2.793   1.573  1.3669 -1.6164  0.9922
    5CHTO  H109 1885   7.354   2.803   1.747 -2.4042 -1.5722  0.8997
    5CHTO   C61 1886   7.168   3.007   1.701 -0.5050 -0.3681 -0.1388
    5CHTO  H118 1887   7.261   3.050   1.742 -0.9463 -0.9785  1.5297
    5CHTO   O40 1888   7.095   3.118   1.645  0.0783 -0.2610 -0.0255
    5CHTO   C68 1889   7.020   3.086   1.522 -0.1803  0.7982 -0.0854
    5CHTO  H125 1890   7.082   3.076   1.431 -0.6402  1.2847 -0.4514
    5CHTO   C72 1891   6.904   3.192   1.503 -0.3384 -0.2306  0.4389
    5CHTO   O48 1892   6.928   3.330   1.485  0.0334  0.1537  0.2076
    5CHTO  H105 1893   7.010   3.346   1.528 -0.4092  1.3243  0.6584
    5CHTO   O38 1894   7.100   2.940   1.813  0.6821 -0.3619 -0.5278
    5CHTO   C55 1895   7.052   3.031   1.911 -0.0578  0.5526 -0.1459
    5CHTO  H112 1896   7.024   3.128   1.867  0.6521  0.8123 -0.0291
    5CHTO   C56 1897   7.165   3.047   2.018  0.2319 -0.2747 -0.1254
    5CHTO  H113 1898   7.187   2.949   2.063 -1.0416 -1.5324 -2.1631
    5CHTO   O42 1899   7.285   3.107   1.959  0.2090 -0.1356 -0.1159
    5CHTO  H100 1900   7.351   3.113   2.025 -0.4167 -0.2206  0.5166
    5CHTO   C57 1901   7.114   3.146   2.132  0.1142 -0.8102  0.3994
    5CHTO  H114 1902   7.093   3.246   2.093 -1.6974 -2.1361 -2.1767
    5CHTO   N10 1903   7.211   3.162   2.240  0.1622  0.0285  0.2679
    5CHTO  H106 1904   7.214   3.255   2.294 -0.9293 -0.0771  0.5175
    5CHTO  H107 1905   7.314   3.140   2.215  0.8236  1.2857  1.8120
    5CHTO   C58 1906   6.982   3.091   2.192  0.0891  0.1932 -0.4571
    5CHTO  H115 1907   7.002   2.998   2.248  0.9761  2.6820  3.5281
    5CHTO   O37 1908   6.888   3.067   2.079  0.0902 -0.0907  0.2525
    5CHTO   C59 1909   6.929   2.963   1.981 -0.1337 -0.1805 -0.6014
    5CHTO  H116 1910   6.954   2.862   2.014  0.7915 -0.5608 -2.3831
    5CHTO   C70 1911   6.822   2.933   1.876 -0.2080 -0.2751  0.3166
    5CHTO   O46 1912   6.712   2.865   1.926 -0.0606  0.0680 -0.1325
    5CHTO  H103 1913   6.730   2.774   1.942  0.0354  0.3537  1.4905
    5CHTO   O39 1914   6.914   3.215   2.286  0.3486 -0.6124  0.3011
    5CHTO   C60 1915   6.775   3.228   2.264 -0.1421  1.0559  0.2079
    5CHTO  H117 1916   6.763   3.235   2.156  2.4031 -0.4803 -0.2193
    5CHTO   C62 1917   6.682   3.108   2.313  0.2530  0.4944  0.3768
    5CHTO  H119 1918   6.706   3.018   2.254 -0.3313 -1.2752  2.7929
    5CHTO   O43 1919   6.698   3.069   2.449 -0.1311  0.0489 -0.2690
    5CHTO  H101 1920   6.625   3.012   2.464  0.9208 -1.4145 -0.5270
    5CHTO   C66 1921   6.525   3.146   2.277  0.0110  0.7051  0.3605
    5CHTO  H123 1922   6.514   3.166   2.170 -0.7708  0.8108  0.4569
    5CHTO   N12 1923   6.431   3.040   2.310  0.6907  0.2632 -0.3192
    5CHTO  H110 1924   6.479   2.950   2.346  1.4903  0.1324 -1.6567
    5CHTO  H111 1925   6.382   3.009   2.219 -0.1281  1.6020 -0.3427
    5CHTO   C69 1926   6.483   3.280   2.349 -0.1907  1.6334 -0.2634
    5CHTO  H126 1927   6.478   3.266   2.459 -1.7461  0.3795 -0.4801
    5CHTO   O41 1928   6.578   3.403   2.310 -0.7440  0.1711  0.0176
    5CHTO   C64 1929   6.733   3.367   2.323 -0.5330 -0.0858  0.2806
    5CHTO  H121 1930   6.750   3.363   2.433 -0.2975  3.2590  0.4187
    5CHTO   C71 1931   6.821   3.479   2.257 -0.2697  0.0580  0.4190
    5CHTO   O47 1932   6.755   3.609   2.250  0.4857  0.2371 -0.1970
    5CHTO  H104 1933   6.822   3.674   2.259 -1.6023  2.2559  1.0018
    5CHTO   O34 1934   6.323   3.329   2.294  0.3316 -0.0248 -0.5813
    5CHTO   C49 1935   6.266   3.487   2.339 -0.2758 -0.2139  0.5175
    5CHTO   H91 1936   6.161   3.468   2.359 -1.3442  0.8786 -3.6389
    5CHTO   C47 1937   6.288   3.584   2.215  0.7646  0.5435  0.0233
    5CHTO   H89 1938   6.227   3.534   2.137 -2.7511  0.6385  2.5807
    5CHTO   O33 1939   6.426   3.594   2.178  0.4493 -0.5036 -0.0894
    5CHTO   H70 1940   6.443   3.656   2.110  0.8336  0.7962  1.1605
    5CHTO   C45 1941   6.238   3.737   2.252  0.2176 -0.4941  0.0878
    5CHTO   H87 1942   6.331   3.795   2.252 -0.1456  0.2133 -2.8912
    5CHTO    N8 1943   6.152   3.790   2.145 -0.0414 -0.6229 -0.2283
    5CHTO   H75 1944   6.211   3.787   2.054 -0.4464 -1.8407 -0.4584
    5CHTO   H76 1945   6.118   3.890   2.166  0.6809 -0.8445  2.1510
    5CHTO   C43 1946   6.185   3.755   2.408 -0.1378 -0.2237  0.7992
    5CHTO   H85 1947   6.173   3.860   2.431 -0.4824 -0.4324  1.5922
    5CHTO   O29 1948   6.284   3.685   2.497  0.2494  0.5552  0.1276
    5CHTO   C50 1949   6.320   3.551   2.469  0.1801 -0.0968  0.3344
    5CHTO   H92 1950   6.429   3.547   2.455  0.1074 -1.5705  0.1344
    5CHTO   C54 1951   6.299   3.456   2.593  0.1621 -0.3485  0.3983
    5CHTO   O36 1952   6.393   3.491   2.689  0.6591 -0.2956 -0.0488
    5CHTO   H72 1953   6.399   3.584   2.704 -1.1459  0.3236 -2.8005
    5CHTO   O27 1954   6.053   3.702   2.424  0.5401 -0.7637  0.4613
    5CHTO   C37 1955   5.956   3.790   2.499 -0.5705 -0.6060 -0.2704
    5CHTO   H79 1956   5.990   3.893   2.520 -1.2466 -0.4738  0.2118
    5CHTO   C38 1957   5.819   3.802   2.427 -0.3371 -0.7622  0.1167
    5CHTO   H80 1958   5.783   3.702   2.398 -0.2734 -0.5607 -0.6825
    5CHTO   O31 1959   5.841   3.888   2.313 -0.1127 -0.1478  0.3607
    5CHTO   H68 1960   5.758   3.912   2.277  0.5093 -1.2491 -1.9171
    5CHTO   C39 1961   5.705   3.881   2.515 -0.0785  1.1985  0.1207
    5CHTO   H81 1962   5.743   3.982   2.523 -0.9839  1.9543 -3.9885
    5CHTO    N7 1963   5.559   3.890   2.453 -0.1328 -0.2764 -0.0149
    5CHTO   H73 1964   5.572   3.922   2.351  1.7994 -0.3481  0.1913
    5CHTO   H74 1965   5.508   3.798   2.476  1.3669 -1.4575 -1.3227
    5CHTO   C40 1966   5.704   3.807   2.654 -0.9907  0.5171  0.2539
    5CHTO   H82 1967   5.677   3.703   2.636  0.7673 -0.1447  1.4153
    5CHTO   O26 1968   5.839   3.819   2.708  0.1255 -0.1700 -0.2651
    5CHTO   C41 1969   5.923   3.729   2.645  0.5385  0.1174 -0.3072
    5CHTO   H83 1970   5.891   3.625   2.633  1.5597 -0.2545  0.1528
    5CHTO   C52 1971   6.048   3.716   2.731  0.2953  0.6585  0.4078
    5CHTO   O35 1972   6.038   3.706   2.881  0.2711  0.2482 -0.2490
    5CHTO   H71 1973   6.011   3.619   2.905  1.1411  0.1435  0.3740
    5CHTO   O28 1974   5.618   3.874   2.745  0.3070  0.2968  0.1358
    5CHTO   C42 1975   5.591   3.832   2.885 -0.5485  0.6491 -0.0681
    5CHTO   H84 1976   5.501   3.888   2.911 -0.0419  0.6872  1.6695
    5CHTO   C44 1977   5.706   3.863   2.987 -0.4622  0.3202  0.4133
    5CHTO   H86 1978   5.804   3.834   2.948  1.1550  1.1028  3.7338
    5CHTO   O32 1979   5.721   4.007   2.981  0.3021  0.5631  0.3792
    5CHTO   H69 1980   5.660   4.055   3.034 -0.2974  2.3718 -1.8721
    5CHTO   C48 1981   5.680   3.797   3.129  0.1525 -0.8934  0.7899
    5CHTO   H90 1982   5.594   3.833   3.185  0.5830  0.4470  0.5949
    5CHTO    N9 1983   5.800   3.827   3.219  0.0400  0.5403  0.2902
    5CHTO   H77 1984   5.788   3.766   3.308 -1.2626  2.1354  1.2406
    5CHTO   H78 1985   5.814   3.930   3.246  2.1315  0.2293  0.4306
    5CHTO   C51 1986   5.651   3.646   3.095 -0.3487  1.0307 -0.3561
    5CHTO   H93 1987   5.732   3.607   3.034 -0.8717 -0.1630 -0.2897
    5CHTO   O30 1988   5.522   3.637   3.032  0.3311  0.4199 -0.2265
    5CHTO   C46 1989   5.545   3.677   2.892 -0.5867  0.4673 -0.5129
    5CHTO   H88 1990   5.622   3.615   2.846 -0.9790 -1.2475  1.0715
    5CHTO   C53 1991   5.421   3.635   2.821 -0.2996 -0.1090  0.1964
    5CHTO   O72 1992   5.302   3.700   2.877 -0.0114 -0.4007  0.8593
    5CHTO  H199 1993   5.287   3.674   2.966 -1.5907  1.0185  1.0353
    5CHTO   O22 1994   5.636   3.567   3.209 -0.0067  0.1528  0.2877
    5CHTO   C31 1995   5.675   3.429   3.225 -0.5582 -0.1643 -0.4766
    5CHTO   H59 1996   5.639   3.401   3.326  1.9593 -2.0666 -0.0464
    5CHTO   C29 1997   5.608   3.325   3.128 -0.0104 -0.1387  0.1325
    5CHTO   H57 1998   5.618   3.369   3.027 -1.9268 -1.1168 -0.5070
    5CHTO   O21 1999   5.468   3.327   3.157  0.4211  0.5695 -0.1797
    5CHTO   H37 2000   5.456   3.330   3.250  1.4905  0.8874 -0.0425
    5CHTO   C27 2001   5.676   3.180   3.132  0.0501 -0.7864 -0.4648
    5CHTO   H55 2002   5.657   3.137   3.232  0.8739  1.9163  0.9150
    5CHTO    N5 2003   5.622   3.091   3.025 -0.4894 -0.8877  0.3206
    5CHTO   H43 2004   5.568   3.001   3.052 -1.2001 -1.0850 -1.6560
    5CHTO   H44 2005   5.675   3.093   2.931  0.6474  0.5087  0.9879
    5CHTO   C25 2006   5.826   3.196   3.115  0.8427  0.6401 -0.2410
    5CHTO   H53 2007   5.849   3.256   3.025  1.5861 -3.1303 -2.6413
    5CHTO   O17 2008   5.872   3.272   3.233  0.6513 -0.0601 -0.6324
    5CHTO   C32 2009   5.831   3.413   3.235  0.3456  0.3707 -0.0405
    5CHTO   H60 2010   5.880   3.456   3.148  2.1068  0.9330  1.1944
    5CHTO   C36 2011   5.891   3.483   3.356 -0.1655  0.1484 -0.6136
    5CHTO   O25 2012   5.867   3.411   3.477  0.2179  0.4765  0.4272
    5CHTO   H40 2013   5.778   3.416   3.507  0.4891 -2.1905  1.8227
    5CHTO   O15 2014   5.912   3.057   3.101 -0.1890 -0.7870  0.4951
    5CHTO   C19 2015   6.042   2.996   3.120 -0.4230  0.8955  0.5699
    5CHTO   H47 2016   6.082   3.023   3.219 -1.5153  0.1507  1.2258
    5CHTO   C20 2017   6.039   2.842   3.101 -0.6571  0.0357 -0.3429
    5CHTO   H48 2018   5.997   2.818   3.002 -2.7066  0.3996  0.4159
    5CHTO   O19 2019   5.958   2.792   3.206  0.1065 -0.0592 -0.2016
    5CHTO   H35 2020   5.968   2.700   3.218  2.9818  0.4667  2.0286
    5CHTO   C21 2021   6.183   2.770   3.097 -0.1800  0.1587  0.4279
    5CHTO   H49 2022   6.232   2.788   3.193  0.0466  2.0331 -0.0111
    5CHTO    N4 2023   6.174   2.624   3.075 -0.2263 -0.0333  0.0880
    5CHTO   H41 2024   6.241   2.593   2.997  0.1076  0.2551  0.2609
    5CHTO   H42 2025   6.195   2.574   3.169  0.5456  0.8571  0.3960
    5CHTO   C22 2026   6.276   2.844   2.995  0.4149  0.4830  0.4183
    5CHTO   H50 2027   6.252   2.838   2.889  0.5598 -0.0163  0.4114
    5CHTO   O14 2028   6.271   2.982   3.030  0.8504  0.1737  0.0945
    5CHTO   C23 2029   6.146   3.048   3.007 -0.0697 -0.4202 -0.6981
    5CHTO   H51 2030   6.108   3.031   2.905 -0.4509  0.1266 -0.6468
    5CHTO   C34 2031   6.170   3.200   3.022 -0.1684  0.0346 -0.3967
    5CHTO   O23 2032   6.250   3.245   2.916 -0.2541 -0.3743  0.1625
    5CHTO   H38 2033   6.249   3.339   2.914  3.3674 -0.2099  2.2507
    5CHTO   O16 2034   6.419   2.816   3.010 -0.0617 -0.9924  0.1538
    5CHTO   C24 2035   6.483   2.697   2.917  0.1930  0.0942  0.5603
    5CHTO   H52 2036   6.405   2.642   2.864 -1.0058  1.1180  1.2220
    5CHTO   C26 2037   6.570   2.593   2.996  0.9019 -0.2619 -0.1477
    5CHTO   H54 2038   6.630   2.656   3.065 -0.3745  1.7410 -0.8071
    5CHTO   O20 2039   6.478   2.511   3.070 -0.0125  0.6702  0.2874
    5CHTO   H36 2040   6.443   2.569   3.136 -0.3005 -0.9829  1.6107
    5CHTO   C30 2041   6.676   2.511   2.912 -1.0341  0.1443 -0.1392
    5CHTO   H58 2042   6.621   2.432   2.858 -0.0514 -0.4755 -0.2416
    5CHTO    N6 2043   6.774   2.440   3.004 -0.0808  0.0800  0.4193
    5CHTO   H45 2044   6.864   2.401   2.959  0.3767 -1.6435  2.6738
    5CHTO   H46 2045   6.806   2.497   3.090 -1.5266  1.8281 -0.1698
    5CHTO   C33 2046   6.739   2.600   2.806 -0.2806 -0.2202  0.3806
    5CHTO   H61 2047   6.802   2.678   2.851  0.6824 -0.3322 -0.7613
    5CHTO   O18 2048   6.639   2.666   2.728  0.5895 -0.2726 -0.2634
    5CHTO   C28 2049   6.568   2.764   2.805 -0.2107  0.0477 -0.4349
    5CHTO   H56 2050   6.642   2.831   2.847  1.0819 -2.2357  1.0182
    5CHTO   C35 2051   6.473   2.845   2.710 -0.0001  0.3320  0.6395
    5CHTO   O24 2052   6.552   2.913   2.611  0.5903 -0.1966 -0.8475
    5CHTO   H39 2053   6.577   2.998   2.641  2.1473 -1.0490  0.3093
    5CHTO    O9 2054   6.828   2.527   2.726 -0.0999 -0.4874  0.0765
    5CHTO   C13 2055   6.925   2.633   2.635 -0.3485  0.3669  0.4885
    5CHTO   H26 2056   6.897   2.739   2.651  0.4770  1.0334 -2.1456
    5CHTO   C11 2057   6.908   2.597   2.483  0.2572 -0.3414 -0.2979
    5CHTO   H24 2058   6.813   2.638   2.445  0.5869 -0.0844 -0.8620
    5CHTO    O8 2059   6.926   2.459   2.470 -0.8397  0.9324 -0.1688
    5CHTO    H3 2060   6.887   2.445   2.386  0.9126  1.7495 -1.1546
    5CHTO    C9 2061   7.014   2.684   2.397 -0.3569 -0.3761 -0.0205
    5CHTO   H22 2062   6.975   2.786   2.401 -3.0651 -1.3926  0.8781
    5CHTO    N2 2063   7.021   2.649   2.259  0.8000  0.5033 -0.1762
    5CHTO   H10 2064   7.090   2.569   2.239  1.1393  0.6537  0.4057
    5CHTO   H11 2065   7.042   2.735   2.197  2.6981 -0.8367 -1.4479
    5CHTO    C7 2066   7.157   2.687   2.471  0.0653  0.0387  0.3376
    5CHTO   H20 2067   7.161   2.793   2.507  1.6310  0.4244 -0.8905
    5CHTO    O4 2068   7.168   2.594   2.581 -0.2571  0.4355 -0.4712
    5CHTO   C14 2069   7.078   2.634   2.682  0.0770 -0.4771 -0.0066
    5CHTO   H27 2070   7.115   2.736   2.708  0.3739 -0.2327 -1.3256
    5CHTO   C18 2071   7.101   2.536   2.803  0.2497  0.5191  0.6240
    5CHTO   O13 2072   7.231   2.564   2.862  0.0648 -0.0477  0.3232
    5CHTO    H7 2073   7.223   2.643   2.912  0.2738 -0.0742  0.3980
    5CHTO    O2 2074   7.299   2.673   2.376  0.2493  0.2287 -0.3213
    5CHTO    C1 2075   7.356   2.776   2.296 -0.1649 -0.3454 -0.0198
    5CHTO   H14 2076   7.274   2.847   2.269 -0.3634  0.9321  3.6857
    5CHTO    C2 2077   7.417   2.716   2.158 -0.1596  0.6229  0.3532
    5CHTO   H15 2078   7.487   2.633   2.178  1.1912  1.2897 -1.4801
    5CHTO    O6 2079   7.311   2.666   2.075 -0.7511 -0.4994 -0.3007
    5CHTO    H1 2080   7.232   2.663   2.125 -0.1384 -0.1446  0.7033
    5CHTO    C3 2081   7.503   2.822   2.085 -0.0216  0.4445  0.6679
    5CHTO   H16 2082   7.438   2.907   2.059 -1.3347 -0.9243 -0.5559
    5CHTO    N1 2083   7.570   2.768   1.961 -0.4254  0.6110  0.4821
    5CHTO    H8 2084   7.641   2.833   1.911 -0.9848  1.5017  0.8433
    5CHTO    H9 2085   7.491   2.751   1.889 -0.8218  2.1535  0.5507
    5CHTO    C4 2086   7.602   2.880   2.185 -0.7524 -0.1435  0.0732
    5CHTO   H17 2087   7.671   2.802   2.215  0.5325  0.5852 -0.8772
    5CHTO    O1 2088   7.534   2.946   2.295  0.0479  0.1186  0.0824
    5CHTO    C5 2089   7.468   2.853   2.378 -0.0084  0.0203  0.3053
    5CHTO   H18 2090   7.544   2.784   2.414  2.2924  1.4729 -1.6603
    5CHTO   C16 2091   7.411   2.932   2.502  0.0872  0.7031 -0.3112
    5CHTO   O11 2092   7.496   3.008   2.589  0.2627 -0.0413 -0.0852
    5CHTO    H5 2093   7.453   3.053   2.659  0.0138 -1.7636  0.8929
    5CHTO    O3 2094   7.681   2.993   2.132 -0.5646  0.2906 -0.4187
    5CHTO    C6 2095   7.820   3.002   2.167  0.3809  0.1481  0.3914
    5CHTO   H19 2096   7.852   2.920   2.231  0.1951  0.5669  1.0244
    5CHTO    C8 2097   7.921   3.008   2.047 -0.3908 -0.7896  0.1896
    5CHTO   H21 2098   7.879   3.071   1.968 -0.2806 -0.6750  0.2221
    5CHTO    O7 2099   7.938   2.876   1.994  0.1777  0.2547 -0.1078
    5CHTO    H2 2100   7.857   2.834   1.973 -0.0234 -1.5278  3.8777
    5CHTO   C12 2101   8.072   3.055   2.084  0.2336 -0.4149 -0.3500
    5CHTO   H25 2102   8.118   2.977   2.149  0.6046 -1.1971 -1.5370
    5CHTO    N3 2103   8.165   3.072   1.963 -0.1882  0.3161  1.0636
    5CHTO   H12 2104   8.234   3.156   1.969 -1.1078  1.2461 -0.7202
    5CHTO   H13 2105   8.108   3.094   1.873 -1.2205 -3.6737  0.6672
    5CHTO   C15 2106   8.053   3.181   2.172 -0.4774  0.2611  0.2515
    5CHTO   H28 2107   8.014   3.265   2.115  2.7092  0.0820 -2.3588
    5CHTO   O10 2108   8.197   3.229   2.237  0.8166  0.0783 -0.1108
    5CHTO    H4 2109   8.232   3.153   2.278 -0.1884 -0.6706 -0.6203
    5CHTO    O5 2110   7.983   3.149   2.286  0.5534  0.7070  0.3413
    5CHTO   C10 2111   7.844   3.134   2.250  0.0678  0.9862  0.6293
    5CHTO   H23 2112   7.806   3.229   2.211 -2.5486 -0.2393  0.1016
    5CHTO   C17 2113   7.773   3.126   2.383  0.2637 -0.0241 -0.2226
    5CHTO   O12 2114   7.798   3.011   2.463 -0.0468 -0.4745 -0.3165
    5CHTO    H6 2115   7.763   3.022   2.549  0.4201  1.6799 -0.3738
    6CHTO  H203 2116   7.462   4.970   0.122 -0.6513  0.6385 -0.8369
    6CHTO   O82 2117   7.394   4.944   0.181  0.1376 -1.0853 -0.6565
    6CHTO  C123 2118   7.279   5.039   0.188 -0.5992  0.6538  0.4101
    6CHTO  H227 2119   7.298   5.118   0.114 -1.1983  0.5403  0.1351
    6CHTO   O77 2120   7.158   4.961   0.145 -0.2514  0.4825  0.4822
    6CHTO  C118 2121   7.029   5.026   0.131  0.6302  0.1726 -0.0828
    6CHTO  H222 2122   7.033   5.092   0.043  0.6763 -0.1773 -0.3436
    6CHTO  C125 2123   6.918   4.915   0.099  0.4205  1.0047  0.6620
    6CHTO   O84 2124   6.922   4.802   0.191  0.0221 -0.0484  0.0312
    6CHTO  H205 2125   7.008   4.775   0.217  0.0429  0.6605  0.7070
    6CHTO  C114 2126   6.997   5.094   0.264  0.5672  0.1338  0.0087
    6CHTO  H218 2127   6.979   5.019   0.340  0.1005  1.0859  0.8491
    6CHTO  C116 2128   7.108   5.181   0.321 -0.2961  0.4501  0.4779
    6CHTO  H220 2129   7.128   5.269   0.256  3.6665 -0.9496 -0.3377
    6CHTO   O79 2130   7.066   5.236   0.447  0.2463  0.0315  0.0377
    6CHTO  H201 2131   7.089   5.182   0.520  0.2261 -0.4341 -0.3001
    6CHTO  C120 2132   7.240   5.094   0.329 -0.7128  0.5430 -0.7027
    6CHTO  H224 2133   7.213   5.014   0.402  2.0494  2.1243  2.1985
    6CHTO   N21 2134   7.357   5.172   0.377 -0.1678  0.0201 -0.4129
    6CHTO  H211 2135   7.361   5.269   0.328  3.5000 -1.1819 -2.6911
    6CHTO  H212 2136   7.367   5.164   0.484  1.3627  0.7078 -0.4927
    6CHTO   O75 2137   6.894   5.187   0.230  0.3624 -0.2926 -0.0136
    6CHTO  C112 2138   6.779   5.190   0.347  0.7136  0.7615 -0.5406
    6CHTO  H216 2139   6.836   5.201   0.440  1.3381 -0.8018 -0.7359
    6CHTO   O73 2140   6.704   5.064   0.347 -0.0749  0.0828  0.0250
    6CHTO  C113 2141   6.593   5.057   0.439  0.0816  1.0951  0.7020
    6CHTO  H217 2142   6.621   5.089   0.542  0.3006 -0.9993  1.3198
    6CHTO  C124 2143   6.560   4.911   0.444  0.4972  0.0396  0.3887
    6CHTO   O83 2144   6.643   4.833   0.533 -0.1604  0.1273  0.0071
    6CHTO  H204 2145   6.724   4.881   0.535  0.6725 -1.2585  2.9769
    6CHTO  C109 2146   6.489   5.155   0.377  0.4797  0.2414 -0.4208
    6CHTO  H213 2147   6.473   5.127   0.272  1.4896  0.4740 -0.6450
    6CHTO  C110 2148   6.540   5.298   0.386  0.0872  0.2858 -0.1874
    6CHTO  H214 2149   6.538   5.332   0.490 -0.8483  2.0072 -0.7561
    6CHTO   O78 2150   6.441   5.382   0.314  0.7995 -0.0802 -0.1450
    6CHTO  H200 2151   6.370   5.395   0.373 -0.7581  2.5356 -2.4556
    6CHTO  C111 2152   6.678   5.309   0.314 -0.5115 -0.1245  0.1897
    6CHTO  H215 2153   6.659   5.301   0.206  0.3795  0.7007 -0.0456
    6CHTO   N19 2154   6.738   5.445   0.327 -0.3359 -0.1229 -0.4097
    6CHTO  H207 2155   6.690   5.512   0.258 -0.7545 -0.9821 -0.9687
    6CHTO  H208 2156   6.708   5.478   0.425  0.9241  2.8876 -0.9922
    6CHTO   O74 2157   6.362   5.150   0.446  0.0179 -0.0859 -0.9220
    6CHTO  C115 2158   6.351   5.136   0.599 -0.7413  0.1168  0.3913
    6CHTO  H219 2159   6.444   5.098   0.640  0.6013  0.4286 -2.2628
    6CHTO   O76 2160   6.327   5.277   0.671 -0.2770 -0.1376 -0.0196
    6CHTO  C122 2161   6.206   5.339   0.643 -0.0235 -0.1591  0.2210
    6CHTO  H226 2162   6.200   5.359   0.536  1.2373  0.3308  0.2325
    6CHTO  C126 2163   6.195   5.480   0.721 -0.3724 -0.0603  0.3217
    6CHTO   O85 2164   6.077   5.548   0.684 -0.1583 -0.2082  0.2273
    6CHTO  H206 2165   6.109   5.595   0.610 -0.7583 -4.0015 -2.5567
    6CHTO  C121 2166   6.082   5.242   0.676 -0.1095 -0.2267  0.8652
    6CHTO  H225 2167   6.019   5.286   0.756 -0.2601 -2.0994  1.8116
    6CHTO   O81 2168   5.999   5.229   0.560 -0.2172  0.2948  0.9721
    6CHTO  H202 2169   5.929   5.168   0.576  0.8795 -1.1693  0.3546
    6CHTO  C119 2170   6.123   5.101   0.717  0.1035  0.7655  0.4618
    6CHTO  H223 2171   6.163   5.106   0.818  1.4879 -0.9303  0.0345
    6CHTO  C117 2172   6.233   5.036   0.621  0.6975 -0.6732 -0.9159
    6CHTO  H221 2173   6.198   5.003   0.523 -1.1700  0.1509 -0.5389
    6CHTO   N20 2174   6.280   4.907   0.682 -0.2592  0.0530 -0.1234
    6CHTO  H209 2175   6.206   4.832   0.706  1.3982 -1.9815 -1.1392
    6CHTO  H210 2176   6.373   4.877   0.636 -0.0502 -2.3846  1.7889
    6CHTO   O80 2177   6.002   4.995   0.743  0.1542 -0.4465 -0.0777
    6CHTO  C103 2178   5.962   4.965   0.877  0.2865 -0.4481 -0.2632
    6CHTO  H190 2179   6.048   4.955   0.944 -0.2868  1.4006  0.7891
    6CHTO  C101 2180   5.872   5.076   0.943 -0.0496 -0.1601 -0.1379
    6CHTO  H188 2181   5.806   5.112   0.864  0.2070 -0.0967 -0.3231
    6CHTO   O68 2182   5.950   5.177   0.982  0.4532 -0.8419 -0.1058
    6CHTO  H168 2183   5.904   5.258   0.981  1.4126 -0.2919  0.1326
    6CHTO   C99 2184   5.786   5.021   1.062  0.0684 -0.3001  0.1927
    6CHTO  H186 2185   5.845   5.024   1.155 -1.7478 -0.2190  1.3795
    6CHTO   N17 2186   5.672   5.114   1.097 -0.4299  0.4544  0.0779
    6CHTO  H174 2187   5.656   5.189   1.021 -1.6058  1.8465  1.6448
    6CHTO  H175 2188   5.685   5.168   1.190 -0.6091 -0.9567  0.9411
    6CHTO   C97 2189   5.729   4.878   1.040  0.2473  0.1315  0.7051
    6CHTO  H184 2190   5.651   4.890   0.964 -0.5674  0.0620  1.5100
    6CHTO   O64 2191   5.830   4.788   0.994 -0.1027 -0.1681 -0.1981
    6CHTO  C104 2192   5.892   4.823   0.867  0.0724 -0.0561  0.2342
    6CHTO  H191 2193   5.820   4.818   0.784 -0.8842 -4.6745  1.1799
    6CHTO  C108 2194   5.986   4.708   0.844 -0.2189  0.9041  0.1860
    6CHTO   O71 2195   5.995   4.678   0.703 -0.0995 -0.4087 -0.1958
    6CHTO  H171 2196   6.075   4.633   0.687  0.8240  1.3643 -0.6741
    6CHTO   O62 2197   5.679   4.820   1.161  0.6208  0.3118  0.1080
    6CHTO   C91 2198   5.537   4.815   1.191  0.4197 -0.1115  0.0901
    6CHTO  H178 2199   5.505   4.919   1.200 -3.4757 -1.1575 -0.9748
    6CHTO   C92 2200   5.532   4.752   1.336 -0.0628  0.2822  0.5390
    6CHTO  H179 2201   5.604   4.800   1.404 -0.0650  2.1203 -0.7022
    6CHTO   O66 2202   5.405   4.776   1.405 -0.2125 -0.6153 -0.5229
    6CHTO  H166 2203   5.333   4.749   1.352  0.5530 -0.9323 -1.4292
    6CHTO   C93 2204   5.556   4.593   1.331 -0.3098 -0.1306 -0.1874
    6CHTO  H180 2205   5.510   4.555   1.423  0.2399 -0.7533 -0.1670
    6CHTO   N16 2206   5.701   4.547   1.330 -0.8499  0.1326 -0.3705
    6CHTO  H172 2207   5.722   4.516   1.431  0.1738  1.7204 -0.0832
    6CHTO  H173 2208   5.760   4.634   1.309  0.0288 -0.5983 -0.9535
    6CHTO   C94 2209   5.486   4.532   1.203 -0.4519  0.2501 -0.2208
    6CHTO  H181 2210   5.555   4.516   1.120  0.1447 -1.2445  0.5383
    6CHTO   O61 2211   5.380   4.620   1.152 -0.3041 -0.1511 -0.0284
    6CHTO   C95 2212   5.431   4.740   1.097 -0.5074  0.2884 -0.0129
    6CHTO  H182 2213   5.474   4.726   0.998  0.2581  1.5409  0.1279
    6CHTO  C106 2214   5.306   4.842   1.076 -0.5425 -0.2136  0.0967
    6CHTO   O69 2215   5.207   4.785   1.005 -0.3404  0.0941 -0.2942
    6CHTO  H169 2216   5.162   4.833   0.938  0.0109  0.2462 -0.4179
    6CHTO   O63 2217   5.420   4.387   1.234 -0.2045  0.2327 -0.6606
    6CHTO   C96 2218   5.477   4.273   1.131  0.0334  0.4025  0.1262
    6CHTO  H183 2219   5.580   4.302   1.111 -0.4695  0.3629 -2.7363
    6CHTO   C98 2220   5.391   4.260   1.003  0.8662  0.4368  0.0431
    6CHTO  H185 2221   5.285   4.247   1.031  0.4147 -2.4287 -2.6735
    6CHTO   O67 2222   5.396   4.379   0.923 -0.8662 -0.1651  0.4517
    6CHTO  H167 2223   5.409   4.454   0.978 -0.5638 -0.4746  0.7995
    6CHTO  C102 2224   5.439   4.140   0.904  0.4159  0.2024  0.1970
    6CHTO  H189 2225   5.496   4.186   0.822  0.7243  2.3272  1.5683
    6CHTO   N18 2226   5.338   4.064   0.837 -0.3981  0.3650 -0.2482
    6CHTO  H176 2227   5.243   4.101   0.871 -0.6815 -0.1979 -0.4218
    6CHTO  H177 2228   5.343   3.960   0.867  0.0328  1.3051  3.1439
    6CHTO  C105 2229   5.531   4.038   0.983 -0.4126 -0.4685  0.4611
    6CHTO  H192 2230   5.536   3.941   0.934  0.6826 -0.9627  1.5287
    6CHTO   O65 2231   5.504   4.009   1.124  0.0614  0.2554 -0.0685
    6CHTO  C100 2232   5.488   4.128   1.208  1.2829 -0.0539  0.2890
    6CHTO  H187 2233   5.396   4.107   1.264  1.5773  0.7610  1.0923
    6CHTO  C107 2234   5.595   4.139   1.319 -0.6194 -0.5337  0.5186
    6CHTO   O70 2235   5.725   4.090   1.275  0.3801  0.0713  0.0502
    6CHTO  H170 2236   5.718   4.014   1.221 -0.1711  0.0861  0.1016
    6CHTO   O57 2237   5.681   4.108   0.977  0.8603  0.3123 -0.5331
    6CHTO   C85 2238   5.775   4.153   0.876  0.3835 -0.0001 -0.3859
    6CHTO  H157 2239   5.709   4.150   0.786 -0.4988 -3.0458  0.2983
    6CHTO   C83 2240   5.887   4.048   0.846  0.1058  0.5879 -0.7555
    6CHTO  H155 2241   5.851   3.963   0.787  0.4967 -0.5847  0.6557
    6CHTO   O56 2242   5.930   3.989   0.967 -0.7407 -0.4510  0.7705
    6CHTO  H135 2243   5.968   4.059   1.016  1.8561 -0.2984 -1.3269
    6CHTO   C81 2244   5.993   4.118   0.762 -0.6589 -0.1170  0.3478
    6CHTO  H153 2245   5.942   4.162   0.676  0.8988  1.1611  0.0332
    6CHTO   N14 2246   6.086   4.027   0.693 -0.0650 -0.1999  0.2027
    6CHTO  H141 2247   6.085   3.936   0.749  1.0141  0.4136  1.2386
    6CHTO  H142 2248   6.059   4.000   0.593 -0.8865  0.4591  0.2418
    6CHTO   C79 2249   6.063   4.230   0.831 -0.6521  0.2217 -1.2280
    6CHTO  H151 2250   6.152   4.253   0.773  1.0127 -4.0830 -0.5566
    6CHTO   O52 2251   5.963   4.337   0.843 -0.4456 -0.5806 -0.3716
    6CHTO   C86 2252   5.836   4.304   0.904  0.3408 -0.0518 -0.2312
    6CHTO  H158 2253   5.847   4.323   1.013  1.2862 -4.3916  0.5428
    6CHTO   C90 2254   5.733   4.414   0.854  0.5588  0.0439 -0.1205
    6CHTO   O60 2255   5.743   4.536   0.925  0.3120  0.3217  0.1167
    6CHTO  H138 2256   5.739   4.604   0.861 -2.2539  0.1245  0.0007
    6CHTO   O50 2257   6.121   4.204   0.958 -0.2498  0.1692  0.0720
    6CHTO   C73 2258   6.197   4.218   1.075  0.0230  0.4492  0.1554
    6CHTO  H145 2259   6.202   4.118   1.120 -0.0682  0.2713 -0.2307
    6CHTO   C74 2260   6.129   4.308   1.182  0.0479 -0.5598 -0.8765
    6CHTO  H146 2261   6.027   4.270   1.193 -0.6523  1.9343  1.8501
    6CHTO   O54 2262   6.200   4.280   1.298  0.3567  0.0165  0.4708
    6CHTO  H133 2263   6.144   4.235   1.358 -1.3231  1.2070 -0.1587
    6CHTO   C75 2264   6.129   4.457   1.123 -0.4774 -0.9700 -0.1214
    6CHTO  H147 2265   6.069   4.470   1.031 -1.1883 -0.1595  0.4511
    6CHTO   N13 2266   6.066   4.560   1.213 -0.1819 -0.5328 -0.5094
    6CHTO  H139 2267   6.147   4.617   1.256  0.2659 -0.3649 -1.5555
    6CHTO  H140 2268   6.020   4.496   1.287 -1.8555  0.1807 -0.8869
    6CHTO   C76 2269   6.282   4.494   1.079  0.4016  0.0515  0.4853
    6CHTO  H148 2270   6.335   4.503   1.174 -0.5494  0.6957  0.9621
    6CHTO   O49 2271   6.345   4.389   0.989  0.1775  0.1938  0.3006
    6CHTO   C77 2272   6.344   4.262   1.046 -0.1316 -0.3671  0.0166
    6CHTO  H149 2273   6.400   4.259   1.140 -1.8504 -2.3327  1.0465
    6CHTO   C88 2274   6.427   4.180   0.952  0.5421 -0.3492  0.1315
    6CHTO   O58 2275   6.573   4.244   0.909  0.4025 -0.4871 -0.1474
    6CHTO  H136 2276   6.575   4.338   0.908  1.1270 -0.4802  1.1833
    6CHTO   O51 2277   6.296   4.617   1.003 -0.4589 -0.2119 -0.2335
    6CHTO   C78 2278   6.389   4.729   1.062  0.7231  0.0252  0.4007
    6CHTO  H150 2279   6.420   4.703   1.166  1.3296 -0.5973  0.0695
    6CHTO   C80 2280   6.312   4.866   1.064 -0.6042 -0.0209  0.2347
    6CHTO  H152 2281   6.277   4.888   0.961 -0.8033 -2.0618 -0.1558
    6CHTO   O55 2282   6.204   4.841   1.158  1.2371  0.6678 -0.4521
    6CHTO  H134 2283   6.146   4.915   1.159  1.0713  0.5259  1.0682
    6CHTO   C84 2284   6.398   4.982   1.111 -0.0776  0.1986 -0.1440
    6CHTO  H156 2285   6.425   4.950   1.212  1.8118 -0.9903 -0.9846
    6CHTO   N15 2286   6.330   5.116   1.111  0.4290 -0.3831 -0.1595
    6CHTO  H143 2287   6.225   5.110   1.093  0.4673  0.1516 -0.5455
    6CHTO  H144 2288   6.381   5.184   1.046 -2.2406  1.9289  0.0732
    6CHTO   C87 2289   6.534   4.986   1.035  0.8998 -0.1943 -0.0307
    6CHTO  H159 2290   6.515   5.010   0.930  1.1727 -1.6213 -0.4061
    6CHTO   O53 2291   6.596   4.841   1.040 -0.1382 -0.0634 -0.1223
    6CHTO   C82 2292   6.516   4.742   0.972 -0.5684 -0.4208  0.1600
    6CHTO  H154 2293   6.486   4.774   0.873  2.6241  2.4856  0.0816
    6CHTO   C89 2294   6.598   4.605   0.954 -0.4000 -0.0530  0.6184
    6CHTO   O59 2295   6.705   4.622   0.863  0.0115  0.4229  0.5926
    6CHTO  H137 2296   6.689   4.561   0.793 -1.0922  2.4632 -0.9582
    6CHTO   O45 2297   6.636   5.076   1.103 -0.0636  0.5916 -0.0407
    6CHTO   C67 2298   6.760   5.098   1.028  0.3434 -0.3750  0.8663
    6CHTO  H124 2299   6.815   5.004   1.026  1.7518  0.4484 -0.8547
    6CHTO   C65 2300   6.752   5.152   0.878 -0.2605  0.9046  0.9294
    6CHTO  H122 2301   6.649   5.186   0.870 -0.6531 -0.2894  0.8306
    6CHTO   O44 2302   6.761   5.038   0.794  0.0810 -0.8943 -0.4106
    6CHTO  H102 2303   6.846   4.998   0.799  0.1836 -0.7769 -1.2203
    6CHTO   C63 2304   6.832   5.278   0.852 -0.0462 -0.8684  0.8603
    6CHTO  H120 2305   6.778   5.365   0.888  0.7589  0.3977 -0.9040
    6CHTO   N11 2306   6.826   5.327   0.711  0.0003  0.3039  0.1142
    6CHTO  H108 2307   6.903   5.397   0.684 -2.2334  1.7168 -2.8684
    6CHTO  H109 2308   6.729   5.366   0.689  0.2673  0.5261 -0.7072
    6CHTO   C61 2309   6.976   5.277   0.917  0.4019 -0.7233  0.3232
    6CHTO  H118 2310   7.009   5.382   0.916 -2.0713  0.1005  1.5308
    6CHTO   O40 2311   6.981   5.236   1.057 -0.3151  0.3629 -0.3103
    6CHTO   C68 2312   6.853   5.205   1.119 -0.0553  0.5989 -0.2055
    6CHTO  H125 2313   6.797   5.299   1.136  0.7926  1.3147 -1.2785
    6CHTO   C72 2314   6.892   5.157   1.252 -0.6506  0.5949  0.5776
    6CHTO   O48 2315   6.786   5.136   1.340 -0.8254  0.4090  0.1155
    6CHTO  H105 2316   6.818   5.087   1.413  1.2672  1.6596  0.0653
    6CHTO   O38 2317   7.050   5.175   0.841 -0.5138 -0.2750 -0.2221
    6CHTO   C55 2318   7.189   5.190   0.871 -0.1671 -0.2992  0.0394
    6CHTO  H112 2319   7.202   5.234   0.971  0.3670  0.8398 -0.5270
    6CHTO   C56 2320   7.265   5.275   0.759  0.7674  0.2459 -0.6222
    6CHTO  H113 2321   7.244   5.222   0.665  2.2916 -2.6271  0.5908
    6CHTO   O42 2322   7.209   5.406   0.747 -0.5018  0.1376  0.0414
    6CHTO  H100 2323   7.126   5.411   0.703 -1.2708  0.3479  1.4574
    6CHTO   C57 2324   7.416   5.277   0.781 -0.2823 -0.4780 -0.3094
    6CHTO  H114 2325   7.419   5.342   0.868 -0.2668 -0.5640 -0.2459
    6CHTO   N10 2326   7.505   5.331   0.674 -0.0731 -0.0082 -0.0249
    6CHTO  H106 2327   7.608   5.301   0.691 -0.2416 -1.8813 -2.0888
    6CHTO  H107 2328   7.503   5.439   0.672 -2.5465 -0.0089  1.0757
    6CHTO   C58 2329   7.477   5.141   0.819  0.5982  0.4349  0.6003
    6CHTO  H115 2330   7.485   5.076   0.729  0.7016  1.5186 -0.1843
    6CHTO   O37 2331   7.401   5.067   0.919  0.0848  0.7903 -0.4169
    6CHTO   C59 2332   7.261   5.050   0.889 -0.2861  0.4264  0.2175
    6CHTO  H116 2333   7.238   4.990   0.800  0.4459  0.2571  0.1339
    6CHTO   C70 2334   7.194   4.986   1.017  0.0137  0.5457  0.0042
    6CHTO   O46 2335   7.235   4.852   1.037  0.2487 -0.4828 -0.7385
    6CHTO  H103 2336   7.159   4.805   1.066  0.6410 -0.4173  0.4400
    6CHTO   O39 2337   7.634   5.170   0.883  0.3276  0.1482 -0.0575
    6CHTO   C60 2338   7.724   5.063   0.867  0.2678  0.5765  0.1517
    6CHTO  H117 2339   7.679   4.980   0.812  1.6901  1.8662 -3.1021
    6CHTO   C62 2340   7.838   5.095   0.771 -0.2775  0.4870 -0.3948
    6CHTO  H119 2341   7.786   5.101   0.673 -0.1223 -0.3106 -0.5351
    6CHTO   O43 2342   7.907   5.221   0.802  0.2648 -0.3062  0.1802
    6CHTO  H101 2343   7.861   5.292   0.762 -0.7314 -0.1816  1.5271
    6CHTO   C66 2344   7.940   4.975   0.751 -0.4204  0.2593 -0.2069
    6CHTO  H123 2345   7.882   4.884   0.736  1.2420 -0.9527  0.5647
    6CHTO   N12 2346   8.024   4.981   0.630 -0.2830 -0.4606 -0.0339
    6CHTO  H110 2347   7.971   5.003   0.538  1.6234  0.7267 -0.8882
    6CHTO  H111 2348   8.119   5.027   0.650 -0.8344  0.0374  1.5732
    6CHTO   C69 2349   8.014   4.959   0.883  0.2002 -0.3521  0.7609
    6CHTO  H126 2350   8.057   5.056   0.915  0.4384 -0.3843  0.5360
    6CHTO   O41 2351   7.888   4.911   0.988  0.7870 -0.4292  0.3240
    6CHTO   C64 2352   7.768   5.009   1.005 -0.2260 -0.2327  0.4802
    6CHTO  H121 2353   7.787   5.098   1.069 -0.3424  0.6318 -0.6705
    6CHTO   C71 2354   7.659   4.937   1.066 -0.3688  0.0111 -0.6392
    6CHTO   O47 2355   7.569   5.025   1.134 -0.1615 -0.2121 -0.0299
    6CHTO  H104 2356   7.606   5.052   1.216  2.2607  1.4502 -1.6061
    6CHTO   O34 2357   8.130   4.846   0.884 -0.0401 -0.3473  0.6043
    6CHTO   C49 2358   8.293   4.856   0.844 -0.3632  0.0618  0.2144
    6CHTO   H91 2359   8.298   4.817   0.743 -0.0448  1.0203 -0.1481
    6CHTO   C47 2360   8.360   4.753   0.935 -0.7633 -0.7702  0.1094
    6CHTO   H89 2361   8.467   4.744   0.907 -0.5614  0.8962  0.2755
    6CHTO   O33 2362   8.301   4.625   0.917  0.4244  0.3055  0.1083
    6CHTO   H70 2363   8.347   4.556   0.961  3.1306  2.0378  0.0608
    6CHTO   C45 2364   8.362   4.815   1.090 -0.5259  0.0131 -0.1998
    6CHTO   H87 2365   8.261   4.839   1.128  0.1318  2.5763  0.0084
    6CHTO    N8 2366   8.423   4.719   1.182 -0.2092 -0.3264 -0.1209
    6CHTO   H75 2367   8.516   4.682   1.144  0.3398  1.4298 -0.5465
    6CHTO   H76 2368   8.356   4.636   1.201 -0.8433 -0.0258 -0.9788
    6CHTO   C43 2369   8.438   4.956   1.090 -0.2240 -0.4002 -0.4330
    6CHTO   H85 2370   8.442   5.001   1.189 -0.7172  1.2249 -1.1313
    6CHTO   O29 2371   8.374   5.045   0.998  0.0371  0.2896 -0.3375
    6CHTO   C50 2372   8.347   4.993   0.863  0.6687 -0.4717  0.2174
    6CHTO   H92 2373   8.274   5.064   0.822  2.0296  0.4129 -0.7059
    6CHTO   C54 2374   8.472   5.014   0.780 -0.3981  0.1251 -0.3867
    6CHTO   O36 2375   8.450   5.010   0.642 -0.0460 -0.5784 -0.5657
    6CHTO   H72 2376   8.404   4.932   0.616 -1.6867  0.7991 -1.9179
    6CHTO   O27 2377   8.584   4.949   1.057  0.1682 -0.5642  0.5711
    6CHTO   C37 2378   8.708   5.017   1.080 -0.2780  0.0017  0.5495
    6CHTO   H79 2379   8.785   4.942   1.059  0.5064  0.8586  0.3130
    6CHTO   C38 2380   8.747   5.135   0.978 -0.2447  0.0049  0.5167
    6CHTO   H80 2381   8.668   5.212   0.981 -0.5124 -0.2838  1.0598
    6CHTO   O31 2382   8.776   5.078   0.857 -0.3004  0.8933  0.2086
    6CHTO   H68 2383   8.812   5.144   0.801  1.1598 -0.8052 -0.9029
    6CHTO   C39 2384   8.870   5.230   1.031 -0.5663  0.2877 -0.2202
    6CHTO   H81 2385   8.955   5.162   1.034 -2.0667 -1.5982  1.4624
    6CHTO    N7 2386   8.903   5.346   0.948  0.5700 -0.8686 -0.5409
    6CHTO   H73 2387   8.966   5.416   1.000 -1.3665  1.1458 -0.8321
    6CHTO   H74 2388   8.807   5.396   0.946  0.4693 -1.0032  0.5883
    6CHTO   C40 2389   8.848   5.269   1.183 -0.0383  0.0053 -0.6769
    6CHTO   H82 2390   8.755   5.327   1.182 -0.4661 -0.6613  0.0652
    6CHTO   O26 2391   8.836   5.146   1.260 -0.5270  0.1988 -0.2422
    6CHTO   C41 2392   8.715   5.067   1.228 -0.0213  0.1650  0.1576
    6CHTO   H83 2393   8.632   5.137   1.244 -1.3682 -1.1866 -0.8054
    6CHTO   C52 2394   8.721   4.941   1.314  0.1607 -0.3262  0.6268
    6CHTO   O35 2395   8.742   4.959   1.448 -0.1355 -0.0344 -0.2804
    6CHTO   H71 2396   8.693   4.892   1.491 -0.7733 -0.2903 -1.3920
    6CHTO   O28 2397   8.955   5.350   1.237  0.5433  0.7396  0.5972
    6CHTO   C42 2398   8.943   5.422   1.370  0.0155 -0.5859 -0.2617
    6CHTO   H84 2399   9.032   5.485   1.373 -1.1636  1.0171  1.5144
    6CHTO   C44 2400   8.962   5.325   1.491  0.2678 -0.4100  0.0898
    6CHTO   H86 2401   8.878   5.256   1.497  0.2464 -0.4705 -0.7952
    6CHTO   O32 2402   9.083   5.245   1.468  0.0804 -0.0074 -0.3394
    6CHTO   H69 2403   9.149   5.269   1.530 -1.6642  0.8810  1.2114
    6CHTO   C48 2404   8.969   5.418   1.622 -0.0505  0.6404  0.1541
    6CHTO   H90 2405   9.046   5.496   1.621  1.8301 -1.1676 -0.9818
    6CHTO    N9 2406   8.988   5.337   1.748  0.2276  0.3510 -0.2824
    6CHTO   H77 2407   8.968   5.232   1.739  0.6454  0.3042 -0.7038
    6CHTO   H78 2408   9.088   5.351   1.787 -0.1202  0.7810  0.4577
    6CHTO   C51 2409   8.838   5.501   1.628  0.0784  0.4868  0.5051
    6CHTO   H93 2410   8.758   5.428   1.635  2.1094 -1.6617  1.9738
    6CHTO   O30 2411   8.825   5.585   1.514  0.0452 -0.6333  0.1808
    6CHTO   C46 2412   8.816   5.511   1.382  0.4565  0.0481 -1.2938
    6CHTO   H88 2413   8.726   5.449   1.387  0.5838 -0.1934 -1.9580
    6CHTO   C53 2414   8.802   5.621   1.272 -0.1908  0.5777  0.5856
    6CHTO   O72 2415   8.676   5.676   1.240  0.0170  0.1159  0.2665
    6CHTO  H199 2416   8.644   5.630   1.165  1.1086 -0.3879  0.1085
    6CHTO   O22 2417   8.834   5.608   1.722  0.3441  0.2293  0.1449
    6CHTO   C31 2418   8.711   5.642   1.791 -0.6844 -0.4758 -0.6614
    6CHTO   H59 2419   8.733   5.738   1.842 -1.5479  0.0427 -1.2413
    6CHTO   C29 2420   8.587   5.660   1.703 -0.5351  0.1733  0.0883
    6CHTO   H57 2421   8.560   5.564   1.657  1.5584 -0.5602  0.3191
    6CHTO   O21 2422   8.615   5.758   1.601 -0.0471 -0.0203 -0.6026
    6CHTO   H37 2423   8.537   5.773   1.551 -1.0091  0.5056  1.0296
    6CHTO   C27 2424   8.464   5.704   1.786 -0.2488  0.1427  0.1723
    6CHTO   H55 2425   8.488   5.800   1.835  3.7186 -0.5882 -0.2201
    6CHTO    N5 2426   8.337   5.721   1.705 -0.1499 -0.0813 -0.1683
    6CHTO   H43 2427   8.262   5.759   1.772  1.0215 -0.9973  1.6991
    6CHTO   H44 2428   8.308   5.625   1.665  2.5545 -1.9239  2.0700
    6CHTO   C25 2429   8.441   5.606   1.914 -0.5904 -0.1475 -0.3570
    6CHTO   H53 2430   8.417   5.507   1.873  0.2314 -0.6207  0.2960
    6CHTO   O17 2431   8.562   5.598   1.987  0.4006  0.1487  0.4780
    6CHTO   C32 2432   8.680   5.546   1.914 -0.8619  0.8398  0.2041
    6CHTO   H60 2433   8.664   5.446   1.874  0.8607  0.5410  0.2453
    6CHTO   C36 2434   8.805   5.536   2.010  0.5603 -0.3051  0.5618
    6CHTO   O25 2435   8.783   5.453   2.120 -0.1369 -0.2307 -0.2026
    6CHTO   H40 2436   8.862   5.439   2.168 -0.3976  0.8097  0.5578
    6CHTO   O15 2437   8.328   5.677   2.009  0.3503 -0.1046 -0.0144
    6CHTO   C19 2438   8.273   5.784   2.087 -0.4647 -0.3422 -0.5404
    6CHTO   H47 2439   8.289   5.753   2.192 -0.6328  1.3003 -0.0159
    6CHTO   C20 2440   8.360   5.914   2.053  0.1091 -0.1360  0.0354
    6CHTO   H48 2441   8.364   5.931   1.945  0.7841  2.0115  0.3670
    6CHTO   O19 2442   8.491   5.884   2.106  0.1111  0.4804  0.2365
    6CHTO   H35 2443   8.559   5.917   2.050  1.9836 -3.3670  0.1250
    6CHTO   C21 2444   8.298   6.044   2.122 -0.4571  0.6340 -0.0426
    6CHTO   H49 2445   8.306   6.030   2.230  0.5214  2.9192  0.2171
    6CHTO    N4 2446   8.375   6.166   2.090 -0.0648  0.0059  0.2845
    6CHTO   H41 2447   8.481   6.165   2.112  0.2075  1.7685 -0.8031
    6CHTO   H42 2448   8.328   6.256   2.126  0.6847  0.8454 -0.7822
    6CHTO   C22 2449   8.146   6.052   2.085 -0.5254 -0.0351 -0.0125
    6CHTO   H50 2450   8.138   6.069   1.977  2.6922 -0.8397 -0.4108
    6CHTO   O14 2451   8.080   5.934   2.132 -0.1117  0.1579  0.1391
    6CHTO   C23 2452   8.118   5.813   2.073  0.0175  0.2811  1.0083
    6CHTO   H51 2453   8.090   5.838   1.970 -1.6056  1.4245  1.6960
    6CHTO   C34 2454   8.028   5.704   2.130 -0.6786  0.5565  0.2754
    6CHTO   O23 2455   7.890   5.734   2.111 -0.3924 -0.1511 -0.2142
    6CHTO   H38 2456   7.836   5.657   2.114 -1.8605  0.9023  1.8201
    6CHTO   O16 2457   8.079   6.168   2.143 -0.2276  0.1851 -0.7300
    6CHTO   C24 2458   7.970   6.233   2.052  0.5589  0.4088  0.4896
    6CHTO   H52 2459   7.972   6.196   1.950  1.1329  2.2144 -0.1759
    6CHTO   C26 2460   7.990   6.385   2.056 -0.2035  0.0688 -0.7457
    6CHTO   H54 2461   7.998   6.419   2.161  2.3160 -0.4044 -0.7635
    6CHTO   O20 2462   8.118   6.409   1.999  0.4728 -0.0407  0.4158
    6CHTO   H36 2463   8.148   6.492   2.032 -0.8828  0.4472  0.4692
    6CHTO   C30 2464   7.872   6.463   1.984 -0.1718 -0.4879 -0.0871
    6CHTO   H58 2465   7.875   6.432   1.878  0.6913  1.3733 -0.6357
    6CHTO    N6 2466   7.887   6.610   1.997  0.3341 -0.1059 -0.4379
    6CHTO   H45 2467   7.788   6.650   1.981  0.8060  0.9939 -0.6432
    6CHTO   H46 2468   7.918   6.631   2.099  0.0936  1.3562 -0.6556
    6CHTO   C33 2469   7.737   6.405   2.039 -0.2660  0.0950 -0.0854
    6CHTO   H61 2470   7.727   6.421   2.148 -2.1439 -1.8554  0.0846
    6CHTO   O18 2471   7.735   6.259   2.023  0.1393 -0.3309 -0.3513
    6CHTO   C28 2472   7.832   6.191   2.111 -0.2001 -0.5732  0.5475
    6CHTO   H56 2473   7.822   6.231   2.212 -1.8938  4.4755 -1.4411
    6CHTO   C35 2474   7.806   6.041   2.106 -0.1281  0.0958 -0.0917
    6CHTO   O24 2475   7.713   6.011   2.209  0.3359 -0.1077 -0.4672
    6CHTO   H39 2476   7.699   5.918   2.206  0.1264 -0.0350 -2.3148
    6CHTO    O9 2477   7.618   6.464   1.986  0.2918  0.3882 -0.1309
    6CHTO   C13 2478   7.523   6.566   2.069  0.0604  0.2553 -0.1496
    6CHTO   H26 2479   7.591   6.629   2.130 -2.2858  1.2286  1.5285
    6CHTO   C11 2480   7.433   6.477   2.166  0.3777 -0.3125 -0.2648
    6CHTO   H24 2481   7.490   6.447   2.255  0.1129  1.3316  0.4818
    6CHTO    O8 2482   7.391   6.361   2.098 -0.1793  0.5389  0.3664
    6CHTO    H3 2483   7.372   6.293   2.160  1.8399  0.4816  0.9532
    6CHTO    C9 2484   7.315   6.563   2.222 -0.3849  1.1957 -0.3206
    6CHTO   H22 2485   7.366   6.643   2.277  1.7516 -2.6581  3.5902
    6CHTO    N2 2486   7.233   6.487   2.325 -0.9965 -0.3298  0.6349
    6CHTO   H10 2487   7.303   6.430   2.383 -0.1977  0.5526  0.5595
    6CHTO   H11 2488   7.193   6.567   2.386 -1.7620 -1.9079  2.2252
    6CHTO    C7 2489   7.232   6.622   2.098  0.1300 -0.2400 -0.3203
    6CHTO   H20 2490   7.149   6.678   2.148 -0.1003 -0.1700 -0.7791
    6CHTO    O4 2491   7.311   6.701   2.021  0.1740 -0.6122  0.0353
    6CHTO   C14 2492   7.444   6.663   1.976 -0.1027  0.3497 -0.5386
    6CHTO   H27 2493   7.509   6.753   1.989 -0.8686  0.8764 -0.3272
    6CHTO   C18 2494   7.442   6.630   1.830 -0.3931  0.1100  0.2361
    6CHTO   O13 2495   7.365   6.508   1.800 -0.5307 -0.3842 -0.4110
    6CHTO    H7 2496   7.271   6.512   1.795 -0.3626  0.7665 -3.4777
    6CHTO    O2 2497   7.165   6.515   2.009  0.4533  0.1334 -0.6404
    6CHTO    C1 2498   7.026   6.527   1.973 -0.5191  0.2575  0.2726
    6CHTO   H14 2499   7.020   6.458   1.886  1.5220  0.3735  0.0349
    6CHTO    C2 2500   6.961   6.668   1.932 -0.3974  0.0524 -0.2773
    6CHTO   H15 2501   6.972   6.722   2.028  1.0020  0.8917 -0.9048
    6CHTO    O6 2502   7.048   6.728   1.830 -0.2521  0.3405  0.4770
    6CHTO    H1 2503   7.011   6.805   1.790  1.3040  0.3008 -1.0790
    6CHTO    C3 2504   6.813   6.660   1.883  0.0028 -0.3947  1.0858
    6CHTO   H16 2505   6.806   6.593   1.796 -0.8612  0.1124  0.7509
    6CHTO    N1 2506   6.756   6.794   1.847 -0.2048  0.4837 -0.2655
    6CHTO    H8 2507   6.827   6.856   1.796 -1.1436 -0.5207 -2.8893
    6CHTO    H9 2508   6.716   6.840   1.936  0.7097  0.6689  0.0429
    6CHTO    C4 2509   6.732   6.585   1.994  0.4503 -0.5572  1.2310
    6CHTO   H17 2510   6.717   6.646   2.084 -2.6235  0.0355  0.3734
    6CHTO    O1 2511   6.796   6.460   2.024  0.1665  0.9948  0.0687
    6CHTO    C5 2512   6.932   6.453   2.074 -0.1096 -0.4128 -0.2093
    6CHTO   H18 2513   6.932   6.512   2.165 -1.2214  0.7894 -0.9582
    6CHTO   C16 2514   6.959   6.302   2.107  0.0227  0.1742  0.2556
    6CHTO   O11 2515   6.860   6.259   2.199 -0.0884  0.7047  0.4450
    6CHTO    H5 2516   6.889   6.274   2.287  0.7631  1.4495  0.0498
    6CHTO    O3 2517   6.601   6.543   1.942 -0.1766  0.1246 -0.0700
    6CHTO    C6 2518   6.488   6.554   2.041  0.0763 -0.2615  0.1569
    6CHTO   H19 2519   6.513   6.571   2.145 -2.3279 -0.8550  0.8816
    6CHTO    C8 2520   6.391   6.661   1.994  0.6264  0.0745 -0.0044
    6CHTO   H21 2521   6.353   6.633   1.896 -0.0863 -0.5151  0.4297
    6CHTO    O7 2522   6.463   6.785   1.981  0.1097  0.3268 -0.1136
    6CHTO    H2 2523   6.444   6.825   1.898 -0.8291  0.8501  0.3424
    6CHTO   C12 2524   6.275   6.666   2.097  0.3897  0.3003 -0.1843
    6CHTO   H25 2525   6.322   6.674   2.197 -0.2614  0.1471  0.1406
    6CHTO    N3 2526   6.190   6.791   2.090  0.5301  0.4248 -0.1660
    6CHTO   H12 2527   6.151   6.814   2.188  0.9885  2.8486 -0.5207
    6CHTO   H13 2528   6.241   6.881   2.059 -1.4778  1.2182 -1.2602
    6CHTO   C15 2529   6.204   6.527   2.094 -0.0849 -0.3437  0.2330
    6CHTO   H28 2530   6.167   6.511   1.992 -1.3191  0.9765  0.4659
    6CHTO   O10 2531   6.103   6.507   2.181  0.1689  0.6013 -0.6065
    6CHTO    H4 2532   6.043   6.442   2.152  2.0311 -2.2077  1.6362
    6CHTO    O5 2533   6.303   6.424   2.128  0.2873 -0.3104 -0.3451
    6CHTO   C10 2534   6.414   6.415   2.041 -0.0267  0.7475  0.1937
    6CHTO   H23 2535   6.377   6.388   1.943 -0.7576  2.2601  0.0445
    6CHTO   C17 2536   6.514   6.303   2.086 -0.2663 -0.2589 -0.2809
    6CHTO   O12 2537   6.461   6.167   2.058  0.3358  0.5823 -0.1108
    6CHTO    H6 2538   6.372   6.158   2.088  1.3057 -0.5762  2.4992
    7CHTO  H203 2539   5.239   2.527   2.269 -0.9986 -0.8581 -1.4399
    7CHTO   O82 2540   5.217   2.615   2.249 -0.8516 -0.4675  0.0053
    7CHTO  C123 2541   5.331   2.660   2.172  0.0015  0.3468  0.6619
    7CHTO  H227 2542   5.307   2.755   2.122  1.1134 -1.0192 -2.6052
    7CHTO   O77 2543   5.437   2.691   2.273 -0.8257 -0.2952  0.1984
    7CHTO  C118 2544   5.561   2.750   2.223 -0.1041  0.6782 -0.2171
    7CHTO  H222 2545   5.536   2.835   2.157 -0.1533  2.0724  1.5461
    7CHTO  C125 2546   5.652   2.798   2.336 -0.2530 -0.0096  1.0487
    7CHTO   O84 2547   5.663   2.689   2.432  0.3238  0.1437  0.3980
    7CHTO  H205 2548   5.578   2.651   2.447  0.4292  0.1186  0.9187
    7CHTO  C114 2549   5.632   2.647   2.133 -0.2292  0.6556 -0.4025
    7CHTO  H218 2550   5.660   2.560   2.192  0.4993  0.8733 -0.4232
    7CHTO  C116 2551   5.533   2.596   2.020 -0.2656  0.1331  0.3624
    7CHTO  H220 2552   5.524   2.682   1.949 -2.0084 -0.0311  0.3461
    7CHTO   O79 2553   5.586   2.481   1.951  0.1742  0.0428  0.1929
    7CHTO  H201 2554   5.673   2.499   1.923 -0.6762  1.5319 -1.6190
    7CHTO  C120 2555   5.385   2.564   2.068 -0.1890  0.6027 -0.3295
    7CHTO  H224 2556   5.386   2.466   2.121 -0.9041  0.2689 -0.9215
    7CHTO   N21 2557   5.296   2.552   1.952 -0.3813  0.0113 -0.3948
    7CHTO  H211 2558   5.189   2.552   1.966 -0.3573 -1.9702 -0.0768
    7CHTO  H212 2559   5.323   2.629   1.881 -0.5308  2.5746  2.2036
    7CHTO   O75 2560   5.752   2.710   2.081  0.2105  0.3116  0.7411
    7CHTO  C112 2561   5.887   2.625   2.061  0.1574 -0.1210 -0.0702
    7CHTO  H216 2562   5.872   2.543   1.989  1.6527 -0.4263 -0.0501
    7CHTO   O73 2563   5.921   2.573   2.195  0.8063 -0.0776  0.2694
    7CHTO  C113 2564   6.041   2.498   2.199 -0.3920 -0.0596 -0.5750
    7CHTO  H217 2565   6.044   2.415   2.125  0.9308 -0.1263 -0.4617
    7CHTO  C124 2566   6.046   2.437   2.340  0.3807  0.0478  0.0956
    7CHTO   O83 2567   6.130   2.326   2.336  0.1767 -0.2882 -0.1909
    7CHTO  H204 2568   6.167   2.317   2.422  1.9605  1.2024 -0.7859
    7CHTO  C109 2569   6.164   2.593   2.159  0.7957  0.2318 -0.6725
    7CHTO  H213 2570   6.163   2.674   2.233 -0.5713 -0.7243  0.3892
    7CHTO  C110 2571   6.138   2.647   2.021 -0.2286 -0.6029  0.2870
    7CHTO  H214 2572   6.167   2.573   1.947  2.2452  2.2898 -1.7686
    7CHTO   O78 2573   6.246   2.744   2.012  0.3210 -0.1329 -0.1354
    7CHTO  H200 2574   6.246   2.801   2.086 -0.1183 -0.7899  0.3764
    7CHTO  C111 2575   6.004   2.713   2.005 -0.2592  0.5685  0.2111
    7CHTO  H215 2576   6.007   2.799   2.074  3.3679 -0.5927  1.5812
    7CHTO   N19 2577   5.975   2.762   1.869  0.1654 -0.0675  0.1532
    7CHTO  H207 2578   6.034   2.722   1.788 -0.3314  1.9580 -1.2481
    7CHTO  H208 2579   6.005   2.866   1.869  2.2657 -0.6489  0.0934
    7CHTO   O74 2580   6.286   2.508   2.176 -0.0052 -0.4014  0.2386
    7CHTO  C115 2581   6.415   2.583   2.215 -0.2444 -0.7751 -0.9241
    7CHTO  H219 2582   6.413   2.683   2.172 -1.5854  0.1169  1.0911
    7CHTO   O76 2583   6.419   2.610   2.366  0.2820  0.2053  0.7084
    7CHTO  C122 2584   6.437   2.482   2.439  1.1138 -0.2594 -0.2836
    7CHTO  H226 2585   6.358   2.419   2.398  0.3469 -0.0116  0.7874
    7CHTO  C126 2586   6.416   2.503   2.590  0.4112  0.4450  0.2449
    7CHTO   O85 2587   6.276   2.534   2.620  0.1276 -0.6241  0.3465
    7CHTO  H206 2588   6.223   2.476   2.570 -1.7999  1.1426  0.2760
    7CHTO  C121 2589   6.569   2.414   2.405 -0.2089 -0.9004  0.0909
    7CHTO  H225 2590   6.648   2.491   2.420  0.1266 -1.1048 -0.6074
    7CHTO   O81 2591   6.583   2.302   2.490  0.1446 -0.1164 -0.0743
    7CHTO  H202 2592   6.668   2.264   2.488  0.2814  0.1574  0.4902
    7CHTO  C119 2593   6.566   2.377   2.256 -0.2109 -0.8898 -0.6209
    7CHTO  H223 2594   6.661   2.334   2.225  0.6908  2.2971 -2.5013
    7CHTO  C117 2595   6.534   2.502   2.163  0.4304  0.1940 -0.2565
    7CHTO  H221 2596   6.494   2.460   2.071  0.0625 -1.0044  0.4352
    7CHTO   N20 2597   6.653   2.584   2.130 -0.1194 -0.4522 -0.5545
    7CHTO  H209 2598   6.689   2.623   2.224  0.9710  2.3554 -2.0762
    7CHTO  H210 2599   6.626   2.662   2.060  1.8262  0.9363  0.2123
    7CHTO   O80 2600   6.465   2.249   2.231 -0.8450 -0.2428  0.1137
    7CHTO  C103 2601   6.490   2.148   2.118 -0.4059  0.3691  0.0340
    7CHTO  H190 2602   6.512   2.197   2.024  1.6212 -0.5803 -0.0164
    7CHTO  C101 2603   6.598   2.032   2.150  0.4241 -0.7628 -0.1251
    7CHTO  H188 2604   6.576   2.001   2.252  0.4254  2.3960  0.8883
    7CHTO   O68 2605   6.741   2.094   2.142  0.3774 -0.1493 -0.1040
    7CHTO  H168 2606   6.747   2.141   2.061  0.7758 -1.8092 -1.0348
    7CHTO   C99 2607   6.588   1.913   2.053 -0.2447 -0.2489  0.0931
    7CHTO  H186 2608   6.629   1.949   1.956  1.2296 -0.3247  0.6738
    7CHTO   N17 2609   6.683   1.799   2.089  0.1625 -0.0468  0.2607
    7CHTO  H174 2610   6.709   1.741   2.002 -0.9318 -2.5869  1.5669
    7CHTO  H175 2611   6.663   1.749   2.183 -1.6095 -2.4200 -1.3251
    7CHTO   C97 2612   6.444   1.863   2.025 -0.2994  0.5697  0.6835
    7CHTO  H184 2613   6.420   1.811   2.119 -0.6270 -2.6599 -1.1229
    7CHTO   O64 2614   6.360   1.975   2.003 -0.8869  0.4397  0.5434
    7CHTO  C104 2615   6.348   2.080   2.101  0.4799 -0.0027 -0.2078
    7CHTO  H191 2616   6.322   2.032   2.196  0.9821 -1.1743 -0.6499
    7CHTO  C108 2617   6.231   2.178   2.067 -0.4400  0.4619 -0.4405
    7CHTO   O71 2618   6.101   2.117   2.071  0.2730 -0.2787  0.3543
    7CHTO  H171 2619   6.072   2.088   1.986  1.6194 -0.6712  0.0180
    7CHTO   O62 2620   6.440   1.770   1.914  0.3366 -0.0128  0.2469
    7CHTO   C91 2621   6.334   1.676   1.905  0.1307  0.1606  0.2542
    7CHTO  H178 2622   6.329   1.641   1.802 -2.1637 -0.4066  0.5372
    7CHTO   C92 2623   6.195   1.755   1.903  0.2270 -0.2904 -0.4120
    7CHTO  H179 2624   6.175   1.815   1.993  0.2082  0.1774 -0.7276
    7CHTO   O66 2625   6.205   1.841   1.783  1.1029  0.3266  0.2546
    7CHTO  H166 2626   6.275   1.823   1.724  1.0733  3.2025 -0.7020
    7CHTO   C93 2627   6.077   1.658   1.884 -1.0589 -1.0165 -0.2551
    7CHTO  H180 2628   6.085   1.594   1.795 -0.3373 -1.5331  0.1687
    7CHTO   N16 2629   5.948   1.728   1.882  0.2169  0.0329  0.6528
    7CHTO  H172 2630   5.888   1.651   1.836  1.1111 -0.6456  0.6143
    7CHTO  H173 2631   5.910   1.745   1.982 -0.6459 -0.3311  0.3888
    7CHTO   C94 2632   6.092   1.564   2.013 -0.2310 -0.1582 -0.5626
    7CHTO  H181 2633   6.097   1.621   2.105  1.4789 -1.3623  0.0981
    7CHTO   O61 2634   6.209   1.485   1.995  0.4464  0.2489 -0.0230
    7CHTO   C95 2635   6.334   1.550   2.005 -0.2141 -0.7187  0.6915
    7CHTO  H182 2636   6.357   1.582   2.107  1.0181  1.1994 -0.1556
    7CHTO  C106 2637   6.450   1.449   1.968  0.2555 -0.0925  0.2743
    7CHTO   O69 2638   6.431   1.405   1.829  0.4384  0.2365 -0.6620
    7CHTO  H169 2639   6.476   1.330   1.796  1.0058  0.4838 -0.4581
    7CHTO   O63 2640   5.967   1.454   2.030  0.0714 -0.0638 -0.0936
    7CHTO   C96 2641   5.978   1.383   2.185  0.0851 -0.1032 -0.4405
    7CHTO  H183 2642   6.040   1.449   2.245 -0.4431 -0.2565  0.2755
    7CHTO   C98 2643   6.052   1.247   2.187 -0.0133  0.1585 -0.0503
    7CHTO  H185 2644   6.013   1.194   2.099  0.1728  0.0785 -0.0852
    7CHTO   O67 2645   6.190   1.265   2.159 -0.5587  0.7548  0.1164
    7CHTO  H167 2646   6.230   1.181   2.162  0.4991  1.2848  1.6425
    7CHTO  C102 2647   6.034   1.167   2.327  0.1319  0.2031  0.1702
    7CHTO  H189 2648   6.105   1.211   2.398 -0.1578 -0.7925  1.1005
    7CHTO   N18 2649   6.071   1.024   2.311  0.5694 -0.1569 -0.1000
    7CHTO  H176 2650   6.177   1.007   2.308  0.5786 -0.1229  0.0153
    7CHTO  H177 2651   6.031   0.953   2.382 -0.3462  0.4005 -0.0429
    7CHTO  C105 2652   5.888   1.188   2.385 -0.1012 -0.3378 -0.2630
    7CHTO  H192 2653   5.826   1.121   2.325  0.1546 -1.4664  0.7323
    7CHTO   O65 2654   5.837   1.319   2.372  0.1884  0.0562 -0.4610
    7CHTO  C100 2655   5.824   1.364   2.237 -0.0549 -0.6797 -0.2933
    7CHTO  H187 2656   5.768   1.283   2.187 -0.8358 -0.0048 -0.5320
    7CHTO  C107 2657   5.730   1.487   2.222  0.0134 -0.3421 -0.6064
    7CHTO   O70 2658   5.772   1.598   2.306 -0.4294 -0.3238  0.1924
    7CHTO  H170 2659   5.844   1.582   2.364 -0.2655  0.5648  0.2395
    7CHTO   O57 2660   5.898   1.143   2.543 -0.2498  0.1217 -0.0561
    7CHTO   C85 2661   5.788   1.165   2.631  0.3162 -0.0792  0.2889
    7CHTO  H157 2662   5.761   1.272   2.625  0.8825  0.0315 -0.4958
    7CHTO   C83 2663   5.860   1.142   2.773 -0.2258 -0.4047  0.0004
    7CHTO  H155 2664   5.934   1.219   2.796 -1.3234  0.6531  0.1062
    7CHTO   O56 2665   5.934   1.022   2.778  0.8793 -0.3082 -0.1846
    7CHTO  H135 2666   6.016   1.031   2.735  0.1064 -0.5062 -1.7258
    7CHTO   C81 2667   5.754   1.148   2.888 -0.0776  0.2104 -0.4126
    7CHTO  H153 2668   5.702   1.243   2.880  2.0000  1.4286  0.2138
    7CHTO   N14 2669   5.815   1.159   3.023 -0.4219  0.3963 -0.8590
    7CHTO  H141 2670   5.877   1.077   3.052 -0.1247  1.0127  0.2759
    7CHTO  H142 2671   5.737   1.173   3.095 -0.9563 -3.7889 -0.4788
    7CHTO   C79 2672   5.653   1.029   2.865  0.0369  0.1594  0.2404
    7CHTO  H151 2673   5.574   1.033   2.940 -0.1946 -3.5209  0.3117
    7CHTO   O52 2674   5.586   1.039   2.734  0.4987 -0.1275 -0.2957
    7CHTO   C86 2675   5.661   1.068   2.608  0.4993 -0.1913  0.1009
    7CHTO  H158 2676   5.688   0.966   2.572  1.6808  0.6122 -1.3136
    7CHTO   C90 2677   5.578   1.124   2.498  0.6795  0.6639 -0.0656
    7CHTO   O60 2678   5.527   1.249   2.531  0.5275 -0.4107 -0.0074
    7CHTO  H138 2679   5.463   1.246   2.599  1.1486  1.5454  0.7033
    7CHTO   O50 2680   5.711   0.897   2.883 -0.2094 -0.0652  0.4061
    7CHTO   C73 2681   5.733   0.757   2.899  0.4683  0.4224  0.7767
    7CHTO  H145 2682   5.839   0.728   2.888  0.0784 -0.7490 -0.0141
    7CHTO   C74 2683   5.657   0.696   2.781 -0.2497 -0.3342 -0.3624
    7CHTO  H146 2684   5.698   0.740   2.688  1.0301  2.0278  1.2506
    7CHTO   O54 2685   5.697   0.556   2.764  0.0219  0.2612  0.3091
    7CHTO  H133 2686   5.651   0.505   2.700 -0.8228  0.9504  0.3565
    7CHTO   C75 2687   5.499   0.719   2.791 -0.5289 -0.2932 -0.1358
    7CHTO  H147 2688   5.474   0.825   2.803 -0.0035 -0.3049  1.1158
    7CHTO   N13 2689   5.415   0.674   2.676 -0.2647 -0.2104  0.1664
    7CHTO  H139 2690   5.449   0.725   2.586 -0.7263 -0.1051  0.0483
    7CHTO  H140 2691   5.314   0.703   2.702  0.2374  2.3426 -0.6100
    7CHTO   C76 2692   5.444   0.662   2.926 -0.0031  0.4644 -0.8905
    7CHTO  H148 2693   5.448   0.553   2.920 -0.6373  0.4247 -0.6189
    7CHTO   O49 2694   5.531   0.711   3.030  0.5084  0.4306  0.4410
    7CHTO   C77 2695   5.671   0.689   3.020 -0.3758  0.7034 -0.0658
    7CHTO  H149 2696   5.693   0.583   3.011  0.1667  0.5516  2.6547
    7CHTO   C88 2697   5.733   0.748   3.142 -0.5355  0.0318  0.8505
    7CHTO   O58 2698   5.678   0.683   3.280 -0.3038  0.3685  0.2792
    7CHTO  H136 2699   5.713   0.598   3.296  0.7110  0.2003 -2.6081
    7CHTO   O51 2700   5.284   0.719   2.951  0.5754 -0.0985 -0.0110
    7CHTO   C78 2701   5.252   0.705   3.093  0.4453  0.2979 -0.0738
    7CHTO  H150 2702   5.337   0.651   3.139  0.5996  0.4678 -0.1573
    7CHTO   C80 2703   5.120   0.630   3.115  0.3653 -0.6246 -0.3876
    7CHTO  H152 2704   5.046   0.677   3.048  0.7155 -0.6243 -0.7766
    7CHTO   O55 2705   5.128   0.493   3.072 -0.1361  0.3611  0.4645
    7CHTO  H134 2706   5.218   0.467   3.078 -0.8302 -2.5640 -0.7001
    7CHTO   C84 2707   5.077   0.635   3.271 -0.0317 -0.0406 -0.1995
    7CHTO  H156 2708   5.147   0.581   3.335  0.4264  0.4839 -0.2541
    7CHTO   N15 2709   4.936   0.585   3.297  0.6444 -0.1110  0.6224
    7CHTO  H143 2710   4.893   0.624   3.387  0.8276 -1.5604  1.3692
    7CHTO  H144 2711   4.871   0.595   3.213  0.2224 -1.3413  0.7803
    7CHTO   C87 2712   5.093   0.774   3.335 -0.1145  0.5500 -0.2054
    7CHTO  H159 2713   5.013   0.837   3.297 -0.8832 -0.0097  0.4781
    7CHTO   O53 2714   5.235   0.825   3.290 -0.4181  0.1072 -0.0539
    7CHTO   C82 2715   5.245   0.843   3.152  0.6089 -0.5560  0.1514
    7CHTO  H154 2716   5.152   0.889   3.117  0.9689 -0.9476 -1.3614
    7CHTO   C89 2717   5.357   0.947   3.113 -0.1138  0.4978  0.0411
    7CHTO   O59 2718   5.328   1.077   3.175 -0.3155 -0.0014  0.2043
    7CHTO  H137 2719   5.409   1.125   3.177  0.1500 -0.6970 -1.4773
    7CHTO   O45 2720   5.085   0.780   3.510  0.2326  0.7568 -0.1589
    7CHTO   C67 2721   5.161   0.887   3.568  0.6358  0.3049 -0.2085
    7CHTO  H124 2722   5.220   0.939   3.492 -2.1873  1.1254 -1.9247
    7CHTO   C65 2723   5.049   0.984   3.629  0.3971  0.4166 -0.1670
    7CHTO  H122 2724   4.968   0.919   3.660 -0.0418  1.4059  0.7742
    7CHTO   O44 2725   4.995   1.065   3.524  0.3504 -0.2317  0.8007
    7CHTO  H102 2726   4.948   1.134   3.567 -1.4860 -0.3905 -0.8994
    7CHTO   C63 2727   5.107   1.059   3.764  0.0439 -0.1522 -0.3226
    7CHTO  H120 2728   5.099   0.989   3.848 -2.7858  0.7830  0.2435
    7CHTO   N11 2729   5.035   1.181   3.811  0.2302 -0.2817  0.0881
    7CHTO  H108 2730   5.056   1.208   3.912 -4.0484  1.9602  0.4842
    7CHTO  H109 2731   4.931   1.182   3.786  0.5403 -0.7419 -1.2554
    7CHTO   C61 2732   5.265   1.087   3.749 -0.1088  0.3239 -0.1427
    7CHTO  H118 2733   5.309   1.141   3.834  0.9732 -1.1794  0.2872
    7CHTO   O40 2734   5.329   0.959   3.738 -0.0093 -1.3433 -0.0630
    7CHTO   C68 2735   5.260   0.842   3.680  1.0135  0.5872 -0.0216
    7CHTO  H125 2736   5.193   0.802   3.758 -0.6528  3.3517  0.0287
    7CHTO   C72 2737   5.351   0.728   3.637 -0.3900  0.4086  0.5731
    7CHTO   O48 2738   5.451   0.778   3.548 -0.1432 -0.0835 -0.4297
    7CHTO  H105 2739   5.522   0.719   3.535 -1.1870 -1.3604 -0.4539
    7CHTO   O38 2740   5.292   1.155   3.621 -0.1757 -0.1862 -0.5440
    7CHTO   C55 2741   5.403   1.248   3.624 -0.6472  0.1904  0.5151
    7CHTO  H112 2742   5.469   1.228   3.709 -1.0451 -1.0341  0.5488
    7CHTO   C56 2743   5.345   1.397   3.625 -0.2725 -0.0338  0.8977
    7CHTO  H113 2744   5.252   1.400   3.565 -0.9887  0.1587  1.9872
    7CHTO   O42 2745   5.305   1.422   3.760  0.8175  0.1856  0.1448
    7CHTO  H100 2746   5.237   1.366   3.792  0.4828  0.6369  0.2235
    7CHTO   C57 2747   5.453   1.503   3.585 -1.1026  0.2257 -0.2198
    7CHTO  H114 2748   5.527   1.530   3.661  1.7808  3.2541 -3.9240
    7CHTO   N10 2749   5.387   1.626   3.540 -0.0705  0.8229 -0.1983
    7CHTO  H106 2750   5.447   1.713   3.562 -1.7390  1.7076  1.0044
    7CHTO  H107 2751   5.354   1.623   3.438 -0.3855 -0.3546 -0.0681
    7CHTO   C58 2752   5.533   1.450   3.463 -0.1759  0.5566 -0.2875
    7CHTO  H115 2753   5.467   1.440   3.375 -0.8087  0.0209  0.2377
    7CHTO   O37 2754   5.590   1.327   3.502  0.1829  0.3115  0.4047
    7CHTO   C59 2755   5.485   1.229   3.506 -0.4161 -0.3714  0.2522
    7CHTO  H116 2756   5.428   1.226   3.413  2.2164 -0.0573 -1.4171
    7CHTO   C70 2757   5.547   1.087   3.508 -0.0030  0.8157 -0.1740
    7CHTO   O46 2758   5.648   1.070   3.402 -0.0615 -0.4386  0.1146
    7CHTO  H103 2759   5.622   1.008   3.336  0.1125 -0.1765 -0.2042
    7CHTO   O39 2760   5.671   1.551   3.422  0.5434  0.3975 -0.5344
    7CHTO   C60 2761   5.738   1.499   3.304  0.2982 -0.4636 -0.4984
    7CHTO  H117 2762   5.699   1.404   3.268  1.8194 -0.5314 -2.0766
    7CHTO   C62 2763   5.692   1.593   3.190 -0.4413 -0.8372 -0.4557
    7CHTO  H119 2764   5.582   1.590   3.188 -0.5399  1.8831 -0.4881
    7CHTO   O43 2765   5.730   1.725   3.225  0.5650 -0.4063  0.3688
    7CHTO  H101 2766   5.751   1.777   3.150 -0.7164  0.2706  0.4596
    7CHTO   C66 2767   5.748   1.540   3.054  0.4886  0.2496  0.1910
    7CHTO  H123 2768   5.707   1.441   3.037 -4.6276  2.3495 -0.6092
    7CHTO   N12 2769   5.687   1.610   2.935  0.3876 -0.1188 -0.4091
    7CHTO  H110 2770   5.712   1.715   2.930  1.3870 -0.3677 -0.7127
    7CHTO  H111 2771   5.686   1.555   2.842 -2.5417 -0.2985 -0.3220
    7CHTO   C69 2772   5.904   1.535   3.055 -0.1494  0.0318  0.1319
    7CHTO  H126 2773   5.942   1.636   3.081 -0.5797 -0.1702  1.5812
    7CHTO   O41 2774   5.960   1.433   3.176  0.5883  0.1821 -0.0880
    7CHTO   C64 2775   5.896   1.474   3.312 -0.1037 -0.2197 -0.6358
    7CHTO  H121 2776   5.944   1.569   3.344 -0.1409 -0.4858  0.2361
    7CHTO   C71 2777   5.922   1.367   3.426  0.0354  0.4815 -0.3261
    7CHTO   O47 2778   6.063   1.330   3.438  0.5062 -0.0756  0.0141
    7CHTO  H104 2779   6.091   1.306   3.524  0.0445 -0.1258  0.1513
    7CHTO   O34 2780   5.968   1.480   2.920 -0.4280 -0.0101  0.3731
    7CHTO   C49 2781   6.043   1.570   2.832 -0.5495  0.7300  0.0911
    7CHTO   H91 2782   5.980   1.653   2.800 -1.2878  0.5710  1.0980
    7CHTO   C47 2783   6.080   1.489   2.702 -0.5201  0.1960  0.0351
    7CHTO   H89 2784   6.122   1.565   2.633  4.3629 -1.7320  0.6747
    7CHTO   O33 2785   5.964   1.432   2.649 -0.1883  0.3643 -0.2215
    7CHTO   H70 2786   5.922   1.506   2.608  0.4256  1.7702  1.6154
    7CHTO   C45 2787   6.195   1.379   2.745 -0.1351  0.7428 -0.1794
    7CHTO   H87 2788   6.150   1.283   2.776  3.1843 -0.8585 -0.0773
    7CHTO    N8 2789   6.261   1.350   2.616 -0.0331  0.1908 -0.0305
    7CHTO   H75 2790   6.200   1.299   2.544  0.0652  0.2487 -0.1564
    7CHTO   H76 2791   6.355   1.298   2.622 -0.4663 -0.4169  1.7751
    7CHTO   C43 2792   6.283   1.426   2.871 -0.3643  0.3166  0.2048
    7CHTO   H85 2793   6.237   1.386   2.960 -1.0721 -1.5962 -0.9863
    7CHTO   O29 2794   6.300   1.566   2.881 -0.0260 -0.2185 -0.5631
    7CHTO   C50 2795   6.171   1.627   2.902 -0.5638  0.3632  0.7830
    7CHTO   H92 2796   6.154   1.616   3.010 -1.2985  0.1314  0.6480
    7CHTO   C54 2797   6.185   1.784   2.876  0.2376 -0.0454 -1.1689
    7CHTO   O36 2798   6.073   1.863   2.914 -0.4030  0.1730 -0.5204
    7CHTO   H72 2799   6.060   1.929   2.848 -2.0991  1.0327  0.6329
    7CHTO   O27 2800   6.415   1.361   2.872 -0.3164  0.0130  0.3447
    7CHTO   C37 2801   6.463   1.246   2.945  0.0958 -0.1990 -0.0683
    7CHTO   H79 2802   6.444   1.253   3.053  0.9076  0.1876  0.0580
    7CHTO   C38 2803   6.404   1.111   2.899  0.3301 -0.5371 -0.3537
    7CHTO   H80 2804   6.418   1.100   2.790  1.0409  1.1445 -0.4429
    7CHTO   O31 2805   6.266   1.102   2.940  0.3900 -0.1509  0.8339
    7CHTO   H68 2806   6.209   1.083   2.868  0.3261  1.6216  0.3921
    7CHTO   C39 2807   6.483   0.988   2.958 -0.6434 -0.1193 -0.6365
    7CHTO   H81 2808   6.458   0.998   3.064 -0.8382  0.8249 -0.7644
    7CHTO    N7 2809   6.437   0.860   2.893 -0.1011 -0.6145 -0.2050
    7CHTO   H73 2810   6.401   0.788   2.966 -0.2010  1.9098  2.3126
    7CHTO   H74 2811   6.506   0.815   2.824 -0.6172 -0.8546 -0.5649
    7CHTO   C40 2812   6.643   0.998   2.952  0.0824  0.0266  0.2181
    7CHTO   H82 2813   6.688   0.982   2.854 -0.4041 -2.0906  0.3287
    7CHTO   O26 2814   6.675   1.124   3.006 -0.3164  0.0933 -0.4715
    7CHTO   C41 2815   6.619   1.241   2.928  0.8332 -0.4973  0.5051
    7CHTO   H83 2816   6.641   1.236   2.820 -2.0250 -0.2861 -0.1243
    7CHTO   C52 2817   6.687   1.362   2.986 -0.0289  0.5151 -0.3827
    7CHTO   O35 2818   6.846   1.344   2.989 -0.3233 -0.2765  0.8260
    7CHTO   H71 2819   6.865   1.258   3.021 -0.1750  0.1521  1.9353
    7CHTO   O28 2820   6.703   0.902   3.039 -0.5793 -0.1855  0.1506
    7CHTO   C42 2821   6.838   0.858   3.041 -0.0443  0.7779 -0.4909
    7CHTO   H84 2822   6.846   0.789   3.126  0.6429 -0.1566 -1.3113
    7CHTO   C44 2823   6.942   0.978   3.071  0.1732 -0.8003 -0.2302
    7CHTO   H86 2824   6.944   1.045   2.985 -0.5665 -0.2782  0.1556
    7CHTO   O32 2825   6.898   1.051   3.185 -0.5152 -0.1047 -0.3718
    7CHTO   H69 2826   6.855   0.993   3.244 -1.3653 -0.5963 -1.4681
    7CHTO   C48 2827   7.085   0.908   3.083  0.2809 -0.2625  0.1991
    7CHTO   H90 2828   7.086   0.846   3.173  0.3341 -0.8931 -0.2347
    7CHTO    N9 2829   7.190   1.012   3.109  0.6813  0.1356  0.5701
    7CHTO   H77 2830   7.285   0.961   3.115 -0.2999 -1.7533  0.1075
    7CHTO   H78 2831   7.192   1.092   3.036  2.1382  0.8448  1.3529
    7CHTO   C51 2832   7.114   0.828   2.948  0.1625 -0.0300 -0.0036
    7CHTO   H93 2833   7.117   0.892   2.860 -2.6884  1.1252  0.7092
    7CHTO   O30 2834   7.010   0.721   2.939 -0.0273 -0.5069 -0.0823
    7CHTO   C46 2835   6.877   0.777   2.913 -0.7442 -0.4573 -0.3852
    7CHTO   H88 2836   6.877   0.837   2.822  1.9129  0.0925 -0.0672
    7CHTO   C53 2837   6.778   0.668   2.884 -0.7933 -0.3116 -0.1178
    7CHTO   O72 2838   6.810   0.615   2.753 -0.4524  0.4387  0.3777
    7CHTO  H199 2839   6.744   0.644   2.693 -0.1914  0.4759  0.1055
    7CHTO   O22 2840   7.242   0.757   2.954 -0.0814 -0.1770 -0.4878
    7CHTO   C31 2841   7.313   0.687   2.840 -0.4257 -0.4403 -0.2996
    7CHTO   H59 2842   7.387   0.617   2.884 -0.5434 -0.9727 -0.9232
    7CHTO   C29 2843   7.228   0.592   2.756 -0.0429  0.4878  1.0855
    7CHTO   H57 2844   7.152   0.635   2.689  0.0000 -0.6022  0.3316
    7CHTO   O21 2845   7.154   0.498   2.835  0.2595 -0.1409  0.0920
    7CHTO   H37 2846   7.191   0.412   2.826  0.3194 -0.1962  0.8062
    7CHTO   C27 2847   7.330   0.523   2.659  0.2102 -0.8240 -0.1691
    7CHTO   H55 2848   7.408   0.483   2.725 -0.0774 -0.9501  0.0945
    7CHTO    N5 2849   7.269   0.411   2.573 -1.2897  0.2519 -0.3427
    7CHTO   H43 2850   7.198   0.452   2.504  0.5848 -0.4415 -2.7501
    7CHTO   H44 2851   7.209   0.342   2.630 -2.5763  0.8574 -0.9614
    7CHTO   C25 2852   7.388   0.635   2.564 -0.0131 -0.1246 -0.0846
    7CHTO   H53 2853   7.299   0.663   2.506 -0.8948 -2.0270  0.2988
    7CHTO   O17 2854   7.460   0.734   2.648 -0.9368  0.6092  0.0085
    7CHTO   C32 2855   7.382   0.795   2.753  1.1282  0.2044  0.2056
    7CHTO   H60 2856   7.308   0.852   2.698 -1.1629 -0.6957  2.2646
    7CHTO   C36 2857   7.484   0.871   2.840 -0.2376 -0.1515  0.4491
    7CHTO   O25 2858   7.527   0.997   2.774 -0.1188 -1.0391  0.2544
    7CHTO   H40 2859   7.513   1.070   2.831  0.5017 -1.0921  0.4667
    7CHTO   O15 2860   7.514   0.577   2.454 -0.2595  0.3447  0.4340
    7CHTO   C19 2861   7.495   0.621   2.316  0.1378 -0.2614 -0.3103
    7CHTO   H47 2862   7.587   0.589   2.266  1.9006  1.3661  1.8263
    7CHTO   C20 2863   7.370   0.559   2.237 -0.2767 -0.0684  0.2415
    7CHTO   H48 2864   7.277   0.585   2.289  1.2252  1.3093  2.3321
    7CHTO   O19 2865   7.381   0.417   2.234 -0.0297 -0.2865  0.5386
    7CHTO   H35 2866   7.311   0.384   2.180 -0.2130  0.7912  0.1074
    7CHTO   C21 2867   7.370   0.622   2.086 -0.6390  0.0801  0.6332
    7CHTO   H49 2868   7.461   0.597   2.033 -0.6692  2.1012 -0.4139
    7CHTO    N4 2869   7.260   0.566   2.000  0.2320  0.3674 -0.1641
    7CHTO   H41 2870   7.264   0.608   1.900  1.9674  0.3505 -0.1255
    7CHTO   H42 2871   7.260   0.458   1.994 -0.5680  0.1646  2.7048
    7CHTO   C22 2872   7.365   0.777   2.101  0.2234 -0.0383 -0.3796
    7CHTO   H50 2873   7.277   0.807   2.158 -0.0740  0.9325 -1.3519
    7CHTO   O14 2874   7.481   0.824   2.168  0.8311 -0.6060  0.3138
    7CHTO   C23 2875   7.499   0.777   2.300  0.8928  0.8920  0.1997
    7CHTO   H51 2876   7.423   0.831   2.359  0.5505  0.9804 -0.3131
    7CHTO   C34 2877   7.641   0.822   2.342 -0.2005 -0.3231  0.4501
    7CHTO   O23 2878   7.682   0.809   2.477 -0.1894 -0.0245 -0.0019
    7CHTO   H38 2879   7.648   0.877   2.532 -0.5649 -0.5933  0.4833
    7CHTO   O16 2880   7.362   0.844   1.970 -0.3623 -0.5633 -0.0792
    7CHTO   C24 2881   7.320   1.006   1.979  0.5128  0.4358  0.3433
    7CHTO   H52 2882   7.298   1.039   2.080  1.8276 -0.9659  1.1130
    7CHTO   C26 2883   7.197   1.026   1.888 -0.1240  0.0222  0.6927
    7CHTO   H54 2884   7.223   0.996   1.784 -0.4783 -1.1053  0.9247
    7CHTO   O20 2885   7.087   0.946   1.934 -0.3720  0.7295  0.3622
    7CHTO   H36 2886   7.006   0.980   1.901  0.8214  1.7815 -1.6230
    7CHTO   C30 2887   7.159   1.178   1.899  0.3082 -0.4725 -0.0629
    7CHTO   H58 2888   7.112   1.208   1.994  1.3273  0.1744  0.2489
    7CHTO    N6 2889   7.054   1.210   1.800 -0.1911 -0.6851  0.3371
    7CHTO   H45 2890   7.080   1.174   1.701  0.0033  2.2572 -0.7371
    7CHTO   H46 2891   6.955   1.174   1.823 -0.8649  1.5363  1.1232
    7CHTO   C33 2892   7.284   1.275   1.882  0.4356 -0.3043  0.5017
    7CHTO   H61 2893   7.314   1.268   1.776 -2.1535  1.2895 -0.3896
    7CHTO   O18 2894   7.386   1.226   1.962 -0.6871  0.5403 -0.0150
    7CHTO   C28 2895   7.431   1.095   1.930  0.1654  0.1317 -0.1898
    7CHTO   H56 2896   7.445   1.080   1.823 -1.1337 -1.5074 -0.1526
    7CHTO   C35 2897   7.567   1.077   1.995 -0.5194  0.0868  0.7895
    7CHTO   O24 2898   7.672   1.174   1.981 -0.3137 -0.6353 -0.1619
    7CHTO   H39 2899   7.726   1.158   2.055 -1.3173 -1.0638  0.4806
    7CHTO    O9 2900   7.254   1.412   1.906  0.4797 -0.4369 -0.6647
    7CHTO   C13 2901   7.371   1.524   1.834  0.2732  0.2981 -0.1524
    7CHTO   H26 2902   7.387   1.495   1.728  0.7797 -1.1104  0.2940
    7CHTO   C11 2903   7.505   1.523   1.909 -0.4610 -0.2390  0.8515
    7CHTO   H24 2904   7.543   1.419   1.903 -4.2678 -1.5670 -1.8589
    7CHTO    O8 2905   7.478   1.552   2.047  0.2832 -0.0634  0.1282
    7CHTO    H3 2906   7.486   1.645   2.059  1.8550 -0.2461  0.6701
    7CHTO    C9 2907   7.608   1.623   1.844  0.2521  0.6261  0.6304
    7CHTO   H22 2908   7.618   1.592   1.739  0.0437 -1.5503  1.2373
    7CHTO    N2 2909   7.746   1.606   1.900 -0.1727 -0.1611  0.1761
    7CHTO   H10 2910   7.773   1.641   1.999 -2.2350  1.4699  0.1976
    7CHTO   H11 2911   7.800   1.514   1.886 -0.2239 -0.1608 -0.0250
    7CHTO    C7 2912   7.550   1.771   1.848 -0.5906 -0.1356  0.3210
    7CHTO   H20 2913   7.614   1.828   1.777 -1.7273 -0.6122 -1.1202
    7CHTO    O4 2914   7.412   1.778   1.793 -0.2701 -0.0704  0.1910
    7CHTO   C14 2915   7.308   1.676   1.823 -0.9843  0.4508  0.5581
    7CHTO   H27 2916   7.248   1.677   1.730  1.8334  0.2393 -1.2977
    7CHTO   C18 2917   7.218   1.701   1.951 -0.5396 -0.1633  0.3484
    7CHTO   O13 2918   7.166   1.831   1.940  0.0980 -0.0282  0.4718
    7CHTO    H7 2919   7.219   1.891   1.893 -0.3179 -1.7596 -2.3366
    7CHTO    O2 2920   7.562   1.841   2.013  0.2779  0.3466 -0.0924
    7CHTO    C1 2921   7.489   1.954   2.058  0.2494 -1.6060  0.2273
    7CHTO   H14 2922   7.381   1.938   2.042  0.6658 -2.9893 -1.2928
    7CHTO    C2 2923   7.525   2.095   1.981  0.5123  0.3899 -0.4630
    7CHTO   H15 2924   7.635   2.096   1.984  0.6078 -2.7856 -0.3703
    7CHTO    O6 2925   7.476   2.084   1.846  0.3521 -0.4257 -1.0898
    7CHTO    H1 2926   7.386   2.059   1.839 -0.2209  0.1032  3.2570
    7CHTO    C3 2927   7.461   2.224   2.053  0.5036  0.2564  0.4757
    7CHTO   H16 2928   7.353   2.204   2.039  0.3728  0.2590  1.4697
    7CHTO    N1 2929   7.504   2.361   1.996  0.0456  0.2751 -0.2664
    7CHTO    H8 2930   7.591   2.356   1.932  0.7410 -0.0804  0.6984
    7CHTO    H9 2931   7.516   2.437   2.072 -1.7045  0.3567 -0.0489
    7CHTO    C4 2932   7.504   2.207   2.213  0.7379 -0.2196 -0.2153
    7CHTO   H17 2933   7.612   2.212   2.227  0.4398  2.7914  1.3447
    7CHTO    O1 2934   7.443   2.087   2.256 -0.3596  0.5375  0.1625
    7CHTO    C5 2935   7.508   1.973   2.212 -0.6404  0.5114 -0.3775
    7CHTO   H18 2936   7.615   1.980   2.228 -0.8279  1.0239  0.7076
    7CHTO   C16 2937   7.450   1.840   2.282  0.0178 -0.4035 -0.4158
    7CHTO   O11 2938   7.491   1.841   2.421  0.0264 -0.0713  0.5557
    7CHTO    H5 2939   7.430   1.795   2.476 -0.4071 -0.7700 -0.4943
    7CHTO    O3 2940   7.452   2.305   2.304  0.2078  0.5707  0.2046
    7CHTO    C6 2941   7.515   2.326   2.435 -0.2597 -0.4399  0.1267
    7CHTO   H19 2942   7.589   2.249   2.457  1.6964  1.2554 -0.4030
    7CHTO    C8 2943   7.578   2.468   2.443 -0.5571  0.1560  0.0210
    7CHTO   H21 2944   7.502   2.540   2.414 -0.1157  0.3347 -0.7107
    7CHTO    O7 2945   7.680   2.454   2.338  0.6268 -0.3434 -0.0606
    7CHTO    H2 2946   7.759   2.497   2.364 -1.0261  3.3143 -0.8635
    7CHTO   C12 2947   7.643   2.495   2.586  0.4758 -0.1172  0.0114
    7CHTO   H25 2948   7.728   2.424   2.596  0.0224 -0.8014 -0.9072
    7CHTO    N3 2949   7.711   2.629   2.583 -0.2477 -0.2619  0.2285
    7CHTO   H12 2950   7.776   2.626   2.669 -1.6028 -0.2260  1.2678
    7CHTO   H13 2951   7.758   2.667   2.493 -2.1649  2.0588  0.1646
    7CHTO   C15 2952   7.537   2.465   2.691  0.5174  0.2172  0.3979
    7CHTO   H28 2953   7.462   2.545   2.698 -0.0368 -0.3111  0.4963
    7CHTO   O10 2954   7.603   2.446   2.825  0.9938 -0.4407  0.5461
    7CHTO    H4 2955   7.612   2.530   2.866 -0.3466 -0.2532  0.4768
    7CHTO    O5 2956   7.473   2.338   2.679  0.5117  0.3925  0.4955
    7CHTO   C10 2957   7.409   2.318   2.551  0.2664 -0.0232  0.3369
    7CHTO   H23 2958   7.341   2.402   2.538 -1.6660 -1.4662  0.8974
    7CHTO   C17 2959   7.321   2.192   2.538 -0.1646 -0.4924 -0.3045
    7CHTO   O12 2960   7.241   2.184   2.658  1.0830  0.0293 -0.6959
    7CHTO    H6 2961   7.291   2.183   2.737  0.9663 -1.3972 -0.6192
    8CHTO  H203 2962   7.778   8.313   1.141  0.4086  0.5730 -0.4691
    8CHTO   O82 2963   7.784   8.249   1.210  0.0773  0.2801 -0.7062
    8CHTO  C123 2964   7.662   8.222   1.288  0.0042 -0.0019  0.3195
    8CHTO  H227 2965   7.684   8.150   1.368  0.4126  1.0447  1.1581
    8CHTO   O77 2966   7.615   8.352   1.346  0.7781 -0.0940  0.2586
    8CHTO  C118 2967   7.503   8.342   1.430  0.1926 -0.3769 -0.5121
    8CHTO  H222 2968   7.523   8.264   1.505 -0.8511  0.0408  0.2248
    8CHTO  C125 2969   7.504   8.486   1.496  0.7830 -0.1373  0.2374
    8CHTO   O84 2970   7.388   8.518   1.581 -0.1413 -0.5764 -0.3811
    8CHTO  H205 2971   7.336   8.588   1.547  1.1775  0.3527 -0.5359
    8CHTO  C114 2972   7.382   8.305   1.341 -0.3106  0.0639  0.1380
    8CHTO  H218 2973   7.372   8.387   1.269 -1.8232 -1.1210 -1.0084
    8CHTO  C116 2974   7.414   8.164   1.277 -0.0820  0.2401 -0.0309
    8CHTO  H220 2975   7.412   8.094   1.363 -1.3212  0.4280  0.1127
    8CHTO   O79 2976   7.303   8.135   1.188  0.0213  0.1236  0.0788
    8CHTO  H201 2977   7.221   8.112   1.228  0.3836 -0.3259  0.5676
    8CHTO  C120 2978   7.546   8.153   1.194 -0.3967  0.2522 -0.0679
    8CHTO  H224 2979   7.529   8.219   1.106  0.6854  1.6849  0.7666
    8CHTO   N21 2980   7.581   8.019   1.135  0.1660 -0.1433 -0.0062
    8CHTO  H211 2981   7.554   7.935   1.197 -2.8011 -0.0446 -1.0767
    8CHTO  H212 2982   7.527   7.995   1.044  0.9916 -0.3435 -0.4532
    8CHTO   O75 2983   7.277   8.292   1.433 -0.1520 -0.2216 -0.2435
    8CHTO  C112 2984   7.145   8.372   1.395 -0.5043 -0.6127  0.3983
    8CHTO  H216 2985   7.097   8.320   1.311 -1.0849  2.3112 -1.1354
    8CHTO   O73 2986   7.191   8.507   1.356 -0.0689 -0.3016 -0.5445
    8CHTO  C113 2987   7.091   8.608   1.331 -0.3607  0.2821  0.0705
    8CHTO  H217 2988   7.027   8.580   1.245 -0.8325  0.0549  0.4940
    8CHTO  C124 2989   7.173   8.732   1.280 -0.3246  0.5378  0.2429
    8CHTO   O83 2990   7.233   8.715   1.151  0.3349  0.0094  0.4698
    8CHTO  H204 2991   7.184   8.752   1.080  0.2834 -1.3822 -0.2437
    8CHTO  C109 2992   7.015   8.631   1.468  0.3781 -0.7847 -0.0474
    8CHTO  H213 2993   7.095   8.645   1.542 -0.4142  0.1701  0.6448
    8CHTO  C110 2994   6.940   8.493   1.490  0.1722  0.4046  0.4636
    8CHTO  H214 2995   6.879   8.464   1.404  3.7747 -3.3462 -0.9698
    8CHTO   O78 2996   6.852   8.505   1.600  0.4729  0.2157 -0.1838
    8CHTO  H200 2997   6.772   8.550   1.581 -0.4151 -0.1478  2.4151
    8CHTO  C111 2998   7.049   8.380   1.510  0.6616 -0.2857  0.8084
    8CHTO  H215 2999   7.113   8.406   1.596 -1.1743  1.2405  1.7666
    8CHTO   N19 3000   6.997   8.248   1.537 -0.0591  0.4345  0.2828
    8CHTO  H207 3001   7.024   8.205   1.632 -1.9387 -0.7910  0.2859
    8CHTO  H208 3002   6.894   8.231   1.509  0.0468 -2.4337  1.4949
    8CHTO   O74 3003   6.925   8.744   1.471 -0.6994 -0.3093 -0.1285
    8CHTO  C115 3004   6.781   8.740   1.386  0.6402 -0.6257 -0.5762
    8CHTO  H219 3005   6.761   8.643   1.342 -0.0606 -1.4989  1.6032
    8CHTO   O76 3006   6.654   8.768   1.477  0.1437 -0.3788 -0.0503
    8CHTO  C122 3007   6.676   8.892   1.545 -0.8157  0.7132 -0.5662
    8CHTO  H226 3008   6.753   8.861   1.616 -1.4862  1.3821  0.4599
    8CHTO  C126 3009   6.552   8.925   1.636 -0.3034  0.5320  0.0489
    8CHTO   O85 3010   6.429   8.945   1.564 -0.1952 -0.0347 -0.0109
    8CHTO  H206 3011   6.367   8.961   1.632  0.5932 -0.4734  0.8147
    8CHTO  C121 3012   6.724   9.013   1.454 -0.1342 -0.3003 -0.4672
    8CHTO  H225 3013   6.663   9.106   1.464  1.2366  0.7481 -1.6054
    8CHTO   O81 3014   6.859   9.065   1.493 -0.1684 -0.2132  0.2575
    8CHTO  H202 3015   6.858   9.101   1.580 -1.3397  0.4822 -0.0513
    8CHTO  C119 3016   6.727   8.973   1.306  0.4126 -0.6171  0.4803
    8CHTO  H223 3017   6.619   8.965   1.292  0.2739 -0.3717  1.3547
    8CHTO  C117 3018   6.805   8.843   1.269  0.0291  0.0239  0.0889
    8CHTO  H221 3019   6.913   8.848   1.259  0.3112  0.6334  3.1631
    8CHTO   N20 3020   6.748   8.792   1.139 -0.2529  0.2164  0.2953
    8CHTO  H209 3021   6.829   8.780   1.069 -0.4090  0.1225  0.1279
    8CHTO  H210 3022   6.670   8.719   1.156 -0.6835  0.9102  1.3428
    8CHTO   O80 3023   6.756   9.104   1.224  0.2419  0.0716 -0.0985
    8CHTO  C103 3024   6.669   9.226   1.235 -0.0485  0.0132  0.2682
    8CHTO  H190 3025   6.586   9.198   1.299  0.9302  0.1068  1.5913
    8CHTO  C101 3026   6.744   9.349   1.292 -0.2712 -0.1095  0.0668
    8CHTO  H188 3027   6.848   9.333   1.264 -1.1149 -1.9361 -2.2613
    8CHTO   O68 3028   6.718   9.349   1.453  0.3169 -0.5327 -0.2712
    8CHTO  H168 3029   6.779   9.285   1.485 -2.2316 -2.5365  0.8006
    8CHTO   C99 3030   6.688   9.490   1.237 -0.0818 -0.4714  0.2731
    8CHTO  H186 3031   6.590   9.511   1.284 -0.0005 -0.0384  0.2574
    8CHTO   N17 3032   6.769   9.617   1.269 -0.0253 -0.6204 -0.2021
    8CHTO  H174 3033   6.732   9.700   1.210  1.5149  0.3247  0.1276
    8CHTO  H175 3034   6.771   9.646   1.373 -1.3784  1.7799 -0.8230
    8CHTO   C97 3035   6.659   9.483   1.083  0.5816  0.1969 -1.0419
    8CHTO  H184 3036   6.754   9.468   1.030 -0.5147  0.2825 -3.0575
    8CHTO   O64 3037   6.566   9.377   1.065 -0.4240  0.0594  0.2845
    8CHTO  C104 3038   6.620   9.245   1.090  0.7642  0.8004 -0.8511
    8CHTO  H191 3039   6.694   9.209   1.019  1.4329 -0.1069  0.3002
    8CHTO  C108 3040   6.505   9.138   1.070  0.5580 -0.5520 -0.2220
    8CHTO   O71 3041   6.485   9.122   0.931  0.0731  0.0044  0.0999
    8CHTO  H171 3042   6.403   9.155   0.902  0.2114  0.9103  0.7291
    8CHTO   O62 3043   6.580   9.595   1.027  0.4120 -0.3296 -0.9938
    8CHTO   C91 3044   6.651   9.682   0.933  0.0789  0.2429 -0.3871
    8CHTO  H178 3045   6.751   9.687   0.975 -0.3903 -2.8020  1.2693
    8CHTO   C92 3046   6.600   9.827   0.947  0.1211  0.8487 -0.2098
    8CHTO  H179 3047   6.493   9.830   0.921  0.2818 -1.3951 -1.2064
    8CHTO   O66 3048   6.610   9.870   1.089  1.1274  0.7597 -0.0526
    8CHTO  H166 3049   6.535   9.922   1.111 -0.0307 -1.6363  1.8512
    8CHTO   C93 3050   6.691   9.922   0.851 -0.6444  0.4370 -0.8155
    8CHTO  H180 3051   6.795   9.911   0.887 -0.7225 -0.3989 -0.8457
    8CHTO   N16 3052   6.640  10.067   0.858  0.0205  0.5060 -0.2105
    8CHTO  H172 3053   6.614  10.103   0.760 -0.3930  1.7952  0.3495
    8CHTO  H173 3054   6.560  10.076   0.931 -1.0798  2.5241 -1.6121
    8CHTO   C94 3055   6.694   9.868   0.699 -0.0579  0.3844  0.3654
    8CHTO  H181 3056   6.595   9.870   0.653 -0.1044  3.1966  0.5003
    8CHTO   O61 3057   6.736   9.730   0.703 -0.0366 -0.0544  0.2636
    8CHTO   C95 3058   6.648   9.641   0.786 -0.1011  0.7503  0.1380
    8CHTO  H182 3059   6.545   9.660   0.755 -0.4464 -1.3849 -0.0623
    8CHTO  C106 3060   6.701   9.496   0.771 -0.0876  0.0699  0.3236
    8CHTO   O69 3061   6.753   9.456   0.651  0.5834 -0.2173 -0.1808
    8CHTO  H169 3062   6.703   9.487   0.577 -1.0874  1.6102  1.6560
    8CHTO   O63 3063   6.800   9.949   0.628 -0.6405  0.7011  0.5806
    8CHTO   C96 3064   6.784   9.946   0.473 -0.6269  0.3856 -0.3063
    8CHTO  H183 3065   6.677   9.930   0.458 -0.8569 -1.3167  2.6588
    8CHTO   C98 3066   6.852   9.824   0.391  0.1739  0.0677  0.8731
    8CHTO  H185 3067   6.960   9.822   0.408  0.7044  1.2241 -2.0056
    8CHTO   O67 3068   6.798   9.701   0.434  0.3895 -0.3893  0.0663
    8CHTO  H167 3069   6.810   9.639   0.365  0.0128 -0.9300  0.4748
    8CHTO  C102 3070   6.830   9.853   0.234 -0.2536  0.4947 -0.7554
    8CHTO  H189 3071   6.736   9.800   0.212  0.2073 -0.9243  0.5441
    8CHTO   N18 3072   6.939   9.793   0.146 -0.1573  0.6886  0.0770
    8CHTO  H176 3073   7.021   9.744   0.196  1.0988  1.2634 -1.3633
    8CHTO  H177 3074   6.893   9.715   0.087  1.5297  0.5371 -1.0654
    8CHTO  C105 3075   6.813  10.003   0.202  0.9407  0.8852 -0.3180
    8CHTO  H192 3076   6.855  10.029   0.104  1.4758 -1.0663 -0.6187
    8CHTO   O65 3077   6.880  10.086   0.291 -0.4929  0.0082 -0.0964
    8CHTO  C100 3078   6.838  10.088   0.424 -0.1562 -0.9275  0.0326
    8CHTO  H187 3079   6.925  10.104   0.491 -0.4599 -0.8982  0.4235
    8CHTO  C107 3080   6.733  10.196   0.443  0.2298  0.3766  0.8120
    8CHTO   O70 3081   6.683  10.223   0.576  0.1330 -0.3029  0.1319
    8CHTO  H170 3082   6.743  10.193   0.641  1.2343 -1.0399 -1.1877
    8CHTO   O57 3083   6.651  10.029   0.185  0.0019  0.0752 -0.6155
    8CHTO   C85 3084   6.598  10.127   0.102  0.2886 -0.0159  0.0641
    8CHTO  H157 3085   6.688  10.159   0.046  2.0396 -0.6919  2.3983
    8CHTO   C83 3086   6.551  10.262   0.176 -1.2351  0.2112 -0.1385
    8CHTO  H155 3087   6.646  10.303   0.209  0.5790 -2.6071 -1.5976
    8CHTO   O56 3088   6.471  10.224   0.291  0.0557 -0.3012  0.0990
    8CHTO  H135 3089   6.532  10.214   0.361  2.1609  2.2184 -1.3064
    8CHTO   C81 3090   6.483  10.360   0.071 -0.1544 -0.4487  0.3000
    8CHTO  H153 3091   6.559  10.383  -0.003 -1.4067  1.9372 -0.2959
    8CHTO   N14 3092   6.456  10.501   0.122  0.0008 -0.0329 -0.2848
    8CHTO  H141 3093   6.388  10.550   0.056 -0.6460 -1.3368 -0.6089
    8CHTO  H142 3094   6.402  10.489   0.214  2.2087 -0.9173  0.9407
    8CHTO   C79 3095   6.361  10.288   0.006  0.0836 -0.5428  0.3951
    8CHTO  H151 3096   6.316  10.352  -0.070  1.4012 -0.1243 -0.0455
    8CHTO   O52 3097   6.415  10.175  -0.062 -0.2292  0.1594 -0.1609
    8CHTO   C86 3098   6.492  10.076   0.011  0.1340 -0.6629  0.0597
    8CHTO  H158 3099   6.424  10.011   0.071  1.0857 -0.2892  1.5806
    8CHTO   C90 3100   6.557   9.981  -0.098 -0.3670  0.6735  0.2954
    8CHTO   O60 3101   6.658   9.891  -0.054  0.8740  0.0746 -0.1030
    8CHTO  H138 3102   6.723   9.930   0.001  0.6336  0.4638 -0.0985
    8CHTO   O50 3103   6.262  10.243   0.095  0.4815 -0.5328 -0.0241
    8CHTO   C73 3104   6.120  10.224   0.095  1.2147  0.0033  0.8765
    8CHTO  H145 3105   6.084  10.195  -0.005 -0.2855  1.0048  1.1016
    8CHTO   C74 3106   6.038  10.349   0.128 -0.3915 -0.8689 -0.3877
    8CHTO  H146 3107   6.061  10.430   0.057 -1.9336  2.9274  3.2215
    8CHTO   O54 3108   5.901  10.325   0.105  0.1558  0.9385 -0.0841
    8CHTO  H133 3109   5.867  10.276   0.177 -1.1011  0.9463 -0.6589
    8CHTO   C75 3110   6.074  10.394   0.278 -0.1189  0.1605 -0.8340
    8CHTO  H147 3111   6.181  10.418   0.279 -0.4767  2.1052 -3.1928
    8CHTO   N13 3112   6.005  10.519   0.318 -0.1879 -1.0570 -0.2061
    8CHTO  H139 3113   5.914  10.503   0.373 -0.3742 -2.1595 -0.8177
    8CHTO  H140 3114   6.070  10.575   0.383 -1.6092  0.5032 -0.1003
    8CHTO   C76 3115   6.058  10.279   0.383 -0.5144  0.0672 -0.2893
    8CHTO  H148 3116   5.950  10.262   0.388 -0.6372  0.7174 -0.5628
    8CHTO   O49 3117   6.126  10.156   0.331 -1.2903  0.0134  0.4776
    8CHTO   C77 3118   6.082  10.117   0.197  0.8542 -0.0222  0.5484
    8CHTO  H149 3119   5.974  10.108   0.207  0.8869 -1.5078 -0.2275
    8CHTO   C88 3120   6.138   9.985   0.166 -0.6778  0.0036 -0.0575
    8CHTO   O58 3121   6.059   9.918   0.064 -0.1995 -0.5157 -0.1547
    8CHTO  H136 3122   6.071   9.960  -0.019 -0.0104  2.1215  1.1461
    8CHTO   O51 3123   6.130  10.321   0.509 -0.3950  0.1201  0.8650
    8CHTO   C78 3124   6.072  10.254   0.653 -0.0683 -0.0811  0.1977
    8CHTO  H150 3125   6.069  10.145   0.634 -0.1260 -0.3309  1.6400
    8CHTO   C80 3126   5.930  10.298   0.701  0.0806  0.3413  0.1515
    8CHTO  H152 3127   5.920  10.409   0.707 -0.1120  0.2425  2.1182
    8CHTO   O55 3128   5.841  10.248   0.600 -0.1541  0.0120  0.4287
    8CHTO  H134 3129   5.785  10.319   0.578  0.9115 -0.0649 -2.8084
    8CHTO   C84 3130   5.896  10.241   0.840  0.1876 -0.5217  0.0472
    8CHTO  H156 3131   5.900  10.133   0.831  2.2666 -0.7155  2.5371
    8CHTO   N15 3132   5.754  10.280   0.880  0.4582 -0.8151 -0.9363
    8CHTO  H143 3133   5.692  10.196   0.859 -2.6936  1.1986 -0.0578
    8CHTO  H144 3134   5.717  10.366   0.829  4.3347  1.6580  0.2051
    8CHTO   C87 3135   6.011  10.270   0.938  0.7496 -0.6441 -0.3611
    8CHTO  H159 3136   6.011  10.377   0.962 -1.9891 -1.3844  3.3754
    8CHTO   O53 3137   6.143  10.228   0.873 -0.0258  0.1664  0.0665
    8CHTO   C82 3138   6.174  10.294   0.754  0.0899 -0.9595 -0.1554
    8CHTO  H154 3139   6.160  10.401   0.766  1.1588 -0.6687 -1.3493
    8CHTO   C89 3140   6.321  10.272   0.709  0.1719 -0.2691  0.2012
    8CHTO   O59 3141   6.346  10.139   0.673 -0.8093  0.0226  0.1780
    8CHTO  H137 3142   6.304  10.083   0.735 -2.7638  0.3611 -0.8163
    8CHTO   O45 3143   5.977  10.184   1.076 -0.2717 -0.5563 -0.0753
    8CHTO   C67 3144   6.031  10.050   1.082  0.0978  1.3457  0.0594
    8CHTO  H124 3145   6.027   9.998   0.986 -1.4080  1.0846  0.2481
    8CHTO   C65 3146   6.183  10.056   1.129 -0.6563 -0.2155 -0.3689
    8CHTO  H122 3147   6.217  10.160   1.129  2.6969 -1.2014  3.5300
    8CHTO   O44 3148   6.260   9.986   1.031  0.4947 -0.2846 -0.0783
    8CHTO  H102 3149   6.326  10.038   0.989  0.8338 -1.3311 -0.8648
    8CHTO   C63 3150   6.203  10.025   1.284  0.3261  0.1217 -0.0656
    8CHTO  H120 3151   6.148  10.102   1.338 -0.6318 -2.1042  2.1980
    8CHTO   N11 3152   6.338  10.052   1.347  0.0722 -0.3907 -0.2176
    8CHTO  H108 3153   6.348  10.024   1.450 -0.7460 -0.0901 -0.0545
    8CHTO  H109 3154   6.372  10.153   1.330 -0.3705 -0.2576 -0.3197
    8CHTO   C61 3155   6.140   9.884   1.308  0.0186  0.4981 -0.2681
    8CHTO  H118 3156   6.117   9.868   1.415 -0.9033 -1.8961 -0.7999
    8CHTO   O40 3157   6.022   9.857   1.235  0.3356 -0.1862 -0.3392
    8CHTO   C68 3158   5.939   9.965   1.180 -0.7573  0.2371  0.1723
    8CHTO  H125 3159   5.901  10.035   1.258 -0.6924  2.0993 -1.4417
    8CHTO   C72 3160   5.816   9.892   1.116  0.1845 -0.3172  0.2941
    8CHTO   O48 3161   5.727   9.984   1.051 -0.5315 -0.0551 -0.7132
    8CHTO  H105 3162   5.645   9.939   1.044 -0.6417 -0.0599  0.5248
    8CHTO   O38 3163   6.240   9.782   1.265 -0.5217 -0.5424  0.2756
    8CHTO   C55 3164   6.220   9.645   1.287  0.0176 -0.2824  0.2987
    8CHTO  H112 3165   6.113   9.623   1.301 -0.1004 -0.1853 -0.3904
    8CHTO   C56 3166   6.305   9.593   1.402 -0.3513 -1.2902  0.3052
    8CHTO  H113 3167   6.403   9.634   1.375 -0.8122  0.1840  0.8076
    8CHTO   O42 3168   6.264   9.665   1.524  0.4208  0.0299 -0.1453
    8CHTO  H100 3169   6.331   9.647   1.587 -0.0554 -2.0673 -0.2149
    8CHTO   C57 3170   6.284   9.435   1.415 -0.8925 -0.2504 -0.1243
    8CHTO  H114 3171   6.183   9.416   1.454  0.2402 -3.1381  1.5666
    8CHTO   N10 3172   6.372   9.372   1.522  0.4763  0.5110 -0.1241
    8CHTO  H106 3173   6.330   9.288   1.575  1.1337  0.1973 -0.0911
    8CHTO  H107 3174   6.399   9.446   1.595  2.9486 -0.2219 -0.2396
    8CHTO   C58 3175   6.300   9.362   1.280  0.8817 -0.7258  0.1317
    8CHTO  H115 3176   6.408   9.355   1.252  0.7172  2.4778 -1.4408
    8CHTO   O37 3177   6.223   9.425   1.172  0.0514 -1.1283 -0.0357
    8CHTO   C59 3178   6.250   9.571   1.153  0.1927  1.0446  0.3529
    8CHTO  H116 3179   6.351   9.585   1.113 -0.6441  1.9782 -1.5036
    8CHTO   C70 3180   6.157   9.604   1.037 -0.6775 -0.0067 -0.1270
    8CHTO   O46 3181   6.022   9.598   1.065 -0.0224 -0.0806 -0.2576
    8CHTO  H103 3182   5.988   9.512   1.053 -2.9014  1.1200 -1.2423
    8CHTO   O39 3183   6.232   9.203   1.285  0.0505 -0.1631  0.3562
    8CHTO   C60 3184   6.093   9.195   1.281  0.8713 -0.0710  0.0874
    8CHTO  H117 3185   6.051   9.287   1.322 -0.2843 -1.4213  1.9935
    8CHTO   C62 3186   6.049   9.171   1.136  0.0992  0.0373  0.2127
    8CHTO  H119 3187   6.079   9.260   1.076  3.1511  0.0343  1.6393
    8CHTO   O43 3188   6.113   9.060   1.066 -0.0366 -0.5329  0.3990
    8CHTO  H101 3189   6.052   9.036   0.999  1.8689 -1.7526 -0.9510
    8CHTO   C66 3190   5.889   9.176   1.131  0.8942 -0.1721 -0.0810
    8CHTO  H123 3191   5.851   9.261   1.188  1.0093 -0.4289  0.3876
    8CHTO   N12 3192   5.841   9.177   0.993 -0.5114  0.2116 -0.6745
    8CHTO  H110 3193   5.758   9.246   0.992  0.3993  1.3235 -0.8526
    8CHTO  H111 3194   5.810   9.078   0.963 -1.4074  0.3999 -0.3867
    8CHTO   C69 3195   5.829   9.054   1.208 -0.2654  0.4752  0.1403
    8CHTO  H126 3196   5.868   8.960   1.164 -0.0947  0.5037  0.2313
    8CHTO   O41 3197   5.880   9.046   1.360 -0.0610 -0.4015 -0.3716
    8CHTO   C64 3198   6.035   9.074   1.373 -0.0492 -0.2878 -0.7984
    8CHTO  H121 3199   6.097   8.984   1.355  1.7840  1.2907 -2.6504
    8CHTO   C71 3200   6.069   9.111   1.522 -0.4665  0.4260  0.1852
    8CHTO   O47 3201   6.001   9.221   1.593  0.0228 -0.0955 -0.4261
    8CHTO  H104 3202   6.019   9.229   1.684 -1.6064  0.2944 -0.1269
    8CHTO   O34 3203   5.667   9.062   1.200  0.1587  0.7544 -0.0925
    8CHTO   C49 3204   5.561   9.111   1.296  0.2014 -0.0675 -0.3914
    8CHTO   H91 3205   5.550   9.030   1.368  2.0419 -0.8332 -0.9511
    8CHTO   C47 3206   5.437   9.127   1.202 -0.0481  0.0064  0.6293
    8CHTO   H89 3207   5.361   9.147   1.280 -1.0213 -2.0141  0.2476
    8CHTO   O33 3208   5.407   9.002   1.142 -0.7171 -0.7661  0.0456
    8CHTO   H70 3209   5.481   8.972   1.092 -1.3324 -0.5953 -0.9693
    8CHTO   C45 3210   5.466   9.242   1.094 -0.8886  0.1150 -0.4897
    8CHTO   H87 3211   5.561   9.222   1.042 -0.5474  0.2073  0.0859
    8CHTO    N8 3212   5.364   9.256   0.989 -0.2721  0.3053 -0.5648
    8CHTO   H75 3213   5.311   9.162   0.976  0.5606 -0.4573  1.3014
    8CHTO   H76 3214   5.292   9.333   1.009 -1.5949 -1.2732  0.9626
    8CHTO   C43 3215   5.491   9.383   1.172 -0.1509  0.8175 -0.3588
    8CHTO   H85 3216   5.521   9.447   1.089  3.0246 -1.2232 -0.9002
    8CHTO   O29 3217   5.603   9.355   1.259 -0.1918 -0.2527 -0.3376
    8CHTO   C50 3218   5.595   9.247   1.360  0.6239  0.5535  0.1858
    8CHTO   H92 3219   5.689   9.227   1.413  0.3006 -2.0162 -0.1466
    8CHTO   C54 3220   5.503   9.281   1.475  0.4397  0.1265  0.0949
    8CHTO   O36 3221   5.506   9.187   1.580 -0.3000 -0.2459  0.5669
    8CHTO   H72 3222   5.516   9.248   1.650  1.3061  0.6932 -0.4541
    8CHTO   O27 3223   5.373   9.431   1.239  0.3130  0.2507 -0.2565
    8CHTO   C37 3224   5.309   9.553   1.277  0.4665  0.1805 -0.0430
    8CHTO   H79 3225   5.225   9.536   1.347  0.9613  1.1773  0.8100
    8CHTO   C38 3226   5.404   9.658   1.347 -0.2109 -0.1385  0.2357
    8CHTO   H80 3227   5.496   9.656   1.287  1.5555  0.8891  2.8171
    8CHTO   O31 3228   5.437   9.621   1.483 -0.4670 -0.2947 -0.0947
    8CHTO   H68 3229   5.354   9.620   1.526 -0.5443  2.3425 -0.0901
    8CHTO   C39 3230   5.354   9.807   1.356 -0.6775  0.6400  0.4062
    8CHTO   H81 3231   5.266   9.803   1.420 -2.0514  0.4881 -1.4352
    8CHTO    N7 3232   5.453   9.915   1.394  0.4361 -0.2242  0.0701
    8CHTO   H73 3233   5.419   9.961   1.485  2.4285  1.5024 -0.0235
    8CHTO   H74 3234   5.447   9.984   1.311 -1.9538 -0.3843  0.0948
    8CHTO   C40 3235   5.288   9.841   1.216 -0.0694 -0.3371 -0.1978
    8CHTO   H82 3236   5.366   9.847   1.140  0.2938 -0.6507  0.1496
    8CHTO   O26 3237   5.186   9.746   1.182  0.2012 -0.6277  0.4247
    8CHTO   C41 3238   5.248   9.619   1.151  0.0155 -0.0421  0.0285
    8CHTO   H83 3239   5.335   9.632   1.084 -0.8907 -0.4855 -1.2517
    8CHTO   C52 3240   5.128   9.542   1.081 -0.6802  0.0163 -0.1940
    8CHTO   O35 3241   5.091   9.641   0.949  0.1891 -0.5063  0.4568
    8CHTO   H71 3242   5.074   9.584   0.876 -1.5648 -0.8715  1.1435
    8CHTO   O28 3243   5.223   9.970   1.224  0.2289 -0.4240  0.2272
    8CHTO   C42 3244   5.164  10.041   1.109 -0.2639  0.4955  0.2273
    8CHTO   H84 3245   5.102  10.124   1.142  0.8546  1.8754 -1.0673
    8CHTO   C44 3246   5.071   9.966   1.002 -0.4041  0.7097 -0.2463
    8CHTO   H86 3247   5.130   9.890   0.951  1.5184  0.8469  1.6704
    8CHTO   O32 3248   4.969   9.897   1.077 -0.7439 -0.1960 -0.7269
    8CHTO   H69 3249   5.005   9.815   1.104 -0.2692  0.2541  0.0103
    8CHTO   C48 3250   5.010  10.071   0.898 -0.4351  0.1258 -0.1643
    8CHTO   H90 3251   4.957  10.144   0.960  0.2249  0.2288  0.2864
    8CHTO    N9 3252   4.902  10.019   0.820 -0.2033 -0.5795  0.1177
    8CHTO   H77 3253   4.929   9.922   0.780 -1.3199 -0.6076 -0.5916
    8CHTO   H78 3254   4.877  10.085   0.739  0.7401 -0.4425 -0.0651
    8CHTO   C51 3255   5.120  10.135   0.824 -0.3176 -0.4343  0.2625
    8CHTO   H93 3256   5.179  10.063   0.768  0.2739  0.8835 -0.8495
    8CHTO   O30 3257   5.200  10.205   0.919 -0.1716 -0.8988  0.0737
    8CHTO   C46 3258   5.272  10.108   1.024  0.2447  0.2649 -0.7486
    8CHTO   H88 3259   5.322  10.034   0.961 -0.6936 -0.9821 -0.0434
    8CHTO   C53 3260   5.350  10.200   1.118  0.2649  0.1660 -0.4354
    8CHTO   O72 3261   5.469  10.240   1.048  0.4740 -0.3180  0.7535
    8CHTO  H199 3262   5.505  10.312   1.096 -1.1860 -0.6134  2.4679
    8CHTO   O22 3263   5.073  10.239   0.734  0.2839 -0.0902  0.6731
    8CHTO   C31 3264   5.145  10.283   0.611 -0.5767  0.0799 -0.7192
    8CHTO   H59 3265   5.091  10.371   0.571  0.6681 -0.0150 -2.6809
    8CHTO   C29 3266   5.289  10.322   0.634 -1.2500 -0.3355 -0.4328
    8CHTO   H57 3267   5.344  10.244   0.689 -0.4373  1.5948  1.5630
    8CHTO   O21 3268   5.287  10.429   0.734 -0.2101  0.4872  0.4394
    8CHTO   H37 3269   5.286  10.517   0.701  3.4789  0.7166  0.7565
    8CHTO   C27 3270   5.365  10.355   0.503  0.0631 -0.0226 -0.1428
    8CHTO   H55 3271   5.328  10.451   0.465 -0.5344 -0.3865 -0.4979
    8CHTO    N5 3272   5.512  10.365   0.527 -0.1911 -0.1751 -0.1535
    8CHTO   H43 3273   5.545  10.438   0.454  0.8165 -1.9361 -1.4904
    8CHTO   H44 3274   5.559  10.268   0.536 -1.7000 -0.9347 -0.3296
    8CHTO   C25 3275   5.333  10.247   0.391 -0.7824 -0.3426  0.3342
    8CHTO   H53 3276   5.388  10.157   0.424 -0.1861 -0.0024  0.2784
    8CHTO   O17 3277   5.190  10.227   0.376  0.4149 -0.4758  0.2189
    8CHTO   C32 3278   5.137  10.180   0.496  1.0226  0.3996  0.1786
    8CHTO   H60 3279   5.185  10.087   0.524  0.8465  0.3903  0.4508
    8CHTO   C36 3280   4.993  10.140   0.465 -0.0967  0.2388  0.0936
    8CHTO   O25 3281   4.907  10.250   0.415 -0.9512  0.2268 -0.0319
    8CHTO   H40 3282   4.819  10.218   0.409 -1.4661  1.9878 -2.6835
    8CHTO   O15 3283   5.402  10.291   0.263  0.0281 -0.4363  0.3709
    8CHTO   C19 3284   5.443  10.216   0.144 -0.2385  0.5015 -0.1720
    8CHTO   H47 3285   5.371  10.134   0.128  0.9699 -0.4896 -0.6177
    8CHTO   C20 3286   5.439  10.310   0.016 -0.2345 -0.0040 -0.1962
    8CHTO   H48 3287   5.493  10.404   0.036  0.5154 -0.0358 -1.9125
    8CHTO   O19 3288   5.302  10.343   0.009  0.3696 -0.0634 -0.3867
    8CHTO   H35 3289   5.261  10.271  -0.036  2.3603 -1.3807 -0.1547
    8CHTO   C21 3290   5.502  10.243  -0.117 -0.2685 -0.3859  0.4477
    8CHTO   H49 3291   5.436  10.161  -0.145 -3.2415  2.1973 -0.3278
    8CHTO    N4 3292   5.512  10.335  -0.231 -0.2805  0.6587  0.1928
    8CHTO   H41 3293   5.615  10.354  -0.257  0.0313  1.3228  1.8597
    8CHTO   H42 3294   5.464  10.428  -0.203 -2.5834  0.0103 -1.3884
    8CHTO   C22 3295   5.639  10.186  -0.072  0.5684 -0.2927  0.0742
    8CHTO   H50 3296   5.706  10.264  -0.036  2.0727 -0.6144 -1.9621
    8CHTO   O14 3297   5.624  10.094   0.036  0.3329 -0.4785  0.1752
    8CHTO   C23 3298   5.581  10.150   0.165 -0.7077 -0.2567  0.0224
    8CHTO   H51 3299   5.656  10.220   0.205  0.6742 -0.6221 -1.8585
    8CHTO   C34 3300   5.578  10.026   0.257 -0.0557  0.4925 -0.1002
    8CHTO   O23 3301   5.604  10.058   0.397  0.5137  0.5417  0.2663
    8CHTO   H38 3302   5.553  10.007   0.458  1.2520  0.1243  0.5481
    8CHTO   O16 3303   5.697  10.124  -0.188 -0.4675  0.2376  0.1477
    8CHTO   C24 3304   5.832  10.053  -0.177 -0.4875 -0.5643 -0.0149
    8CHTO   H52 3305   5.869  10.051  -0.075  1.4824 -1.5931 -0.7354
    8CHTO   C26 3306   5.939  10.119  -0.263  0.0606  1.0870 -0.7687
    8CHTO   H54 3307   5.898  10.127  -0.365  1.8137  2.8402 -1.3720
    8CHTO   O20 3308   5.973  10.244  -0.206 -0.7015 -0.3042  0.2215
    8CHTO   H36 3309   5.905  10.305  -0.223 -0.7767 -0.8991 -1.6951
    8CHTO   C30 3310   6.068  10.032  -0.277  0.7860 -0.3219 -0.4858
    8CHTO   H58 3311   6.122  10.031  -0.181  1.5052  2.5105 -0.8186
    8CHTO    N6 3312   6.159  10.103  -0.370 -0.1524 -0.0126 -0.0566
    8CHTO   H45 3313   6.118  10.189  -0.421 -2.3381 -0.7546  0.4092
    8CHTO   H46 3314   6.243  10.138  -0.311  0.4684  1.3960 -1.7034
    8CHTO   C33 3315   6.043   9.890  -0.314  0.9112  0.7540  0.5266
    8CHTO   H61 3316   5.996   9.884  -0.413 -2.6210 -0.7063  2.1815
    8CHTO   O18 3317   5.947   9.835  -0.218 -0.6899  0.2470 -0.4402
    8CHTO   C28 3318   5.818   9.903  -0.216  0.1635  0.5886  1.0336
    8CHTO   H56 3319   5.771   9.891  -0.314 -0.3814  1.2476  1.2089
    8CHTO   C35 3320   5.723   9.833  -0.112  0.2511  0.1258 -0.6090
    8CHTO   O24 3321   5.769   9.842   0.025  0.2515 -0.1832 -0.0421
    8CHTO   H39 3322   5.716   9.781   0.072  0.2442  0.9989  1.4987
    8CHTO    O9 3323   6.157   9.807  -0.321 -0.7403 -0.4496 -0.1152
    8CHTO   C13 3324   6.125   9.668  -0.433  0.2730  0.2812 -0.2662
    8CHTO   H26 3325   6.069   9.707  -0.520 -0.3852  0.4709  0.2370
    8CHTO   C11 3326   6.049   9.554  -0.358 -0.2082  1.1725  0.3977
    8CHTO   H24 3327   5.943   9.580  -0.343 -0.4129 -0.1863  1.4225
    8CHTO    O8 3328   6.095   9.552  -0.215  0.5134  0.0043 -0.3948
    8CHTO    H3 3329   6.046   9.481  -0.181 -1.9054  1.3699 -0.9243
    8CHTO    C9 3330   6.063   9.416  -0.428 -0.1792 -0.1711 -0.0646
    8CHTO   H22 3331   6.022   9.429  -0.529 -1.8425 -0.2670  0.5817
    8CHTO    N2 3332   5.972   9.314  -0.375 -0.2789  0.2477  0.1720
    8CHTO   H10 3333   5.954   9.231  -0.441 -0.7441 -0.7137  1.5013
    8CHTO   H11 3334   6.012   9.276  -0.282 -0.7203 -1.3946 -0.2910
    8CHTO    C7 3335   6.221   9.384  -0.446  0.3062 -0.2117 -0.1605
    8CHTO   H20 3336   6.225   9.347  -0.551  0.1739 -1.1571  0.1618
    8CHTO    O4 3337   6.313   9.498  -0.427 -0.4021  0.5074  0.0790
    8CHTO   C14 3338   6.268   9.618  -0.486  0.7281  0.3255 -0.4451
    8CHTO   H27 3339   6.255   9.611  -0.596 -3.0917 -0.7732  0.0292
    8CHTO   C18 3340   6.381   9.725  -0.459 -0.1420 -0.3640  0.4655
    8CHTO   O13 3341   6.498   9.699  -0.546  0.6213 -0.1397 -0.0566
    8CHTO    H7 3342   6.563   9.682  -0.480  1.6435 -0.7574 -1.1959
    8CHTO    O2 3343   6.270   9.257  -0.331 -0.3626  0.1208 -0.2229
    8CHTO    C1 3344   6.392   9.243  -0.274 -0.0279  0.3128  0.5133
    8CHTO   H14 3345   6.431   9.344  -0.250 -0.5970  0.7615 -0.4458
    8CHTO    C2 3346   6.498   9.175  -0.378 -0.0808 -0.0945 -0.4625
    8CHTO   H15 3347   6.462   9.075  -0.407  2.3703 -0.3094 -2.9591
    8CHTO    O6 3348   6.522   9.266  -0.486 -0.1558 -0.2759  0.1712
    8CHTO    H1 3349   6.441   9.308  -0.507 -1.1129 -1.5767  1.1325
    8CHTO    C3 3350   6.633   9.145  -0.304 -0.0389 -0.4569 -0.3554
    8CHTO   H16 3351   6.670   9.242  -0.267  2.8751 -1.2055 -1.1731
    8CHTO    N1 3352   6.734   9.076  -0.391  0.3984 -0.1057  0.5346
    8CHTO    H8 3353   6.740   9.145  -0.474 -0.7124  0.5159  0.9518
    8CHTO    H9 3354   6.830   9.075  -0.342  0.5493 -0.6603  0.2302
    8CHTO    C4 3355   6.599   9.054  -0.174  0.4153 -0.0920  0.0203
    8CHTO   H17 3356   6.548   8.965  -0.210 -0.1944  0.3917 -0.3164
    8CHTO    O1 3357   6.515   9.131  -0.087  0.1071 -0.2236  0.4846
    8CHTO    C5 3358   6.384   9.157  -0.144 -0.3235  0.0876  0.0790
    8CHTO   H18 3359   6.342   9.060  -0.171  1.2769 -1.0797  1.6838
    8CHTO   C16 3360   6.295   9.227  -0.040 -0.2469  0.2776  0.1834
    8CHTO   O11 3361   6.322   9.171   0.095  0.1095  0.0725 -0.4317
    8CHTO    H5 3362   6.399   9.118   0.096  0.3716  0.4462 -0.8430
    8CHTO    O3 3363   6.706   9.011  -0.091 -0.3342 -0.5744 -0.2621
    8CHTO    C6 3364   6.697   8.874  -0.040  0.1421 -0.0611  0.0914
    8CHTO   H19 3365   6.596   8.835  -0.031 -0.0137  0.5450  0.9846
    8CHTO    C8 3366   6.774   8.770  -0.124 -0.2862  0.2445 -0.4642
    8CHTO   H21 3367   6.879   8.799  -0.137  0.2513 -1.9531 -1.3719
    8CHTO    O7 3368   6.727   8.760  -0.260 -0.6150  0.1030 -0.2447
    8CHTO    H2 3369   6.796   8.768  -0.323  1.8867 -2.4356  1.9900
    8CHTO   C12 3370   6.755   8.627  -0.049  0.0877  0.0002 -1.3095
    8CHTO   H25 3371   6.645   8.610  -0.045  0.0945  0.1126 -0.5789
    8CHTO    N3 3372   6.814   8.510  -0.125  0.3936 -0.3380 -0.3971
    8CHTO   H12 3373   6.849   8.538  -0.223  2.5725  1.2132  0.7696
    8CHTO   H13 3374   6.747   8.426  -0.119  1.5673 -1.1208  3.1977
    8CHTO   C15 3375   6.812   8.637   0.097  0.0289 -0.2718 -0.1891
    8CHTO   H28 3376   6.914   8.675   0.102 -0.9063  1.9742  4.0803
    8CHTO   O10 3377   6.783   8.512   0.193  0.3347  0.1931  0.2917
    8CHTO    H4 3378   6.714   8.461   0.153  0.1243  2.1846 -1.9930
    8CHTO    O5 3379   6.736   8.738   0.161  0.1588 -0.1720  0.7348
    8CHTO   C10 3380   6.757   8.872   0.107 -0.2008  0.1867  0.1559
    8CHTO   H23 3381   6.864   8.894   0.112  0.0113 -1.0396  1.5972
    8CHTO   C17 3382   6.688   8.969   0.198  0.3650 -0.4848  0.3092
    8CHTO   O12 3383   6.547   8.956   0.207 -0.3267  0.0753 -0.0137
    8CHTO    H6 3384   6.526   8.961   0.298 -1.4600 -0.2333 -0.2500
    9CHTO  H203 3385   8.524   4.724   0.645  0.1341 -0.0300 -1.2439
    9CHTO   O82 3386   8.483   4.644   0.617 -0.6540 -0.0452 -0.0486
    9CHTO  C123 3387   8.511   4.625   0.475 -0.3069  0.3688  0.0292
    9CHTO  H227 3388   8.547   4.719   0.432  0.6439  0.4865  1.0740
    9CHTO   O77 3389   8.604   4.514   0.468 -0.3899 -0.2892  0.5667
    9CHTO  C118 3390   8.661   4.485   0.336 -0.7303  0.4012  0.5507
    9CHTO  H222 3391   8.726   4.568   0.304 -0.4355  0.3362  0.9760
    9CHTO  C125 3392   8.744   4.358   0.352 -0.0272 -0.2989 -0.1789
    9CHTO   O84 3393   8.826   4.343   0.230  0.4081 -0.1183 -0.0379
    9CHTO  H205 3394   8.917   4.327   0.247  0.5605 -2.2547 -2.5752
    9CHTO  C114 3395   8.543   4.464   0.235 -0.2544 -0.1663  0.3193
    9CHTO  H218 3396   8.502   4.364   0.248 -2.5803  0.8770  1.1107
    9CHTO  C116 3397   8.424   4.565   0.245 -0.0637  0.0208  0.5763
    9CHTO  H220 3398   8.453   4.662   0.201 -0.2697 -0.8646 -1.5594
    9CHTO   O79 3399   8.319   4.520   0.156 -0.3112  0.2247  0.0594
    9CHTO  H201 3400   8.236   4.562   0.170 -0.8359 -0.2407 -1.5956
    9CHTO  C120 3401   8.385   4.579   0.396  0.3259  0.3862  0.0053
    9CHTO  H224 3402   8.350   4.480   0.435 -1.2565  0.8339 -0.2354
    9CHTO   N21 3403   8.270   4.673   0.409  0.2659 -0.0739  0.2564
    9CHTO  H211 3404   8.281   4.717   0.507 -0.1687  0.3898  0.0981
    9CHTO  H212 3405   8.172   4.633   0.391  0.1076  0.7954 -0.8238
    9CHTO   O75 3406   8.606   4.469   0.107 -0.1079  0.3365  0.2821
    9CHTO  C112 3407   8.563   4.344   0.016  0.6487 -0.1667  0.5673
    9CHTO  H216 3408   8.461   4.312   0.044  1.1107 -0.4687  1.9322
    9CHTO   O73 3409   8.658   4.236   0.027 -0.2928  0.2965 -0.1504
    9CHTO  C113 3410   8.611   4.121  -0.033 -0.4830 -0.0507 -0.2353
    9CHTO  H217 3411   8.508   4.103   0.003 -0.4308  0.9550  0.4313
    9CHTO  C124 3412   8.704   4.004   0.012  0.0846 -0.1422 -0.0457
    9CHTO   O83 3413   8.712   3.979   0.153  0.1999  1.3007  0.0184
    9CHTO  H204 3414   8.719   3.887   0.173  0.7528  1.7721  1.9906
    9CHTO  C109 3415   8.605   4.145  -0.188  0.4976  0.1079 -0.3006
    9CHTO  H213 3416   8.707   4.162  -0.226  0.2257  0.7424 -0.7607
    9CHTO  C110 3417   8.518   4.267  -0.221  0.2894 -0.8276 -0.0120
    9CHTO  H214 3418   8.415   4.242  -0.194 -1.1311  0.4678 -3.9454
    9CHTO   O78 3419   8.524   4.294  -0.363  0.5312  0.5963 -0.0984
    9CHTO  H200 3420   8.459   4.355  -0.393  1.1284  0.8344 -0.9277
    9CHTO  C111 3421   8.557   4.391  -0.138 -0.0751  0.0525 -0.1684
    9CHTO  H215 3422   8.655   4.432  -0.167  0.7456 -0.6757  1.4442
    9CHTO   N19 3423   8.459   4.499  -0.155 -0.1519  0.2128 -0.1712
    9CHTO  H207 3424   8.428   4.501  -0.258  0.6100  0.5959 -0.3956
    9CHTO  H208 3425   8.369   4.479  -0.099 -2.1101  2.8944 -2.2109
    9CHTO   O74 3426   8.550   4.026  -0.247 -0.1817  0.3980 -0.3891
    9CHTO  C115 3427   8.647   3.928  -0.327 -0.7291 -0.2195 -0.2633
    9CHTO  H219 3428   8.745   3.925  -0.279 -0.1760 -0.0471 -1.3816
    9CHTO   O76 3429   8.590   3.769  -0.319  0.2358 -0.3516  0.0211
    9CHTO  C122 3430   8.467   3.751  -0.390  0.4932 -0.5974  0.2417
    9CHTO  H226 3431   8.387   3.809  -0.345 -0.8412 -1.7169 -0.6372
    9CHTO  C126 3432   8.423   3.596  -0.362  0.2988  0.1489  0.0566
    9CHTO   O85 3433   8.497   3.486  -0.423 -0.1698  0.0294 -0.1632
    9CHTO  H206 3434   8.430   3.426  -0.449 -3.1606  2.8765  0.4844
    9CHTO  C121 3435   8.489   3.791  -0.538 -0.3216 -0.2450  0.8215
    9CHTO  H225 3436   8.574   3.731  -0.576  0.1271 -0.1020  1.5895
    9CHTO   O81 3437   8.375   3.763  -0.621  0.9085  0.0559  0.1658
    9CHTO  H202 3438   8.298   3.807  -0.591  0.6819 -0.5327  0.4504
    9CHTO  C119 3439   8.529   3.946  -0.539 -0.8583  0.9219 -0.5628
    9CHTO  H223 3440   8.531   3.978  -0.643  0.2354  0.7659 -0.5925
    9CHTO  C117 3441   8.667   3.981  -0.473 -0.0394  0.4431  0.1885
    9CHTO  H221 3442   8.692   4.087  -0.469 -1.7872  0.9923 -2.4060
    9CHTO   N20 3443   8.780   3.909  -0.546  0.0297 -0.3519  0.5430
    9CHTO  H209 3444   8.800   3.940  -0.647 -2.1688  1.2722  0.5648
    9CHTO  H210 3445   8.869   3.909  -0.485  2.0348 -1.3026 -2.2778
    9CHTO   O80 3446   8.404   4.039  -0.481 -0.4886 -0.1220 -0.1039
    9CHTO  C103 3447   8.323   4.133  -0.588 -0.3578 -0.4393 -0.6593
    9CHTO  H190 3448   8.315   4.233  -0.545  3.1167 -0.2073 -0.4191
    9CHTO  C101 3449   8.383   4.172  -0.734  0.1324 -0.6084  0.0460
    9CHTO  H188 3450   8.422   4.088  -0.791  1.2900 -0.1056  0.0819
    9CHTO   O68 3451   8.505   4.270  -0.715  0.0235 -0.4384 -0.4123
    9CHTO  H168 3452   8.560   4.247  -0.643 -0.8549  2.8015  1.4069
    9CHTO   C99 3453   8.266   4.242  -0.829 -0.2864  0.6544 -0.1222
    9CHTO  H186 3454   8.241   4.341  -0.787 -1.3125  0.3108  0.1097
    9CHTO   N17 3455   8.321   4.255  -0.968 -0.5699 -0.1803 -0.2113
    9CHTO  H174 3456   8.401   4.327  -0.978 -0.3039 -0.2384  1.4239
    9CHTO  H175 3457   8.239   4.278  -1.035 -1.6034  1.2014  1.4661
    9CHTO   C97 3458   8.139   4.157  -0.825 -0.1171 -0.0318  0.4971
    9CHTO  H184 3459   8.154   4.057  -0.869 -0.1357 -0.8127  2.2132
    9CHTO   O64 3460   8.090   4.145  -0.694 -0.6555  0.1372 -0.6131
    9CHTO  C104 3461   8.177   4.071  -0.602  0.4817 -0.2233 -0.2973
    9CHTO  H191 3462   8.190   3.968  -0.633  1.0446 -0.2593  0.0357
    9CHTO  C108 3463   8.122   4.061  -0.458 -0.0160 -0.0112 -0.1268
    9CHTO   O71 3464   8.012   3.981  -0.463  0.3302 -0.1362  0.0589
    9CHTO  H171 3465   8.010   3.911  -0.400 -0.9743 -1.1005 -1.0198
    9CHTO   O62 3466   8.037   4.236  -0.894 -0.1423 -0.1987  0.0708
    9CHTO   C91 3467   7.941   4.159  -0.970 -0.5215 -0.5947  0.7751
    9CHTO  H178 3468   8.002   4.083  -1.018 -0.0558  1.4416 -1.9791
    9CHTO   C92 3469   7.903   4.260  -1.090 -0.0761  0.7708 -0.6318
    9CHTO  H179 3470   7.998   4.300  -1.128  0.8094 -0.5210  0.2036
    9CHTO   O66 3471   7.841   4.177  -1.192 -0.2711 -0.1380  0.2222
    9CHTO  H166 3472   7.843   4.234  -1.267  3.1090 -0.0139  0.3659
    9CHTO   C93 3473   7.813   4.379  -1.039  0.7652  0.6498 -0.7145
    9CHTO  H180 3474   7.755   4.415  -1.125  1.0421  2.0384 -0.3201
    9CHTO   N16 3475   7.899   4.501  -1.000  0.2763  0.2162  0.1753
    9CHTO  H172 3476   7.914   4.559  -1.090 -2.1424  2.6502  1.2973
    9CHTO  H173 3477   7.999   4.474  -0.969  0.5314  1.4167  0.4214
    9CHTO   C94 3478   7.714   4.326  -0.938  0.1565  0.5077  0.5273
    9CHTO  H181 3479   7.748   4.337  -0.835  1.2314  1.0483  0.1175
    9CHTO   O61 3480   7.689   4.189  -0.958 -0.7554 -0.2789  0.0965
    9CHTO   C95 3481   7.809   4.111  -0.904 -0.1954 -0.5269  0.2559
    9CHTO  H182 3482   7.811   4.117  -0.796  0.9792  0.8451  0.1742
    9CHTO  C106 3483   7.767   3.968  -0.943 -0.1626 -0.1468 -0.0789
    9CHTO   O69 3484   7.814   3.879  -0.844 -0.0644  0.7168 -0.4296
    9CHTO  H169 3485   7.748   3.876  -0.778 -0.5052 -1.0191 -0.9029
    9CHTO   O63 3486   7.598   4.399  -0.958  0.3928  0.1758  0.0928
    9CHTO   C96 3487   7.496   4.417  -0.823 -0.2975 -0.0759 -0.3455
    9CHTO  H183 3488   7.555   4.419  -0.731  1.2652 -0.0447 -1.3227
    9CHTO   C98 3489   7.390   4.299  -0.800  0.0767  0.0615  0.6667
    9CHTO  H185 3490   7.355   4.268  -0.899  4.1410 -0.6047 -0.6655
    9CHTO   O67 3491   7.453   4.184  -0.745 -0.0782 -0.4362  0.7229
    9CHTO  H167 3492   7.490   4.200  -0.661  1.3840 -0.7611  0.1604
    9CHTO  C102 3493   7.261   4.337  -0.712  0.9257 -0.5857  0.0536
    9CHTO  H189 3494   7.292   4.322  -0.607 -0.5573  0.3660  0.6332
    9CHTO   N18 3495   7.144   4.244  -0.720  0.4439 -0.3987  0.7845
    9CHTO  H176 3496   7.163   4.153  -0.775  1.5986  0.5200 -0.3849
    9CHTO  H177 3497   7.057   4.291  -0.764  0.3625 -0.4966  0.8407
    9CHTO  C105 3498   7.226   4.485  -0.735  0.2942 -0.2018 -0.1535
    9CHTO  H192 3499   7.181   4.505  -0.832  1.0608 -0.2199 -0.5104
    9CHTO   O65 3500   7.338   4.566  -0.717 -0.3015 -0.2265  0.1360
    9CHTO  C100 3501   7.425   4.561  -0.832  0.6911  0.0416 -0.0975
    9CHTO  H187 3502   7.375   4.580  -0.928  1.0624 -0.7838 -0.4638
    9CHTO  C107 3503   7.533   4.676  -0.818  0.4798  0.4522  0.2577
    9CHTO   O70 3504   7.476   4.809  -0.805 -0.0351  0.1324  0.2240
    9CHTO  H170 3505   7.430   4.808  -0.723 -0.4546  0.0619 -0.0067
    9CHTO   O57 3506   7.126   4.530  -0.623 -0.1593 -0.3192  0.3979
    9CHTO   C85 3507   7.029   4.632  -0.667  0.1246  0.4484 -0.4437
    9CHTO  H157 3508   6.990   4.593  -0.763  0.3535  2.0214 -1.1853
    9CHTO   C83 3509   7.102   4.760  -0.710  0.5273 -0.6084  0.4402
    9CHTO  H155 3510   7.165   4.749  -0.798  0.0051 -1.0482  0.1225
    9CHTO   O56 3511   7.189   4.795  -0.598  0.6510  0.1590  0.3320
    9CHTO  H135 3512   7.266   4.834  -0.634  1.1382  0.6691  1.8499
    9CHTO   C81 3513   7.000   4.871  -0.735  0.3790  0.3567 -0.3444
    9CHTO  H153 3514   6.928   4.846  -0.813  0.9188 -0.3852 -0.5954
    9CHTO   N14 3515   7.061   4.988  -0.804  0.1445 -0.1164  0.3953
    9CHTO  H141 3516   7.136   5.039  -0.747  0.1639  1.1163 -0.6994
    9CHTO  H142 3517   7.105   4.961  -0.898  1.1364 -0.9634  1.0922
    9CHTO   C79 3518   6.925   4.915  -0.601 -0.3175  1.0821 -0.3589
    9CHTO  H151 3519   6.849   4.991  -0.622  1.0814  2.6647  0.1242
    9CHTO   O52 3520   6.857   4.797  -0.540 -0.2586 -0.5696  0.2361
    9CHTO   C86 3521   6.908   4.656  -0.561 -0.2951 -0.0951 -0.3401
    9CHTO  H158 3522   6.944   4.641  -0.457 -0.0207 -0.4240 -0.4792
    9CHTO   C90 3523   6.786   4.565  -0.579  0.5286  0.2617 -0.3159
    9CHTO   O60 3524   6.809   4.427  -0.608 -0.0505 -0.4839 -0.1055
    9CHTO  H138 3525   6.852   4.431  -0.692 -0.8921  0.4795 -0.5019
    9CHTO   O50 3526   7.019   4.973  -0.509  0.9422  0.2555  0.3039
    9CHTO   C73 3527   6.996   5.030  -0.373  0.2445 -0.2107  0.9198
    9CHTO  H145 3528   6.910   4.979  -0.328  0.4023  2.3728  4.3188
    9CHTO   C74 3529   6.980   5.185  -0.366  0.0300 -0.0067 -0.5895
    9CHTO  H146 3530   6.894   5.214  -0.429  0.0890 -0.5623 -0.9321
    9CHTO   O54 3531   6.945   5.220  -0.228  0.0192 -0.4222  0.1086
    9CHTO  H133 3532   7.011   5.277  -0.194 -0.7094  2.0770 -2.4155
    9CHTO   C75 3533   7.119   5.243  -0.426 -0.1988 -0.1600  0.0965
    9CHTO  H147 3534   7.127   5.213  -0.532  0.1772  1.2385 -0.2771
    9CHTO   N13 3535   7.138   5.393  -0.429  0.4539  1.1143  0.4868
    9CHTO  H139 3536   7.050   5.455  -0.436  2.1806  3.4424 -1.5279
    9CHTO  H140 3537   7.209   5.441  -0.495  0.3953 -0.2881 -0.6022
    9CHTO   C76 3538   7.253   5.180  -0.359  0.0150  0.0016 -0.3996
    9CHTO  H148 3539   7.278   5.215  -0.258 -2.6162  1.7223 -0.3124
    9CHTO   O49 3540   7.235   5.040  -0.341 -0.4744  0.3559  0.2640
    9CHTO   C77 3541   7.113   4.993  -0.283 -0.6440  0.6762  0.3709
    9CHTO  H149 3542   7.105   5.038  -0.185 -1.8186 -2.2967  1.7202
    9CHTO   C88 3543   7.130   4.837  -0.259  0.5605  0.5569 -0.3863
    9CHTO   O58 3544   7.242   4.822  -0.155 -0.2837 -0.0685 -0.6646
    9CHTO  H136 3545   7.306   4.886  -0.176 -0.4037  0.9058  1.8279
    9CHTO   O51 3546   7.376   5.179  -0.465  0.0162 -0.1144 -0.0234
    9CHTO   C78 3547   7.529   5.132  -0.383  0.8859 -0.1813 -0.5186
    9CHTO  H150 3548   7.502   5.101  -0.279 -0.2323  2.0704 -0.1121
    9CHTO   C80 3549   7.625   5.255  -0.378 -0.2425  0.4067  0.0798
    9CHTO  H152 3550   7.632   5.297  -0.480 -1.5292 -3.5852 -1.7590
    9CHTO   O55 3551   7.562   5.351  -0.296  0.1646 -0.2630  0.0977
    9CHTO  H134 3552   7.605   5.433  -0.313  1.7653 -1.1120 -0.0672
    9CHTO   C84 3553   7.771   5.223  -0.325 -0.4560 -0.3683  0.3026
    9CHTO  H156 3554   7.763   5.204  -0.218  0.4351 -1.7718  0.1322
    9CHTO   N15 3555   7.868   5.336  -0.328 -0.3224 -0.0582 -0.1292
    9CHTO  H143 3556   7.848   5.410  -0.403  0.7455  1.3170  0.9053
    9CHTO  H144 3557   7.876   5.392  -0.237 -0.7959  1.6704 -1.1271
    9CHTO   C87 3558   7.822   5.096  -0.395 -0.3030 -0.1331  0.0497
    9CHTO  H159 3559   7.837   5.120  -0.500 -0.1220 -1.5471 -0.2548
    9CHTO   O53 3560   7.717   4.979  -0.393 -0.0512 -0.7409  0.5681
    9CHTO   C82 3561   7.595   5.018  -0.456 -0.5458  0.3086 -0.2497
    9CHTO  H154 3562   7.617   5.050  -0.557 -1.9315  2.0081 -0.0177
    9CHTO   C89 3563   7.503   4.895  -0.466  0.4025  0.6167 -0.0524
    9CHTO   O59 3564   7.458   4.835  -0.345  0.2610  0.1384 -0.7912
    9CHTO  H137 3565   7.532   4.794  -0.305 -0.9582 -0.2490  1.1274
    9CHTO   O45 3566   7.968   5.049  -0.344  0.1726 -0.0484  0.2927
    9CHTO   C67 3567   7.995   4.909  -0.362  0.1295  0.2046  0.0538
    9CHTO  H124 3568   7.904   4.856  -0.335 -0.9136  0.6111 -2.5371
    9CHTO   C65 3569   8.025   4.867  -0.510 -0.3636  0.9982 -0.4146
    9CHTO  H122 3570   8.063   4.957  -0.559  2.0655 -0.0390 -0.5012
    9CHTO   O44 3571   7.903   4.821  -0.565  0.2112  0.4493  0.0096
    9CHTO  H102 3572   7.899   4.851  -0.654 -0.8090  0.2385 -0.0259
    9CHTO   C63 3573   8.147   4.767  -0.523 -0.0519  0.1013  0.2356
    9CHTO  H120 3574   8.240   4.824  -0.514 -0.2847  0.7265 -1.1489
    9CHTO   N11 3575   8.168   4.711  -0.659 -0.2635  0.4679 -0.5358
    9CHTO  H108 3576   8.091   4.639  -0.674  1.2251 -1.0077 -1.3002
    9CHTO  H109 3577   8.170   4.790  -0.731 -0.7523 -0.4664 -1.5848
    9CHTO   C61 3578   8.159   4.662  -0.398  0.1099  0.4097  0.2793
    9CHTO  H118 3579   8.269   4.655  -0.393  0.1764 -0.3704 -1.9547
    9CHTO   O40 3580   8.114   4.717  -0.262  0.2400 -0.0046 -0.0264
    9CHTO   C68 3581   8.105   4.864  -0.255 -0.6359 -0.4191  0.5821
    9CHTO  H125 3582   8.202   4.915  -0.274 -1.5176  1.5644  1.2992
    9CHTO   C72 3583   8.066   4.898  -0.108 -0.1819  0.3961 -0.3186
    9CHTO   O48 3584   8.021   5.033  -0.089  0.4590  0.4896  0.2439
    9CHTO  H105 3585   7.995   5.041  -0.000 -0.1184 -1.6375  0.2782
    9CHTO   O38 3586   8.114   4.522  -0.409 -0.2272  0.4577  0.3585
    9CHTO   C55 3587   8.000   4.467  -0.337 -0.0001 -0.0090 -0.3575
    9CHTO  H112 3588   7.930   4.546  -0.305  2.3441  0.4603  3.9342
    9CHTO   C56 3589   8.044   4.373  -0.212  0.1337  0.1533  0.1355
    9CHTO  H113 3590   8.115   4.298  -0.250 -0.2296 -0.0121 -0.2293
    9CHTO   O42 3591   8.101   4.458  -0.113 -0.1531  0.6367 -0.0434
    9CHTO  H100 3592   8.178   4.494  -0.154  1.5399 -2.1888  0.4524
    9CHTO   C57 3593   7.927   4.293  -0.148 -0.8830 -0.5423 -0.3738
    9CHTO  H114 3594   7.869   4.372  -0.100  0.7182  0.6972 -0.4289
    9CHTO   N10 3595   7.981   4.194  -0.050  0.5247 -0.4007 -0.0917
    9CHTO  H106 3596   8.003   4.107  -0.108 -0.3346 -2.1102  2.0650
    9CHTO  H107 3597   8.067   4.232   0.004  0.3172  0.3215 -0.2677
    9CHTO   C58 3598   7.840   4.223  -0.251  0.6613  0.5267 -0.1597
    9CHTO  H115 3599   7.895   4.143  -0.305  1.8239  1.9494 -1.1152
    9CHTO   O37 3600   7.805   4.309  -0.357  0.3049  0.0513 -0.0015
    9CHTO   C59 3601   7.917   4.366  -0.429 -1.2708 -0.0142 -0.0452
    9CHTO  H116 3602   7.977   4.281  -0.462 -0.8461  0.4446 -0.4404
    9CHTO   C70 3603   7.878   4.417  -0.569  0.4880 -0.2012 -0.3581
    9CHTO   O46 3604   7.772   4.512  -0.576 -0.8004 -0.0449 -0.5454
    9CHTO  H103 3605   7.732   4.513  -0.661 -0.8287 -1.3086 -0.5579
    9CHTO   O39 3606   7.712   4.177  -0.200  0.1929  0.0471 -0.1783
    9CHTO   C60 3607   7.692   4.041  -0.161  0.0477 -1.1310  0.0323
    9CHTO  H117 3608   7.782   3.983  -0.181 -0.6317 -1.8491 -0.9632
    9CHTO   C62 3609   7.662   4.033  -0.007 -0.0449  0.5331 -0.2894
    9CHTO  H119 3610   7.745   4.087   0.044  0.1532  1.0535 -1.1542
    9CHTO   O43 3611   7.548   4.115   0.023  0.2577  0.2611  0.2316
    9CHTO  H101 3612   7.570   4.207   0.022  1.0841  0.0802 -2.6722
    9CHTO   C66 3613   7.654   3.885   0.044 -0.1790 -0.0324  0.8174
    9CHTO  H123 3614   7.745   3.832   0.017  0.0491  1.6303 -1.8845
    9CHTO   N12 3615   7.647   3.874   0.183  0.1682 -0.1104 -0.0049
    9CHTO  H110 3616   7.564   3.930   0.224  1.3199  0.3866  1.6902
    9CHTO  H111 3617   7.738   3.906   0.232 -0.2639 -1.3645  1.6590
    9CHTO   C69 3618   7.534   3.818  -0.027 -0.0506  0.2629 -0.8688
    9CHTO  H126 3619   7.434   3.859   0.001  0.5260  0.3850  1.1207
    9CHTO   O41 3620   7.543   3.828  -0.176  0.0773 -0.3589  0.4252
    9CHTO   C64 3621   7.577   3.968  -0.231  0.3214  0.0313 -0.1133
    9CHTO  H121 3622   7.483   4.022  -0.210  1.2573  1.9497 -0.7442
    9CHTO   C71 3623   7.612   3.952  -0.382  0.2621  0.4180 -0.3292
    9CHTO   O47 3624   7.573   4.077  -0.443 -0.0804  0.3758 -0.0011
    9CHTO  H104 3625   7.482   4.067  -0.466 -0.0510  0.1642 -0.0319
    9CHTO   O34 3626   7.514   3.665   0.022  0.0480 -0.1382  0.1114
    9CHTO   C49 3627   7.459   3.543  -0.066  0.0437  0.0148  0.0157
    9CHTO   H91 3628   7.363   3.574  -0.108 -0.3666  0.7295  1.4365
    9CHTO   C47 3629   7.448   3.418   0.025 -0.1020  0.2936 -0.3614
    9CHTO   H89 3630   7.425   3.336  -0.047  1.8459 -1.6200  1.1255
    9CHTO   O33 3631   7.342   3.430   0.124  0.3126  0.1081  0.4609
    9CHTO   H70 3632   7.360   3.500   0.183  0.0868 -0.8487  1.6878
    9CHTO   C45 3633   7.596   3.392   0.090 -0.1987 -0.0177 -0.4026
    9CHTO   H87 3634   7.609   3.451   0.182 -1.8956 -1.9503  1.1405
    9CHTO    N8 3635   7.597   3.247   0.131 -0.1963  0.7622 -0.1149
    9CHTO   H75 3636   7.510   3.201   0.085 -1.2030  1.2803  1.2466
    9CHTO   H76 3637   7.580   3.244   0.237  1.1670 -1.9942  0.0818
    9CHTO   C43 3638   7.716   3.427  -0.011 -0.9825 -0.2305  0.3233
    9CHTO   H85 3639   7.742   3.530   0.010  1.9425 -0.8614 -0.0391
    9CHTO   O29 3640   7.673   3.407  -0.148 -0.0274 -0.1919  0.4547
    9CHTO   C50 3641   7.561   3.496  -0.180  0.1549 -0.0863 -0.5642
    9CHTO   H92 3642   7.608   3.589  -0.217  0.7086  0.6430  1.8799
    9CHTO   C54 3643   7.486   3.430  -0.297 -0.3938  0.0453  0.0348
    9CHTO   O36 3644   7.467   3.289  -0.294 -0.1375 -0.0446  0.4413
    9CHTO   H72 3645   7.551   3.247  -0.301 -1.3723 -2.3975 -0.3893
    9CHTO   O27 3646   7.846   3.372   0.027 -0.0762 -0.3130  0.1980
    9CHTO   C37 3647   7.957   3.439   0.097 -0.2618  0.5543  0.1869
    9CHTO   H79 3648   8.030   3.366   0.136  0.0751  0.8440  0.0978
    9CHTO   C38 3649   8.029   3.530  -0.004  0.0655 -0.0574  0.1488
    9CHTO   H80 3650   7.954   3.592  -0.055  0.9686  0.8362 -0.1162
    9CHTO   O31 3651   8.092   3.452  -0.108  0.1041 -0.1583 -0.4326
    9CHTO   H68 3652   8.126   3.513  -0.170 -2.8631  0.3517 -1.6542
    9CHTO   C39 3653   8.142   3.626   0.062 -0.0827  0.3420 -0.5856
    9CHTO   H81 3654   8.229   3.569   0.095 -0.5923 -0.5397 -0.7419
    9CHTO    N7 3655   8.201   3.729  -0.024  0.1970 -0.3488 -0.3879
    9CHTO   H73 3656   8.170   3.829   0.004  1.6426  0.2813 -0.9614
    9CHTO   H74 3657   8.309   3.722  -0.028  0.1933  0.2393 -2.2433
    9CHTO   C40 3658   8.079   3.699   0.185 -0.1943 -1.1399 -0.2866
    9CHTO   H82 3659   8.000   3.750   0.130  0.2554 -0.2899 -0.1357
    9CHTO   O26 3660   8.030   3.596   0.270 -0.0679  0.0019 -0.3742
    9CHTO   C41 3661   7.913   3.533   0.220  0.4730 -0.3136 -0.2075
    9CHTO   H83 3662   7.836   3.601   0.181  0.2672 -1.4968 -1.9757
    9CHTO   C52 3663   7.847   3.458   0.334 -0.5101 -0.0258  0.0305
    9CHTO   O35 3664   7.899   3.367   0.409  0.2898  0.1575 -0.4027
    9CHTO   H71 3665   7.840   3.334   0.475  2.0342 -1.5933  0.3207
    9CHTO   O28 3666   8.172   3.776   0.272 -0.2501  0.4001  0.1216
    9CHTO   C42 3667   8.132   3.897   0.341 -0.0718  0.0295 -0.6187
    9CHTO   H84 3668   8.213   3.910   0.412 -0.3928 -2.5104  0.2847
    9CHTO   C44 3669   7.997   3.877   0.419  0.1723  1.3196  0.0532
    9CHTO   H86 3670   7.924   3.842   0.347  1.1501 -0.3664 -0.1462
    9CHTO   O32 3671   8.023   3.768   0.517  0.2169  0.8569 -0.7127
    9CHTO   H69 3672   7.945   3.746   0.564  1.4175  1.8290  1.8614
    9CHTO   C48 3673   7.935   4.007   0.486 -0.0805  0.5587 -0.4196
    9CHTO   H90 3674   8.000   4.043   0.566 -1.3727  1.1869  0.3799
    9CHTO    N9 3675   7.800   3.978   0.561 -0.4248 -0.0404 -0.7234
    9CHTO   H77 3676   7.818   3.973   0.667  0.0516 -2.1384 -0.8696
    9CHTO   H78 3677   7.747   4.068   0.535  1.8415  1.3864 -0.4795
    9CHTO   C51 3678   7.923   4.125   0.373  1.0799 -0.2859 -0.1551
    9CHTO   H93 3679   7.851   4.103   0.294 -0.0279  2.6818 -0.0188
    9CHTO   O30 3680   8.053   4.150   0.315 -0.1996 -0.5665 -0.1519
    9CHTO   C46 3681   8.126   4.020   0.247  0.4688 -0.0148 -0.6003
    9CHTO   H88 3682   8.067   3.995   0.159 -0.9852  0.2802  0.2549
    9CHTO   C53 3683   8.271   4.057   0.204 -0.1500 -0.1323 -0.4591
    9CHTO   O72 3684   8.265   4.151   0.100 -0.0793 -0.7489  0.0521
    9CHTO  H199 3685   8.210   4.111   0.035  0.3393 -0.3209 -0.5677
    9CHTO   O22 3686   7.888   4.243   0.444 -0.4276 -0.1597 -0.0063
    9CHTO   C31 3687   7.811   4.355   0.373  0.1706 -0.3092  0.7706
    9CHTO   H59 3688   7.787   4.430   0.451  0.6615  0.4322  0.2173
    9CHTO   C29 3689   7.892   4.429   0.267 -0.0883  0.4775 -0.3567
    9CHTO   H57 3690   7.914   4.356   0.188 -1.5319 -1.1419  0.6994
    9CHTO   O21 3691   8.006   4.472   0.330  1.1664 -0.6472  0.0263
    9CHTO   H37 3692   8.084   4.460   0.280  1.3347 -1.4975  0.4904
    9CHTO   C27 3693   7.804   4.549   0.205  0.5142  0.4250  0.2964
    9CHTO   H55 3694   7.763   4.604   0.291 -0.6600 -0.3056  0.2254
    9CHTO    N5 3695   7.881   4.633   0.119 -0.4008 -0.4866 -0.0521
    9CHTO   H43 3696   7.918   4.573   0.037 -1.4036 -1.2032  0.0214
    9CHTO   H44 3697   7.820   4.710   0.073  1.1674  0.3687 -0.7630
    9CHTO   C25 3698   7.689   4.480   0.134  0.1963 -0.1514 -0.2526
    9CHTO   H53 3699   7.730   4.409   0.061  0.9214 -2.4514  2.3113
    9CHTO   O17 3700   7.604   4.404   0.222 -0.8445  0.5660 -0.3911
    9CHTO   C32 3701   7.676   4.307   0.306 -0.9796 -0.4537  0.1344
    9CHTO   H60 3702   7.694   4.217   0.246  0.7031 -0.0865  0.0779
    9CHTO   C36 3703   7.581   4.243   0.414 -0.5504 -0.0925 -0.2160
    9CHTO   O25 3704   7.498   4.135   0.375  0.3201 -0.4929  0.5145
    9CHTO   H40 3705   7.478   4.080   0.449  0.3190 -0.5682  0.4581
    9CHTO   O15 3706   7.600   4.587   0.060 -0.1018  0.0364 -0.2329
    9CHTO   C19 3707   7.506   4.577  -0.040 -0.6469  0.5176 -0.0512
    9CHTO   H47 3708   7.486   4.684  -0.060 -1.2869  0.5964  0.9779
    9CHTO   C20 3709   7.560   4.510  -0.175 -0.7545  0.4713 -0.1153
    9CHTO   H48 3710   7.615   4.417  -0.154 -0.5640  1.0562  2.0089
    9CHTO   O19 3711   7.655   4.607  -0.230 -0.7514 -0.1768  0.3556
    9CHTO   H35 3712   7.713   4.574  -0.295 -1.5516  0.9129 -0.9205
    9CHTO   C21 3713   7.443   4.474  -0.272 -0.1783  0.2208 -0.5534
    9CHTO   H49 3714   7.408   4.565  -0.320  1.5093 -0.2903 -2.8613
    9CHTO    N4 3715   7.467   4.383  -0.394  0.0294 -1.1258 -0.3230
    9CHTO   H41 3716   7.501   4.451  -0.471 -0.4730 -1.5738 -0.9473
    9CHTO   H42 3717   7.380   4.328  -0.424  0.1553 -1.9790  0.8227
    9CHTO   C22 3718   7.319   4.418  -0.197 -0.3181  0.3842  0.1619
    9CHTO   H50 3719   7.322   4.315  -0.162 -0.6657  0.7688  1.3453
    9CHTO   O14 3720   7.285   4.492  -0.079  1.0637  0.0688  0.0174
    9CHTO   C23 3721   7.377   4.516   0.017  0.2417 -1.0312 -0.2082
    9CHTO   H51 3722   7.396   4.425   0.075  0.3864  0.1632  1.6498
    9CHTO   C34 3723   7.315   4.621   0.112 -0.0891  0.2579 -0.0840
    9CHTO   O23 3724   7.387   4.644   0.232 -0.5569  0.0337 -0.3292
    9CHTO   H38 3725   7.364   4.577   0.293 -3.2821 -0.0532 -1.3758
    9CHTO   O16 3726   7.209   4.435  -0.289  1.1541  0.1749  0.2212
    9CHTO   C24 3727   7.079   4.333  -0.252 -0.2033 -0.5466  0.2122
    9CHTO   H52 3728   7.075   4.308  -0.146 -0.6584  0.7133  0.5056
    9CHTO   C26 3729   7.091   4.202  -0.328 -0.6433 -0.0302  0.0330
    9CHTO   H54 3730   7.118   4.231  -0.432 -0.3334 -1.3345 -0.2610
    9CHTO   O20 3731   7.207   4.128  -0.281  0.5928 -0.3075  0.2329
    9CHTO   H36 3732   7.254   4.151  -0.203 -0.2869 -3.7613  1.8698
    9CHTO   C30 3733   6.961   4.120  -0.324  0.6706 -0.0511  0.5055
    9CHTO   H58 3734   6.945   4.076  -0.225 -1.5422 -1.5701 -0.5003
    9CHTO    N6 3735   6.969   4.000  -0.410 -0.2917 -0.1189 -0.2208
    9CHTO   H45 3736   7.024   3.918  -0.367 -2.0494 -1.2415 -0.0518
    9CHTO   H46 3737   6.866   3.967  -0.414 -0.0505 -1.1470  1.6164
    9CHTO   C33 3738   6.832   4.198  -0.350 -0.1860 -0.2150 -0.8510
    9CHTO   H61 3739   6.839   4.241  -0.450 -0.5477  0.9534 -0.3799
    9CHTO   O18 3740   6.845   4.309  -0.259  0.1022 -0.2864  0.2565
    9CHTO   C28 3741   6.951   4.405  -0.284  0.4678 -0.1630 -0.2455
    9CHTO   H56 3742   6.940   4.425  -0.391 -2.0132  0.5800  0.1179
    9CHTO   C35 3743   6.935   4.531  -0.192 -0.4357 -0.7449  0.0762
    9CHTO   O24 3744   6.813   4.606  -0.232 -0.1229  0.2000 -0.0709
    9CHTO   H39 3745   6.823   4.698  -0.217 -0.4920  0.1668  0.3903
    9CHTO    O9 3746   6.706   4.126  -0.334  0.3747 -0.6310  0.1305
    9CHTO   C13 3747   6.597   4.191  -0.434  0.9413  0.1666  0.2490
    9CHTO   H26 3748   6.644   4.205  -0.534 -1.1096 -1.1090 -0.9496
    9CHTO   C11 3749   6.541   4.330  -0.372 -0.1823  0.1220  0.5749
    9CHTO   H24 3750   6.633   4.390  -0.364 -0.7958  0.9262  1.7247
    9CHTO    O8 3751   6.502   4.310  -0.234  0.3488  0.0609 -0.0321
    9CHTO    H3 3752   6.573   4.286  -0.177  1.2547 -0.4057 -1.3481
    9CHTO    C9 3753   6.434   4.372  -0.474  0.3835  0.9727  0.3134
    9CHTO   H22 3754   6.477   4.349  -0.572  2.8291 -2.0503  2.0034
    9CHTO    N2 3755   6.414   4.515  -0.477 -0.0358 -0.3752 -0.3999
    9CHTO   H10 3756   6.308   4.530  -0.485 -0.1084 -1.1859 -1.0669
    9CHTO   H11 3757   6.466   4.577  -0.548 -1.4699  2.7726  1.2301
    9CHTO    C7 3758   6.307   4.278  -0.449 -0.6919  0.3477  0.2646
    9CHTO   H20 3759   6.250   4.268  -0.544 -0.8779  0.7589  0.3314
    9CHTO    O4 3760   6.353   4.148  -0.401  0.1128 -0.6326  0.3721
    9CHTO   C14 3761   6.469   4.099  -0.465 -0.1178  0.3581 -0.3610
    9CHTO   H27 3762   6.454   4.094  -0.575 -1.1122  1.9031 -0.3028
    9CHTO   C18 3763   6.506   3.959  -0.409 -0.1758  0.2853  0.4589
    9CHTO   O13 3764   6.594   3.877  -0.490  0.6561 -0.1826 -0.5122
    9CHTO    H7 3765   6.545   3.839  -0.561 -0.6879  1.4305 -0.4994
    9CHTO    O2 3766   6.206   4.343  -0.341  0.2258  0.2173 -0.4890
    9CHTO    C1 3767   6.091   4.256  -0.326 -0.7652  0.0663 -0.0296
    9CHTO   H14 3768   6.128   4.152  -0.320  0.5081  0.2693 -3.3766
    9CHTO    C2 3769   5.987   4.265  -0.453 -0.2092  0.0812 -0.0425
    9CHTO   H15 3770   5.988   4.369  -0.486 -0.2472  0.8909  2.3822
    9CHTO    O6 3771   6.033   4.183  -0.565 -0.1725 -0.5023  0.0670
    9CHTO    H1 3772   6.042   4.094  -0.539  0.7258  0.0818  1.8211
    9CHTO    C3 3773   5.839   4.224  -0.419 -0.1368 -0.6584  0.2784
    9CHTO   H16 3774   5.822   4.116  -0.404 -1.6924 -0.6270 -1.1634
    9CHTO    N1 3775   5.741   4.254  -0.525  0.3492 -0.3144 -0.0142
    9CHTO    H8 3776   5.722   4.176  -0.597  1.4340 -1.4088  0.8632
    9CHTO    H9 3777   5.648   4.289  -0.481  1.4250 -1.4989  3.4178
    9CHTO    C4 3778   5.805   4.284  -0.285  0.3325 -0.3419 -0.3146
    9CHTO   H17 3779   5.811   4.393  -0.292  0.3459 -0.2290  1.2266
    9CHTO    O1 3780   5.893   4.240  -0.183 -0.7668 -0.1182 -0.7179
    9CHTO    C5 3781   6.021   4.294  -0.192 -0.1070 -0.6577  1.0058
    9CHTO   H18 3782   6.026   4.401  -0.173 -0.5711 -0.4924  0.1985
    9CHTO   C16 3783   6.095   4.222  -0.077 -0.1871  0.1112 -0.0838
    9CHTO   O11 3784   6.237   4.249  -0.059 -0.4015 -0.4360 -0.3490
    9CHTO    H5 3785   6.296   4.197  -0.110  0.6963  1.7533 -1.3974
    9CHTO    O3 3786   5.675   4.241  -0.236  0.8767 -0.9508 -0.0627
    9CHTO    C6 3787   5.575   4.338  -0.177  0.3493 -0.0635  0.0866
    9CHTO   H19 3788   5.608   4.442  -0.168 -0.6814  0.3155 -0.4848
    9CHTO    C8 3789   5.459   4.339  -0.276 -0.6789  0.2145  0.0826
    9CHTO   H21 3790   5.440   4.235  -0.304 -0.6992  0.1567  0.3037
    9CHTO    O7 3791   5.504   4.422  -0.388  0.2090  0.0519 -0.0935
    9CHTO    H2 3792   5.462   4.391  -0.466  2.0712 -0.9393 -0.7345
    9CHTO   C12 3793   5.328   4.405  -0.213  0.3812 -0.2633 -0.2482
    9CHTO   H25 3794   5.343   4.514  -0.222 -0.1816 -0.2982 -1.6460
    9CHTO    N3 3795   5.213   4.369  -0.295  0.0886  0.1885 -0.4960
    9CHTO   H12 3796   5.234   4.396  -0.397  0.7762  0.7971 -0.1996
    9CHTO   H13 3797   5.126   4.419  -0.255 -0.0172 -1.4222  1.3642
    9CHTO   C15 3798   5.314   4.373  -0.057 -0.5599 -0.4482 -0.1797
    9CHTO   H28 3799   5.251   4.286  -0.037  0.1906 -1.1489 -0.8078
    9CHTO   O10 3800   5.226   4.503   0.004 -0.3550  0.2588 -0.2809
    9CHTO    H4 3801   5.291   4.566   0.027 -0.9655  0.4412  0.9815
    9CHTO    O5 3802   5.435   4.371   0.019  0.2673 -0.5182 -0.4129
    9CHTO   C10 3803   5.544   4.290  -0.030 -0.5326 -0.4486  0.2502
    9CHTO   H23 3804   5.510   4.187  -0.027  2.6594 -1.6032 -1.3032
    9CHTO   C17 3805   5.662   4.301   0.061 -0.4308  0.1742  0.4186
    9CHTO   O12 3806   5.721   4.432   0.081 -0.2547 -0.0533 -0.1756
    9CHTO    H6 3807   5.810   4.430   0.051  0.1374  1.2697  0.8591
   10CHTO  H203 3808   5.885   6.641   2.455 -1.3169 -0.0549  0.3630
   10CHTO   O82 3809   5.854   6.561   2.418  0.0688 -0.6421  0.4373
   10CHTO  C123 3810   5.732   6.599   2.350 -0.1422 -0.1542 -0.4508
   10CHTO  H227 3811   5.737   6.563   2.246  2.4708  0.4685 -0.5876
   10CHTO   O77 3812   5.634   6.523   2.423 -0.7416  0.2716 -0.1313
   10CHTO  C118 3813   5.502   6.539   2.374  0.0072  0.2259  0.2499
   10CHTO  H222 3814   5.512   6.500   2.271 -1.4038 -0.6822  0.4382
   10CHTO  C125 3815   5.409   6.443   2.455  0.1024  0.7733  0.3223
   10CHTO   O84 3816   5.457   6.310   2.444  0.3116 -0.5533  0.1792
   10CHTO  H205 3817   5.536   6.307   2.496 -0.2342 -0.3136  1.0381
   10CHTO  C114 3818   5.448   6.685   2.383 -0.0712 -0.1754 -0.0447
   10CHTO  H218 3819   5.457   6.713   2.488 -0.2639 -1.7607  0.4209
   10CHTO  C116 3820   5.541   6.778   2.296 -0.6821 -0.7109  0.1243
   10CHTO  H220 3821   5.526   6.761   2.187  1.3327  1.9176 -0.6146
   10CHTO   O79 3822   5.507   6.916   2.308  0.1773 -0.1645 -0.8148
   10CHTO  H201 3823   5.426   6.930   2.263  1.1328  0.2161 -2.4466
   10CHTO  C120 3824   5.693   6.752   2.342  0.1893 -0.1781  0.1857
   10CHTO  H224 3825   5.702   6.792   2.446  1.7653  0.4050 -0.1549
   10CHTO   N21 3826   5.795   6.821   2.262  0.3440  0.3023 -0.6736
   10CHTO  H211 3827   5.894   6.793   2.298  0.0981  2.7216  2.1100
   10CHTO  H212 3828   5.775   6.927   2.276 -0.3112 -0.0226  0.9405
   10CHTO   O75 3829   5.308   6.680   2.336 -0.3559  0.1862  0.1901
   10CHTO  C112 3830   5.206   6.756   2.435 -0.1013  0.3721 -0.7127
   10CHTO  H216 3831   5.265   6.819   2.503 -0.2745 -0.9041  0.6303
   10CHTO   O73 3832   5.125   6.658   2.512 -0.1207  0.3971  0.1076
   10CHTO  C113 3833   5.027   6.707   2.604  0.1732 -0.3958 -0.2617
   10CHTO  H217 3834   5.070   6.769   2.686  0.4156 -1.2190  0.2439
   10CHTO  C124 3835   4.963   6.584   2.666 -0.1607 -0.2935 -0.1809
   10CHTO   O83 3836   4.883   6.610   2.782 -0.0494 -0.1727 -0.8255
   10CHTO  H204 3837   4.792   6.597   2.766 -0.3816 -1.6356  1.9346
   10CHTO  C109 3838   4.917   6.794   2.525 -0.5521 -0.0354 -0.0707
   10CHTO  H213 3839   4.852   6.720   2.475  0.4761 -1.0875  0.1372
   10CHTO  C110 3840   4.979   6.894   2.427 -0.8032 -0.0645 -0.1087
   10CHTO  H214 3841   5.004   6.982   2.487  0.3133 -1.0991  0.9701
   10CHTO   O78 3842   4.878   6.934   2.328  0.8680 -0.1569 -0.4921
   10CHTO  H200 3843   4.905   7.006   2.274  1.3048  0.2723  0.2976
   10CHTO  C111 3844   5.105   6.840   2.346  0.3119 -0.5817 -0.5183
   10CHTO  H215 3845   5.067   6.770   2.270 -0.2044 -0.5384 -0.2997
   10CHTO   N19 3846   5.182   6.947   2.277 -0.1244  0.6359 -0.5569
   10CHTO  H207 3847   5.103   6.998   2.224 -1.9308 -0.3904  1.0987
   10CHTO  H208 3848   5.227   7.015   2.347 -0.2752  1.0378 -0.8481
   10CHTO   O74 3849   4.838   6.873   2.620 -0.0897  0.1913  0.4078
   10CHTO  C115 3850   4.680   6.886   2.569  0.5315 -0.1885 -0.1523
   10CHTO  H219 3851   4.674   6.899   2.461  0.9168 -1.7201 -0.3681
   10CHTO   O76 3852   4.594   6.751   2.602 -0.4347  0.2607  0.1043
   10CHTO  C122 3853   4.583   6.729   2.739 -0.5208 -0.3387 -0.7328
   10CHTO  H226 3854   4.688   6.722   2.771 -0.0173  0.4432 -2.1962
   10CHTO  C126 3855   4.524   6.584   2.761  0.4266 -0.7098  0.8589
   10CHTO   O85 3856   4.617   6.488   2.719  0.2951 -0.3658  0.0379
   10CHTO  H206 3857   4.635   6.492   2.627  0.2290  0.1107  0.0476
   10CHTO  C121 3858   4.510   6.838   2.823  0.0061  0.6637  1.0137
   10CHTO  H225 3859   4.410   6.800   2.852  0.1487 -0.9635 -0.5448
   10CHTO   O81 3860   4.587   6.860   2.943 -0.0729  1.1978  0.8202
   10CHTO  H202 3861   4.527   6.891   3.008 -0.1108  1.5460  0.6201
   10CHTO  C119 3862   4.486   6.962   2.728 -0.0545 -0.0838 -1.0289
   10CHTO  H223 3863   4.405   6.929   2.663 -0.9433 -2.6538  1.2708
   10CHTO  C117 3864   4.616   7.005   2.645 -0.3698 -0.4437  0.0541
   10CHTO  H221 3865   4.695   7.050   2.706 -2.6081  0.6742  2.1991
   10CHTO   N20 3866   4.586   7.116   2.547  0.4713  0.3735 -0.3462
   10CHTO  H209 3867   4.651   7.131   2.461  1.8349  0.5284  0.6899
   10CHTO  H210 3868   4.573   7.206   2.605 -0.0506 -0.2604  0.5233
   10CHTO   O80 3869   4.412   7.083   2.804  0.1695  0.2462 -0.0150
   10CHTO  C103 3870   4.269   7.053   2.894  0.7826 -0.4981  0.0624
   10CHTO  H190 3871   4.227   7.153   2.904  1.0969 -0.4212  0.6227
   10CHTO  C101 3872   4.170   6.951   2.817  0.0087 -0.0403 -0.0934
   10CHTO  H188 3873   4.206   6.848   2.812 -0.9353 -0.4477  0.9627
   10CHTO   O68 3874   4.145   6.984   2.665 -0.0098 -0.9359 -0.4883
   10CHTO  H168 3875   4.228   6.993   2.623 -0.7777 -0.4920 -1.9529
   10CHTO   C99 3876   4.032   6.947   2.900  0.7875 -0.0957  0.0221
   10CHTO  H186 3877   3.993   7.051   2.907  0.7939 -0.1457  0.8384
   10CHTO   N17 3878   3.919   6.860   2.847  0.2752  0.2139  0.0243
   10CHTO  H174 3879   3.950   6.763   2.884  0.9808 -1.6030 -4.9133
   10CHTO  H175 3880   3.927   6.850   2.740  2.1391  2.9641 -0.1558
   10CHTO   C97 3881   4.071   6.906   3.045 -0.3810  0.0391 -0.7395
   10CHTO  H184 3882   4.105   6.802   3.049  0.2599  0.3040  1.2534
   10CHTO   O64 3883   4.167   6.994   3.103  0.6349  0.5200  0.0850
   10CHTO  C104 3884   4.292   6.992   3.033 -0.3460  0.2324  0.1572
   10CHTO  H191 3885   4.323   6.888   3.028 -0.5171  0.2345 -1.2166
   10CHTO  C108 3886   4.403   7.069   3.117  0.3835  0.2231 -0.3310
   10CHTO   O71 3887   4.361   7.205   3.152 -0.1440 -0.1882  0.1848
   10CHTO  H171 3888   4.415   7.267   3.107 -1.6191  0.4698 -0.7448
   10CHTO   O62 3889   3.964   6.929   3.136  0.7475  0.3471  0.1553
   10CHTO   C91 3890   3.902   6.826   3.213 -0.1507 -0.0047  0.1964
   10CHTO  H178 3891   3.863   6.749   3.146 -0.9890 -0.7698  1.5499
   10CHTO   C92 3892   3.769   6.898   3.268 -0.0685 -0.7011  0.7601
   10CHTO  H179 3893   3.804   6.998   3.298 -0.5647 -0.5381  0.7979
   10CHTO   O66 3894   3.678   6.914   3.157 -0.5528  0.1172  0.0059
   10CHTO  H166 3895   3.595   6.946   3.185 -0.5234  0.6717 -0.5377
   10CHTO   C93 3896   3.687   6.821   3.380  0.3515  0.0278 -0.7095
   10CHTO  H180 3897   3.624   6.747   3.328 -1.0543 -0.7355  1.9750
   10CHTO   N16 3898   3.593   6.902   3.460  0.0495  0.0188  0.1119
   10CHTO  H172 3899   3.550   6.976   3.393 -2.8207 -0.7674  1.0257
   10CHTO  H173 3900   3.520   6.848   3.518 -0.1969 -0.7124 -0.8536
   10CHTO   C94 3901   3.779   6.742   3.482  0.4313  0.0892  0.3302
   10CHTO  H181 3902   3.833   6.804   3.553  1.1663 -0.8553  0.6032
   10CHTO   O61 3903   3.888   6.688   3.411 -0.0641 -0.2265  1.0240
   10CHTO   C95 3904   3.975   6.773   3.338  0.0975 -0.2827 -0.2277
   10CHTO  H182 3905   4.002   6.858   3.402 -1.7436 -0.0675  0.2751
   10CHTO  C106 3906   4.103   6.684   3.316 -0.3410  0.0663 -0.2117
   10CHTO   O69 3907   4.205   6.768   3.272 -0.2074  0.1214 -0.4701
   10CHTO  H169 3908   4.286   6.729   3.298  0.6586  2.3376  0.2501
   10CHTO   O63 3909   3.702   6.608   3.554 -0.1829 -0.6214  0.1914
   10CHTO   C96 3910   3.749   6.580   3.693  0.7189 -0.3846 -0.3719
   10CHTO  H183 3911   3.788   6.673   3.735  3.2590 -0.8785 -1.5959
   10CHTO   C98 3912   3.857   6.481   3.720  0.6878  0.0838 -0.1524
   10CHTO  H185 3913   3.823   6.389   3.672  0.9005 -0.0403 -0.0665
   10CHTO   O67 3914   3.966   6.530   3.647  0.3063 -0.1727 -0.0122
   10CHTO  H167 3915   3.949   6.572   3.564 -1.0786 -1.4115 -0.3726
   10CHTO  C102 3916   3.890   6.449   3.876 -0.0450  0.4443  0.6045
   10CHTO  H189 3917   3.941   6.538   3.916  0.5226  0.3463  0.1129
   10CHTO   N18 3918   3.984   6.333   3.891 -0.3961 -0.4895  0.0069
   10CHTO  H176 3919   3.929   6.244   3.863 -2.4930  0.9943 -0.6926
   10CHTO  H177 3920   4.068   6.338   3.824 -2.5970  0.8037 -2.7798
   10CHTO  C105 3921   3.758   6.434   3.956 -0.3434  0.3515 -0.9938
   10CHTO  H192 3922   3.722   6.331   3.948  0.5302 -0.1140  0.8253
   10CHTO   O65 3923   3.656   6.527   3.920 -0.1519 -0.5450 -0.0732
   10CHTO  C100 3924   3.625   6.526   3.779 -0.3987 -0.0208 -0.2414
   10CHTO  H187 3925   3.588   6.428   3.748  0.6677 -0.0935 -1.3203
   10CHTO  C107 3926   3.500   6.616   3.752  0.4321 -0.1820 -0.2468
   10CHTO   O70 3927   3.385   6.568   3.825  0.2623 -0.5407  0.2542
   10CHTO  H170 3928   3.307   6.616   3.807 -0.0154 -0.3933  1.8043
   10CHTO   O57 3929   3.820   6.456   4.116  0.5234 -0.6935 -0.8657
   10CHTO   C85 3930   3.721   6.427   4.221  0.3949  0.4546 -0.3719
   10CHTO  H157 3931   3.638   6.378   4.166  0.1100  1.8624 -1.2115
   10CHTO   C83 3932   3.666   6.556   4.276  0.6963 -0.0758  0.6658
   10CHTO  H155 3933   3.618   6.608   4.194  0.6505 -0.3921  0.4891
   10CHTO   O56 3934   3.775   6.644   4.311 -0.0439  0.3098  0.5903
   10CHTO  H135 3935   3.761   6.735   4.292 -0.2418  0.0452 -0.6383
   10CHTO   C81 3936   3.555   6.528   4.382 -0.4217 -0.4059 -0.0032
   10CHTO  H153 3937   3.486   6.461   4.331  2.4168 -2.3409 -1.4567
   10CHTO   N14 3938   3.479   6.653   4.407  0.1435 -0.3130  0.3852
   10CHTO  H141 3939   3.430   6.694   4.321 -0.5212  0.4691  1.1233
   10CHTO  H142 3940   3.402   6.632   4.479  2.2112 -0.9843  2.4828
   10CHTO   C79 3941   3.619   6.444   4.498  0.2158  0.3254  0.4997
   10CHTO  H151 3942   3.542   6.416   4.570  1.5309 -3.4862  0.5159
   10CHTO   O52 3943   3.675   6.313   4.443  0.0056 -0.2875 -0.2987
   10CHTO   C86 3944   3.777   6.337   4.342 -0.2770 -0.1079  1.1063
   10CHTO  H158 3945   3.861   6.391   4.391  0.6380 -0.1550 -0.3500
   10CHTO   C90 3946   3.836   6.204   4.283  0.2643 -0.1487 -0.4615
   10CHTO   O60 3947   3.934   6.154   4.378  0.8156 -0.2836  0.1788
   10CHTO  H138 3948   3.988   6.222   4.413  1.1504 -0.8267  0.7271
   10CHTO   O50 3949   3.729   6.515   4.561 -0.6146 -0.3505 -0.1011
   10CHTO   C73 3950   3.760   6.526   4.700 -0.4641  0.0040 -0.5538
   10CHTO  H145 3951   3.703   6.454   4.759 -0.8289  1.0969  0.4595
   10CHTO   C74 3952   3.713   6.654   4.763 -0.0848  0.8967  0.6239
   10CHTO  H146 3953   3.608   6.664   4.730  0.7805  0.7590 -2.2928
   10CHTO   O54 3954   3.711   6.644   4.902 -0.5575  0.9586 -1.0340
   10CHTO  H133 3955   3.683   6.558   4.926  0.5957  0.7054 -0.5801
   10CHTO   C75 3956   3.799   6.775   4.712 -0.6549  0.0716 -0.2155
   10CHTO  H147 3957   3.785   6.779   4.603 -1.6679 -1.5607 -0.1679
   10CHTO   N13 3958   3.752   6.906   4.755  0.2375 -0.8430 -0.2344
   10CHTO  H139 3959   3.653   6.913   4.798  0.8647  0.8187  0.9872
   10CHTO  H140 3960   3.826   6.970   4.801 -0.0490 -0.4525 -0.3168
   10CHTO   C76 3961   3.956   6.745   4.746  0.1535 -0.4851 -0.2791
   10CHTO  H148 3962   3.967   6.736   4.854 -1.3218 -1.0398 -0.1731
   10CHTO   O49 3963   3.999   6.620   4.689  0.9835 -0.6373 -0.6427
   10CHTO   C77 3964   3.918   6.509   4.732  0.5708 -0.4591 -0.0014
   10CHTO  H149 3965   3.933   6.514   4.840  0.3141 -0.0395  0.0161
   10CHTO   C88 3966   3.982   6.380   4.679  0.4500 -0.0879 -0.3775
   10CHTO   O58 3967   4.150   6.378   4.695  0.3226 -0.4769  0.3390
   10CHTO  H136 3968   4.184   6.301   4.654 -0.5930 -1.1517  0.8245
   10CHTO   O51 3969   4.040   6.869   4.689 -0.4437 -0.1201  0.1735
   10CHTO   C78 3970   4.196   6.843   4.693 -0.1403  0.3268  0.9820
   10CHTO  H150 3971   4.214   6.755   4.627 -0.1610  0.1092  1.2623
   10CHTO   C80 3972   4.255   6.812   4.834  0.1894 -0.2684 -0.2118
   10CHTO  H152 3973   4.187   6.847   4.914 -0.1179 -1.0343 -0.1284
   10CHTO   O55 3974   4.238   6.670   4.848 -0.2240 -0.4156 -0.3682
   10CHTO  H134 3975   4.312   6.625   4.812  0.0658 -0.5801  0.4348
   10CHTO   C84 3976   4.404   6.847   4.857  0.0027  0.6783  0.1824
   10CHTO  H156 3977   4.467   6.769   4.814  0.4314  0.5349  1.0686
   10CHTO   N15 3978   4.434   6.835   5.002 -0.3524  0.5502 -0.1407
   10CHTO  H143 3979   4.418   6.741   5.049  1.9380  0.9606  1.5778
   10CHTO  H144 3980   4.400   6.913   5.067 -0.9075 -0.1708  0.4279
   10CHTO   C87 3981   4.434   6.989   4.800  0.7269  0.0476 -0.0746
   10CHTO  H159 3982   4.362   7.056   4.848  1.9860  1.1980  0.2537
   10CHTO   O53 3983   4.403   6.978   4.656 -0.7030  0.0747  0.0069
   10CHTO   C82 3984   4.257   6.971   4.631  0.3208 -0.1249  0.2330
   10CHTO  H154 3985   4.208   7.056   4.678  1.7265  0.3843  0.8215
   10CHTO   C89 3986   4.235   6.990   4.477 -0.4302  0.0724 -0.6872
   10CHTO   O59 3987   4.270   7.117   4.430  0.4074  0.6698  0.0014
   10CHTO  H137 3988   4.218   7.191   4.452  0.6894  0.0039  3.1314
   10CHTO   O45 3989   4.580   7.039   4.835 -0.5759  0.1420  0.3932
   10CHTO   C67 3990   4.605   7.179   4.822 -0.4675 -0.1453  0.1691
   10CHTO  H124 3991   4.561   7.210   4.727 -0.3122  2.9612  1.0740
   10CHTO   C65 3992   4.546   7.262   4.940  0.3174  1.3259  0.4276
   10CHTO  H122 3993   4.529   7.186   5.017 -0.9371 -0.9081 -1.9682
   10CHTO   O44 3994   4.410   7.307   4.908 -0.4886 -0.2087  0.3181
   10CHTO  H102 3995   4.371   7.341   4.986  1.5245  0.3599  1.1038
   10CHTO   C63 3996   4.643   7.372   4.995 -0.4342  0.2049  0.5601
   10CHTO  H120 3997   4.724   7.323   5.049  1.2819  2.1158 -0.2265
   10CHTO   N11 3998   4.591   7.466   5.092 -0.3847 -0.2338 -0.3642
   10CHTO  H108 3999   4.673   7.531   5.112  0.2212 -1.1641  0.2424
   10CHTO  H109 4000   4.504   7.509   5.047 -0.7256  2.3177  2.5402
   10CHTO   C61 4001   4.723   7.442   4.871  1.2389  0.6825 -0.3939
   10CHTO  H118 4002   4.799   7.510   4.913  0.0760  0.1656  2.6444
   10CHTO   O40 4003   4.797   7.340   4.793  0.8023 -0.8971 -0.2909
   10CHTO   C68 4004   4.763   7.200   4.806  0.2110 -0.4940 -0.6358
   10CHTO  H125 4005   4.805   7.166   4.903 -0.1595 -0.2577 -0.3908
   10CHTO   C72 4006   4.837   7.117   4.694 -0.4487 -0.1582  0.1599
   10CHTO   O48 4007   4.811   7.170   4.562  0.3114  1.0166 -0.0007
   10CHTO  H105 4008   4.873   7.233   4.532  0.5864  0.9299  0.3902
   10CHTO   O38 4009   4.629   7.514   4.785 -0.2210 -0.6618  0.0176
   10CHTO   C55 4010   4.682   7.622   4.705 -0.0673 -0.8253 -0.8883
   10CHTO  H112 4011   4.590   7.635   4.647 -0.8754 -1.3764  0.2475
   10CHTO   C56 4012   4.809   7.592   4.613 -0.0547 -0.0549  0.2683
   10CHTO  H113 4013   4.897   7.561   4.672  0.0945 -3.4853 -1.5935
   10CHTO   O42 4014   4.780   7.477   4.530 -0.0343 -0.4831  0.5033
   10CHTO  H100 4015   4.811   7.399   4.572 -0.4889 -0.4935  0.8284
   10CHTO   C57 4016   4.847   7.718   4.531  0.0012 -0.0944 -0.4842
   10CHTO  H114 4017   4.761   7.735   4.466  0.4097 -1.2265 -1.3492
   10CHTO   N10 4018   4.969   7.704   4.450  0.0248  0.0317 -0.6388
   10CHTO  H106 4019   4.961   7.614   4.391 -1.3706  0.8339 -1.7009
   10CHTO  H107 4020   4.982   7.788   4.383  1.1247 -0.9120 -1.6190
   10CHTO   C58 4021   4.862   7.839   4.634 -0.2352 -0.6323  0.2564
   10CHTO  H115 4022   4.936   7.814   4.713  0.0755  1.3903  0.6314
   10CHTO   O37 4023   4.738   7.857   4.693  1.1413  0.0363 -0.0937
   10CHTO   C59 4024   4.711   7.757   4.791 -0.5748 -0.2949 -0.4530
   10CHTO  H116 4025   4.797   7.740   4.857  0.5682 -0.3168 -1.9177
   10CHTO   C70 4026   4.589   7.796   4.868 -0.7084  0.5355 -0.0224
   10CHTO   O46 4027   4.600   7.935   4.921  0.5406  0.6433 -0.3391
   10CHTO  H103 4028   4.677   7.948   4.974  0.6484  1.1785 -0.6296
   10CHTO   O39 4029   4.896   7.975   4.567 -0.1247 -0.0979 -0.2074
   10CHTO   C60 4030   4.980   8.066   4.645 -0.6134 -0.4573 -0.0468
   10CHTO  H117 4031   4.964   8.050   4.752 -0.5796  0.2905  0.0731
   10CHTO   C62 4032   5.131   8.030   4.631  0.3588 -0.1025 -0.0425
   10CHTO  H119 4033   5.139   7.930   4.678 -3.0724 -0.3606  0.1169
   10CHTO   O43 4034   5.166   8.018   4.491 -0.1161  0.2450  0.0639
   10CHTO  H101 4035   5.236   8.074   4.466  0.2340  0.1439  0.8199
   10CHTO   C66 4036   5.219   8.138   4.709  0.3647 -0.2631  0.8816
   10CHTO  H123 4037   5.207   8.119   4.816 -0.1442 -3.8371  0.2349
   10CHTO   N12 4038   5.365   8.112   4.693 -0.2038  0.1739 -0.0499
   10CHTO  H110 4039   5.412   8.182   4.626  0.3558 -1.2349 -1.1262
   10CHTO  H111 4040   5.417   8.124   4.787  0.2881  1.3218 -0.4579
   10CHTO   C69 4041   5.176   8.284   4.675  0.1494 -0.2609 -0.5320
   10CHTO  H126 4042   5.206   8.297   4.569 -1.0845 -1.6948 -1.0743
   10CHTO   O41 4043   5.032   8.295   4.704  0.2468 -0.1027  0.5657
   10CHTO   C64 4044   4.952   8.216   4.617 -0.3869 -0.3124 -0.6569
   10CHTO  H121 4045   4.965   8.242   4.510 -1.2456  0.6661 -0.5332
   10CHTO   C71 4046   4.809   8.239   4.644 -0.1983  0.1578  0.5846
   10CHTO   O47 4047   4.788   8.382   4.631  1.4162 -0.2860 -0.5417
   10CHTO  H104 4048   4.819   8.429   4.707  0.7523 -0.7232  0.0087
   10CHTO   O34 4049   5.252   8.389   4.762  0.1925 -0.4119 -0.3950
   10CHTO   C49 4050   5.270   8.563   4.790  0.1512  0.3927 -0.4735
   10CHTO   H91 4051   5.314   8.565   4.890 -2.0890 -0.4621  0.5678
   10CHTO   C47 4052   5.132   8.627   4.787 -0.3475 -0.0346  0.5705
   10CHTO   H89 4053   5.147   8.720   4.846 -0.9318 -0.8057  1.9694
   10CHTO   O33 4054   5.040   8.544   4.864 -0.1772 -0.4494  0.8226
   10CHTO   H70 4055   5.073   8.541   4.952  1.8289  0.9145  0.1410
   10CHTO   C45 4056   5.072   8.648   4.634 -0.3352 -0.3343  0.5760
   10CHTO   H87 4057   5.054   8.546   4.596  0.2186 -0.3598  0.3805
   10CHTO    N8 4058   4.941   8.716   4.632 -0.0422 -0.0738 -0.1615
   10CHTO   H75 4059   4.863   8.645   4.656  0.4867 -0.0713  1.5923
   10CHTO   H76 4060   4.916   8.777   4.546  0.4703  0.7903  0.3084
   10CHTO   C43 4061   5.183   8.721   4.540  0.1444  0.4359 -0.1532
   10CHTO   H85 4062   5.135   8.703   4.444  1.2427  0.1598 -0.6586
   10CHTO   O29 4063   5.311   8.657   4.553  0.2180  0.6324 -0.0914
   10CHTO   C50 4064   5.359   8.635   4.680  0.1435 -0.4068  0.3595
   10CHTO   H92 4065   5.443   8.566   4.665  2.1631  1.4307  2.7609
   10CHTO   C54 4066   5.431   8.754   4.748  0.2334 -0.2725 -0.5063
   10CHTO   O36 4067   5.528   8.721   4.847  0.7435  0.1693 -0.2385
   10CHTO   H72 4068   5.560   8.791   4.899 -1.8831  1.1807  0.0925
   10CHTO   O27 4069   5.191   8.864   4.558  0.1702  0.2943 -0.5181
   10CHTO   C37 4070   5.199   8.987   4.481  0.2150 -0.3656 -0.0512
   10CHTO   H79 4071   5.305   8.992   4.452  0.1485 -0.4377 -0.3156
   10CHTO   C38 4072   5.109   8.985   4.352  0.3541 -0.6849  0.2219
   10CHTO   H80 4073   5.005   8.961   4.380  0.9388 -0.5814  2.6504
   10CHTO   O31 4074   5.172   8.877   4.277 -0.0222  0.3111  0.2228
   10CHTO   H68 4075   5.119   8.800   4.280 -1.0487  1.0480  1.5498
   10CHTO   C39 4076   5.127   9.125   4.270 -0.3473  0.4593 -0.2991
   10CHTO   H81 4077   5.230   9.135   4.237  0.0297 -0.8368  0.4240
   10CHTO    N7 4078   5.047   9.127   4.142 -0.2013  0.6687 -1.0169
   10CHTO   H73 4079   5.053   9.028   4.098  1.6189  0.3917 -0.1962
   10CHTO   H74 4080   4.943   9.144   4.165 -0.4835  1.2431 -2.6066
   10CHTO   C40 4081   5.093   9.241   4.371 -0.1891 -0.2386  0.3158
   10CHTO   H82 4082   4.988   9.232   4.399 -0.5382  3.9059  0.6476
   10CHTO   O26 4083   5.174   9.229   4.486 -0.0523  0.0939  0.5728
   10CHTO   C41 4084   5.172   9.107   4.570 -0.1176 -0.5257 -0.1049
   10CHTO   H83 4085   5.078   9.087   4.623  1.5495 -2.0598  2.4150
   10CHTO   C52 4086   5.277   9.123   4.679 -0.4147 -0.3727  0.1456
   10CHTO   O35 4087   5.226   9.204   4.773 -0.5727 -0.1035 -0.0802
   10CHTO   H71 4088   5.301   9.240   4.815  0.0695  0.0625 -1.3689
   10CHTO   O28 4089   5.118   9.362   4.300 -0.1690  0.9792  0.2678
   10CHTO   C42 4090   5.022   9.471   4.319  0.0772 -0.1106 -0.0886
   10CHTO   H84 4091   4.948   9.453   4.397 -1.2160  1.1201 -0.9933
   10CHTO   C44 4092   4.939   9.513   4.193 -0.3527  0.7393  0.6552
   10CHTO   H86 4093   5.005   9.536   4.110 -1.5993  0.7824 -0.3315
   10CHTO   O32 4094   4.863   9.399   4.154 -0.5798  0.0767 -0.1324
   10CHTO   H69 4095   4.804   9.390   4.226 -0.9639 -0.2308 -0.4854
   10CHTO   C48 4096   4.844   9.639   4.215 -1.1615  0.4503  0.4035
   10CHTO   H90 4097   4.776   9.599   4.290  0.7020 -2.5496  0.5782
   10CHTO    N9 4098   4.761   9.686   4.102 -0.1051 -0.3208  0.2990
   10CHTO   H77 4099   4.690   9.758   4.141  0.3474  0.7277 -0.7861
   10CHTO   H78 4100   4.709   9.604   4.056 -2.5021  0.9517  0.6477
   10CHTO   C51 4101   4.931   9.750   4.281 -0.6004 -0.3610  0.3461
   10CHTO   H93 4102   4.996   9.783   4.200 -0.6247  3.3109  1.7173
   10CHTO   O30 4103   5.005   9.711   4.398  0.0331 -0.4911 -0.4091
   10CHTO   C46 4104   5.097   9.600   4.362 -0.8671 -0.7659 -0.3828
   10CHTO   H88 4105   5.164   9.644   4.288 -0.3619 -0.3792  0.2903
   10CHTO   C53 4106   5.191   9.572   4.491 -0.2905  0.1162 -0.1418
   10CHTO   O72 4107   5.286   9.672   4.521  0.2385 -0.2800  0.0959
   10CHTO  H199 4108   5.311   9.683   4.611  3.9594  0.3900 -0.9136
   10CHTO   O22 4109   4.845   9.854   4.330  0.4590  0.2834  0.1661
   10CHTO   C31 4110   4.877   9.997   4.364  0.4136 -0.5110 -0.0616
   10CHTO   H59 4111   4.782  10.044   4.398  1.5319 -0.6131  3.4079
   10CHTO   C29 4112   4.971  10.005   4.485 -0.3353 -0.2888 -0.5844
   10CHTO   H57 4113   5.065   9.952   4.463 -0.3478 -0.4099 -0.3449
   10CHTO   O21 4114   4.914   9.941   4.602 -0.2087 -0.1528 -0.8379
   10CHTO   H37 4115   4.947   9.856   4.624  0.7514  0.5453  0.5036
   10CHTO   C27 4116   5.009  10.159   4.519 -0.1121  0.9708 -0.1662
   10CHTO   H55 4117   4.913  10.209   4.539 -0.9099 -0.7000  0.2966
   10CHTO    N5 4118   5.104  10.181   4.633  0.1130 -0.1978 -0.5073
   10CHTO   H43 4119   5.056  10.125   4.712 -0.8536 -1.5361 -1.9990
   10CHTO   H44 4120   5.096  10.285   4.660 -2.5429  0.2827 -2.9044
   10CHTO   C25 4121   5.070  10.223   4.386  0.7936 -0.3761 -0.0354
   10CHTO   H53 4122   5.155  10.165   4.349  1.2854  1.0964 -1.2180
   10CHTO   O17 4123   4.965  10.215   4.284  0.4945  0.2401  0.4917
   10CHTO   C32 4124   4.932  10.079   4.251 -0.6990  0.4524 -0.3764
   10CHTO   H60 4125   5.027  10.041   4.215 -0.6796 -0.0792  0.2318
   10CHTO   C36 4126   4.836  10.074   4.135 -0.2857  0.4215 -0.7873
   10CHTO   O25 4127   4.868  10.154   4.024  0.0797  0.4950 -0.0063
   10CHTO   H40 4128   4.843  10.244   4.033 -1.1624 -0.0139  2.0445
   10CHTO   O15 4129   5.095  10.387   4.401  0.0297  0.2712 -0.3689
   10CHTO   C19 4130   5.132  10.488   4.305  0.4484  0.4904  0.2344
   10CHTO   H47 4131   5.072  10.464   4.216  1.9447  1.3954 -1.0428
   10CHTO   C20 4132   5.114  10.635   4.353  0.8331 -0.3185  0.5267
   10CHTO   H48 4133   5.164  10.654   4.449  3.8225 -1.9167 -0.6248
   10CHTO   O19 4134   4.973  10.662   4.388 -0.7777 -0.1965 -0.7768
   10CHTO   H35 4135   4.916  10.637   4.318 -0.6904  2.0431 -1.6718
   10CHTO   C21 4136   5.164  10.743   4.244 -0.3216  0.5960  0.4327
   10CHTO   H49 4137   5.095  10.734   4.160  0.5237  1.1693 -0.3346
   10CHTO    N4 4138   5.158  10.883   4.285 -1.3253 -0.0682 -0.5074
   10CHTO   H41 4139   5.054  10.912   4.291 -0.8239  1.5558  0.9621
   10CHTO   H42 4140   5.203  10.946   4.210  0.4809 -0.0466  0.5508
   10CHTO   C22 4141   5.305  10.700   4.200 -0.2518 -0.1215 -0.6219
   10CHTO   H50 4142   5.379  10.708   4.280  0.3056  2.9317 -1.4110
   10CHTO   O14 4143   5.303  10.563   4.157 -0.2713  0.1987  0.1411
   10CHTO   C23 4144   5.281  10.473   4.265  0.5895  0.0901  0.5078
   10CHTO   H51 4145   5.349  10.504   4.346 -0.4633  0.0361  1.4350
   10CHTO   C34 4146   5.312  10.331   4.218 -0.5653 -0.3232  0.2785
   10CHTO   O23 4147   5.444  10.323   4.155  0.2110 -0.1945 -0.1323
   10CHTO   H38 4148   5.435  10.341   4.063 -0.4649 -0.6288 -0.1515
   10CHTO   O16 4149   5.341  10.762   4.077  0.3153  0.4716 -0.6756
   10CHTO   C24 4150   5.508  10.817   4.058  0.1620 -0.3042 -0.4546
   10CHTO   H52 4151   5.569  10.782   4.141  0.8048 -2.7250 -1.9111
   10CHTO   C26 4152   5.506  10.972   4.059 -0.4925  0.0876  0.2390
   10CHTO   H54 4153   5.424  11.008   3.994 -0.4894 -2.1464 -1.0443
   10CHTO   O20 4154   5.460  11.016   4.186  0.2695 -0.2255  0.3500
   10CHTO   H36 4155   5.490  11.102   4.206 -1.7665  0.8662 -1.1117
   10CHTO   C30 4156   5.647  11.032   4.023  0.8620 -0.2271 -0.1079
   10CHTO   H58 4157   5.721  11.009   4.100  0.6966  1.4854  0.5771
   10CHTO    N6 4158   5.652  11.180   4.015 -0.1945  0.6275  0.2566
   10CHTO   H45 4159   5.561  11.226   4.051 -0.7953  0.4677 -1.0192
   10CHTO   H46 4160   5.676  11.220   3.918  0.0782 -1.2449 -0.4810
   10CHTO   C33 4161   5.712  10.969   3.896 -0.1785 -0.0627  0.3748
   10CHTO   H61 4162   5.656  10.992   3.804  0.5348 -0.4349 -0.1549
   10CHTO   O18 4163   5.710  10.827   3.917 -0.0134  0.0136  0.0665
   10CHTO   C28 4164   5.577  10.771   3.931 -0.5678  0.7395  0.0020
   10CHTO   H56 4165   5.511  10.793   3.847 -0.4856 -1.8505 -0.7910
   10CHTO   C35 4166   5.574  10.614   3.941 -0.0606  0.6314 -0.0378
   10CHTO   O24 4167   5.641  10.567   4.054  0.4882 -0.5880 -0.0871
   10CHTO   H39 4168   5.612  10.613   4.131 -0.2547  0.6952 -1.1095
   10CHTO    O9 4169   5.847  11.013   3.871 -0.7418  0.3502  0.1454
   10CHTO   C13 4170   5.893  10.979   3.712  0.2650 -0.6072  1.1043
   10CHTO   H26 4171   5.824  11.032   3.643  0.8286 -2.0891 -0.6616
   10CHTO   C11 4172   5.903  10.827   3.666 -0.2267  0.5321  0.1965
   10CHTO   H24 4173   5.809  10.772   3.651  0.3602 -0.3644 -0.2055
   10CHTO    O8 4174   5.978  10.757   3.768 -0.0738 -0.0294  0.5170
   10CHTO    H3 4175   5.958  10.666   3.774 -0.0189 -0.2001 -1.3819
   10CHTO    C9 4176   5.979  10.823   3.527  0.2842 -0.0616  0.0899
   10CHTO   H22 4177   5.929  10.898   3.464 -1.0805 -0.5427  0.5601
   10CHTO    N2 4178   5.966  10.688   3.458 -0.2158  0.1157 -0.2399
   10CHTO   H10 4179   6.063  10.642   3.460  0.1543  0.9142  0.3353
   10CHTO   H11 4180   5.895  10.625   3.510  0.6343  0.5299  1.4436
   10CHTO    C7 4181   6.131  10.873   3.564  0.2045 -0.5652  0.0996
   10CHTO   H20 4182   6.158  10.913   3.464  0.0585 -3.1596 -0.9988
   10CHTO    O4 4183   6.149  10.965   3.672  0.2297 -0.1344  0.1744
   10CHTO   C14 4184   6.035  11.053   3.684  0.5210 -0.0212  0.8781
   10CHTO   H27 4185   6.022  11.104   3.586  0.7124 -0.7856  0.4490
   10CHTO   C18 4186   6.067  11.162   3.782 -0.4377  0.7686 -0.3466
   10CHTO   O13 4187   5.966  11.261   3.782 -0.1058 -0.3128  0.2925
   10CHTO    H7 4188   5.998  11.350   3.779 -0.9547 -0.0365 -0.9875
   10CHTO    O2 4189   6.210  10.748   3.596  0.3140 -0.7829  0.5080
   10CHTO    C1 4190   6.357  10.737   3.602  0.4590  0.5394  0.4803
   10CHTO   H14 4191   6.393  10.825   3.659  4.9914  0.5533 -2.1815
   10CHTO    C2 4192   6.434  10.736   3.461 -0.4068  0.0440 -0.1147
   10CHTO   H15 4193   6.395  10.650   3.404  1.5315 -0.9992  0.0564
   10CHTO    O6 4194   6.402  10.855   3.390  0.4594  0.5542 -0.1759
   10CHTO    H1 4195   6.424  10.847   3.299  0.2935 -1.8060 -0.0433
   10CHTO    C3 4196   6.595  10.729   3.485  0.2853 -0.1829 -0.3613
   10CHTO   H16 4197   6.628  10.824   3.530 -0.6610  0.6396 -1.3792
   10CHTO    N1 4198   6.676  10.711   3.361 -0.2565 -0.4197 -0.3109
   10CHTO    H8 4199   6.779  10.689   3.386 -1.2861 -0.4518  4.2375
   10CHTO    H9 4200   6.671  10.794   3.292 -1.8000 -1.7140 -1.8142
   10CHTO    C4 4201   6.619  10.614   3.590  0.2342  0.2108 -0.1342
   10CHTO   H17 4202   6.603  10.522   3.534  0.2462  0.9754 -1.4089
   10CHTO    O1 4203   6.531  10.616   3.698 -0.7472  0.0203 -0.0643
   10CHTO    C5 4204   6.394  10.610   3.676 -0.3273 -0.5363  0.4425
   10CHTO   H18 4205   6.361  10.526   3.615  0.4650 -0.6587  0.1840
   10CHTO   C16 4206   6.330  10.599   3.818 -0.2321 -0.1419  0.2189
   10CHTO   O11 4207   6.342  10.464   3.862 -0.0098  0.3822  0.0871
   10CHTO    H5 4208   6.273  10.434   3.919 -1.9047  1.1266 -1.7568
   10CHTO    O3 4209   6.748  10.616   3.650 -0.2264 -0.0288 -0.2363
   10CHTO    C6 4210   6.801  10.479   3.683  0.6491  0.7196  0.3294
   10CHTO   H19 4211   6.733  10.396   3.662  1.1677  0.2599  0.4615
   10CHTO    C8 4212   6.920  10.444   3.581  0.0540 -0.7047  0.1899
   10CHTO   H21 4213   7.003  10.513   3.600 -0.4996  0.3537 -1.1270
   10CHTO    O7 4214   6.882  10.459   3.441 -0.2765 -0.2341 -0.8839
   10CHTO    H2 4215   6.962  10.477   3.395  1.5804 -0.3082  2.0959
   10CHTO   C12 4216   6.983  10.308   3.620 -0.6030 -0.3194 -0.0321
   10CHTO   H25 4217   6.905  10.239   3.580 -0.4901 -0.4991  0.0556
   10CHTO    N3 4218   7.108  10.276   3.547  0.3618 -0.0273  0.1071
   10CHTO   H12 4219   7.085  10.187   3.491  3.5726 -0.2675 -0.9423
   10CHTO   H13 4220   7.139  10.356   3.481 -2.0367  0.4167 -0.5248
   10CHTO   C15 4221   6.991  10.281   3.780 -0.4005 -0.1612 -0.4233
   10CHTO   H28 4222   7.078  10.333   3.820 -0.2644 -0.7560  0.0708
   10CHTO   O10 4223   7.000  10.132   3.813 -0.5020 -0.4005  0.0326
   10CHTO    H4 4224   6.967  10.122   3.900  2.3523  1.5353  1.3954
   10CHTO    O5 4225   6.877  10.324   3.854 -0.2355  0.0731 -0.5350
   10CHTO   C10 4226   6.844  10.463   3.836  0.2597 -0.0098 -0.3991
   10CHTO   H23 4227   6.923  10.524   3.879  1.5275 -0.7721 -1.6224
   10CHTO   C17 4228   6.717  10.486   3.921  0.3914 -0.4223 -0.2812
   10CHTO   O12 4229   6.744  10.472   4.058 -0.1178 -0.0999  0.4018
   10CHTO    H6 4230   6.670  10.507   4.104 -1.0665 -2.1719  0.5229
   11CHTO  H203 4231   7.661   4.969   0.082 -0.4990 -0.4749 -1.0459
   11CHTO   O82 4232   7.646   5.048   0.034  0.1844  0.2288 -0.1365
   11CHTO  C123 4233   7.698   5.168   0.091 -0.8199 -0.8226 -1.4288
   11CHTO  H227 4234   7.789   5.198   0.039  0.5487 -1.0122  0.7669
   11CHTO   O77 4235   7.591   5.270   0.062  0.0251 -0.4751 -0.0066
   11CHTO  C118 4236   7.631   5.404   0.104 -0.3423  0.1855  0.0338
   11CHTO  H222 4237   7.726   5.429   0.055 -1.1021 -0.0909 -1.6092
   11CHTO  C125 4238   7.519   5.511   0.065  0.5324  0.4988  0.7486
   11CHTO   O84 4239   7.521   5.541  -0.076  0.1186  0.0388  0.0243
   11CHTO  H205 4240   7.463   5.611  -0.100 -0.4874 -1.1108 -2.0128
   11CHTO  C114 4241   7.638   5.408   0.258  0.0615  0.1739  0.3362
   11CHTO  H218 4242   7.544   5.371   0.300 -1.6176  1.7223 -1.9447
   11CHTO  C116 4243   7.752   5.317   0.298  0.3956 -0.1295  0.6097
   11CHTO  H220 4244   7.838   5.355   0.238 -0.2983 -2.6501 -2.1060
   11CHTO   O79 4245   7.783   5.328   0.437  0.4201  0.1660 -0.3155
   11CHTO  H201 4246   7.847   5.391   0.463  0.6605 -0.0692 -0.3251
   11CHTO  C120 4247   7.717   5.171   0.249 -0.1171  0.6411  0.6685
   11CHTO  H224 4248   7.623   5.144   0.302 -0.7031  1.0340 -0.1565
   11CHTO   N21 4249   7.820   5.073   0.296 -0.4445 -0.0128 -0.3958
   11CHTO  H211 4250   7.911   5.080   0.237 -0.9500 -1.9028 -1.4418
   11CHTO  H212 4251   7.854   5.077   0.398 -0.9453 -1.5993 -0.1646
   11CHTO   O75 4252   7.657   5.541   0.295 -0.0130  0.2852 -0.4900
   11CHTO  C112 4253   7.567   5.580   0.424  0.0092 -0.2473  0.2379
   11CHTO  H216 4254   7.561   5.490   0.487  1.8330 -0.7335 -0.2570
   11CHTO   O73 4255   7.438   5.621   0.384 -0.3362 -0.4718  0.2747
   11CHTO  C113 4256   7.351   5.663   0.488 -0.2821  0.3756  0.4300
   11CHTO  H217 4257   7.364   5.586   0.567  0.1560  0.9019  0.8658
   11CHTO  C124 4258   7.205   5.658   0.436 -0.4625  0.3413  0.2192
   11CHTO   O83 4259   7.159   5.526   0.407  0.5234 -0.2019 -0.0183
   11CHTO  H204 4260   7.159   5.518   0.313 -0.7877 -1.5489  0.0664
   11CHTO  C109 4261   7.403   5.798   0.534  0.1095  0.5406 -0.0029
   11CHTO  H213 4262   7.412   5.864   0.446 -0.6194 -2.9578 -2.7879
   11CHTO  C110 4263   7.547   5.781   0.596  1.2263 -0.1837  0.1222
   11CHTO  H214 4264   7.533   5.734   0.693 -0.3549 -1.4995 -0.7048
   11CHTO   O78 4265   7.602   5.910   0.634 -0.3884  0.3208 -0.0407
   11CHTO  H200 4266   7.581   5.980   0.575 -0.5831  0.5515  0.3039
   11CHTO  C111 4267   7.639   5.702   0.506 -0.5751 -0.4591 -0.0148
   11CHTO  H215 4268   7.671   5.773   0.428  0.1179 -1.5968 -0.7723
   11CHTO   N19 4269   7.761   5.650   0.573 -0.1242  0.1488 -0.4411
   11CHTO  H207 4270   7.769   5.695   0.671  0.1151 -0.1491 -0.3240
   11CHTO  H208 4271   7.853   5.641   0.517  0.4544 -0.1828  0.5644
   11CHTO   O74 4272   7.307   5.866   0.621 -0.0874  0.3713 -0.1010
   11CHTO  C115 4273   7.252   6.015   0.551 -0.2030 -0.0703 -0.3653
   11CHTO  H219 4274   7.328   6.059   0.486 -0.9628  1.8856  0.0394
   11CHTO   O76 4275   7.121   5.991   0.455  0.2866  0.0662  0.1119
   11CHTO  C122 4276   7.007   5.993   0.532  1.0920 -0.5037 -0.3907
   11CHTO  H226 4277   7.021   5.925   0.616  0.9042  0.2674  0.2607
   11CHTO  C126 4278   6.889   5.943   0.449  0.2322 -0.0953 -0.1922
   11CHTO   O85 4279   6.761   5.946   0.507 -0.2019  0.4618 -0.0182
   11CHTO  H206 4280   6.770   5.932   0.599 -0.5690 -0.6455 -0.1486
   11CHTO  C121 4281   6.981   6.144   0.588  0.5025  0.8694  0.3756
   11CHTO  H225 4282   6.917   6.200   0.518 -0.1217 -1.0676 -0.6414
   11CHTO   O81 4283   6.920   6.132   0.717  0.0643  0.0171 -0.3993
   11CHTO  H202 4284   6.827   6.124   0.725 -0.0286  0.0174 -1.3994
   11CHTO  C119 4285   7.119   6.216   0.612  0.1242 -0.0278 -0.6438
   11CHTO  H223 4286   7.154   6.241   0.512  0.4226 -1.2337 -0.8566
   11CHTO  C117 4287   7.233   6.126   0.660  0.0300 -0.0401 -0.6128
   11CHTO  H221 4288   7.218   6.067   0.750 -1.1037  0.0359 -0.7427
   11CHTO   N20 4289   7.362   6.206   0.684  0.0546 -0.2750  0.1492
   11CHTO  H209 4290   7.394   6.182   0.785  1.8731 -0.1449 -0.3811
   11CHTO  H210 4291   7.437   6.190   0.608  0.6135  0.5615  0.5177
   11CHTO   O80 4292   7.092   6.377   0.687 -0.5008 -0.3914 -0.3786
   11CHTO  C103 4293   7.024   6.388   0.846  0.1149 -0.3303  0.2337
   11CHTO  H190 4294   6.980   6.294   0.879  1.7215 -0.9447  0.6656
   11CHTO  C101 4295   7.128   6.449   0.952 -0.6970 -0.6228 -0.2970
   11CHTO  H188 4296   7.191   6.522   0.902 -0.2311 -0.1118  1.0131
   11CHTO   O68 4297   7.234   6.316   0.995 -0.0784 -0.0210 -0.0323
   11CHTO  H168 4298   7.280   6.300   0.915  0.0855  1.0198 -0.1565
   11CHTO   C99 4299   7.054   6.504   1.085 -0.5222  0.2007  0.2382
   11CHTO  H186 4300   7.011   6.415   1.134  0.6501 -0.4895  0.0432
   11CHTO   N17 4301   7.149   6.566   1.179 -0.0658  0.1804 -0.0801
   11CHTO  H174 4302   7.201   6.653   1.141  0.8515 -0.0102  0.7114
   11CHTO  H175 4303   7.213   6.487   1.215 -0.3295 -0.1049 -0.2394
   11CHTO   C97 4304   6.941   6.592   1.052 -0.4111 -0.7963  0.2518
   11CHTO  H184 4305   6.981   6.685   1.007 -1.4485 -0.4950 -0.0642
   11CHTO   O64 4306   6.854   6.523   0.959 -0.4901  0.7568  0.5422
   11CHTO  C104 4307   6.906   6.484   0.831  0.1921 -0.4126 -0.5479
   11CHTO  H191 4308   6.943   6.572   0.779 -2.7253  0.8552 -0.5857
   11CHTO  C108 4309   6.802   6.433   0.741  0.2580 -0.1719  0.2925
   11CHTO   O71 4310   6.704   6.351   0.800  0.4538 -0.5667 -0.5582
   11CHTO  H171 4311   6.625   6.363   0.750  0.5916  1.4892 -0.3314
   11CHTO   O62 4312   6.860   6.619   1.161 -0.3883 -0.3175  0.3847
   11CHTO   C91 4313   6.743   6.713   1.151  0.3529  0.8461  0.4369
   11CHTO  H178 4314   6.713   6.728   1.047  2.8908 -0.8288 -0.5649
   11CHTO   C92 4315   6.794   6.850   1.193 -0.6406 -0.5033  0.0750
   11CHTO  H179 4316   6.899   6.853   1.161 -0.3417 -0.6236  1.0314
   11CHTO   O66 4317   6.720   6.954   1.134  0.0477  0.7168 -0.1019
   11CHTO  H166 4318   6.762   6.976   1.052  0.8089 -1.5888 -0.3510
   11CHTO   C93 4319   6.780   6.885   1.348 -0.4193  1.0286  0.9757
   11CHTO  H180 4320   6.802   6.992   1.361  1.5080  0.7575  0.1144
   11CHTO   N16 4321   6.879   6.823   1.442  0.5159  0.3158 -0.0502
   11CHTO  H172 4322   6.867   6.716   1.436 -1.3703  0.4777  0.6335
   11CHTO  H173 4323   6.878   6.857   1.544  2.3961  1.4573 -0.3726
   11CHTO   C94 4324   6.636   6.857   1.403 -0.2780 -1.0763 -0.6315
   11CHTO  H181 4325   6.636   6.804   1.498 -0.2012  0.5172  0.2665
   11CHTO   O61 4326   6.555   6.783   1.312  0.0923 -0.2091 -0.1503
   11CHTO   C95 4327   6.623   6.673   1.245 -0.0778 -0.2112 -0.2047
   11CHTO  H182 4328   6.665   6.612   1.325 -0.8786 -0.2502  0.1956
   11CHTO  C106 4329   6.516   6.583   1.164  0.9915 -0.1392  0.0857
   11CHTO   O69 4330   6.583   6.463   1.119 -0.5072 -0.2264 -0.3025
   11CHTO  H169 4331   6.649   6.488   1.056 -0.2802  1.5790  0.6222
   11CHTO   O63 4332   6.562   6.998   1.422 -0.0703 -0.1479  0.0369
   11CHTO   C96 4333   6.589   7.067   1.572 -0.6434  0.0581 -0.6599
   11CHTO  H183 4334   6.682   7.033   1.618 -1.2042  0.1715  0.5747
   11CHTO   C98 4335   6.474   7.055   1.683 -0.3625  0.2368  0.5739
   11CHTO  H185 4336   6.384   7.102   1.641  1.6804  2.3462 -1.5795
   11CHTO   O67 4337   6.440   6.914   1.709  0.0528  0.3417  0.4664
   11CHTO  H167 4338   6.378   6.890   1.643  0.3310 -0.3593  0.4578
   11CHTO  C102 4339   6.520   7.132   1.821 -0.3293  0.2186  0.5240
   11CHTO  H189 4340   6.603   7.072   1.860  0.1739  0.2137 -0.5521
   11CHTO   N18 4341   6.422   7.129   1.928 -0.3058 -0.0105 -0.5047
   11CHTO  H176 4342   6.324   7.152   1.889 -0.0900 -1.2679 -1.8244
   11CHTO  H177 4343   6.453   7.202   2.002 -2.1510  0.4460 -0.1658
   11CHTO  C105 4344   6.571   7.276   1.784 -0.4480  0.2947  0.3199
   11CHTO  H192 4345   6.486   7.341   1.762 -1.0073  0.5585  3.0566
   11CHTO   O65 4346   6.666   7.267   1.678 -0.2031 -0.4714 -0.3965
   11CHTO  C100 4347   6.623   7.222   1.553  0.0391  0.0545 -0.4126
   11CHTO  H187 4348   6.530   7.270   1.517  0.1760  1.2190  0.7430
   11CHTO  C107 4349   6.731   7.246   1.449  0.4206  0.3175 -0.7374
   11CHTO   O70 4350   6.753   7.388   1.432 -0.2564  0.1102  0.0709
   11CHTO  H170 4351   6.832   7.409   1.478 -0.5313  0.8186  0.2238
   11CHTO   O57 4352   6.651   7.343   1.921  0.0338 -0.1093 -0.3935
   11CHTO   C85 4353   6.715   7.471   1.900  0.1376 -0.2154  0.1442
   11CHTO  H157 4354   6.653   7.528   1.827 -1.8808 -0.9584  1.2327
   11CHTO   C83 4355   6.856   7.465   1.829 -0.2383  0.8090 -0.1305
   11CHTO  H155 4356   6.847   7.434   1.725  1.2558 -0.5614  0.1351
   11CHTO   O56 4357   6.931   7.353   1.884  0.2422 -0.2848  0.0959
   11CHTO  H135 4358   7.002   7.337   1.825 -0.7948 -3.6559 -0.3308
   11CHTO   C81 4359   6.932   7.599   1.837  0.6721  0.6343  0.3770
   11CHTO  H153 4360   6.869   7.673   1.787 -1.5623 -0.6290  1.2342
   11CHTO   N14 4361   7.052   7.613   1.748 -0.0204 -0.1819 -0.7656
   11CHTO  H141 4362   7.133   7.632   1.816 -0.5612  1.0527 -0.4528
   11CHTO  H142 4363   7.050   7.696   1.680 -0.9695  0.1151 -0.3835
   11CHTO   C79 4364   6.957   7.644   1.982  0.1654 -0.1634 -0.7554
   11CHTO  H151 4365   7.005   7.742   1.979 -1.3985  0.6304 -0.3726
   11CHTO   O52 4366   6.827   7.668   2.047 -0.3548  0.6506 -0.6403
   11CHTO   C86 4367   6.738   7.549   2.035 -0.7319 -0.2609 -0.5926
   11CHTO  H158 4368   6.783   7.480   2.109 -0.0929  0.8893  0.1084
   11CHTO   C90 4369   6.612   7.596   2.102 -0.1031 -0.2806 -0.0666
   11CHTO   O60 4370   6.520   7.490   2.131  0.1994 -0.2717 -0.0364
   11CHTO  H138 4371   6.524   7.416   2.072  0.0467 -1.4437  1.4006
   11CHTO   O50 4372   7.049   7.553   2.057 -0.6494  0.1872 -0.1385
   11CHTO   C73 4373   7.125   7.565   2.179  0.0617  0.3697 -0.2468
   11CHTO  H145 4374   7.055   7.539   2.260  3.6913 -1.5206  2.4126
   11CHTO   C74 4375   7.171   7.712   2.206  0.3412 -0.0558  0.6689
   11CHTO  H146 4376   7.082   7.776   2.201 -0.1651 -0.4103  3.9237
   11CHTO   O54 4377   7.212   7.715   2.342 -0.1167  0.2394 -0.3033
   11CHTO  H133 4378   7.207   7.799   2.383  2.8578  0.2495  0.1379
   11CHTO   C75 4379   7.283   7.754   2.098 -0.9224 -0.0891 -0.6737
   11CHTO  H147 4380   7.236   7.768   2.000  0.6865 -1.9481 -1.7408
   11CHTO   N13 4381   7.357   7.879   2.122 -1.0414  0.4297  0.2129
   11CHTO  H139 4382   7.414   7.897   2.212 -0.6978 -0.1539  0.1140
   11CHTO  H140 4383   7.425   7.914   2.046 -1.3062  0.3587 -0.0562
   11CHTO   C76 4384   7.396   7.630   2.082 -0.2431  0.9120 -0.1055
   11CHTO  H148 4385   7.458   7.634   2.172  1.3530  3.4128 -1.2804
   11CHTO   O49 4386   7.335   7.496   2.084 -0.5857  0.4762 -0.1905
   11CHTO   C77 4387   7.246   7.465   2.188 -0.7461 -0.1100 -0.0887
   11CHTO  H149 4388   7.297   7.482   2.283  0.2185  0.1540 -0.6461
   11CHTO   C88 4389   7.191   7.315   2.187  0.0002  0.0532 -0.3834
   11CHTO   O58 4390   7.308   7.216   2.164 -0.1254 -0.1268  0.1551
   11CHTO  H136 4391   7.391   7.242   2.199  0.7720  0.2691 -2.1730
   11CHTO   O51 4392   7.469   7.646   1.965  0.4334 -0.2086  0.5880
   11CHTO   C78 4393   7.591   7.547   1.940  0.1460  0.2858 -0.4114
   11CHTO  H150 4394   7.605   7.472   2.021 -0.9937 -0.8436 -1.2338
   11CHTO   C80 4395   7.713   7.629   1.916  0.4812 -0.3111  0.2463
   11CHTO  H152 4396   7.691   7.704   1.837  2.2070  1.1167  1.0907
   11CHTO   O55 4397   7.738   7.704   2.037 -0.2793  0.8957 -0.1770
   11CHTO  H134 4398   7.813   7.759   2.021  0.8858 -0.2300  1.2366
   11CHTO   C84 4399   7.840   7.542   1.878  0.3906  0.6949  0.1024
   11CHTO  H156 4400   7.853   7.471   1.959 -0.1658 -1.8826 -1.9611
   11CHTO   N15 4401   7.963   7.630   1.866  0.2554  0.2127  0.3179
   11CHTO  H143 4402   8.032   7.586   1.935  0.1996  0.4995  0.5540
   11CHTO  H144 4403   8.000   7.624   1.766 -2.1837  0.5231 -0.6119
   11CHTO   C87 4404   7.801   7.469   1.744  0.1768  0.5562  0.6224
   11CHTO  H159 4405   7.793   7.547   1.668 -1.5547 -0.7712 -0.5840
   11CHTO   O53 4406   7.674   7.399   1.765 -0.2049  0.4000 -0.1349
   11CHTO   C82 4407   7.562   7.472   1.806 -0.2954 -0.1893 -0.1380
   11CHTO  H154 4408   7.545   7.552   1.734 -3.0934  0.9126  1.6534
   11CHTO   C89 4409   7.440   7.379   1.806  0.2527  0.0348  0.1681
   11CHTO   O59 4410   7.323   7.457   1.802  0.0667  0.1622 -0.3200
   11CHTO  H137 4411   7.298   7.466   1.712  1.1704 -1.9551 -0.8672
   11CHTO   O45 4412   7.918   7.353   1.697 -0.7800  0.6182 -0.1398
   11CHTO   C67 4413   7.892   7.310   1.566  0.3251  0.0513 -0.8444
   11CHTO  H124 4414   7.796   7.353   1.536  0.7793  1.5118 -0.2601
   11CHTO   C65 4415   7.999   7.366   1.473 -0.2361 -0.3063 -0.4749
   11CHTO  H122 4416   8.057   7.435   1.534  2.4019 -0.9375 -2.1815
   11CHTO   O44 4417   7.925   7.429   1.369 -0.1091 -0.2008  0.3230
   11CHTO  H102 4418   7.935   7.522   1.378  1.7812 -0.1230 -2.1377
   11CHTO   C63 4419   8.104   7.259   1.418  1.1233  0.4600  0.0362
   11CHTO  H120 4420   8.158   7.205   1.496 -0.2317  0.8476  1.2461
   11CHTO   N11 4421   8.212   7.318   1.337 -0.5213  0.5284 -0.5159
   11CHTO  H108 4422   8.287   7.243   1.322  0.0003  0.9946 -0.2339
   11CHTO  H109 4423   8.249   7.390   1.407 -1.4109 -0.0784  0.6083
   11CHTO   C61 4424   8.018   7.155   1.341 -0.4551 -0.1435  0.5177
   11CHTO  H118 4425   8.082   7.067   1.327  0.8502  0.7328  0.9785
   11CHTO   O40 4426   7.894   7.108   1.410 -0.0646 -0.6514 -0.0693
   11CHTO   C68 4427   7.875   7.153   1.551  0.3261  0.6101 -0.4907
   11CHTO  H125 4428   7.953   7.110   1.618  1.7544 -0.1688 -2.6074
   11CHTO   C72 4429   7.739   7.103   1.602 -0.1933  0.5743 -0.3001
   11CHTO   O48 4430   7.636   7.162   1.521  0.8236 -0.1356  0.1389
   11CHTO  H105 4431   7.552   7.153   1.562  1.4421 -0.2192  1.4160
   11CHTO   O38 4432   7.964   7.208   1.220 -0.4080  0.0874 -0.3585
   11CHTO   C55 4433   7.935   7.109   1.117  0.0236  0.4229 -0.1950
   11CHTO  H112 4434   7.914   7.015   1.169 -0.7144  0.9106  0.4055
   11CHTO   C56 4435   8.055   7.096   1.017 -0.1986 -0.3934  0.0490
   11CHTO  H113 4436   8.094   7.195   0.990  2.7059 -1.1462  1.2312
   11CHTO   O42 4437   8.166   7.028   1.072  0.1106  0.3905 -0.1910
   11CHTO  H100 4438   8.192   7.062   1.156  0.3697  0.1349 -0.1677
   11CHTO   C57 4439   8.008   7.022   0.878 -0.4608  0.5749 -1.1018
   11CHTO  H114 4440   8.012   6.918   0.908  0.1625  1.5106  2.2776
   11CHTO   N10 4441   8.107   7.047   0.769 -0.1388  0.1523 -0.0345
   11CHTO  H106 4442   8.095   6.972   0.691  1.5670 -1.5441  1.3085
   11CHTO  H107 4443   8.208   7.058   0.805 -0.1793  1.5914 -0.3097
   11CHTO   C58 4444   7.868   7.058   0.834 -0.6371 -0.7293 -0.5477
   11CHTO  H115 4445   7.871   7.164   0.801 -2.8618 -1.2549 -2.6080
   11CHTO   O37 4446   7.780   7.039   0.947 -0.0041  0.0502  0.5467
   11CHTO   C59 4447   7.799   7.133   1.048 -0.7524  0.2728  0.1747
   11CHTO  H116 4448   7.784   7.235   1.012 -0.9760  0.3831  0.5765
   11CHTO   C70 4449   7.680   7.121   1.144  0.0739 -0.2338 -0.3933
   11CHTO   O46 4450   7.572   7.188   1.081 -0.3050 -0.1326  0.0439
   11CHTO  H103 4451   7.537   7.256   1.135 -1.5968 -1.5928  1.1350
   11CHTO   O39 4452   7.803   6.970   0.732  0.4920  0.4725  0.3913
   11CHTO   C60 4453   7.671   6.995   0.672  0.5181  0.3342  0.0388
   11CHTO  H117 4454   7.594   6.943   0.729  1.0584 -0.9164 -0.3512
   11CHTO   C62 4455   7.615   7.145   0.670 -0.1605  0.9796  0.6047
   11CHTO  H119 4456   7.634   7.179   0.774  1.5123  0.8187  0.3710
   11CHTO   O43 4457   7.709   7.218   0.588 -0.2857 -0.7204 -0.1309
   11CHTO  H101 4458   7.714   7.174   0.505  1.7467 -0.6125 -0.0922
   11CHTO   C66 4459   7.462   7.157   0.622 -0.2984 -0.6359  0.7678
   11CHTO  H123 4460   7.396   7.098   0.685 -0.2822  0.1148  1.5140
   11CHTO   N12 4461   7.409   7.295   0.635 -0.4481 -0.0539  0.0772
   11CHTO  H110 4462   7.307   7.303   0.600 -0.0963  1.9632 -0.5915
   11CHTO  H111 4463   7.426   7.330   0.736 -2.2615  0.7129  0.1309
   11CHTO   C69 4464   7.449   7.103   0.475  0.4411  0.1272  0.3066
   11CHTO  H126 4465   7.495   7.168   0.397 -0.0773  0.6792  0.4591
   11CHTO   O41 4466   7.524   6.957   0.453  0.1644 -0.3529  0.0748
   11CHTO   C64 4467   7.667   6.935   0.526  0.1318  0.1391 -0.5620
   11CHTO  H121 4468   7.747   6.988   0.469  0.2948 -0.0772 -0.5336
   11CHTO   C71 4469   7.685   6.781   0.533 -0.3194 -0.1650 -0.3244
   11CHTO   O47 4470   7.711   6.734   0.401 -0.2913  0.1833 -0.2591
   11CHTO  H104 4471   7.646   6.754   0.336  0.9883  1.8421 -1.0434
   11CHTO   O34 4472   7.303   7.098   0.428  0.5037 -0.4105 -0.2398
   11CHTO   C49 4473   7.231   6.975   0.380 -0.0895 -0.0439  0.1664
   11CHTO   H91 4474   7.302   6.917   0.322 -0.6373 -1.1560  0.5942
   11CHTO   C47 4475   7.096   7.011   0.291 -0.2764  0.6069  0.3925
   11CHTO   H89 4476   7.068   6.914   0.246  0.6328 -0.1371  1.4094
   11CHTO   O33 4477   7.141   7.100   0.188 -0.1355  0.0762 -0.2687
   11CHTO   H70 4478   7.078   7.113   0.120 -1.4577  1.3569  1.1499
   11CHTO   C45 4479   6.984   7.081   0.380  0.3035 -0.0535  0.2346
   11CHTO   H87 4480   7.016   7.184   0.402  1.1864 -0.3850  0.5527
   11CHTO    N8 4481   6.866   7.087   0.289 -0.0929 -0.2903 -0.1364
   11CHTO   H75 4482   6.893   7.148   0.204 -0.6279  0.6439  0.3492
   11CHTO   H76 4483   6.834   6.989   0.257 -1.9873 -0.3286  1.7527
   11CHTO   C43 4484   6.955   7.003   0.519  0.6720  0.2180  0.4569
   11CHTO   H85 4485   6.907   7.080   0.579  1.5933  0.8946  0.3326
   11CHTO   O29 4486   7.079   6.961   0.577  0.1069 -0.1785 -0.4140
   11CHTO   C50 4487   7.185   6.901   0.499 -0.0894 -0.1871 -0.4622
   11CHTO   H92 4488   7.267   6.885   0.571 -1.1816 -0.6335  0.7116
   11CHTO   C54 4489   7.150   6.746   0.469 -0.0534 -0.7311 -0.2278
   11CHTO   O36 4490   7.120   6.681   0.600  0.2763  0.3022 -0.3136
   11CHTO   H72 4491   7.107   6.589   0.586 -1.2339  0.5394 -0.5840
   11CHTO   O27 4492   6.857   6.889   0.511  0.4201 -0.4035  0.1132
   11CHTO   C37 4493   6.780   6.783   0.577 -0.5212 -0.4092  0.2415
   11CHTO   H79 4494   6.849   6.716   0.631 -0.3615 -2.0423 -1.9199
   11CHTO   C38 4495   6.682   6.838   0.695 -0.1796  0.2012 -0.8340
   11CHTO   H80 4496   6.620   6.918   0.653 -2.7477 -1.5663 -0.5182
   11CHTO   O31 4497   6.776   6.891   0.789  0.4296  0.1670  0.6786
   11CHTO   H68 4498   6.785   6.983   0.775 -0.8740 -0.0773 -2.1935
   11CHTO   C39 4499   6.600   6.728   0.757 -1.2163  0.2943 -0.3767
   11CHTO   H81 4500   6.669   6.670   0.817 -0.8404 -0.8455 -1.8907
   11CHTO    N7 4501   6.503   6.782   0.856 -0.0406 -0.4215  0.2434
   11CHTO   H73 4502   6.559   6.856   0.911  0.3152 -0.5758  0.0934
   11CHTO   H74 4503   6.414   6.820   0.809  0.0451 -0.8693 -0.2911
   11CHTO   C40 4504   6.525   6.639   0.646  0.4029 -0.0770  0.6931
   11CHTO   H82 4505   6.442   6.690   0.598 -0.1164  0.6862  2.3905
   11CHTO   O26 4506   6.624   6.598   0.548  0.2984 -0.1475 -0.4145
   11CHTO   C41 4507   6.698   6.699   0.477 -0.0432 -0.1776 -0.2555
   11CHTO   H83 4508   6.629   6.760   0.417 -0.6035  0.6056  1.1751
   11CHTO   C52 4509   6.782   6.616   0.379 -0.2200 -0.4643  0.2593
   11CHTO   O35 4510   6.867   6.698   0.298  0.4263  0.5295  0.5023
   11CHTO   H71 4511   6.891   6.662   0.214 -1.4852 -0.4574  0.3415
   11CHTO   O28 4512   6.480   6.507   0.702  0.2451  0.4415 -0.3317
   11CHTO   C42 4513   6.360   6.444   0.654 -0.4138 -0.1269 -1.0712
   11CHTO   H84 4514   6.347   6.490   0.557 -1.9237 -0.7898 -1.1979
   11CHTO   C44 4515   6.233   6.476   0.745  1.1204 -0.6030 -0.6250
   11CHTO   H86 4516   6.259   6.453   0.848  1.9196 -0.2868 -0.7500
   11CHTO   O32 4517   6.215   6.617   0.745 -0.0989 -0.1566  0.1761
   11CHTO   H69 4518   6.291   6.658   0.783  1.0448 -0.8196 -1.3005
   11CHTO   C48 4519   6.114   6.386   0.697 -0.0878 -0.4585  0.0409
   11CHTO   H90 4520   6.087   6.416   0.596 -0.0879  1.1283  0.4946
   11CHTO    N9 4521   5.995   6.415   0.782 -0.2163 -0.3022 -0.3267
   11CHTO   H77 4522   5.924   6.460   0.714  0.1438  0.2504 -0.3416
   11CHTO   H78 4523   5.963   6.324   0.830 -2.2456 -0.3130 -1.6244
   11CHTO   C51 4524   6.159   6.235   0.689  0.2762 -0.0325 -0.1537
   11CHTO   H93 4525   6.184   6.195   0.788  0.3036  0.2058 -0.0642
   11CHTO   O30 4526   6.272   6.231   0.595 -0.3462  0.6304 -0.8008
   11CHTO   C46 4527   6.382   6.297   0.640  0.2178 -0.2707  0.4355
   11CHTO   H88 4528   6.418   6.255   0.734 -1.8305 -0.7642  1.0235
   11CHTO   C53 4529   6.501   6.270   0.540  0.0800  0.2386 -0.1729
   11CHTO   O72 4530   6.518   6.133   0.503  0.1978 -0.2357 -0.0764
   11CHTO  H199 4531   6.603   6.108   0.473  0.2700 -0.4724  0.3348
   11CHTO   O22 4532   6.064   6.147   0.629  0.3356  0.9881 -0.9799
   11CHTO   C31 4533   5.983   6.048   0.704  0.2151 -0.4343 -0.1187
   11CHTO   H59 4534   5.936   6.103   0.788 -0.2012 -0.2822 -0.4494
   11CHTO   C29 4535   5.863   5.999   0.618  0.5500 -0.4935 -0.1911
   11CHTO   H57 4536   5.907   5.956   0.527  0.7322 -1.2327  0.2469
   11CHTO   O21 4537   5.800   6.123   0.564 -0.4323 -0.4334  0.0114
   11CHTO   H37 4538   5.845   6.149   0.486 -0.2160  1.7655  0.8371
   11CHTO   C27 4539   5.760   5.907   0.686 -0.3221  0.3413 -0.7664
   11CHTO   H55 4540   5.718   5.965   0.770  0.9417  3.4661 -2.1937
   11CHTO    N5 4541   5.654   5.868   0.595 -0.0370  0.3150  0.6297
   11CHTO   H43 4542   5.565   5.892   0.652  0.4056 -0.3515  1.6258
   11CHTO   H44 4543   5.663   5.932   0.509  0.2873  0.0765  0.4861
   11CHTO   C25 4544   5.851   5.789   0.750  0.1763 -0.4700 -0.6306
   11CHTO   H53 4545   5.892   5.735   0.664 -0.4676 -1.3758 -0.3689
   11CHTO   O17 4546   5.962   5.842   0.836 -0.0274  0.3199 -0.0764
   11CHTO   C32 4547   6.055   5.925   0.767  0.4773 -0.2205  0.0967
   11CHTO   H60 4548   6.103   5.871   0.685  2.3309 -1.4964  1.9564
   11CHTO   C36 4549   6.183   5.935   0.854 -0.2100 -0.1864 -0.3519
   11CHTO   O25 4550   6.259   5.813   0.853 -0.2032  0.3195 -0.3768
   11CHTO   H40 4551   6.214   5.739   0.889 -0.9530  0.5078 -0.9106
   11CHTO   O15 4552   5.747   5.674   0.842  0.5672 -0.2779 -1.0719
   11CHTO   C19 4553   5.624   5.591   0.859  0.3922  0.4780  0.3525
   11CHTO   H47 4554   5.634   5.538   0.955  1.4486 -1.4707 -0.7844
   11CHTO   C20 4555   5.487   5.668   0.868  0.0775  0.0660 -0.4599
   11CHTO   H48 4556   5.459   5.709   0.770  1.3974 -0.4044 -1.0448
   11CHTO   O19 4557   5.497   5.779   0.964  0.1643 -0.3365 -1.0458
   11CHTO   H35 4558   5.467   5.742   1.045 -1.2877 -1.9024 -2.2496
   11CHTO   C21 4559   5.365   5.572   0.898  0.2193 -0.1082  0.0646
   11CHTO   H49 4560   5.392   5.516   0.987 -1.2098 -0.2066  0.4338
   11CHTO    N4 4561   5.232   5.633   0.918 -0.1348  0.0010  0.4071
   11CHTO   H41 4562   5.189   5.596   1.010  0.7003 -1.7489  0.1132
   11CHTO   H42 4563   5.164   5.611   0.838 -1.7654  0.7034  1.5731
   11CHTO   C22 4564   5.360   5.475   0.781 -0.0714  0.4104  0.2390
   11CHTO   H50 4565   5.339   5.538   0.695  1.0008 -1.7687 -1.6797
   11CHTO   O14 4566   5.487   5.413   0.761 -0.3378  0.3328 -0.0520
   11CHTO   C23 4567   5.607   5.481   0.748  0.1463  0.0922  0.3018
   11CHTO   H51 4568   5.606   5.528   0.648 -2.5235  1.6439  1.0224
   11CHTO   C34 4569   5.728   5.374   0.750 -0.3212 -0.6662 -0.1157
   11CHTO   O23 4570   5.851   5.427   0.704  0.4503  0.2132 -0.3686
   11CHTO   H38 4571   5.913   5.364   0.737 -0.3309  0.1183  0.9880
   11CHTO   O16 4572   5.258   5.366   0.797 -0.9699  0.6568  0.5921
   11CHTO   C24 4573   5.207   5.310   0.634 -0.5561 -0.5586 -0.7276
   11CHTO   H52 4574   5.243   5.374   0.554 -1.2534 -1.8768 -2.1498
   11CHTO   C26 4575   5.050   5.315   0.626 -0.1942 -0.2403 -0.2955
   11CHTO   H54 4576   5.008   5.235   0.690 -0.6571 -0.2007 -0.5551
   11CHTO   O20 4577   5.012   5.438   0.681  0.1932  0.2801  0.2251
   11CHTO   H36 4578   4.936   5.431   0.736  0.5341 -1.1389  0.5409
   11CHTO   C30 4579   4.997   5.299   0.483 -0.5419  0.5257  0.1990
   11CHTO   H58 4580   5.031   5.381   0.417  0.2011  0.3318  0.3434
   11CHTO    N6 4581   4.848   5.305   0.470 -0.1522  0.1281 -0.2065
   11CHTO   H45 4582   4.795   5.256   0.550  0.2907  1.3848  0.8764
   11CHTO   H46 4583   4.829   5.252   0.378 -0.7990  0.9271 -0.5414
   11CHTO   C33 4584   5.066   5.164   0.426  1.3929  0.2688 -0.1487
   11CHTO   H61 4585   5.010   5.076   0.462  1.1589  0.5681  0.2284
   11CHTO   O18 4586   5.204   5.142   0.461 -0.1086 -0.2246  0.1649
   11CHTO   C28 4587   5.244   5.161   0.596  0.7085 -0.0585 -0.2158
   11CHTO   H56 4588   5.189   5.093   0.662  0.7215 -1.2697 -1.4363
   11CHTO   C35 4589   5.397   5.127   0.620  0.0370  0.1938 -0.9502
   11CHTO   O24 4590   5.425   5.114   0.755  0.3517  0.1249  0.3419
   11CHTO   H39 4591   5.497   5.169   0.778  0.9997 -0.2295 -0.8283
   11CHTO    O9 4592   5.050   5.163   0.281  0.2360 -0.1021 -0.0720
   11CHTO   C13 4593   5.144   5.261   0.197 -0.0845  0.3543 -0.0138
   11CHTO   H26 4594   5.214   5.308   0.269  2.3638 -1.2642 -1.2767
   11CHTO   C11 4595   5.050   5.373   0.109 -0.1582  0.1219  0.5241
   11CHTO   H24 4596   4.971   5.416   0.173  0.2696 -0.7822  1.6693
   11CHTO    O8 4597   4.987   5.315  -0.006  0.5558  0.0986  0.4680
   11CHTO    H3 4598   4.911   5.262   0.008 -0.6217  1.6775  0.2151
   11CHTO    C9 4599   5.152   5.487   0.072 -0.9264 -0.6833 -1.1907
   11CHTO   H22 4600   5.173   5.534   0.169 -1.2585 -2.2040 -0.3738
   11CHTO    N2 4601   5.096   5.600  -0.006  0.3270  0.1124  0.3738
   11CHTO   H10 4602   5.153   5.606  -0.097 -0.6483  1.6330 -0.1662
   11CHTO   H11 4603   4.990   5.585  -0.025  0.3696  0.2509  0.0309
   11CHTO    C7 4604   5.286   5.433   0.022  0.2438 -0.2348 -0.2938
   11CHTO   H20 4605   5.352   5.444   0.111  2.3808  0.0368 -1.8551
   11CHTO    O4 4606   5.276   5.290  -0.010 -0.0881  0.2107 -0.1382
   11CHTO   C14 4607   5.238   5.191   0.095 -0.2974  0.1010  0.1945
   11CHTO   H27 4608   5.333   5.163   0.144  0.6414  2.2894 -0.2844
   11CHTO   C18 4609   5.175   5.056   0.037 -0.0260 -0.3111  0.1458
   11CHTO   O13 4610   5.274   4.974  -0.021 -0.6733  1.1086  0.2072
   11CHTO    H7 4611   5.304   5.002  -0.105 -1.1393  0.3851 -0.2047
   11CHTO    O2 4612   5.362   5.522  -0.120 -0.6859  0.2777 -0.5682
   11CHTO    C1 4613   5.474   5.610  -0.096 -0.4204  0.4216  0.7107
   11CHTO   H14 4614   5.490   5.602   0.014  0.9934  1.5592  0.6115
   11CHTO    C2 4615   5.440   5.759  -0.129 -0.7500  0.3039 -0.1230
   11CHTO   H15 4616   5.410   5.774  -0.234  1.1178 -1.6156 -0.9836
   11CHTO    O6 4617   5.329   5.807  -0.046 -0.0609 -0.0467 -0.0886
   11CHTO    H1 4618   5.358   5.790   0.041  3.2686  1.3440 -0.8644
   11CHTO    C3 4619   5.563   5.855  -0.092 -0.5557 -0.3617  0.2479
   11CHTO   H16 4620   5.583   5.845   0.016 -0.9017  2.2719  0.5929
   11CHTO    N1 4621   5.546   6.003  -0.117 -0.2086 -0.1686  0.2345
   11CHTO    H8 4622   5.480   6.047  -0.044  0.5479  0.1996  0.7069
   11CHTO    H9 4623   5.502   6.012  -0.215  1.0631 -1.4155 -0.4632
   11CHTO    C4 4624   5.689   5.807  -0.168  0.3526 -0.0808 -0.7479
   11CHTO   H17 4625   5.679   5.829  -0.275  1.6187 -0.8487 -1.0335
   11CHTO    O1 4626   5.721   5.669  -0.148  0.5616  0.0278 -0.2033
   11CHTO    C5 4627   5.607   5.577  -0.176  0.0244  0.0111  0.0824
   11CHTO   H18 4628   5.595   5.589  -0.284  3.0359 -1.0634 -0.4082
   11CHTO   C16 4629   5.658   5.432  -0.150 -0.9720 -0.0325 -0.5500
   11CHTO   O11 4630   5.572   5.323  -0.183  0.5722  0.2464 -0.4748
   11CHTO    H5 4631   5.578   5.258  -0.115 -0.6146  1.1772  0.5371
   11CHTO    O3 4632   5.808   5.879  -0.122 -0.4109  0.0048  0.1833
   11CHTO    C6 4633   5.919   5.907  -0.210 -0.6287 -0.4793 -1.0888
   11CHTO   H19 4634   5.914   5.838  -0.294  0.7523 -1.7813 -0.1196
   11CHTO    C8 4635   5.916   6.060  -0.253 -0.0818 -0.2126 -0.1249
   11CHTO   H21 4636   5.920   6.119  -0.161 -0.2526 -0.2477 -0.0955
   11CHTO    O7 4637   5.791   6.099  -0.317 -0.2581 -0.5135 -0.2469
   11CHTO    H2 4638   5.797   6.186  -0.353  1.5334 -0.6031 -0.2170
   11CHTO   C12 4639   6.037   6.091  -0.341 -0.3506 -0.1411 -0.1885
   11CHTO   H25 4640   6.030   6.020  -0.426 -1.2033  0.9808 -1.0680
   11CHTO    N3 4641   6.046   6.223  -0.404  0.0176 -0.1268 -0.2356
   11CHTO   H12 4642   6.037   6.302  -0.331 -2.6447  0.2994 -0.9830
   11CHTO   H13 4643   6.132   6.229  -0.470 -0.7194 -0.1145 -1.2022
   11CHTO   C15 4644   6.173   6.052  -0.262  0.0025  0.6838 -0.3731
   11CHTO   H28 4645   6.204   6.108  -0.174  0.5486 -0.7533  0.3783
   11CHTO   O10 4646   6.298   6.054  -0.358  0.2207  1.0443 -0.7653
   11CHTO    H4 4647   6.372   6.074  -0.304  1.7617 -3.1119 -1.1966
   11CHTO    O5 4648   6.170   5.911  -0.222 -0.5995  0.4517 -0.0211
   11CHTO   C10 4649   6.061   5.873  -0.134  0.1638  0.3471  0.0911
   11CHTO   H23 4650   6.077   5.918  -0.036  0.0272 -1.0412  0.7597
   11CHTO   C17 4651   6.075   5.723  -0.111  0.3525  0.3291 -0.1646
   11CHTO   O12 4652   6.189   5.671  -0.044 -0.0692 -0.0710  0.3656
   11CHTO    H6 4653   6.178   5.579  -0.027 -0.3537  0.1250  1.2956
   12CHTO  H203 4654   4.886   2.387   2.007 -0.7281 -0.0471  0.3289
   12CHTO   O82 4655   4.961   2.386   2.065 -0.6932  0.6118  0.3080
   12CHTO  C123 4656   4.994   2.243   2.089  0.5977 -0.2102  0.1819
   12CHTO  H227 4657   5.007   2.192   1.993  1.1925 -1.3746  0.8702
   12CHTO   O77 4658   5.124   2.254   2.146  0.0189  0.1445  0.0948
   12CHTO  C118 4659   5.187   2.129   2.190 -0.0135 -0.1101  0.0448
   12CHTO  H222 4660   5.199   2.068   2.099  1.9706 -0.2112  0.3530
   12CHTO  C125 4661   5.331   2.155   2.258 -0.4953  0.1240  0.3561
   12CHTO   O84 4662   5.427   2.213   2.173  0.8694  0.2973 -0.6885
   12CHTO  H205 4663   5.412   2.304   2.159  1.5452  0.2887 -1.4704
   12CHTO  C114 4664   5.091   2.051   2.287 -0.8708 -0.1680  0.3021
   12CHTO  H218 4665   5.076   2.106   2.380 -0.6627  1.0956 -0.3958
   12CHTO  C116 4666   4.943   2.036   2.233 -0.8843  0.0270 -0.4197
   12CHTO  H220 4667   4.952   1.967   2.146 -1.5359  0.2775 -0.6854
   12CHTO   O79 4668   4.863   1.982   2.345  0.2798  0.0154  0.1603
   12CHTO  H201 4669   4.893   1.897   2.371 -2.3101 -1.4247 -1.4587
   12CHTO  C120 4670   4.888   2.179   2.186  0.3301  0.4126  0.7189
   12CHTO  H224 4671   4.880   2.240   2.278 -2.5687  1.9158 -0.4569
   12CHTO   N21 4672   4.748   2.162   2.132  0.5659  0.7861  0.4589
   12CHTO  H211 4673   4.684   2.100   2.194 -3.0669  3.0014 -0.9016
   12CHTO  H212 4674   4.701   2.258   2.124 -0.6344  0.1861  0.1226
   12CHTO   O75 4675   5.164   1.927   2.305 -0.3196  0.2070  0.1345
   12CHTO  C112 4676   5.127   1.816   2.444  0.2141 -0.1084  0.8478
   12CHTO  H216 4677   5.044   1.752   2.411  2.0158 -1.2179 -1.6755
   12CHTO   O73 4678   5.102   1.888   2.563  0.1780  0.1643  0.1268
   12CHTO  C113 4679   5.056   1.804   2.675 -0.4447 -0.2185  0.4560
   12CHTO  H217 4680   4.973   1.738   2.642 -0.8959  0.6703 -0.2186
   12CHTO  C124 4681   5.003   1.903   2.778  0.8632  0.2692 -0.1697
   12CHTO   O83 4682   4.878   1.955   2.732 -0.0037 -0.2286  0.7414
   12CHTO  H204 4683   4.818   1.892   2.699  0.9599 -0.0103 -1.5814
   12CHTO  C109 4684   5.173   1.718   2.720  0.5570 -0.1331 -0.0591
   12CHTO  H213 4685   5.245   1.788   2.765  0.6640  0.5424 -1.2805
   12CHTO  C110 4686   5.234   1.637   2.598  0.3201 -0.7389 -0.1635
   12CHTO  H214 4687   5.169   1.554   2.572  0.6459 -1.1511  0.3328
   12CHTO   O78 4688   5.360   1.580   2.645  0.2396  0.1999  0.3240
   12CHTO  H200 4689   5.386   1.511   2.587 -1.8523  0.0308 -0.4615
   12CHTO  C111 4690   5.257   1.728   2.476  0.0562  0.9325  0.5467
   12CHTO  H215 4691   5.346   1.786   2.505  2.0726 -1.1767 -1.2362
   12CHTO   N19 4692   5.295   1.650   2.354  0.1589 -0.0886 -0.5240
   12CHTO  H207 4693   5.220   1.573   2.347  0.7565 -0.8435  1.0981
   12CHTO  H208 4694   5.309   1.723   2.276 -1.0388  0.5993 -0.1007
   12CHTO   O74 4695   5.122   1.622   2.815 -0.6933 -0.0499 -0.3285
   12CHTO  C115 4696   5.228   1.567   2.914 -0.3752 -0.3430  0.9318
   12CHTO  H219 4697   5.324   1.616   2.905 -0.3986 -0.1044  1.9058
   12CHTO   O76 4698   5.181   1.582   3.067 -0.0779 -0.1948 -0.1325
   12CHTO  C122 4699   5.049   1.536   3.095 -0.5601 -0.3756  0.3570
   12CHTO  H226 4700   4.978   1.607   3.052 -0.1365 -1.0394 -1.4781
   12CHTO  C126 4701   5.036   1.538   3.254  0.3530  0.3736  0.2536
   12CHTO   O85 4702   5.112   1.440   3.327  0.2354  0.0636 -0.6224
   12CHTO  H206 4703   5.052   1.376   3.360 -0.0869  0.5864 -0.2051
   12CHTO  C121 4704   5.032   1.384   3.036 -0.8408  0.3681  0.0088
   12CHTO  H225 4705   5.005   1.316   3.119 -0.0584 -0.9782 -0.8152
   12CHTO   O81 4706   4.927   1.384   2.941 -0.1017  0.8187 -0.1241
   12CHTO  H202 4707   4.849   1.389   2.991  0.4020 -1.6821  1.0202
   12CHTO  C119 4708   5.165   1.320   2.985 -0.0008  0.7059  0.1283
   12CHTO  H223 4709   5.218   1.312   3.081  0.0741  1.0134  0.1128
   12CHTO  C117 4710   5.249   1.412   2.885 -0.0676 -0.7056  0.3579
   12CHTO  H221 4711   5.223   1.399   2.780  1.6318 -0.6657 -0.0942
   12CHTO   N20 4712   5.393   1.374   2.897 -0.2564  0.0669  0.2492
   12CHTO  H209 4713   5.458   1.438   2.839  0.5704 -0.3784  0.6716
   12CHTO  H210 4714   5.420   1.354   3.000  1.0349  1.1435  0.1267
   12CHTO   O80 4715   5.150   1.166   2.953 -0.1752 -0.2361  0.3759
   12CHTO  C103 4716   5.085   1.123   2.796 -0.1663 -0.2195  0.2016
   12CHTO  H190 4717   4.997   1.181   2.768 -0.5227 -0.6618  0.3992
   12CHTO  C101 4718   5.177   1.111   2.668 -0.0401 -0.0100  0.7568
   12CHTO  H188 4719   5.276   1.080   2.699  0.8674  0.8997 -1.1770
   12CHTO   O68 4720   5.198   1.254   2.595 -0.1058  0.2441  0.2736
   12CHTO  H168 4721   5.240   1.232   2.514 -3.2180  1.3698 -1.7386
   12CHTO   C99 4722   5.113   1.004   2.566 -0.5891 -0.2208  0.7145
   12CHTO  H186 4723   5.014   1.042   2.532  0.1525  0.9812 -0.1278
   12CHTO   N17 4724   5.199   0.980   2.443 -0.7231 -0.4267 -0.1434
   12CHTO  H174 4725   5.296   1.028   2.450 -1.1440  0.4924 -0.4195
   12CHTO  H175 4726   5.150   0.983   2.346 -2.1968 -0.8706  0.5750
   12CHTO   C97 4727   5.081   0.873   2.643 -0.1025  1.1116 -0.2024
   12CHTO  H184 4728   5.170   0.830   2.690 -1.4794 -0.4962  0.9989
   12CHTO   O64 4729   4.978   0.896   2.745  0.6058 -0.7164 -0.1187
   12CHTO  C104 4730   5.030   0.983   2.843  0.3846  0.1055 -0.2982
   12CHTO  H191 4731   5.115   0.930   2.887  1.2442 -0.9578 -3.0881
   12CHTO  C108 4732   4.924   1.005   2.952  0.5327 -0.7404  0.4879
   12CHTO   O71 4733   4.888   0.882   3.013  0.0881 -0.1922 -0.5310
   12CHTO  H171 4734   4.861   0.822   2.946  0.6453 -0.8917 -0.1298
   12CHTO   O62 4735   5.010   0.774   2.557 -0.4919 -0.3834  0.3650
   12CHTO   C91 4736   5.036   0.634   2.576 -0.5170 -0.0240  0.0630
   12CHTO  H178 4737   5.128   0.630   2.633 -0.6462  1.2153  0.3816
   12CHTO   C92 4738   5.072   0.563   2.436  0.0873 -0.5755  0.5686
   12CHTO  H179 4739   5.009   0.592   2.351  0.2724 -0.7443  0.3730
   12CHTO   O66 4740   5.209   0.605   2.397 -0.1606 -0.3491  0.8478
   12CHTO  H166 4741   5.245   0.579   2.315  0.2802 -0.4369  1.0697
   12CHTO   C93 4742   5.083   0.406   2.443  0.2062 -0.8081  0.1716
   12CHTO  H180 4743   5.167   0.384   2.510  1.2058  1.6184 -0.2161
   12CHTO   N16 4744   5.107   0.337   2.314  0.1764 -0.0359  0.9663
   12CHTO  H172 4745   5.210   0.356   2.288  0.7336 -2.5878  1.2038
   12CHTO  H173 4746   5.039   0.367   2.235  0.7769  2.9454  1.5022
   12CHTO   C94 4747   4.949   0.352   2.509  0.8098 -0.4484  0.0768
   12CHTO  H181 4748   4.862   0.377   2.447  0.8539  1.7559  0.8642
   12CHTO   O61 4749   4.924   0.406   2.642 -0.3110  0.4922 -0.2503
   12CHTO   C95 4750   4.929   0.553   2.663 -0.6155  0.3037  0.3651
   12CHTO  H182 4751   4.832   0.595   2.638 -0.6825  0.8081  1.4698
   12CHTO  C106 4752   4.953   0.579   2.814 -0.1686 -0.1377 -0.2814
   12CHTO   O69 4753   4.846   0.532   2.899 -0.6332  0.0593  0.1505
   12CHTO  H169 4754   4.768   0.581   2.886  1.0232  2.7151 -0.0158
   12CHTO   O63 4755   4.944   0.173   2.525 -0.1887 -0.5103 -0.0591
   12CHTO   C96 4756   5.047   0.119   2.618 -0.0597 -0.3898  0.1867
   12CHTO  H183 4757   5.115   0.199   2.646  0.1396 -0.5702  0.2250
   12CHTO   C98 4758   5.130   0.004   2.557 -0.1899  0.2472  0.1364
   12CHTO  H185 4759   5.059  -0.068   2.514 -1.9616  2.0253  0.0299
   12CHTO   O67 4760   5.205   0.057   2.443 -0.0890  0.0480  0.0729
   12CHTO  H167 4761   5.189   0.012   2.363  0.5550  0.4041 -0.2537
   12CHTO  C102 4762   5.233  -0.069   2.666 -0.8968 -0.1449 -0.0919
   12CHTO  H189 4763   5.309   0.009   2.683 -0.1509 -0.1311 -3.1419
   12CHTO   N18 4764   5.303  -0.184   2.606 -0.2601 -0.2464 -0.2687
   12CHTO  H176 4765   5.354  -0.154   2.515 -0.9113 -2.1209 -1.2916
   12CHTO  H177 4766   5.380  -0.222   2.671  1.2001  2.3042 -0.4190
   12CHTO  C105 4767   5.159  -0.104   2.799 -0.3850 -0.1740 -0.2770
   12CHTO  H192 4768   5.083  -0.179   2.777  1.2203 -1.4435 -1.6887
   12CHTO   O65 4769   5.087   0.010   2.840 -0.1997  0.1943 -0.1555
   12CHTO  C100 4770   4.981   0.065   2.757 -0.6656  0.3277  0.5149
   12CHTO  H187 4771   4.915  -0.021   2.738  1.0079 -0.5094 -1.6612
   12CHTO  C107 4772   4.911   0.173   2.835  0.1840  0.4662  0.4292
   12CHTO   O70 4773   5.005   0.264   2.876 -0.4859  1.0262  0.3129
   12CHTO  H170 4774   4.968   0.351   2.874 -0.2163  1.1318 -0.2296
   12CHTO   O57 4775   5.264  -0.158   2.914  0.2110  0.3909 -0.3129
   12CHTO   C85 4776   5.231  -0.259   3.011  0.3289 -0.2026  0.5057
   12CHTO  H157 4777   5.147  -0.309   2.959  1.6718 -2.6222  0.5714
   12CHTO   C83 4778   5.175  -0.192   3.130  0.0072 -0.2153  0.3844
   12CHTO  H155 4779   5.090  -0.139   3.087  0.1620 -0.2018  0.0923
   12CHTO   O56 4780   5.265  -0.087   3.185 -0.0114 -0.0915 -0.2142
   12CHTO  H135 4781   5.337  -0.127   3.229 -1.0724 -0.8000  0.9257
   12CHTO   C81 4782   5.123  -0.298   3.234  0.2890 -0.1977 -0.0545
   12CHTO  H153 4783   5.047  -0.359   3.186 -0.0656  1.7753 -2.1149
   12CHTO   N14 4784   5.055  -0.233   3.350  0.3867  0.3286 -0.1992
   12CHTO  H141 4785   4.986  -0.297   3.402  1.8622 -1.2109 -0.1204
   12CHTO  H142 4786   4.997  -0.152   3.311  1.0670  0.2780 -1.3182
   12CHTO   C79 4787   5.237  -0.399   3.277 -0.5019  0.2638 -0.1865
   12CHTO  H151 4788   5.193  -0.478   3.337 -0.8034 -0.5046 -1.4006
   12CHTO   O52 4789   5.292  -0.464   3.160  0.0235  0.0768  0.2747
   12CHTO   C86 4790   5.341  -0.365   3.056 -0.0484 -0.7148  0.2283
   12CHTO  H158 4791   5.427  -0.316   3.105  1.9574 -1.9421 -1.9491
   12CHTO   C90 4792   5.402  -0.447   2.933 -0.6155 -0.2750 -0.1580
   12CHTO   O60 4793   5.455  -0.357   2.839 -0.0900 -0.0848 -0.0281
   12CHTO  H138 4794   5.517  -0.402   2.785  1.4547  2.0707 -0.1437
   12CHTO   O50 4795   5.351  -0.341   3.340 -0.4922  0.2662  0.5641
   12CHTO   C73 4796   5.403  -0.344   3.475 -0.3351 -0.4586  0.1802
   12CHTO  H145 4797   5.335  -0.401   3.540 -1.2591  0.7700  0.3215
   12CHTO   C74 4798   5.413  -0.196   3.530  0.4253  0.7934  0.2837
   12CHTO  H146 4799   5.312  -0.157   3.508 -0.3744 -0.4232  1.6841
   12CHTO   O54 4800   5.438  -0.200   3.676 -0.3642  0.0238  0.2208
   12CHTO  H133 4801   5.359  -0.214   3.726  0.7339  0.8572  2.2600
   12CHTO   C75 4802   5.529  -0.124   3.445 -0.3779  0.4454 -0.2294
   12CHTO  H147 4803   5.505  -0.123   3.338 -0.0281 -0.3100 -0.3153
   12CHTO   N13 4804   5.537   0.021   3.484 -0.8510  0.0863  0.0346
   12CHTO  H139 4805   5.618   0.061   3.425 -0.2497  0.6565  1.2391
   12CHTO  H140 4806   5.456   0.082   3.448 -0.8685  0.0303 -0.0215
   12CHTO   C76 4807   5.671  -0.206   3.465 -0.1787 -0.3582  0.1344
   12CHTO  H148 4808   5.692  -0.209   3.573  1.1872  0.6283 -0.0902
   12CHTO   O49 4809   5.657  -0.344   3.415 -0.3988 -0.2531 -0.0674
   12CHTO   C77 4810   5.554  -0.414   3.486 -0.5355  0.3763 -0.0728
   12CHTO  H149 4811   5.581  -0.413   3.592 -3.2132  0.8314  0.6463
   12CHTO   C88 4812   5.558  -0.561   3.444 -0.1714  0.5810  0.5984
   12CHTO   O58 4813   5.524  -0.579   3.293 -0.4252  0.2374 -0.4723
   12CHTO  H136 4814   5.431  -0.577   3.278 -0.7130 -3.1753  0.3455
   12CHTO   O51 4815   5.772  -0.138   3.382  0.3020  0.3746  0.3540
   12CHTO   C78 4816   5.894  -0.228   3.328  0.2115 -0.4801  0.1365
   12CHTO  H150 4817   5.870  -0.336   3.316  1.9925 -0.7814 -0.7651
   12CHTO   C80 4818   5.998  -0.208   3.437  0.0764  0.3003  0.3422
   12CHTO  H152 4819   5.992  -0.102   3.467  2.1931  0.7622 -0.7545
   12CHTO   O55 4820   5.956  -0.288   3.550 -0.5910 -0.4790  0.0602
   12CHTO  H134 4821   5.870  -0.268   3.581  0.0275  0.0535  1.4841
   12CHTO   C84 4822   6.146  -0.235   3.392 -0.1329 -0.1521  0.7778
   12CHTO  H156 4823   6.156  -0.342   3.376 -2.5605 -0.1964 -0.6408
   12CHTO   N15 4824   6.250  -0.185   3.496 -0.0204  0.4789 -0.0814
   12CHTO  H143 4825   6.224  -0.085   3.524  0.4872  0.1515  1.5572
   12CHTO  H144 4826   6.232  -0.247   3.581 -3.5176  1.2087 -0.1825
   12CHTO   C87 4827   6.177  -0.176   3.251 -0.2855 -0.1375 -0.3712
   12CHTO  H159 4828   6.176  -0.067   3.248  0.2434  0.0201  3.1909
   12CHTO   O53 4829   6.060  -0.220   3.160  0.0654  0.1564  0.4874
   12CHTO   C82 4830   5.936  -0.167   3.195 -0.3582 -0.0138  0.5143
   12CHTO  H154 4831   5.949  -0.058   3.198 -2.7677  0.2531  1.8608
   12CHTO   C89 4832   5.827  -0.190   3.087  0.2583  0.6062  0.0802
   12CHTO   O59 4833   5.755  -0.315   3.083  0.7697  0.2820 -0.0054
   12CHTO  H137 4834   5.707  -0.326   3.003 -1.7236  1.0841  1.2988
   12CHTO   O45 4835   6.310  -0.222   3.177 -0.6652  0.7696  0.3016
   12CHTO   C67 4836   6.318  -0.362   3.148 -1.2709  0.6522  0.0501
   12CHTO  H124 4837   6.256  -0.417   3.218 -2.1473 -0.1895 -1.3735
   12CHTO   C65 4838   6.276  -0.396   3.000  0.0047 -0.1364 -0.6543
   12CHTO  H122 4839   6.180  -0.347   2.983  0.1449  0.2306 -0.3797
   12CHTO   O44 4840   6.252  -0.539   2.990 -0.3639  0.1567  0.1123
   12CHTO  H102 4841   6.225  -0.563   2.904  0.9635  0.0631 -0.2913
   12CHTO   C63 4842   6.366  -0.332   2.894 -0.3395 -0.3414 -0.2767
   12CHTO  H120 4843   6.367  -0.225   2.912  1.2435 -0.2738 -0.6998
   12CHTO   N11 4844   6.325  -0.360   2.749 -0.5528  0.1144 -0.1303
   12CHTO  H108 4845   6.322  -0.274   2.685  1.2246 -0.7473 -1.4060
   12CHTO  H109 4846   6.363  -0.454   2.714  0.3815  0.8172 -1.0271
   12CHTO   C61 4847   6.517  -0.372   2.927 -0.1525  0.1565 -0.3244
   12CHTO  H118 4848   6.571  -0.297   2.866  0.2773 -0.8808 -1.2420
   12CHTO   O40 4849   6.555  -0.350   3.069  0.3376  0.4380 -0.2727
   12CHTO   C68 4850   6.466  -0.401   3.175 -0.0251 -0.0206  0.0357
   12CHTO  H125 4851   6.492  -0.348   3.270 -2.8326 -0.8040  1.2731
   12CHTO   C72 4852   6.472  -0.552   3.211 -0.0165  0.2152 -0.0893
   12CHTO   O48 4853   6.392  -0.606   3.312 -0.1739 -0.0375 -0.2761
   12CHTO  H105 4854   6.441  -0.621   3.390 -0.3713 -2.4486 -0.5968
   12CHTO   O38 4855   6.558  -0.510   2.900 -0.1409 -0.4078 -0.0663
   12CHTO   C55 4856   6.690  -0.523   2.847  0.6496  0.5484  0.1870
   12CHTO  H112 4857   6.754  -0.441   2.882  1.4699  0.4953 -1.1557
   12CHTO   C56 4858   6.687  -0.533   2.686  0.2203 -0.2356 -0.6392
   12CHTO  H113 4859   6.618  -0.614   2.660 -1.7028  0.3033  2.4974
   12CHTO   O42 4860   6.634  -0.405   2.639 -0.8428  0.1163  0.1397
   12CHTO  H100 4861   6.636  -0.400   2.546 -0.7871  1.0486  0.1855
   12CHTO   C57 4862   6.835  -0.547   2.638  0.1854 -0.4611  0.0215
   12CHTO  H114 4863   6.884  -0.466   2.692  1.3671 -1.2210  0.1010
   12CHTO   N10 4864   6.846  -0.539   2.491 -0.5292  0.1311  1.1355
   12CHTO  H106 4865   6.938  -0.496   2.455 -0.7298 -1.1036 -0.9597
   12CHTO  H107 4866   6.759  -0.489   2.452 -1.5509 -2.2978  0.1951
   12CHTO   C58 4867   6.898  -0.672   2.701  0.0362  0.2192  0.7806
   12CHTO  H115 4868   6.846  -0.764   2.667  0.8875  0.0337 -0.0315
   12CHTO   O37 4869   6.891  -0.674   2.849  0.1435  0.2481  0.1200
   12CHTO   C59 4870   6.766  -0.652   2.908  0.3563  0.1764 -0.1080
   12CHTO  H116 4871   6.710  -0.745   2.904  1.0046 -0.2719  1.1168
   12CHTO   C70 4872   6.800  -0.627   3.062 -0.0712 -0.1761 -0.1694
   12CHTO   O46 4873   6.850  -0.733   3.143  0.0599  0.2510  0.2311
   12CHTO  H103 4874   6.936  -0.754   3.113 -0.9946  1.0469 -3.5621
   12CHTO   O39 4875   7.048  -0.682   2.656 -0.0565 -0.0373 -0.3271
   12CHTO   C60 4876   7.098  -0.815   2.666  0.3757 -0.1496  0.4172
   12CHTO  H117 4877   7.022  -0.876   2.715 -0.2859  1.6214  1.6311
   12CHTO   C62 4878   7.119  -0.875   2.525 -0.5303  0.0749 -0.6506
   12CHTO  H119 4879   7.019  -0.879   2.477 -0.4059  1.6692 -1.0575
   12CHTO   O43 4880   7.203  -0.785   2.446  0.0726  0.5555 -0.1347
   12CHTO  H101 4881   7.276  -0.751   2.494  0.7129  0.2130 -0.8422
   12CHTO   C66 4882   7.173  -1.025   2.533  0.5561  0.6161 -0.1997
   12CHTO  H123 4883   7.104  -1.087   2.591  0.3791  0.8721 -0.1359
   12CHTO   N12 4884   7.188  -1.102   2.404  1.1057  0.3112 -0.7726
   12CHTO  H110 4885   7.169  -1.038   2.319 -1.7976  1.0186  0.3617
   12CHTO  H111 4886   7.125  -1.190   2.403  0.7292  0.4858  2.2515
   12CHTO   C69 4887   7.306  -1.026   2.610  0.3499  1.0275 -0.2216
   12CHTO  H126 4888   7.382  -0.971   2.552  2.0487 -0.4758  0.5292
   12CHTO   O41 4889   7.282  -0.955   2.753 -0.5689 -0.6014  0.1626
   12CHTO   C64 4890   7.227  -0.816   2.753  0.3321  0.4339 -0.4868
   12CHTO  H121 4891   7.291  -0.745   2.696 -0.8341  1.0494 -1.0442
   12CHTO   C71 4892   7.214  -0.753   2.891  0.3044 -0.1716  0.3425
   12CHTO   O47 4893   7.113  -0.811   2.967 -0.1071  0.6183  0.3040
   12CHTO  H104 4894   7.072  -0.754   3.030 -0.4424 -0.6402  1.2515
   12CHTO   O34 4895   7.377  -1.179   2.631 -0.1505 -0.3983 -0.0032
   12CHTO   C49 4896   7.494  -1.232   2.681 -0.3113 -0.1700 -0.4309
   12CHTO   H91 4897   7.583  -1.208   2.623  0.4662 -0.6514  0.5446
   12CHTO   C47 4898   7.478  -1.386   2.691  0.1699 -0.8170 -0.5315
   12CHTO   H89 4899   7.584  -1.414   2.711  0.8545  1.4378 -0.8550
   12CHTO   O33 4900   7.442  -1.438   2.560 -0.1864  0.2200 -0.0515
   12CHTO   H70 4901   7.422  -1.530   2.563 -2.2533  0.6852  0.6231
   12CHTO   C45 4902   7.368  -1.437   2.791 -0.5617 -0.5706  0.8004
   12CHTO   H87 4903   7.278  -1.470   2.737 -1.3076  1.7872  0.5351
   12CHTO    N8 4904   7.421  -1.558   2.859  0.5446  0.0811  0.7449
   12CHTO   H75 4905   7.511  -1.540   2.917 -0.0943  1.6320  1.2670
   12CHTO   H76 4906   7.344  -1.588   2.929 -0.8641  0.5227 -0.5888
   12CHTO   C43 4907   7.323  -1.320   2.890 -0.6939 -0.2527  0.3403
   12CHTO   H85 4908   7.262  -1.246   2.838  3.0701  1.7660 -1.3681
   12CHTO   O29 4909   7.448  -1.255   2.930 -0.0162 -0.2715 -0.1063
   12CHTO   C50 4910   7.513  -1.182   2.828 -0.2761  0.6432 -0.2412
   12CHTO   H92 4911   7.468  -1.082   2.820  0.3888  0.7860 -2.2580
   12CHTO   C54 4912   7.655  -1.160   2.891 -0.3050 -0.5404 -0.3349
   12CHTO   O36 4913   7.647  -1.048   2.982 -0.0955 -0.1006 -0.3493
   12CHTO   H72 4914   7.697  -0.976   2.951  2.5075 -1.3579  0.7652
   12CHTO   O27 4915   7.251  -1.358   3.005 -0.3300 -1.1631 -0.4062
   12CHTO   C37 4916   7.184  -1.337   3.126  0.4403 -0.3347 -0.3774
   12CHTO   H79 4917   7.249  -1.377   3.205  0.8500 -0.8641 -0.9730
   12CHTO   C38 4918   7.148  -1.181   3.146 -0.1016  0.3057 -0.0208
   12CHTO   H80 4919   7.089  -1.151   3.058 -2.7132 -3.7995  0.1815
   12CHTO   O31 4920   7.272  -1.105   3.143 -0.4396 -0.3311  1.2656
   12CHTO   H68 4921   7.332  -1.127   3.212  3.0529  0.7513 -1.2893
   12CHTO   C39 4922   7.063  -1.161   3.276 -0.3774  0.3965 -0.2845
   12CHTO   H81 4923   7.123  -1.179   3.366  0.2712  1.2967 -0.5264
   12CHTO    N7 4924   7.021  -1.015   3.289 -0.6982 -0.0891  0.4259
   12CHTO   H73 4925   6.949  -1.022   3.368 -1.7460 -0.9867 -0.5864
   12CHTO   H74 4926   7.107  -0.967   3.333 -1.3655  1.1634  0.3966
   12CHTO   C40 4927   6.946  -1.262   3.279 -0.1365  0.1540  0.3711
   12CHTO   H82 4928   6.867  -1.239   3.207  0.1629 -0.7898 -0.2794
   12CHTO   O26 4929   6.991  -1.395   3.259  0.4176 -0.1506 -0.1393
   12CHTO   C41 4930   7.054  -1.420   3.130  0.1395  0.3066 -0.2446
   12CHTO   H83 4931   6.988  -1.389   3.048  0.8504 -1.6129 -1.5660
   12CHTO   C52 4932   7.081  -1.576   3.108 -0.7608 -0.1010 -0.0690
   12CHTO   O35 4933   6.984  -1.664   3.131  0.0363  0.1229 -0.1507
   12CHTO   H71 4934   7.004  -1.755   3.132 -0.3683  0.0308 -0.5038
   12CHTO   O28 4935   6.877  -1.264   3.399  0.3288  0.2548 -0.0795
   12CHTO   C42 4936   6.734  -1.261   3.419  0.1089  0.0928  0.1491
   12CHTO   H84 4937   6.722  -1.283   3.525  1.3049  1.2235  0.5485
   12CHTO   C44 4938   6.661  -1.369   3.346  0.4576  0.3815  0.9698
   12CHTO   H86 4939   6.679  -1.359   3.239 -1.5563 -1.8353  0.3745
   12CHTO   O32 4940   6.708  -1.496   3.390 -0.4259 -0.7907 -0.3316
   12CHTO   H69 4941   6.662  -1.561   3.340  0.0029  0.4796 -2.4437
   12CHTO   C48 4942   6.500  -1.358   3.362 -0.0316 -0.4535  0.2995
   12CHTO   H90 4943   6.490  -1.380   3.468  2.2428 -0.7074  0.4941
   12CHTO    N9 4944   6.426  -1.458   3.279 -0.9892 -0.0043  0.3269
   12CHTO   H77 4945   6.407  -1.414   3.182  2.7464  2.2740  0.5438
   12CHTO   H78 4946   6.476  -1.554   3.273 -1.0585  0.0321 -1.0364
   12CHTO   C51 4947   6.441  -1.216   3.335 -0.3183  0.0479 -0.3337
   12CHTO   H93 4948   6.444  -1.188   3.230 -0.9150  0.3387 -0.2763
   12CHTO   O30 4949   6.509  -1.120   3.420 -0.2298  0.2969  0.5502
   12CHTO   C46 4950   6.669  -1.121   3.392  0.4207  0.4856 -0.7808
   12CHTO   H88 4951   6.696  -1.088   3.292  2.2771  0.4390 -0.3166
   12CHTO   C53 4952   6.729  -1.025   3.487  0.4803 -0.5226  0.1550
   12CHTO   O72 4953   6.729  -0.895   3.421  0.0009 -0.1557 -0.3773
   12CHTO  H199 4954   6.754  -0.820   3.471  1.2012 -0.5806 -0.3319
   12CHTO   O22 4955   6.308  -1.215   3.392 -0.3380 -1.0523 -0.1768
   12CHTO   C31 4956   6.215  -1.099   3.398 -0.4749 -0.0809  0.1794
   12CHTO   H59 4957   6.120  -1.141   3.435 -1.0206  0.2160 -0.8695
   12CHTO   C29 4958   6.250  -0.984   3.493 -0.4681 -0.0159 -0.7621
   12CHTO   H57 4959   6.346  -0.940   3.461 -1.5034  1.8242 -1.4396
   12CHTO   O21 4960   6.277  -1.050   3.623 -0.2256 -0.4931 -0.0451
   12CHTO   H37 4961   6.326  -0.989   3.674 -0.2578 -1.0744  0.7008
   12CHTO   C27 4962   6.146  -0.867   3.491 -0.3935  0.1245 -0.4997
   12CHTO   H55 4963   6.055  -0.895   3.547  0.0248  1.3209  0.8216
   12CHTO    N5 4964   6.196  -0.744   3.565 -0.4415  0.3192 -0.2279
   12CHTO   H43 4965   6.119  -0.668   3.565 -0.6509  0.1595 -2.6197
   12CHTO   H44 4966   6.225  -0.781   3.662  0.1681 -1.1038 -0.9334
   12CHTO   C25 4967   6.096  -0.829   3.344  0.5871  0.4392 -0.4521
   12CHTO   H53 4968   6.177  -0.775   3.294 -0.6395  1.8455 -0.9683
   12CHTO   O17 4969   6.069  -0.949   3.270 -0.0506 -0.0951  0.2823
   12CHTO   C32 4970   6.179  -1.043   3.254  0.0135  0.7091  0.5258
   12CHTO   H60 4971   6.263  -0.988   3.213 -0.7066  0.6933 -1.0051
   12CHTO   C36 4972   6.146  -1.148   3.156  0.8492 -0.0300  0.2142
   12CHTO   O25 4973   6.123  -1.117   3.020  0.4879  0.5316  0.1710
   12CHTO   H40 4974   6.209  -1.125   2.983  0.5199 -0.0336  0.3633
   12CHTO   O15 4975   5.970  -0.733   3.363  0.0348 -0.4283  0.0676
   12CHTO   C19 4976   5.864  -0.716   3.261 -0.0454 -0.5748  0.0436
   12CHTO   H47 4977   5.798  -0.636   3.298  0.7295  0.1246 -0.0550
   12CHTO   C20 4978   5.924  -0.669   3.123 -0.5160 -0.4012 -0.3528
   12CHTO   H48 4979   5.987  -0.749   3.083  0.9797  0.1376  0.8931
   12CHTO   O19 4980   6.010  -0.557   3.161 -0.1163 -0.2617  0.2798
   12CHTO   H35 4981   6.096  -0.584   3.135 -0.9927 -1.3690 -1.5691
   12CHTO   C21 4982   5.816  -0.631   3.019  0.1599  0.3405  0.3828
   12CHTO   H49 4983   5.757  -0.548   3.058 -1.2456 -1.1038  1.3791
   12CHTO    N4 4984   5.865  -0.586   2.888  0.0631 -0.2549 -0.0233
   12CHTO   H41 4985   5.795  -0.607   2.809  0.4562  1.4943 -0.8471
   12CHTO   H42 4986   5.886  -0.481   2.894 -0.2661 -0.1175 -1.1574
   12CHTO   C22 4987   5.715  -0.751   3.014 -0.5968  0.2318 -0.1106
   12CHTO   H50 4988   5.756  -0.834   2.956 -1.2764  1.1841 -1.9944
   12CHTO   O14 4989   5.668  -0.805   3.139 -0.0544  0.2679  0.4439
   12CHTO   C23 4990   5.775  -0.838   3.231 -0.3261  0.3957 -0.6065
   12CHTO   H51 4991   5.829  -0.918   3.179 -0.5522 -0.2099  0.0853
   12CHTO   C34 4992   5.710  -0.898   3.359  0.4716 -0.2293 -0.6949
   12CHTO   O23 4993   5.800  -0.968   3.445 -0.3655  0.5072 -0.0505
   12CHTO   H38 4994   5.756  -0.994   3.523  0.4697  1.2898  0.7000
   12CHTO   O16 4995   5.602  -0.707   2.941  0.7011 -0.1418  0.3419
   12CHTO   C24 4996   5.552  -0.854   2.835 -0.2923 -0.3236 -0.3744
   12CHTO   H52 4997   5.608  -0.944   2.864  1.5862 -0.2163 -3.4845
   12CHTO   C26 4998   5.588  -0.827   2.691  0.1834  0.1003  0.3196
   12CHTO   H54 4999   5.545  -0.728   2.662 -1.4217 -1.1548 -1.7418
   12CHTO   O20 5000   5.729  -0.822   2.670 -0.4147 -0.0759 -0.0714
   12CHTO   H36 5001   5.746  -0.733   2.693 -1.8355 -0.4676  2.5570
   12CHTO   C30 5002   5.536  -0.934   2.591  0.2314 -0.0683  0.4042
   12CHTO   H58 5003   5.596  -1.027   2.595 -1.7343 -1.2948  1.8920
   12CHTO    N6 5004   5.549  -0.897   2.446 -0.3100 -0.1016 -0.0547
   12CHTO   H45 5005   5.549  -0.790   2.429  1.5830 -0.5990 -3.6590
   12CHTO   H46 5006   5.641  -0.928   2.399  0.9409  2.3763  0.6448
   12CHTO   C33 5007   5.384  -0.970   2.618 -0.3860  0.0498 -0.4605
   12CHTO   H61 5008   5.323  -0.880   2.601 -2.3612 -1.2013 -0.1017
   12CHTO   O18 5009   5.373  -0.999   2.760  0.5727 -0.0842  0.6814
   12CHTO   C28 5010   5.404  -0.884   2.848  0.9358 -1.0151  0.0962
   12CHTO   H56 5011   5.340  -0.799   2.824  2.3854  0.1879  0.3963
   12CHTO   C35 5012   5.387  -0.928   2.998  0.3193 -0.6677  0.3552
   12CHTO   O24 5013   5.267  -1.016   3.005 -0.1832 -0.2410 -0.0786
   12CHTO   H39 5014   5.204  -0.977   3.063 -0.0275 -1.3073  0.8146
   12CHTO    O9 5015   5.336  -1.077   2.530  0.0303 -0.0809 -0.2689
   12CHTO   C13 5016   5.381  -1.219   2.555  0.2610  0.0680  0.1854
   12CHTO   H26 5017   5.486  -1.220   2.592 -0.0764 -0.0481  1.1226
   12CHTO   C11 5018   5.369  -1.297   2.424  0.5813 -0.1714  0.6502
   12CHTO   H24 5019   5.432  -1.255   2.345  1.4875  1.4046  2.1669
   12CHTO    O8 5020   5.237  -1.282   2.372 -0.2201 -0.0969  0.3887
   12CHTO    H3 5021   5.172  -1.306   2.435 -1.0939  0.6570 -0.2144
   12CHTO    C9 5022   5.399  -1.451   2.447 -0.8066  0.3819  0.2345
   12CHTO   H22 5023   5.501  -1.455   2.490 -1.4559 -0.9573  1.7426
   12CHTO    N2 5024   5.426  -1.536   2.328  0.3884 -0.2994 -0.0087
   12CHTO   H10 5025   5.397  -1.499   2.231  1.1250 -0.6872 -0.3783
   12CHTO   H11 5026   5.396  -1.639   2.337 -0.8309  0.2982  3.7099
   12CHTO    C7 5027   5.306  -1.507   2.560 -0.6385  0.0508 -0.2725
   12CHTO   H20 5028   5.358  -1.602   2.580 -0.4553 -0.0386 -1.1298
   12CHTO    O4 5029   5.309  -1.423   2.680  0.3941  0.3111 -0.1907
   12CHTO   C14 5030   5.299  -1.276   2.666 -0.1160  0.3766  0.4822
   12CHTO   H27 5031   5.336  -1.225   2.757 -2.9485  0.6038  1.5454
   12CHTO   C18 5032   5.152  -1.240   2.654 -0.0696  0.3254  0.9342
   12CHTO   O13 5033   5.077  -1.280   2.774 -0.6041  0.1868  0.1824
   12CHTO    H7 5034   5.100  -1.371   2.782  3.7970  0.9946 -1.9080
   12CHTO    O2 5035   5.124  -1.533   2.515  0.3377 -0.4842 -0.3887
   12CHTO    C1 5036   5.085  -1.672   2.510 -0.0616  0.0917  0.1274
   12CHTO   H14 5037   5.172  -1.739   2.518 -1.1051 -1.7404 -3.0931
   12CHTO    C2 5038   5.011  -1.702   2.376 -0.3501  0.5347 -0.4681
   12CHTO   H15 5039   4.923  -1.636   2.373 -1.1238 -0.4082  0.8999
   12CHTO    O6 5040   5.098  -1.682   2.259 -0.2154 -0.0201 -0.2580
   12CHTO    H1 5041   5.116  -1.590   2.263 -1.3196  0.2098 -0.4240
   12CHTO    C3 5042   4.950  -1.854   2.372 -0.4221  0.1323  0.0909
   12CHTO   H16 5043   5.037  -1.922   2.368 -0.9631 -0.5879  0.4581
   12CHTO    N1 5044   4.857  -1.877   2.258  0.4213 -0.2621  0.3477
   12CHTO    H8 5045   4.844  -1.984   2.268 -1.2142  0.0488  1.6927
   12CHTO    H9 5046   4.758  -1.835   2.271  0.3425  0.2704 -1.7095
   12CHTO    C4 5047   4.882  -1.887   2.503  0.1614 -0.1221 -0.5817
   12CHTO   H17 5048   4.787  -1.834   2.509  1.8852  3.0052  0.1097
   12CHTO    O1 5049   4.958  -1.854   2.622 -0.3721 -1.0359 -0.0447
   12CHTO    C5 5050   4.984  -1.711   2.626  0.2759  0.4705  0.1710
   12CHTO   H18 5051   4.897  -1.648   2.612 -0.6971 -1.6070 -3.9466
   12CHTO   C16 5052   5.056  -1.693   2.766  0.2292  0.1964 -0.4492
   12CHTO   O11 5053   4.970  -1.709   2.882 -0.4125 -0.4086  0.6378
   12CHTO    H5 5054   4.922  -1.788   2.870  1.1546 -1.0259 -1.8381
   12CHTO    O3 5055   4.864  -2.031   2.506  0.4300  0.5521 -0.5472
   12CHTO    C6 5056   4.756  -2.085   2.594  0.3307  0.3150 -0.6791
   12CHTO   H19 5057   4.736  -2.004   2.664 -1.7629  1.1515 -2.1768
   12CHTO    C8 5058   4.622  -2.127   2.524  0.6141 -0.0007  0.0304
   12CHTO   H21 5059   4.646  -2.195   2.442  0.4726  0.7857 -0.6662
   12CHTO    O7 5060   4.564  -1.997   2.483  0.1055  0.0283  0.3841
   12CHTO    H2 5061   4.615  -1.957   2.416 -0.5539  0.7281  0.2969
   12CHTO   C12 5062   4.524  -2.206   2.611 -0.1223  0.4320 -0.1775
   12CHTO   H25 5063   4.480  -2.128   2.677 -1.5257  0.1604 -0.7836
   12CHTO    N3 5064   4.396  -2.264   2.542 -0.5117 -0.1688  0.0332
   12CHTO   H12 5065   4.415  -2.366   2.512  0.6883 -0.0783  0.4824
   12CHTO   H13 5066   4.309  -2.261   2.607 -0.9036 -0.8275 -0.4538
   12CHTO   C15 5067   4.600  -2.306   2.706 -0.6225 -0.3906 -0.1898
   12CHTO   H28 5068   4.626  -2.395   2.647 -0.0272  1.2767 -2.5020
   12CHTO   O10 5069   4.519  -2.360   2.834  0.0145 -0.4779  0.6371
   12CHTO    H4 5070   4.547  -2.446   2.860 -1.6255 -1.0751  0.4638
   12CHTO    O5 5071   4.713  -2.238   2.774  0.5111  0.5663 -0.1487
   12CHTO   C10 5072   4.810  -2.199   2.678  0.6198  0.0294  0.2461
   12CHTO   H23 5073   4.824  -2.286   2.614 -0.3032 -0.3204  0.5144
   12CHTO   C17 5074   4.940  -2.167   2.753  0.1469 -0.2998  0.2119
   12CHTO   O12 5075   5.060  -2.183   2.685  0.1634  0.4559  0.0500
   12CHTO    H6 5076   5.064  -2.274   2.662 -1.2908  0.3744  0.0620
   13CHTO  H203 5077   8.144   4.110   1.148  0.4758  0.4933  0.5862
   13CHTO   O82 5078   8.082   4.181   1.140 -0.0824 -0.1246 -0.6526
   13CHTO  C123 5079   8.125   4.310   1.187 -0.8691 -0.0967  0.3257
   13CHTO  H227 5080   8.223   4.330   1.142 -1.8392  2.6273 -0.7194
   13CHTO   O77 5081   8.023   4.391   1.132  0.0052  0.1694 -0.3163
   13CHTO  C118 5082   8.030   4.530   1.165  0.5149  0.2270  0.1143
   13CHTO  H222 5083   8.116   4.576   1.115 -0.6931  0.6729 -1.5968
   13CHTO  C125 5084   7.893   4.595   1.122 -0.3282 -0.1896  0.1985
   13CHTO   O84 5085   7.787   4.506   1.154 -0.2741 -0.3253 -0.4075
   13CHTO  H205 5086   7.710   4.534   1.108 -1.4307 -0.0823  1.6000
   13CHTO  C114 5087   8.052   4.559   1.317  1.0100 -0.5875  0.6952
   13CHTO  H218 5088   7.961   4.527   1.368  0.8723  0.4703  1.1160
   13CHTO  C116 5089   8.161   4.475   1.371 -0.8956  0.5241 -0.4900
   13CHTO  H220 5090   8.260   4.507   1.335 -1.3911 -0.3040 -2.6157
   13CHTO   O79 5091   8.157   4.506   1.514  0.0602  0.8481  0.1402
   13CHTO  H201 5092   8.239   4.485   1.555 -0.3283 -1.5123 -0.2693
   13CHTO  C120 5093   8.130   4.324   1.339  0.1424 -0.9588 -0.2539
   13CHTO  H224 5094   8.027   4.316   1.381 -1.6498 -0.2218 -4.3260
   13CHTO   N21 5095   8.225   4.235   1.411  0.0000  0.2200 -0.5673
   13CHTO  H211 5096   8.238   4.142   1.356 -0.4230  0.5326 -1.2035
   13CHTO  H212 5097   8.321   4.282   1.421 -0.6727  1.8582 -1.6333
   13CHTO   O75 5098   8.077   4.702   1.317  0.0598  0.2446  0.0787
   13CHTO  C112 5099   7.994   4.788   1.410 -0.4973 -0.1162 -0.2608
   13CHTO  H216 5100   8.051   4.799   1.503 -2.4075  0.0300  0.8994
   13CHTO   O73 5101   7.867   4.726   1.429  0.2308  0.2915  0.0975
   13CHTO  C113 5102   7.780   4.805   1.514 -0.5753  0.4981  0.7199
   13CHTO  H217 5103   7.824   4.816   1.615  2.6156  0.6099 -0.6136
   13CHTO  C124 5104   7.655   4.720   1.536  0.3505  0.0967 -0.6825
   13CHTO   O83 5105   7.600   4.678   1.417 -0.3679 -0.6683 -0.5314
   13CHTO  H204 5106   7.648   4.609   1.374 -0.0654  1.2984 -3.4593
   13CHTO  C109 5107   7.739   4.939   1.455 -0.3260 -0.3556  0.2384
   13CHTO  H213 5108   7.686   4.918   1.361 -0.4029  0.9852 -0.0265
   13CHTO  C110 5109   7.866   5.017   1.421 -0.6527  0.2476 -0.4344
   13CHTO  H214 5110   7.909   5.064   1.509 -0.2864  0.3977 -0.6910
   13CHTO   O78 5111   7.829   5.129   1.344  0.3481 -0.4221 -0.3863
   13CHTO  H200 5112   7.794   5.096   1.263 -1.1311 -1.5743  0.7076
   13CHTO  C111 5113   7.965   4.928   1.343 -0.0423 -0.4796  0.4132
   13CHTO  H215 5114   7.918   4.898   1.249  1.0614  0.5654 -0.4900
   13CHTO   N19 5115   8.095   4.995   1.312 -0.4325 -0.2696 -0.6511
   13CHTO  H207 5116   8.087   5.103   1.319 -2.4499 -0.4952  0.7621
   13CHTO  H208 5117   8.170   4.971   1.386  0.9359 -1.1708 -2.2991
   13CHTO   O74 5118   7.652   5.007   1.546  0.3491  0.6285  0.0623
   13CHTO  C115 5119   7.567   5.096   1.471  0.2086 -0.3075  0.5420
   13CHTO  H219 5120   7.620   5.138   1.385  0.6827 -1.0169  0.4902
   13CHTO   O76 5121   7.443   5.021   1.407  0.5295 -0.6662 -0.2911
   13CHTO  C122 5122   7.359   4.968   1.514  0.1116  0.5053  0.4721
   13CHTO  H226 5123   7.414   4.892   1.570  1.1213  1.4683  0.8112
   13CHTO  C126 5124   7.238   4.908   1.447  0.1288  0.3067  0.3682
   13CHTO   O85 5125   7.262   4.779   1.381  0.2588  0.2731 -1.2370
   13CHTO  H206 5126   7.331   4.780   1.318  0.9541 -1.9827 -0.5837
   13CHTO  C121 5127   7.312   5.082   1.620  0.1957 -0.3045  0.0100
   13CHTO  H225 5128   7.202   5.088   1.614  0.0613 -0.5091  2.0354
   13CHTO   O81 5129   7.346   5.042   1.752 -0.4438 -0.2474 -0.2789
   13CHTO  H202 5130   7.432   5.004   1.744 -0.1457  1.0070 -3.2806
   13CHTO  C119 5131   7.375   5.223   1.585  1.0661 -0.3445  0.3329
   13CHTO  H223 5132   7.337   5.260   1.490 -1.8206 -1.6982  0.8863
   13CHTO  C117 5133   7.539   5.220   1.571  0.7875  0.0640  0.8257
   13CHTO  H221 5134   7.595   5.193   1.660  1.4354 -1.7178 -0.1065
   13CHTO   N20 5135   7.598   5.345   1.525 -0.1302  0.2294  0.3984
   13CHTO  H209 5136   7.638   5.342   1.425 -1.8493 -0.2518 -0.2885
   13CHTO  H210 5137   7.530   5.427   1.541  0.3794  0.3225  2.2578
   13CHTO   O80 5138   7.318   5.334   1.681  0.1365 -0.5298 -0.1899
   13CHTO  C103 5139   7.218   5.451   1.632  0.5203  0.6725 -0.3015
   13CHTO  H190 5140   7.222   5.525   1.712 -1.5486  0.0237  0.4315
   13CHTO  C101 5141   7.260   5.525   1.496  0.6260 -0.4500 -0.4105
   13CHTO  H188 5142   7.270   5.451   1.416  0.5289 -0.8441 -0.0615
   13CHTO   O68 5143   7.402   5.619   1.494 -0.2381 -0.1749 -0.2935
   13CHTO  H168 5144   7.476   5.563   1.505 -1.7347 -2.5105 -1.6781
   13CHTO   C99 5145   7.141   5.610   1.443  0.2214  0.1099 -0.1134
   13CHTO  H186 5146   7.118   5.691   1.516  2.3592  1.6395 -1.0809
   13CHTO   N17 5147   7.153   5.677   1.311 -0.5500 -0.2665 -0.2403
   13CHTO  H174 5148   7.142   5.781   1.336 -0.1175 -0.3677  0.3780
   13CHTO  H175 5149   7.251   5.659   1.271  0.4221  0.1391  1.8970
   13CHTO   C97 5150   7.008   5.532   1.438  0.1001 -0.4210  0.0379
   13CHTO  H184 5151   7.018   5.451   1.364  0.7649  0.4026 -0.7860
   13CHTO   O64 5152   6.979   5.480   1.572 -0.0238  0.2000 -0.2692
   13CHTO  C104 5153   7.070   5.392   1.632 -0.4838  0.0111 -0.5972
   13CHTO  H191 5154   7.067   5.292   1.588 -1.3411 -0.6723  0.9726
   13CHTO  C108 5155   7.032   5.371   1.779  0.6189 -0.1676 -0.1052
   13CHTO   O71 5156   6.911   5.297   1.794 -0.2197 -0.7321  0.1422
   13CHTO  H171 5157   6.854   5.328   1.862  0.1759 -0.1955  0.2318
   13CHTO   O62 5158   6.891   5.620   1.414 -0.1294 -0.5828 -0.3881
   13CHTO   C91 5159   6.772   5.552   1.377 -0.1829 -0.1374  0.1965
   13CHTO  H178 5160   6.782   5.443   1.383  0.5661 -0.0828 -0.0657
   13CHTO   C92 5161   6.742   5.583   1.228 -0.4430  0.8634  0.7888
   13CHTO  H179 5162   6.733   5.692   1.222 -1.6669  0.7711  0.9938
   13CHTO   O66 5163   6.863   5.536   1.156  0.9027  0.3524  0.0561
   13CHTO  H166 5164   6.872   5.575   1.071 -1.3351  2.0566  0.5326
   13CHTO   C93 5165   6.607   5.523   1.165  0.7083  0.1745  0.1865
   13CHTO  H180 5166   6.615   5.414   1.158 -0.5812  0.0776  0.0143
   13CHTO   N16 5167   6.568   5.575   1.035 -0.6240  0.2960  0.0185
   13CHTO  H172 5168   6.541   5.678   1.053  1.3923  1.3732 -2.7025
   13CHTO  H173 5169   6.479   5.521   1.010 -0.3643 -0.9367  1.6752
   13CHTO   C94 5170   6.496   5.551   1.270 -0.3801  0.0301 -0.2233
   13CHTO  H181 5171   6.472   5.658   1.274 -0.0078  0.1366 -0.7723
   13CHTO   O61 5172   6.535   5.516   1.407 -0.0589 -0.1479 -0.0959
   13CHTO   C95 5173   6.645   5.592   1.453  0.0833  0.3300 -0.4746
   13CHTO  H182 5174   6.619   5.697   1.440  0.6509  0.3979 -1.1065
   13CHTO  C106 5175   6.651   5.579   1.605 -0.2923 -0.3259 -0.2603
   13CHTO   O69 5176   6.763   5.642   1.671 -0.2015  0.3169  0.6425
   13CHTO  H169 5177   6.773   5.734   1.654 -0.7993  0.5543  1.5622
   13CHTO   O63 5178   6.366   5.458   1.233  0.3131  0.4057  0.2624
   13CHTO   C96 5179   6.244   5.528   1.296  0.7573  1.2897  0.2194
   13CHTO  H183 5180   6.257   5.634   1.278  0.1797  1.3013 -0.1436
   13CHTO   C98 5181   6.226   5.493   1.454 -0.2777 -0.3656 -0.0545
   13CHTO  H185 5182   6.314   5.521   1.513 -1.3125  1.3788  0.7307
   13CHTO   O67 5183   6.120   5.570   1.507  0.3534  0.1418  0.0677
   13CHTO  H167 5184   6.139   5.659   1.529 -0.5890  0.8390 -1.8098
   13CHTO  C102 5185   6.189   5.343   1.480 -0.1561  0.8480 -0.1761
   13CHTO  H189 5186   6.154   5.339   1.584  0.8442  2.4832  0.2396
   13CHTO   N18 5187   6.304   5.249   1.470 -0.3749  0.0652  0.1615
   13CHTO  H176 5188   6.390   5.287   1.416 -1.3431  2.0591 -0.0343
   13CHTO  H177 5189   6.342   5.210   1.563 -0.0244 -0.5738 -0.2483
   13CHTO  C105 5190   6.068   5.310   1.384 -0.1651 -0.5889  0.7187
   13CHTO  H192 5191   6.091   5.222   1.324 -0.9031 -1.7236  2.0919
   13CHTO   O65 5192   6.021   5.416   1.297 -0.1270  0.2643  0.3454
   13CHTO  C100 5193   6.123   5.470   1.211  0.3595  0.4654 -0.4458
   13CHTO  H187 5194   6.158   5.393   1.141 -1.2261  1.2577 -2.1376
   13CHTO  C107 5195   6.064   5.578   1.117 -0.4476 -0.0562  0.4566
   13CHTO   O70 5196   5.958   5.519   1.033 -0.4074  0.1491  0.5538
   13CHTO  H170 5197   5.880   5.504   1.082 -0.4350  0.0006  0.4627
   13CHTO   O57 5198   5.955   5.261   1.495  0.0449 -0.0496  0.2137
   13CHTO   C85 5199   5.855   5.162   1.460  0.0479  0.3893 -0.7003
   13CHTO  H157 5200   5.865   5.142   1.351 -0.3517  0.9464 -0.8359
   13CHTO   C83 5201   5.702   5.218   1.474 -0.4254  0.1892  0.9636
   13CHTO  H155 5202   5.686   5.279   1.386 -5.1253 -1.5459  0.4696
   13CHTO   O56 5203   5.694   5.297   1.595  0.5609  0.1883 -0.4741
   13CHTO  H135 5204   5.630   5.364   1.579 -0.1634  0.1152  2.0348
   13CHTO   C81 5205   5.599   5.103   1.473  0.2665  0.4114  0.5769
   13CHTO  H153 5206   5.619   5.041   1.386  1.8270 -2.6938  3.0256
   13CHTO   N14 5207   5.456   5.143   1.472 -0.0127 -1.2264  0.7614
   13CHTO  H141 5208   5.436   5.211   1.553 -1.0473  1.5926 -1.7949
   13CHTO  H142 5209   5.412   5.183   1.383 -1.1623  2.0034  2.6932
   13CHTO   C79 5210   5.627   5.003   1.588 -0.5242 -0.2596  0.2527
   13CHTO  H151 5211   5.549   4.928   1.590 -0.5908 -0.2067 -0.3127
   13CHTO   O52 5212   5.756   4.936   1.567  0.1064  0.4074  0.1271
   13CHTO   C86 5213   5.870   5.023   1.543  0.7594 -0.2950 -0.9468
   13CHTO  H158 5214   5.903   5.039   1.647 -1.5817 -1.9498  0.0997
   13CHTO   C90 5215   5.981   4.935   1.477  1.0050 -0.3295  0.2228
   13CHTO   O60 5216   5.931   4.876   1.354  0.5448  0.2647 -0.1384
   13CHTO  H138 5217   5.921   4.942   1.288  1.7491 -0.0865 -0.6818
   13CHTO   O50 5218   5.623   5.062   1.723  0.2535 -0.5350  0.0573
   13CHTO   C73 5219   5.605   5.046   1.865 -0.1221 -0.1279 -0.2409
   13CHTO  H145 5220   5.614   4.938   1.887 -0.3972 -0.6998 -2.7803
   13CHTO   C74 5221   5.466   5.102   1.894 -0.3952  0.4219 -0.7566
   13CHTO  H146 5222   5.397   5.047   1.828 -0.3387  0.4342 -0.8254
   13CHTO   O54 5223   5.429   5.074   2.028 -0.2498 -0.1907 -0.2680
   13CHTO  H133 5224   5.437   4.982   2.044 -1.5670 -0.3170 -0.2710
   13CHTO   C75 5225   5.468   5.265   1.863  0.2401  0.9036  0.0290
   13CHTO  H147 5226   5.488   5.278   1.755 -0.7719  0.3565 -0.2270
   13CHTO   N13 5227   5.336   5.321   1.890 -0.1838  0.2592  1.0147
   13CHTO  H139 5228   5.323   5.417   1.842  0.5536  0.4746  1.2282
   13CHTO  H140 5229   5.258   5.255   1.856  0.7514 -0.0833 -0.5037
   13CHTO   C76 5230   5.588   5.337   1.949 -0.2911 -0.6048  0.2252
   13CHTO  H148 5231   5.555   5.334   2.053 -1.3835 -3.7518 -0.1555
   13CHTO   O49 5232   5.706   5.260   1.928 -0.4195 -0.0591  0.8484
   13CHTO   C77 5233   5.701   5.122   1.962 -0.9516  0.3290  0.6774
   13CHTO  H149 5234   5.682   5.113   2.069  1.7168 -0.0642  1.1493
   13CHTO   C88 5235   5.848   5.067   1.950  0.5128 -0.2582 -0.5548
   13CHTO   O58 5236   5.950   5.122   2.061  0.1962  0.2289 -0.4633
   13CHTO  H136 5237   6.027   5.069   2.057 -1.7520 -2.8511  1.3242
   13CHTO   O51 5238   5.623   5.478   1.897  0.4974 -0.5183  0.4860
   13CHTO   C78 5239   5.745   5.558   1.960 -0.0706  0.0696 -0.5091
   13CHTO  H150 5240   5.810   5.483   2.009 -0.4405  0.1449  0.1142
   13CHTO   C80 5241   5.694   5.661   2.060  0.2083 -0.4811 -0.2748
   13CHTO  H152 5242   5.630   5.732   2.003  0.6251  0.5420  0.5247
   13CHTO   O55 5243   5.618   5.601   2.161 -0.1931  0.0825 -0.8083
   13CHTO  H134 5244   5.585   5.661   2.225  2.5660  1.4002 -0.5597
   13CHTO   C84 5245   5.803   5.761   2.114 -0.5438  1.2110 -0.1528
   13CHTO  H156 5246   5.850   5.705   2.195  2.1146 -0.8900 -3.0807
   13CHTO   N15 5247   5.755   5.880   2.191  0.2119  0.5134 -0.0478
   13CHTO  H143 5248   5.839   5.939   2.222 -0.0039  2.1662 -2.4834
   13CHTO  H144 5249   5.691   5.853   2.272 -1.1179  1.7411 -0.6508
   13CHTO   C87 5250   5.918   5.800   2.011  0.2151  0.2090  0.2184
   13CHTO  H159 5251   5.893   5.892   1.960 -1.5134 -1.1582 -1.4572
   13CHTO   O53 5252   5.940   5.693   1.892  0.3273 -0.0293  0.2599
   13CHTO   C82 5253   5.818   5.628   1.844 -0.4492  0.4294 -0.5323
   13CHTO  H154 5254   5.747   5.695   1.794 -1.0222  0.6868  0.6039
   13CHTO   C89 5255   5.858   5.521   1.738  0.7802 -0.4918 -0.1079
   13CHTO   O59 5256   5.921   5.401   1.788 -0.2114 -0.3306  0.0645
   13CHTO  H137 5257   5.867   5.361   1.854 -0.4634 -1.2283 -0.6802
   13CHTO   O45 5258   6.075   5.832   2.092 -0.5051 -0.1506 -0.0641
   13CHTO   C67 5259   6.132   5.713   2.135 -0.3595 -0.1194 -0.2877
   13CHTO  H124 5260   6.061   5.633   2.115 -0.0283 -0.7686  1.0926
   13CHTO   C65 5261   6.269   5.690   2.054  0.1752  0.9888 -0.1645
   13CHTO  H122 5262   6.254   5.741   1.959 -0.1662  1.0553 -0.0751
   13CHTO   O44 5263   6.295   5.547   2.037 -0.6318 -0.1366  0.4466
   13CHTO  H102 5264   6.302   5.514   2.125 -0.1152  1.6429  1.0826
   13CHTO   C63 5265   6.379   5.773   2.123  0.7488  0.6082  0.0353
   13CHTO  H120 5266   6.344   5.874   2.140 -1.8597 -0.3704  0.7551
   13CHTO   N11 5267   6.505   5.796   2.046  0.4434  0.2707 -0.4906
   13CHTO  H108 5268   6.581   5.734   2.089 -0.5119  0.4405  1.5401
   13CHTO  H109 5269   6.486   5.798   1.941  0.3963 -2.2259 -0.5628
   13CHTO   C61 5270   6.405   5.720   2.267 -0.0307  0.7648 -0.5546
   13CHTO  H118 5271   6.476   5.789   2.315  1.0723  0.1904 -1.3360
   13CHTO   O40 5272   6.283   5.731   2.350  0.4699 -0.1772 -0.2226
   13CHTO   C68 5273   6.150   5.697   2.292  0.0666  0.0303  0.0765
   13CHTO  H125 5274   6.070   5.766   2.327  1.8094  2.2967 -0.3357
   13CHTO   C72 5275   6.117   5.555   2.340 -0.1804  0.7283 -0.4274
   13CHTO   O48 5276   5.978   5.522   2.346 -0.3429 -0.1669  0.1698
   13CHTO  H105 5277   5.950   5.495   2.431 -1.7740  0.2519 -0.1519
   13CHTO   O38 5278   6.455   5.580   2.279 -0.2996  0.2719 -0.4351
   13CHTO   C55 5279   6.537   5.542   2.392 -0.8018 -0.3518 -0.1530
   13CHTO  H112 5280   6.545   5.435   2.368  0.9437  0.1635 -2.0051
   13CHTO   C56 5281   6.483   5.565   2.541 -0.1637 -0.9529 -0.8036
   13CHTO  H113 5282   6.458   5.672   2.543  0.0479 -0.9261  0.8890
   13CHTO   O42 5283   6.365   5.477   2.562 -0.2738 -0.3843  0.0510
   13CHTO  H100 5284   6.326   5.507   2.642 -0.0295 -0.4774  0.2037
   13CHTO   C57 5285   6.597   5.527   2.649 -0.1481  0.3330  0.1307
   13CHTO  H114 5286   6.620   5.421   2.640  0.4149  0.4606  0.0237
   13CHTO   N10 5287   6.558   5.556   2.790  0.5074 -0.1198 -0.5885
   13CHTO  H106 5288   6.636   5.577   2.862  0.8085 -1.4184 -0.5240
   13CHTO  H107 5289   6.504   5.470   2.827  2.0568 -0.8885 -0.0720
   13CHTO   C58 5290   6.726   5.599   2.613  0.9237 -0.0384  0.1918
   13CHTO  H115 5291   6.708   5.708   2.604 -2.4703 -0.6378 -0.8991
   13CHTO   O37 5292   6.771   5.559   2.481  0.1717 -0.0491  0.4733
   13CHTO   C59 5293   6.679   5.593   2.371 -0.4652  0.4151  0.1121
   13CHTO  H116 5294   6.669   5.702   2.363 -1.1564  0.4698  1.6952
   13CHTO   C70 5295   6.737   5.535   2.238  0.2309 -0.5414 -0.7519
   13CHTO   O46 5296   6.761   5.401   2.240  0.1254 -0.3034  0.1793
   13CHTO  H103 5297   6.779   5.376   2.329 -1.1639  1.4337  0.9777
   13CHTO   O39 5298   6.860   5.555   2.728 -0.1722  0.1438 -0.2257
   13CHTO   C60 5299   6.974   5.644   2.725  0.2260  0.1075 -0.5464
   13CHTO  H117 5300   7.014   5.664   2.626  1.3079  0.4741 -0.0473
   13CHTO   C62 5301   6.939   5.775   2.795  1.0401 -0.5039 -0.4086
   13CHTO  H119 5302   6.859   5.818   2.731  0.0177  0.8653  1.7102
   13CHTO   O43 5303   6.889   5.758   2.936  0.1092  0.4549 -0.1125
   13CHTO  H101 5304   6.913   5.828   2.994 -0.0982  1.1711 -0.8693
   13CHTO   C66 5305   7.066   5.873   2.793 -0.7743 -0.8205 -0.1049
   13CHTO  H123 5306   7.109   5.893   2.695  0.7342  2.0763  1.0786
   13CHTO   N12 5307   7.032   6.003   2.851  0.4597  0.1190  0.3313
   13CHTO  H110 5308   6.950   6.051   2.800  0.5870 -1.3577 -1.2967
   13CHTO  H111 5309   7.122   6.062   2.855  1.2375 -1.1125  1.7940
   13CHTO   C69 5310   7.181   5.813   2.870 -0.7788  0.0755 -0.2555
   13CHTO  H126 5311   7.147   5.810   2.976 -0.3353 -0.8100 -0.1359
   13CHTO   O41 5312   7.219   5.660   2.813 -0.1716 -0.3728 -0.3305
   13CHTO   C64 5313   7.087   5.570   2.807  0.2495 -0.2293 -0.2077
   13CHTO  H121 5314   7.049   5.562   2.911  0.3829 -1.5378 -0.2594
   13CHTO   C71 5315   7.132   5.433   2.743 -0.0080 -0.0439  0.0678
   13CHTO   O47 5316   7.227   5.368   2.829 -0.1227  0.0631  0.2796
   13CHTO  H104 5317   7.310   5.410   2.818  0.4039 -0.5844  1.7599
   13CHTO   O34 5318   7.319   5.901   2.851  0.7242  0.1409 -0.4818
   13CHTO   C49 5319   7.446   5.972   2.786 -0.2530  0.5056 -0.3125
   13CHTO   H91 5320   7.490   5.914   2.705 -0.2968 -0.2793  0.2229
   13CHTO   C47 5321   7.560   5.996   2.888  0.2674 -0.0428 -0.4874
   13CHTO   H89 5322   7.643   6.052   2.842  0.8282 -0.2364  0.2758
   13CHTO   O33 5323   7.610   5.865   2.934  0.1477  0.4415 -0.1348
   13CHTO   H70 5324   7.657   5.818   2.867  1.2880  0.4624  0.6437
   13CHTO   C45 5325   7.507   6.073   3.017  0.0205  0.2375  0.2681
   13CHTO   H87 5326   7.467   5.997   3.085  1.5278 -0.3643  0.5000
   13CHTO    N8 5327   7.616   6.148   3.091  0.2608  0.6248  0.2256
   13CHTO   H75 5328   7.657   6.233   3.038  1.9755 -1.3346 -1.6801
   13CHTO   H76 5329   7.587   6.177   3.191 -1.0200 -1.7527  0.5928
   13CHTO   C43 5330   7.382   6.167   2.974  0.3668 -0.2322 -0.6573
   13CHTO   H85 5331   7.291   6.107   2.982 -0.1209  0.4928 -0.7179
   13CHTO   O29 5332   7.405   6.215   2.838 -0.1780  0.5277 -0.0197
   13CHTO   C50 5333   7.403   6.113   2.736 -0.3414 -0.6217  0.1089
   13CHTO   H92 5334   7.296   6.113   2.709 -0.5113  3.2991  0.4861
   13CHTO   C54 5335   7.468   6.171   2.614 -0.5791 -0.7815 -0.2516
   13CHTO   O36 5336   7.378   6.259   2.549 -0.0972  0.0993 -0.0655
   13CHTO   H72 5337   7.382   6.247   2.456 -1.2477  0.5855 -0.1801
   13CHTO   O27 5338   7.354   6.284   3.063 -0.0278 -0.6294  0.0605
   13CHTO   C37 5339   7.328   6.423   3.044 -0.7828  0.7537  0.0354
   13CHTO   H79 5340   7.315   6.465   3.144 -0.1447  0.7396  0.1242
   13CHTO   C38 5341   7.455   6.488   2.986  0.9552 -0.2447 -0.0334
   13CHTO   H80 5342   7.471   6.440   2.888  1.6982  1.2731 -0.6693
   13CHTO   O31 5343   7.555   6.472   3.084  0.2379 -0.8481  0.6005
   13CHTO   H68 5344   7.591   6.388   3.102 -0.9012 -0.8715  3.0874
   13CHTO   C39 5345   7.424   6.640   2.948 -0.1846  0.0194  0.0812
   13CHTO   H81 5346   7.411   6.686   3.046 -1.6628 -0.8809  0.3235
   13CHTO    N7 5347   7.537   6.705   2.871  0.1366  0.3156  0.6090
   13CHTO   H73 5348   7.573   6.645   2.788 -1.1750 -0.0718  0.3126
   13CHTO   H74 5349   7.617   6.725   2.940 -1.0193  1.9232  1.5071
   13CHTO   C40 5350   7.285   6.647   2.864 -0.3358  0.3604 -0.5345
   13CHTO   H82 5351   7.301   6.602   2.766  1.2660  0.3579 -0.2765
   13CHTO   O26 5352   7.179   6.586   2.934  0.8095  0.3603  0.1748
   13CHTO   C41 5353   7.203   6.447   2.954  0.3035 -0.5990 -0.3968
   13CHTO   H83 5354   7.235   6.399   2.861  1.4176 -0.3016 -0.1783
   13CHTO   C52 5355   7.076   6.368   3.003  0.1143 -0.7471 -0.3620
   13CHTO   O35 5356   6.978   6.376   2.915  0.1346  0.1462 -0.3707
   13CHTO   H71 5357   6.918   6.444   2.940  0.7979  0.2450  1.0386
   13CHTO   O28 5358   7.234   6.779   2.833  0.0948 -0.0027  0.3837
   13CHTO   C42 5359   7.167   6.820   2.715  0.3699 -0.1797 -0.1804
   13CHTO   H84 5360   7.189   6.742   2.643 -2.7868  0.5126 -1.9638
   13CHTO   C44 5361   7.234   6.945   2.653 -0.7761  0.8832 -0.2769
   13CHTO   H86 5362   7.255   7.013   2.735  0.7691 -1.2828  1.2088
   13CHTO   O32 5363   7.366   6.901   2.607  0.6644  0.6426 -0.3423
   13CHTO   H69 5364   7.360   6.817   2.566  3.1288  0.2317  0.0863
   13CHTO   C48 5365   7.142   7.022   2.541 -0.2713  0.2441  0.5290
   13CHTO   H90 5366   7.149   6.965   2.448 -0.4320  1.1784 -0.0550
   13CHTO    N9 5367   7.196   7.156   2.506  0.1238 -0.1312 -0.1148
   13CHTO   H77 5368   7.189   7.218   2.594  1.1853  1.3062 -1.0231
   13CHTO   H78 5369   7.142   7.201   2.424  1.6298  0.9329 -0.5517
   13CHTO   C51 5370   6.992   7.022   2.591  0.1987  0.1160 -0.3358
   13CHTO   H93 5371   6.988   7.079   2.683  2.8149 -0.0377 -0.0872
   13CHTO   O30 5372   6.960   6.885   2.617  0.2353  0.1621  0.1665
   13CHTO   C46 5373   7.007   6.827   2.725 -0.4971 -0.1499  0.2918
   13CHTO   H88 5374   6.986   6.890   2.811  0.4396 -0.1738  0.5432
   13CHTO   C53 5375   6.947   6.685   2.729 -0.3800  0.5111  0.4191
   13CHTO   O72 5376   6.805   6.683   2.760 -0.5854  0.1692 -0.4446
   13CHTO  H199 5377   6.789   6.752   2.821  2.2659  0.0213  0.5287
   13CHTO   O22 5378   6.901   7.065   2.487  0.0292 -0.6621  0.2007
   13CHTO   C31 5379   6.767   7.128   2.504  0.0243  0.8723 -0.7146
   13CHTO   H59 5380   6.698   7.063   2.447  0.9924 -0.4363 -0.4144
   13CHTO   C29 5381   6.722   7.129   2.653  0.1191  0.3006  0.1940
   13CHTO   H57 5382   6.808   7.152   2.716 -0.6497 -0.7153  1.6481
   13CHTO   O21 5383   6.676   6.997   2.690 -0.0920 -0.1799  0.1986
   13CHTO   H37 5384   6.585   6.986   2.672  0.2185  1.7730 -3.0169
   13CHTO   C27 5385   6.603   7.226   2.685 -0.2645  0.3649 -0.2073
   13CHTO   H55 5386   6.508   7.176   2.663 -0.5277  0.4361  0.7421
   13CHTO    N5 5387   6.605   7.263   2.833 -0.7760 -0.1896 -0.5534
   13CHTO   H43 5388   6.505   7.301   2.848  0.1888  2.2797 -0.2260
   13CHTO   H44 5389   6.675   7.344   2.834  0.6950 -1.4355 -0.6088
   13CHTO   C25 5390   6.594   7.347   2.587  0.2090  0.2703  0.1524
   13CHTO   H53 5391   6.669   7.420   2.620  1.1932 -1.2642  1.3593
   13CHTO   O17 5392   6.621   7.310   2.449 -0.1249  0.1822  0.0793
   13CHTO   C32 5393   6.757   7.273   2.436 -0.0925  0.4987 -0.0871
   13CHTO   H60 5394   6.830   7.338   2.484  0.9237 -2.2512  2.2358
   13CHTO   C36 5395   6.772   7.266   2.278  0.0531 -0.1203 -1.3663
   13CHTO   O25 5396   6.868   7.165   2.226  0.0779  0.0540 -1.1465
   13CHTO   H40 5397   6.869   7.172   2.132  0.2285 -1.2311 -1.2507
   13CHTO   O15 5398   6.446   7.417   2.609 -0.3412 -0.1769  0.2930
   13CHTO   C19 5399   6.340   7.520   2.609 -0.4320  0.4779 -0.4077
   13CHTO   H47 5400   6.358   7.578   2.700 -2.1275 -0.2355  0.4216
   13CHTO   C20 5401   6.348   7.621   2.488  0.2390  0.6733  0.4538
   13CHTO   H48 5402   6.350   7.565   2.394 -0.6010 -2.9371  2.4954
   13CHTO   O19 5403   6.471   7.696   2.494 -0.3355 -0.3846 -0.5831
   13CHTO   H35 5404   6.456   7.781   2.530 -2.7278 -1.3816  0.8307
   13CHTO   C21 5405   6.216   7.714   2.482 -0.0178 -0.1786 -0.0904
   13CHTO   H49 5406   6.216   7.770   2.576 -0.2334 -1.5890  0.7817
   13CHTO    N4 5407   6.216   7.809   2.368 -0.5415 -0.0839 -0.0968
   13CHTO   H41 5408   6.222   7.772   2.267 -0.9532  0.8225 -0.4616
   13CHTO   H42 5409   6.135   7.881   2.367 -1.7909 -1.4861 -0.8552
   13CHTO   C22 5410   6.091   7.622   2.487  0.0033  0.1788  0.1290
   13CHTO   H50 5411   6.112   7.553   2.405 -2.8830 -1.3283  0.6045
   13CHTO   O14 5412   6.099   7.561   2.616 -0.1472  0.5643  0.3545
   13CHTO   C23 5413   6.197   7.459   2.618 -0.9938  1.3282 -0.3704
   13CHTO   H51 5414   6.179   7.383   2.540  0.6835 -0.8173  1.2814
   13CHTO   C34 5415   6.178   7.377   2.749  0.2128  0.3764  0.2012
   13CHTO   O23 5416   6.272   7.262   2.738  0.6294  0.5334  0.4498
   13CHTO   H38 5417   6.320   7.254   2.818  0.2210  1.0344  0.7551
   13CHTO   O16 5418   5.969   7.689   2.468 -0.3518 -0.2155 -0.2527
   13CHTO   C24 5419   5.855   7.609   2.496 -0.3939  0.1666  0.2426
   13CHTO   H52 5420   5.857   7.562   2.595 -1.6600  2.5384  1.4676
   13CHTO   C26 5421   5.838   7.500   2.384  0.7080 -0.5005  0.4576
   13CHTO   H54 5422   5.852   7.550   2.286  1.0217 -1.9424 -0.2399
   13CHTO   O20 5423   5.936   7.394   2.391 -0.3218 -0.1863 -0.1259
   13CHTO   H36 5424   5.907   7.328   2.331  2.9089 -1.3962 -0.4755
   13CHTO   C30 5425   5.694   7.438   2.378  1.0599  0.0422  0.0290
   13CHTO   H58 5426   5.689   7.359   2.455  2.8996 -1.4161 -1.3059
   13CHTO    N6 5427   5.671   7.374   2.246  0.2730 -0.5549  0.5588
   13CHTO   H45 5428   5.682   7.445   2.165  0.7326  1.2843  2.1800
   13CHTO   H46 5429   5.744   7.297   2.231 -0.4047 -0.7433 -2.1121
   13CHTO   C33 5430   5.579   7.533   2.410 -0.3138 -0.3118 -0.3923
   13CHTO   H61 5431   5.556   7.592   2.319  5.6991  0.3288 -1.7003
   13CHTO   O18 5432   5.613   7.633   2.515 -0.1078  0.0832  0.3244
   13CHTO   C28 5433   5.733   7.705   2.498  0.4581 -0.3291  0.1976
   13CHTO   H56 5434   5.738   7.756   2.402  3.1061  0.6621  0.8050
   13CHTO   C35 5435   5.745   7.793   2.624 -0.2579 -0.3843 -0.5278
   13CHTO   O24 5436   5.812   7.915   2.607 -0.4704  0.4649  0.2573
   13CHTO   H39 5437   5.784   7.976   2.673 -3.1416 -0.7576  0.2827
   13CHTO    O9 5438   5.455   7.466   2.438  0.7064  0.0062 -0.6755
   13CHTO   C13 5439   5.439   7.391   2.566 -0.6221  0.1138 -0.0830
   13CHTO   H26 5440   5.537   7.400   2.618 -0.4611  0.4914 -0.4483
   13CHTO   C11 5441   5.405   7.241   2.524 -0.1735  0.3697  0.0805
   13CHTO   H24 5442   5.494   7.188   2.486  0.3406  0.7607  0.7225
   13CHTO    O8 5443   5.300   7.235   2.430 -0.0577 -0.3668  0.5386
   13CHTO    H3 5444   5.227   7.267   2.479 -0.7365 -0.1665 -0.5752
   13CHTO    C9 5445   5.380   7.168   2.662 -0.7059  0.3361  0.1724
   13CHTO   H22 5446   5.471   7.192   2.720 -0.8955 -0.6908  0.9041
   13CHTO    N2 5447   5.385   7.021   2.648 -0.2223 -0.0532  0.3608
   13CHTO   H10 5448   5.457   6.974   2.583 -1.1952 -1.4255  0.2674
   13CHTO   H11 5449   5.290   6.974   2.625  0.4550 -2.3085  1.9329
   13CHTO    C7 5450   5.263   7.230   2.741 -0.2203 -0.4431  0.4466
   13CHTO   H20 5451   5.303   7.230   2.845 -3.0034 -0.7481  1.5617
   13CHTO    O4 5452   5.237   7.366   2.704  0.2627  0.5267 -0.5665
   13CHTO   C14 5453   5.336   7.459   2.658 -0.4701  0.2485  0.1319
   13CHTO   H27 5454   5.390   7.511   2.741 -0.6159 -0.2792  0.5592
   13CHTO   C18 5455   5.250   7.568   2.589 -0.5598  0.0306 -0.1066
   13CHTO   O13 5456   5.323   7.691   2.567 -0.5383 -0.0012 -0.1716
   13CHTO    H7 5457   5.409   7.678   2.532 -0.2770 -0.5352  0.6385
   13CHTO    O2 5458   5.130   7.156   2.745  0.4722  0.1420  0.3163
   13CHTO    C1 5459   5.083   7.143   2.884  0.8540  0.2779  0.1840
   13CHTO   H14 5460   5.107   7.236   2.941 -1.2991  2.4935 -2.3504
   13CHTO    C2 5461   5.143   7.016   2.962 -0.1179 -0.1505  0.3510
   13CHTO   H15 5462   5.127   6.931   2.895 -1.4466 -1.5472  2.4078
   13CHTO    O6 5463   5.289   7.032   2.987 -0.4368 -0.2301  0.1103
   13CHTO    H1 5464   5.308   7.076   3.067 -0.3875  1.5321 -0.8474
   13CHTO    C3 5465   5.072   6.990   3.095  0.6673  0.0012 -0.0947
   13CHTO   H16 5466   5.115   7.051   3.176  0.8306  1.1328 -1.0331
   13CHTO    N1 5467   5.101   6.850   3.147 -0.4944  0.0487  0.0404
   13CHTO    H8 5468   5.187   6.869   3.210  0.0604  0.1477 -0.7462
   13CHTO    H9 5469   5.015   6.814   3.203 -0.4265  0.8528  0.6746
   13CHTO    C4 5470   4.915   7.021   3.088  0.3517  0.1343  0.0074
   13CHTO   H17 5471   4.864   6.935   3.044  0.3981 -0.9063  1.9222
   13CHTO    O1 5472   4.889   7.147   3.018 -0.3594 -0.0279  0.1391
   13CHTO    C5 5473   4.925   7.148   2.880 -0.5647 -0.2906  0.6507
   13CHTO   H18 5474   4.893   7.064   2.819 -1.0988  0.1593  0.3021
   13CHTO   C16 5475   4.882   7.275   2.811  0.3496  0.2839 -0.6917
   13CHTO   O11 5476   4.742   7.299   2.826  0.2819  0.4949 -0.3204
   13CHTO    H5 5477   4.705   7.347   2.754  0.3133 -1.0944 -1.4300
   13CHTO    O3 5478   4.863   7.040   3.221 -0.0438  0.9259  0.2442
   13CHTO    C6 5479   4.722   7.005   3.263  0.1273 -0.8181 -0.0328
   13CHTO   H19 5480   4.652   7.038   3.185 -1.1663 -0.3465  1.3082
   13CHTO    C8 5481   4.718   6.853   3.308  0.1805  0.5587  0.1786
   13CHTO   H21 5482   4.799   6.840   3.380  1.3643  0.7321 -1.1103
   13CHTO    O7 5483   4.746   6.784   3.190  0.2224 -0.5660 -0.4536
   13CHTO    H2 5484   4.834   6.751   3.186  1.1174  1.5785  0.3612
   13CHTO   C12 5485   4.584   6.820   3.379 -0.0479 -0.4717 -0.6683
   13CHTO   H25 5486   4.496   6.820   3.311 -1.7779  2.3670  1.4768
   13CHTO    N3 5487   4.592   6.678   3.434 -0.6295  0.5492 -0.4225
   13CHTO   H12 5488   4.686   6.635   3.402 -0.7552  0.7298 -1.0554
   13CHTO   H13 5489   4.586   6.674   3.541  2.4074 -3.1477 -0.2693
   13CHTO   C15 5490   4.556   6.934   3.490  0.8283  0.2042  0.0842
   13CHTO   H28 5491   4.613   6.935   3.583 -1.1051 -0.5898  1.3048
   13CHTO   O10 5492   4.391   6.921   3.540 -0.5583  0.0225 -0.5151
   13CHTO    H4 5493   4.362   6.832   3.539  1.1874 -0.5778  0.2968
   13CHTO    O5 5494   4.567   7.066   3.432  0.2896  0.0172 -0.6173
   13CHTO   C10 5495   4.699   7.096   3.382  0.0779  0.2468 -0.0682
   13CHTO   H23 5496   4.774   7.064   3.455  0.8163 -0.1129 -0.9784
   13CHTO   C17 5497   4.728   7.244   3.358  0.5969 -0.2424 -0.1207
   13CHTO   O12 5498   4.644   7.306   3.262 -0.0533  0.2852  0.5869
   13CHTO    H6 5499   4.676   7.392   3.246  0.4461 -0.0982 -0.5431
   14CHTO  H203 5500   6.659   5.119   1.950 -0.1369 -0.2438 -0.4124
   14CHTO   O82 5501   6.631   5.191   2.003  0.3340  0.1587 -0.7113
   14CHTO  C123 5502   6.507   5.165   2.075 -0.4721  0.1505  0.0912
   14CHTO  H227 5503   6.480   5.257   2.129  1.2465  0.3175  0.6700
   14CHTO   O77 5504   6.416   5.145   1.972  0.2553 -0.0587  1.0243
   14CHTO  C118 5505   6.284   5.104   1.998 -0.4681 -0.0518 -0.0639
   14CHTO  H222 5506   6.225   5.163   2.069 -1.7074 -0.8547 -0.4178
   14CHTO  C125 5507   6.226   5.105   1.856 -0.4187  0.0727 -0.2506
   14CHTO   O84 5508   6.214   5.240   1.806 -0.0828  0.3203 -0.4432
   14CHTO  H205 5509   6.251   5.252   1.721 -0.4030  0.7975 -0.5178
   14CHTO  C114 5510   6.292   4.968   2.070 -0.8207  0.0284 -0.0266
   14CHTO  H218 5511   6.353   4.898   2.012  1.2878 -0.1805  2.3870
   14CHTO  C116 5512   6.376   4.985   2.206 -0.1150 -0.5114  0.3165
   14CHTO  H220 5513   6.325   5.048   2.281  1.3606 -1.1696  1.9048
   14CHTO   O79 5514   6.375   4.850   2.264 -0.1890  0.3175  0.0608
   14CHTO  H201 5515   6.421   4.850   2.345 -0.0739  1.5586  0.0000
   14CHTO  C120 5516   6.513   5.044   2.170 -0.1128 -0.0797  0.2693
   14CHTO  H224 5517   6.568   4.965   2.114  0.1138  1.6616 -2.0130
   14CHTO   N21 5518   6.596   5.076   2.285  0.0616 -0.4101  0.3029
   14CHTO  H211 5519   6.682   5.010   2.290 -0.1011 -0.9552 -3.0000
   14CHTO  H212 5520   6.547   5.087   2.381 -0.0202  0.2100  0.1914
   14CHTO   O75 5521   6.158   4.927   2.083  0.2499 -0.0562  0.1097
   14CHTO  C112 5522   6.114   4.762   2.055 -0.8632  0.3321  0.7479
   14CHTO  H216 5523   6.204   4.703   2.076  0.7117  2.1252 -0.7770
   14CHTO   O73 5524   6.073   4.755   1.915  0.2342 -0.1969 -0.6353
   14CHTO  C113 5525   6.028   4.626   1.871 -0.1418  0.6177  0.0737
   14CHTO  H217 5526   6.111   4.557   1.896  0.2715  1.0636 -0.0694
   14CHTO  C124 5527   6.008   4.629   1.716 -0.1943  0.5480 -0.6608
   14CHTO   O83 5528   6.048   4.507   1.655  0.3876  0.5105  0.5429
   14CHTO  H204 5529   5.994   4.444   1.698  1.4398 -1.0845 -0.4096
   14CHTO  C109 5530   5.893   4.590   1.938  0.2283 -0.0585 -0.0044
   14CHTO  H213 5531   5.823   4.669   1.908  0.1159  0.4509  1.5123
   14CHTO  C110 5532   5.918   4.601   2.092  0.1501  0.5706 -0.6752
   14CHTO  H214 5533   5.985   4.517   2.111 -0.5088  0.1768 -0.0397
   14CHTO   O78 5534   5.792   4.570   2.163  0.1977  0.0814  0.4178
   14CHTO  H200 5535   5.739   4.645   2.179 -0.4458 -0.4862  0.9630
   14CHTO  C111 5536   5.992   4.734   2.141 -0.0080  0.0256  0.4481
   14CHTO  H215 5537   5.921   4.817   2.126 -0.6874 -0.7386 -0.7077
   14CHTO   N19 5538   6.033   4.732   2.285  0.5565 -0.0459 -0.0429
   14CHTO  H207 5539   5.939   4.727   2.338 -0.5464  1.3661 -1.8313
   14CHTO  H208 5540   6.080   4.825   2.312  0.5667 -0.2834  0.7935
   14CHTO   O74 5541   5.837   4.461   1.914  0.2026  0.0408 -0.0865
   14CHTO  C115 5542   5.732   4.444   1.776  0.3666 -0.4453 -0.4593
   14CHTO  H219 5543   5.782   4.473   1.683  1.5272  1.8840  0.8302
   14CHTO   O76 5544   5.700   4.311   1.756  0.5574  0.2287  0.0254
   14CHTO  C122 5545   5.615   4.242   1.844  0.1810 -0.3371 -0.0274
   14CHTO  H226 5546   5.681   4.192   1.916  1.0121  0.0140 -0.5363
   14CHTO  C126 5547   5.540   4.125   1.772 -0.1029 -0.1743  0.2439
   14CHTO   O85 5548   5.636   4.039   1.704 -0.0987 -0.2225 -0.2556
   14CHTO  H206 5549   5.582   3.967   1.677  0.1630 -0.9009  1.0181
   14CHTO  C121 5550   5.500   4.340   1.902 -0.0571  0.0958 -0.1603
   14CHTO  H225 5551   5.402   4.288   1.910  0.0966 -0.2952 -0.7489
   14CHTO   O81 5552   5.518   4.406   2.027  0.2059 -0.0945 -0.1792
   14CHTO  H202 5553   5.502   4.350   2.101 -0.0714 -0.2840 -0.3831
   14CHTO  C119 5554   5.481   4.457   1.798 -0.0496 -0.7000 -0.0338
   14CHTO  H223 5555   5.478   4.404   1.703 -0.7032 -1.3070  0.3324
   14CHTO  C117 5556   5.616   4.548   1.801  0.2154 -0.9424  0.1928
   14CHTO  H221 5557   5.633   4.590   1.900 -0.2901 -1.4189  0.4904
   14CHTO   N20 5558   5.610   4.661   1.700 -0.7806 -0.2655  0.2809
   14CHTO  H209 5559   5.509   4.693   1.681 -0.8577 -0.0765  1.0249
   14CHTO  H210 5560   5.676   4.741   1.731 -2.2075  1.6664 -1.4733
   14CHTO   O80 5561   5.337   4.534   1.796 -0.0137  0.0843  0.3191
   14CHTO  C103 5562   5.271   4.581   1.664 -0.5689 -0.2633  0.2142
   14CHTO  H190 5563   5.345   4.642   1.611 -3.2749  2.8700 -0.1748
   14CHTO  C101 5564   5.218   4.473   1.566  0.1235  0.0739  0.5131
   14CHTO  H188 5565   5.160   4.402   1.625 -0.6567 -0.5020 -0.9260
   14CHTO   O68 5566   5.338   4.393   1.521 -0.5570 -0.2176 -0.0759
   14CHTO  H168 5567   5.307   4.333   1.456  0.1425 -0.4249 -0.2258
   14CHTO   C99 5568   5.128   4.546   1.455  0.2376 -0.7290  0.6641
   14CHTO  H186 5569   5.188   4.621   1.399 -0.6335 -0.4364  0.1093
   14CHTO   N17 5570   5.080   4.450   1.349  0.8355 -0.6299 -0.3512
   14CHTO  H174 5571   5.102   4.478   1.247  1.9296 -0.6581 -0.1316
   14CHTO  H175 5572   5.102   4.345   1.365 -0.7830 -1.2069 -1.8047
   14CHTO   C97 5573   5.019   4.630   1.523  0.6482 -0.4586 -0.3068
   14CHTO  H184 5574   4.954   4.563   1.581  1.1711 -0.3308  0.4389
   14CHTO   O64 5575   5.077   4.729   1.606  0.5183  0.4771 -0.0475
   14CHTO  C104 5576   5.150   4.678   1.722 -0.1499  0.1599 -0.0923
   14CHTO  H191 5577   5.090   4.626   1.797 -0.9536  0.3943 -0.5615
   14CHTO  C108 5578   5.202   4.807   1.789  0.2369 -0.1448 -0.0028
   14CHTO   O71 5579   5.309   4.862   1.703  0.1023 -0.5528 -0.1785
   14CHTO  H171 5580   5.389   4.815   1.715  0.2898 -0.5991 -1.6033
   14CHTO   O62 5581   4.939   4.701   1.422 -0.1172 -0.4554 -0.6194
   14CHTO   C91 5582   4.824   4.786   1.449 -0.1023 -0.5608 -0.2778
   14CHTO  H178 5583   4.767   4.743   1.532 -0.3762  1.9120  0.8660
   14CHTO   C92 5584   4.718   4.792   1.335  0.1652  0.0505  0.0582
   14CHTO  H179 5585   4.680   4.691   1.313 -2.1782  1.0340 -0.4940
   14CHTO   O66 5586   4.598   4.866   1.378 -0.2163  0.1654  0.3762
   14CHTO  H166 5587   4.539   4.887   1.308 -0.6463 -2.1646 -0.0038
   14CHTO   C93 5588   4.779   4.864   1.207 -0.2256 -0.0868  0.2491
   14CHTO  H180 5589   4.698   4.900   1.143 -1.2833 -0.1671  1.5168
   14CHTO   N16 5590   4.859   4.775   1.119  0.0149  0.3377 -0.0739
   14CHTO  H172 5591   4.966   4.788   1.121  0.2521 -1.2431 -1.5203
   14CHTO  H173 5592   4.818   4.778   1.019  0.0579 -0.0848 -0.1053
   14CHTO   C94 5593   4.858   4.993   1.255 -0.1073  0.2623 -0.2557
   14CHTO  H181 5594   4.964   4.971   1.265  0.3625  1.1098 -3.0172
   14CHTO   O61 5595   4.817   5.034   1.389  0.1965 -0.5920  0.0809
   14CHTO   C95 5596   4.865   4.939   1.489 -0.7574 -0.2706 -0.3014
   14CHTO  H182 5597   4.973   4.952   1.498 -0.8627 -1.0969  2.9394
   14CHTO  C106 5598   4.807   4.981   1.628  0.6511 -0.5812  0.4075
   14CHTO   O69 5599   4.854   5.112   1.671  0.1528 -0.3667  0.9109
   14CHTO  H169 5600   4.883   5.161   1.596  1.1265 -0.0608  1.4763
   14CHTO   O63 5601   4.835   5.108   1.161  0.0097 -0.6013  0.4118
   14CHTO   C96 5602   4.949   5.236   1.151 -0.2120  0.7017 -0.3487
   14CHTO  H183 5603   4.909   5.307   1.079  1.9153  2.3922  0.0972
   14CHTO   C98 5604   5.086   5.191   1.100  1.2169 -0.1605 -0.1758
   14CHTO  H185 5605   5.113   5.101   1.156 -1.8832 -0.5872  0.6721
   14CHTO   O67 5606   5.080   5.149   0.964 -0.4596  0.0766  0.0377
   14CHTO  H167 5607   5.155   5.181   0.917 -1.4718  3.8019  0.7433
   14CHTO  C102 5608   5.206   5.304   1.132 -0.6239 -1.0648 -0.1610
   14CHTO  H189 5609   5.190   5.386   1.060  0.5942 -0.4671  0.2358
   14CHTO   N18 5610   5.345   5.261   1.109  0.0666 -0.1475 -0.6659
   14CHTO  H176 5611   5.351   5.185   1.032  2.3027 -0.8420  0.1360
   14CHTO  H177 5612   5.387   5.221   1.201  0.9236 -0.1080 -1.0347
   14CHTO  C105 5613   5.195   5.369   1.269 -0.3666  0.7376  0.3270
   14CHTO  H192 5614   5.217   5.295   1.346  0.5633  1.2903  0.6088
   14CHTO   O65 5615   5.053   5.412   1.285 -0.1433  0.0639  0.7195
   14CHTO  C100 5616   4.955   5.312   1.295  0.2028  0.4095  0.0091
   14CHTO  H187 5617   4.994   5.248   1.375  0.7754 -0.2925 -0.8192
   14CHTO  C107 5618   4.819   5.371   1.322 -0.4684  0.0768  0.5542
   14CHTO   O70 5619   4.819   5.395   1.465 -0.1574 -0.0495  0.2992
   14CHTO  H170 5620   4.805   5.315   1.512  1.0599  1.0980  2.6903
   14CHTO   O57 5621   5.280   5.497   1.278 -0.2888  0.7820  0.2531
   14CHTO   C85 5622   5.361   5.514   1.395 -0.1918 -0.1606 -0.6627
   14CHTO  H157 5623   5.381   5.410   1.429 -0.2508  0.4353  1.2705
   14CHTO   C83 5624   5.279   5.596   1.507 -0.0391  0.4004 -0.3958
   14CHTO  H155 5625   5.198   5.532   1.540 -0.3297  2.6778  3.5971
   14CHTO   O56 5626   5.213   5.710   1.457 -0.3081 -0.1268 -0.0542
   14CHTO  H135 5627   5.170   5.687   1.377 -0.1518  0.6639 -0.3688
   14CHTO   C81 5628   5.375   5.611   1.629 -0.1102 -0.3847 -0.3454
   14CHTO  H153 5629   5.401   5.513   1.668 -0.0797  0.5089  1.9379
   14CHTO   N14 5630   5.313   5.678   1.746 -0.4972  0.5827 -0.6267
   14CHTO  H141 5631   5.238   5.617   1.792  0.2792 -0.7431 -1.0664
   14CHTO  H142 5632   5.271   5.774   1.725 -0.4439  0.7975  0.2630
   14CHTO   C79 5633   5.507   5.681   1.588  0.0948  0.1130  0.5277
   14CHTO  H151 5634   5.577   5.680   1.671  2.0817  0.9326 -1.1121
   14CHTO   O52 5635   5.580   5.609   1.482  0.0246 -0.4290 -0.2920
   14CHTO   C86 5636   5.495   5.591   1.367 -0.3071 -0.9950 -0.7797
   14CHTO  H158 5637   5.487   5.692   1.323 -2.0540  1.0994  4.0196
   14CHTO   C90 5638   5.584   5.511   1.275 -0.3090 -0.6185  0.3168
   14CHTO   O60 5639   5.701   5.583   1.228  0.0133  0.2110  0.0840
   14CHTO  H138 5640   5.753   5.522   1.179 -0.0542  1.2933 -1.3296
   14CHTO   O50 5641   5.487   5.816   1.549 -0.8002 -0.0021 -0.0221
   14CHTO   C73 5642   5.460   5.959   1.556  0.3525 -0.2340  0.7166
   14CHTO  H145 5643   5.374   5.972   1.622 -0.0351  0.5640  0.0574
   14CHTO   C74 5644   5.419   6.013   1.410 -0.1383 -0.0804 -0.0412
   14CHTO  H146 5645   5.334   5.952   1.375 -1.2482  1.8053 -0.6641
   14CHTO   O54 5646   5.379   6.155   1.400 -0.0007 -0.0192  0.5556
   14CHTO  H133 5647   5.287   6.165   1.386  0.7378  2.9262 -2.8875
   14CHTO   C75 5648   5.552   5.985   1.323  0.6147 -0.0529  0.0009
   14CHTO  H147 5649   5.570   5.876   1.323 -1.2429 -0.4000  1.7818
   14CHTO   N13 5650   5.539   6.019   1.178 -0.1796  0.5794 -1.2653
   14CHTO  H139 5651   5.477   5.944   1.131  0.1429 -0.8981  0.5965
   14CHTO  H140 5652   5.499   6.117   1.162 -1.0528  0.3900 -0.2845
   14CHTO   C76 5653   5.678   6.063   1.387 -0.0532  0.3074 -0.1892
   14CHTO  H148 5654   5.661   6.169   1.374 -2.0874 -0.1371 -1.3717
   14CHTO   O49 5655   5.694   6.037   1.529 -0.1281  0.2268  0.0553
   14CHTO   C77 5656   5.580   6.040   1.615  0.3217 -0.1062  0.2957
   14CHTO  H149 5657   5.551   6.144   1.632 -1.4702 -0.3951 -0.7784
   14CHTO   C88 5658   5.613   5.989   1.760  0.6197 -0.5063 -0.3766
   14CHTO   O58 5659   5.734   6.052   1.850  0.1677  0.5611 -0.4878
   14CHTO  H136 5660   5.732   6.145   1.863  0.4791  0.7876 -2.0023
   14CHTO   O51 5661   5.796   6.006   1.311  0.4614 -0.1683 -0.0482
   14CHTO   C78 5662   5.932   6.073   1.359 -0.6092 -0.2390  0.4786
   14CHTO  H150 5663   5.933   6.104   1.466  0.0288 -0.2650  0.4810
   14CHTO   C80 5664   5.956   6.206   1.278 -0.4868  0.0583  0.4136
   14CHTO  H152 5665   5.934   6.185   1.171 -1.7122  1.5588  0.3420
   14CHTO   O55 5666   5.862   6.308   1.326  0.5016 -0.0143 -0.2109
   14CHTO  H134 5667   5.836   6.367   1.257 -1.3404  1.0114  1.3099
   14CHTO   C84 5668   6.105   6.259   1.300 -0.0218  0.6667 -0.5681
   14CHTO  H156 5669   6.116   6.277   1.407  0.7705  1.2013 -0.7336
   14CHTO   N15 5670   6.134   6.386   1.219 -0.2083  0.4859 -0.1687
   14CHTO  H143 5671   6.064   6.465   1.237 -0.8685  0.0853 -0.9319
   14CHTO  H144 5672   6.228   6.429   1.246 -0.6580  1.4725 -0.1525
   14CHTO   C87 5673   6.202   6.142   1.273  0.2778 -0.5262  0.4375
   14CHTO  H159 5674   6.191   6.114   1.168  0.8623 -2.2013  0.8095
   14CHTO   O53 5675   6.172   6.008   1.372 -0.3768 -0.0280  0.2738
   14CHTO   C82 5676   6.037   5.962   1.348  0.1421 -0.3371  0.2392
   14CHTO  H154 5677   6.037   5.917   1.249 -1.4688 -0.0197  0.0881
   14CHTO   C89 5678   6.000   5.854   1.447  0.2963  0.1967 -0.2196
   14CHTO   O59 5679   6.021   5.897   1.583  0.1294 -0.9552  0.8213
   14CHTO  H137 5680   6.114   5.895   1.593  0.4900 -3.5157 -2.3199
   14CHTO   O45 5681   6.364   6.185   1.291  0.8034  0.0502 -0.0965
   14CHTO   C67 5682   6.449   6.068   1.272  0.2415 -1.1069 -0.0386
   14CHTO  H124 5683   6.406   5.990   1.334  0.8353 -2.2287 -1.0217
   14CHTO   C65 5684   6.452   6.017   1.126 -1.1928  0.1631  0.1154
   14CHTO  H122 5685   6.350   6.032   1.090 -0.7414  0.6400 -0.9912
   14CHTO   O44 5686   6.490   5.879   1.137 -0.0780  0.0263 -0.0925
   14CHTO  H102 5687   6.443   5.818   1.083  1.2991 -0.0537 -1.2029
   14CHTO   C63 5688   6.550   6.097   1.033  0.6297  0.2373  0.7857
   14CHTO  H120 5689   6.515   6.200   1.027  2.4988  0.9873  2.0459
   14CHTO   N11 5690   6.538   6.062   0.887  0.6990 -1.0893 -0.2586
   14CHTO  H108 5691   6.589   6.139   0.834 -0.4014 -0.7574 -0.8447
   14CHTO  H109 5692   6.601   5.980   0.859 -0.9970 -1.8807 -1.9178
   14CHTO   C61 5693   6.696   6.101   1.099  0.0439 -0.2373 -0.8469
   14CHTO  H118 5694   6.748   6.175   1.037 -1.1044  2.0303  0.7889
   14CHTO   O40 5695   6.690   6.148   1.232  0.0506  0.1315 -0.4618
   14CHTO   C68 5696   6.596   6.095   1.324  0.3809  0.6158 -0.3905
   14CHTO  H125 5697   6.585   6.171   1.404 -0.1898 -0.1325  0.2527
   14CHTO   C72 5698   6.650   5.967   1.401  0.2542  0.2837  0.2125
   14CHTO   O48 5699   6.565   5.918   1.512 -0.9579 -0.1649  0.5391
   14CHTO  H105 5700   6.593   5.829   1.525  0.6446  0.0687 -1.0044
   14CHTO   O38 5701   6.758   5.962   1.101  0.4494 -0.2536  0.1409
   14CHTO   C55 5702   6.882   5.963   1.024  0.1117 -0.6370  0.1393
   14CHTO  H112 5703   6.892   6.048   0.954  0.2984  1.3217  2.4609
   14CHTO   C56 5704   6.881   5.821   0.949  0.1537 -0.4499 -0.0049
   14CHTO  H113 5705   6.864   5.741   1.023 -0.3514 -2.3492 -2.1317
   14CHTO   O42 5706   6.779   5.788   0.852  0.4726 -0.0687  0.2077
   14CHTO  H100 5707   6.792   5.704   0.813 -1.7162 -1.0026  1.4004
   14CHTO   C57 5708   7.026   5.803   0.886 -0.4765 -0.3471 -0.1459
   14CHTO  H114 5709   7.039   5.877   0.808 -0.3627 -1.1582 -0.9107
   14CHTO   N10 5710   7.047   5.666   0.830  0.0707  0.4690 -0.0300
   14CHTO  H106 5711   7.088   5.608   0.912 -2.3410 -1.2758 -0.0092
   14CHTO  H107 5712   7.122   5.673   0.753 -1.2743 -1.7624 -1.5800
   14CHTO   C58 5713   7.132   5.831   0.992 -0.0350 -0.6989 -0.6152
   14CHTO  H115 5714   7.123   5.763   1.079 -0.9091  0.9494  0.5992
   14CHTO   O37 5715   7.120   5.963   1.034  0.6366  0.0464 -0.2507
   14CHTO   C59 5716   7.005   5.978   1.122  0.3231 -0.0110  0.3070
   14CHTO  H116 5717   7.013   5.912   1.209 -0.5474 -1.0405 -0.3785
   14CHTO   C70 5718   7.013   6.126   1.170 -0.1697 -0.0158 -0.0462
   14CHTO   O46 5719   7.129   6.164   1.247 -0.0228 -0.1447  1.0693
   14CHTO  H103 5720   7.204   6.134   1.201 -0.0354  1.9138 -0.3494
   14CHTO   O39 5721   7.288   5.827   0.934  0.8762  0.4518 -0.3097
   14CHTO   C60 5722   7.375   5.772   1.036 -0.3207  0.8189  0.1068
   14CHTO  H117 5723   7.351   5.803   1.138 -0.6435 -1.2047  0.6748
   14CHTO   C62 5724   7.367   5.611   1.030  0.5493  0.0417  0.0414
   14CHTO  H119 5725   7.268   5.578   1.067  1.5096 -1.6586  1.1438
   14CHTO   O43 5726   7.373   5.575   0.887  0.1749 -0.4270 -0.5510
   14CHTO  H101 5727   7.331   5.493   0.870  1.9449 -1.5777  0.3392
   14CHTO   C66 5728   7.488   5.550   1.115 -0.3629 -0.0400  0.2164
   14CHTO  H123 5729   7.471   5.584   1.217 -0.8615  1.9490 -0.5183
   14CHTO   N12 5730   7.490   5.400   1.129 -0.4610  0.2827 -0.1086
   14CHTO  H110 5731   7.493   5.345   1.035  1.0497 -1.6454  1.0325
   14CHTO  H111 5732   7.430   5.351   1.205  0.0418 -0.5247 -0.2250
   14CHTO   C69 5733   7.623   5.608   1.067 -0.5559  0.6547 -0.1848
   14CHTO  H126 5734   7.626   5.597   0.957  0.2392 -2.1240  0.0883
   14CHTO   O41 5735   7.610   5.776   1.093 -0.1118  0.6287 -0.2585
   14CHTO   C64 5736   7.512   5.828   1.005  0.0277  0.0047 -0.1913
   14CHTO  H121 5737   7.534   5.798   0.901  2.7197 -0.0617  0.3727
   14CHTO   C71 5738   7.520   5.980   1.004 -0.7249 -0.1368 -0.0510
   14CHTO   O47 5739   7.637   6.042   0.936 -0.2323  0.0984 -0.1346
   14CHTO  H104 5740   7.715   6.029   0.987 -0.3336 -0.3664 -0.0944
   14CHTO   O34 5741   7.745   5.546   1.141 -0.5626  0.1663  0.0456
   14CHTO   C49 5742   7.890   5.557   1.068  0.2794  0.1457 -0.0190
   14CHTO   H91 5743   7.877   5.494   0.979  2.4426 -0.8515  0.3383
   14CHTO   C47 5744   8.008   5.508   1.153 -0.4483 -0.1697 -0.1490
   14CHTO   H89 5745   8.099   5.510   1.091 -0.1694 -4.4544 -0.0157
   14CHTO   O33 5746   7.981   5.373   1.196 -0.0013 -0.6699  0.9590
   14CHTO   H70 5747   7.958   5.309   1.132  2.9110 -0.3608 -0.4545
   14CHTO   C45 5748   8.021   5.591   1.285 -0.2379  0.1411 -0.1893
   14CHTO   H87 5749   7.955   5.537   1.354 -1.5660  0.5613 -1.0911
   14CHTO    N8 5750   8.164   5.584   1.333  0.5733  0.9958  0.5456
   14CHTO   H75 5751   8.170   5.572   1.440  2.2704 -1.1549  0.2307
   14CHTO   H76 5752   8.226   5.669   1.311  0.1532  0.8076 -1.4127
   14CHTO   C43 5753   7.964   5.742   1.268 -0.4677  0.1261  0.4994
   14CHTO   H85 5754   7.856   5.743   1.286 -0.6304  0.5642 -0.4568
   14CHTO   O29 5755   7.994   5.784   1.132 -0.4494 -0.1852 -0.4438
   14CHTO   C50 5756   7.927   5.703   1.029 -1.0284 -0.2292 -0.0286
   14CHTO   H92 5757   7.833   5.756   1.009  0.8250  3.3872  0.3980
   14CHTO   C54 5758   8.004   5.726   0.900  0.4844 -0.0357  0.0789
   14CHTO   O36 5759   8.142   5.692   0.894  0.6920  0.0742 -0.3376
   14CHTO   H72 5760   8.176   5.754   0.832 -0.2093  1.9817  1.0015
   14CHTO   O27 5761   8.019   5.842   1.357 -0.8574  0.5988 -0.1157
   14CHTO   C37 5762   7.951   5.965   1.399  0.1715 -0.0483  0.5672
   14CHTO   H79 5763   8.019   6.037   1.448  0.0050  0.4971  0.0002
   14CHTO   C38 5764   7.905   6.052   1.279 -0.0921 -0.0412 -0.3830
   14CHTO   H80 5765   7.847   5.989   1.209 -2.4126  1.5307  0.0687
   14CHTO   O31 5766   8.023   6.093   1.207  0.1603  0.0058 -0.6197
   14CHTO   H68 5767   8.014   6.115   1.116 -0.5673  2.3836 -0.0083
   14CHTO   C39 5768   7.808   6.176   1.325 -0.0968  0.6211  0.0345
   14CHTO   H81 5769   7.869   6.248   1.379 -0.0712  1.1219 -0.6480
   14CHTO    N7 5770   7.742   6.252   1.215  0.6483 -0.0094  0.1919
   14CHTO   H73 5771   7.822   6.313   1.178  0.5022  0.3322  0.4326
   14CHTO   H74 5772   7.693   6.188   1.143 -0.8248  1.0044  0.2575
   14CHTO   C40 5773   7.706   6.135   1.437  0.3821  0.4048  0.0538
   14CHTO   H82 5774   7.622   6.078   1.398  1.7364 -0.5387 -1.5742
   14CHTO   O26 5775   7.774   6.066   1.546  0.3197  0.1580  0.4790
   14CHTO   C41 5776   7.831   5.943   1.495  0.1211  0.2793  0.2421
   14CHTO   H83 5777   7.756   5.894   1.431 -1.4777  0.3781  1.9897
   14CHTO   C52 5778   7.852   5.841   1.606  0.2150 -0.0006  0.0347
   14CHTO   O35 5779   7.987   5.872   1.693 -0.3016 -0.5636 -0.2715
   14CHTO   H71 5780   8.017   5.961   1.693 -2.0475  0.1188  2.6713
   14CHTO   O28 5781   7.656   6.250   1.504  0.2140 -0.0961  0.1195
   14CHTO   C42 5782   7.521   6.247   1.569 -0.8369 -0.3243 -0.2939
   14CHTO   H84 5783   7.512   6.342   1.622 -0.3113 -0.5491  0.1956
   14CHTO   C44 5784   7.489   6.140   1.675 -0.0733 -0.0041  0.8790
   14CHTO   H86 5785   7.491   6.044   1.624 -2.4053  1.5692 -2.3689
   14CHTO   O32 5786   7.584   6.157   1.778 -0.0787 -0.3537  0.2028
   14CHTO   H69 5787   7.617   6.074   1.806  1.2439  1.4244  4.1929
   14CHTO   C48 5788   7.347   6.162   1.733  0.2972  0.9650  0.4307
   14CHTO   H90 5789   7.356   6.255   1.788 -0.6296  0.4324  1.5224
   14CHTO    N9 5790   7.309   6.049   1.834 -0.0116  0.0552  0.1303
   14CHTO   H77 5791   7.382   6.053   1.914 -0.1484 -1.4181  0.3393
   14CHTO   H78 5792   7.211   6.064   1.876  1.0537  1.0387  2.3432
   14CHTO   C51 5793   7.236   6.180   1.622 -0.3955  0.0474 -0.0940
   14CHTO   H93 5794   7.209   6.086   1.575  1.7681  0.5645 -2.5089
   14CHTO   O30 5795   7.281   6.275   1.528 -0.2150  0.5375 -0.6071
   14CHTO   C46 5796   7.405   6.247   1.459  0.3731  0.0502  0.0937
   14CHTO   H88 5797   7.398   6.145   1.420 -0.8688  0.9502 -2.1177
   14CHTO   C53 5798   7.418   6.345   1.340 -0.7972  0.1781  0.4560
   14CHTO   O72 5799   7.442   6.478   1.393  0.0680  0.0120  0.0583
   14CHTO  H199 5800   7.367   6.534   1.391  0.0169 -0.0526  0.1712
   14CHTO   O22 5801   7.124   6.239   1.686 -0.0844 -0.6144 -0.2599
   14CHTO   C31 5802   6.986   6.208   1.641  0.4822  0.3630  0.3017
   14CHTO   H59 5803   6.993   6.163   1.540  0.7658 -0.4757  0.6932
   14CHTO   C29 5804   6.910   6.109   1.731  0.1382 -0.6522  0.5878
   14CHTO   H57 5805   6.952   6.137   1.829 -3.6576  1.2298  1.7515
   14CHTO   O21 5806   6.950   5.971   1.710  0.9369  0.5389 -0.4209
   14CHTO   H37 5807   6.970   5.932   1.792  1.1547  0.7296 -0.3825
   14CHTO   C27 5808   6.755   6.117   1.736 -0.7842 -0.0629  0.1763
   14CHTO   H55 5809   6.716   6.051   1.656 -0.9205 -0.8078  0.8460
   14CHTO    N5 5810   6.696   6.071   1.861 -0.8133 -0.5575 -0.3235
   14CHTO   H43 5811   6.720   6.134   1.946  0.9397 -0.4168 -0.9075
   14CHTO   H44 5812   6.688   5.963   1.864  2.2704 -0.7956  3.2165
   14CHTO   C25 5813   6.694   6.256   1.701  0.1063 -0.7060 -0.2643
   14CHTO   H53 5814   6.695   6.321   1.790  0.4274  0.0891 -0.8475
   14CHTO   O17 5815   6.774   6.325   1.599  0.8389 -0.3131  0.0526
   14CHTO   C32 5816   6.914   6.335   1.630 -0.4502 -0.2563  0.1846
   14CHTO   H60 5817   6.940   6.393   1.719  0.5005 -0.4673  0.0536
   14CHTO   C36 5818   6.965   6.420   1.508 -0.9213 -0.1726  0.2066
   14CHTO   O25 5819   7.091   6.484   1.531  0.3216  0.2656  0.3100
   14CHTO   H40 5820   7.157   6.420   1.509  0.9236  1.1314 -0.4297
   14CHTO   O15 5821   6.532   6.246   1.652 -0.0645  0.9193  0.0663
   14CHTO   C19 5822   6.391   6.269   1.633 -0.1457 -0.0424 -0.5412
   14CHTO   H47 5823   6.370   6.231   1.532  0.4254  2.3187 -1.5904
   14CHTO   C20 5824   6.296   6.191   1.734 -0.5777 -0.1567 -0.2405
   14CHTO   H48 5825   6.324   6.209   1.839 -0.2623  1.4142 -0.5778
   14CHTO   O19 5826   6.310   6.054   1.699 -0.2074 -0.1808 -0.5068
   14CHTO   H35 5827   6.251   6.027   1.631 -0.7321 -1.2639  0.3767
   14CHTO   C21 5828   6.149   6.238   1.710 -0.6213  0.7649  0.2227
   14CHTO   H49 5829   6.120   6.197   1.613  0.7484  1.7438 -0.6154
   14CHTO    N4 5830   6.057   6.170   1.810  0.1521 -0.6887 -0.1250
   14CHTO   H41 5831   6.119   6.158   1.897 -0.4313 -0.4708  0.3187
   14CHTO   H42 5832   6.039   6.069   1.774 -1.6551 -1.0771  1.8215
   14CHTO   C22 5833   6.125   6.387   1.707 -0.0658 -0.7640 -0.3766
   14CHTO   H50 5834   6.145   6.427   1.806 -0.4414  1.1170 -1.0464
   14CHTO   O14 5835   6.219   6.445   1.613  0.7008  0.0352 -0.3302
   14CHTO   C23 5836   6.358   6.418   1.641 -0.2297  0.4649  0.1014
   14CHTO   H51 5837   6.365   6.453   1.745  1.8766 -1.7268  0.7501
   14CHTO   C34 5838   6.448   6.503   1.558 -0.3250  0.2038 -0.0768
   14CHTO   O23 5839   6.464   6.632   1.615 -0.4370  0.7275  0.0428
   14CHTO   H38 5840   6.519   6.695   1.571  1.3012  1.0502  2.5675
   14CHTO   O16 5841   5.992   6.413   1.658 -0.1415  0.2709  0.2196
   14CHTO   C24 5842   5.934   6.571   1.665 -0.3159 -0.9627  0.1540
   14CHTO   H52 5843   5.862   6.590   1.586 -0.4847 -0.2620  0.4715
   14CHTO   C26 5844   6.044   6.674   1.651  0.4654 -0.0249  0.1336
   14CHTO   H54 5845   6.119   6.657   1.731  0.6669  2.1239  0.4527
   14CHTO   O20 5846   6.090   6.658   1.516  0.1446 -0.0067 -0.2507
   14CHTO   H36 5847   6.142   6.727   1.481  3.1875 -1.8434  0.4818
   14CHTO   C30 5848   5.997   6.817   1.680  0.7427  0.3568 -0.7058
   14CHTO   H58 5849   5.929   6.854   1.602  0.0897  0.4698 -0.0894
   14CHTO    N6 5850   6.110   6.913   1.686  0.0308  0.0338 -0.6044
   14CHTO   H45 5851   6.080   7.009   1.723  0.1945 -0.3441  0.5339
   14CHTO   H46 5852   6.193   6.878   1.747  0.9970  0.0581 -1.8775
   14CHTO   C33 5853   5.904   6.825   1.804  0.2172 -0.5391  0.7577
   14CHTO   H61 5854   5.964   6.809   1.894 -0.1081 -2.0424  0.7138
   14CHTO   O18 5855   5.799   6.727   1.794 -0.2747  0.2954  0.0149
   14CHTO   C28 5856   5.850   6.587   1.792  0.7589  0.9974 -0.4619
   14CHTO   H56 5857   5.913   6.563   1.878  1.7157  1.4853 -1.0112
   14CHTO   C35 5858   5.740   6.480   1.781  0.2056 -0.2381 -0.0583
   14CHTO   O24 5859   5.667   6.472   1.903 -0.6484  0.1897  0.1369
   14CHTO   H39 5860   5.584   6.432   1.890  0.6976 -2.9695  0.7191
   14CHTO    O9 5861   5.850   6.954   1.807 -0.1097 -0.1177 -0.5141
   14CHTO   C13 5862   5.740   6.970   1.918 -0.2740  0.4186 -0.5920
   14CHTO   H26 5863   5.755   6.906   2.007 -0.9683  1.0334 -0.0255
   14CHTO   C11 5864   5.601   6.936   1.847 -0.5883 -0.2813  0.3970
   14CHTO   H24 5865   5.603   6.826   1.845 -0.8268 -0.2648 -1.0480
   14CHTO    O8 5866   5.595   6.999   1.718  0.2528 -0.1682  0.1784
   14CHTO    H3 5867   5.642   6.934   1.668  1.5713 -0.7442  2.1292
   14CHTO    C9 5868   5.495   6.995   1.944 -0.1209  0.7872  0.1883
   14CHTO   H22 5869   5.506   6.942   2.039  0.3381 -1.4622 -1.0674
   14CHTO    N2 5870   5.361   6.941   1.906  0.5207 -0.1116  0.2249
   14CHTO   H10 5871   5.368   6.834   1.920  1.4643  0.0983  1.4501
   14CHTO   H11 5872   5.334   6.964   1.804 -0.5743 -0.2214  0.4808
   14CHTO    C7 5873   5.502   7.153   1.958  0.7747 -1.2950 -0.8341
   14CHTO   H20 5874   5.479   7.160   2.066 -3.9701 -1.2667 -1.7295
   14CHTO    O4 5875   5.629   7.206   1.933 -0.2427  0.2594  0.9234
   14CHTO   C14 5876   5.735   7.121   1.984  0.1424 -0.1856 -0.4780
   14CHTO   H27 5877   5.712   7.111   2.093 -3.0035  0.8009 -0.9908
   14CHTO   C18 5878   5.861   7.202   1.977  0.0306 -0.3891 -0.6450
   14CHTO   O13 5879   5.977   7.137   2.024 -0.1514  0.5015  0.2612
   14CHTO    H7 5880   5.992   7.055   1.980  0.0172 -0.4105  1.9759
   14CHTO    O2 5881   5.378   7.241   1.850  0.2067 -0.1959  0.2864
   14CHTO    C1 5882   5.359   7.379   1.891 -0.3360  0.2069  0.3271
   14CHTO   H14 5883   5.277   7.415   1.826 -0.2699  1.0022  0.6752
   14CHTO    C2 5884   5.480   7.471   1.858 -0.7740 -0.5624 -0.3075
   14CHTO   H15 5885   5.557   7.427   1.923  0.2668 -1.8231 -2.3291
   14CHTO    O6 5886   5.520   7.450   1.715  0.9227  0.1484  0.0745
   14CHTO    H1 5887   5.485   7.506   1.649  0.6432  0.6267  0.6203
   14CHTO    C3 5888   5.438   7.626   1.892  0.2496 -0.1944  0.0832
   14CHTO   H16 5889   5.354   7.649   1.825  2.2680 -1.1485 -2.8733
   14CHTO    N1 5890   5.544   7.724   1.861  0.0239  0.2255 -0.1064
   14CHTO    H8 5891   5.641   7.706   1.905 -0.2157  2.4334  1.4163
   14CHTO    H9 5892   5.546   7.740   1.754 -1.6424  1.0432 -0.0441
   14CHTO    C4 5893   5.388   7.629   2.038 -0.7452 -0.2715 -0.0033
   14CHTO   H17 5894   5.468   7.602   2.108 -0.7353 -1.0188 -0.3003
   14CHTO    O1 5895   5.279   7.537   2.049 -0.0262  0.5096  0.1123
   14CHTO    C5 5896   5.308   7.397   2.034  0.7954 -0.1505  0.4269
   14CHTO   H18 5897   5.395   7.379   2.097  0.8030 -1.0083  0.1749
   14CHTO   C16 5898   5.190   7.302   2.073  0.2756  0.1989  0.2278
   14CHTO   O11 5899   5.136   7.336   2.198 -0.9294 -0.0913 -0.2960
   14CHTO    H5 5900   5.134   7.255   2.244 -2.8232 -0.1112 -0.4064
   14CHTO    O3 5901   5.326   7.750   2.070  0.4592 -0.6142  0.6741
   14CHTO    C6 5902   5.324   7.788   2.209 -0.3031  0.0111 -0.3413
   14CHTO   H19 5903   5.335   7.709   2.283 -1.8561 -0.1936 -0.3081
   14CHTO    C8 5904   5.433   7.899   2.227 -0.1406 -0.1990  0.0661
   14CHTO   H21 5905   5.409   7.984   2.163 -1.4274 -0.0914  0.6779
   14CHTO    O7 5906   5.566   7.841   2.197 -0.2985 -0.2080 -0.1189
   14CHTO    H2 5907   5.549   7.803   2.113  1.2440 -0.5776 -0.2698
   14CHTO   C12 5908   5.429   7.951   2.377  0.0745 -0.1259 -0.5507
   14CHTO   H25 5909   5.449   7.861   2.439 -1.0337  0.5121  0.7836
   14CHTO    N3 5910   5.543   8.049   2.413  0.1490  0.0760 -0.6494
   14CHTO   H12 5911   5.608   7.996   2.482 -1.2783 -2.6280 -1.3248
   14CHTO   H13 5912   5.592   8.070   2.318  1.1032  3.1870  0.4839
   14CHTO   C15 5913   5.285   8.007   2.401  0.5514  0.3577  0.6766
   14CHTO   H28 5914   5.262   8.099   2.348 -0.8221 -1.3832 -1.8467
   14CHTO   O10 5915   5.252   8.027   2.554 -0.0315  0.6700 -0.1911
   14CHTO    H4 5916   5.181   8.084   2.578 -0.3273 -0.2235  1.1336
   14CHTO    O5 5917   5.189   7.903   2.367  0.4858  0.8804  0.2282
   14CHTO   C10 5918   5.188   7.848   2.233  0.0121 -0.2847  0.0124
   14CHTO   H23 5919   5.175   7.928   2.159 -1.3669  0.0808  0.6162
   14CHTO   C17 5920   5.072   7.751   2.197 -0.1830  0.2071 -0.3313
   14CHTO   O12 5921   5.063   7.638   2.284  0.1591  0.0798 -0.7721
   14CHTO    H6 5922   5.008   7.671   2.352 -0.9578  1.2268 -2.1907
   15CHTO  H203 5923   6.639   4.983   1.871  1.8771 -1.5256 -0.9246
   15CHTO   O82 5924   6.580   4.979   1.799  0.5382 -0.0017  0.0457
   15CHTO  C123 5925   6.615   4.889   1.698  0.4847  0.8733 -0.1494
   15CHTO  H227 5926   6.655   4.800   1.749 -2.9438 -1.6076 -1.5545
   15CHTO   O77 5927   6.487   4.858   1.637  0.6069  0.0907  0.5934
   15CHTO  C118 5928   6.484   4.746   1.550 -0.2552  0.2324  0.5005
   15CHTO  H222 5929   6.519   4.653   1.598  0.8982  0.2702 -0.2464
   15CHTO  C125 5930   6.337   4.720   1.497  0.4074 -0.4885 -0.5556
   15CHTO   O84 5931   6.273   4.827   1.430  0.2313 -0.6924  0.2230
   15CHTO  H205 5932   6.336   4.887   1.396 -1.2014  0.9788  0.4874
   15CHTO  C114 5933   6.578   4.773   1.432 -0.5019 -0.5490  0.0417
   15CHTO  H218 5934   6.547   4.865   1.382 -1.6340  0.1244  1.9342
   15CHTO  C116 5935   6.721   4.815   1.476 -0.2256  0.0987 -0.1280
   15CHTO  H220 5936   6.773   4.731   1.527 -1.8835 -1.5821 -1.0993
   15CHTO   O79 5937   6.794   4.843   1.354 -0.5451  0.0584  0.0638
   15CHTO  H201 5938   6.751   4.917   1.314 -1.4920  0.1409  1.2007
   15CHTO  C120 5939   6.708   4.939   1.579 -0.3519  0.3738  0.8019
   15CHTO  H224 5940   6.662   5.019   1.518 -0.6519 -0.0731  0.4394
   15CHTO   N21 5941   6.843   4.984   1.619 -0.2432 -0.0893  0.0403
   15CHTO  H211 5942   6.893   4.946   1.707  1.3752  0.7397 -0.5077
   15CHTO  H212 5943   6.886   5.065   1.564 -1.4951 -0.7784 -2.0036
   15CHTO   O75 5944   6.563   4.658   1.339 -0.3219  0.2333  0.8162
   15CHTO  C112 5945   6.680   4.532   1.353 -0.1564  0.8114 -0.6319
   15CHTO  H216 5946   6.706   4.525   1.460  0.8256 -0.0288 -0.9181
   15CHTO   O73 5947   6.796   4.576   1.273  0.1189  0.1481  0.3397
   15CHTO  C113 5948   6.909   4.492   1.265  0.6987 -0.0361  0.2045
   15CHTO  H217 5949   6.958   4.473   1.362  3.3296  1.3918 -0.7818
   15CHTO  C124 5950   7.009   4.558   1.171 -0.8032  0.4427  0.6938
   15CHTO   O83 5951   6.985   4.545   1.026 -0.3906 -0.7001  1.0836
   15CHTO  H204 5952   6.897   4.572   1.008  0.4215  2.3363  1.4096
   15CHTO  C109 5953   6.869   4.350   1.207 -0.3863 -0.1406 -0.2034
   15CHTO  H213 5954   6.850   4.366   1.100  1.3249 -1.0446 -0.6614
   15CHTO  C110 5955   6.733   4.294   1.271 -0.7898 -0.3670  0.4268
   15CHTO  H214 5956   6.750   4.232   1.359 -0.1759  1.5124  1.6610
   15CHTO   O78 5957   6.681   4.200   1.177  0.4879 -0.7672  0.3062
   15CHTO  H200 5958   6.728   4.121   1.162 -1.5507 -2.5464  2.7920
   15CHTO  C111 5959   6.624   4.403   1.305 -0.0959  0.0309 -0.3586
   15CHTO  H215 5960   6.570   4.425   1.212 -0.7235 -2.2531 -0.5687
   15CHTO   N19 5961   6.522   4.351   1.398 -0.7310 -0.4547  0.0085
   15CHTO  H207 5962   6.440   4.304   1.345 -0.9676 -1.8626  1.5537
   15CHTO  H208 5963   6.572   4.282   1.465  1.6455 -1.0954 -2.3253
   15CHTO   O74 5964   6.978   4.253   1.231 -0.6598 -0.7500 -0.5289
   15CHTO  C115 5965   6.989   4.167   1.078  0.3715  0.6185 -0.2892
   15CHTO  H219 5966   6.899   4.185   1.018  1.2297 -0.9004 -2.0931
   15CHTO   O76 5967   7.108   4.215   0.993  0.3734 -0.2710  0.3309
   15CHTO  C122 5968   7.110   4.175   0.856  0.1294  0.1005  0.5506
   15CHTO  H226 5969   7.206   4.207   0.818  1.2439 -2.2936  1.2563
   15CHTO  C126 5970   7.001   4.254   0.772  0.3328 -0.2484  0.4743
   15CHTO   O85 5971   7.029   4.389   0.756  0.0981 -0.5387  0.2595
   15CHTO  H206 5972   7.120   4.411   0.748 -0.2566  0.5043 -1.0971
   15CHTO  C121 5973   7.084   4.023   0.837  0.2567  0.2427  0.2365
   15CHTO  H225 5974   7.058   3.991   0.734 -0.3096  0.9029  0.1673
   15CHTO   O81 5975   7.214   3.965   0.874  0.4896  0.1618 -0.1476
   15CHTO  H202 5976   7.215   3.876   0.844  0.2628  0.0186  0.2670
   15CHTO  C119 5977   6.982   3.960   0.939 -0.6642 -0.0862  0.4866
   15CHTO  H223 5978   6.886   3.992   0.898 -0.9933 -1.1317  0.4428
   15CHTO  C117 5979   6.988   4.012   1.089  0.2564  0.5004  0.3563
   15CHTO  H221 5980   7.080   3.987   1.143 -0.2428 -0.2621  0.8556
   15CHTO   N20 5981   6.881   3.950   1.174  0.5497 -0.1062  0.1552
   15CHTO  H209 5982   6.890   3.843   1.166  1.7696  0.1121 -1.6957
   15CHTO  H210 5983   6.785   3.984   1.139  1.2884  0.7380 -1.0823
   15CHTO   O80 5984   6.974   3.807   0.917 -0.1124  0.3777  0.6463
   15CHTO  C103 5985   6.829   3.717   0.923  0.1825 -0.1859 -0.2138
   15CHTO  H190 5986   6.804   3.690   1.026  2.7565  0.0959  0.5021
   15CHTO  C101 5987   6.708   3.781   0.840  1.0407 -0.2000  0.1407
   15CHTO  H188 5988   6.731   3.810   0.738 -1.2919 -0.2584 -0.4249
   15CHTO   O68 5989   6.658   3.912   0.916 -0.4115 -0.3996 -0.3653
   15CHTO  H168 5990   6.578   3.939   0.875  0.5961  0.1177 -2.0633
   15CHTO   C99 5991   6.587   3.676   0.821  0.1601  0.3627  0.7649
   15CHTO  H186 5992   6.550   3.634   0.917  0.1362  0.9091  0.9994
   15CHTO   N17 5993   6.468   3.727   0.744  0.4873 -0.0503  0.1070
   15CHTO  H174 5994   6.492   3.751   0.642 -2.0276  2.3422  0.0419
   15CHTO  H175 5995   6.415   3.803   0.798  0.2680 -0.2393  0.1582
   15CHTO   C97 5996   6.645   3.553   0.740  0.5999  0.4390  0.2962
   15CHTO  H184 5997   6.680   3.594   0.645  1.6374 -0.5254  0.2475
   15CHTO   O64 5998   6.754   3.491   0.818  0.3700 -0.3716  0.2118
   15CHTO  C104 5999   6.864   3.580   0.843 -0.5702  0.1899  0.1990
   15CHTO  H191 6000   6.910   3.605   0.747 -1.4230  1.9508  0.2364
   15CHTO  C108 6001   6.969   3.498   0.915  0.1721  0.0293  0.3639
   15CHTO   O71 6002   7.094   3.564   0.929 -0.1077 -0.7246  0.7254
   15CHTO  H171 6003   7.143   3.517   0.993  0.5281  0.5554  1.1936
   15CHTO   O62 6004   6.554   3.447   0.712  0.0365  0.2288 -0.1163
   15CHTO   C91 6005   6.592   3.336   0.623 -0.1549 -0.2609 -0.3307
   15CHTO  H178 6006   6.678   3.366   0.564  1.4666 -1.2384  1.4875
   15CHTO   C92 6007   6.477   3.294   0.538  0.0885 -0.5458 -0.0040
   15CHTO  H179 6008   6.441   3.389   0.495  0.7045 -0.8772 -1.2706
   15CHTO   O66 6009   6.536   3.222   0.428  0.2041 -0.2639  0.1840
   15CHTO  H166 6010   6.584   3.277   0.369 -1.0349  1.7209  0.9857
   15CHTO   C93 6011   6.366   3.195   0.597 -0.3789 -0.4155  0.1934
   15CHTO  H180 6012   6.303   3.160   0.514 -0.8585  1.8587 -0.4500
   15CHTO   N16 6013   6.264   3.263   0.681  0.8783  0.5682  0.3636
   15CHTO  H172 6014   6.204   3.305   0.602  1.0446  0.5544  0.2300
   15CHTO  H173 6015   6.193   3.203   0.736  0.8798 -1.7111 -2.0076
   15CHTO   C94 6016   6.437   3.077   0.675 -0.1557  0.2134 -0.1579
   15CHTO  H181 6017   6.398   3.066   0.777  0.1743  3.5298  0.3869
   15CHTO   O61 6018   6.579   3.079   0.679  1.0807 -0.2494  0.3064
   15CHTO   C95 6019   6.641   3.205   0.707 -0.7666  0.0292 -0.1784
   15CHTO  H182 6020   6.636   3.216   0.815  1.4522 -1.1639  0.0832
   15CHTO  C106 6021   6.796   3.184   0.678 -1.0432  0.3921  0.2675
   15CHTO   O69 6022   6.869   3.117   0.778 -0.1274  0.0091 -0.2010
   15CHTO  H169 6023   6.844   3.027   0.791  1.3585 -0.6119 -1.3712
   15CHTO   O63 6024   6.391   2.932   0.609  0.2417  0.5406  0.0863
   15CHTO   C96 6025   6.415   2.792   0.706 -0.1355 -0.7078  0.0932
   15CHTO  H183 6026   6.435   2.842   0.800 -0.9082  2.3142 -1.2786
   15CHTO   C98 6027   6.542   2.706   0.677  0.7078 -0.8401  0.0686
   15CHTO  H185 6028   6.554   2.697   0.568 -0.7945  0.8833 -0.2534
   15CHTO   O67 6029   6.645   2.792   0.719 -0.1495 -0.2896 -0.2129
   15CHTO  H167 6030   6.722   2.755   0.681 -0.4270 -1.0838 -0.0063
   15CHTO  C102 6031   6.546   2.568   0.755  0.5970 -0.0838 -0.0350
   15CHTO  H189 6032   6.570   2.593   0.859 -0.7002  1.9069 -0.1913
   15CHTO   N18 6033   6.652   2.474   0.709  0.6217  0.2043 -0.1563
   15CHTO  H176 6034   6.739   2.479   0.772  0.2348 -0.5753  0.4335
   15CHTO  H177 6035   6.673   2.490   0.604  1.1367  0.7184  0.0180
   15CHTO  C105 6036   6.400   2.500   0.738  0.1233  0.2070  0.1618
   15CHTO  H192 6037   6.387   2.459   0.638 -2.8187 -0.8543  0.9360
   15CHTO   O65 6038   6.286   2.584   0.775  0.3837  0.2426  0.4140
   15CHTO  C100 6039   6.276   2.705   0.705  0.5876 -0.1284  0.0254
   15CHTO  H187 6040   6.252   2.670   0.604  0.8674 -1.2754  0.3440
   15CHTO  C107 6041   6.162   2.791   0.771  0.1423 -0.8471 -0.4608
   15CHTO   O70 6042   6.029   2.726   0.760 -0.1137 -0.0616  0.0290
   15CHTO  H170 6043   5.981   2.752   0.684 -1.3456 -1.5039  0.2870
   15CHTO   O57 6044   6.406   2.372   0.839  0.5558 -1.0161  0.1811
   15CHTO   C85 6045   6.379   2.382   0.980  0.4030 -0.1773 -0.0686
   15CHTO  H157 6046   6.378   2.488   1.010 -2.8284  0.1438 -1.1609
   15CHTO   C83 6047   6.502   2.313   1.050 -0.4199 -0.0493  0.2233
   15CHTO  H155 6048   6.595   2.361   1.020 -0.4692 -0.4069 -0.4924
   15CHTO   O56 6049   6.507   2.175   0.998 -0.1132  0.3950 -0.6386
   15CHTO  H135 6050   6.543   2.162   0.912 -0.5884  1.3515 -0.9915
   15CHTO   C81 6051   6.492   2.317   1.204  0.2543  0.4041 -0.5236
   15CHTO  H153 6052   6.478   2.421   1.235 -0.9574 -0.1576  0.8298
   15CHTO   N14 6053   6.615   2.268   1.271 -0.2871  0.1139 -0.3016
   15CHTO  H141 6054   6.597   2.245   1.374  1.7861 -0.7482 -0.0889
   15CHTO  H142 6055   6.688   2.345   1.257  0.2035 -0.6729 -2.3049
   15CHTO   C79 6056   6.363   2.232   1.246 -0.6200  0.1702  0.6113
   15CHTO  H151 6057   6.351   2.243   1.354 -1.8152 -1.4581  0.6496
   15CHTO   O52 6058   6.248   2.299   1.179 -0.1214  0.2449 -0.1056
   15CHTO   C86 6059   6.250   2.301   1.035 -0.2205  0.0198 -0.0622
   15CHTO  H158 6060   6.258   2.195   1.006  0.5076 -0.8799  3.2119
   15CHTO   C90 6061   6.112   2.346   0.989 -0.1272 -0.0201 -0.1447
   15CHTO   O60 6062   6.016   2.247   1.027 -0.3193 -0.0656 -0.1627
   15CHTO  H138 6063   5.937   2.270   0.981 -1.0535 -0.7543  0.7264
   15CHTO   O50 6064   6.378   2.091   1.226 -0.5321  0.8174 -0.1859
   15CHTO   C73 6065   6.313   1.969   1.267 -0.4638  0.1709  0.3279
   15CHTO  H145 6066   6.205   1.978   1.285 -0.3414 -0.6435  1.5476
   15CHTO   C74 6067   6.377   1.923   1.399  0.5106 -0.0134 -0.0880
   15CHTO  H146 6068   6.360   2.001   1.474 -0.8332 -0.1640 -0.2256
   15CHTO   O54 6069   6.311   1.810   1.457  0.2297 -1.0861  0.4513
   15CHTO  H133 6070   6.360   1.768   1.525 -0.8147 -1.0478  1.2551
   15CHTO   C75 6071   6.530   1.900   1.371 -0.1886  0.5922 -0.1649
   15CHTO  H147 6072   6.581   1.996   1.360 -1.0738  1.3441  2.0400
   15CHTO   N13 6073   6.607   1.854   1.483  0.0291 -0.9974 -0.7761
   15CHTO  H139 6074   6.689   1.792   1.452  1.0141  0.9361 -2.1375
   15CHTO  H140 6075   6.553   1.818   1.570  1.7560 -1.9660 -0.0767
   15CHTO   C76 6076   6.555   1.802   1.250  0.2998 -0.0479  0.0128
   15CHTO  H148 6077   6.519   1.705   1.285 -0.4701  0.4263  0.5472
   15CHTO   O49 6078   6.477   1.844   1.131 -0.6800  0.1260 -0.2159
   15CHTO   C77 6079   6.333   1.858   1.157  0.0724 -0.2923 -0.2748
   15CHTO  H149 6080   6.290   1.764   1.192  0.1227  0.1800  1.0982
   15CHTO   C88 6081   6.255   1.893   1.026  0.6859 -0.0273  0.1479
   15CHTO   O58 6082   6.131   1.930   1.055 -0.0928  0.7202 -0.1160
   15CHTO  H136 6083   6.129   2.008   1.106 -3.5781  0.4060  0.3683
   15CHTO   O51 6084   6.721   1.812   1.193 -0.6385 -0.5038 -0.0445
   15CHTO   C78 6085   6.754   1.729   1.077  0.1446  0.1826 -0.5571
   15CHTO  H150 6086   6.662   1.710   1.018 -1.4147  0.7120  1.6170
   15CHTO   C80 6087   6.805   1.593   1.126 -0.1037 -0.6023  0.0574
   15CHTO  H152 6088   6.882   1.605   1.205  0.1138  2.4204 -0.5558
   15CHTO   O55 6089   6.696   1.525   1.193  0.0916 -0.1569  0.4053
   15CHTO  H134 6090   6.731   1.443   1.223  2.5072  0.1282 -1.5156
   15CHTO   C84 6091   6.854   1.499   1.012 -0.0914  0.8118  0.2429
   15CHTO  H156 6092   6.763   1.469   0.959  1.1208  0.0839 -1.4778
   15CHTO   N15 6093   6.932   1.381   1.060  0.3730 -0.0911  0.1830
   15CHTO  H143 6094   6.897   1.290   1.017 -1.1817 -0.8751  2.9668
   15CHTO  H144 6095   6.930   1.367   1.167 -0.6183  2.3145  0.5137
   15CHTO   C87 6096   6.927   1.576   0.902 -0.0815 -0.9117  0.0526
   15CHTO  H159 6097   7.031   1.589   0.930 -1.0725  1.2381  2.9221
   15CHTO   O53 6098   6.865   1.714   0.861 -0.0409 -0.5040 -0.4008
   15CHTO   C82 6099   6.847   1.793   0.976  0.3713  0.2363 -0.2765
   15CHTO  H154 6100   6.949   1.812   1.012  0.4116 -0.7542  0.1602
   15CHTO   C89 6101   6.786   1.921   0.926  0.8580  0.8240  0.4146
   15CHTO   O59 6102   6.771   2.023   1.030  0.3529  0.3573 -0.4081
   15CHTO  H137 6103   6.815   2.102   1.004  1.8682 -0.8334 -1.5272
   15CHTO   O45 6104   6.916   1.482   0.774 -0.5443 -0.3118 -0.3503
   15CHTO   C67 6105   7.041   1.482   0.700  0.6699 -1.1482  0.1439
   15CHTO  H124 6106   7.096   1.568   0.736 -0.4997 -0.3596  0.0618
   15CHTO   C65 6107   7.125   1.353   0.708 -0.5654 -0.2094  1.1649
   15CHTO  H122 6108   7.053   1.275   0.684 -0.6645 -0.0392  0.9080
   15CHTO   O44 6109   7.179   1.336   0.842 -0.7923 -0.3739 -0.3524
   15CHTO  H102 6110   7.209   1.248   0.855  2.0006  0.6524  0.3809
   15CHTO   C63 6111   7.225   1.345   0.580  0.7288  0.2471  0.1568
   15CHTO  H120 6112   7.178   1.284   0.503 -0.2721 -0.2055  1.1158
   15CHTO   N11 6113   7.356   1.272   0.605  0.2826  0.0715  0.3638
   15CHTO  H108 6114   7.421   1.282   0.521  1.7183  0.6834  1.5319
   15CHTO  H109 6115   7.341   1.176   0.650 -1.2060 -0.3254 -0.9324
   15CHTO   C61 6116   7.250   1.484   0.514 -0.1179  0.1804  0.0144
   15CHTO  H118 6117   7.299   1.470   0.416 -1.7843  2.9163 -1.2829
   15CHTO   O40 6118   7.134   1.554   0.476  0.6171  0.2373  0.0642
   15CHTO   C68 6119   7.011   1.511   0.544  0.4272  0.1357 -0.0828
   15CHTO  H125 6120   6.972   1.418   0.498  0.6463 -0.5210  1.0394
   15CHTO   C72 6121   6.908   1.621   0.513  0.0406  0.1207  0.2586
   15CHTO   O48 6122   6.765   1.574   0.530 -0.0351 -0.5297  0.0257
   15CHTO  H105 6123   6.759   1.540   0.617  0.0133 -0.0675  0.2068
   15CHTO   O38 6124   7.319   1.576   0.600 -0.2874  0.0985  0.0726
   15CHTO   C55 6125   7.394   1.685   0.542  0.0076 -0.0459  0.4563
   15CHTO  H112 6126   7.368   1.708   0.437  1.9845  0.9545  0.1520
   15CHTO   C56 6127   7.548   1.664   0.560 -0.1925 -0.0890 -0.5117
   15CHTO  H113 6128   7.571   1.650   0.666 -1.8512 -3.0376 -0.4813
   15CHTO   O42 6129   7.584   1.541   0.497  0.1001  0.3259 -0.0933
   15CHTO  H100 6130   7.674   1.522   0.516  0.3973  3.6424  2.4007
   15CHTO   C57 6131   7.636   1.781   0.500 -0.6529  0.0437 -0.2165
   15CHTO  H114 6132   7.622   1.784   0.392  1.8501 -0.8433 -0.5973
   15CHTO   N10 6133   7.777   1.767   0.528 -0.0458 -0.5227 -0.1895
   15CHTO  H106 6134   7.793   1.798   0.630 -2.7070 -2.0665  0.7376
   15CHTO  H107 6135   7.812   1.666   0.512 -1.4389 -1.0823  0.2383
   15CHTO   C58 6136   7.588   1.913   0.555 -0.0974 -0.4651 -0.2904
   15CHTO  H115 6137   7.628   1.930   0.657 -1.2683  0.0449  0.0907
   15CHTO   O37 6138   7.442   1.921   0.543 -0.1474 -0.6996 -0.3437
   15CHTO   C59 6139   7.364   1.823   0.606  0.3034  0.7042  0.0543
   15CHTO  H116 6140   7.373   1.832   0.714  2.6304  0.4311 -0.0981
   15CHTO   C70 6141   7.220   1.867   0.572  0.2412  0.4104 -0.5190
   15CHTO   O46 6142   7.192   2.006   0.590  0.2153  0.2599 -0.4998
   15CHTO  H103 6143   7.162   2.037   0.507 -1.3179 -1.8053 -0.7414
   15CHTO   O39 6144   7.634   2.037   0.461 -0.5292 -0.1421  0.0376
   15CHTO   C60 6145   7.608   2.165   0.517 -0.0554 -0.3719 -0.3318
   15CHTO  H117 6146   7.534   2.168   0.597 -0.5966  0.1313 -0.8405
   15CHTO   C62 6147   7.746   2.219   0.575 -0.1636 -0.1630 -0.3404
   15CHTO  H119 6148   7.774   2.143   0.652  1.5540  0.4754 -0.3218
   15CHTO   O43 6149   7.850   2.220   0.477 -0.0674 -0.4551  0.3520
   15CHTO  H101 6150   7.936   2.252   0.498 -0.9228  2.2450 -0.1533
   15CHTO   C66 6151   7.709   2.359   0.655 -0.8410 -0.5299  0.1523
   15CHTO  H123 6152   7.618   2.340   0.713 -0.3723 -0.9741  0.7507
   15CHTO   N12 6153   7.813   2.398   0.749  0.1937  0.2529 -0.7355
   15CHTO  H110 6154   7.893   2.462   0.717  0.2828  1.7694  2.2975
   15CHTO  H111 6155   7.856   2.309   0.792  2.0018  0.5028 -2.0034
   15CHTO   C69 6156   7.673   2.472   0.558 -0.3082 -0.1000  0.4981
   15CHTO  H126 6157   7.747   2.497   0.480 -0.1437 -1.2464  0.2733
   15CHTO   O41 6158   7.549   2.425   0.484 -0.2769  0.0919  0.7840
   15CHTO   C64 6159   7.559   2.271   0.407  0.2677 -0.4343 -0.2819
   15CHTO  H121 6160   7.622   2.273   0.315  1.1313 -1.5759  0.2723
   15CHTO   C71 6161   7.410   2.242   0.369 -0.8344 -0.5174  0.1156
   15CHTO   O47 6162   7.390   2.347   0.276 -0.1500  0.7890  0.0753
   15CHTO  H104 6163   7.368   2.429   0.315 -0.6929  0.8673 -0.3883
   15CHTO   O34 6164   7.618   2.598   0.641  0.1246 -0.5962 -0.0998
   15CHTO   C49 6165   7.552   2.729   0.614  0.0159 -0.6025  0.3680
   15CHTO   H91 6166   7.627   2.801   0.646 -1.0349  0.5258  0.3312
   15CHTO   C47 6167   7.425   2.741   0.705  0.1229 -0.6166 -0.2065
   15CHTO   H89 6168   7.394   2.847   0.692  1.7584 -0.1087 -0.1113
   15CHTO   O33 6169   7.472   2.723   0.840  0.4304 -0.2501 -0.0677
   15CHTO   H70 6170   7.438   2.790   0.896  1.0135 -0.5505  0.6493
   15CHTO   C45 6171   7.310   2.633   0.660 -0.4810  0.1683  0.3810
   15CHTO   H87 6172   7.349   2.530   0.667 -0.5895 -0.1596 -2.7951
   15CHTO    N8 6173   7.185   2.640   0.746  0.1262 -0.0412 -0.9598
   15CHTO   H75 6174   7.107   2.571   0.714 -0.6295 -0.8317  2.3454
   15CHTO   H76 6175   7.141   2.737   0.728 -0.0584 -0.3623 -2.3454
   15CHTO   C43 6176   7.277   2.662   0.504  0.7556 -0.2492 -0.7540
   15CHTO   H85 6177   7.212   2.580   0.473 -2.5930  2.3348 -0.8104
   15CHTO   O29 6178   7.398   2.668   0.427  0.0437 -0.0765 -0.3165
   15CHTO   C50 6179   7.517   2.743   0.466 -0.2249 -0.5552  0.6286
   15CHTO   H92 6180   7.598   2.691   0.414  0.5471 -0.2051  1.4551
   15CHTO   C54 6181   7.519   2.887   0.410 -0.8641 -0.0094 -0.2213
   15CHTO   O36 6182   7.435   2.976   0.481  0.0718  0.1011  0.3060
   15CHTO   H72 6183   7.346   2.955   0.460  0.6003 -0.7007 -1.1903
   15CHTO   O27 6184   7.206   2.787   0.474  0.0022  0.1876 -0.8903
   15CHTO   C37 6185   7.096   2.796   0.371 -0.1563  0.3581  0.4161
   15CHTO   H79 6186   7.089   2.701   0.318 -2.8860  0.5043  0.4310
   15CHTO   C38 6187   6.954   2.819   0.440 -0.1046 -0.1254  0.5196
   15CHTO   H80 6188   6.963   2.895   0.520 -0.2970  2.6983 -2.0194
   15CHTO   O31 6189   6.913   2.704   0.510  0.4781  0.2399  0.3924
   15CHTO   H68 6190   6.884   2.717   0.599  1.9306  0.5949  0.8227
   15CHTO   C39 6191   6.850   2.865   0.330  0.5070  0.6240 -0.1250
   15CHTO   H81 6192   6.833   2.777   0.268  0.9732  1.1106 -0.9421
   15CHTO    N7 6193   6.723   2.911   0.384  0.0911  0.0479 -0.1951
   15CHTO   H73 6194   6.692   2.838   0.457  0.3180 -0.6055 -0.7380
   15CHTO   H74 6195   6.725   3.011   0.424  3.4857  0.0144 -0.1438
   15CHTO   C40 6196   6.902   2.969   0.226  0.4919 -0.4167 -0.4641
   15CHTO   H82 6197   6.930   3.060   0.280  0.9939 -1.3158  0.8363
   15CHTO   O26 6198   7.014   2.908   0.167 -0.5305 -0.5651 -0.2672
   15CHTO   C41 6199   7.123   2.903   0.265  0.1006  0.1815  1.1250
   15CHTO   H83 6200   7.124   3.004   0.307 -1.3923  1.5628 -1.9639
   15CHTO   C52 6201   7.253   2.887   0.176 -0.2648 -0.8690  0.2502
   15CHTO   O35 6202   7.268   3.001   0.067  0.0328 -0.4423 -0.0845
   15CHTO   H71 6203   7.281   2.967  -0.020  0.1721  0.4956 -0.4370
   15CHTO   O28 6204   6.815   3.003   0.118 -0.0485 -0.0487  0.2100
   15CHTO   C42 6205   6.827   3.113   0.015  0.0693 -0.3393 -0.3419
   15CHTO   H84 6206   6.776   3.069  -0.071  0.8040  0.7288 -1.3398
   15CHTO   C44 6207   6.974   3.137  -0.036  0.1033 -1.2608 -0.6914
   15CHTO   H86 6208   7.040   3.148   0.050 -2.1472  0.7086  0.8323
   15CHTO   O32 6209   7.016   3.014  -0.104 -0.0107 -0.0413 -0.2349
   15CHTO   H69 6210   7.010   2.938  -0.049 -1.2649 -1.0439 -1.7141
   15CHTO   C48 6211   6.995   3.262  -0.131  0.1358  0.1326  0.3169
   15CHTO   H90 6212   6.953   3.229  -0.226  0.8574  0.9259 -0.2922
   15CHTO    N9 6213   7.140   3.291  -0.161 -0.0376  0.1231 -0.0310
   15CHTO   H77 6214   7.172   3.370  -0.096  1.0773  0.8383 -1.4210
   15CHTO   H78 6215   7.195   3.199  -0.150 -0.6228 -0.5351 -2.3119
   15CHTO   C51 6216   6.915   3.392  -0.079  0.0906  0.3264 -0.0856
   15CHTO   H93 6217   6.971   3.427   0.008  1.3712  1.7644 -1.4678
   15CHTO   O30 6218   6.780   3.350  -0.047  0.6269 -0.3520  0.1584
   15CHTO   C46 6219   6.750   3.242   0.043  0.7417 -0.4293  0.5633
   15CHTO   H88 6220   6.784   3.270   0.143 -0.2185 -1.6842  1.2657
   15CHTO   C53 6221   6.603   3.217   0.048 -0.0528 -1.1979  0.8757
   15CHTO   O72 6222   6.557   3.136   0.150  0.7475 -0.4042  0.1530
   15CHTO  H199 6223   6.547   3.191   0.225  0.7083  0.1491 -0.2633
   15CHTO   O22 6224   6.913   3.498  -0.175  0.1836 -0.4759 -0.2615
   15CHTO   C31 6225   6.863   3.633  -0.154 -0.4471  0.4527 -0.2704
   15CHTO   H59 6226   6.871   3.682  -0.254  1.3879 -0.8510 -0.8015
   15CHTO   C29 6227   6.719   3.642  -0.106 -0.7271  0.4457  0.1824
   15CHTO   H57 6228   6.724   3.588  -0.010 -1.4845 -0.3130 -0.1978
   15CHTO   O21 6229   6.634   3.566  -0.202  0.4771  0.0922  0.3736
   15CHTO   H37 6230   6.658   3.599  -0.287  1.8399  2.8248  1.7756
   15CHTO   C27 6231   6.679   3.797  -0.090  0.3099  0.5090 -0.0186
   15CHTO   H55 6232   6.687   3.845  -0.189  1.7742  2.6281  1.0992
   15CHTO    N5 6233   6.545   3.817  -0.039  0.2389 -0.3881  0.2214
   15CHTO   H43 6234   6.517   3.921  -0.034 -1.0174 -0.7326  0.6404
   15CHTO   H44 6235   6.483   3.762  -0.109  2.5828 -2.7736 -0.0651
   15CHTO   C25 6236   6.783   3.869  -0.001 -0.1452 -0.3795  0.5476
   15CHTO   H53 6237   6.783   3.820   0.097  1.1771  0.8925  1.2159
   15CHTO   O17 6238   6.918   3.851  -0.069  0.3185  0.2210  0.1205
   15CHTO   C32 6239   6.965   3.713  -0.064  0.0999 -0.0131  0.7008
   15CHTO   H60 6240   6.958   3.689   0.042 -1.4506 -1.1468  0.3539
   15CHTO   C36 6241   7.111   3.714  -0.106  0.1140  0.2223 -0.6073
   15CHTO   O25 6242   7.126   3.777  -0.235  0.1105 -0.1488  0.2842
   15CHTO   H40 6243   7.160   3.716  -0.296 -1.2940  0.2911 -0.9836
   15CHTO   O15 6244   6.761   4.017   0.011 -0.4810 -0.0031  0.4613
   15CHTO   C19 6245   6.808   4.147   0.056 -0.2904  0.2295 -0.4218
   15CHTO   H47 6246   6.851   4.191  -0.036  1.3913 -2.5456 -0.9983
   15CHTO   C20 6247   6.691   4.232   0.109 -0.1834 -0.6049 -0.0534
   15CHTO   H48 6248   6.643   4.183   0.195 -1.1176 -3.1410 -1.9367
   15CHTO   O19 6249   6.596   4.252   0.009  0.4344  0.0247  0.1640
   15CHTO   H35 6250   6.630   4.307  -0.059 -0.7965  0.4858 -0.0980
   15CHTO   C21 6251   6.742   4.367   0.164  0.0934 -0.3817  0.4528
   15CHTO   H49 6252   6.784   4.425   0.082 -3.0967 -1.2874 -1.8832
   15CHTO    N4 6253   6.639   4.461   0.224  0.2197  0.3107  0.2361
   15CHTO   H41 6254   6.581   4.502   0.142 -0.3405  1.3738  1.1512
   15CHTO   H42 6255   6.692   4.538   0.277  3.8006 -2.0185  0.1773
   15CHTO   C22 6256   6.869   4.357   0.259  0.4146 -0.0121 -0.3786
   15CHTO   H50 6257   6.829   4.324   0.354  0.6129  0.5864 -0.0844
   15CHTO   O14 6258   6.962   4.271   0.192  0.4231 -0.4724 -0.1336
   15CHTO   C23 6259   6.920   4.137   0.161  0.3344  0.0240  0.6475
   15CHTO   H51 6260   6.890   4.088   0.255 -1.3198 -0.0217  0.1034
   15CHTO   C34 6261   7.048   4.055   0.119 -0.1798  0.4088  0.7122
   15CHTO   O23 6262   7.138   4.036   0.230 -0.1264 -0.0920  0.3806
   15CHTO   H38 6263   7.216   3.986   0.213 -0.0366 -0.1892  1.0645
   15CHTO   O16 6264   6.927   4.486   0.286 -0.2104  0.3459 -0.0048
   15CHTO   C24 6265   6.995   4.498   0.439  0.2228  0.0715  0.0871
   15CHTO   H52 6266   6.974   4.413   0.503  1.8423  0.6631  1.4329
   15CHTO   C26 6267   6.929   4.622   0.496 -0.5811  0.6832  0.3276
   15CHTO   H54 6268   6.934   4.705   0.423 -2.2574  0.6029  0.1052
   15CHTO   O20 6269   6.794   4.593   0.537  0.5006 -0.4110  0.0603
   15CHTO   H36 6270   6.745   4.673   0.536 -1.2007 -1.4538 -1.7654
   15CHTO   C30 6271   7.007   4.674   0.623 -0.1202 -0.0674 -0.0263
   15CHTO   H58 6272   6.992   4.609   0.711  2.9486 -0.2692  0.4054
   15CHTO    N6 6273   6.962   4.814   0.652 -0.5176 -0.5937  0.1269
   15CHTO   H45 6274   7.012   4.851   0.740  2.5157 -3.4074 -0.2955
   15CHTO   H46 6275   6.856   4.813   0.667 -0.2397 -1.1894  2.1729
   15CHTO   C33 6276   7.164   4.664   0.603  0.2440 -0.1579  0.2076
   15CHTO   H61 6277   7.202   4.736   0.530 -3.1100  0.9982 -0.5057
   15CHTO   O18 6278   7.197   4.529   0.563 -0.3463 -0.4189  0.6545
   15CHTO   C28 6279   7.148   4.509   0.429 -0.1079  0.2953  0.2037
   15CHTO   H56 6280   7.172   4.588   0.358  0.1844 -1.6883 -1.9413
   15CHTO   C35 6281   7.211   4.373   0.374 -0.4145 -0.0933  0.4926
   15CHTO   O24 6282   7.198   4.263   0.460 -0.2436 -0.4878  0.2030
   15CHTO   H39 6283   7.112   4.266   0.499  0.1510 -0.6939  1.0902
   15CHTO    O9 6284   7.230   4.699   0.724 -0.1829  0.5260  0.6326
   15CHTO   C13 6285   7.415   4.731   0.727 -0.4068  0.5218 -0.4545
   15CHTO   H26 6286   7.430   4.835   0.760  2.4308  0.2131 -0.6225
   15CHTO   C11 6287   7.506   4.699   0.595 -0.2428 -0.8660  0.4454
   15CHTO   H24 6288   7.471   4.757   0.508 -0.7017  0.3478  1.4147
   15CHTO    O8 6289   7.479   4.559   0.558 -1.1172 -0.8542 -0.0577
   15CHTO    H3 6290   7.435   4.559   0.475  1.0971 -1.6218 -1.2916
   15CHTO    C9 6291   7.661   4.735   0.623 -0.2855  0.0997 -0.4943
   15CHTO   H22 6292   7.661   4.840   0.655  1.8857  0.0126 -0.1409
   15CHTO    N2 6293   7.754   4.733   0.508 -0.1299 -0.1690 -0.5675
   15CHTO   H10 6294   7.844   4.783   0.538 -0.2347  0.2284 -0.9131
   15CHTO   H11 6295   7.710   4.782   0.422 -0.7321 -1.8466 -1.2434
   15CHTO    C7 6296   7.707   4.653   0.742 -0.2420  0.7316  0.1901
   15CHTO   H20 6297   7.796   4.707   0.777  0.0675 -0.3578  1.1119
   15CHTO    O4 6298   7.621   4.663   0.850  0.1164  0.2443  0.4063
   15CHTO   C14 6299   7.483   4.658   0.851 -0.6311  0.0474  0.0234
   15CHTO   H27 6300   7.460   4.713   0.945 -1.7399  1.0051 -0.8012
   15CHTO   C18 6301   7.446   4.504   0.877 -0.1182 -0.0616 -0.3660
   15CHTO   O13 6302   7.311   4.479   0.845 -0.0240 -0.0457  0.0248
   15CHTO    H7 6303   7.296   4.468   0.753 -1.7571  1.1531  0.1490
   15CHTO    O2 6304   7.743   4.486   0.706  0.1875 -0.0826 -0.3879
   15CHTO    C1 6305   7.855   4.440   0.782  0.8983 -0.4787 -0.4539
   15CHTO   H14 6306   7.850   4.475   0.887  2.7751 -2.8513  0.4591
   15CHTO    C2 6307   8.000   4.474   0.727  0.1874  0.2769  0.5026
   15CHTO   H15 6308   7.996   4.490   0.618 -2.7428 -0.0903  0.5414
   15CHTO    O6 6309   8.042   4.599   0.769  0.3158  0.7799 -0.2278
   15CHTO    H1 6310   8.124   4.636   0.744  0.1929  1.3440  0.1744
   15CHTO    C3 6311   8.114   4.380   0.780  0.0655  0.1630  0.2930
   15CHTO   H16 6312   8.144   4.407   0.882  0.3832  1.6501 -0.1750
   15CHTO    N1 6313   8.248   4.389   0.717  0.0323  0.2781  0.2388
   15CHTO    H8 6314   8.249   4.456   0.632 -0.7142 -0.7895 -0.6252
   15CHTO    H9 6315   8.323   4.418   0.788 -0.1078  1.2535  0.0028
   15CHTO    C4 6316   8.060   4.230   0.785  0.3863  0.7607 -0.2074
   15CHTO   H17 6317   8.052   4.199   0.681  0.5872  1.9820 -0.6006
   15CHTO    O1 6318   7.940   4.222   0.853 -0.2678 -0.3926  0.4530
   15CHTO    C5 6319   7.834   4.286   0.786  0.0914 -0.2194 -0.0089
   15CHTO   H18 6320   7.821   4.249   0.684 -1.3634 -0.2827  0.1983
   15CHTO   C16 6321   7.717   4.232   0.864 -0.8242  0.1816 -0.5618
   15CHTO   O11 6322   7.590   4.245   0.802 -0.1806  0.0887  0.1195
   15CHTO    H5 6323   7.580   4.186   0.730 -1.0694  0.2076  0.1501
   15CHTO    O3 6324   8.152   4.144   0.856  0.3568  0.7176 -0.8867
   15CHTO    C6 6325   8.166   4.002   0.811 -0.5016  0.2816  0.2407
   15CHTO   H19 6326   8.100   3.973   0.728 -0.4290 -0.0558  0.3021
   15CHTO    C8 6327   8.309   3.972   0.757 -0.7062 -0.0762 -1.0742
   15CHTO   H21 6328   8.384   3.994   0.833 -0.5646  0.5900 -1.4052
   15CHTO    O7 6329   8.338   4.037   0.633  0.5578 -0.7052 -0.2145
   15CHTO    H2 6330   8.409   3.999   0.585  0.1198  2.5644 -3.7295
   15CHTO   C12 6331   8.331   3.814   0.736  1.0522  0.4586 -0.4579
   15CHTO   H25 6332   8.268   3.789   0.648  1.7346  1.4877 -1.2481
   15CHTO    N3 6333   8.472   3.770   0.697 -0.2156  0.8504 -0.4995
   15CHTO   H12 6334   8.517   3.825   0.616 -1.2886 -0.5083 -2.0485
   15CHTO   H13 6335   8.541   3.766   0.781  1.0555  0.0904 -1.5595
   15CHTO   C15 6336   8.273   3.739   0.857 -0.2202  0.5518 -0.2213
   15CHTO   H28 6337   8.334   3.759   0.945  0.3886 -1.5744 -0.1156
   15CHTO   O10 6338   8.246   3.581   0.826 -0.1408 -0.8152  0.2268
   15CHTO    H4 6339   8.164   3.576   0.781  0.8693 -0.1400 -1.7121
   15CHTO    O5 6340   8.133   3.773   0.892  0.1824 -0.2850  0.2899
   15CHTO   C10 6341   8.123   3.909   0.926 -0.9315  0.2981  0.1636
   15CHTO   H23 6342   8.193   3.924   1.008  0.7360 -1.6028 -0.8516
   15CHTO   C17 6343   7.984   3.924   0.978  0.3740  0.2213 -0.5280
   15CHTO   O12 6344   7.881   3.939   0.874 -0.2172 -0.0862  0.2285
   15CHTO    H6 6345   7.803   3.967   0.917  1.0974  2.0607  1.2820
   16CHTO  H203 6346   5.954   4.750   0.082 -2.4321  0.6156 -1.6901
   16CHTO   O82 6347   5.893   4.739   0.152 -0.3643  0.3883  0.1221
   16CHTO  C123 6348   5.966   4.686   0.265 -0.0071 -0.1771  0.3430
   16CHTO  H227 6349   5.918   4.723   0.356  1.6814  0.0917  1.1406
   16CHTO   O77 6350   5.949   4.539   0.249  0.5870  0.3718 -0.5388
   16CHTO  C118 6351   6.005   4.469   0.369  0.0634 -0.0676 -0.0386
   16CHTO  H222 6352   5.974   4.527   0.458  1.7021  1.2271 -0.2966
   16CHTO  C125 6353   5.954   4.320   0.374 -0.5419 -0.0153  0.2438
   16CHTO   O84 6354   5.968   4.250   0.250 -0.0592 -0.1793 -0.3338
   16CHTO  H205 6355   5.931   4.165   0.263 -0.9922  0.1961 -0.4338
   16CHTO  C114 6356   6.158   4.485   0.361  0.9017 -0.3525  0.1192
   16CHTO  H218 6357   6.197   4.461   0.262 -1.1563 -2.4474 -0.2118
   16CHTO  C116 6358   6.197   4.636   0.368 -0.4154 -0.0859  0.0917
   16CHTO  H220 6359   6.182   4.669   0.472 -0.4915 -0.2267  0.1256
   16CHTO   O79 6360   6.340   4.632   0.329 -0.6303 -0.7018  0.0261
   16CHTO  H201 6361   6.378   4.718   0.323  1.0483 -1.4206  0.2294
   16CHTO  C120 6362   6.118   4.723   0.262  0.5269 -0.1631 -0.2019
   16CHTO  H224 6363   6.157   4.699   0.161  0.0869 -1.4881 -0.0670
   16CHTO   N21 6364   6.154   4.866   0.274 -0.6754  0.0339 -0.1195
   16CHTO  H211 6365   6.238   4.906   0.220 -0.9686 -1.3903 -1.6730
   16CHTO  H212 6366   6.152   4.895   0.378 -0.8639 -1.7726  0.4018
   16CHTO   O75 6367   6.216   4.413   0.470 -0.1917  0.4470 -0.3490
   16CHTO  C112 6368   6.354   4.330   0.433 -0.3571  0.5631 -0.2489
   16CHTO  H216 6369   6.405   4.389   0.355 -3.6966  0.9403 -2.2409
   16CHTO   O73 6370   6.305   4.202   0.384  0.0866 -0.1348 -1.1195
   16CHTO  C113 6371   6.399   4.118   0.320  0.7994  0.3344  0.1353
   16CHTO  H217 6372   6.446   4.177   0.238  2.9891 -1.1860  0.2657
   16CHTO  C124 6373   6.329   4.002   0.249 -0.2230  0.0992 -0.3501
   16CHTO   O83 6374   6.242   3.930   0.327 -0.1250 -0.3897 -0.2731
   16CHTO  H204 6375   6.192   3.879   0.266  0.9102 -2.4555  0.5472
   16CHTO  C109 6376   6.499   4.077   0.427  0.4171 -0.5389 -0.3865
   16CHTO  H213 6377   6.442   4.013   0.495 -1.4073  0.3111 -1.0478
   16CHTO  C110 6378   6.550   4.205   0.504  0.8546 -0.3371 -0.6222
   16CHTO  H214 6379   6.615   4.260   0.436  2.1301 -1.1395 -0.0812
   16CHTO   O78 6380   6.623   4.153   0.611  0.0097  0.5505  0.2813
   16CHTO  H200 6381   6.714   4.132   0.598  0.4926  2.1983  0.8240
   16CHTO  C111 6382   6.436   4.296   0.558 -0.1050 -0.0108  0.0737
   16CHTO  H215 6383   6.388   4.232   0.634  3.9454 -1.7595  1.3203
   16CHTO   N19 6384   6.481   4.419   0.625  0.1469 -0.8059 -0.6418
   16CHTO  H207 6385   6.579   4.446   0.588  0.0414 -1.8979 -1.7475
   16CHTO  H208 6386   6.477   4.420   0.733 -0.0613  1.6869 -0.6347
   16CHTO   O74 6387   6.612   4.001   0.360  0.3712 -0.1288  0.2059
   16CHTO  C115 6388   6.671   3.876   0.448 -0.1843  0.1185 -0.5194
   16CHTO  H219 6389   6.665   3.896   0.554  0.3751  1.0050 -0.6477
   16CHTO   O76 6390   6.594   3.763   0.431 -0.5882 -0.4452  0.1735
   16CHTO  C122 6391   6.637   3.685   0.321  0.2060  0.1244 -0.1103
   16CHTO  H226 6392   6.645   3.753   0.237  0.3874  0.3037  0.0503
   16CHTO  C126 6393   6.521   3.590   0.292 -0.3598 -0.8301 -0.0537
   16CHTO   O85 6394   6.522   3.532   0.164 -0.4719  0.0015  0.3355
   16CHTO  H206 6395   6.457   3.574   0.111  0.8383  0.0804 -1.2373
   16CHTO  C121 6396   6.779   3.612   0.352 -0.3733  0.5448 -0.4349
   16CHTO  H225 6397   6.783   3.511   0.399  1.7183 -0.0514 -1.8005
   16CHTO   O81 6398   6.847   3.582   0.224 -0.1719 -0.2498  0.2935
   16CHTO  H202 6399   6.911   3.514   0.232  0.3870 -0.1160 -2.5715
   16CHTO  C119 6400   6.873   3.715   0.426  0.2120 -0.4290  0.1084
   16CHTO  H223 6401   6.859   3.682   0.529 -1.5321  0.9533  0.3366
   16CHTO  C117 6402   6.825   3.866   0.413 -0.7478 -0.3893  0.6930
   16CHTO  H221 6403   6.829   3.907   0.312  0.0091 -0.4857  0.6799
   16CHTO   N20 6404   6.913   3.950   0.498 -0.2252 -0.5235 -0.1907
   16CHTO  H209 6405   6.935   3.896   0.589 -1.6086 -1.1234 -0.1951
   16CHTO  H210 6406   7.009   3.955   0.449  0.1675 -0.8629  0.5305
   16CHTO   O80 6407   7.025   3.691   0.404 -0.6760  0.0816  0.3414
   16CHTO  C103 6408   7.108   3.592   0.516 -0.2920 -0.0880 -0.0731
   16CHTO  H190 6409   7.090   3.622   0.619  1.4826  0.4022  0.1119
   16CHTO  C101 6410   7.092   3.437   0.488 -0.4552 -1.2037 -0.7315
   16CHTO  H188 6411   7.105   3.429   0.380  1.3442  0.4797 -0.6604
   16CHTO   O68 6412   6.948   3.389   0.535 -0.0720 -0.0350 -0.5886
   16CHTO  H168 6413   6.940   3.386   0.629 -0.4818 -2.1002 -0.6618
   16CHTO   C99 6414   7.203   3.356   0.568 -0.1427  0.6752  0.2315
   16CHTO  H186 6415   7.186   3.359   0.678 -0.8054  1.0176  0.1225
   16CHTO   N17 6416   7.201   3.210   0.532  0.3943  0.1881 -0.3877
   16CHTO  H174 6417   7.224   3.179   0.432  1.2768 -2.0427  0.4686
   16CHTO  H175 6418   7.227   3.151   0.619 -1.1593 -1.0476 -0.7256
   16CHTO   C97 6419   7.341   3.423   0.546 -0.3978  0.7303 -0.4538
   16CHTO  H184 6420   7.372   3.411   0.441  1.3112  0.7641  0.0321
   16CHTO   O64 6421   7.335   3.558   0.584  0.3903 -0.9981  0.8884
   16CHTO  C104 6422   7.263   3.628   0.485 -0.0297 -1.0063 -0.5329
   16CHTO  H191 6423   7.290   3.600   0.384 -2.5572 -0.9084 -1.2868
   16CHTO  C108 6424   7.286   3.782   0.504 -0.3264 -0.1470 -0.0015
   16CHTO   O71 6425   7.418   3.827   0.472 -0.5063 -0.3467 -0.6861
   16CHTO  H171 6426   7.476   3.827   0.545 -1.6237 -0.1861  0.2083
   16CHTO   O62 6427   7.439   3.359   0.637  0.7793  0.0292 -0.4468
   16CHTO   C91 6428   7.540   3.423   0.716 -0.4549 -0.4938 -0.2586
   16CHTO  H178 6429   7.594   3.488   0.647  0.1222  0.8032  1.3811
   16CHTO   C92 6430   7.631   3.303   0.771  0.4973  0.2270  0.1556
   16CHTO  H179 6431   7.658   3.241   0.684  0.5054  0.2544  0.1383
   16CHTO   O66 6432   7.753   3.363   0.816 -0.5700 -0.0385  0.0101
   16CHTO  H166 6433   7.740   3.421   0.888 -1.6738  0.5941 -0.6752
   16CHTO   C93 6434   7.568   3.219   0.892  0.0413 -0.0218 -0.2499
   16CHTO  H180 6435   7.646   3.193   0.966  0.2188  2.2993  0.4181
   16CHTO   N16 6436   7.530   3.085   0.848  0.2100  0.8670  0.3711
   16CHTO  H172 6437   7.511   3.023   0.934  0.3529  0.0847 -0.1481
   16CHTO  H173 6438   7.592   3.041   0.771 -0.9575  0.1504 -0.1778
   16CHTO   C94 6439   7.456   3.297   0.967  0.1492 -0.2546 -0.4568
   16CHTO  H181 6440   7.358   3.283   0.921 -0.2464  0.5482  0.1295
   16CHTO   O61 6441   7.491   3.437   0.973 -0.5459 -0.0861  0.7500
   16CHTO   C95 6442   7.487   3.510   0.841 -0.0290  0.1258  0.1193
   16CHTO  H182 6443   7.383   3.532   0.817  0.2241  0.4754 -0.7153
   16CHTO  C106 6444   7.573   3.636   0.864 -0.2377 -0.3954 -0.3466
   16CHTO   O69 6445   7.573   3.722   0.746 -0.2028  0.3018 -0.1155
   16CHTO  H169 6446   7.626   3.676   0.684 -1.1229 -1.9089  0.6549
   16CHTO   O63 6447   7.450   3.250   1.106 -0.5896 -0.3530 -0.1836
   16CHTO   C96 6448   7.298   3.191   1.166  0.4994 -0.8120  0.3612
   16CHTO  H183 6449   7.305   3.166   1.272  1.7246 -3.0104 -0.1970
   16CHTO   C98 6450   7.236   3.061   1.106 -0.3631 -0.5774 -0.3392
   16CHTO  H185 6451   7.244   3.074   0.997  0.2561  1.3234 -0.0950
   16CHTO   O67 6452   7.324   2.949   1.135 -0.2373 -0.1282  0.2555
   16CHTO  H167 6453   7.302   2.876   1.080  1.3298  0.0100 -0.5938
   16CHTO  C102 6454   7.087   3.026   1.140  0.1684  0.6977  0.5595
   16CHTO  H189 6455   7.088   2.987   1.243 -0.1340 -0.9247 -0.0410
   16CHTO   N18 6456   7.038   2.911   1.058  0.7836  0.5002 -0.1030
   16CHTO  H176 6457   7.085   2.823   1.101  1.0393  1.7227  2.2170
   16CHTO  H177 6458   7.058   2.924   0.953  0.0052  0.7934 -0.2163
   16CHTO  C105 6459   7.007   3.157   1.126 -0.6435  0.0938 -0.1578
   16CHTO  H192 6460   7.004   3.174   1.018  2.1597 -1.7429 -0.5604
   16CHTO   O65 6461   7.071   3.267   1.195  0.6187 -0.2971 -0.8858
   16CHTO  C100 6462   7.202   3.313   1.157  0.5373 -0.1538  0.3678
   16CHTO  H187 6463   7.206   3.353   1.055  0.8782 -0.2348  0.3456
   16CHTO  C107 6464   7.234   3.430   1.255  0.2504 -0.1032  0.1962
   16CHTO   O70 6465   7.131   3.528   1.234  0.4783  0.0895  0.0390
   16CHTO  H170 6466   7.168   3.612   1.252 -0.0784  0.0766  1.3413
   16CHTO   O57 6467   6.855   3.134   1.185 -0.1909 -0.9202 -0.3020
   16CHTO   C85 6468   6.753   3.215   1.122 -0.4098  1.0296 -0.6823
   16CHTO  H157 6469   6.797   3.262   1.032  2.5991 -2.1181 -0.9621
   16CHTO   C83 6470   6.715   3.338   1.212  0.6094 -0.0463 -0.2798
   16CHTO  H155 6471   6.810   3.385   1.238  2.2877 -2.1831 -2.3569
   16CHTO   O56 6472   6.649   3.293   1.334 -0.1050  0.2027 -0.1864
   16CHTO  H135 6473   6.557   3.277   1.330 -0.0914  0.3226 -1.0852
   16CHTO   C81 6474   6.623   3.439   1.138 -0.0026  0.0190 -0.6692
   16CHTO  H153 6475   6.670   3.466   1.044  1.5563  0.9379  0.3556
   16CHTO   N14 6476   6.615   3.571   1.206  0.4511  0.6422  0.4910
   16CHTO  H141 6477   6.531   3.621   1.162 -0.1973 -0.4230  0.5005
   16CHTO  H142 6478   6.586   3.548   1.306 -0.2946  0.6936  0.2925
   16CHTO   C79 6479   6.483   3.366   1.111 -0.0455  0.3651 -0.4032
   16CHTO  H151 6480   6.429   3.432   1.043 -0.4337  1.5042  1.0124
   16CHTO   O52 6481   6.503   3.239   1.038  0.0222 -0.0648  0.3572
   16CHTO   C86 6482   6.611   3.149   1.090  0.8771 -0.8625  0.1142
   16CHTO  H158 6483   6.565   3.105   1.181 -2.4667 -1.6155 -1.8422
   16CHTO   C90 6484   6.631   3.027   1.005  0.3673 -0.2461  0.5209
   16CHTO   O60 6485   6.537   2.924   1.005  0.0791 -0.0823 -0.6152
   16CHTO  H138 6486   6.556   2.851   1.059  0.9905 -0.5616 -1.5777
   16CHTO   O50 6487   6.396   3.340   1.221 -0.1630 -0.5984 -0.4687
   16CHTO   C73 6488   6.258   3.360   1.236 -0.6462 -0.2164  0.1595
   16CHTO  H145 6489   6.210   3.263   1.256 -0.8659  0.2836  2.1842
   16CHTO   C74 6490   6.188   3.426   1.109  0.1103  0.1708 -0.4277
   16CHTO  H146 6491   6.222   3.372   1.020 -1.6861 -4.1806  1.3786
   16CHTO   O54 6492   6.048   3.406   1.115 -0.0966 -0.1105  0.2945
   16CHTO  H133 6493   5.998   3.476   1.077 -1.6199 -1.2286  0.1853
   16CHTO   C75 6494   6.226   3.584   1.110 -0.2096 -0.0837 -0.6695
   16CHTO  H147 6495   6.334   3.591   1.092 -0.3002  2.4082 -0.3599
   16CHTO   N13 6496   6.154   3.669   1.007 -0.2031 -0.2044 -0.8977
   16CHTO  H139 6497   6.130   3.607   0.921 -0.2729 -2.2804  0.5912
   16CHTO  H140 6498   6.218   3.749   0.974 -0.8309 -0.1128 -1.9320
   16CHTO   C76 6499   6.186   3.646   1.255 -0.2354 -0.3859 -0.1017
   16CHTO  H148 6500   6.082   3.624   1.280 -0.7724  0.2267 -1.7010
   16CHTO   O49 6501   6.280   3.585   1.346  0.8920  0.3666  0.3268
   16CHTO   C77 6502   6.241   3.447   1.369 -0.6257  0.2764 -0.1039
   16CHTO  H149 6503   6.138   3.454   1.404 -1.6081  2.2562 -3.1731
   16CHTO   C88 6504   6.317   3.407   1.492  0.4323  0.1719 -0.2303
   16CHTO   O58 6505   6.285   3.276   1.536 -0.1513 -0.2223 -0.8190
   16CHTO  H136 6506   6.326   3.267   1.619  1.0648  1.0054 -1.2658
   16CHTO   O51 6507   6.222   3.797   1.275  0.0154  0.3166  0.6157
   16CHTO   C78 6508   6.199   3.859   1.419 -1.2695 -0.1300 -0.2112
   16CHTO  H150 6509   6.195   3.779   1.495  0.5122 -1.8995 -1.9322
   16CHTO   C80 6510   6.071   3.947   1.430 -0.4607 -0.3587 -0.3975
   16CHTO  H152 6511   6.074   4.026   1.352  1.3027 -0.3491 -0.3321
   16CHTO   O55 6512   5.962   3.858   1.406  0.3066  0.2636 -0.2596
   16CHTO  H134 6513   5.976   3.772   1.441 -2.3060  1.9528  5.5432
   16CHTO   C84 6514   6.062   4.019   1.570  0.0392 -0.3234 -0.1795
   16CHTO  H156 6515   6.042   3.941   1.643  0.1977  1.2357  1.5508
   16CHTO   N15 6516   5.948   4.124   1.584 -0.4310 -0.4960 -0.3198
   16CHTO  H143 6517   5.854   4.081   1.555 -0.6995 -0.3115  0.2618
   16CHTO  H144 6518   5.937   4.158   1.685  2.8977  0.8846 -0.3539
   16CHTO   C87 6519   6.190   4.098   1.596  0.4665  0.6162  0.5857
   16CHTO  H159 6520   6.206   4.176   1.521  0.3113  0.6022  0.5370
   16CHTO   O53 6521   6.318   4.002   1.588  0.2847  0.0690  0.1398
   16CHTO   C82 6522   6.329   3.941   1.454 -0.1265 -1.0059 -0.6031
   16CHTO  H154 6523   6.344   4.031   1.394  0.8421 -0.7463  0.0262
   16CHTO   C89 6524   6.457   3.854   1.446  0.3028  0.2441 -0.0345
   16CHTO   O59 6525   6.473   3.769   1.561  0.2183 -0.0073 -0.1634
   16CHTO  H137 6526   6.531   3.700   1.535  0.0803 -0.8771  1.8003
   16CHTO   O45 6527   6.207   4.154   1.745  0.1340 -0.2919 -0.1003
   16CHTO   C67 6528   6.328   4.214   1.786 -1.0180 -0.5043 -0.2172
   16CHTO  H124 6529   6.400   4.198   1.705 -2.8452  1.5749 -2.3212
   16CHTO   C65 6530   6.310   4.372   1.803  0.4200  0.1676 -0.3766
   16CHTO  H122 6531   6.207   4.384   1.836  0.8139  2.5102  0.1050
   16CHTO   O44 6532   6.334   4.420   1.671 -0.5339 -0.7195 -0.2164
   16CHTO  H102 6533   6.262   4.413   1.611 -1.0925 -2.2482  0.6283
   16CHTO   C63 6534   6.410   4.437   1.910 -0.3920 -0.4979  0.2795
   16CHTO  H120 6535   6.372   4.413   2.009 -1.5313  2.1879  0.5433
   16CHTO   N11 6536   6.432   4.586   1.919 -0.5418  0.8417  0.6343
   16CHTO  H108 6537   6.340   4.641   1.915 -1.1634 -0.1520  1.0396
   16CHTO  H109 6538   6.480   4.607   1.825 -1.1554 -1.2837 -0.1680
   16CHTO   C61 6539   6.541   4.355   1.906  0.0901 -0.6239  0.5352
   16CHTO  H118 6540   6.609   4.401   1.979 -0.2078  0.8609 -0.0890
   16CHTO   O40 6541   6.517   4.217   1.945  0.5081  0.4780 -0.3533
   16CHTO   C68 6542   6.386   4.158   1.916 -0.3896  0.1139  0.3361
   16CHTO  H125 6543   6.320   4.160   2.005  2.6792 -0.0498  2.7148
   16CHTO   C72 6544   6.417   4.011   1.891 -1.0953 -0.3685  0.6974
   16CHTO   O48 6545   6.454   3.926   1.997 -0.0847 -0.4584 -0.1991
   16CHTO  H105 6546   6.515   3.861   1.966 -1.8779 -2.7919  0.9630
   16CHTO   O38 6547   6.612   4.367   1.778 -0.4893  0.3585 -0.5477
   16CHTO   C55 6548   6.750   4.329   1.771  0.2953  0.2846 -0.4771
   16CHTO  H112 6549   6.782   4.287   1.868  1.6449  0.1452 -0.9660
   16CHTO   C56 6550   6.831   4.466   1.739 -0.1356  0.6188 -0.3392
   16CHTO  H113 6551   6.781   4.505   1.648 -1.9764  1.2343  0.9062
   16CHTO   O42 6552   6.799   4.554   1.845  0.5216  0.9763 -0.0044
   16CHTO  H100 6553   6.838   4.517   1.922 -1.1778 -0.8631  0.0199
   16CHTO   C57 6554   6.986   4.453   1.730  0.0558 -0.9219 -0.2763
   16CHTO  H114 6555   7.018   4.433   1.832  2.9701  1.8533 -0.5686
   16CHTO   N10 6556   7.053   4.573   1.681  0.1355 -0.7740  0.2136
   16CHTO  H106 6557   6.996   4.653   1.726  0.3805 -1.7176  2.2328
   16CHTO  H107 6558   7.060   4.587   1.574  0.8421 -0.0688  0.3442
   16CHTO   C58 6559   7.013   4.326   1.649 -0.4610 -1.0761 -0.2152
   16CHTO  H115 6560   6.998   4.348   1.542 -0.5206  0.2261  0.0566
   16CHTO   O37 6561   6.941   4.214   1.686  0.5598  0.0044 -0.0768
   16CHTO   C59 6562   6.797   4.234   1.661  0.6032  0.0292 -0.1814
   16CHTO  H116 6563   6.759   4.273   1.567 -1.9057  2.1445  1.6283
   16CHTO   C70 6564   6.728   4.098   1.665 -0.7802 -0.3999 -0.2068
   16CHTO   O46 6565   6.790   4.011   1.576  0.5049  0.6306 -0.2502
   16CHTO  H103 6566   6.765   3.922   1.594  1.7767  0.5863  1.4523
   16CHTO   O39 6567   7.193   4.287   1.669 -0.2061 -0.4037 -0.0770
   16CHTO   C60 6568   7.253   4.231   1.550 -0.3943 -0.4653  0.8763
   16CHTO  H117 6569   7.177   4.176   1.495 -1.4415  1.1116  0.7003
   16CHTO   C62 6570   7.326   4.340   1.467 -0.3188  0.3785  0.4955
   16CHTO  H119 6571   7.237   4.402   1.445 -0.2823  0.0093 -0.7484
   16CHTO   O43 6572   7.417   4.412   1.546 -0.2160  0.1302  0.9496
   16CHTO  H101 6573   7.478   4.348   1.577 -2.8813 -2.7166  0.5442
   16CHTO   C66 6574   7.388   4.268   1.334 -0.0914 -0.4848  0.4763
   16CHTO  H123 6575   7.314   4.203   1.287 -0.4032  0.5782 -0.5066
   16CHTO   N12 6576   7.423   4.365   1.222  0.0712  0.5052  0.6323
   16CHTO  H110 6577   7.329   4.398   1.181  0.9804  1.2727 -0.8715
   16CHTO  H111 6578   7.476   4.449   1.263  0.1371 -0.5400  2.7808
   16CHTO   C69 6579   7.510   4.193   1.376 -0.3391 -0.5144 -0.1101
   16CHTO  H126 6580   7.582   4.249   1.439 -0.5769 -0.8311  0.4495
   16CHTO   O41 6581   7.453   4.076   1.476 -0.3350  0.3859  0.1231
   16CHTO   C64 6582   7.358   4.125   1.604  0.0997  0.5460  0.7550
   16CHTO  H121 6583   7.414   4.171   1.688 -0.2527 -0.3493  1.4945
   16CHTO   C71 6584   7.296   4.001   1.668  0.1284 -0.4925  0.3939
   16CHTO   O47 6585   7.390   3.913   1.723 -0.3189  0.0952 -0.0007
   16CHTO  H104 6586   7.341   3.849   1.772 -0.4285  1.5012  1.7646
   16CHTO   O34 6587   7.579   4.124   1.261 -0.5677  0.0820 -0.1061
   16CHTO   C49 6588   7.671   3.998   1.233  0.1034 -0.2772  0.4188
   16CHTO   H91 6589   7.766   4.032   1.190 -0.1798  0.6951  0.5504
   16CHTO   C47 6590   7.601   3.902   1.145  0.1271  0.1736 -0.4059
   16CHTO   H89 6591   7.678   3.822   1.137 -0.8741 -0.7035 -1.5051
   16CHTO   O33 6592   7.586   3.970   1.014 -0.2256 -0.1024  0.5635
   16CHTO   H70 6593   7.663   3.965   0.961  0.3242  0.3469  1.3269
   16CHTO   C45 6594   7.462   3.849   1.213 -0.5783 -0.3026 -0.0530
   16CHTO   H87 6595   7.410   3.926   1.271 -1.7547 -1.0129 -0.1600
   16CHTO    N8 6596   7.369   3.785   1.124  0.5314 -0.4388  0.5230
   16CHTO   H75 6597   7.417   3.697   1.083 -0.3036  0.0688 -1.6361
   16CHTO   H76 6598   7.333   3.854   1.049  2.2602 -0.6175 -0.5125
   16CHTO   C43 6599   7.516   3.764   1.336 -0.3102  0.9136  0.8767
   16CHTO   H85 6600   7.424   3.737   1.388 -0.2630  0.0045  0.4914
   16CHTO   O29 6601   7.610   3.834   1.418  0.5033 -0.1434 -0.6924
   16CHTO   C50 6602   7.704   3.925   1.365 -0.5244  0.1338  0.0138
   16CHTO   H92 6603   7.711   4.004   1.442 -0.9526 -0.5477  0.7658
   16CHTO   C54 6604   7.849   3.850   1.372 -0.4685 -0.0529  0.3874
   16CHTO   O36 6605   7.898   3.839   1.508  0.0041 -0.4799 -0.1958
   16CHTO   H72 6606   7.989   3.854   1.528  0.3610 -0.2597 -1.9037
   16CHTO   O27 6607   7.576   3.640   1.287  0.5338 -0.4066 -0.6600
   16CHTO   C37 6608   7.651   3.540   1.366  0.0741  0.1507  0.0855
   16CHTO   H79 6609   7.741   3.578   1.416 -1.3775  1.5854  1.6847
   16CHTO   C38 6610   7.562   3.488   1.480  0.6162  0.5950 -0.1782
   16CHTO   H80 6611   7.456   3.491   1.450  0.7331 -1.1911 -0.7993
   16CHTO   O31 6612   7.578   3.574   1.592 -0.2040  0.2537  0.4659
   16CHTO   H68 6613   7.498   3.589   1.639  1.0679  1.0639  2.4538
   16CHTO   C39 6614   7.595   3.334   1.531 -0.2265 -0.0329  0.3301
   16CHTO   H81 6615   7.670   3.334   1.610  0.0702  0.6355  0.0541
   16CHTO    N7 6616   7.474   3.272   1.586  0.6268 -0.4706 -0.5770
   16CHTO   H73 6617   7.385   3.267   1.525 -1.3671  2.2275  1.9692
   16CHTO   H74 6618   7.441   3.322   1.676 -2.1330 -2.2791 -0.5199
   16CHTO   C40 6619   7.650   3.244   1.414 -0.4558  0.1175  0.3195
   16CHTO   H82 6620   7.564   3.223   1.351 -0.7449  0.5088  0.5783
   16CHTO   O26 6621   7.757   3.317   1.344 -0.0929 -0.4087  0.6316
   16CHTO   C41 6622   7.691   3.427   1.263  0.0255  0.0558 -0.8380
   16CHTO   H83 6623   7.604   3.382   1.212 -1.4206  1.6554  0.1928
   16CHTO   C52 6624   7.800   3.463   1.162 -0.3686 -0.1534  0.2829
   16CHTO   O35 6625   7.862   3.339   1.079  0.3157 -0.0257  0.4220
   16CHTO   H71 6626   7.795   3.282   1.045  0.2045 -0.4027  1.2761
   16CHTO   O28 6627   7.725   3.129   1.456 -0.1730 -0.0484  0.0120
   16CHTO   C42 6628   7.733   2.994   1.408  0.4501  0.2586  0.0038
   16CHTO   H84 6629   7.842   2.989   1.414  0.6077 -0.3705 -2.8270
   16CHTO   C44 6630   7.696   2.954   1.260 -0.2282  0.1763 -0.1937
   16CHTO   H86 6631   7.589   2.974   1.254 -0.6514 -2.0208 -0.3792
   16CHTO   O32 6632   7.778   3.055   1.189  0.8444  0.5939 -0.6379
   16CHTO   H69 6633   7.742   3.058   1.102 -0.6788 -0.2068 -0.0513
   16CHTO   C48 6634   7.739   2.803   1.237  0.2139 -0.7351  0.3352
   16CHTO   H90 6635   7.844   2.783   1.258  0.2757 -1.5070 -0.6684
   16CHTO    N9 6636   7.724   2.783   1.090  0.3162 -0.2917 -0.0070
   16CHTO   H77 6637   7.655   2.701   1.075 -0.2168  0.2992 -0.8596
   16CHTO   H78 6638   7.807   2.793   1.021 -1.5434  3.0396 -1.8760
   16CHTO   C51 6639   7.644   2.718   1.330 -0.3210  0.2363 -0.0444
   16CHTO   H93 6640   7.549   2.771   1.324 -0.1932  0.4188 -0.5130
   16CHTO   O30 6641   7.697   2.723   1.457  0.7832 -0.3474 -0.7341
   16CHTO   C46 6642   7.673   2.890   1.510 -0.3637 -0.8889  0.0235
   16CHTO   H88 6643   7.567   2.916   1.518 -0.4817 -1.1619 -0.6016
   16CHTO   C53 6644   7.734   2.900   1.645  0.3867  0.3504  0.8561
   16CHTO   O72 6645   7.713   3.016   1.725  0.3892  0.2518 -0.1320
   16CHTO  H199 6646   7.720   2.996   1.816  0.5285  0.0005 -0.1975
   16CHTO   O22 6647   7.635   2.574   1.315  0.0383  0.5179  0.0435
   16CHTO   C31 6648   7.529   2.493   1.378 -0.2177 -0.7513 -0.0447
   16CHTO   H59 6649   7.489   2.552   1.463 -1.6756 -1.5628 -0.1347
   16CHTO   C29 6650   7.407   2.477   1.277  0.8337  0.2722 -0.1162
   16CHTO   H57 6651   7.433   2.422   1.186 -1.1559  1.1708 -1.2824
   16CHTO   O21 6652   7.361   2.609   1.237  0.6122  0.1202  0.0827
   16CHTO   H37 6653   7.363   2.673   1.306 -0.0604 -0.1086  0.3225
   16CHTO   C27 6654   7.290   2.402   1.351 -0.3450 -0.0386 -0.6066
   16CHTO   H55 6655   7.252   2.465   1.433  0.1766 -1.8582  1.1063
   16CHTO    N5 6656   7.178   2.377   1.263  0.1649 -0.4477  0.2933
   16CHTO   H43 6657   7.087   2.384   1.321 -0.0724  0.0926 -0.1262
   16CHTO   H44 6658   7.164   2.445   1.179  0.0847 -0.9727 -0.1206
   16CHTO   C25 6659   7.339   2.266   1.415 -0.4596  0.8442  0.0855
   16CHTO   H53 6660   7.374   2.194   1.339 -0.4881  0.5808  0.3207
   16CHTO   O17 6661   7.452   2.299   1.503  0.4354  0.1217  0.1007
   16CHTO   C32 6662   7.560   2.355   1.433  0.3914  0.5471 -0.4907
   16CHTO   H60 6663   7.588   2.292   1.349  0.0309 -0.8704  0.4452
   16CHTO   C36 6664   7.668   2.354   1.540  0.3515 -0.0668  0.1784
   16CHTO   O25 6665   7.723   2.230   1.578 -0.1085 -0.5691  0.3367
   16CHTO   H40 6666   7.670   2.198   1.648 -2.2094 -2.3305 -1.9735
   16CHTO   O15 6667   7.226   2.201   1.510 -0.5695  0.3475 -0.1321
   16CHTO   C19 6668   7.110   2.230   1.603  0.2380  0.2807  0.3597
   16CHTO   H47 6669   7.114   2.147   1.676  1.1078  0.9086  1.0344
   16CHTO   C20 6670   7.117   2.360   1.695 -0.2402 -0.5120 -0.0134
   16CHTO   H48 6671   7.146   2.451   1.639 -0.6923  0.6088  1.5244
   16CHTO   O19 6672   7.230   2.345   1.782 -0.6331  0.2684  0.3000
   16CHTO   H35 6673   7.222   2.267   1.835 -1.1532  0.3114  0.2857
   16CHTO   C21 6674   6.989   2.379   1.782 -0.0936  0.0468  0.4128
   16CHTO   H49 6675   6.984   2.294   1.850 -2.0919  0.0642  0.3393
   16CHTO    N4 6676   6.994   2.502   1.860  0.8304  0.3725  0.1927
   16CHTO   H41 6677   6.915   2.508   1.933 -0.6688  0.6657 -1.4164
   16CHTO   H42 6678   6.988   2.588   1.795  3.2470  1.0966  0.8572
   16CHTO   C22 6679   6.862   2.353   1.700 -0.3803 -0.0524  0.4410
   16CHTO   H50 6680   6.856   2.442   1.638 -0.3733  2.6533  4.1153
   16CHTO   O14 6681   6.874   2.236   1.621 -0.1435 -0.8595  0.0217
   16CHTO   C23 6682   6.976   2.223   1.528  0.4858 -0.2044 -0.0882
   16CHTO   H51 6683   6.962   2.304   1.455 -0.0103 -0.3657 -0.1734
   16CHTO   C34 6684   6.951   2.082   1.469  0.4197  0.1028  0.0679
   16CHTO   O23 6685   7.029   2.074   1.349  0.4625 -0.2598 -0.5007
   16CHTO   H38 6686   7.095   2.012   1.373  0.8244 -0.1444 -1.1903
   16CHTO   O16 6687   6.743   2.354   1.785  0.3031  0.5122 -0.3355
   16CHTO   C24 6688   6.623   2.371   1.694  0.4255 -1.3180  0.1335
   16CHTO   H52 6689   6.650   2.368   1.589 -2.8707  3.3492 -0.9936
   16CHTO   C26 6690   6.554   2.508   1.726 -0.3665 -0.0407 -0.2693
   16CHTO   H54 6691   6.522   2.506   1.833 -0.6338 -1.6509 -0.3657
   16CHTO   O20 6692   6.641   2.623   1.691 -0.0278  0.0658 -0.7820
   16CHTO   H36 6693   6.724   2.603   1.732 -0.8122 -0.1156  0.7657
   16CHTO   C30 6694   6.422   2.515   1.640  0.3617  0.4829  0.5056
   16CHTO   H58 6695   6.455   2.534   1.536 -2.8912  0.9848 -0.5062
   16CHTO    N6 6696   6.343   2.639   1.675  0.1787  0.2651  0.7009
   16CHTO   H45 6697   6.404   2.727   1.666 -0.2041  0.8099  3.0643
   16CHTO   H46 6698   6.266   2.647   1.600  1.2433 -1.7413 -0.6508
   16CHTO   C33 6699   6.338   2.384   1.651  0.0740  0.2777  0.5126
   16CHTO   H61 6700   6.303   2.377   1.755  1.0602 -0.5469  0.8015
   16CHTO   O18 6701   6.423   2.277   1.626 -0.1557 -0.7070  0.0718
   16CHTO   C28 6702   6.526   2.260   1.721 -0.1157 -0.3997  0.4233
   16CHTO   H56 6703   6.499   2.272   1.826  4.2231  1.4094  1.4523
   16CHTO   C35 6704   6.595   2.122   1.707 -0.2642  1.0886 -0.6737
   16CHTO   O24 6705   6.508   2.017   1.744  0.0257 -0.1093  0.2944
   16CHTO   H39 6706   6.449   1.996   1.674 -0.6860 -0.3853  0.9721
   16CHTO    O9 6707   6.216   2.377   1.573  0.2172  0.0050  0.0974
   16CHTO   C13 6708   6.133   2.215   1.580  0.3158 -0.0533  0.1439
   16CHTO   H26 6709   6.210   2.135   1.582 -1.1669 -1.4575  3.0671
   16CHTO   C11 6710   6.042   2.200   1.457 -0.2090 -0.5481  0.2079
   16CHTO   H24 6711   6.110   2.213   1.372 -1.2275  0.4607 -0.4679
   16CHTO    O8 6712   5.953   2.316   1.450  0.0826  0.0224  0.0891
   16CHTO    H3 6713   5.991   2.394   1.414 -1.8743  0.5119 -0.9985
   16CHTO    C9 6714   5.964   2.065   1.454 -0.3810 -0.1978 -0.2324
   16CHTO   H22 6715   6.036   1.982   1.445 -0.8043 -0.5308 -0.5648
   16CHTO    N2 6716   5.883   2.053   1.328  0.2210 -0.0412 -0.2493
   16CHTO   H10 6717   5.846   1.952   1.319 -0.3707  0.1856 -0.3839
   16CHTO   H11 6718   5.804   2.125   1.325  2.3021  2.3285  0.2390
   16CHTO    C7 6719   5.883   2.056   1.589 -0.4633  0.1410  0.3562
   16CHTO   H20 6720   5.860   1.947   1.585  0.5160 -0.1386  2.0508
   16CHTO    O4 6721   5.965   2.084   1.709 -0.1036 -0.2189  0.0177
   16CHTO   C14 6722   6.053   2.198   1.711 -0.1336  0.0148  0.4235
   16CHTO   H27 6723   6.126   2.177   1.792  0.2529 -0.6243 -0.0846
   16CHTO   C18 6724   5.969   2.330   1.754  0.0961 -0.7534  0.1803
   16CHTO   O13 6725   5.919   2.312   1.888 -0.3690 -0.7786  0.6315
   16CHTO    H7 6726   5.851   2.247   1.888 -1.0636 -0.0801 -0.1964
   16CHTO    O2 6727   5.761   2.149   1.596 -0.0973 -0.2280  0.0376
   16CHTO    C1 6728   5.641   2.101   1.665  1.0030 -0.7578  0.4243
   16CHTO   H14 6729   5.580   2.189   1.694  3.7860  0.8336  1.6318
   16CHTO    C2 6730   5.661   2.009   1.796 -0.5502  0.3917 -0.3775
   16CHTO   H15 6731   5.720   1.920   1.769 -1.6989 -0.8806  1.2394
   16CHTO    O6 6732   5.732   2.096   1.890 -0.8627 -0.6849 -0.5085
   16CHTO    H1 6733   5.814   2.124   1.854 -1.9551  2.1235 -0.9134
   16CHTO    C3 6734   5.518   1.969   1.863  0.0302  0.3344 -0.6198
   16CHTO   H16 6735   5.471   2.064   1.890 -2.2937 -1.2970  1.2300
   16CHTO    N1 6736   5.527   1.887   1.988  0.4355  0.7317  0.3548
   16CHTO    H8 6737   5.563   1.789   1.960  0.2348  1.1787 -1.5276
   16CHTO    H9 6738   5.434   1.880   2.043  0.4214 -1.1099  0.1014
   16CHTO    C4 6739   5.416   1.910   1.751  0.6196 -0.1718  0.1374
   16CHTO   H17 6740   5.440   1.807   1.723 -1.2138 -0.4653 -0.3999
   16CHTO    O1 6741   5.413   1.996   1.637 -0.1709  0.1680 -0.1231
   16CHTO    C5 6742   5.538   2.029   1.567 -0.1424  0.5885  0.2441
   16CHTO   H18 6743   5.578   1.933   1.534 -0.8793  0.5626 -0.5678
   16CHTO   C16 6744   5.519   2.115   1.439 -0.1226 -0.0787 -0.4489
   16CHTO   O11 6745   5.445   2.044   1.336  0.7606  0.3279  0.1568
   16CHTO    H5 6746   5.353   2.047   1.355  0.0848 -1.5220 -2.5104
   16CHTO    O3 6747   5.276   1.912   1.788 -0.0680  0.5172 -0.2288
   16CHTO    C6 6748   5.206   1.783   1.787 -0.2785  0.0685  0.0106
   16CHTO   H19 6749   5.275   1.699   1.786 -0.0812  0.2329 -0.2831
   16CHTO    C8 6750   5.122   1.772   1.920 -0.5055 -0.2320  1.3505
   16CHTO   H21 6751   5.050   1.853   1.925  1.8380  1.8773  2.2657
   16CHTO    O7 6752   5.210   1.785   2.028 -0.1522  0.1834 -0.0503
   16CHTO    H2 6753   5.277   1.851   2.017 -1.8304  1.9302 -0.0042
   16CHTO   C12 6754   5.038   1.637   1.912  0.4769  0.1118  0.1160
   16CHTO   H25 6755   5.110   1.553   1.916  1.3914  0.8411 -0.8952
   16CHTO    N3 6756   4.944   1.620   2.029 -0.2792  0.9756  0.1317
   16CHTO   H12 6757   4.853   1.678   2.030 -0.4387  0.7198  1.5768
   16CHTO   H13 6758   4.914   1.517   2.046  1.0730  0.6894  0.8875
   16CHTO   C15 6759   4.954   1.630   1.778 -0.2052 -0.0184  0.1604
   16CHTO   H28 6760   4.876   1.707   1.777  0.2549  0.4653 -2.0926
   16CHTO   O10 6761   4.894   1.499   1.754  0.4278  0.6410  0.0923
   16CHTO    H4 6762   4.938   1.424   1.788 -0.5613  1.0857  2.4211
   16CHTO    O5 6763   5.043   1.638   1.659 -0.0285 -0.1360 -0.1211
   16CHTO   C10 6764   5.117   1.765   1.658 -0.4217  0.5897  0.1272
   16CHTO   H23 6765   5.043   1.846   1.656 -1.8662 -0.7042  0.6019
   16CHTO   C17 6766   5.195   1.757   1.525 -1.0694 -0.4405  0.3498
   16CHTO   O12 6767   5.120   1.759   1.402  0.2775 -0.5499 -0.1863
   16CHTO    H6 6768   5.069   1.683   1.384 -1.7859  1.5138 -3.7121
   17CHTO  H203 6769   5.500   4.528   0.285  0.0710  1.0119 -1.9215
   17CHTO   O82 6770   5.575   4.568   0.324 -0.2256  0.3497 -0.6661
   17CHTO  C123 6771   5.551   4.708   0.328 -0.2681  0.6737 -0.4187
   17CHTO  H227 6772   5.457   4.731   0.382  0.0398 -1.2703  1.0027
   17CHTO   O77 6773   5.672   4.757   0.398 -0.4615  0.0869 -0.3719
   17CHTO  C118 6774   5.661   4.898   0.431  0.4657 -0.0193  0.1985
   17CHTO  H222 6775   5.564   4.901   0.483 -0.2182 -3.0104 -0.7962
   17CHTO  C125 6776   5.775   4.935   0.538 -0.0324  0.0616  0.8874
   17CHTO   O84 6777   5.910   4.911   0.493 -0.3384  0.3048 -0.1156
   17CHTO  H205 6778   5.934   4.968   0.423  0.6558 -2.0179 -1.7139
   17CHTO  C114 6779   5.654   4.985   0.307 -0.1161 -0.5252  0.2625
   17CHTO  H218 6780   5.748   4.977   0.251  1.0587  0.9202  1.9643
   17CHTO  C116 6781   5.528   4.947   0.220  0.0798 -0.3746  0.3022
   17CHTO  H220 6782   5.438   4.977   0.276 -0.6567  0.2584 -1.1798
   17CHTO   O79 6783   5.536   5.032   0.103 -0.6883 -0.1216  0.1063
   17CHTO  H201 6784   5.492   4.994   0.030 -1.4345  0.2859  0.3315
   17CHTO  C120 6785   5.547   4.786   0.187 -0.2070  1.0049 -0.3469
   17CHTO  H224 6786   5.644   4.766   0.137  0.5471  1.4765  0.9025
   17CHTO   N21 6787   5.441   4.736   0.096 -0.4821 -0.1771 -0.1198
   17CHTO  H211 6788   5.356   4.704   0.155 -0.7048 -2.8916 -1.8277
   17CHTO  H212 6789   5.470   4.659   0.026  1.1628  0.7406 -0.4772
   17CHTO   O75 6790   5.636   5.113   0.368 -0.4567 -0.5116 -0.0064
   17CHTO  C112 6791   5.717   5.259   0.295 -0.8141 -0.8764 -0.5634
   17CHTO  H216 6792   5.689   5.280   0.191  0.7957  0.8946 -0.6567
   17CHTO   O73 6793   5.856   5.240   0.310  0.0044  0.2856 -0.0213
   17CHTO  C113 6794   5.932   5.350   0.255  0.3255  0.1812  0.8992
   17CHTO  H217 6795   5.889   5.365   0.153  0.9075 -2.6074  0.1960
   17CHTO  C124 6796   6.077   5.314   0.224  0.1830  0.0769 -0.1278
   17CHTO   O83 6797   6.139   5.430   0.171  0.4849  0.1690 -0.6815
   17CHTO  H204 6798   6.164   5.494   0.235  0.4941  0.6556 -1.1685
   17CHTO  C109 6799   5.906   5.478   0.340  0.8857  0.1430 -0.5360
   17CHTO  H213 6800   5.940   5.457   0.442  3.9222  1.0422 -1.2954
   17CHTO  C110 6801   5.759   5.507   0.336  0.2698 -0.5591  0.4691
   17CHTO  H214 6802   5.739   5.536   0.233 -0.6248  1.6224  1.2114
   17CHTO   O78 6803   5.727   5.621   0.416 -0.0838  0.2356 -0.0490
   17CHTO  H200 6804   5.779   5.692   0.383  1.6809  0.1685  2.3943
   17CHTO  C111 6805   5.666   5.388   0.374  0.1976  0.1126  0.0357
   17CHTO  H215 6806   5.676   5.367   0.482 -3.0718  0.1238  0.3897
   17CHTO   N19 6807   5.525   5.420   0.351  0.1604 -0.1024  0.4650
   17CHTO  H207 6808   5.471   5.336   0.392  0.5887 -0.3354  0.5572
   17CHTO  H208 6809   5.506   5.509   0.408 -0.3071  0.1450 -0.0702
   17CHTO   O74 6810   5.986   5.593   0.283  0.4439  0.2173  0.0346
   17CHTO  C115 6811   6.009   5.746   0.370  0.3135 -0.7453 -0.2677
   17CHTO  H219 6812   5.930   5.767   0.442  0.9132 -0.4428  0.3125
   17CHTO   O76 6813   6.154   5.754   0.447  0.1135 -0.3271 -0.6464
   17CHTO  C122 6814   6.257   5.768   0.351 -0.6065  0.6928  0.3541
   17CHTO  H226 6815   6.242   5.691   0.276 -0.0396  2.1681 -1.2995
   17CHTO  C126 6816   6.396   5.747   0.418  0.3659  0.5184  0.4591
   17CHTO   O85 6817   6.427   5.627   0.485  0.3059 -0.4139 -0.0455
   17CHTO  H206 6818   6.505   5.640   0.536  0.0423 -0.5870  0.3988
   17CHTO  C121 6819   6.250   5.901   0.269  0.1833 -0.1603 -0.5803
   17CHTO  H225 6820   6.322   5.977   0.304 -0.2859  0.4928 -1.0119
   17CHTO   O81 6821   6.272   5.885   0.130 -0.0890  0.6360  0.0828
   17CHTO  H202 6822   6.325   5.956   0.099  1.6310 -0.8971 -0.5742
   17CHTO  C119 6823   6.114   5.970   0.281 -0.3156 -0.0517 -0.1155
   17CHTO  H223 6824   6.098   6.005   0.383 -0.0961  0.6801 -0.3348
   17CHTO  C117 6825   6.004   5.855   0.251  0.1069 -0.2061 -0.8168
   17CHTO  H221 6826   6.023   5.798   0.160  2.6324 -0.6359 -0.0627
   17CHTO   N20 6827   5.858   5.902   0.239 -0.4586  0.0080 -0.0680
   17CHTO  H209 6828   5.837   5.947   0.336 -2.6338 -1.0700 -0.0134
   17CHTO  H210 6829   5.808   5.810   0.214  0.3023 -0.1903 -0.8846
   17CHTO   O80 6830   6.097   6.109   0.201  0.2347  0.1797  0.0150
   17CHTO  C103 6831   6.166   6.240   0.254 -0.3968 -0.5951 -0.3668
   17CHTO  H190 6832   6.200   6.225   0.357  0.6769 -1.2531 -0.8038
   17CHTO  C101 6833   6.288   6.289   0.171 -0.7188  0.8216  0.4283
   17CHTO  H188 6834   6.249   6.310   0.071 -3.5936 -0.7880  1.1574
   17CHTO   O68 6835   6.388   6.194   0.164 -0.2248  0.2986  0.3236
   17CHTO  H168 6836   6.393   6.151   0.080 -0.0814  0.4393  0.2610
   17CHTO   C99 6837   6.339   6.429   0.231 -0.0144 -0.2494  0.3780
   17CHTO  H186 6838   6.370   6.408   0.335  0.8452  1.7554  0.5416
   17CHTO   N17 6839   6.458   6.485   0.158 -0.4430  0.2556  0.6039
   17CHTO  H174 6840   6.553   6.441   0.186  0.5386  1.0524 -1.3592
   17CHTO  H175 6841   6.439   6.492   0.052  1.2350  0.1107  0.2751
   17CHTO   C97 6842   6.219   6.531   0.232  0.3798  0.1888  0.3016
   17CHTO  H184 6843   6.186   6.547   0.128 -0.6981  0.8030  0.7346
   17CHTO   O64 6844   6.111   6.471   0.312  0.0658  0.2201  0.1622
   17CHTO  C104 6845   6.050   6.356   0.257 -0.3170 -0.6986  0.1040
   17CHTO  H191 6846   6.016   6.382   0.157 -1.2132 -0.8847  0.3527
   17CHTO  C108 6847   5.929   6.320   0.333 -0.1040 -0.3573 -0.4108
   17CHTO   O71 6848   5.826   6.423   0.330 -0.2455  0.0259  0.1762
   17CHTO  H171 6849   5.843   6.483   0.260 -0.5497  1.5318  1.3489
   17CHTO   O62 6850   6.249   6.655   0.303 -0.1887  0.3975 -0.3324
   17CHTO   C91 6851   6.162   6.767   0.274  0.9553 -0.8105  0.3961
   17CHTO  H178 6852   6.077   6.728   0.218 -0.6233  3.8387 -0.7313
   17CHTO   C92 6853   6.229   6.859   0.160 -0.0656  0.1870 -0.0586
   17CHTO  H179 6854   6.272   6.794   0.083 -2.3161  0.2980 -1.4631
   17CHTO   O66 6855   6.133   6.935   0.088  0.3731 -0.0961  0.0137
   17CHTO  H166 6856   6.072   6.884   0.038 -0.1796  1.5540 -1.0618
   17CHTO   C93 6857   6.321   6.974   0.219 -0.2193 -0.4493  0.2416
   17CHTO  H180 6858   6.334   7.053   0.144 -0.0649  0.4487  1.2004
   17CHTO   N16 6859   6.460   6.932   0.252  0.8100  0.3141  0.0024
   17CHTO  H172 6860   6.513   6.921   0.159 -0.3493  1.7168 -0.8667
   17CHTO  H173 6861   6.512   7.000   0.319 -0.3147  3.0097 -1.7507
   17CHTO   C94 6862   6.251   7.051   0.339 -0.1176 -0.2594 -0.2121
   17CHTO  H181 6863   6.311   7.055   0.430  0.3393  2.1281 -0.5807
   17CHTO   O61 6864   6.122   6.999   0.377 -0.6102  0.3113  0.2717
   17CHTO   C95 6865   6.116   6.858   0.394  0.3126 -1.1693 -0.0797
   17CHTO  H182 6866   6.173   6.826   0.481 -0.4477 -0.6791  0.6069
   17CHTO  C106 6867   5.968   6.822   0.423  0.1689  0.4025 -0.4496
   17CHTO   O69 6868   5.957   6.686   0.467  0.2279  0.0468 -0.1785
   17CHTO  H169 6869   5.925   6.632   0.397  1.2273  0.7298 -1.1741
   17CHTO   O63 6870   6.227   7.196   0.288 -0.2490 -0.3261  0.0639
   17CHTO   C96 6871   6.223   7.305   0.397 -0.5263 -0.0747 -0.0979
   17CHTO  H183 6872   6.235   7.256   0.493 -1.2175  0.7195  0.3980
   17CHTO   C98 6873   6.093   7.382   0.410  0.0947 -0.1345  0.6948
   17CHTO  H185 6874   6.079   7.427   0.311 -1.3350 -1.5668  0.2182
   17CHTO   O67 6875   5.991   7.278   0.424 -0.0854  0.2163  0.6420
   17CHTO  H167 6876   5.934   7.289   0.497 -0.3756  1.1481  0.2873
   17CHTO  C102 6877   6.103   7.481   0.537  0.0263 -0.6846  0.4705
   17CHTO  H189 6878   6.102   7.417   0.627  2.6617  1.2650  1.9546
   17CHTO   N18 6879   5.985   7.570   0.549  0.2325 -0.4692  0.2275
   17CHTO  H176 6880   5.950   7.581   0.651  0.7029  0.7507  0.2643
   17CHTO  H177 6881   6.003   7.658   0.490 -0.5724 -1.8496 -2.1256
   17CHTO  C105 6882   6.237   7.563   0.535  0.0138  0.2423 -0.0326
   17CHTO  H192 6883   6.223   7.671   0.524  0.8813  0.1679 -1.9718
   17CHTO   O65 6884   6.336   7.524   0.441 -0.1944 -0.7122  0.0284
   17CHTO  C100 6885   6.345   7.398   0.380  0.3017  0.1563 -0.2670
   17CHTO  H187 6886   6.359   7.419   0.273  0.8694  1.0062 -0.0329
   17CHTO  C107 6887   6.477   7.327   0.416  0.5014 -0.1040  0.2503
   17CHTO   O70 6888   6.484   7.322   0.555 -0.1939  0.0362 -0.2128
   17CHTO  H170 6889   6.551   7.259   0.575 -1.5822 -0.6352  2.5275
   17CHTO   O57 6890   6.290   7.526   0.695 -0.5430  0.8838  0.3367
   17CHTO   C85 6891   6.309   7.626   0.798  0.5413  0.7352 -0.3903
   17CHTO  H157 6892   6.249   7.716   0.771  0.7173  0.5398 -1.4374
   17CHTO   C83 6893   6.456   7.685   0.788  0.3610 -0.8767 -0.1529
   17CHTO  H155 6894   6.469   7.753   0.703  1.7675 -3.1654 -1.8192
   17CHTO   O56 6895   6.542   7.570   0.763 -0.6091  0.0811 -0.2138
   17CHTO  H135 6896   6.615   7.594   0.708 -0.1771 -1.6557 -0.4405
   17CHTO   C81 6897   6.500   7.767   0.920 -0.5081  0.8938 -0.0184
   17CHTO  H153 6898   6.435   7.854   0.934 -0.9578  0.4484  0.6983
   17CHTO   N14 6899   6.640   7.825   0.916  0.0702  0.1603 -0.0694
   17CHTO  H141 6900   6.702   7.740   0.897 -0.7676 -0.0977 -1.7533
   17CHTO  H142 6901   6.651   7.885   0.828 -0.4616  1.3908  0.6924
   17CHTO   C79 6902   6.481   7.673   1.041 -0.3369  0.1499 -1.0342
   17CHTO  H151 6903   6.509   7.733   1.127  1.3582  1.1140 -2.2391
   17CHTO   O52 6904   6.342   7.637   1.058 -0.0240  0.0826  0.3600
   17CHTO   C86 6905   6.275   7.571   0.940  0.4411  0.0386 -0.0294
   17CHTO  H158 6906   6.316   7.468   0.948  0.8278  0.1481 -0.5668
   17CHTO   C90 6907   6.125   7.565   0.953 -0.8715  0.1347 -0.1254
   17CHTO   O60 6908   6.083   7.496   1.068  0.7846  0.3401 -0.3797
   17CHTO  H138 6909   6.085   7.555   1.141 -2.4588 -0.5774  0.5051
   17CHTO   O50 6910   6.561   7.551   1.032  0.7693 -0.4001 -0.2775
   17CHTO   C73 6911   6.619   7.444   1.114 -0.2972  0.2722  0.0611
   17CHTO  H145 6912   6.674   7.491   1.197  1.1790 -2.8728  0.9383
   17CHTO   C74 6913   6.714   7.357   1.025  0.3754 -0.7317 -0.7944
   17CHTO  H146 6914   6.785   7.427   0.978  4.3189 -2.6138  2.0568
   17CHTO   O54 6915   6.787   7.267   1.117 -0.5524 -0.2174  0.3736
   17CHTO  H133 6916   6.737   7.193   1.144 -0.0043 -0.2978  1.1916
   17CHTO   C75 6917   6.619   7.286   0.919 -0.0416 -0.6023  0.2056
   17CHTO  H147 6918   6.563   7.364   0.866  1.2672 -1.2679 -2.2422
   17CHTO   N13 6919   6.696   7.209   0.817  0.7984  0.2552  0.2003
   17CHTO  H139 6920   6.688   7.102   0.825  1.7843  0.0730 -0.9810
   17CHTO  H140 6921   6.656   7.234   0.719 -0.3511  0.5404  0.7363
   17CHTO   C76 6922   6.501   7.201   1.000 -0.3391 -0.2473  0.2491
   17CHTO  H148 6923   6.555   7.130   1.062 -0.6030  0.3273  1.1413
   17CHTO   O49 6924   6.428   7.293   1.087  0.0530 -0.2591  0.3062
   17CHTO   C77 6925   6.507   7.356   1.186 -0.0289 -0.0907  0.9061
   17CHTO  H149 6926   6.549   7.277   1.248  0.6411 -0.6675 -0.2597
   17CHTO   C88 6927   6.424   7.446   1.281 -0.4589  0.1638  0.1159
   17CHTO   O58 6928   6.329   7.373   1.362  0.2600  0.0448  0.2036
   17CHTO  H136 6929   6.372   7.336   1.437 -0.3171 -2.7957 -0.7711
   17CHTO   O51 6930   6.398   7.140   0.910 -0.8193 -0.1744 -0.5710
   17CHTO   C78 6931   6.259   7.103   0.989 -0.5223  0.1864  0.6407
   17CHTO  H150 6932   6.211   7.197   1.022 -0.2903  0.1586  1.0695
   17CHTO   C80 6933   6.277   7.009   1.110 -0.0928 -0.0257 -0.6091
   17CHTO  H152 6934   6.363   6.941   1.089  0.4733  0.9307 -1.4269
   17CHTO   O55 6935   6.307   7.085   1.227  0.3384  0.6456 -0.0047
   17CHTO  H134 6936   6.233   7.133   1.258 -0.1599 -0.5002  0.6185
   17CHTO   C84 6937   6.147   6.920   1.144 -0.4792  0.0179  0.3643
   17CHTO  H156 6938   6.089   6.987   1.207 -1.0270 -0.7898  0.7221
   17CHTO   N15 6939   6.176   6.792   1.223 -0.0177 -0.7126  0.3615
   17CHTO  H143 6940   6.108   6.786   1.305 -0.5414  1.6527  0.1295
   17CHTO  H144 6941   6.277   6.792   1.257 -0.1959 -0.6854  0.8829
   17CHTO   C87 6942   6.045   6.892   1.028  0.2488 -0.0658  0.3379
   17CHTO  H159 6943   6.071   6.805   0.968  2.0996  1.5679 -1.2997
   17CHTO   O53 6944   6.040   7.017   0.941  0.7194  0.6824  1.1043
   17CHTO   C82 6945   6.168   7.043   0.884  0.3028 -0.1958 -0.4500
   17CHTO  H154 6946   6.202   6.949   0.842  0.4871 -0.1015 -0.5125
   17CHTO   C89 6947   6.154   7.142   0.759 -0.7309  0.4288  0.2889
   17CHTO   O59 6948   6.102   7.063   0.650 -0.4996 -0.0940 -0.2702
   17CHTO  H137 6949   6.011   7.074   0.629 -0.5096  2.5755  0.8849
   17CHTO   O45 6950   5.912   6.882   1.093  0.2284 -0.0484  0.0017
   17CHTO   C67 6951   5.860   6.745   1.112  0.3014 -0.9700 -0.2605
   17CHTO  H124 6952   5.932   6.675   1.069  0.3553 -0.2669 -1.3397
   17CHTO   C65 6953   5.840   6.717   1.262 -0.9522 -0.3517  0.1699
   17CHTO  H122 6954   5.904   6.783   1.321 -1.2358 -0.1599  0.2640
   17CHTO   O44 6955   5.880   6.582   1.290  0.3178  0.2840 -0.5475
   17CHTO  H102 6956   5.825   6.549   1.359 -0.9093  0.3529 -1.4800
   17CHTO   C63 6957   5.696   6.759   1.303  0.4911 -0.4001 -0.0534
   17CHTO  H120 6958   5.684   6.860   1.264  0.2736 -0.4584 -0.1395
   17CHTO   N11 6959   5.669   6.781   1.454 -0.3517 -0.5122  0.3908
   17CHTO  H108 6960   5.596   6.858   1.473  0.2142 -0.1939  1.3098
   17CHTO  H109 6961   5.760   6.810   1.503  0.8292 -1.5396 -1.1306
   17CHTO   C61 6962   5.599   6.660   1.229  0.0462 -0.1833 -0.3891
   17CHTO  H118 6963   5.496   6.695   1.244  0.4682  1.6190 -1.5141
   17CHTO   O40 6964   5.619   6.650   1.088  0.4887  0.1590  0.1582
   17CHTO   C68 6965   5.723   6.728   1.022  0.2694  0.3165  0.2126
   17CHTO  H125 6966   5.687   6.832   1.007 -1.8898 -0.3382  0.6112
   17CHTO   C72 6967   5.751   6.671   0.877  0.1779 -0.4145 -0.4176
   17CHTO   O48 6968   5.818   6.764   0.790 -0.2002  0.0918 -0.2902
   17CHTO  H105 6969   5.911   6.770   0.803  0.3260 -0.4395 -3.3030
   17CHTO   O38 6970   5.611   6.526   1.289 -0.7378  0.0867  0.8441
   17CHTO   C55 6971   5.500   6.437   1.280 -0.4891 -0.3076  0.8730
   17CHTO  H112 6972   5.533   6.351   1.340 -0.7403 -0.3404  0.9664
   17CHTO   C56 6973   5.461   6.397   1.130  0.8227  0.2720 -0.0581
   17CHTO  H113 6974   5.448   6.495   1.082  1.2114  0.0334 -0.6650
   17CHTO   O42 6975   5.566   6.325   1.064  0.3078 -0.2252 -0.0469
   17CHTO  H100 6976   5.620   6.276   1.123 -0.2423 -2.5159 -1.3965
   17CHTO   C57 6977   5.322   6.318   1.116  0.2830  0.3721  0.4611
   17CHTO  H114 6978   5.337   6.222   1.164 -1.8273 -0.2018  0.0151
   17CHTO   N10 6979   5.287   6.283   0.977 -0.4651  0.2167 -0.2304
   17CHTO  H106 6980   5.301   6.178   0.958 -1.8945  0.1776 -1.1513
   17CHTO  H107 6981   5.349   6.337   0.907 -0.1058 -1.2731 -1.0678
   17CHTO   C58 6982   5.217   6.404   1.194 -0.4018 -0.6472 -0.7099
   17CHTO  H115 6983   5.213   6.507   1.152 -0.8103 -0.4337 -0.1454
   17CHTO   O37 6984   5.264   6.408   1.323 -0.0449  0.5473  0.1155
   17CHTO   C59 6985   5.370   6.500   1.355 -0.0065  0.1012  0.3639
   17CHTO  H116 6986   5.343   6.592   1.303 -0.1651 -0.0873  0.1078
   17CHTO   C70 6987   5.393   6.501   1.506 -0.4522  0.1031 -0.1767
   17CHTO   O46 6988   5.285   6.559   1.572  0.1937 -0.1516 -0.3121
   17CHTO  H103 6989   5.208   6.508   1.553  0.0059  0.2280 -0.5833
   17CHTO   O39 6990   5.065   6.328   1.209 -0.2489 -0.3248  0.2339
   17CHTO   C60 6991   4.959   6.418   1.240 -0.7474 -0.3455 -0.5065
   17CHTO  H117 6992   5.001   6.485   1.315 -1.8594 -0.4498  0.2400
   17CHTO   C62 6993   4.908   6.484   1.113  0.1732  0.2668 -0.0534
   17CHTO  H119 6994   4.993   6.540   1.068 -0.2317  1.4140  0.5917
   17CHTO   O43 6995   4.859   6.393   1.015 -0.1621  0.0605 -0.4824
   17CHTO  H101 6996   4.836   6.447   0.942  2.0266 -0.3304 -1.4860
   17CHTO   C66 6997   4.812   6.604   1.159 -0.6293  0.5843 -0.0561
   17CHTO  H123 6998   4.867   6.667   1.228 -3.2140  0.6633  2.0125
   17CHTO   N12 6999   4.774   6.689   1.036 -0.0837  0.1410  0.1709
   17CHTO  H110 7000   4.740   6.631   0.952 -0.6433 -0.9242  1.1026
   17CHTO  H111 7001   4.863   6.743   1.010  0.7708 -1.0742  0.5312
   17CHTO   C69 7002   4.688   6.551   1.239  0.4292  0.3313 -0.4402
   17CHTO  H126 7003   4.623   6.492   1.171 -1.2979  0.6568  0.8983
   17CHTO   O41 7004   4.745   6.464   1.363 -0.3310  0.0736 -0.6082
   17CHTO   C64 7005   4.839   6.351   1.313  0.0083  0.1490  0.2446
   17CHTO  H121 7006   4.781   6.281   1.250 -0.5821  0.5993  0.2863
   17CHTO   C71 7007   4.892   6.275   1.435 -0.1242 -0.3805  0.6234
   17CHTO   O47 7008   4.946   6.362   1.528 -0.3813  0.1048 -0.1632
   17CHTO  H104 7009   4.881   6.422   1.559  0.0560  0.2971  0.3827
   17CHTO   O34 7010   4.589   6.686   1.296  0.0133  0.6169 -0.5432
   17CHTO   C49 7011   4.445   6.763   1.260  0.0009  0.2784  0.7513
   17CHTO   H91 7012   4.474   6.856   1.212 -0.5207  0.1058  0.0939
   17CHTO   C47 7013   4.355   6.782   1.384 -0.1663  0.2465  0.2004
   17CHTO   H89 7014   4.283   6.854   1.339 -0.7257 -0.8652 -0.7097
   17CHTO   O33 7015   4.438   6.841   1.491 -0.2659 -0.9325 -0.1312
   17CHTO   H70 7016   4.411   6.824   1.579 -0.4017  0.5990  0.1480
   17CHTO   C45 7017   4.286   6.645   1.433 -0.5813 -0.0790 -1.0461
   17CHTO   H87 7018   4.334   6.619   1.528  1.0335  2.2476 -1.1737
   17CHTO    N8 7019   4.141   6.675   1.453  0.1965  0.6596 -0.0801
   17CHTO   H75 7020   4.079   6.587   1.451  1.2372 -0.1062  0.5561
   17CHTO   H76 7021   4.118   6.739   1.537 -2.2366 -0.1172 -0.1227
   17CHTO   C43 7022   4.323   6.525   1.333 -0.3524 -0.8324  0.1938
   17CHTO   H85 7023   4.427   6.503   1.354  0.2296  1.9343  0.3989
   17CHTO   O29 7024   4.302   6.559   1.194  0.3983  0.1285 -0.8207
   17CHTO   C50 7025   4.372   6.680   1.153  0.1774  0.3183 -0.1236
   17CHTO   H92 7026   4.452   6.645   1.086 -0.4347 -0.4091 -0.4974
   17CHTO   C54 7027   4.283   6.763   1.056  0.0786 -0.1004  0.4593
   17CHTO   O36 7028   4.216   6.675   0.958  0.4027  0.1758 -0.1919
   17CHTO   H72 7029   4.273   6.611   0.920  1.1790  0.5768  0.2733
   17CHTO   O27 7030   4.258   6.403   1.363  0.1925  0.0883  0.0418
   17CHTO   C37 7031   4.307   6.283   1.431 -0.1459 -0.0473 -0.3949
   17CHTO   H79 7032   4.414   6.288   1.457 -0.3235 -3.2930  1.2452
   17CHTO   C38 7033   4.233   6.257   1.574  0.2489  0.2286 -0.3829
   17CHTO   H80 7034   4.125   6.257   1.554 -0.1305  0.5659  1.5726
   17CHTO   O31 7035   4.263   6.368   1.650 -0.0842  0.4709 -0.3492
   17CHTO   H68 7036   4.206   6.441   1.633 -1.0901  0.0121  0.9149
   17CHTO   C39 7037   4.288   6.120   1.637 -0.3888  0.5008 -0.1245
   17CHTO   H81 7038   4.395   6.133   1.652  0.0432 -1.2900 -1.4440
   17CHTO    N7 7039   4.217   6.084   1.767 -0.2417 -0.6567 -0.0643
   17CHTO   H73 7040   4.226   5.979   1.793 -2.4736 -0.2446  2.6115
   17CHTO   H74 7041   4.113   6.101   1.743 -0.5444 -2.3500 -0.0391
   17CHTO   C40 7042   4.274   6.001   1.538  0.4876  0.3419  0.2000
   17CHTO   H82 7043   4.170   5.974   1.517  0.4654  1.4123 -1.1206
   17CHTO   O26 7044   4.338   6.046   1.417 -0.2444  0.3325  0.0215
   17CHTO   C41 7045   4.284   6.157   1.346 -0.1704 -0.2384 -0.1493
   17CHTO   H83 7046   4.174   6.148   1.339 -0.3768  1.3316  0.8351
   17CHTO   C52 7047   4.362   6.165   1.208  0.0644 -0.3188 -0.1365
   17CHTO   O35 7048   4.507   6.217   1.210  0.5273  0.1412 -0.2280
   17CHTO   H71 7049   4.564   6.172   1.269 -0.3232  0.4062  0.8127
   17CHTO   O28 7050   4.351   5.885   1.564 -0.1818 -0.4477 -0.2288
   17CHTO   C42 7051   4.487   5.844   1.518 -0.1852 -0.1185 -0.2122
   17CHTO   H84 7052   4.497   5.751   1.575  1.6611  0.9947  1.3353
   17CHTO   C44 7053   4.609   5.922   1.558 -0.3541  0.7458  0.0941
   17CHTO   H86 7054   4.608   6.019   1.509 -3.6735 -0.5433 -2.6042
   17CHTO   O32 7055   4.621   5.945   1.700  0.2065 -0.4033 -0.3200
   17CHTO   H69 7056   4.576   6.027   1.708 -1.7014 -1.5002  0.6088
   17CHTO   C48 7057   4.743   5.855   1.499 -0.3242  1.0692 -0.5041
   17CHTO   H90 7058   4.744   5.754   1.539 -1.4796  1.0725 -0.4679
   17CHTO    N9 7059   4.875   5.923   1.539 -0.0428 -0.3612 -0.0506
   17CHTO   H77 7060   4.958   5.874   1.489  0.7039 -2.6869  3.2431
   17CHTO   H78 7061   4.888   5.943   1.644  0.7519 -1.5313  0.0972
   17CHTO   C51 7062   4.726   5.839   1.343 -0.2785  0.2246  0.2523
   17CHTO   H93 7063   4.714   5.930   1.284 -0.9540 -1.2180 -1.9235
   17CHTO   O30 7064   4.615   5.750   1.322  0.6112  0.3340  0.5271
   17CHTO   C46 7065   4.484   5.803   1.368 -0.2203  0.5242 -0.1602
   17CHTO   H88 7066   4.445   5.883   1.306 -0.2710 -0.7845 -1.8637
   17CHTO   C53 7067   4.395   5.678   1.339  0.3498  0.4925 -0.3820
   17CHTO   O72 7068   4.261   5.702   1.365  0.3056  0.3859  0.6155
   17CHTO  H199 7069   4.203   5.632   1.343 -0.3811  1.1897 -0.2057
   17CHTO   O22 7070   4.829   5.766   1.284 -0.4031 -0.0913  0.2238
   17CHTO   C31 7071   4.864   5.768   1.140 -0.4710 -0.1065 -0.2630
   17CHTO   H59 7072   4.940   5.687   1.128 -0.7859 -0.4032 -0.2554
   17CHTO   C29 7073   4.748   5.738   1.037 -0.0758 -0.8264  0.2465
   17CHTO   H57 7074   4.672   5.813   1.062  1.4040 -0.2338  3.1964
   17CHTO   O21 7075   4.694   5.614   1.074 -0.0377 -0.2681  0.0055
   17CHTO   H37 7076   4.601   5.621   1.068  0.1090  2.5821  0.0679
   17CHTO   C27 7077   4.797   5.757   0.878 -0.3566 -0.1624  0.4751
   17CHTO   H55 7078   4.853   5.668   0.847 -1.0587 -0.6255  0.5330
   17CHTO    N5 7079   4.673   5.763   0.798  0.1882  0.4277 -0.6437
   17CHTO   H43 7080   4.679   5.697   0.713  2.4647  1.3760 -1.2498
   17CHTO   H44 7081   4.639   5.864   0.779  1.3756  1.0453  0.4513
   17CHTO   C25 7082   4.883   5.891   0.861  0.1296  0.4864  0.1992
   17CHTO   H53 7083   4.815   5.978   0.865 -3.2035 -2.0579  1.1507
   17CHTO   O17 7084   4.981   5.907   0.966 -0.3816 -0.9325 -0.4262
   17CHTO   C32 7085   4.940   5.903   1.104  0.3349  0.4220  0.1949
   17CHTO   H60 7086   4.875   5.988   1.122  1.4421  1.8577 -2.3337
   17CHTO   C36 7087   5.063   5.920   1.194 -0.4987 -0.1575  0.4975
   17CHTO   O25 7088   5.161   5.814   1.191 -0.2885 -0.1040  0.9157
   17CHTO   H40 7089   5.200   5.817   1.276  1.3955  0.6710  0.1500
   17CHTO   O15 7090   4.954   5.898   0.735 -0.6746 -0.3144 -0.2841
   17CHTO   C19 7091   5.011   6.015   0.666  0.5085 -0.5875  0.1846
   17CHTO   H47 7092   5.031   5.972   0.567  0.6361  1.7738 -0.8326
   17CHTO   C20 7093   4.911   6.129   0.620  0.0048 -0.1901 -0.4379
   17CHTO   H48 7094   4.862   6.176   0.707  0.1707  1.6890 -1.3471
   17CHTO   O19 7095   4.807   6.065   0.544  0.2288  0.3723 -0.2919
   17CHTO   H35 7096   4.825   6.079   0.453  0.7106 -2.9680 -0.7792
   17CHTO   C21 7097   4.982   6.252   0.543 -0.2682  0.5795 -0.1846
   17CHTO   H49 7098   5.017   6.219   0.445  0.1556 -0.0751  0.1867
   17CHTO    N4 7099   4.888   6.367   0.515 -0.0834 -1.3494 -0.1809
   17CHTO   H41 7100   4.834   6.327   0.431  0.0087 -0.2684 -0.7595
   17CHTO   H42 7101   4.947   6.446   0.471 -1.7330  0.7548  1.2890
   17CHTO   C22 7102   5.105   6.298   0.634 -0.0616 -0.0413  0.2612
   17CHTO   H50 7103   5.069   6.328   0.732 -0.7385 -0.7863  0.2440
   17CHTO   O14 7104   5.192   6.190   0.643 -0.3233 -0.0209  0.1633
   17CHTO   C23 7105   5.149   6.076   0.718  0.3665  0.4142 -0.1633
   17CHTO   H51 7106   5.147   6.122   0.818  1.1141  0.6977 -0.2785
   17CHTO   C34 7107   5.265   5.974   0.712  0.5110 -0.9905 -0.1477
   17CHTO   O23 7108   5.382   6.025   0.761 -0.1034 -0.1497 -0.1434
   17CHTO   H38 7109   5.370   6.072   0.842 -1.0776 -0.0979 -0.3160
   17CHTO   O16 7110   5.172   6.413   0.582  0.5148  0.2410  0.1220
   17CHTO   C24 7111   5.229   6.516   0.675  1.0339  0.2157 -1.4921
   17CHTO   H52 7112   5.265   6.471   0.767 -2.3760 -1.0354 -0.7097
   17CHTO   C26 7113   5.121   6.619   0.720 -0.0478  0.3900  0.1148
   17CHTO   H54 7114   5.082   6.667   0.628 -0.3183 -0.3312 -0.1471
   17CHTO   O20 7115   5.020   6.540   0.785 -0.3528  0.2896  0.0213
   17CHTO   H36 7116   4.946   6.595   0.804 -0.4181  0.0927  0.3334
   17CHTO   C30 7117   5.181   6.728   0.814  0.2537  0.3577 -0.3312
   17CHTO   H58 7118   5.221   6.674   0.902  3.4774 -0.1990 -2.0366
   17CHTO    N6 7119   5.074   6.827   0.851  0.1635 -0.3671  0.4114
   17CHTO   H45 7120   5.032   6.880   0.767  0.1983 -1.4938 -0.3222
   17CHTO   H46 7121   5.109   6.900   0.922 -2.0802  1.3466 -0.1914
   17CHTO   C33 7122   5.302   6.796   0.745 -0.2420  0.1593  0.1211
   17CHTO   H61 7123   5.262   6.845   0.655  0.3294  0.0234 -0.2083
   17CHTO   O18 7124   5.397   6.696   0.697  0.4998 -0.1220 -0.1428
   17CHTO   C28 7125   5.344   6.594   0.607  0.2126 -0.2579 -0.0687
   17CHTO   H56 7126   5.304   6.642   0.518  0.0452  2.9292  1.6286
   17CHTO   C35 7127   5.460   6.497   0.577  0.0652  0.2906  0.8063
   17CHTO   O24 7128   5.577   6.565   0.535 -0.1799  0.1104  0.3787
   17CHTO   H39 7129   5.609   6.631   0.594  0.0485 -1.5084  2.0775
   17CHTO    O9 7130   5.361   6.904   0.824 -0.1070  0.4166 -0.0411
   17CHTO   C13 7131   5.434   7.002   0.733  0.3524 -0.0236  0.5988
   17CHTO   H26 7132   5.478   6.959   0.641 -0.7836 -1.0259  0.5124
   17CHTO   C11 7133   5.537   7.080   0.817  0.2389  0.5252  0.9122
   17CHTO   H24 7134   5.605   7.005   0.858 -1.1848 -0.4117  1.5997
   17CHTO    O8 7135   5.465   7.135   0.932  0.2229  0.9239 -0.3624
   17CHTO    H3 7136   5.521   7.189   0.985 -1.7791  0.4654  2.2887
   17CHTO    C9 7137   5.603   7.189   0.726  0.6719  0.7147  0.4026
   17CHTO   H22 7138   5.620   7.132   0.633  1.9507  0.5169  0.7451
   17CHTO    N2 7139   5.734   7.241   0.771  0.6880  0.3309  0.6755
   17CHTO   H10 7140   5.744   7.344   0.740  0.4249  1.5021  4.2580
   17CHTO   H11 7141   5.745   7.258   0.877  1.1185 -0.7160  0.7979
   17CHTO    C7 7142   5.493   7.296   0.673 -0.0837  0.4314  0.5041
   17CHTO   H20 7143   5.552   7.359   0.604 -1.5396  2.5488  1.1447
   17CHTO    O4 7144   5.385   7.226   0.604 -0.4993 -0.0448 -0.5422
   17CHTO   C14 7145   5.323   7.112   0.665  0.4264  0.1309 -0.6711
   17CHTO   H27 7146   5.286   7.050   0.580  1.5138  0.0058 -1.0713
   17CHTO   C18 7147   5.193   7.157   0.751 -1.0057  0.4013  0.6107
   17CHTO   O13 7148   5.112   7.242   0.676 -0.5366  0.5121  0.3409
   17CHTO    H7 7149   5.097   7.321   0.723  4.9785  1.5451  0.5790
   17CHTO    O2 7150   5.436   7.384   0.795 -0.0326 -0.3703  0.5073
   17CHTO    C1 7151   5.431   7.524   0.777  0.0103 -0.1427  0.4339
   17CHTO   H14 7152   5.394   7.537   0.673  2.9717  2.4434 -0.3338
   17CHTO    C2 7153   5.568   7.600   0.794 -0.5604 -0.3778 -0.2533
   17CHTO   H15 7154   5.612   7.562   0.888  1.8651 -1.6623 -1.8437
   17CHTO    O6 7155   5.658   7.551   0.693 -0.5527 -0.0820  0.0514
   17CHTO    H1 7156   5.731   7.502   0.726 -0.0957 -0.1817 -1.0717
   17CHTO    C3 7157   5.551   7.758   0.794  0.4527  0.7751  0.1592
   17CHTO   H16 7158   5.505   7.787   0.698 -0.7664  0.6952  0.7102
   17CHTO    N1 7159   5.684   7.823   0.806  0.3874 -0.6146  0.2387
   17CHTO    H8 7160   5.707   7.825   0.911 -2.6708  0.6292  0.9195
   17CHTO    H9 7161   5.762   7.776   0.747  0.8895  0.0289  0.3934
   17CHTO    C4 7162   5.444   7.791   0.902  0.0398  1.4711 -0.2693
   17CHTO   H17 7163   5.478   7.756   0.999 -1.6664 -2.0013 -0.8524
   17CHTO    O1 7164   5.319   7.722   0.871 -0.4727 -0.5445 -0.1594
   17CHTO    C5 7165   5.330   7.578   0.879  0.4522 -0.4486 -0.1049
   17CHTO   H18 7166   5.364   7.556   0.980  0.2291 -1.0775 -0.1610
   17CHTO   C16 7167   5.176   7.539   0.863  0.4744  0.1446 -0.0833
   17CHTO   O11 7168   5.087   7.549   0.969 -0.1530  0.3418  0.3720
   17CHTO    H5 7169   5.113   7.501   1.045 -3.1337 -0.1353  1.1503
   17CHTO    O3 7170   5.413   7.934   0.904 -0.6506 -0.1852  0.1401
   17CHTO    C6 7171   5.372   7.989   1.036 -0.0546 -0.3420 -0.3996
   17CHTO   H19 7172   5.324   8.086   1.032  1.8636  0.7873  2.6081
   17CHTO    C8 7173   5.267   7.895   1.109 -0.4611 -0.6444 -0.3068
   17CHTO   H21 7174   5.306   7.794   1.122 -1.8889 -0.9048  2.3059
   17CHTO    O7 7175   5.141   7.900   1.039  0.2274 -0.1328  0.1794
   17CHTO    H2 7176   5.089   7.978   1.046 -2.3977 -1.6273 -1.9408
   17CHTO   C12 7177   5.243   7.949   1.263 -0.2139 -0.0125  0.8846
   17CHTO   H25 7178   5.218   8.057   1.255 -2.1182 -0.5062 -0.3703
   17CHTO    N3 7179   5.139   7.865   1.331  0.1331  0.2045 -0.0207
   17CHTO   H12 7180   5.040   7.874   1.288 -1.8065 -2.0677  3.6358
   17CHTO   H13 7181   5.167   7.762   1.347 -1.1624  0.0504  1.4632
   17CHTO   C15 7182   5.376   7.944   1.340  0.4765  0.3622 -0.1171
   17CHTO   H28 7183   5.422   7.845   1.339  0.3948  0.3106 -2.6624
   17CHTO   O10 7184   5.377   8.005   1.478  0.3143 -0.1378 -0.0300
   17CHTO    H4 7185   5.343   7.939   1.534 -1.8700  0.4111 -0.6868
   17CHTO    O5 7186   5.465   8.038   1.270 -0.0732 -0.3277 -0.4031
   17CHTO   C10 7187   5.495   8.009   1.133 -0.2948 -0.4069  0.3792
   17CHTO   H23 7188   5.545   7.912   1.129  0.7931  0.2207 -1.7858
   17CHTO   C17 7189   5.591   8.113   1.070 -0.3073 -0.1166 -0.1752
   17CHTO   O12 7190   5.529   8.244   1.072  0.1070  0.6425  0.6506
   17CHTO    H6 7191   5.578   8.302   1.016 -0.7627 -0.3799 -1.2032
   18CHTO  H203 7192   6.649   7.981   1.994 -1.9272  2.2702 -0.9219
   18CHTO   O82 7193   6.604   7.927   1.932  0.3846 -0.4524 -0.3460
   18CHTO  C123 7194   6.667   7.927   1.800  0.4722 -0.1439 -0.4656
   18CHTO  H227 7195   6.775   7.908   1.817  0.6332  0.2482 -1.0335
   18CHTO   O77 7196   6.608   7.808   1.749  0.4374 -0.6741  0.4610
   18CHTO  C118 7197   6.660   7.771   1.620  0.1078  0.2648  0.7937
   18CHTO  H222 7198   6.767   7.745   1.622  0.1081  0.0651 -0.9919
   18CHTO  C125 7199   6.577   7.636   1.585  0.3085 -0.3816  0.2899
   18CHTO   O84 7200   6.442   7.675   1.554 -0.6708  0.0508 -0.6332
   18CHTO  H205 7201   6.410   7.650   1.470 -2.4116  4.4461 -1.4355
   18CHTO  C114 7202   6.632   7.888   1.520 -0.7491  0.3110 -1.2577
   18CHTO  H218 7203   6.525   7.907   1.515 -0.8350 -0.3066 -1.8772
   18CHTO  C116 7204   6.692   8.022   1.575 -0.2207 -0.0929 -0.5144
   18CHTO  H220 7205   6.802   8.017   1.584  0.0028  1.2812 -2.1880
   18CHTO   O79 7206   6.666   8.118   1.474  0.3032 -0.4848 -0.6314
   18CHTO  H201 7207   6.721   8.193   1.484 -0.5564  0.0616  0.0802
   18CHTO  C120 7208   6.634   8.057   1.716 -0.0596 -0.6770  0.3863
   18CHTO  H224 7209   6.524   8.071   1.718 -0.0775 -0.7202 -0.1821
   18CHTO   N21 7210   6.688   8.189   1.769 -0.4660 -0.0636  0.6820
   18CHTO  H211 7211   6.616   8.238   1.833 -1.2063  1.8331 -1.5225
   18CHTO  H212 7212   6.779   8.181   1.826 -0.1146  0.4614  0.2009
   18CHTO   O75 7213   6.679   7.838   1.396 -0.0874 -0.4779 -0.2562
   18CHTO  C112 7214   6.839   7.888   1.356 -0.2197 -0.3670  0.3227
   18CHTO  H216 7215   6.907   7.912   1.439  0.0205  0.0125  0.0199
   18CHTO   O73 7216   6.823   8.001   1.267 -0.8690  0.3645  0.9087
   18CHTO  C113 7217   6.945   8.039   1.207 -0.7264 -0.1720 -0.1161
   18CHTO  H217 7218   7.016   8.070   1.287  2.2816  0.3200 -2.8934
   18CHTO  C124 7219   6.926   8.170   1.131 -0.1773  0.8555  0.5937
   18CHTO   O83 7220   6.881   8.275   1.214 -0.2814 -0.0928  0.2559
   18CHTO  H204 7221   6.914   8.255   1.300 -0.4153 -0.3501  0.2485
   18CHTO  C109 7222   6.995   7.923   1.112 -0.5690 -0.6889  0.7054
   18CHTO  H213 7223   6.920   7.913   1.032 -0.2331  0.4331  0.2317
   18CHTO  C110 7224   7.025   7.798   1.201  0.0601  0.2737  0.6705
   18CHTO  H214 7225   7.103   7.826   1.272  2.1630 -1.4089 -0.8894
   18CHTO   O78 7226   7.064   7.689   1.110  0.3048 -0.1868  0.5582
   18CHTO  H200 7227   7.158   7.686   1.107  0.3413  0.6351  0.7050
   18CHTO  C111 7228   6.901   7.764   1.289 -0.3139 -0.0879 -0.2427
   18CHTO  H215 7229   6.820   7.730   1.222 -0.5004 -0.0370 -0.0437
   18CHTO   N19 7230   6.922   7.658   1.388  0.4897  0.1282 -0.2327
   18CHTO  H207 7231   7.017   7.611   1.366 -1.1404 -3.4812  0.0042
   18CHTO  H208 7232   6.861   7.571   1.368  0.1293  0.4376 -0.4756
   18CHTO   O74 7233   7.115   7.973   1.054 -0.2532 -0.0814 -0.5905
   18CHTO  C115 7234   7.108   7.959   0.899  0.0825  0.5455  0.7696
   18CHTO  H219 7235   7.062   7.865   0.870  1.5286 -0.2515  0.9726
   18CHTO   O76 7236   7.023   8.068   0.838 -0.0637  0.4289 -0.0632
   18CHTO  C122 7237   7.093   8.192   0.804  0.3124 -0.2515 -0.1785
   18CHTO  H226 7238   7.138   8.223   0.898 -0.5226 -0.7240  0.3868
   18CHTO  C126 7239   6.988   8.296   0.759  0.0256 -0.1817  0.5630
   18CHTO   O85 7240   7.052   8.421   0.720 -0.3199 -0.1725  0.3847
   18CHTO  H206 7241   6.995   8.491   0.745  0.5425  0.8683 -0.5592
   18CHTO  C121 7242   7.206   8.158   0.693 -0.7431  0.0301 -0.5630
   18CHTO  H225 7243   7.163   8.176   0.592  0.4130 -1.2343 -1.3058
   18CHTO   O81 7244   7.317   8.252   0.714 -0.7548 -0.8837 -0.3481
   18CHTO  H202 7245   7.313   8.275   0.804 -0.0172 -2.1826  0.0370
   18CHTO  C119 7246   7.250   8.010   0.695 -0.4538 -0.0356  0.3320
   18CHTO  H223 7247   7.170   7.955   0.646 -2.1879  1.8587  0.9256
   18CHTO  C117 7248   7.261   7.956   0.839  0.8332 -0.1169 -0.2977
   18CHTO  H221 7249   7.321   8.012   0.912 -0.8866  0.4095  0.7359
   18CHTO   N20 7250   7.316   7.822   0.847  0.0878  0.2722 -0.2335
   18CHTO  H209 7251   7.303   7.784   0.947  0.1986  0.1367 -0.2717
   18CHTO  H210 7252   7.421   7.820   0.825  0.1287  0.3733 -0.0482
   18CHTO   O80 7253   7.392   7.978   0.589 -0.3044 -0.0660 -0.5370
   18CHTO  C103 7254   7.371   7.914   0.439 -0.5709  0.3770  0.0122
   18CHTO  H190 7255   7.468   7.906   0.389  0.6512  1.1250  2.2131
   18CHTO  C101 7256   7.300   7.770   0.434 -0.2267  0.0881  0.2906
   18CHTO  H188 7257   7.203   7.783   0.482  0.3199  0.0636  1.4158
   18CHTO   O68 7258   7.380   7.662   0.513  0.0671 -0.2192  0.9841
   18CHTO  H168 7259   7.333   7.585   0.540  1.1004 -1.6363 -1.1000
   18CHTO   C99 7260   7.269   7.735   0.280  0.7592  0.5119 -0.0204
   18CHTO  H186 7261   7.361   7.723   0.219 -0.7793  0.5718 -2.4111
   18CHTO   N17 7262   7.200   7.603   0.265  0.2070  0.8002 -0.1748
   18CHTO  H174 7263   7.258   7.536   0.326 -0.3425  0.8303  0.3817
   18CHTO  H175 7264   7.205   7.564   0.164 -1.5017  0.3464 -0.0917
   18CHTO   C97 7265   7.187   7.852   0.213  1.3086 -0.8034  0.0037
   18CHTO  H184 7266   7.084   7.859   0.249  0.1425 -0.3547 -3.2277
   18CHTO   O64 7267   7.261   7.974   0.229  0.2875  0.1747  0.2976
   18CHTO  C104 7268   7.283   8.019   0.363  0.1270  0.4397 -0.7983
   18CHTO  H191 7269   7.187   8.035   0.412 -0.0861 -1.8836 -0.4357
   18CHTO  C108 7270   7.357   8.149   0.360 -0.6339  0.2230 -0.7760
   18CHTO   O71 7271   7.465   8.144   0.261  0.0757  0.1192  0.3903
   18CHTO  H171 7272   7.425   8.115   0.182 -0.4632 -1.1691  1.1137
   18CHTO   O62 7273   7.178   7.828   0.068  0.0752  0.1925  0.8582
   18CHTO   C91 7274   7.043   7.847   0.015  0.2894  0.4759 -0.7100
   18CHTO  H178 7275   6.962   7.827   0.085  2.6280  2.0394  2.5472
   18CHTO   C92 7276   7.019   7.745  -0.104  0.4258 -0.3470 -0.8669
   18CHTO  H179 7277   7.099   7.758  -0.179  1.0629 -2.2320 -0.5437
   18CHTO   O66 7278   7.041   7.607  -0.058 -0.3897  0.1543  0.1249
   18CHTO  H166 7279   6.983   7.557  -0.112 -1.1065  1.7088 -0.5848
   18CHTO   C93 7280   6.880   7.760  -0.182  0.5982  0.2947 -0.1560
   18CHTO  H180 7281   6.812   7.699  -0.120 -1.5772  1.2416 -1.5725
   18CHTO   N16 7282   6.882   7.692  -0.316 -0.1214 -0.0472  0.5789
   18CHTO  H172 7283   6.784   7.693  -0.360  0.0754 -1.5504  0.0906
   18CHTO  H173 7284   6.922   7.594  -0.297 -0.2714 -0.0207  1.0362
   18CHTO   C94 7285   6.827   7.911  -0.191  0.5524 -0.7168 -0.1799
   18CHTO  H181 7286   6.855   7.958  -0.285  0.1537 -1.6263 -0.7615
   18CHTO   O61 7287   6.869   7.996  -0.079  0.0675 -0.4858  0.6729
   18CHTO   C95 7288   7.005   7.987  -0.039 -0.6384  0.2460 -0.2229
   18CHTO  H182 7289   7.069   8.004  -0.125  0.0391 -0.5819  0.1182
   18CHTO  C106 7290   7.027   8.102   0.066 -0.1422 -0.0706  0.2763
   18CHTO   O69 7291   6.959   8.067   0.186 -0.4212 -0.0211 -0.5368
   18CHTO  H169 7292   6.945   8.151   0.225  1.4036 -0.3953  0.9894
   18CHTO   O63 7293   6.649   7.915  -0.195  0.7536  0.0414  0.0266
   18CHTO   C96 7294   6.583   8.030  -0.254  0.5299 -0.3610 -0.8696
   18CHTO  H183 7295   6.477   8.003  -0.250  0.5325 -0.1455  0.7975
   18CHTO   C98 7296   6.625   8.051  -0.400  0.0020  0.5831 -0.0731
   18CHTO  H185 7297   6.734   8.065  -0.398 -0.2052  2.1700  0.8632
   18CHTO   O67 7298   6.594   7.932  -0.476 -0.0572  0.0311  0.0625
   18CHTO  H167 7299   6.670   7.878  -0.487 -0.4616 -0.4584 -0.4439
   18CHTO  C102 7300   6.559   8.185  -0.462 -0.1735  0.5068 -0.3087
   18CHTO  H189 7301   6.454   8.159  -0.482  0.7629 -1.5017 -2.9938
   18CHTO   N18 7302   6.616   8.216  -0.597 -0.0397 -1.1926 -0.2275
   18CHTO  H176 7303   6.663   8.128  -0.638 -2.6766 -1.6127 -2.5618
   18CHTO  H177 7304   6.547   8.265  -0.665  0.7265  2.1863  1.3154
   18CHTO  C105 7305   6.564   8.298  -0.355 -0.4886 -0.6083 -0.0642
   18CHTO  H192 7306   6.658   8.352  -0.365  0.1870 -1.5783  1.0067
   18CHTO   O65 7307   6.521   8.259  -0.223 -0.5943  0.0625 -0.0789
   18CHTO  C100 7308   6.600   8.158  -0.173  0.4514 -0.2252 -0.1487
   18CHTO  H187 7309   6.703   8.197  -0.178  0.7621 -1.1434 -1.2184
   18CHTO  C107 7310   6.576   8.135  -0.024 -0.1686 -0.3342 -0.2760
   18CHTO   O70 7311   6.624   8.241   0.062  0.1286  0.5192  0.4854
   18CHTO  H170 7312   6.623   8.206   0.149 -1.0068  1.1914  0.7597
   18CHTO   O57 7313   6.448   8.400  -0.410  0.4891  0.1727 -0.6122
   18CHTO   C85 7314   6.452   8.539  -0.362  0.0006 -0.0303  0.1032
   18CHTO  H157 7315   6.560   8.563  -0.348 -0.5356  2.9964 -0.5833
   18CHTO   C83 7316   6.394   8.539  -0.216 -0.4811  0.5779  0.3649
   18CHTO  H155 7317   6.459   8.480  -0.151 -0.4494  0.6010  0.3548
   18CHTO   O56 7318   6.279   8.459  -0.207  0.2119  0.4630 -0.0185
   18CHTO  H135 7319   6.289   8.379  -0.255  0.2493  0.4146  0.0697
   18CHTO   C81 7320   6.395   8.685  -0.164 -0.0739  0.5123  0.1594
   18CHTO  H153 7321   6.493   8.730  -0.180 -1.2068  2.0249 -3.2216
   18CHTO   N14 7322   6.362   8.705  -0.022  0.6575  0.5614 -0.0497
   18CHTO  H141 7323   6.335   8.615   0.030 -1.1103 -0.7209 -3.0604
   18CHTO  H142 7324   6.448   8.751   0.021  2.3736 -0.9984 -1.7184
   18CHTO   C79 7325   6.293   8.763  -0.262  0.1858 -0.3362  0.5559
   18CHTO  H151 7326   6.282   8.864  -0.222  0.0425 -0.2583  0.3140
   18CHTO   O52 7327   6.352   8.770  -0.394 -0.0729  0.0144 -0.0793
   18CHTO   C86 7328   6.383   8.643  -0.458 -0.1624 -0.0978  0.0071
   18CHTO  H158 7329   6.289   8.598  -0.496  0.7333 -0.5909 -1.6657
   18CHTO   C90 7330   6.479   8.670  -0.579 -0.0189  0.0747 -0.1180
   18CHTO   O60 7331   6.436   8.771  -0.674  0.2595  0.8466  0.2448
   18CHTO  H138 7332   6.344   8.781  -0.684  0.4677  3.4455  0.5197
   18CHTO   O50 7333   6.161   8.711  -0.275  0.2054 -0.4887  0.0289
   18CHTO   C73 7334   6.029   8.751  -0.304  0.0127 -0.0550  0.3534
   18CHTO  H145 7335   6.011   8.767  -0.411  2.6176  0.9577  0.0287
   18CHTO   C74 7336   5.997   8.883  -0.232  0.4994 -0.2320  0.5562
   18CHTO  H146 7337   6.066   8.960  -0.267  0.1329 -0.5236 -0.8340
   18CHTO   O54 7338   5.859   8.924  -0.268  0.5043 -0.4557 -0.0320
   18CHTO  H133 7339   5.841   8.919  -0.360  0.5563  1.2116 -0.1530
   18CHTO   C75 7340   6.001   8.857  -0.074 -0.5321 -0.0525  0.2737
   18CHTO  H147 7341   6.098   8.813  -0.046 -0.3653 -0.0495 -0.2914
   18CHTO   N13 7342   5.988   8.984   0.003 -0.1128 -0.4373  0.0568
   18CHTO  H139 7343   6.061   9.060  -0.019  0.7885 -0.5963  2.3576
   18CHTO  H140 7344   6.002   8.960   0.107  0.8609 -0.6401 -0.1197
   18CHTO   C76 7345   5.905   8.742  -0.039  0.8869 -0.5373  0.1827
   18CHTO  H148 7346   5.802   8.775  -0.054  1.1495  1.0388  1.6730
   18CHTO   O49 7347   5.957   8.625  -0.112 -0.0472  0.1861 -0.3258
   18CHTO   C77 7348   5.932   8.639  -0.251 -0.2026 -0.3088 -0.6938
   18CHTO  H149 7349   5.830   8.663  -0.279 -0.6276  0.2273  1.2212
   18CHTO   C88 7350   5.971   8.504  -0.312  0.1701  0.2000 -1.2052
   18CHTO   O58 7351   5.924   8.496  -0.422  0.3006 -0.4397 -0.4520
   18CHTO  H136 7352   5.967   8.423  -0.462  0.6794  0.5212 -1.8158
   18CHTO   O51 7353   5.926   8.707   0.113  0.1519 -0.6334 -0.2132
   18CHTO   C78 7354   5.823   8.640   0.181 -0.1809 -0.0730 -0.1091
   18CHTO  H150 7355   5.778   8.564   0.114  2.6903 -2.1133  0.1800
   18CHTO   C80 7356   5.708   8.737   0.218 -0.4646  0.2132  0.4873
   18CHTO  H152 7357   5.754   8.829   0.260 -0.2572 -0.6610  2.2201
   18CHTO   O55 7358   5.627   8.772   0.101 -0.6317 -0.1224  0.3189
   18CHTO  H134 7359   5.611   8.864   0.102  0.6194  0.0986  1.7996
   18CHTO   C84 7360   5.619   8.682   0.341  0.2708 -0.0123  0.0610
   18CHTO  H156 7361   5.554   8.613   0.289 -1.9049  0.4322  2.1107
   18CHTO   N15 7362   5.532   8.780   0.413  0.5445 -0.2276 -0.7031
   18CHTO  H143 7363   5.506   8.861   0.347 -0.9889  2.1840  2.7321
   18CHTO  H144 7364   5.446   8.718   0.432 -0.6307  1.6735  0.3273
   18CHTO   C87 7365   5.705   8.616   0.452  0.7150  0.8954 -0.4804
   18CHTO  H159 7366   5.760   8.695   0.503 -0.8340  0.9621  1.1341
   18CHTO   O53 7367   5.796   8.498   0.379 -0.2659 -0.0856 -0.2788
   18CHTO   C82 7368   5.892   8.563   0.293 -0.1328  0.1819  0.0412
   18CHTO  H154 7369   5.943   8.636   0.355 -1.3023  0.4589  0.6894
   18CHTO   C89 7370   6.001   8.464   0.246 -0.3681 -0.2380 -0.1180
   18CHTO   O59 7371   6.129   8.472   0.322  0.4286 -0.9573 -0.7558
   18CHTO  H137 7372   6.104   8.498   0.408  2.9960 -0.9031  0.0022
   18CHTO   O45 7373   5.621   8.530   0.581 -0.2608 -0.2423  0.3753
   18CHTO   C67 7374   5.697   8.545   0.707  0.1244  0.5474  0.6061
   18CHTO  H124 7375   5.793   8.578   0.667 -1.3261  3.1963 -0.8620
   18CHTO   C65 7376   5.646   8.657   0.802  0.0416  0.3024 -0.0865
   18CHTO  H122 7377   5.537   8.657   0.799 -0.0925  1.8373  3.1114
   18CHTO   O44 7378   5.691   8.785   0.755 -0.6274 -0.0240 -0.2205
   18CHTO  H102 7379   5.685   8.848   0.825 -1.4239  0.4976 -0.7542
   18CHTO   C63 7380   5.673   8.627   0.952 -0.0021  0.4113  0.2851
   18CHTO  H120 7381   5.593   8.560   0.982  1.0798 -1.2099 -0.3643
   18CHTO   N11 7382   5.648   8.737   1.054  0.0647  0.6468  0.0631
   18CHTO  H108 7383   5.633   8.729   1.159 -1.7713 -1.0385 -0.2824
   18CHTO  H109 7384   5.673   8.835   1.018 -0.5199 -0.7762 -4.6231
   18CHTO   C61 7385   5.811   8.544   0.960 -0.5389  0.5910 -0.1188
   18CHTO  H118 7386   5.822   8.530   1.068 -1.8020  1.5814  0.1574
   18CHTO   O40 7387   5.789   8.413   0.901 -0.1503  0.1878 -0.5087
   18CHTO   C68 7388   5.715   8.407   0.779  0.1161  0.7756 -0.0304
   18CHTO  H125 7389   5.610   8.378   0.800 -0.4585  2.5701 -0.2885
   18CHTO   C72 7390   5.775   8.298   0.685 -0.9871 -0.0375  0.0963
   18CHTO   O48 7391   5.771   8.171   0.743  0.7357 -0.3219  0.3134
   18CHTO  H105 7392   5.721   8.117   0.685  1.0837  0.8655 -1.1262
   18CHTO   O38 7393   5.933   8.609   0.912 -0.4214  0.3148  0.2285
   18CHTO   C55 7394   6.057   8.582   0.987  0.4008 -0.1995 -0.2774
   18CHTO  H112 7395   6.045   8.478   1.021 -2.6074 -0.7982 -2.8786
   18CHTO   C56 7396   6.086   8.680   1.109 -0.0950  0.1108 -0.6311
   18CHTO  H113 7397   6.083   8.776   1.055 -0.3815 -0.4651 -1.6523
   18CHTO   O42 7398   5.965   8.687   1.199  0.8344 -0.0327 -0.4267
   18CHTO  H100 7399   5.901   8.737   1.152  0.7123  2.0489  1.8563
   18CHTO   C57 7400   6.228   8.658   1.175  0.5779 -0.6489 -0.3141
   18CHTO  H114 7401   6.233   8.556   1.213 -0.0874 -0.2862  0.7522
   18CHTO   N10 7402   6.253   8.744   1.290  0.2791 -0.2494  0.2326
   18CHTO  H106 7403   6.321   8.703   1.363  1.9799  1.7329 -0.2220
   18CHTO  H107 7404   6.296   8.834   1.250 -1.7010  1.7789  2.5129
   18CHTO   C58 7405   6.334   8.666   1.065  0.3768  0.1077 -0.0982
   18CHTO  H115 7406   6.337   8.772   1.035 -1.1884 -0.3774 -2.0525
   18CHTO   O37 7407   6.299   8.580   0.959  0.4386 -0.0039 -0.1378
   18CHTO   C59 7408   6.177   8.587   0.892 -0.6312 -0.5700  0.5510
   18CHTO  H116 7409   6.164   8.678   0.834 -2.0761 -0.2434  1.3767
   18CHTO   C70 7410   6.178   8.468   0.797 -0.5394 -0.0972  0.0111
   18CHTO   O46 7411   6.068   8.437   0.705 -0.4813 -0.2922 -0.0599
   18CHTO  H103 7412   6.100   8.397   0.627 -2.8338  1.2466 -1.8820
   18CHTO   O39 7413   6.491   8.607   1.124  0.0230 -0.2938  1.0239
   18CHTO   C60 7414   6.502   8.465   1.125 -0.1843 -0.9436  0.7381
   18CHTO  H117 7415   6.400   8.428   1.130 -0.9215  1.0998  1.1689
   18CHTO   C62 7416   6.555   8.410   0.992 -0.6035 -0.4597  0.6694
   18CHTO  H119 7417   6.501   8.463   0.910 -0.5447  0.4391  1.2026
   18CHTO   O43 7418   6.694   8.441   0.968  0.3229  0.0317  0.4759
   18CHTO  H101 7419   6.747   8.380   1.016  1.6876  1.1108  0.3764
   18CHTO   C66 7420   6.511   8.261   0.966  0.6255  0.0175 -0.4699
   18CHTO  H123 7421   6.402   8.257   0.970  0.5995  1.5063  0.7249
   18CHTO   N12 7422   6.536   8.206   0.835 -0.5623 -0.4178  0.5256
   18CHTO  H110 7423   6.601   8.121   0.839 -2.1408 -1.5747  2.5911
   18CHTO  H111 7424   6.449   8.173   0.780 -2.2113  1.9230  1.6172
   18CHTO   C69 7425   6.558   8.171   1.078 -0.2656 -0.2057  0.2314
   18CHTO  H126 7426   6.659   8.137   1.048  0.5776 -0.9018  3.6256
   18CHTO   O41 7427   6.567   8.235   1.230  0.3803  0.5351 -0.0570
   18CHTO   C64 7428   6.573   8.401   1.239 -0.4847 -0.6524 -0.3472
   18CHTO  H121 7429   6.679   8.432   1.229 -1.1348  2.8031  2.3807
   18CHTO   C71 7430   6.513   8.445   1.381  0.4084  0.3862 -0.4199
   18CHTO   O47 7431   6.621   8.422   1.474  0.0951  0.2877 -0.7374
   18CHTO  H104 7432   6.646   8.509   1.500  1.4701  0.1285 -1.4537
   18CHTO   O34 7433   6.446   8.044   1.082 -0.5850 -0.2596 -0.1512
   18CHTO   C49 7434   6.334   8.003   1.192 -0.3863  0.3629  0.3323
   18CHTO   H91 7435   6.371   7.907   1.228 -1.0809  0.6095  1.7427
   18CHTO   C47 7436   6.198   8.001   1.119  0.9799  0.2703 -0.0922
   18CHTO   H89 7437   6.123   7.954   1.185 -0.8719  0.7305 -1.8300
   18CHTO   O33 7438   6.212   7.914   1.004  0.5347 -0.2630 -0.4330
   18CHTO   H70 7439   6.236   7.965   0.930 -0.3532  1.3923  0.3722
   18CHTO   C45 7440   6.145   8.148   1.084 -0.1098 -0.5402  0.1933
   18CHTO   H87 7441   6.220   8.198   1.020 -2.2470 -0.9063 -2.7365
   18CHTO    N8 7442   6.010   8.139   1.016 -0.0051 -0.3457 -0.2209
   18CHTO   H75 7443   6.013   8.075   0.929 -0.5250  0.1825 -0.6274
   18CHTO   H76 7444   5.993   8.237   0.975  3.4380 -0.9112 -3.1776
   18CHTO   C43 7445   6.135   8.236   1.223 -0.1938  0.6314 -0.4947
   18CHTO   H85 7446   6.125   8.341   1.195  1.8664  0.9965  0.0109
   18CHTO   O29 7447   6.265   8.215   1.292  0.1669 -0.2483  0.9363
   18CHTO   C50 7448   6.324   8.089   1.324 -0.2046 -0.3773 -0.2409
   18CHTO   H92 7449   6.427   8.089   1.363  0.6059  0.7445 -2.2885
   18CHTO   C54 7450   6.265   8.018   1.454  0.0863  0.1980  0.6126
   18CHTO   O36 7451   6.268   8.104   1.564  0.5747 -0.2313  0.4695
   18CHTO   H72 7452   6.219   8.183   1.549  1.2341  0.3900  1.6041
   18CHTO   O27 7453   6.030   8.200   1.315  0.0466 -0.3138 -0.0069
   18CHTO   C37 7454   5.954   8.273   1.412  0.4908  1.1950  0.2153
   18CHTO   H79 7455   5.981   8.237   1.513  0.1001  1.8873  0.5674
   18CHTO   C38 7456   5.978   8.429   1.415  0.0634  0.3980 -0.6687
   18CHTO   H80 7457   5.946   8.474   1.319 -0.1439 -0.3244 -0.9388
   18CHTO   O31 7458   6.121   8.454   1.434  0.4277 -0.4075  0.0452
   18CHTO   H68 7459   6.136   8.471   1.525 -0.9264 -1.3820  0.4681
   18CHTO   C39 7460   5.889   8.509   1.516 -0.0818  0.6881 -0.9910
   18CHTO   H81 7461   5.896   8.468   1.617 -2.4349  0.0471 -1.0540
   18CHTO    N7 7462   5.925   8.653   1.518 -0.1069  0.4273  0.5256
   18CHTO   H73 7463   5.848   8.721   1.552 -0.4262  0.6158 -0.5431
   18CHTO   H74 7464   6.012   8.672   1.578 -1.4078 -0.2955  2.7111
   18CHTO   C40 7465   5.742   8.473   1.474 -0.4199 -0.3200  0.1094
   18CHTO   H82 7466   5.726   8.514   1.374 -2.5684 -0.8088  0.2173
   18CHTO   O26 7467   5.730   8.333   1.479  0.0083  0.1320  0.0243
   18CHTO   C41 7468   5.799   8.244   1.391  0.1227 -0.6276  0.3081
   18CHTO   H83 7469   5.765   8.262   1.288  0.4546 -0.5668  0.2087
   18CHTO   C52 7470   5.754   8.107   1.419  0.1313 -0.3261 -0.4879
   18CHTO   O35 7471   5.802   8.011   1.311  0.4797 -0.4358  0.1208
   18CHTO   H71 7472   5.775   7.930   1.350 -0.2903 -1.5166 -2.5639
   18CHTO   O28 7473   5.643   8.513   1.571  0.0896 -0.0234 -0.4323
   18CHTO   C42 7474   5.499   8.524   1.533  0.2551  0.2584 -0.9944
   18CHTO   H84 7475   5.464   8.578   1.620  1.4694  1.8813 -1.4908
   18CHTO   C44 7476   5.415   8.397   1.523 -0.1768  0.1471 -0.5032
   18CHTO   H86 7477   5.465   8.340   1.446 -2.2668 -0.7124 -1.2588
   18CHTO   O32 7478   5.435   8.329   1.653 -0.0698  0.0436  0.4424
   18CHTO   H69 7479   5.479   8.246   1.646 -0.6320 -0.5672  3.6015
   18CHTO   C48 7480   5.260   8.418   1.495  0.5619 -0.4593  0.0225
   18CHTO   H90 7481   5.218   8.480   1.574  1.3578 -0.8612  0.7714
   18CHTO    N9 7482   5.177   8.300   1.486 -0.0688  0.5387  0.3415
   18CHTO   H77 7483   5.152   8.279   1.383 -0.8506  0.5427  0.5288
   18CHTO   H78 7484   5.220   8.211   1.529  2.6250  0.8056 -1.6105
   18CHTO   C51 7485   5.256   8.507   1.366  0.3864  0.5587  0.3464
   18CHTO   H93 7486   5.304   8.453   1.284  0.3136  0.9019  0.0788
   18CHTO   O30 7487   5.318   8.632   1.392 -0.1651  0.7308  0.5449
   18CHTO   C46 7488   5.474   8.615   1.409  0.6499  0.2561  0.2441
   18CHTO   H88 7489   5.509   8.563   1.320  0.5246 -0.8634  0.8342
   18CHTO   C53 7490   5.542   8.758   1.419  0.0467  0.1662  0.8547
   18CHTO   O72 7491   5.505   8.830   1.535 -0.0128 -0.1113 -0.1581
   18CHTO  H199 7492   5.521   8.922   1.525 -2.7100  0.2170 -2.0703
   18CHTO   O22 7493   5.126   8.545   1.320 -0.3366  0.0973  0.4890
   18CHTO   C31 7494   5.099   8.561   1.176  0.1546  0.0514 -0.6091
   18CHTO   H59 7495   4.994   8.598   1.172 -0.0943 -0.5292  0.4421
   18CHTO   C29 7496   5.182   8.677   1.111  0.1562  0.3575  0.2440
   18CHTO   H57 7497   5.284   8.660   1.148  0.0553 -0.7403  0.0215
   18CHTO   O21 7498   5.145   8.807   1.162  0.6014  0.2240  0.0387
   18CHTO   H37 7499   5.190   8.832   1.240  0.6304  2.4107 -0.6659
   18CHTO   C27 7500   5.173   8.672   0.953 -0.3491 -0.4915 -0.0376
   18CHTO   H55 7501   5.071   8.702   0.923 -0.2602  1.8115  1.8386
   18CHTO    N5 7502   5.273   8.762   0.892  0.4728  0.0903  0.1547
   18CHTO   H43 7503   5.356   8.782   0.958  0.5754  1.2832 -0.3108
   18CHTO   H44 7504   5.241   8.859   0.856 -1.9027 -0.6571  0.1675
   18CHTO   C25 7505   5.196   8.535   0.895  0.9204 -0.0176 -0.5172
   18CHTO   H53 7506   5.300   8.500   0.908  0.2827 -1.8261 -0.1049
   18CHTO   O17 7507   5.096   8.453   0.955  0.6366  0.3508 -0.0009
   18CHTO   C32 7508   5.113   8.427   1.091 -0.2195 -0.6174 -0.0133
   18CHTO   H60 7509   5.212   8.385   1.106 -0.0547 -0.0012  0.6769
   18CHTO   C36 7510   5.004   8.328   1.138  0.1978  0.5906 -0.1374
   18CHTO   O25 7511   5.011   8.193   1.088  0.2011  0.2986 -0.3576
   18CHTO   H40 7512   5.064   8.142   1.145  0.6985  0.4582 -0.6756
   18CHTO   O15 7513   5.194   8.530   0.740 -0.0561 -0.0425  0.1317
   18CHTO   C19 7514   5.202   8.467   0.606  0.1547 -0.2030 -0.5479
   18CHTO   H47 7515   5.105   8.422   0.582  0.1240 -1.3706  1.6332
   18CHTO   C20 7516   5.227   8.571   0.495 -0.0781  0.0615 -0.5017
   18CHTO   H48 7517   5.322   8.624   0.510 -0.7609  1.0275  0.4783
   18CHTO   O19 7518   5.121   8.671   0.498 -0.0479  0.0184  0.4984
   18CHTO   H35 7519   5.146   8.733   0.564 -1.6424  0.2652  0.8743
   18CHTO   C21 7520   5.233   8.489   0.358  0.4285 -0.0442  0.0108
   18CHTO   H49 7521   5.135   8.443   0.346  0.1043  0.5538  0.3549
   18CHTO    N4 7522   5.252   8.579   0.245 -0.3395  0.1334 -0.3709
   18CHTO   H41 7523   5.168   8.645   0.234 -0.9007 -0.1026  2.1364
   18CHTO   H42 7524   5.342   8.638   0.251 -0.0050 -0.3827 -0.2838
   18CHTO   C22 7525   5.343   8.380   0.365  0.1611 -0.2470 -0.4208
   18CHTO   H50 7526   5.428   8.438   0.401 -1.3598 -0.1904  3.2701
   18CHTO   O14 7527   5.307   8.291   0.473  0.2012 -0.5045 -0.3036
   18CHTO   C23 7528   5.309   8.357   0.602 -0.1879  0.3482  0.2596
   18CHTO   H51 7529   5.410   8.395   0.620  0.7345 -1.1477 -1.5685
   18CHTO   C34 7530   5.293   8.252   0.709 -0.2360 -0.5035 -0.0209
   18CHTO   O23 7531   5.411   8.170   0.726 -0.0853 -0.7063  0.2378
   18CHTO   H38 7532   5.373   8.096   0.769 -2.3203  0.7892  0.9577
   18CHTO   O16 7533   5.377   8.302   0.252 -0.2967  0.0045 -0.4495
   18CHTO   C24 7534   5.527   8.296   0.226  0.1875  0.4889  0.5129
   18CHTO   H52 7535   5.583   8.374   0.278 -2.0349  1.3827  1.6103
   18CHTO   C26 7536   5.544   8.315   0.077 -0.0410 -0.4272  0.2092
   18CHTO   H54 7537   5.471   8.249   0.026 -0.2239  0.4785 -0.7020
   18CHTO   O20 7538   5.514   8.453   0.053 -0.3166 -0.3585  0.1289
   18CHTO   H36 7539   5.421   8.467   0.055 -0.3925 -0.8824  0.2794
   18CHTO   C30 7540   5.686   8.276   0.030  0.0337 -0.0773 -0.2671
   18CHTO   H58 7541   5.755   8.354   0.064  0.0358  1.0168 -2.6781
   18CHTO    N6 7542   5.695   8.280  -0.124 -0.3721  0.0478 -0.0425
   18CHTO   H45 7543   5.617   8.325  -0.183 -0.8688 -2.0021 -0.9912
   18CHTO   H46 7544   5.743   8.196  -0.173  0.9824 -0.2171  1.6885
   18CHTO   C33 7545   5.738   8.146   0.090 -0.6307  0.1021  0.1755
   18CHTO   H61 7546   5.684   8.058   0.051 -1.3172  0.0802  1.1342
   18CHTO   O18 7547   5.720   8.156   0.231 -1.1837  0.3833 -0.5672
   18CHTO   C28 7548   5.589   8.153   0.269  0.2152 -0.1598 -0.1313
   18CHTO   H56 7549   5.535   8.075   0.217 -0.8114 -0.2088  1.0029
   18CHTO   C35 7550   5.579   8.127   0.421 -0.5130  0.7486 -1.0181
   18CHTO   O24 7551   5.608   7.994   0.463  0.2131 -1.1763 -0.0155
   18CHTO   H39 7552   5.538   7.941   0.430 -0.6042  0.3148 -0.7548
   18CHTO    O9 7553   5.877   8.130   0.057  0.3752  0.0712  0.3767
   18CHTO   C13 7554   5.955   8.000   0.108  0.4867 -0.0358  0.4438
   18CHTO   H26 7555   5.888   7.914   0.092  1.5567 -0.6774 -0.7325
   18CHTO   C11 7556   5.993   8.020   0.257 -0.1578 -1.0142 -0.0749
   18CHTO   H24 7557   5.899   8.034   0.312  0.0603  0.8773 -0.1743
   18CHTO    O8 7558   6.057   8.148   0.281  0.2120 -0.3309 -0.2388
   18CHTO    H3 7559   6.134   8.148   0.227 -0.3010 -3.1762 -1.0371
   18CHTO    C9 7560   6.074   7.898   0.311  0.1707 -0.0784 -0.2239
   18CHTO   H22 7561   5.999   7.818   0.321 -2.2249  2.0160 -0.6980
   18CHTO    N2 7562   6.102   7.917   0.456  0.4487  0.4602  0.3890
   18CHTO   H10 7563   6.066   8.012   0.492 -1.3332 -0.2576  0.5742
   18CHTO   H11 7564   6.201   7.891   0.490  0.1205 -0.0257  0.9710
   18CHTO    C7 7565   6.194   7.867   0.218 -0.0901  0.4688 -0.3946
   18CHTO   H20 7566   6.217   7.760   0.236 -0.7575  0.2579 -0.7878
   18CHTO    O4 7567   6.168   7.873   0.073  0.1681  0.4776 -0.6215
   18CHTO   C14 7568   6.078   7.965   0.020 -0.6518 -0.4370  0.7765
   18CHTO   H27 7569   6.048   7.920  -0.077 -0.3111 -2.9041  1.7804
   18CHTO   C18 7570   6.169   8.088  -0.021 -0.2449 -0.2440  0.6324
   18CHTO   O13 7571   6.109   8.185  -0.113  0.1508  0.4101  0.0248
   18CHTO    H7 7572   6.142   8.166  -0.199 -1.1746 -0.0991 -0.3828
   18CHTO    O2 7573   6.311   7.978   0.248  0.6006  0.6023 -0.0089
   18CHTO    C1 7574   6.440   7.920   0.253  0.8172  0.3944  0.8709
   18CHTO   H14 7575   6.507   8.005   0.232 -0.3909  1.5893  1.7612
   18CHTO    C2 7576   6.477   7.792   0.164 -0.0468 -0.3007 -0.3697
   18CHTO   H15 7577   6.407   7.710   0.185  1.6512 -2.4688 -2.9771
   18CHTO    O6 7578   6.456   7.827   0.031  0.7273 -0.6174 -0.1834
   18CHTO    H1 7579   6.366   7.844   0.013  0.8975 -2.4939 -3.1769
   18CHTO    C3 7580   6.631   7.745   0.188 -0.2357  0.4174  0.1959
   18CHTO   H16 7581   6.700   7.826   0.160  0.7611 -1.1461 -2.0455
   18CHTO    N1 7582   6.661   7.623   0.104 -0.4744 -0.5031  0.1284
   18CHTO    H8 7583   6.720   7.657   0.020 -0.6768  2.2251  1.0326
   18CHTO    H9 7584   6.572   7.571   0.073  0.2188 -2.9703  2.0345
   18CHTO    C4 7585   6.651   7.729   0.346 -0.5541  0.4644  0.1519
   18CHTO   H17 7586   6.596   7.643   0.382 -0.1820 -0.0812 -0.5695
   18CHTO    O1 7587   6.603   7.834   0.426 -0.1122 -0.0670  0.4947
   18CHTO    C5 7588   6.466   7.879   0.405  0.3661  0.4853 -0.4193
   18CHTO   H18 7589   6.390   7.805   0.431 -0.7073  1.1527 -1.5280
   18CHTO   C16 7590   6.444   8.004   0.493 -0.3538 -0.3374 -0.0026
   18CHTO   O11 7591   6.524   8.119   0.448 -0.4430  0.3100  0.0977
   18CHTO    H5 7592   6.550   8.176   0.518 -1.2345  0.2072  0.4867
   18CHTO    O3 7593   6.795   7.718   0.367 -0.1827 -0.1765 -0.4101
   18CHTO    C6 7594   6.825   7.681   0.502 -0.3001  0.3369 -0.8400
   18CHTO   H19 7595   6.741   7.677   0.572  0.9681  2.1744  0.8413
   18CHTO    C8 7596   6.887   7.532   0.505 -0.5380 -0.5238 -0.2577
   18CHTO   H21 7597   6.980   7.535   0.449 -1.0894  0.6202 -1.1390
   18CHTO    O7 7598   6.792   7.441   0.443 -0.5961 -0.0036  0.1941
   18CHTO    H2 7599   6.797   7.358   0.485  0.6597 -0.1184 -0.1764
   18CHTO   C12 7600   6.921   7.498   0.652 -0.2482  0.0007 -0.2408
   18CHTO   H25 7601   6.823   7.485   0.703  1.0936  0.5640  2.5829
   18CHTO    N3 7602   6.991   7.371   0.671  0.2534  0.9333  0.2551
   18CHTO   H12 7603   6.921   7.310   0.727 -2.8770  2.8479 -1.4080
   18CHTO   H13 7604   7.011   7.326   0.575 -2.5297  0.8420 -0.3385
   18CHTO   C15 7605   6.996   7.618   0.726  0.5148  0.1503 -0.2176
   18CHTO   H28 7606   7.105   7.616   0.718  0.4339 -1.0843 -1.0747
   18CHTO   O10 7607   6.955   7.619   0.868 -0.0094  0.6103 -0.5889
   18CHTO    H4 7608   6.862   7.609   0.876  0.0316  0.3408 -0.4479
   18CHTO    O5 7609   6.947   7.745   0.700  0.0646 -0.0095  0.0271
   18CHTO   C10 7610   6.924   7.780   0.560 -0.7683  0.1404  0.1491
   18CHTO   H23 7611   7.011   7.792   0.496 -1.1844  1.3721 -0.1976
   18CHTO   C17 7612   6.862   7.921   0.565 -0.1940  0.0681 -0.1955
   18CHTO   O12 7613   6.952   8.029   0.533 -0.0003  0.1367 -0.2161
   18CHTO    H6 7614   7.040   8.018   0.565 -1.0823  0.6992  3.2273
   19CHTO  H203 7615   5.742   9.766   2.186  0.9966 -2.2983 -2.1495
   19CHTO   O82 7616   5.717   9.688   2.230 -0.1298 -0.5305  0.4281
   19CHTO  C123 7617   5.701   9.588   2.129 -0.1405  0.3577  0.6989
   19CHTO  H227 7618   5.665   9.638   2.037  0.3022 -1.3088 -0.3985
   19CHTO   O77 7619   5.835   9.552   2.105 -0.2841 -0.0502  0.3833
   19CHTO  C118 7620   5.849   9.480   1.980 -0.3400  0.2502 -0.4853
   19CHTO  H222 7621   5.793   9.522   1.895 -0.1043 -0.4127 -0.9701
   19CHTO  C125 7622   6.004   9.479   1.942 -0.8186 -0.7315  0.2310
   19CHTO   O84 7623   6.040   9.600   1.869 -0.0781 -0.2419 -0.0952
   19CHTO  H205 7624   6.101   9.583   1.800 -3.1289  1.6320 -3.4075
   19CHTO  C114 7625   5.789   9.342   2.021 -0.2475  0.1242  0.4346
   19CHTO  H218 7626   5.842   9.305   2.108  2.6214 -1.3365 -1.8303
   19CHTO  C116 7627   5.637   9.356   2.049  0.3902  0.4915 -0.0508
   19CHTO  H220 7628   5.586   9.394   1.958  0.1855 -0.6238 -0.4079
   19CHTO   O79 7629   5.586   9.229   2.092 -0.3199 -0.8871 -0.6610
   19CHTO  H201 7630   5.494   9.223   2.105  0.0325  0.2219  2.9787
   19CHTO  C120 7631   5.607   9.466   2.157  0.5455 -0.0675  0.1796
   19CHTO  H224 7632   5.623   9.412   2.252 -1.1425 -1.7547 -0.4520
   19CHTO   N21 7633   5.466   9.512   2.158 -0.4568 -0.3344  0.2271
   19CHTO  H211 7634   5.398   9.452   2.217 -0.4474 -1.5612 -0.9923
   19CHTO  H212 7635   5.464   9.617   2.184 -0.1378 -0.6673  1.6111
   19CHTO   O75 7636   5.822   9.250   1.921  0.2971 -0.0279  0.0109
   19CHTO  C112 7637   5.830   9.089   1.988  0.3384 -0.2089  0.1609
   19CHTO  H216 7638   5.754   9.077   2.067  0.5479 -0.0897  0.3794
   19CHTO   O73 7639   5.964   9.077   2.043  0.0340 -0.2491  0.0136
   19CHTO  C113 7640   5.982   8.946   2.097  0.6523  0.2912  0.0132
   19CHTO  H217 7641   5.920   8.924   2.186 -0.5492  0.7662 -0.6827
   19CHTO  C124 7642   6.127   8.934   2.140  0.9879 -0.3540 -0.4805
   19CHTO   O83 7643   6.160   9.017   2.257  0.0666 -0.3263  0.5156
   19CHTO  H204 7644   6.158   9.101   2.216  0.2570 -2.1222 -3.3667
   19CHTO  C109 7645   5.942   8.826   1.999 -0.2220 -0.2675 -0.2041
   19CHTO  H213 7646   6.018   8.829   1.919 -1.5137 -0.9944 -1.5017
   19CHTO  C110 7647   5.806   8.841   1.927 -0.1668 -0.6404  0.7654
   19CHTO  H214 7648   5.731   8.821   2.004 -2.9085 -0.0914 -1.6860
   19CHTO   O78 7649   5.787   8.746   1.821  0.2158  0.1467  0.6176
   19CHTO  H200 7650   5.851   8.677   1.827 -1.5690 -1.4495  2.1998
   19CHTO  C111 7651   5.797   8.988   1.870  0.0915  0.9310  0.1694
   19CHTO  H215 7652   5.876   9.008   1.797 -0.8466 -0.6695 -1.3437
   19CHTO   N19 7653   5.675   9.025   1.801 -0.5696 -0.0723  0.2130
   19CHTO  H207 7654   5.614   8.945   1.762  0.5601  0.1171 -1.9996
   19CHTO  H208 7655   5.687   9.083   1.711  1.7717 -1.9600 -0.7416
   19CHTO   O74 7656   5.934   8.695   2.061 -0.4820  0.1506 -0.3268
   19CHTO  C115 7657   6.012   8.589   1.975  1.1285  0.0673  0.0763
   19CHTO  H219 7658   5.973   8.586   1.873 -1.1272 -1.0486  0.9264
   19CHTO   O76 7659   6.167   8.624   1.971  0.2866 -0.8804 -0.0704
   19CHTO  C122 7660   6.253   8.533   1.907 -0.5459 -0.4097  0.4638
   19CHTO  H226 7661   6.354   8.550   1.945 -1.2526 -1.6793  3.0368
   19CHTO  C126 7662   6.260   8.559   1.748 -0.3940 -0.2852  0.1566
   19CHTO   O85 7663   6.282   8.697   1.717 -0.0705 -0.1820  0.2480
   19CHTO  H206 7664   6.299   8.714   1.626  1.1352  3.3484  1.0450
   19CHTO  C121 7665   6.228   8.380   1.953 -1.0692  0.1059 -0.7353
   19CHTO  H225 7666   6.272   8.323   1.869 -0.3532  0.7727 -0.8143
   19CHTO   O81 7667   6.302   8.340   2.073 -0.3016  0.1314  0.1353
   19CHTO  H202 7668   6.378   8.392   2.090  0.9506 -1.6012 -0.0632
   19CHTO  C119 7669   6.080   8.342   1.962 -0.0340 -0.6400  0.1758
   19CHTO  H223 7670   6.045   8.342   1.859  1.0221  0.4810 -0.1980
   19CHTO  C117 7671   5.991   8.443   2.032  0.1667 -0.2808 -0.3333
   19CHTO  H221 7672   6.008   8.456   2.139  0.4661 -2.0808 -0.1428
   19CHTO   N20 7673   5.847   8.399   2.026 -0.5651  0.4703  0.6937
   19CHTO  H209 7674   5.848   8.294   2.051  0.2642  0.4061  0.4026
   19CHTO  H210 7675   5.788   8.470   2.082  1.3236  1.1558  1.8705
   19CHTO   O80 7676   6.066   8.185   1.998 -0.2010  0.6564 -0.2426
   19CHTO  C103 7677   6.109   8.082   1.893  0.2682  0.1372 -0.8390
   19CHTO  H190 7678   6.157   8.125   1.805  0.1227 -1.1613 -1.5659
   19CHTO  C101 7679   6.199   7.972   1.954  0.4647  0.3634 -0.2926
   19CHTO  H188 7680   6.153   7.931   2.044 -0.0811 -0.1358 -0.7923
   19CHTO   O68 7681   6.333   8.035   1.992  0.0994  0.6855  0.5131
   19CHTO  H168 7682   6.311   8.115   2.035 -0.1343  0.2974  1.1293
   19CHTO   C99 7683   6.222   7.859   1.848  0.1866  0.7648  0.7818
   19CHTO  H186 7684   6.291   7.906   1.775  1.8302 -0.9369  1.1829
   19CHTO   N17 7685   6.295   7.741   1.898  0.1990 -0.2989  0.1599
   19CHTO  H174 7686   6.399   7.748   1.868  0.5970 -1.4979  1.2176
   19CHTO  H175 7687   6.298   7.726   2.005  1.1489 -1.1145  0.0293
   19CHTO   C97 7688   6.094   7.813   1.767  0.1859  0.9094 -0.0425
   19CHTO  H184 7689   6.050   7.736   1.833  0.2074  1.0849  0.1797
   19CHTO   O64 7690   5.998   7.916   1.731  0.3923  0.4440 -0.0663
   19CHTO  C104 7691   5.975   8.010   1.844 -0.1170  0.5687  0.1335
   19CHTO  H191 7692   5.926   7.967   1.930  0.8478  0.3220  0.5690
   19CHTO  C108 7693   5.875   8.122   1.782  0.1121  1.0076 -0.3976
   19CHTO   O71 7694   5.736   8.089   1.783 -0.1310  0.4705  0.3450
   19CHTO  H171 7695   5.731   8.001   1.753  3.5540  0.5168 -0.7225
   19CHTO   O62 7696   6.131   7.740   1.645  0.1861  0.3398 -0.2381
   19CHTO   C91 7697   6.033   7.645   1.600  0.2652 -0.5647  0.4116
   19CHTO  H178 7698   5.954   7.637   1.674 -0.1650 -1.4521 -0.1413
   19CHTO   C92 7699   6.101   7.508   1.596 -0.3724 -0.2776  0.1918
   19CHTO  H179 7700   6.205   7.516   1.561 -0.0509 -2.0388  0.6616
   19CHTO   O66 7701   6.131   7.472   1.728 -0.1745 -0.8796 -0.1640
   19CHTO  H166 7702   6.218   7.501   1.747  0.4822  0.0268 -4.2830
   19CHTO   C93 7703   6.018   7.398   1.529  0.2685 -0.0342 -0.7143
   19CHTO  H180 7704   5.937   7.387   1.603  1.8690  1.6754  1.3701
   19CHTO   N16 7705   6.076   7.265   1.512 -0.2308  0.8798  0.0904
   19CHTO  H172 7706   6.099   7.228   1.611  3.5656 -0.0983 -1.0777
   19CHTO  H173 7707   6.170   7.269   1.459 -0.1724 -0.8015  0.0542
   19CHTO   C94 7708   5.959   7.450   1.396 -0.5233 -0.1532 -0.0377
   19CHTO  H181 7709   5.993   7.392   1.311  1.6787  3.2202 -1.5802
   19CHTO   O61 7710   5.999   7.584   1.357  0.4619 -0.4278  0.2873
   19CHTO   C95 7711   5.977   7.689   1.457 -0.7777  0.5088  0.4892
   19CHTO  H182 7712   6.023   7.781   1.420  0.6044 -1.2879 -2.4265
   19CHTO  C106 7713   5.823   7.726   1.453 -0.3748  0.3896  0.3857
   19CHTO   O69 7714   5.781   7.824   1.554 -0.0706 -0.3033 -1.3517
   19CHTO  H169 7715   5.832   7.901   1.538  1.6803 -0.6720  2.0930
   19CHTO   O63 7716   5.786   7.440   1.407 -0.0972 -0.2264 -0.2015
   19CHTO   C96 7717   5.723   7.365   1.285 -0.0527  0.4131  0.3975
   19CHTO  H183 7718   5.805   7.361   1.214  0.7256  2.6147  1.1309
   19CHTO   C98 7719   5.612   7.441   1.206  0.1281  0.2681 -0.3857
   19CHTO  H185 7720   5.654   7.540   1.185 -0.5974  0.5598 -0.4601
   19CHTO   O67 7721   5.584   7.381   1.076  0.0162 -0.3759 -1.1904
   19CHTO  H167 7722   5.658   7.403   1.023 -1.5331  1.7677 -2.5542
   19CHTO  C102 7723   5.482   7.443   1.292 -0.0128 -0.6184 -0.8456
   19CHTO  H189 7724   5.406   7.468   1.216  0.3455  0.7845 -0.7609
   19CHTO   N18 7725   5.475   7.554   1.391 -0.1704 -0.3418  0.2183
   19CHTO  H176 7726   5.374   7.556   1.431 -0.6585  2.1420 -1.0874
   19CHTO  H177 7727   5.502   7.643   1.338  0.9986  0.5523  2.2610
   19CHTO  C105 7728   5.454   7.306   1.357 -0.1272 -0.4960 -0.0991
   19CHTO  H192 7729   5.464   7.310   1.466 -1.9083  0.0879  0.0486
   19CHTO   O65 7730   5.538   7.198   1.301  0.5049  0.2155  0.6436
   19CHTO  C100 7731   5.676   7.227   1.331  0.3247  0.5387 -0.9686
   19CHTO  H187 7732   5.681   7.212   1.440  2.1982 -0.7986 -1.2149
   19CHTO  C107 7733   5.760   7.119   1.261  0.6266  0.2267  0.1354
   19CHTO   O70 7734   5.881   7.093   1.323  0.7166  0.1141 -0.3166
   19CHTO  H170 7735   5.941   7.161   1.298  1.6279 -0.5428  0.0797
   19CHTO   O57 7736   5.310   7.263   1.317  0.0739  0.1187  0.7542
   19CHTO   C85 7737   5.246   7.163   1.392 -0.3943  0.4477 -0.6002
   19CHTO  H157 7738   5.312   7.136   1.477  0.5026  0.1350 -1.3814
   19CHTO   C83 7739   5.221   7.029   1.316 -0.5738 -0.4689  0.5400
   19CHTO  H155 7740   5.316   6.984   1.288 -0.7340 -0.3429 -0.2090
   19CHTO   O56 7741   5.158   7.059   1.192  0.4879 -0.7343  0.0050
   19CHTO  H135 7742   5.151   6.990   1.128 -0.9511  0.8907 -1.6777
   19CHTO   C81 7743   5.142   6.932   1.417 -0.0393  0.4624 -0.1296
   19CHTO  H153 7744   5.196   6.921   1.511  0.2387  0.5450 -0.2804
   19CHTO   N14 7745   5.134   6.794   1.365 -0.4188  0.0468 -0.7368
   19CHTO  H141 7746   5.034   6.757   1.357 -1.0432  1.3969  0.5290
   19CHTO  H142 7747   5.194   6.720   1.413 -0.0293 -0.7000 -2.3281
   19CHTO   C79 7748   5.003   6.996   1.459  0.3124  0.0328  0.2637
   19CHTO  H151 7749   4.954   6.920   1.519 -0.0258 -1.1583 -1.4944
   19CHTO   O52 7750   5.024   7.131   1.521 -0.4321 -0.1146 -0.2271
   19CHTO   C86 7751   5.113   7.224   1.440  1.0275  0.2982  0.1153
   19CHTO  H158 7752   5.063   7.252   1.345 -1.6529 -1.3669  0.9786
   19CHTO   C90 7753   5.119   7.351   1.528  0.0477  0.0102 -0.7140
   19CHTO   O60 7754   4.987   7.385   1.573  0.0785 -0.7391 -0.0661
   19CHTO  H138 7755   4.940   7.401   1.494 -0.6393  0.9049  0.6647
   19CHTO   O50 7756   4.910   7.019   1.352  0.2595  0.4034  0.0699
   19CHTO   C73 7757   4.772   7.006   1.307 -0.0339 -0.2211  0.8180
   19CHTO  H145 7758   4.734   6.903   1.313 -0.0648 -0.2267  0.5450
   19CHTO   C74 7759   4.770   7.034   1.157 -0.6748  0.1881 -0.3914
   19CHTO  H146 7760   4.834   6.961   1.107 -0.4670  0.4040 -0.4436
   19CHTO   O54 7761   4.642   7.005   1.099 -0.0941 -0.1674  0.2657
   19CHTO  H133 7762   4.584   7.078   1.106 -0.4221 -0.5204  1.2901
   19CHTO   C75 7763   4.827   7.182   1.137  0.5370  0.2669  0.5309
   19CHTO  H147 7764   4.934   7.186   1.162  0.7185  0.1157 -0.2143
   19CHTO   N13 7765   4.839   7.222   0.992  0.5676  0.0917  0.2359
   19CHTO  H139 7766   4.804   7.154   0.916  2.8495 -0.6805 -0.1588
   19CHTO  H140 7767   4.776   7.304   0.962 -1.0721 -2.0024 -2.2090
   19CHTO   C76 7768   4.740   7.290   1.214  0.0884 -0.3837  0.2905
   19CHTO  H148 7769   4.638   7.301   1.177  0.1749 -1.8561 -0.4118
   19CHTO   O49 7770   4.727   7.249   1.359 -0.4996 -0.0780 -0.2182
   19CHTO   C77 7771   4.674   7.108   1.382  0.5667 -0.8994 -0.1900
   19CHTO  H149 7772   4.573   7.101   1.343  0.2260 -3.3821  1.0549
   19CHTO   C88 7773   4.659   7.075   1.531  0.3727  0.1114 -0.0452
   19CHTO   O58 7774   4.557   7.147   1.589 -0.4864 -0.6647 -0.2284
   19CHTO  H136 7775   4.535   7.110   1.672 -0.3760 -1.8911 -0.7335
   19CHTO   O51 7776   4.821   7.421   1.216 -0.4686 -0.3562  0.5392
   19CHTO   C78 7777   4.726   7.560   1.195  0.1995  0.4249 -0.4804
   19CHTO  H150 7778   4.623   7.525   1.175 -1.0861  2.1698  2.8198
   19CHTO   C80 7779   4.772   7.641   1.080 -0.8028 -0.8111  0.3297
   19CHTO  H152 7780   4.881   7.657   1.092 -0.9250 -2.0942  3.5341
   19CHTO   O55 7781   4.740   7.569   0.965  0.3333  0.0267 -0.2176
   19CHTO  H134 7782   4.659   7.589   0.922  1.6665  1.5249 -2.1178
   19CHTO   C84 7783   4.705   7.781   1.071  0.0808  0.1402 -0.4104
   19CHTO  H156 7784   4.602   7.767   1.037 -0.2914  0.7549  0.4542
   19CHTO   N15 7785   4.764   7.876   0.973 -0.4065 -0.8480  0.0515
   19CHTO  H143 7786   4.866   7.850   0.953 -0.6403  1.4869 -5.1665
   19CHTO  H144 7787   4.713   7.874   0.879 -0.4072  0.5140  0.0034
   19CHTO   C87 7788   4.705   7.848   1.209  0.3984 -0.0325 -0.1540
   19CHTO  H159 7789   4.803   7.887   1.236 -0.4429  0.7664  1.8662
   19CHTO   O53 7790   4.655   7.750   1.313  0.4375  0.3102  0.0463
   19CHTO   C82 7791   4.743   7.636   1.324 -0.0817  0.3290 -0.3888
   19CHTO  H154 7792   4.845   7.670   1.342 -1.1777  3.2842  0.4522
   19CHTO   C89 7793   4.704   7.553   1.450  0.0339  0.2562  0.0549
   19CHTO   O59 7794   4.571   7.509   1.445 -0.8049 -0.3931  0.1440
   19CHTO  H137 7795   4.573   7.439   1.384  1.6861  0.4471 -0.8190
   19CHTO   O45 7796   4.588   7.979   1.187 -0.2956  0.4924  0.5154
   19CHTO   C67 7797   4.558   8.045   1.312  0.0011 -0.5753 -0.1691
   19CHTO  H124 7798   4.553   7.972   1.393  1.4615 -1.3309 -0.7423
   19CHTO   C65 7799   4.662   8.162   1.350  0.2802 -0.2669  0.4107
   19CHTO  H122 7800   4.678   8.204   1.251  0.5620 -1.7815 -0.2098
   19CHTO   O44 7801   4.780   8.107   1.408  0.9871 -0.2705  0.5063
   19CHTO  H102 7802   4.749   8.080   1.493  0.9131  0.3612  0.6811
   19CHTO   C63 7803   4.593   8.282   1.422 -0.0253  0.4100 -0.4898
   19CHTO  H120 7804   4.551   8.351   1.349 -1.8315  0.4750  0.5815
   19CHTO   N11 7805   4.692   8.370   1.498  0.1432 -0.5193  0.0966
   19CHTO  H108 7806   4.635   8.452   1.537 -0.1201 -0.3583 -0.6278
   19CHTO  H109 7807   4.772   8.398   1.434 -1.3209 -0.3392 -1.7080
   19CHTO   C61 7808   4.473   8.234   1.503  0.9703 -0.8000 -1.1274
   19CHTO  H118 7809   4.421   8.323   1.543  1.6989 -1.3259  1.0745
   19CHTO   O40 7810   4.373   8.163   1.422  0.5653  0.4210  0.5124
   19CHTO   C68 7811   4.416   8.104   1.297  0.2474  0.1982  0.2918
   19CHTO  H125 7812   4.421   8.181   1.217  1.2390 -0.8631 -0.7130
   19CHTO   C72 7813   4.303   8.002   1.254 -0.5672 -0.5932  0.2019
   19CHTO   O48 7814   4.294   7.892   1.349 -0.5681  0.0843  0.0836
   19CHTO  H105 7815   4.208   7.903   1.386 -0.5418  0.4417  0.0375
   19CHTO   O38 7816   4.518   8.151   1.615 -0.3854 -0.1886 -0.0320
   19CHTO   C55 7817   4.418   8.078   1.687  0.1145 -0.5907 -0.8640
   19CHTO  H112 7818   4.347   8.039   1.612  0.4673 -2.5703 -0.2117
   19CHTO   C56 7819   4.343   8.167   1.792  0.7276 -0.7305 -1.0551
   19CHTO  H113 7820   4.421   8.188   1.867  0.1756 -1.0930 -0.3657
   19CHTO   O42 7821   4.285   8.286   1.738  0.7733 -0.3316 -0.1529
   19CHTO  H100 7822   4.362   8.333   1.710  0.9917  0.5047  1.7846
   19CHTO   C57 7823   4.232   8.079   1.861 -0.1524  0.0332 -0.0258
   19CHTO  H114 7824   4.170   8.046   1.778 -0.8115 -0.6716  0.7306
   19CHTO   N10 7825   4.148   8.147   1.963 -0.1448  0.2151 -0.4472
   19CHTO  H106 7826   4.129   8.252   1.944 -0.6590  0.1380 -0.3663
   19CHTO  H107 7827   4.052   8.102   1.981 -0.4516  1.3812  0.9280
   19CHTO   C58 7828   4.297   7.956   1.924 -0.0451  0.6500 -0.2766
   19CHTO  H115 7829   4.338   7.976   2.025 -1.9275 -0.1460  0.6679
   19CHTO   O37 7830   4.403   7.896   1.850 -0.5431  0.1142  0.0314
   19CHTO   C59 7831   4.488   7.964   1.753 -0.5085 -0.6682 -0.1275
   19CHTO  H116 7832   4.578   8.003   1.801 -0.6537  1.5815 -1.6346
   19CHTO   C70 7833   4.528   7.858   1.651  0.5384 -0.0228  0.1144
   19CHTO   O46 7834   4.427   7.779   1.586 -0.0477 -0.1461 -0.7081
   19CHTO  H103 7835   4.417   7.814   1.500 -0.4632  1.0714 -0.1858
   19CHTO   O39 7836   4.170   7.840   1.937  0.3731 -0.1125  0.6692
   19CHTO   C60 7837   4.165   7.743   1.827  0.5690  0.2461 -0.3033
   19CHTO  H117 7838   4.209   7.785   1.737  0.7704  0.4391 -0.1186
   19CHTO   C62 7839   4.246   7.615   1.863  0.3068  0.0936  0.3094
   19CHTO  H119 7840   4.339   7.654   1.909  0.4214 -1.0981  1.0983
   19CHTO   O43 7841   4.187   7.529   1.965  0.0629  0.3384  0.2344
   19CHTO  H101 7842   4.243   7.514   2.039  0.1459 -2.8481 -0.3834
   19CHTO   C66 7843   4.292   7.530   1.732  0.5256  0.3516  0.4048
   19CHTO  H123 7844   4.327   7.598   1.654 -0.4467 -0.3193 -0.6216
   19CHTO   N12 7845   4.406   7.437   1.746  0.2355 -0.1686  0.2517
   19CHTO  H110 7846   4.466   7.459   1.659 -0.3035  1.5536  0.2952
   19CHTO  H111 7847   4.465   7.460   1.834  0.9853  0.8448 -0.5061
   19CHTO   C69 7848   4.161   7.471   1.671 -0.0629  0.7436 -0.2577
   19CHTO  H126 7849   4.124   7.387   1.732 -1.1879  1.4114 -0.0056
   19CHTO   O41 7850   4.027   7.598   1.658  0.7161  0.2086 -0.8312
   19CHTO   C64 7851   4.023   7.701   1.787 -0.4629 -0.5537 -0.4562
   19CHTO  H121 7852   3.970   7.653   1.873  3.0574 -3.9569 -0.0637
   19CHTO   C71 7853   3.937   7.823   1.743 -0.5324 -0.5147  0.3604
   19CHTO   O47 7854   3.964   7.873   1.612 -0.2784  0.0527  0.1552
   19CHTO  H104 7855   3.978   7.965   1.610  1.3446 -0.1607  0.8281
   19CHTO   O34 7856   4.201   7.406   1.542  0.2601  0.3291 -0.2293
   19CHTO   C49 7857   4.097   7.410   1.419 -0.1213 -0.4982  0.1995
   19CHTO   H91 7858   3.996   7.403   1.458 -0.0254  0.9219  0.7413
   19CHTO   C47 7859   4.124   7.297   1.321 -0.5413  0.2405  0.1342
   19CHTO   H89 7860   4.041   7.293   1.248 -2.3922  4.4900  1.8145
   19CHTO   O33 7861   4.112   7.178   1.402 -0.2766 -0.3699  0.0415
   19CHTO   H70 7862   4.033   7.184   1.451  0.4930  1.9321  1.0594
   19CHTO   C45 7863   4.270   7.306   1.252  0.0707  0.3642 -0.4401
   19CHTO   H87 7864   4.344   7.316   1.333 -1.0836  2.4398  0.4114
   19CHTO    N8 7865   4.307   7.198   1.163 -0.0589 -0.5595 -0.0087
   19CHTO   H75 7866   4.407   7.168   1.189  0.3951 -0.0197 -1.1317
   19CHTO   H76 7867   4.236   7.117   1.177 -1.0634  0.3219  0.0614
   19CHTO   C43 7868   4.282   7.454   1.183 -0.2955  1.3088  0.5346
   19CHTO   H85 7869   4.391   7.460   1.180 -0.1351 -0.9911  0.8545
   19CHTO   O29 7870   4.226   7.564   1.261 -0.2572  0.1082  0.4917
   19CHTO   C50 7871   4.108   7.543   1.337 -0.8462 -0.3535  0.0479
   19CHTO   H92 7872   4.105   7.624   1.412  0.7549 -0.8182  0.6574
   19CHTO   C54 7873   3.978   7.573   1.258 -0.7412 -0.3142  0.2170
   19CHTO   O36 7874   3.952   7.713   1.239 -0.0393  0.1275  0.1724
   19CHTO   H72 7875   4.035   7.754   1.224  1.0958 -2.5358 -1.2235
   19CHTO   O27 7876   4.237   7.461   1.046  0.1425  0.4850 -0.0702
   19CHTO   C37 7877   4.239   7.522   0.916  0.5969 -0.5542  0.3161
   19CHTO   H79 7878   4.189   7.460   0.840  0.0235  0.2503  0.0293
   19CHTO   C38 7879   4.177   7.669   0.922  0.3033  0.0838  0.4056
   19CHTO   H80 7880   4.221   7.724   1.006 -1.4820  0.7372  0.9409
   19CHTO   O31 7881   4.039   7.656   0.948  0.0369 -0.1771  0.2332
   19CHTO   H68 7882   4.017   7.696   1.030  0.3414  0.8865 -0.1923
   19CHTO   C39 7883   4.194   7.753   0.780  0.1395 -0.1022 -0.8771
   19CHTO   H81 7884   4.153   7.699   0.694 -1.6614  0.0635 -0.1391
   19CHTO    N7 7885   4.145   7.900   0.786  0.3257 -0.0245  0.0372
   19CHTO   H73 7886   4.045   7.906   0.826  0.6604  0.3117  0.8355
   19CHTO   H74 7887   4.211   7.954   0.852 -0.0855  0.5472 -0.0212
   19CHTO   C40 7888   4.350   7.762   0.755 -0.4084  0.0629 -0.6208
   19CHTO   H82 7889   4.402   7.805   0.841  0.2671 -2.4712  0.3053
   19CHTO   O26 7890   4.382   7.619   0.739 -0.1271 -0.6246 -0.2059
   19CHTO   C41 7891   4.390   7.546   0.867  0.1048 -0.0780  0.8341
   19CHTO   H83 7892   4.450   7.599   0.942  1.2815  2.6584 -1.9494
   19CHTO   C52 7893   4.470   7.409   0.837 -0.0200  0.0460  0.5099
   19CHTO   O35 7894   4.503   7.322   0.930 -0.2399  0.1292 -0.0300
   19CHTO   H71 7895   4.517   7.369   1.010  1.5267  0.0325 -0.2747
   19CHTO   O28 7896   4.394   7.828   0.634 -0.1348  0.3281 -0.0282
   19CHTO   C42 7897   4.530   7.882   0.620 -0.2220 -1.1328 -0.0302
   19CHTO   H84 7898   4.570   7.849   0.717  0.1458 -2.6960 -0.6864
   19CHTO   C44 7899   4.547   8.035   0.616 -0.2081  0.8687 -0.2508
   19CHTO   H86 7900   4.501   8.072   0.524 -0.6909  2.5291  0.6508
   19CHTO   O32 7901   4.479   8.079   0.728  0.1921  0.0430 -0.6767
   19CHTO   H69 7902   4.407   8.020   0.744  0.7519 -0.9420 -1.7578
   19CHTO   C48 7903   4.700   8.083   0.624 -0.2277  0.1080  0.4608
   19CHTO   H90 7904   4.758   8.063   0.715 -2.8177  0.5709  2.2803
   19CHTO    N9 7905   4.712   8.230   0.624 -0.1115 -0.0025 -0.0029
   19CHTO   H77 7906   4.813   8.268   0.628  0.4629 -1.5309  0.7706
   19CHTO   H78 7907   4.662   8.258   0.533 -0.6235  1.2519  0.6554
   19CHTO   C51 7908   4.776   8.013   0.504  0.0209 -0.4006  0.1449
   19CHTO   H93 7909   4.735   8.047   0.409  1.0315 -0.4226 -0.3002
   19CHTO   O30 7910   4.762   7.872   0.517  0.7291  0.2796  0.0650
   19CHTO   C46 7911   4.616   7.820   0.505  0.4557 -0.1855  0.2147
   19CHTO   H88 7912   4.580   7.850   0.407  1.3091 -2.4958 -0.8359
   19CHTO   C53 7913   4.623   7.657   0.514  0.1466  0.4559  0.0230
   19CHTO   O72 7914   4.524   7.596   0.426  0.1733  0.2832 -0.6390
   19CHTO  H199 7915   4.528   7.638   0.342  2.9765  0.1924 -0.6173
   19CHTO   O22 7916   4.920   8.042   0.508 -0.1764  0.2065  0.2510
   19CHTO   C31 7917   5.033   7.965   0.455 -0.7299 -0.4872 -0.0377
   19CHTO   H59 7918   4.995   7.868   0.418 -0.8503  0.1365 -1.5809
   19CHTO   C29 7919   5.104   8.028   0.336  0.0213  0.4048  0.1719
   19CHTO   H57 7920   5.161   8.113   0.377  1.6279 -0.5422 -0.0143
   19CHTO   O21 7921   5.003   8.060   0.240 -0.1357 -0.4744  0.4568
   19CHTO   H37 7922   5.028   8.140   0.198 -3.7954  0.0739 -0.8843
   19CHTO   C27 7923   5.206   7.923   0.285  0.1864 -0.5773 -0.5928
   19CHTO   H55 7924   5.149   7.834   0.254 -1.9773  0.1233  1.2674
   19CHTO    N5 7925   5.283   7.972   0.169  0.1323  0.2350 -0.3721
   19CHTO   H43 7926   5.235   8.059   0.128 -0.6629 -0.2533 -0.4741
   19CHTO   H44 7927   5.300   7.904   0.087  2.5388  1.4981 -0.9744
   19CHTO   C25 7928   5.306   7.896   0.410  0.4555  0.0127 -0.4655
   19CHTO   H53 7929   5.358   7.987   0.445 -0.5355  0.5010 -0.2455
   19CHTO   O17 7930   5.241   7.852   0.531 -0.0139 -0.1107 -0.5035
   19CHTO   C32 7931   5.135   7.938   0.577  0.0653  0.3414  0.1987
   19CHTO   H60 7932   5.184   8.033   0.594  0.4939 -0.0293  1.0822
   19CHTO   C36 7933   5.091   7.888   0.721  0.3312 -0.8198  0.3614
   19CHTO   O25 7934   5.021   7.983   0.803  0.3103  0.4383 -0.2512
   19CHTO   H40 7935   4.999   7.948   0.887  2.0410 -2.1577 -0.8265
   19CHTO   O15 7936   5.413   7.772   0.368 -0.6835 -0.2529  0.5976
   19CHTO   C19 7937   5.469   7.658   0.292  0.4522  0.1317  0.1053
   19CHTO   H47 7938   5.436   7.676   0.188 -2.3005 -1.8700  0.5816
   19CHTO   C20 7939   5.620   7.665   0.271  1.1207  0.1304  0.5815
   19CHTO   H48 7940   5.672   7.655   0.367  0.7224  0.1837  0.8028
   19CHTO   O19 7941   5.642   7.794   0.217 -0.0142  0.4999  0.3775
   19CHTO   H35 7942   5.735   7.806   0.207  0.2890 -1.0030  1.1868
   19CHTO   C21 7943   5.667   7.554   0.165  0.4646 -0.0174 -0.0939
   19CHTO   H49 7944   5.633   7.589   0.068  0.3600  1.9877  0.6342
   19CHTO    N4 7945   5.816   7.558   0.153  0.8238 -0.3424  0.0656
   19CHTO   H41 7946   5.838   7.637   0.083 -3.5239 -0.6003 -1.7113
   19CHTO   H42 7947   5.859   7.578   0.250  1.0603 -2.4362  0.4310
   19CHTO   C22 7948   5.615   7.417   0.210  0.8919 -0.1518  0.1697
   19CHTO   H50 7949   5.664   7.383   0.301 -0.4381  1.2494  1.4548
   19CHTO   O14 7950   5.472   7.420   0.231 -0.0449 -0.6485 -0.8808
   19CHTO   C23 7951   5.427   7.509   0.334  0.2181  0.5722  0.0037
   19CHTO   H51 7952   5.467   7.480   0.432  0.3806 -1.0613 -0.5340
   19CHTO   C34 7953   5.273   7.497   0.350 -0.4517  0.5785 -0.1098
   19CHTO   O23 7954   5.238   7.363   0.392 -0.0327  0.2559 -0.1164
   19CHTO   H38 7955   5.162   7.336   0.344  1.1869 -0.1904 -1.8612
   19CHTO   O16 7956   5.625   7.319   0.102 -0.0593 -0.2511  0.4356
   19CHTO   C24 7957   5.704   7.202   0.120 -0.0523  0.3260 -0.1656
   19CHTO   H52 7958   5.792   7.219   0.183 -1.4132 -1.3093  2.2229
   19CHTO   C26 7959   5.755   7.165  -0.018  0.3770 -0.1801 -0.0451
   19CHTO   H54 7960   5.671   7.168  -0.090 -0.9536 -1.1093  1.4483
   19CHTO   O20 7961   5.853   7.262  -0.065 -0.1023 -0.2746 -0.1646
   19CHTO   H36 7962   5.939   7.236  -0.038  0.7421  0.9731 -1.6229
   19CHTO   C30 7963   5.814   7.014  -0.014  0.5609  0.0706 -0.3289
   19CHTO   H58 7964   5.907   7.011   0.044  0.9060 -0.8747 -0.9211
   19CHTO    N6 7965   5.842   6.968  -0.151  0.0707 -0.2724  0.2804
   19CHTO   H45 7966   5.947   6.960  -0.172  0.1014  0.1637  0.2680
   19CHTO   H46 7967   5.794   6.873  -0.168 -0.7156  0.2660 -0.5945
   19CHTO   C33 7968   5.706   6.914   0.052  0.0213  0.5471  0.8225
   19CHTO   H61 7969   5.608   6.917   0.003 -0.6270 -0.6760  1.9985
   19CHTO   O18 7970   5.673   6.955   0.181 -0.8484 -0.2027  0.4567
   19CHTO   C28 7971   5.614   7.085   0.185 -0.0448  0.6862  0.0283
   19CHTO   H56 7972   5.518   7.073   0.135  1.3696 -2.7979 -2.0156
   19CHTO   C35 7973   5.586   7.112   0.335 -0.6512  0.1551  0.4753
   19CHTO   O24 7974   5.513   7.006   0.393  0.5367  0.4723 -0.6760
   19CHTO   H39 7975   5.432   7.036   0.430  0.5925 -0.1943  0.0156
   19CHTO    O9 7976   5.742   6.775   0.051 -0.4434  0.4876 -0.1302
   19CHTO   C13 7977   5.606   6.669   0.002  0.0459 -0.4966 -0.3284
   19CHTO   H26 7978   5.586   6.696  -0.104  0.1952  0.1352 -0.1959
   19CHTO   C11 7979   5.473   6.689   0.097  0.2172 -0.2224 -0.4332
   19CHTO   H24 7980   5.428   6.784   0.067 -0.1658  0.3309  1.7859
   19CHTO    O8 7981   5.526   6.695   0.230  0.9339 -0.5908  0.2081
   19CHTO    H3 7982   5.562   6.779   0.247  0.0027 -0.4558  1.6359
   19CHTO    C9 7983   5.373   6.573   0.068  0.5475  0.9135  0.4196
   19CHTO   H22 7984   5.342   6.579  -0.038  1.5007  0.3172  0.1020
   19CHTO    N2 7985   5.247   6.598   0.142  0.6080 -0.0635 -0.2735
   19CHTO   H10 7986   5.230   6.704   0.151  0.1704 -0.0645 -1.0434
   19CHTO   H11 7987   5.167   6.562   0.079 -2.2267  2.7602  1.5640
   19CHTO    C7 7988   5.440   6.432   0.089  0.4684 -0.3594  0.4496
   19CHTO   H20 7989   5.413   6.373  -0.001  0.3949  0.9484 -0.4090
   19CHTO    O4 7990   5.581   6.441   0.106 -0.0258  0.0375 -0.2909
   19CHTO   C14 7991   5.647   6.507  -0.003  0.5244 -0.7276 -0.4892
   19CHTO   H27 7992   5.611   6.458  -0.096  0.9427 -1.7113 -0.1365
   19CHTO   C18 7993   5.794   6.497  -0.009 -0.4129 -0.1066  0.6023
   19CHTO   O13 7994   5.853   6.369  -0.031  0.2210  0.7392  0.2842
   19CHTO    H7 7995   5.844   6.333  -0.117  0.2133 -3.5460  1.9767
   19CHTO    O2 7996   5.361   6.340   0.221 -0.0694 -0.0577  0.6506
   19CHTO    C1 7997   5.305   6.216   0.174  0.2018  0.2804  0.0305
   19CHTO   H14 7998   5.375   6.164   0.105  0.5940 -0.9783  1.3770
   19CHTO    C2 7999   5.169   6.239   0.093 -0.7613  0.3632  0.2514
   19CHTO   H15 8000   5.101   6.294   0.160  0.4778  2.5450 -0.2273
   19CHTO    O6 8001   5.190   6.311  -0.029  0.4256  0.0983  0.3372
   19CHTO    H1 8002   5.112   6.362  -0.041 -0.5915 -1.5330 -0.0789
   19CHTO    C3 8003   5.107   6.091   0.065 -0.1511  0.2588  0.4745
   19CHTO   H16 8004   5.179   6.031   0.008  1.3666 -0.5925  3.2020
   19CHTO    N1 8005   4.974   6.081  -0.005 -0.7847  0.0031  0.1760
   19CHTO    H8 8006   4.932   6.170  -0.049  1.0775  1.0075  0.3897
   19CHTO    H9 8007   4.977   6.005  -0.082  1.3012 -0.2173  0.4439
   19CHTO    C4 8008   5.102   6.011   0.203  0.5381  0.0487 -0.2118
   19CHTO   H17 8009   5.043   6.068   0.275  1.8535  0.5924  0.4603
   19CHTO    O1 8010   5.234   6.002   0.273  0.0332  0.6571  0.5350
   19CHTO    C5 8011   5.287   6.134   0.302 -0.2341 -0.4409 -0.6879
   19CHTO   H18 8012   5.223   6.187   0.372  1.1138  1.9607 -1.1952
   19CHTO   C16 8013   5.427   6.112   0.371  0.5091  0.1146 -0.1157
   19CHTO   O11 8014   5.513   6.058   0.274  0.0350 -0.0786 -0.2935
   19CHTO    H5 8015   5.592   6.049   0.324 -0.1987  0.9641  0.2885
   19CHTO    O3 8016   5.047   5.874   0.193 -0.8651  0.6112 -0.5415
   19CHTO    C6 8017   4.935   5.839   0.281  0.1352  0.4479 -0.3533
   19CHTO   H19 8018   4.930   5.912   0.362 -2.1658 -1.5641  1.3598
   19CHTO    C8 8019   4.792   5.835   0.225 -0.4916  0.2296  0.2712
   19CHTO   H21 8020   4.787   5.781   0.131 -1.4124  2.4264 -0.9631
   19CHTO    O7 8021   4.755   5.973   0.194 -0.2725  1.0077  0.7166
   19CHTO    H2 8022   4.693   5.973   0.124  0.2795 -2.0398  0.1824
   19CHTO   C12 8023   4.684   5.776   0.325 -0.5463 -0.2038 -0.0044
   19CHTO   H25 8024   4.661   5.846   0.408 -1.6890 -1.6161  0.9082
   19CHTO    N3 8025   4.550   5.753   0.256 -0.3759 -0.6130  0.2564
   19CHTO   H12 8026   4.532   5.833   0.185 -1.4253 -2.0840 -1.1965
   19CHTO   H13 8027   4.466   5.748   0.324 -0.0586 -1.2080  0.6004
   19CHTO   C15 8028   4.742   5.650   0.388 -0.0644 -0.1876  0.2145
   19CHTO   H28 8029   4.750   5.580   0.305 -0.2696 -1.7421  1.4842
   19CHTO   O10 8030   4.662   5.586   0.521 -0.1541  0.1191  0.3390
   19CHTO    H4 8031   4.631   5.498   0.514 -0.3528  0.1805  0.4324
   19CHTO    O5 8032   4.876   5.671   0.446  0.1380 -0.8699  0.7625
   19CHTO   C10 8033   4.974   5.705   0.347  0.8758 -0.3427  0.8427
   19CHTO   H23 8034   4.971   5.631   0.268 -0.0156 -0.0911  0.6274
   19CHTO   C17 8035   5.111   5.714   0.416 -0.4939 -0.4429 -0.1489
   19CHTO   O12 8036   5.175   5.584   0.434 -0.0196  0.4936  0.6905
   19CHTO    H6 8037   5.117   5.513   0.451 -1.3691  1.2582 -0.5827
   20CHTO  H203 8038   4.926   0.928   2.174 -0.9281  1.0373  1.6039
   20CHTO   O82 8039   4.999   0.987   2.176  0.0439 -0.1135  0.4108
   20CHTO  C123 8040   4.985   1.085   2.077  0.2932  0.2704 -0.1927
   20CHTO  H227 8041   4.916   1.163   2.113  0.6619  0.0919  0.9207
   20CHTO   O77 8042   5.123   1.132   2.061  0.4435  0.5493 -0.9991
   20CHTO  C118 8043   5.143   1.245   1.971  0.3598  0.3848  0.5666
   20CHTO  H222 8044   5.077   1.328   1.999 -2.2942 -0.5407 -2.5752
   20CHTO  C125 8045   5.290   1.291   1.984 -0.3743  0.0055  0.3853
   20CHTO   O84 8046   5.294   1.422   2.037  0.7268 -0.2934 -0.0210
   20CHTO  H205 8047   5.273   1.425   2.128  3.1601 -1.5590  0.6168
   20CHTO  C114 8048   5.095   1.207   1.835  0.5399  0.2462  0.4148
   20CHTO  H218 8049   5.152   1.121   1.799 -1.5584 -0.6950 -0.7211
   20CHTO  C116 8050   4.945   1.159   1.838 -0.0774  0.8635  0.5929
   20CHTO  H220 8051   4.874   1.240   1.864 -0.0342  1.3230 -0.6935
   20CHTO   O79 8052   4.913   1.122   1.705 -0.7297 -0.0045  1.0945
   20CHTO  H201 8053   4.824   1.100   1.684 -0.7138  1.2850 -0.4343
   20CHTO  C120 8054   4.929   1.039   1.937 -0.0132  0.2808  0.4496
   20CHTO  H224 8055   4.989   0.957   1.894 -0.3865 -0.4415  1.2755
   20CHTO   N21 8056   4.790   0.991   1.939  0.2179 -0.2939 -0.1273
   20CHTO  H211 8057   4.737   1.044   2.017  2.5744  1.5522  0.2560
   20CHTO  H212 8058   4.814   0.890   1.970 -0.4376 -0.2370  0.6090
   20CHTO   O75 8059   5.116   1.317   1.752  0.8875  0.3071 -0.4055
   20CHTO  C112 8060   5.263   1.318   1.634  0.4322  0.5346 -0.1830
   20CHTO  H216 8061   5.318   1.223   1.644  0.4810  0.4148 -1.4387
   20CHTO   O73 8062   5.348   1.427   1.680 -0.1632  0.7216  0.0530
   20CHTO  C113 8063   5.478   1.452   1.625  0.5791  0.0462 -0.1857
   20CHTO  H217 8064   5.548   1.366   1.623 -0.2662 -0.6304 -0.9948
   20CHTO  C124 8065   5.545   1.561   1.705  0.5435 -0.0516  0.7903
   20CHTO   O83 8066   5.674   1.596   1.651  0.0215 -0.2441 -0.4499
   20CHTO  H204 8067   5.696   1.672   1.701  1.8426 -1.9145  1.3491
   20CHTO  C109 8068   5.461   1.477   1.472 -0.2142 -0.1124 -0.0594
   20CHTO  H213 8069   5.421   1.579   1.463 -0.9235 -0.3223  0.5525
   20CHTO  C110 8070   5.355   1.375   1.403  0.1699 -0.8132 -0.1122
   20CHTO  H214 8071   5.405   1.280   1.380  1.8333  0.3932 -1.6381
   20CHTO   O78 8072   5.318   1.434   1.281 -1.1846  0.0413  0.0689
   20CHTO  H200 8073   5.263   1.509   1.296  0.9715  1.2990  1.9093
   20CHTO  C111 8074   5.230   1.345   1.487  0.6993  0.1116 -0.0934
   20CHTO  H215 8075   5.171   1.437   1.487 -1.6685 -1.2702 -3.2085
   20CHTO   N19 8076   5.141   1.243   1.439 -0.7947  0.7965 -0.1936
   20CHTO  H207 8077   5.051   1.243   1.498 -0.1912  0.7463  0.7469
   20CHTO  H208 8078   5.136   1.250   1.332  0.1542 -2.5726 -0.5227
   20CHTO   O74 8079   5.592   1.478   1.401  0.3373  0.4896  0.2480
   20CHTO  C115 8080   5.621   1.630   1.336 -0.6442 -0.0869 -0.5155
   20CHTO  H219 8081   5.548   1.703   1.370 -0.6328  0.7957 -2.3510
   20CHTO   O76 8082   5.777   1.698   1.379 -0.2887 -0.0319  0.1029
   20CHTO  C122 8083   5.881   1.634   1.313  0.1904 -0.1523 -0.2166
   20CHTO  H226 8084   5.877   1.525   1.323  0.8131 -0.2287 -0.7253
   20CHTO  C126 8085   6.022   1.684   1.386  0.7574 -0.4403 -0.1928
   20CHTO   O85 8086   6.045   1.622   1.516 -0.4358 -0.1523 -0.5585
   20CHTO  H206 8087   6.000   1.665   1.586 -1.9162  0.8067 -2.0943
   20CHTO  C121 8088   5.875   1.665   1.161  0.1510 -0.7572  1.7183
   20CHTO  H225 8089   5.940   1.753   1.143  0.1134 -0.8629  1.0454
   20CHTO   O81 8090   5.920   1.546   1.093  0.3011 -0.1232  0.4734
   20CHTO  H202 8091   6.011   1.527   1.106  0.3673 -0.3545 -0.3215
   20CHTO  C119 8092   5.731   1.709   1.120 -0.6290 -0.1453 -0.2021
   20CHTO  H223 8093   5.724   1.807   1.167 -3.2297 -0.7580  0.7675
   20CHTO  C117 8094   5.617   1.618   1.179  0.2583 -0.0804 -0.2933
   20CHTO  H221 8095   5.627   1.510   1.163  0.3687 -0.3355  1.4897
   20CHTO   N20 8096   5.481   1.654   1.133  0.3706 -0.3365  0.6449
   20CHTO  H209 8097   5.473   1.631   1.028 -2.0442 -0.4171  0.8239
   20CHTO  H210 8098   5.478   1.762   1.142  1.4114 -0.0209 -2.1815
   20CHTO   O80 8099   5.711   1.751   0.962 -0.6617 -0.2577  0.3786
   20CHTO  C103 8100   5.798   1.855   0.901  0.3488 -0.3855 -0.3744
   20CHTO  H190 8101   5.849   1.904   0.984  1.3182 -3.2293  0.7852
   20CHTO  C101 8102   5.893   1.800   0.788 -0.2924 -0.0251 -0.2200
   20CHTO  H188 8103   5.837   1.756   0.706 -0.2816  1.1046 -0.8528
   20CHTO   O68 8104   5.985   1.686   0.837  0.6593  0.0483 -0.1118
   20CHTO  H168 8105   5.919   1.619   0.840  0.9224 -0.2211 -0.2405
   20CHTO   C99 8106   5.968   1.928   0.716  0.1466 -0.1217 -0.5570
   20CHTO  H186 8107   6.032   1.979   0.792  1.8496 -4.1574  0.8480
   20CHTO   N17 8108   6.061   1.880   0.606 -0.4268  0.1564  0.1133
   20CHTO  H174 8109   6.130   1.962   0.594 -0.7321  0.1811 -1.4706
   20CHTO  H175 8110   6.008   1.860   0.515 -0.4533  0.8819 -0.0334
   20CHTO   C97 8111   5.859   2.031   0.673 -0.3466  0.3867  0.5697
   20CHTO  H184 8112   5.802   1.974   0.598  2.5861  0.4017 -1.7782
   20CHTO   O64 8113   5.777   2.075   0.784  0.4593  0.2729 -0.4570
   20CHTO  C104 8114   5.704   1.966   0.839  0.4574 -0.4532  0.1438
   20CHTO  H191 8115   5.641   1.919   0.764 -0.2569 -0.5711  0.8185
   20CHTO  C108 8116   5.606   2.023   0.947 -0.1597 -0.2292  0.3657
   20CHTO   O71 8117   5.661   2.102   1.047  0.1997  0.1493  0.0427
   20CHTO  H171 8118   5.705   2.048   1.110  0.5289  1.1072  0.6357
   20CHTO   O62 8119   5.925   2.143   0.614 -0.4282  0.0181  0.3233
   20CHTO   C91 8120   5.851   2.213   0.512  0.1185 -0.2204 -0.3476
   20CHTO  H178 8121   5.745   2.192   0.524 -0.0485  0.5875 -0.3543
   20CHTO   C92 8122   5.896   2.153   0.374 -0.5636  0.1279  0.3379
   20CHTO  H179 8123   6.006   2.150   0.362 -0.5812  1.3546 -0.1557
   20CHTO   O66 8124   5.867   2.010   0.379 -0.1699  0.1300 -0.4162
   20CHTO  H166 8125   5.916   1.964   0.444 -0.6735 -0.3529 -0.3774
   20CHTO   C93 8126   5.842   2.227   0.248  0.8357  0.2202  0.0859
   20CHTO  H180 8127   5.746   2.180   0.225  1.5573 -0.5383 -1.4139
   20CHTO   N16 8128   5.916   2.198   0.119 -0.1959  0.7078  0.0660
   20CHTO  H172 8129   5.849   2.183   0.036 -1.3821  0.8807  0.9826
   20CHTO  H173 8130   5.990   2.120   0.125  1.6817  2.4372  0.0514
   20CHTO   C94 8131   5.836   2.387   0.254 -0.1301  0.8464 -0.0131
   20CHTO  H181 8132   5.926   2.437   0.219 -0.9732  1.0145 -1.9774
   20CHTO   O61 8133   5.806   2.419   0.387 -0.1690 -0.1465  0.3931
   20CHTO   C95 8134   5.875   2.369   0.501 -0.2426  0.0366 -0.3029
   20CHTO  H182 8135   5.981   2.391   0.491  0.1023 -1.1671  0.5823
   20CHTO  C106 8136   5.821   2.449   0.621 -0.1409  0.0657 -0.1165
   20CHTO   O69 8137   5.917   2.438   0.724  0.0814  0.3021  0.3884
   20CHTO  H169 8138   5.901   2.502   0.791 -1.2086  0.0585  0.3276
   20CHTO   O63 8139   5.714   2.442   0.173 -0.3669  0.4921  0.8135
   20CHTO   C96 8140   5.738   2.579   0.090  0.0398  0.8893 -0.1411
   20CHTO  H183 8141   5.651   2.586   0.025 -0.2380 -0.3775  0.0778
   20CHTO   C98 8142   5.859   2.584  -0.000  0.0251  0.2632  0.5250
   20CHTO  H185 8143   5.950   2.576   0.061  0.7520  1.6353 -0.3564
   20CHTO   O67 8144   5.862   2.464  -0.086  0.2443 -0.5964  0.0750
   20CHTO  H167 8145   5.927   2.481  -0.151 -0.6511  1.4063 -0.3410
   20CHTO  C102 8146   5.869   2.718  -0.084 -0.3916 -0.6697  0.6385
   20CHTO  H189 8147   5.793   2.714  -0.163  0.3374 -1.3339 -0.0389
   20CHTO   N18 8148   5.995   2.737  -0.153  0.0772  0.2199 -0.3681
   20CHTO  H176 8149   6.009   2.841  -0.178 -1.2993  0.4455 -0.2196
   20CHTO  H177 8150   6.087   2.707  -0.103  0.1958  1.1745  0.0030
   20CHTO  C105 8151   5.837   2.852  -0.002  0.7312  0.4364 -0.1662
   20CHTO  H192 8152   5.929   2.883   0.048 -0.2673  0.8870  1.4293
   20CHTO   O65 8153   5.741   2.830   0.100 -0.7541 -0.2354  0.0394
   20CHTO  C100 8154   5.743   2.707   0.178  0.0485  0.2218  0.4571
   20CHTO  H187 8155   5.834   2.700   0.238 -0.6297 -0.1923  1.4522
   20CHTO  C107 8156   5.619   2.706   0.275 -0.4108  1.0788  0.8135
   20CHTO   O70 8157   5.635   2.775   0.400 -0.1926  0.2613 -0.2082
   20CHTO  H170 8158   5.584   2.728   0.463  2.2510 -0.5696  1.2372
   20CHTO   O57 8159   5.774   2.968  -0.121 -0.4326 -0.0817 -0.1918
   20CHTO   C85 8160   5.799   3.107  -0.110 -0.5362  0.1374 -0.2490
   20CHTO  H157 8161   5.800   3.130  -0.001  1.7728  2.0111 -0.6274
   20CHTO   C83 8162   5.677   3.178  -0.182  0.2584  1.0430  0.1014
   20CHTO  H155 8163   5.586   3.146  -0.131  2.0290  0.3117  2.8851
   20CHTO   O56 8164   5.663   3.135  -0.320  0.0021 -0.1818 -0.2843
   20CHTO  H135 8165   5.695   3.048  -0.338  1.4038  0.3949 -0.6054
   20CHTO   C81 8166   5.695   3.330  -0.165  0.0134 -0.3999 -0.0935
   20CHTO  H153 8167   5.712   3.358  -0.061 -1.7192  0.4922 -0.0293
   20CHTO   N14 8168   5.579   3.415  -0.199 -0.7817  0.3965 -0.7781
   20CHTO  H141 8169   5.493   3.351  -0.203  1.4166 -2.5659 -2.7195
   20CHTO  H142 8170   5.569   3.493  -0.127 -0.5600 -1.2315  1.0748
   20CHTO   C79 8171   5.818   3.372  -0.252 -0.0436 -0.7040  0.6338
   20CHTO  H151 8172   5.837   3.479  -0.242  2.1002 -0.9239 -0.8223
   20CHTO   O52 8173   5.932   3.295  -0.188 -0.2638 -0.1188 -0.4666
   20CHTO   C86 8174   5.928   3.156  -0.181 -0.6090 -0.7170  0.2514
   20CHTO  H158 8175   5.932   3.123  -0.287  2.4414  0.7153 -0.1435
   20CHTO   C90 8176   6.052   3.106  -0.111 -0.1523  0.6045 -0.1956
   20CHTO   O60 8177   6.165   3.121  -0.187 -0.2894  0.5147 -0.1971
   20CHTO  H138 8178   6.228   3.065  -0.148 -0.4082  0.5817  0.0954
   20CHTO   O50 8179   5.814   3.350  -0.400  0.2743  0.1711 -0.5596
   20CHTO   C73 8180   5.888   3.360  -0.525 -0.0926  0.1741 -0.0124
   20CHTO  H145 8181   5.996   3.352  -0.507 -0.1992  1.4627  1.3018
   20CHTO   C74 8182   5.857   3.498  -0.576  0.5822  0.1612  0.3764
   20CHTO  H146 8183   5.894   3.578  -0.511  0.4659  0.5544 -0.0395
   20CHTO   O54 8184   5.933   3.533  -0.695  0.4520 -0.1701 -0.3280
   20CHTO  H133 8185   5.897   3.485  -0.766 -0.5696 -1.9534  1.3414
   20CHTO   C75 8186   5.694   3.507  -0.599 -0.3331 -0.0235  0.0587
   20CHTO  H147 8187   5.647   3.498  -0.500  0.9175  1.8289  0.8419
   20CHTO   N13 8188   5.641   3.632  -0.649 -0.6812 -0.2705 -0.1215
   20CHTO  H139 8189   5.608   3.692  -0.566 -1.4483 -2.4890  1.2127
   20CHTO  H140 8190   5.723   3.681  -0.699 -1.2398 -0.0654 -0.8405
   20CHTO   C76 8191   5.646   3.385  -0.693 -0.2976  0.3840  0.5964
   20CHTO  H148 8192   5.680   3.381  -0.796  1.4716 -0.6233  1.1971
   20CHTO   O49 8193   5.696   3.252  -0.645 -0.3698 -0.0572 -0.5881
   20CHTO   C77 8194   5.839   3.250  -0.634 -0.7926 -0.0484 -0.4341
   20CHTO  H149 8195   5.884   3.277  -0.730  0.8743 -0.2020  0.3029
   20CHTO   C88 8196   5.884   3.114  -0.600  0.4557  0.0327  0.7833
   20CHTO   O58 8197   5.856   3.020  -0.698  0.1614 -0.1904 -0.5631
   20CHTO  H136 8198   5.854   3.061  -0.782 -0.9500  0.9066 -0.0278
   20CHTO   O51 8199   5.485   3.375  -0.707 -0.4141  0.1101 -0.2731
   20CHTO   C78 8200   5.412   3.312  -0.570  0.0357 -0.3310  0.6398
   20CHTO  H150 8201   5.484   3.316  -0.485 -0.6383  1.5534  1.1285
   20CHTO   C80 8202   5.363   3.167  -0.591 -0.5592  0.6326  0.4793
   20CHTO  H152 8203   5.294   3.157  -0.678  1.7781 -3.7929 -1.0425
   20CHTO   O55 8204   5.483   3.093  -0.633 -0.0414 -0.1939  0.6231
   20CHTO  H134 8205   5.510   3.037  -0.564 -1.5354 -2.2244 -0.3671
   20CHTO   C84 8206   5.300   3.114  -0.452  0.7184 -0.6758  0.1591
   20CHTO  H156 8207   5.386   3.102  -0.386  0.5840 -1.8210  0.1422
   20CHTO   N15 8208   5.247   2.978  -0.471  0.2267  0.0964  0.4543
   20CHTO  H143 8209   5.187   2.946  -0.389 -0.8503 -3.0521 -1.4747
   20CHTO  H144 8210   5.191   2.968  -0.562  0.7250 -1.4985  0.3089
   20CHTO   C87 8211   5.196   3.209  -0.395  0.2672  0.0958 -0.1541
   20CHTO  H159 8212   5.098   3.208  -0.443  0.3308  0.7470 -0.3021
   20CHTO   O53 8213   5.246   3.344  -0.396 -0.1840 -0.5258  0.1577
   20CHTO   C82 8214   5.290   3.390  -0.528 -0.3053  0.3524 -0.4284
   20CHTO  H154 8215   5.208   3.369  -0.597 -0.4913  1.1204 -0.4452
   20CHTO   C89 8216   5.305   3.551  -0.529 -0.5135  0.2289  0.1882
   20CHTO   O59 8217   5.170   3.608  -0.525  0.1395 -0.5402  0.2498
   20CHTO  H137 8218   5.149   3.651  -0.445 -0.5689 -0.4452  0.0222
   20CHTO   O45 8219   5.164   3.186  -0.223  0.2665 -0.4073 -0.6519
   20CHTO   C67 8220   5.272   3.132  -0.136  0.2447 -0.5422 -0.3226
   20CHTO  H124 8221   5.365   3.127  -0.192 -1.4619  1.1303 -3.4044
   20CHTO   C65 8222   5.296   3.223  -0.009  0.5135  0.2176 -0.0451
   20CHTO  H122 8223   5.305   3.327  -0.041 -0.0788  0.2374 -0.1470
   20CHTO   O44 8224   5.417   3.192   0.059 -0.2121 -0.1364  0.5568
   20CHTO  H102 8225   5.454   3.272   0.090 -1.4739  0.9665 -0.7109
   20CHTO   C63 8226   5.173   3.224   0.094  0.4868 -0.2338 -0.4299
   20CHTO  H120 8227   5.086   3.237   0.030 -1.3967  2.3284  2.5321
   20CHTO   N11 8228   5.171   3.337   0.194  0.1268 -0.4943  0.5275
   20CHTO  H108 8229   5.077   3.388   0.192  0.1252 -0.3650  2.5932
   20CHTO  H109 8230   5.201   3.319   0.295  0.1622 -0.2369  0.5649
   20CHTO   C61 8231   5.139   3.074   0.134  0.1357  0.3814 -0.4458
   20CHTO  H118 8232   5.041   3.080   0.182  1.4668  3.5435  2.0737
   20CHTO   O40 8233   5.129   2.970   0.019 -0.3571  0.1971  0.0497
   20CHTO   C68 8234   5.227   2.973  -0.093  0.4007 -0.6772 -0.3106
   20CHTO  H125 8235   5.181   2.940  -0.188 -1.0199  4.1858 -1.4570
   20CHTO   C72 8236   5.343   2.870  -0.058  0.1322  0.7660  0.7813
   20CHTO   O48 8237   5.439   2.843  -0.164 -0.0850 -0.2313  0.2932
   20CHTO  H105 8238   5.522   2.834  -0.120 -0.5382  0.3995  1.3012
   20CHTO   O38 8239   5.239   3.028   0.224  0.8159 -0.2744 -0.3454
   20CHTO   C55 8240   5.186   2.968   0.343 -0.1214  0.3116 -0.2889
   20CHTO  H112 8241   5.078   2.967   0.361 -0.0017  0.3837  0.4317
   20CHTO   C56 8242   5.263   3.022   0.472  0.8450 -0.5171  0.3088
   20CHTO  H113 8243   5.371   3.014   0.454  1.1034  1.8713  0.6307
   20CHTO   O42 8244   5.239   3.156   0.473 -0.9846  0.5466  0.3502
   20CHTO  H100 8245   5.289   3.202   0.407  0.1133 -1.3884 -0.1869
   20CHTO   C57 8246   5.206   2.962   0.603 -0.4790  0.2453 -0.3784
   20CHTO  H114 8247   5.101   2.986   0.588 -0.3477  1.4775  0.5467
   20CHTO   N10 8248   5.256   3.011   0.736 -0.0765  0.0975  0.3867
   20CHTO  H106 8249   5.213   3.108   0.759  0.4741 -0.0933  2.3221
   20CHTO  H107 8250   5.228   2.944   0.816 -2.7125  1.7928  0.9340
   20CHTO   C58 8251   5.221   2.806   0.589  0.0875 -0.2557 -0.3904
   20CHTO  H115 8252   5.328   2.776   0.587  0.4951  1.2080 -1.3593
   20CHTO   O37 8253   5.157   2.753   0.471 -0.0551 -0.4826 -0.7115
   20CHTO   C59 8254   5.224   2.817   0.356 -0.0544  0.1304  0.3113
   20CHTO  H116 8255   5.329   2.788   0.356 -0.2142 -0.4704 -0.3328
   20CHTO   C70 8256   5.164   2.723   0.245 -0.7600 -0.5927 -0.3989
   20CHTO   O46 8257   5.214   2.589   0.247  0.0668  0.2199  0.2175
   20CHTO  H103 8258   5.180   2.542   0.320 -1.3506  0.4316 -0.2883
   20CHTO   O39 8259   5.141   2.721   0.713 -0.0516  0.5073  0.0255
   20CHTO   C60 8260   5.189   2.590   0.733  0.2275 -0.2679 -1.0754
   20CHTO  H117 8261   5.260   2.565   0.654  0.9274  2.7846 -1.4834
   20CHTO   C62 8262   5.266   2.572   0.865  0.1781 -0.6361  0.5880
   20CHTO  H119 8263   5.335   2.657   0.882  0.6592 -0.7757 -0.5984
   20CHTO   O43 8264   5.165   2.594   0.966 -0.1296  0.8194  0.1061
   20CHTO  H101 8265   5.188   2.579   1.056  0.0200 -0.7343 -0.1659
   20CHTO   C66 8266   5.338   2.432   0.870 -0.6873 -0.3923  0.6341
   20CHTO  H123 8267   5.393   2.421   0.777  1.0344 -1.7657  1.7799
   20CHTO   N12 8268   5.429   2.411   0.984  0.5819 -0.4501 -0.1573
   20CHTO  H110 8269   5.370   2.417   1.074 -3.5255 -1.1101 -2.6736
   20CHTO  H111 8270   5.503   2.489   0.978  0.3002 -0.0369  1.4424
   20CHTO   C69 8271   5.234   2.309   0.863  0.0001 -0.0352  0.0706
   20CHTO  H126 8272   5.166   2.299   0.950 -1.4468 -0.6577 -1.0938
   20CHTO   O41 8273   5.139   2.320   0.746 -0.1660  0.3585 -0.5983
   20CHTO   C64 8274   5.073   2.477   0.739  0.4954  0.0589 -0.2733
   20CHTO  H121 8275   5.003   2.493   0.823 -0.7507 -0.8983 -1.1134
   20CHTO   C71 8276   4.987   2.491   0.614 -0.0996 -0.0140  0.0198
   20CHTO   O47 8277   5.071   2.481   0.502 -0.2762 -0.2467  0.7328
   20CHTO  H104 8278   5.021   2.454   0.427 -0.7908 -0.1142  1.0288
   20CHTO   O34 8279   5.311   2.171   0.848 -0.4416 -0.2219  0.2068
   20CHTO   C49 8280   5.344   2.076   0.700  0.2942 -0.2743 -0.4342
   20CHTO   H91 8281   5.389   1.980   0.724  1.5470 -0.0780 -1.8907
   20CHTO   C47 8282   5.450   2.150   0.606 -0.0308  1.2822  0.6059
   20CHTO   H89 8283   5.488   2.076   0.532 -1.3992  0.8334  0.3363
   20CHTO   O33 8284   5.559   2.205   0.683 -0.3623 -0.2431 -0.0057
   20CHTO   H70 8285   5.625   2.235   0.624  1.9785  0.3877  2.7721
   20CHTO   C45 8286   5.386   2.273   0.522 -0.4945  0.2466  0.2489
   20CHTO   H87 8287   5.346   2.346   0.594 -1.1845 -0.5412  0.6798
   20CHTO    N8 8288   5.479   2.342   0.437 -0.2618 -0.1945  0.3973
   20CHTO   H75 8289   5.513   2.277   0.358 -2.7315  0.0649 -0.9154
   20CHTO   H76 8290   5.557   2.379   0.503 -0.1476  0.3585 -0.0444
   20CHTO   C43 8291   5.261   2.225   0.432 -0.2054 -0.6499  0.1093
   20CHTO   H85 8292   5.222   2.320   0.395  1.3952 -0.1363 -0.3307
   20CHTO   O29 8293   5.173   2.162   0.523 -0.2005 -0.2131  0.0499
   20CHTO   C50 8294   5.218   2.058   0.619 -0.5714  0.0513  0.3700
   20CHTO   H92 8295   5.140   2.040   0.694 -0.9139  1.7460  0.4322
   20CHTO   C54 8296   5.222   1.927   0.544 -0.6641 -0.4351  0.4499
   20CHTO   O36 8297   5.116   1.896   0.462  0.4573  0.2408 -0.2741
   20CHTO   H72 8298   5.079   1.975   0.428  0.5305  0.0214 -0.8647
   20CHTO   O27 8299   5.303   2.137   0.329 -0.0236  1.0773 -0.4818
   20CHTO   C37 8300   5.305   2.093   0.193 -0.2906  0.1248  0.7543
   20CHTO   H79 8301   5.242   2.004   0.174  0.0992  0.5724 -3.1895
   20CHTO   C38 8302   5.260   2.213   0.097 -0.1892 -0.2333  0.1140
   20CHTO   H80 8303   5.318   2.303   0.125  0.6908 -0.4038 -1.1464
   20CHTO   O31 8304   5.126   2.234   0.141 -0.4291  0.3323  0.2400
   20CHTO   H68 8305   5.091   2.296   0.081 -0.7299  0.6354  0.7261
   20CHTO   C39 8306   5.287   2.188  -0.056 -0.5845  0.0651 -0.2077
   20CHTO   H81 8307   5.227   2.099  -0.077 -0.5883 -0.0148  0.1445
   20CHTO    N7 8308   5.252   2.308  -0.142 -0.5993 -0.7877  0.1654
   20CHTO   H73 8309   5.293   2.404  -0.116  0.8567 -1.0739 -1.0201
   20CHTO   H74 8310   5.288   2.297  -0.243  0.4061  0.9109  0.3143
   20CHTO   C40 8311   5.438   2.137  -0.068  0.4532 -0.1023  0.2847
   20CHTO   H82 8312   5.508   2.216  -0.043  0.1728 -0.0508  0.8995
   20CHTO   O26 8313   5.455   2.021   0.017 -0.2086  0.6411  0.0382
   20CHTO   C41 8314   5.452   2.057   0.158 -0.2813  0.2399 -0.0215
   20CHTO   H83 8315   5.516   2.144   0.178 -0.9940  1.2836 -2.1415
   20CHTO   C52 8316   5.491   1.944   0.255  0.1750 -0.1906 -0.1515
   20CHTO   O35 8317   5.626   1.918   0.277  0.0758  0.4931  0.0207
   20CHTO   H71 8318   5.652   1.852   0.216 -0.3970  0.6315 -0.3356
   20CHTO   O28 8319   5.470   2.102  -0.209  0.6783  0.7300  0.2268
   20CHTO   C42 8320   5.609   2.082  -0.253  0.2053 -0.0760 -0.1460
   20CHTO   H84 8321   5.608   2.091  -0.361  3.5199  2.8085 -0.0382
   20CHTO   C44 8322   5.667   1.941  -0.217 -0.4459  0.4680  0.0732
   20CHTO   H86 8323   5.669   1.929  -0.109 -2.6529  1.3235  0.2496
   20CHTO   O32 8324   5.573   1.852  -0.287 -0.2424  0.0483  0.3108
   20CHTO   H69 8325   5.525   1.795  -0.231 -1.2088 -1.9568 -2.4052
   20CHTO   C48 8326   5.816   1.921  -0.274 -0.3236  0.6442 -0.2162
   20CHTO   H90 8327   5.799   1.932  -0.381  0.0408  0.8861 -0.2526
   20CHTO    N9 8328   5.862   1.786  -0.237  0.0127  0.6086  0.7344
   20CHTO   H77 8329   5.945   1.767  -0.303  2.1888  2.2888  2.8890
   20CHTO   H78 8330   5.899   1.768  -0.137  0.1035  1.0781  0.7855
   20CHTO   C51 8331   5.918   2.030  -0.236  0.3255 -0.2847 -0.3872
   20CHTO   H93 8332   5.949   2.025  -0.132  1.8666  4.0462 -0.5092
   20CHTO   O30 8333   5.847   2.155  -0.264  0.9871 -0.1088 -0.3482
   20CHTO   C46 8334   5.711   2.194  -0.208  0.0902  0.6678  0.4300
   20CHTO   H88 8335   5.716   2.210  -0.100  0.4960  1.1137  0.3435
   20CHTO   C53 8336   5.674   2.325  -0.271  0.3402  0.4025  0.5735
   20CHTO   O72 8337   5.621   2.327  -0.406 -0.4216 -0.0253 -0.4546
   20CHTO  H199 8338   5.630   2.417  -0.430 -2.1252 -0.0368 -1.2069
   20CHTO   O22 8339   6.033   2.038  -0.325  0.1115 -0.0495  0.3652
   20CHTO   C31 8340   6.175   2.026  -0.290 -0.0435 -0.2601  0.1052
   20CHTO   H59 8341   6.230   2.078  -0.372 -1.3039 -0.3378 -0.8147
   20CHTO   C29 8342   6.212   2.096  -0.164  1.0159 -0.0390  0.7962
   20CHTO   H57 8343   6.161   2.055  -0.076 -0.7396 -1.2939 -0.7622
   20CHTO   O21 8344   6.153   2.231  -0.172 -0.0182  0.5863 -0.5814
   20CHTO   H37 8345   6.179   2.271  -0.091  1.3555  1.3403 -1.3872
   20CHTO   C27 8346   6.370   2.085  -0.148 -0.1074  0.6613  0.7464
   20CHTO   H55 8347   6.416   2.142  -0.231 -0.6768 -0.7772 -0.5770
   20CHTO    N5 8348   6.425   2.143  -0.022  0.4408  0.4394 -0.2199
   20CHTO   H43 8349   6.532   2.152  -0.029  0.5055 -0.3493 -0.3614
   20CHTO   H44 8350   6.376   2.120   0.072  0.6671  0.4260 -0.1045
   20CHTO   C25 8351   6.416   1.936  -0.160 -0.4108 -0.0666 -0.3263
   20CHTO   H53 8352   6.378   1.873  -0.079 -1.9819 -0.3240 -1.2497
   20CHTO   O17 8353   6.366   1.876  -0.280  0.3591  0.2326 -0.5741
   20CHTO   C32 8354   6.221   1.876  -0.300  0.5146  0.3343  0.4931
   20CHTO   H60 8355   6.166   1.816  -0.227  1.5670 -0.3551  0.7310
   20CHTO   C36 8356   6.198   1.817  -0.442 -0.3798 -0.5061 -0.0257
   20CHTO   O25 8357   6.233   1.674  -0.459  0.1806 -0.7412  0.0919
   20CHTO   H40 8358   6.165   1.625  -0.418 -0.5803 -0.7260 -1.1354
   20CHTO   O15 8359   6.585   1.923  -0.160 -0.0661  0.4238  0.1650
   20CHTO   C19 8360   6.684   1.879  -0.259 -0.0874 -0.4493  0.7881
   20CHTO   H47 8361   6.620   1.896  -0.347  0.2942  2.9863  1.1068
   20CHTO   C20 8362   6.817   1.956  -0.269  0.1266  0.4451 -0.2047
   20CHTO   H48 8363   6.871   1.962  -0.173  1.1647 -0.9879 -0.6732
   20CHTO   O19 8364   6.777   2.097  -0.287  0.0784 -0.4942 -0.1782
   20CHTO   H35 8365   6.694   2.111  -0.246  0.0607  0.3987 -0.5196
   20CHTO   C21 8366   6.916   1.898  -0.380 -0.1011 -0.7102 -0.5474
   20CHTO   H49 8367   6.871   1.904  -0.479  2.3527  4.1829 -1.5341
   20CHTO    N4 8368   7.049   1.959  -0.380  0.5098 -0.5282 -0.1719
   20CHTO   H41 8369   7.111   1.925  -0.298 -2.7065  0.2575  2.7356
   20CHTO   H42 8370   7.045   2.067  -0.381 -1.8409 -0.5941 -1.4235
   20CHTO   C22 8371   6.919   1.745  -0.360  0.1241  0.1962 -0.0035
   20CHTO   H50 8372   6.972   1.725  -0.267 -2.0384 -4.8288  0.2893
   20CHTO   O14 8373   6.790   1.685  -0.353  0.2989  0.0690  0.1421
   20CHTO   C23 8374   6.708   1.728  -0.248 -0.1534  0.0503  0.1978
   20CHTO   H51 8375   6.757   1.700  -0.154  0.3872 -1.9195 -0.6311
   20CHTO   C34 8376   6.586   1.642  -0.263  0.1448  0.3721  0.1253
   20CHTO   O23 8377   6.549   1.628  -0.401  0.5338 -0.4066  0.2025
   20CHTO   H38 8378   6.576   1.542  -0.428  4.4556  0.3259  1.4733
   20CHTO   O16 8379   6.982   1.687  -0.478 -0.2335  0.3947 -0.1477
   20CHTO   C24 8380   7.032   1.544  -0.465 -0.2026 -0.0603 -0.4795
   20CHTO   H52 8381   6.989   1.488  -0.383 -0.3279  0.6146 -0.0759
   20CHTO   C26 8382   7.190   1.540  -0.444 -0.4790  0.2587 -0.4854
   20CHTO   H54 8383   7.239   1.587  -0.533  0.6077  1.1301  0.5497
   20CHTO   O20 8384   7.232   1.628  -0.337  0.0077 -0.5868  0.3077
   20CHTO   H36 8385   7.198   1.591  -0.258 -2.1819 -4.4682 -2.2985
   20CHTO   C30 8386   7.248   1.395  -0.430  0.0988  0.0317 -0.1268
   20CHTO   H58 8387   7.248   1.374  -0.322 -2.3562 -0.2029 -0.1594
   20CHTO    N6 8388   7.387   1.375  -0.482 -0.3743 -0.2237  0.2535
   20CHTO   H45 8389   7.423   1.278  -0.455  0.2054  0.5313  2.2621
   20CHTO   H46 8390   7.406   1.395  -0.587  1.5893 -0.2243  0.5898
   20CHTO   C33 8391   7.154   1.293  -0.499  0.0239  0.3251  0.6074
   20CHTO   H61 8392   7.206   1.206  -0.543  1.8580  1.4974  0.4376
   20CHTO   O18 8393   7.085   1.356  -0.605 -0.1629 -0.2551  0.4980
   20CHTO   C28 8394   6.999   1.471  -0.588  0.2464 -0.4755 -0.5928
   20CHTO   H56 8395   6.989   1.539  -0.673  1.3415  0.1171 -0.2541
   20CHTO   C35 8396   6.852   1.414  -0.581 -0.2362  0.5309 -0.1013
   20CHTO   O24 8397   6.804   1.364  -0.706 -0.6015 -0.0669 -0.0420
   20CHTO   H39 8398   6.847   1.288  -0.738 -1.3824 -0.4219 -0.2485
   20CHTO    O9 8399   7.060   1.240  -0.399  0.1305 -0.1696  0.0263
   20CHTO   C13 8400   7.079   1.087  -0.355  0.0218 -0.5323  0.1040
   20CHTO   H26 8401   7.187   1.074  -0.334 -0.0859  0.4623  1.3554
   20CHTO   C11 8402   7.031   0.996  -0.472  0.2983 -0.5097 -0.2446
   20CHTO   H24 8403   7.110   1.003  -0.549  0.6368 -3.3769 -0.1884
   20CHTO    O8 8404   6.911   1.041  -0.537  0.1384 -0.0622 -0.4310
   20CHTO    H3 8405   6.841   1.034  -0.475  0.5273 -0.5421 -0.0407
   20CHTO    C9 8406   7.005   0.852  -0.419 -0.2977 -0.2349 -0.1520
   20CHTO   H22 8407   7.097   0.817  -0.371 -1.5426  0.3056  2.7263
   20CHTO    N2 8408   7.004   0.750  -0.527  0.1126 -0.2955  0.0352
   20CHTO   H10 8409   7.030   0.789  -0.625  1.7426  0.5916  0.8052
   20CHTO   H11 8410   7.072   0.669  -0.503 -0.5297 -0.8760 -0.0696
   20CHTO    C7 8411   6.898   0.856  -0.311 -0.2620  0.2671 -0.2721
   20CHTO   H20 8412   6.929   0.768  -0.252  0.1103  0.6437  0.0944
   20CHTO    O4 8413   6.893   0.974  -0.226  0.2124 -0.2555  0.2962
   20CHTO   C14 8414   7.013   1.055  -0.218  0.3607  0.4025  0.6405
   20CHTO   H27 8415   7.091   1.009  -0.153 -0.6202 -0.0816  1.4778
   20CHTO   C18 8416   6.963   1.179  -0.141 -0.2564  0.5616  0.6322
   20CHTO   O13 8417   6.910   1.142  -0.014  0.2691  0.1827  0.5189
   20CHTO    H7 8418   6.829   1.098  -0.030 -0.1078  1.5519 -1.4477
   20CHTO    O2 8419   6.748   0.837  -0.384  1.1219  0.0548  0.3173
   20CHTO    C1 8420   6.644   0.762  -0.313  0.4409 -0.0514 -0.1546
   20CHTO   H14 8421   6.659   0.764  -0.203  1.3961  0.5485 -0.2859
   20CHTO    C2 8422   6.628   0.610  -0.345 -0.6594  0.1159 -0.8076
   20CHTO   H15 8423   6.623   0.594  -0.454  1.2792  0.0822 -0.8975
   20CHTO    O6 8424   6.745   0.535  -0.295 -0.1434  0.5334 -0.5042
   20CHTO    H1 8425   6.730   0.513  -0.205 -0.9256  2.3691 -0.1570
   20CHTO    C3 8426   6.494   0.550  -0.272  0.5466  0.0731  0.2260
   20CHTO   H16 8427   6.495   0.554  -0.162  0.0458  0.7990  0.2109
   20CHTO    N1 8428   6.477   0.406  -0.306 -0.4257  0.0531 -0.2052
   20CHTO    H8 8429   6.403   0.362  -0.241  0.3528 -1.6591 -0.4392
   20CHTO    H9 8430   6.444   0.397  -0.408 -0.9131  0.9861 -0.1356
   20CHTO    C4 8431   6.368   0.636  -0.317  0.5375  0.3924  0.2932
   20CHTO   H17 8432   6.369   0.638  -0.426  0.0832 -1.7324  0.2302
   20CHTO    O1 8433   6.388   0.777  -0.280  0.5103 -0.1339 -0.2047
   20CHTO    C5 8434   6.506   0.835  -0.338  0.1894  0.2475  0.3557
   20CHTO   H18 8435   6.498   0.849  -0.446  2.0693 -0.6237  0.0933
   20CHTO   C16 8436   6.514   0.976  -0.279 -0.5634 -0.0810 -0.2468
   20CHTO   O11 8437   6.405   1.056  -0.329  0.3459 -0.7528 -0.0335
   20CHTO    H5 8438   6.442   1.108  -0.399  2.5858  1.0211  2.3646
   20CHTO    O3 8439   6.242   0.590  -0.263  0.3734 -0.1481 -0.2547
   20CHTO    C6 8440   6.120   0.652  -0.303 -0.0649  0.7204 -0.1095
   20CHTO   H19 8441   6.132   0.747  -0.355 -1.2694  0.6532 -0.5356
   20CHTO    C8 8442   6.045   0.562  -0.411  1.2235  0.4537 -0.5096
   20CHTO   H21 8443   6.036   0.458  -0.379 -0.1211  0.8468  0.4356
   20CHTO    O7 8444   6.122   0.573  -0.530  0.0514 -0.2790  0.3215
   20CHTO    H2 8445   6.072   0.538  -0.601  1.4207 -0.1063 -0.7515
   20CHTO   C12 8446   5.894   0.617  -0.435  0.0119  0.3764 -1.2291
   20CHTO   H25 8447   5.896   0.707  -0.500 -1.9019  0.1004 -1.6845
   20CHTO    N3 8448   5.808   0.522  -0.516  0.3293 -0.0112  0.1961
   20CHTO   H12 8449   5.764   0.576  -0.600  0.4141  1.5637  1.1448
   20CHTO   H13 8450   5.734   0.478  -0.450  0.5792 -1.1897 -0.2907
   20CHTO   C15 8451   5.817   0.663  -0.303  0.0973  0.0031 -0.6155
   20CHTO   H28 8452   5.785   0.576  -0.246  0.3924  0.6952  0.6536
   20CHTO   O10 8453   5.694   0.764  -0.323  0.0444 -0.0987 -0.0721
   20CHTO    H4 8454   5.620   0.756  -0.267 -0.1748 -1.2550 -0.5051
   20CHTO    O5 8455   5.911   0.741  -0.225 -0.0915  0.0163 -0.4033
   20CHTO   C10 8456   6.030   0.676  -0.177 -0.2323  0.5049 -0.1790
   20CHTO   H23 8457   5.994   0.589  -0.123 -2.1638  1.9164  0.8424
   20CHTO   C17 8458   6.111   0.760  -0.083  0.2361  0.3513  0.0359
   20CHTO   O12 8459   6.143   0.882  -0.143  0.5007 -0.4686 -0.5492
   20CHTO    H6 8460   6.077   0.946  -0.127  1.8031  0.6507  0.4944
   21GLOH   H03 8461   0.588   3.898   2.766 -1.2643 -1.3412  0.1559
   21GLOH    O1 8462   0.514   3.946   2.724  0.0534  0.1405 -0.5268
   21GLOH    C1 8463   0.378   3.932   2.785  0.1471 -0.3458  0.1311
   21GLOH   H02 8464   0.388   3.871   2.874 -1.5289 -1.0654 -0.1724
   21GLOH   H08 8465   0.313   3.884   2.712 -0.6199  0.0289  0.5711
   21GLOH    C2 8466   0.322   4.068   2.817 -0.3880  0.3119  0.2804
   21GLOH   H04 8467   0.346   4.136   2.734  2.7892  1.4457  2.0681
   21GLOH    O2 8468   0.176   4.062   2.831  0.0416 -0.1728 -0.0552
   21GLOH   H05 8469   0.139   4.152   2.836  0.2855 -0.0083 -1.0243
   21GLOH    C3 8470   0.388   4.138   2.941 -0.8119 -0.0053  0.0916
   21GLOH   H06 8471   0.364   4.244   2.941 -1.8739 -0.2356  1.8970
   21GLOH   H07 8472   0.495   4.133   2.925 -0.9280  0.5196 -0.9288
   21GLOH    O3 8473   0.363   4.077   3.068  0.0739  0.4779  0.0248
   21GLOH   H01 8474   0.272   4.091   3.099  0.6882  1.2662  1.5309
   22GLOH   H03 8475   0.513   1.956   2.471 -0.4503  0.0201  0.3050
   22GLOH    O1 8476   0.424   1.950   2.432 -0.1516 -0.6806 -0.2762
   22GLOH    C1 8477   0.349   2.060   2.478  0.0655 -0.0552  0.5015
   22GLOH   H02 8478   0.269   2.076   2.406 -0.0986 -1.0987  0.4477
   22GLOH   H08 8479   0.414   2.147   2.485  0.2915 -0.0767 -1.1362
   22GLOH    C2 8480   0.282   2.048   2.612  0.1365 -0.3430 -0.4313
   22GLOH   H04 8481   0.364   2.007   2.672  0.3146 -0.5025 -0.7840
   22GLOH    O2 8482   0.223   2.168   2.668  0.0626  0.0989 -0.1838
   22GLOH   H05 8483   0.205   2.232   2.597 -0.4106 -0.1770 -0.3126
   22GLOH    C3 8484   0.185   1.933   2.589  0.1152  0.6078  0.4529
   22GLOH   H06 8485   0.223   1.852   2.528 -1.2142 -0.2531  0.7414
   22GLOH   H07 8486   0.099   1.971   2.533  0.4945  0.7464 -0.0364
   22GLOH    O3 8487   0.135   1.893   2.722 -0.5695  0.0463 -0.5144
   22GLOH   H01 8488   0.183   1.814   2.752  0.9047  1.5091  1.1188
   23GLOH   H03 8489   3.347   5.495   1.093  2.1000 -1.1274  0.0606
   23GLOH    O1 8490   3.384   5.569   1.040 -0.6206  0.7101  0.6226
   23GLOH    C1 8491   3.422   5.510   0.909  0.0806 -0.3562 -0.4059
   23GLOH   H02 8492   3.326   5.505   0.857 -0.5778  0.4481  0.7135
   23GLOH   H08 8493   3.460   5.408   0.911  0.7669 -0.2028 -3.2427
   23GLOH    C2 8494   3.524   5.594   0.826  0.9422 -0.0032  0.3304
   23GLOH   H04 8495   3.621   5.603   0.878  0.1415 -1.9511  2.2307
   23GLOH    O2 8496   3.542   5.530   0.694  0.5241 -0.4178 -0.6952
   23GLOH   H05 8497   3.470   5.465   0.686  0.5295 -0.2443 -2.2357
   23GLOH    C3 8498   3.465   5.731   0.815  0.4571  0.2283  0.2087
   23GLOH   H06 8499   3.449   5.777   0.913  0.6545  0.2986  0.2077
   23GLOH   H07 8500   3.364   5.714   0.776  0.2349 -0.3428  1.0090
   23GLOH    O3 8501   3.534   5.819   0.727  0.7529  0.1610 -0.1913
   23GLOH   H01 8502   3.495   5.908   0.730 -1.1149 -0.6795  2.4889
   24GLOH   H03 8503   1.137   8.691   1.554 -0.7602  0.2181 -0.2416
   24GLOH    O1 8504   1.102   8.671   1.465 -0.1271  0.2978 -0.5095
   24GLOH    C1 8505   1.158   8.756   1.366  0.1480 -0.2731  0.4391
   24GLOH   H02 8506   1.103   8.725   1.277  2.0210 -1.6040 -0.2744
   24GLOH   H08 8507   1.260   8.731   1.338  1.8589  3.5677  2.8076
   24GLOH    C2 8508   1.135   8.907   1.394  0.3019  0.1714  0.1877
   24GLOH   H04 8509   1.031   8.926   1.425 -0.1179 -2.9323  0.9159
   24GLOH    O2 8510   1.221   8.931   1.505  0.1044  0.0066  0.2328
   24GLOH   H05 8511   1.188   8.892   1.587 -0.3903 -1.5109 -0.6632
   24GLOH    C3 8512   1.181   9.007   1.284 -0.0066  0.0792 -0.0546
   24GLOH   H06 8513   1.282   8.978   1.257  0.6318  0.8985  1.4417
   24GLOH   H07 8514   1.185   9.109   1.320  0.5512 -0.8419  2.5563
   24GLOH    O3 8515   1.098   9.006   1.163 -0.3993 -0.5292 -0.4019
   24GLOH   H01 8516   1.096   9.096   1.126 -0.4294 -0.3647 -0.0061
   25GLOH   H03 8517   3.901   8.394   1.420  0.1537 -0.3352  2.9439
   25GLOH    O1 8518   3.977   8.333   1.411  0.4667  0.4620 -0.3141
   25GLOH    C1 8519   4.008   8.261   1.535 -0.7040  0.1133 -0.1718
   25GLOH   H02 8520   4.115   8.263   1.559 -0.0691  0.6596 -2.8307
   25GLOH   H08 8521   3.984   8.160   1.504  0.1426  0.3941 -1.8138
   25GLOH    C2 8522   3.907   8.301   1.648  0.1429  0.0345  0.7169
   25GLOH   H04 8523   3.931   8.249   1.742 -0.2904 -1.3777  0.0705
   25GLOH    O2 8524   3.912   8.442   1.671  0.5807 -0.2922 -0.0395
   25GLOH   H05 8525   3.838   8.475   1.725 -0.2733 -0.1953 -1.2489
   25GLOH    C3 8526   3.771   8.245   1.602  0.0826 -0.6605 -0.2732
   25GLOH   H06 8527   3.765   8.136   1.604 -1.7849 -0.5686  3.0215
   25GLOH   H07 8528   3.756   8.269   1.496  0.5284  0.7289 -0.0346
   25GLOH    O3 8529   3.658   8.287   1.680  0.6597  0.2952  0.6619
   25GLOH   H01 8530   3.586   8.295   1.615  1.1271 -1.6962 -0.1409
   26GLOH   H03 8531   1.096   3.497   1.051  0.0892  1.2818  1.0199
   26GLOH    O1 8532   1.168   3.526   0.993 -0.1423 -0.2041 -0.0364
   26GLOH    C1 8533   1.222   3.655   1.035 -0.8612 -0.7375  0.4719
   26GLOH   H02 8534   1.144   3.732   1.042  0.2205  0.5094 -0.7828
   26GLOH   H08 8535   1.291   3.698   0.963 -1.3538 -0.1837  0.3178
   26GLOH    C2 8536   1.288   3.643   1.175  0.1710 -0.4964  0.8086
   26GLOH   H04 8537   1.316   3.745   1.203 -0.5573  0.1145 -0.6385
   26GLOH    O2 8538   1.209   3.594   1.285  0.2154 -0.2519  0.3855
   26GLOH   H05 8539   1.184   3.503   1.263 -2.2784  0.2246  1.0074
   26GLOH    C3 8540   1.419   3.561   1.153  0.0780 -0.0740  0.4609
   26GLOH   H06 8541   1.395   3.475   1.090  1.7567 -0.2908  0.0887
   26GLOH   H07 8542   1.454   3.520   1.248  0.2379 -1.9061 -0.3632
   26GLOH    O3 8543   1.521   3.644   1.092 -0.4052  0.0380 -0.3646
   26GLOH   H01 8544   1.552   3.705   1.161  0.1102 -0.3359 -0.2645
   27GLOH   H03 8545   0.882   6.800   1.328  0.1433  1.0953 -1.2361
   27GLOH    O1 8546   0.928   6.725   1.286 -0.2428 -0.1696  0.5418
   27GLOH    C1 8547   1.071   6.748   1.285  0.3118  0.8121 -0.0149
   27GLOH   H02 8548   1.117   6.651   1.299  0.3280  0.8566  0.2460
   27GLOH   H08 8549   1.092   6.808   1.374  0.6038 -1.9766  1.8488
   27GLOH    C2 8550   1.131   6.818   1.166  0.1669 -0.3207 -0.7234
   27GLOH   H04 8551   1.084   6.915   1.146 -2.6613 -1.5375 -0.2848
   27GLOH    O2 8552   1.275   6.830   1.190 -0.4094 -0.3884  0.0524
   27GLOH   H05 8553   1.296   6.925   1.193 -0.6201 -0.3648  0.7199
   27GLOH    C3 8554   1.110   6.730   1.043 -0.0319  0.1316  0.1077
   27GLOH   H06 8555   1.168   6.638   1.051  0.3670  0.4071  0.3780
   27GLOH   H07 8556   1.152   6.786   0.959  2.7376  0.9862  1.9990
   27GLOH    O3 8557   0.969   6.709   1.017  0.1425  0.5446  0.1332
   27GLOH   H01 8558   0.928   6.692   1.104  0.9689  2.4272  0.9341
   28GLOH   H03 8559   9.495   6.584   1.551 -0.1528  1.5945  1.5967
   28GLOH    O1 8560   9.590   6.587   1.571  0.3427  0.3085 -0.3910
   28GLOH    C1 8561   9.660   6.460   1.533 -0.4604 -0.4889  0.3139
   28GLOH   H02 8562   9.671   6.455   1.425  1.3189  0.5747  0.4385
   28GLOH   H08 8563   9.594   6.379   1.565 -1.2340 -0.9096 -2.2301
   28GLOH    C2 8564   9.801   6.446   1.591 -0.2335 -0.0145 -0.3031
   28GLOH   H04 8565   9.795   6.458   1.701  1.1622  1.2972 -0.3479
   28GLOH    O2 8566   9.852   6.316   1.567 -0.1362  0.9686 -0.1626
   28GLOH   H05 8567   9.948   6.308   1.579 -0.4822 -2.2386  0.8945
   28GLOH    C3 8568   9.889   6.550   1.523 -0.8886 -0.2335 -0.2530
   28GLOH   H06 8569   9.894   6.533   1.416  2.9092 -1.4605  0.0320
   28GLOH   H07 8570   9.993   6.548   1.554 -0.5637  1.6125 -1.1885
   28GLOH    O3 8571   9.842   6.684   1.550  0.3161 -0.0741 -0.5059
   28GLOH   H01 8572   9.747   6.665   1.551  0.1665  0.6317 -0.7244
   29GLOH   H03 8573   3.881   4.203   2.551 -0.1293  1.2833  0.8416
   29GLOH    O1 8574   3.970   4.224   2.518  0.0972  0.2515  0.7964
   29GLOH    C1 8575   4.022   4.137   2.414  0.3387  0.3052 -0.8705
   29GLOH   H02 8576   4.048   4.200   2.328  0.4148 -0.9836 -1.8072
   29GLOH   H08 8577   3.938   4.081   2.373  0.1347 -0.9272  1.2097
   29GLOH    C2 8578   4.133   4.044   2.461 -0.3570  0.0285 -0.2383
   29GLOH   H04 8579   4.101   3.988   2.550  2.3518  0.2993  0.9775
   29GLOH    O2 8580   4.164   3.950   2.354  0.0344  0.4115 -0.5176
   29GLOH   H05 8581   4.250   3.971   2.314 -0.5508  1.5375 -1.2164
   29GLOH    C3 8582   4.256   4.135   2.500  0.6922  0.0573  0.0311
   29GLOH   H06 8583   4.347   4.077   2.513  0.2934 -0.6122 -0.1723
   29GLOH   H07 8584   4.228   4.171   2.599 -0.7317  0.7701 -0.6143
   29GLOH    O3 8585   4.285   4.241   2.407 -0.1710  0.5134 -0.0627
   29GLOH   H01 8586   4.331   4.315   2.453 -0.3380 -0.2747  1.4113
   30GLOH   H03 8587   1.614   8.184   1.801 -0.1839  0.1937 -1.0629
   30GLOH    O1 8588   1.543   8.204   1.864  0.5832  0.0276 -0.1282
   30GLOH    C1 8589   1.595   8.202   2.004 -0.3048 -0.4952  0.5441
   30GLOH   H02 8590   1.670   8.124   2.012  0.0162 -0.3463 -0.7978
   30GLOH   H08 8591   1.508   8.175   2.063 -0.1549 -0.8067  0.6236
   30GLOH    C2 8592   1.665   8.333   2.059  0.4247  0.0310  0.2931
   30GLOH   H04 8593   1.658   8.343   2.168  0.8471 -0.7075  0.3910
   30GLOH    O2 8594   1.802   8.334   2.029 -0.5451 -0.5370 -0.1142
   30GLOH   H05 8595   1.852   8.275   2.088  2.0489 -0.3056 -1.9306
   30GLOH    C3 8596   1.604   8.461   1.989 -1.0837  0.7949 -0.2443
   30GLOH   H06 8597   1.622   8.462   1.882 -0.7045  2.1764 -0.1781
   30GLOH   H07 8598   1.671   8.537   2.027  0.3367 -0.7468  0.3888
   30GLOH    O3 8599   1.470   8.488   2.029 -0.9401  0.8537  0.8836
   30GLOH   H01 8600   1.429   8.519   1.947 -0.1907  3.5466  1.4604
   31GLOH   H03 8601  10.029   4.745   1.907  1.7419 -2.7159  1.0669
   31GLOH    O1 8602   9.966   4.673   1.888 -0.4670 -0.4927 -0.1875
   31GLOH    C1 8603   9.993   4.560   1.974  0.1390  0.1774 -0.1815
   31GLOH   H02 8604   9.895   4.517   1.993  1.0935 -2.3523 -0.7959
   31GLOH   H08 8605  10.033   4.609   2.063  0.0893  1.1540 -0.6921
   31GLOH    C2 8606  10.086   4.451   1.924 -0.6627 -0.7054 -0.3023
   31GLOH   H04 8607  10.183   4.499   1.902 -1.7883  1.8831  0.1703
   31GLOH    O2 8608  10.097   4.335   2.009 -0.7731 -0.5941 -0.1128
   31GLOH   H05 8609  10.013   4.285   2.007 -0.0283 -1.8892  0.7221
   31GLOH    C3 8610  10.029   4.395   1.787  0.3100 -0.3793 -0.4107
   31GLOH   H06 8611   9.922   4.371   1.791  0.5037 -1.9311 -3.1510
   31GLOH   H07 8612  10.086   4.304   1.768  0.7576  0.2077 -1.9421
   31GLOH    O3 8613  10.040   4.489   1.679  0.6561  0.2414 -0.3772
   31GLOH   H01 8614  10.122   4.541   1.677  1.4403 -0.9063  1.0199
   32GLOH   H03 8615   0.364   2.467   2.193  0.9867  0.2320  0.1958
   32GLOH    O1 8616   0.386   2.502   2.105  0.5791 -0.6538 -0.2685
   32GLOH    C1 8617   0.269   2.499   2.022  0.6089  0.7521  0.0009
   32GLOH   H02 8618   0.186   2.457   2.080  0.7686 -1.0684 -1.0661
   32GLOH   H08 8619   0.295   2.438   1.936  0.6621 -0.9418  1.1943
   32GLOH    C2 8620   0.239   2.637   1.974 -0.2146  0.8758  0.1398
   32GLOH   H04 8621   0.146   2.626   1.916 -0.7823  0.5265  1.1074
   32GLOH    O2 8622   0.205   2.729   2.087  0.0195 -0.0673  0.8680
   32GLOH   H05 8623   0.288   2.775   2.106 -0.2958 -0.1415  2.4469
   32GLOH    C3 8624   0.354   2.696   1.891  0.3449 -0.0481  0.1078
   32GLOH   H06 8625   0.444   2.681   1.952 -0.7071  2.1821  2.3165
   32GLOH   H07 8626   0.342   2.804   1.887  0.0366 -0.0332  1.2089
   32GLOH    O3 8627   0.360   2.635   1.763  0.2735 -0.4056  0.4014
   32GLOH   H01 8628   0.273   2.606   1.728 -0.1838  1.5948 -0.1976
   33GLOH   H03 8629   1.116   9.480   0.087  1.2531 -0.7495 -1.7630
   33GLOH    O1 8630   1.141   9.572   0.067 -0.3207  0.0253 -0.3609
   33GLOH    C1 8631   1.283   9.568   0.098 -0.2115 -1.0294  0.9513
   33GLOH   H02 8632   1.341   9.524   0.017  0.7809  1.3265  0.3476
   33GLOH   H08 8633   1.302   9.506   0.186  2.7065 -0.5239  0.7105
   33GLOH    C2 8634   1.353   9.707   0.126 -1.0908 -0.1137  0.2903
   33GLOH   H04 8635   1.294   9.749   0.209 -1.7331 -0.6316  0.1081
   33GLOH    O2 8636   1.491   9.699   0.157 -0.1842 -0.4595  0.2597
   33GLOH   H05 8637   1.529   9.788   0.163  1.6396 -1.0480 -2.0210
   33GLOH    C3 8638   1.332   9.801   0.006 -0.0563 -0.0597 -0.2108
   33GLOH   H06 8639   1.392   9.889   0.023 -0.4060 -0.1402  1.5002
   33GLOH   H07 8640   1.229   9.838   0.009 -0.0126  0.0289  0.1958
   33GLOH    O3 8641   1.368   9.748  -0.123  0.0838 -0.0925 -0.1712
   33GLOH   H01 8642   1.321   9.805  -0.187 -2.1057 -0.0364  1.4029
   34GLOH   H03 8643   4.353   0.674   1.298 -1.2440  4.8755  1.9905
   34GLOH    O1 8644   4.261   0.674   1.265 -0.5806  0.1086 -0.2314
   34GLOH    C1 8645   4.264   0.756   1.149 -0.0674 -0.0572  0.4258
   34GLOH   H02 8646   4.205   0.704   1.074 -1.3804 -0.8814  1.9914
   34GLOH   H08 8647   4.367   0.767   1.116  0.1255 -1.6515  0.4514
   34GLOH    C2 8648   4.199   0.894   1.172  0.1067 -0.0760  0.5404
   34GLOH   H04 8649   4.207   0.949   1.077 -2.2789 -0.9661 -0.2117
   34GLOH    O2 8650   4.068   0.879   1.224  0.5266 -0.0546 -0.1847
   34GLOH   H05 8651   4.011   0.841   1.155 -1.1997 -4.7412  3.5561
   34GLOH    C3 8652   4.285   0.969   1.273  0.5808 -0.0881 -0.3912
   34GLOH   H06 8653   4.287   0.917   1.369 -0.8781 -0.9383 -0.8108
   34GLOH   H07 8654   4.245   1.070   1.283 -1.5453 -0.8626 -0.8805
   34GLOH    O3 8655   4.422   0.986   1.231  0.3651  0.0345  0.0878
   34GLOH   H01 8656   4.420   1.027   1.143  0.5993  0.4240  0.2615
   35GLOH   H03 8657   9.486   3.013   1.669 -2.5163  1.2136 -2.3654
   35GLOH    O1 8658   9.429   3.041   1.742 -0.3926 -0.2555 -0.0847
   35GLOH    C1 8659   9.424   3.184   1.758  0.2446 -1.1147  0.0974
   35GLOH   H02 8660   9.381   3.215   1.853  2.0895  1.5059  0.1413
   35GLOH   H08 8661   9.355   3.218   1.681 -0.3173  2.8180  2.1940
   35GLOH    C2 8662   9.554   3.255   1.732  0.5059 -0.5600  0.2706
   35GLOH   H04 8663   9.572   3.241   1.624  0.0562  0.8194  0.0013
   35GLOH    O2 8664   9.528   3.398   1.756 -0.1954  0.1401 -0.1215
   35GLOH   H05 8665   9.599   3.428   1.816  0.8957 -3.2908  0.3661
   35GLOH    C3 8666   9.666   3.189   1.821  0.0163 -0.3306 -0.3302
   35GLOH   H06 8667   9.743   3.265   1.831 -0.2930 -0.1913  1.0449
   35GLOH   H07 8668   9.716   3.109   1.766 -0.2113 -0.3343 -0.5327
   35GLOH    O3 8669   9.619   3.139   1.948  0.2585  0.0649  0.4543
   35GLOH   H01 8670   9.681   3.070   1.979 -1.6319 -1.4064  1.0146
   36GLOH   H03 8671   1.145   1.021   0.253  0.1523  0.0755 -0.6715
   36GLOH    O1 8672   1.209   1.053   0.320 -0.0741 -0.3635 -0.2420
   36GLOH    C1 8673   1.271   1.176   0.286 -0.3702 -0.1595 -0.5033
   36GLOH   H02 8674   1.221   1.214   0.197  0.7206  0.9322 -0.6725
   36GLOH   H08 8675   1.377   1.161   0.263  0.1406 -0.5920  2.0074
   36GLOH    C2 8676   1.271   1.272   0.408 -0.7826  0.3344 -0.2659
   36GLOH   H04 8677   1.334   1.222   0.483  0.2508  0.6713 -0.8972
   36GLOH    O2 8678   1.352   1.388   0.378 -0.3415 -0.4212 -0.0766
   36GLOH   H05 8679   1.389   1.415   0.463  1.5615  0.4082 -1.1515
   36GLOH    C3 8680   1.129   1.302   0.452  0.4468  0.3111 -0.3156
   36GLOH   H06 8681   1.076   1.314   0.357 -0.1004  1.2369  0.0956
   36GLOH   H07 8682   1.123   1.398   0.504 -1.1189 -0.6034  1.2266
   36GLOH    O3 8683   1.054   1.205   0.530  0.4039 -0.3747  0.2362
   36GLOH   H01 8684   1.037   1.121   0.483  1.9237 -1.3555  1.3731
   37GLOH   H03 8685   1.163   2.683   0.742 -1.8556  0.6206 -2.0826
   37GLOH    O1 8686   1.091   2.621   0.764 -0.6177 -0.1444  0.0066
   37GLOH    C1 8687   1.157   2.520   0.835  0.2042 -0.2894 -0.1406
   37GLOH   H02 8688   1.265   2.533   0.844  0.2969 -0.1987 -1.4194
   37GLOH   H08 8689   1.137   2.425   0.785  1.0804 -0.0844 -0.8888
   37GLOH    C2 8690   1.103   2.514   0.980 -0.3829 -0.1063  0.1177
   37GLOH   H04 8691   0.994   2.519   0.973 -0.2498 -1.1225 -3.4470
   37GLOH    O2 8692   1.145   2.407   1.068  0.0352  0.0996 -0.3000
   37GLOH   H05 8693   1.130   2.322   1.025 -0.7666  0.2621 -0.3461
   37GLOH    C3 8694   1.131   2.653   1.040  0.0069 -0.0112 -0.4196
   37GLOH   H06 8695   1.236   2.675   1.017 -0.0979 -0.8564 -1.8221
   37GLOH   H07 8696   1.133   2.637   1.147 -2.2493 -0.3545 -0.4165
   37GLOH    O3 8697   1.045   2.759   0.991  0.2729 -0.8064  0.0173
   37GLOH   H01 8698   1.003   2.745   0.904 -0.4860 -1.3427  0.4622
   38GLOH   H03 8699   8.980   5.714   2.411 -1.8604  0.8780 -1.2046
   38GLOH    O1 8700   9.034   5.776   2.359  0.3238 -0.2999 -0.4048
   38GLOH    C1 8701   8.985   5.787   2.231 -0.7699 -0.4713  0.3193
   38GLOH   H02 8702   8.876   5.797   2.240 -0.6268  1.2127  0.3137
   38GLOH   H08 8703   9.007   5.694   2.179  0.6413 -0.2995  0.6077
   38GLOH    C2 8704   9.055   5.893   2.140 -0.2331 -0.8952 -0.3316
   38GLOH   H04 8705   9.152   5.846   2.120 -0.4588 -2.2105  1.5200
   38GLOH    O2 8706   8.998   5.918   2.009 -0.5691 -0.2064 -0.2806
   38GLOH   H05 8707   8.920   5.976   2.008 -0.1287  0.4168  0.4204
   38GLOH    C3 8708   9.073   6.031   2.206  0.2528  0.2194  0.1837
   38GLOH   H06 8709   8.972   6.057   2.238  0.3303  0.1981  0.4525
   38GLOH   H07 8710   9.117   6.098   2.132  1.3123 -0.2949  0.3457
   38GLOH    O3 8711   9.155   6.018   2.330  0.2435  0.3973  0.7025
   38GLOH   H01 8712   9.126   5.933   2.368 -0.7192 -0.4612 -1.8549
   39GLOH   H03 8713   1.438   3.657   2.657 -1.1692 -0.7394 -0.4357
   39GLOH    O1 8714   1.396   3.738   2.690 -0.0620 -0.2347 -0.2486
   39GLOH    C1 8715   1.265   3.717   2.750 -0.5026  1.0126 -0.5419
   39GLOH   H02 8716   1.192   3.691   2.673 -0.8371 -0.4813  0.2711
   39GLOH   H08 8717   1.234   3.815   2.787 -0.5838  0.1498  1.7083
   39GLOH    C2 8718   1.266   3.610   2.862  0.4925 -0.0606  0.4789
   39GLOH   H04 8719   1.342   3.640   2.935  0.7366  1.2753 -0.3028
   39GLOH    O2 8720   1.141   3.596   2.922  0.0137  0.5500  0.1734
   39GLOH   H05 8721   1.093   3.520   2.884  0.4023 -0.2253  1.2062
   39GLOH    C3 8722   1.301   3.470   2.803 -0.9172 -0.0913  0.3290
   39GLOH   H06 8723   1.251   3.453   2.708 -1.6218  1.5915  0.3659
   39GLOH   H07 8724   1.259   3.388   2.861 -1.1874 -0.9272 -1.0246
   39GLOH    O3 8725   1.439   3.445   2.768  0.0932 -0.8403  0.1310
   39GLOH   H01 8726   1.465   3.494   2.688 -1.9270  1.5457  0.8795
   40GLOH   H03 8727   4.600   0.595   0.929  0.4968  0.9294 -0.6271
   40GLOH    O1 8728   4.505   0.616   0.937  0.4865  0.4899  0.4434
   40GLOH    C1 8729   4.465   0.707   0.831 -0.1317 -0.3582 -0.2016
   40GLOH   H02 8730   4.462   0.812   0.861 -0.7036  0.1273 -1.9229
   40GLOH   H08 8731   4.363   0.680   0.805  0.3657 -1.4302 -1.0918
   40GLOH    C2 8732   4.544   0.699   0.699 -0.1132  0.1157  0.1025
   40GLOH   H04 8733   4.545   0.596   0.661 -1.3602  0.6227 -1.3397
   40GLOH    O2 8734   4.491   0.797   0.607 -0.2105 -0.0857  0.0052
   40GLOH   H05 8735   4.521   0.780   0.516  1.6375 -0.5850  0.6802
   40GLOH    C3 8736   4.689   0.745   0.724  0.2381  0.2310  0.8335
   40GLOH   H06 8737   4.679   0.851   0.746 -3.6871  0.0925  0.0232
   40GLOH   H07 8738   4.740   0.743   0.627 -1.2149  1.5209  0.0260
   40GLOH    O3 8739   4.759   0.674   0.824  0.1191 -0.7348  0.2705
   40GLOH   H01 8740   4.734   0.581   0.806 -3.1371  0.3300 -1.2152
   41GLOH   H03 8741   3.212   8.905   1.097 -0.1921  2.2114  0.9252
   41GLOH    O1 8742   3.285   8.934   1.039  0.5306  0.0553  0.7310
   41GLOH    C1 8743   3.342   8.811   0.989 -0.1757 -0.6418  0.4499
   41GLOH   H02 8744   3.258   8.753   0.950 -0.8754  0.4981  0.2396
   41GLOH   H08 8745   3.378   8.746   1.068 -0.0090 -2.0839 -0.7909
   41GLOH    C2 8746   3.460   8.822   0.888 -0.3080 -0.2904  0.3459
   41GLOH   H04 8747   3.547   8.867   0.938 -0.3233  0.7526 -0.5236
   41GLOH    O2 8748   3.493   8.691   0.839 -0.2796  0.0466  0.0522
   41GLOH   H05 8749   3.564   8.710   0.775  0.7471  2.8123  1.8974
   41GLOH    C3 8750   3.427   8.927   0.783  0.1156  0.2429 -0.5633
   41GLOH   H06 8751   3.348   8.880   0.724  1.5534 -0.8510 -1.6390
   41GLOH   H07 8752   3.520   8.938   0.728 -0.5855  1.3740 -1.5439
   41GLOH    O3 8753   3.385   9.045   0.853  0.1827 -0.2700 -0.4346
   41GLOH   H01 8754   3.337   9.008   0.929 -0.6515  1.6642  0.0025
   42GLOH   H03 8755   3.573   2.486   0.448  0.0688  0.8717  2.9012
   42GLOH    O1 8756   3.652   2.429   0.448 -0.1617  0.5088  0.1131
   42GLOH    C1 8757   3.613   2.292   0.494  0.3626 -0.3662 -0.6179
   42GLOH   H02 8758   3.678   2.212   0.459 -0.4672 -0.7640 -1.2840
   42GLOH   H08 8759   3.510   2.276   0.463 -0.1219  1.6242 -0.0863
   42GLOH    C2 8760   3.586   2.284   0.645  0.3274 -0.9706 -0.5598
   42GLOH   H04 8761   3.526   2.370   0.677 -0.1421 -0.9939 -1.3440
   42GLOH    O2 8762   3.512   2.166   0.689  0.2347  0.3080  0.2144
   42GLOH   H05 8763   3.515   2.157   0.785 -2.2769 -1.1491  0.1738
   42GLOH    C3 8764   3.719   2.295   0.714  0.0665 -0.0294 -0.5496
   42GLOH   H06 8765   3.779   2.379   0.679 -2.4624  1.2067 -2.0876
   42GLOH   H07 8766   3.771   2.209   0.670 -1.1037 -1.3931  0.6965
   42GLOH    O3 8767   3.712   2.295   0.860  0.2749  0.2657 -0.0268
   42GLOH   H01 8768   3.667   2.376   0.892  0.2682  0.5019 -0.6337
   43GLOH   H03 8769   1.959   7.088   2.197 -0.1331 -0.3740  1.6223
   43GLOH    O1 8770   2.048   7.127   2.209 -0.0067 -0.0564 -0.3193
   43GLOH    C1 8771   2.136   7.026   2.260 -0.1602 -0.1979  0.3924
   43GLOH   H02 8772   2.238   7.064   2.249  0.0708 -0.2679  2.1804
   43GLOH   H08 8773   2.133   6.930   2.208  0.5056  0.0605 -0.1270
   43GLOH    C2 8774   2.090   7.001   2.403 -0.0002  0.0043 -0.5294
   43GLOH   H04 8775   1.991   6.955   2.399 -1.3086  2.6424  0.3689
   43GLOH    O2 8776   2.172   6.897   2.458  0.0879 -0.3992  0.4108
   43GLOH   H05 8777   2.132   6.881   2.546 -0.7014 -0.0307  0.1222
   43GLOH    C3 8778   2.083   7.130   2.489 -0.1731  0.4406  0.0182
   43GLOH   H06 8779   2.083   7.100   2.594 -1.4824  1.8293  0.4237
   43GLOH   H07 8780   1.990   7.182   2.467 -0.1768  0.4286  0.0054
   43GLOH    O3 8781   2.199   7.210   2.476  0.3294 -0.0125 -0.2955
   43GLOH   H01 8782   2.279   7.158   2.496  1.0104  1.7239  1.5943
   44GLOH   H03 8783   4.277   4.223   2.262  2.4025 -0.2041 -0.3049
   44GLOH    O1 8784   4.266   4.226   2.165 -0.2574 -0.6243 -0.0391
   44GLOH    C1 8785   4.313   4.346   2.109  0.0358 -0.0061 -0.1303
   44GLOH   H02 8786   4.294   4.443   2.155  0.2068 -1.2255  2.6447
   44GLOH   H08 8787   4.274   4.355   2.008 -2.2658 -0.4910  0.6644
   44GLOH    C2 8788   4.465   4.343   2.094 -0.4665 -0.2668 -0.0106
   44GLOH   H04 8789   4.501   4.351   2.198  0.2968  2.0440 -0.4175
   44GLOH    O2 8790   4.506   4.211   2.049 -1.2522 -0.2660 -0.0955
   44GLOH   H05 8791   4.467   4.200   1.961  0.7131 -0.8677 -0.9226
   44GLOH    C3 8792   4.523   4.463   2.016 -0.6477 -0.4623 -0.5196
   44GLOH   H06 8793   4.482   4.560   2.045  0.6347 -0.2936  0.7476
   44GLOH   H07 8794   4.492   4.451   1.912  1.4732 -0.1297 -1.2299
   44GLOH    O3 8795   4.663   4.466   2.014 -0.3467  0.4143  0.3400
   44GLOH   H01 8796   4.694   4.503   1.929 -1.9429  0.6755 -0.1504
   45GLOH   H03 8797   3.799   4.621   2.783 -1.4437  0.7825 -0.1631
   45GLOH    O1 8798   3.823   4.671   2.863 -0.8123  0.5980 -0.2360
   45GLOH    C1 8799   3.725   4.648   2.969  0.5528 -0.1769  0.6665
   45GLOH   H02 8800   3.779   4.598   3.050  2.0359 -1.1815 -0.9137
   45GLOH   H08 8801   3.641   4.584   2.942  1.9393 -1.0996 -1.6808
   45GLOH    C2 8802   3.663   4.773   3.030  0.4677  0.0709 -0.1072
   45GLOH   H04 8803   3.609   4.829   2.952 -0.1064 -0.7885 -0.3244
   45GLOH    O2 8804   3.555   4.721   3.116 -0.6273 -0.1333 -0.2877
   45GLOH   H05 8805   3.556   4.748   3.210 -3.8596  0.6624 -0.4245
   45GLOH    C3 8806   3.767   4.874   3.085 -0.4777 -0.4019 -0.6022
   45GLOH   H06 8807   3.857   4.812   3.090  0.0734  0.2311 -2.4610
   45GLOH   H07 8808   3.749   4.908   3.187  0.2764 -0.5191 -0.4203
   45GLOH    O3 8809   3.801   4.982   3.000  0.2147  0.3029  0.2144
   45GLOH   H01 8810   3.873   5.023   3.052  1.0662 -2.1417  1.0700
   46GLOH   H03 8811   3.023   6.803   2.816 -0.1918 -0.7192 -1.1306
   46GLOH    O1 8812   3.119   6.814   2.826 -0.3154  0.0399 -0.7711
   46GLOH    C1 8813   3.178   6.811   2.697 -0.5382 -0.7437 -0.1904
   46GLOH   H02 8814   3.102   6.770   2.631 -0.5907  0.2087 -0.7373
   46GLOH   H08 8815   3.270   6.752   2.692 -0.0044  0.1850 -1.9613
   46GLOH    C2 8816   3.204   6.953   2.638  0.6450 -0.3428  0.1958
   46GLOH   H04 8817   3.294   6.979   2.696  0.4146  1.8134 -0.3501
   46GLOH    O2 8818   3.236   6.936   2.498 -0.0193 -0.0496 -1.0285
   46GLOH   H05 8819   3.217   7.022   2.456  0.8491  0.9903  0.6530
   46GLOH    C3 8820   3.092   7.053   2.665  0.0358  0.6754  0.1229
   46GLOH   H06 8821   3.089   7.062   2.774  0.9633  1.7386  0.0633
   46GLOH   H07 8822   2.995   7.009   2.640  0.5848 -0.3984 -0.1420
   46GLOH    O3 8823   3.109   7.183   2.605  0.3108 -0.5900  0.3821
   46GLOH   H01 8824   3.196   7.217   2.631 -0.1971 -0.6882  2.3251
   47GLOH   H03 8825   2.774   7.974   2.337 -1.1347 -1.3612  0.8012
   47GLOH    O1 8826   2.830   7.953   2.414  0.2616 -0.1760  0.1426
   47GLOH    C1 8827   2.955   7.973   2.358 -0.5969 -0.4565 -0.0435
   47GLOH   H02 8828   2.962   8.051   2.283 -1.8180 -0.4060 -0.1149
   47GLOH   H08 8829   2.976   7.881   2.303 -1.8261  0.2089 -1.6559
   47GLOH    C2 8830   3.056   7.994   2.473  0.1026  0.2742 -0.1172
   47GLOH   H04 8831   3.015   7.951   2.565  1.2264  0.5831  0.5407
   47GLOH    O2 8832   3.183   7.936   2.443  0.5039  0.2669 -0.4490
   47GLOH   H05 8833   3.250   7.954   2.511 -0.1736 -0.5107  0.4317
   47GLOH    C3 8834   3.077   8.147   2.496 -0.7081 -0.2287  0.0788
   47GLOH   H06 8835   3.118   8.195   2.407  1.1263  0.4278  1.2479
   47GLOH   H07 8836   3.154   8.166   2.571 -0.2521  3.0686 -1.1390
   47GLOH    O3 8837   2.959   8.215   2.548 -0.3125 -0.0156 -0.1670
   47GLOH   H01 8838   2.934   8.183   2.637  1.3108  1.3108  0.8100
   48GLOH   H03 8839   2.848   7.016   1.263  0.6994 -0.5174  0.3163
   48GLOH    O1 8840   2.818   6.948   1.200  0.1015 -0.2382  0.2943
   48GLOH    C1 8841   2.927   6.867   1.156 -0.0817 -0.2596 -0.4018
   48GLOH   H02 8842   2.924   6.775   1.214  1.9126  0.2551  0.5792
   48GLOH   H08 8843   3.027   6.908   1.174  0.0478 -0.4726 -0.6263
   48GLOH    C2 8844   2.924   6.828   1.008 -0.2088 -0.0592 -0.1858
   48GLOH   H04 8845   2.960   6.917   0.954 -1.8544  0.3644 -0.6030
   48GLOH    O2 8846   3.017   6.714   0.990  0.0543 -0.0545  0.2534
   48GLOH   H05 8847   3.083   6.726   1.061  0.7680 -0.3000 -0.3700
   48GLOH    C3 8848   2.790   6.804   0.942  0.2051 -0.4167  0.0812
   48GLOH   H06 8849   2.740   6.713   0.975 -2.5019  0.3364 -1.7873
   48GLOH   H07 8850   2.802   6.791   0.835 -1.1942 -0.6537 -0.0501
   48GLOH    O3 8851   2.714   6.924   0.970  0.0443  0.7543  0.4047
   48GLOH   H01 8852   2.726   6.936   1.066  3.0923 -0.3524  0.2255
   49GLOH   H03 8853   3.042   5.706   2.706  0.2015 -0.6288  0.0250
   49GLOH    O1 8854   2.956   5.715   2.753  0.1189 -0.3905 -0.1743
   49GLOH    C1 8855   2.955   5.611   2.847  0.0323  0.0487 -0.3541
   49GLOH   H02 8856   2.918   5.650   2.941  0.5002  0.0629 -0.1739
   49GLOH   H08 8857   3.054   5.575   2.874 -0.1302 -1.3254 -1.4977
   49GLOH    C2 8858   2.866   5.495   2.792  0.4593 -0.0668  0.4537
   49GLOH   H04 8859   2.908   5.458   2.697 -0.6840 -0.0689 -0.0702
   49GLOH    O2 8860   2.861   5.388   2.892  0.0729  0.3437  0.1078
   49GLOH   H05 8861   2.767   5.375   2.912  0.3495 -0.1848  1.0805
   49GLOH    C3 8862   2.723   5.543   2.755 -0.2098 -0.1720  0.3566
   49GLOH   H06 8863   2.659   5.458   2.732  0.9687 -1.7313  2.7093
   49GLOH   H07 8864   2.730   5.605   2.666 -1.1576  0.4244  0.6888
   49GLOH    O3 8865   2.668   5.620   2.855 -0.4056 -0.4364 -0.9178
   49GLOH   H01 8866   2.697   5.587   2.942  0.2177 -1.3613 -1.4672
   50GLOH   H03 8867   3.942   2.930   1.250 -0.0033  0.4995 -1.2369
   50GLOH    O1 8868   3.911   2.846   1.211  0.1493 -0.1002 -0.0779
   50GLOH    C1 8869   4.028   2.763   1.167  0.0790  0.4498 -1.0259
   50GLOH   H02 8870   4.067   2.723   1.261 -0.8590  0.4725 -0.6239
   50GLOH   H08 8871   4.107   2.814   1.112  0.7078  0.2050 -0.3513
   50GLOH    C2 8872   3.976   2.648   1.071 -0.0808 -0.7569 -0.3116
   50GLOH   H04 8873   3.894   2.589   1.115 -0.8923  1.4296  1.1859
   50GLOH    O2 8874   3.944   2.705   0.947  0.8756  0.1144 -0.2817
   50GLOH   H05 8875   4.025   2.712   0.894  2.2992 -0.2304  1.8235
   50GLOH    C3 8876   4.097   2.550   1.068  0.4142  0.2579 -0.3110
   50GLOH   H06 8877   4.188   2.603   1.095 -0.3346  2.1138 -1.3790
   50GLOH   H07 8878   4.113   2.517   0.965 -1.7409  0.3558 -0.7136
   50GLOH    O3 8879   4.078   2.433   1.150 -0.6927 -0.2448  0.1320
   50GLOH   H01 8880   4.060   2.451   1.245  1.4453 -0.5837  0.6144
   51GLOH   H03 8881   9.065   5.860   1.620  0.4328  2.7591  0.9021
   51GLOH    O1 8882   9.069   5.867   1.523 -0.0847  0.3895  0.6640
   51GLOH    C1 8883   8.946   5.930   1.480 -0.2417  0.1625 -0.4266
   51GLOH   H02 8884   8.868   5.854   1.469  0.9926 -1.2340  0.3481
   51GLOH   H08 8885   8.955   5.977   1.382  0.4694 -0.5048 -0.6850
   51GLOH    C2 8886   8.904   6.052   1.571  0.1214  0.3344 -0.3436
   51GLOH   H04 8887   8.810   6.083   1.523 -0.7847  2.1831  2.4998
   51GLOH    O2 8888   8.870   6.012   1.701  0.1342  0.3778  0.2531
   51GLOH   H05 8889   8.942   5.961   1.741 -0.3335 -1.8708 -1.6862
   51GLOH    C3 8890   8.995   6.174   1.565 -0.3814  0.3828  0.0457
   51GLOH   H06 8891   9.093   6.145   1.603 -0.5679 -0.8895 -0.3993
   51GLOH   H07 8892   8.956   6.263   1.615 -0.5417  2.3290 -3.3597
   51GLOH    O3 8893   9.003   6.207   1.429 -0.2567  0.2341 -0.5117
   51GLOH   H01 8894   9.040   6.297   1.424  0.4567 -0.0345 -0.1030
   52GLOH   H03 8895   3.982   8.292   2.671 -1.3081 -0.3139  0.0550
   52GLOH    O1 8896   3.910   8.303   2.736 -0.4114  0.6022  0.9138
   52GLOH    C1 8897   3.869   8.439   2.721  0.1669  0.8083  0.0857
   52GLOH   H02 8898   3.766   8.444   2.684 -1.0057  2.0535  3.3041
   52GLOH   H08 8899   3.931   8.486   2.644 -1.2361  1.1654 -0.8566
   52GLOH    C2 8900   3.867   8.523   2.847 -0.0067 -1.0860 -0.8430
   52GLOH   H04 8901   3.960   8.509   2.904  0.0663  1.0464 -0.4124
   52GLOH    O2 8902   3.844   8.663   2.822 -0.4616  0.1538  0.0103
   52GLOH   H05 8903   3.869   8.686   2.731  2.0932 -1.9171  0.1467
   52GLOH    C3 8904   3.761   8.463   2.938 -0.5653 -0.6299 -0.2853
   52GLOH   H06 8905   3.657   8.482   2.913 -0.9644 -1.8172  0.4165
   52GLOH   H07 8906   3.758   8.514   3.035 -0.2849 -1.1235 -0.0161
   52GLOH    O3 8907   3.792   8.322   2.969 -0.8613 -0.5195  0.1647
   52GLOH   H01 8908   3.854   8.293   2.900  1.8742  2.9674  0.9923
   53GLOH   H03 8909   9.258   4.896   1.324  2.5239  0.6074 -2.0144
   53GLOH    O1 8910   9.210   4.882   1.240 -0.9549 -0.2807  0.0071
   53GLOH    C1 8911   9.081   4.819   1.257  0.4170  0.4304  0.1906
   53GLOH   H02 8912   9.011   4.898   1.285  1.0268  0.7980  0.6732
   53GLOH   H08 8913   9.069   4.739   1.330 -2.6873 -0.3476 -1.0790
   53GLOH    C2 8914   9.049   4.754   1.115 -0.4913  0.3140 -0.1976
   53GLOH   H04 8915   9.131   4.683   1.097 -1.0066 -0.4780  0.5682
   53GLOH    O2 8916   8.919   4.698   1.113 -0.2830  0.3019  0.6102
   53GLOH   H05 8917   8.905   4.652   1.198  2.0611  1.3653  1.5874
   53GLOH    C3 8918   9.050   4.859   0.998  0.2496  0.7376  0.1966
   53GLOH   H06 8919   8.976   4.930   1.034 -0.4987  0.3261 -0.5166
   53GLOH   H07 8920   9.029   4.822   0.898 -0.3798 -0.1585  0.6514
   53GLOH    O3 8921   9.184   4.919   0.988 -0.1079  0.4305  0.7137
   53GLOH   H01 8922   9.223   4.916   1.077  0.3088 -2.0601  0.4879
   54GLOH   H03 8923   3.585   1.706   2.374  1.3681  1.5513 -0.8144
   54GLOH    O1 8924   3.641   1.671   2.447 -0.3651  0.3351 -0.0413
   54GLOH    C1 8925   3.566   1.697   2.572 -0.9388  0.2138 -0.2292
   54GLOH   H02 8926   3.614   1.651   2.659  2.0644  1.2948 -1.2715
   54GLOH   H08 8927   3.468   1.649   2.565 -1.0689  0.6256 -1.2125
   54GLOH    C2 8928   3.547   1.846   2.602  0.0188  0.5467  0.0912
   54GLOH   H04 8929   3.492   1.895   2.520  1.6818  2.0570 -0.1729
   54GLOH    O2 8930   3.466   1.871   2.717  0.0615 -0.0827 -0.5118
   54GLOH   H05 8931   3.484   1.962   2.744  3.8715 -0.6641 -0.7087
   54GLOH    C3 8932   3.685   1.915   2.612  0.1156  0.2892  0.3579
   54GLOH   H06 8933   3.752   1.864   2.543 -1.5354  0.3963 -1.4030
   54GLOH   H07 8934   3.743   1.892   2.701  1.5005  1.8419 -0.1214
   54GLOH    O3 8935   3.674   2.053   2.588  0.0867 -0.4501  0.1148
   54GLOH   H01 8936   3.586   2.087   2.565  1.5944  3.0655 -0.8062
   55GLOH   H03 8937   2.777   9.620   1.155 -0.1385  1.9292 -0.3541
   55GLOH    O1 8938   2.689   9.589   1.127  0.1501  0.5032  0.2636
   55GLOH    C1 8939   2.616   9.598   1.246 -0.6783  0.0817  0.4292
   55GLOH   H02 8940   2.632   9.511   1.310  0.5020 -1.3774 -1.7800
   55GLOH   H08 8941   2.513   9.595   1.210 -0.0431 -0.5194 -1.3970
   55GLOH    C2 8942   2.646   9.727   1.324  0.1500 -0.4161  0.2965
   55GLOH   H04 8943   2.635   9.812   1.256  4.1012  0.7001  0.9364
   55GLOH    O2 8944   2.566   9.745   1.440  0.4089 -0.3525 -0.2440
   55GLOH   H05 8945   2.472   9.754   1.418 -0.5000  0.6639  3.5956
   55GLOH    C3 8946   2.795   9.712   1.377 -0.0902  0.0291  0.3955
   55GLOH   H06 8947   2.802   9.633   1.451 -1.1203 -0.2795  0.1684
   55GLOH   H07 8948   2.818   9.805   1.429  4.1113 -1.9731  2.3005
   55GLOH    O3 8949   2.883   9.692   1.258  0.4128 -0.3854  0.3741
   55GLOH   H01 8950   2.907   9.784   1.233 -0.6203 -0.6782 -1.7966
   56GLOH   H03 8951   8.847   4.143   0.943 -1.2831  0.7531 -0.2623
   56GLOH    O1 8952   8.863   4.236   0.965 -0.3627  0.5242  0.0901
   56GLOH    C1 8953   8.990   4.273   0.907 -0.5885  0.0530  0.0729
   56GLOH   H02 8954   8.981   4.368   0.854  1.0285 -0.2554 -0.7826
   56GLOH   H08 8955   9.025   4.204   0.830 -1.2406 -1.4275  1.0784
   56GLOH    C2 8956   9.102   4.289   1.021  0.1411 -0.0714  0.2935
   56GLOH   H04 8957   9.115   4.185   1.056 -0.1682 -1.3450 -3.1719
   56GLOH    O2 8958   9.230   4.326   0.973  0.3021 -0.0000 -0.0447
   56GLOH   H05 8959   9.242   4.283   0.887  2.6972 -1.0719  0.7727
   56GLOH    C3 8960   9.058   4.383   1.136  0.4074 -0.4521 -0.3406
   56GLOH   H06 8961   9.027   4.474   1.085  2.2808  0.4843  0.1569
   56GLOH   H07 8962   9.129   4.406   1.215  0.6595  1.4631 -1.1094
   56GLOH    O3 8963   8.938   4.319   1.191  0.3544 -0.4558  0.1163
   56GLOH   H01 8964   8.894   4.278   1.114  1.3546  0.2339 -0.8382
   57GLOH   H03 8965   0.715   6.924   0.931 -0.9432  0.0733 -1.9459
   57GLOH    O1 8966   0.631   6.902   0.976  0.2549 -0.2882  0.1933
   57GLOH    C1 8967   0.602   6.764   0.972  0.1460  0.4535  0.2700
   57GLOH   H02 8968   0.661   6.714   1.049 -0.1904 -2.8551 -1.5332
   57GLOH   H08 8969   0.643   6.720   0.881 -0.3648 -1.6718  1.0382
   57GLOH    C2 8970   0.456   6.714   0.997 -0.0109  0.3881  0.2277
   57GLOH   H04 8971   0.392   6.768   0.926  1.3183  3.0473  0.9833
   57GLOH    O2 8972   0.447   6.571   0.968  0.4666  0.0333 -0.4464
   57GLOH   H05 8973   0.354   6.548   0.954  0.5183 -0.1295 -0.5213
   57GLOH    C3 8974   0.404   6.752   1.136  0.0250 -0.0398 -0.4384
   57GLOH   H06 8975   0.412   6.858   1.161 -0.4985 -0.2196  0.5209
   57GLOH   H07 8976   0.471   6.699   1.203  0.5923  1.2528  0.0384
   57GLOH    O3 8977   0.268   6.730   1.178  0.1576 -0.6619 -0.2317
   57GLOH   H01 8978   0.204   6.767   1.116 -2.8726 -2.2532  1.8134
   58GLOH   H03 8979   9.370   5.818   1.648 -0.8282  1.0117  0.1848
   58GLOH    O1 8980   9.316   5.773   1.715 -0.1328 -0.2353 -0.0639
   58GLOH    C1 8981   9.296   5.635   1.694  0.0955 -0.0780  0.2661
   58GLOH   H02 8982   9.262   5.608   1.594 -2.4085 -1.2610  1.4017
   58GLOH   H08 8983   9.214   5.609   1.761  0.0434  1.0137  0.6347
   58GLOH    C2 8984   9.416   5.546   1.741 -0.5438 -0.3807  0.2148
   58GLOH   H04 8985   9.496   5.545   1.665 -2.1420  0.3727 -1.5301
   58GLOH    O2 8986   9.479   5.562   1.872  0.4764 -0.3855  0.5107
   58GLOH   H05 8987   9.557   5.617   1.856 -0.5312  0.8758 -0.2310
   58GLOH    C3 8988   9.374   5.396   1.743 -0.0428 -0.2239  0.2815
   58GLOH   H06 8989   9.297   5.394   1.821 -0.2290  1.2642  0.1611
   58GLOH   H07 8990   9.456   5.331   1.772  0.3291 -0.1917 -0.7189
   58GLOH    O3 8991   9.306   5.353   1.621  0.0623  0.1999 -0.1194
   58GLOH   H01 8992   9.334   5.263   1.598 -2.0164  0.1130 -2.4991
   59GLOH   H03 8993   4.606   1.006   2.307 -0.0782 -1.1357  2.9762
   59GLOH    O1 8994   4.700   1.014   2.329  0.4679 -0.0058  0.4613
   59GLOH    C1 8995   4.745   0.875   2.352 -0.0376  0.5696  0.2641
   59GLOH   H02 8996   4.830   0.878   2.421  1.4932  0.0854 -1.5445
   59GLOH   H08 8997   4.774   0.825   2.259 -0.7661  0.3527  0.1536
   59GLOH    C2 8998   4.646   0.785   2.427  0.0147  0.3182  0.2658
   59GLOH   H04 8999   4.554   0.791   2.366 -0.0645  2.1656  0.5551
   59GLOH    O2 9000   4.689   0.648   2.434  0.4863  0.3790 -0.3720
   59GLOH   H05 9001   4.734   0.624   2.351 -2.4554  0.7713 -2.1602
   59GLOH    C3 9002   4.618   0.849   2.565 -0.4337 -0.1424  0.5012
   59GLOH   H06 9003   4.578   0.949   2.546 -1.9371 -0.7707  0.2515
   59GLOH   H07 9004   4.712   0.867   2.615 -0.2708 -2.2904  1.0082
   59GLOH    O3 9005   4.524   0.780   2.646  0.0077  0.0998 -0.4418
   59GLOH   H01 9006   4.441   0.785   2.594 -2.1212  2.7163  3.0447
   60GLOH   H03 9007   4.176   4.148   0.542  0.2669  0.2586 -0.7255
   60GLOH    O1 9008   4.141   4.237   0.562 -0.3558 -0.0711 -0.3362
   60GLOH    C1 9009   4.013   4.220   0.631  0.0289 -0.4770  0.3522
   60GLOH   H02 9010   4.014   4.203   0.739  0.2915 -0.6292  0.3284
   60GLOH   H08 9011   3.962   4.133   0.588  0.0189 -0.4997  0.4092
   60GLOH    C2 9012   3.922   4.342   0.607  0.6989 -0.0244 -0.1433
   60GLOH   H04 9013   3.824   4.313   0.648  1.4572 -1.9997  0.3298
   60GLOH    O2 9014   3.960   4.463   0.681 -0.1903 -0.5183  0.6589
   60GLOH   H05 9015   3.952   4.546   0.632  2.5925 -0.3867  0.3636
   60GLOH    C3 9016   3.900   4.363   0.454 -0.5590 -0.1309  0.5137
   60GLOH   H06 9017   3.995   4.399   0.415 -0.2741 -3.7210 -2.2991
   60GLOH   H07 9018   3.828   4.445   0.444 -0.1034  0.3958  1.4388
   60GLOH    O3 9019   3.857   4.247   0.385 -0.4287  0.9482 -0.0224
   60GLOH   H01 9020   3.877   4.247   0.290 -0.2178  0.4546  0.0185
   61GLOH   H03 9021   2.780   4.751   1.004  0.3576 -0.1074 -0.4298
   61GLOH    O1 9022   2.754   4.660   0.979 -0.2218 -0.0483 -0.0598
   61GLOH    C1 9023   2.874   4.576   0.999  0.0575 -0.4721 -0.3155
   61GLOH   H02 9024   2.920   4.610   1.092 -0.8287  0.7797 -0.3305
   61GLOH   H08 9025   2.938   4.601   0.914  0.0938  1.0912  0.1583
   61GLOH    C2 9026   2.850   4.427   0.987 -0.1869  0.0948  0.9418
   61GLOH   H04 9027   2.840   4.396   0.882 -2.0652  0.1110  1.1054
   61GLOH    O2 9028   2.965   4.357   1.044 -0.3394 -0.1310 -0.0485
   61GLOH   H05 9029   2.976   4.390   1.134 -1.7323  0.2213  0.0168
   61GLOH    C3 9030   2.716   4.381   1.051 -0.2294 -0.2263 -0.2084
   61GLOH   H06 9031   2.704   4.274   1.036 -0.6328 -0.3433  0.9095
   61GLOH   H07 9032   2.631   4.425   0.999  1.1255  0.9576 -1.4929
   61GLOH    O3 9033   2.709   4.398   1.192 -0.8642 -0.1501  0.2316
   61GLOH   H01 9034   2.699   4.307   1.227  1.1719 -1.2770 -1.9556
   62GLOH   H03 9035   2.066   5.055   2.034 -0.1230 -0.7372  0.3819
   62GLOH    O1 9036   2.028   5.073   1.945  0.5598  0.1114  0.2498
   62GLOH    C1 9037   2.057   5.203   1.895 -0.1419 -0.9931  0.5554
   62GLOH   H02 9038   1.995   5.275   1.948  0.4157  0.6475 -0.9893
   62GLOH   H08 9039   2.018   5.206   1.793 -2.3992  0.1671  1.4256
   62GLOH    C2 9040   2.199   5.241   1.889 -0.6036 -0.0907 -0.6157
   62GLOH   H04 9041   2.228   5.225   1.994 -0.4198  2.0907 -0.3131
   62GLOH    O2 9042   2.265   5.146   1.797  0.0122  0.0234 -0.2885
   62GLOH   H05 9043   2.215   5.066   1.776  0.4794 -1.0490  2.4998
   62GLOH    C3 9044   2.222   5.395   1.862  0.4015  0.0697 -0.0789
   62GLOH   H06 9045   2.160   5.414   1.774 -0.3161 -2.3988 -0.1580
   62GLOH   H07 9046   2.326   5.416   1.839  0.9577 -1.0682  1.2884
   62GLOH    O3 9047   2.171   5.478   1.974  0.4608 -0.6412  0.3692
   62GLOH   H01 9048   2.216   5.458   2.058 -0.3873 -1.3685  0.6675
   63GLOH   H03 9049   0.756   8.653   1.082  1.1795  0.2236 -1.8176
   63GLOH    O1 9050   0.675   8.706   1.067  0.2978 -0.5015  0.1650
   63GLOH    C1 9051   0.709   8.849   1.046  0.0860  0.2328 -0.4672
   63GLOH   H02 9052   0.624   8.911   1.019 -0.8646 -0.6041  0.5811
   63GLOH   H08 9053   0.785   8.865   0.969  5.0294 -1.4002  3.7947
   63GLOH    C2 9054   0.760   8.914   1.178 -0.4338  0.5496 -0.4044
   63GLOH   H04 9055   0.688   8.900   1.260  0.8635 -1.5251  0.4434
   63GLOH    O2 9056   0.880   8.841   1.218  0.6395 -1.0461 -0.4602
   63GLOH   H05 9057   0.955   8.874   1.165  0.3342  0.6708  0.1376
   63GLOH    C3 9058   0.777   9.066   1.175 -0.8690  0.1079 -0.0619
   63GLOH   H06 9059   0.853   9.083   1.099 -1.1379 -1.3519 -0.6693
   63GLOH   H07 9060   0.815   9.102   1.271 -0.8768  1.2167 -0.4730
   63GLOH    O3 9061   0.655   9.135   1.133 -0.0807  0.0790 -0.0387
   63GLOH   H01 9062   0.670   9.231   1.125  2.5156 -0.0888  2.0089
   64GLOH   H03 9063   3.110   9.663   1.471 -0.4647 -0.2405 -1.7045
   64GLOH    O1 9064   3.043   9.605   1.512 -0.2081  0.2305 -0.5726
   64GLOH    C1 9065   3.050   9.481   1.444 -0.2507  0.0139 -0.1940
   64GLOH   H02 9066   3.139   9.426   1.476 -0.8000 -1.8608 -1.7698
   64GLOH   H08 9067   3.061   9.494   1.336 -1.1129 -0.1021 -0.3003
   64GLOH    C2 9068   2.929   9.386   1.465 -0.2552  0.5826  0.2759
   64GLOH   H04 9069   2.844   9.426   1.409 -1.5369 -1.0484  0.9802
   64GLOH    O2 9070   2.961   9.257   1.404 -0.2254 -0.6592 -0.0770
   64GLOH   H05 9071   2.876   9.218   1.378  0.6210 -3.3726  1.0215
   64GLOH    C3 9072   2.886   9.374   1.611 -0.2964  0.6161  0.0168
   64GLOH   H06 9073   2.962   9.320   1.668 -0.2831  0.1056 -0.4787
   64GLOH   H07 9074   2.797   9.312   1.610 -1.0618  1.7072 -1.6516
   64GLOH    O3 9075   2.861   9.508   1.661  0.0881 -0.1358  0.4703
   64GLOH   H01 9076   2.920   9.565   1.608  0.5151  1.1762  2.2829
   65GLOH   H03 9077   0.984   0.901   0.488 -2.4068 -0.2296  1.2296
   65GLOH    O1 9078   0.952   0.980   0.442  0.3927  0.0281 -0.3813
   65GLOH    C1 9079   0.862   0.939   0.334  0.4173 -0.6873  0.5392
   65GLOH   H02 9080   0.758   0.955   0.361  0.1272  2.9537 -2.3017
   65GLOH   H08 9081   0.880   0.834   0.314 -1.5411 -1.1868  1.3341
   65GLOH    C2 9082   0.899   1.023   0.207 -1.1823 -0.0300  0.2225
   65GLOH   H04 9083   0.901   1.123   0.252 -0.7812 -0.3861  1.0233
   65GLOH    O2 9084   1.033   1.000   0.150 -0.6091 -0.5894 -0.3826
   65GLOH   H05 9085   1.032   1.038   0.060 -0.4889  1.2448  0.3680
   65GLOH    C3 9086   0.793   1.021   0.093  0.6054  0.0816 -0.7224
   65GLOH   H06 9087   0.806   0.921   0.050 -1.3249 -0.4457 -0.1210
   65GLOH   H07 9088   0.824   1.089   0.014  0.0164 -0.3590 -1.3377
   65GLOH    O3 9089   0.655   1.045   0.133  0.1343 -0.1086  0.0751
   65GLOH   H01 9090   0.618   0.955   0.136  2.0068 -0.9448 -1.0491
   66GLOH   H03 9091   4.538   2.049   1.490 -2.0707  2.6358 -0.0128
   66GLOH    O1 9092   4.615   2.109   1.488 -0.2571  0.3547 -0.0729
   66GLOH    C1 9093   4.562   2.227   1.418  0.1874  0.3240  0.0852
   66GLOH   H02 9094   4.464   2.258   1.453 -0.4871 -1.0568 -0.5992
   66GLOH   H08 9095   4.552   2.212   1.311  0.7746  0.9202 -0.0633
   66GLOH    C2 9096   4.644   2.356   1.438 -0.1581 -0.2157  0.4171
   66GLOH   H04 9097   4.746   2.344   1.400 -0.0667 -1.3062  1.0111
   66GLOH    O2 9098   4.595   2.473   1.370 -0.1086 -0.1484  0.2641
   66GLOH   H05 9099   4.623   2.473   1.277 -1.0468  0.9824 -0.0307
   66GLOH    C3 9100   4.648   2.388   1.586 -0.1039 -0.4784 -0.4816
   66GLOH   H06 9101   4.543   2.403   1.613 -0.0847  0.8794 -1.1384
   66GLOH   H07 9102   4.696   2.485   1.594 -0.6040 -0.1639 -1.2433
   66GLOH    O3 9103   4.714   2.282   1.652 -0.6578  0.4330 -0.6392
   66GLOH   H01 9104   4.676   2.193   1.637  3.3295 -1.5215  0.2082
   67GLOH   H03 9105   1.852   9.895   1.136 -3.6960  1.7230  1.2880
   67GLOH    O1 9106   1.859   9.946   1.054 -0.3242 -0.0237  0.3920
   67GLOH    C1 9107   1.887   9.859   0.946 -0.2817  0.2988 -0.0849
   67GLOH   H02 9108   1.837   9.766   0.972  3.1514 -0.8167  3.0333
   67GLOH   H08 9109   1.994   9.839   0.948  0.0508  2.0382  1.8654
   67GLOH    C2 9110   1.844   9.902   0.804  0.4030 -0.3211 -0.4871
   67GLOH   H04 9111   1.866   9.828   0.727 -1.1358 -0.0415 -1.2122
   67GLOH    O2 9112   1.703   9.927   0.814 -0.0015  0.6503 -0.4478
   67GLOH   H05 9113   1.675   9.957   0.726 -1.5882  0.7175  0.0643
   67GLOH    C3 9114   1.925  10.027   0.757 -0.3696  0.5279 -0.3704
   67GLOH   H06 9115   2.021  10.025   0.808  0.1873 -1.2605 -1.4278
   67GLOH   H07 9116   1.872  10.108   0.806  0.8563  0.8166  0.4928
   67GLOH    O3 9117   1.942  10.038   0.616  0.1942 -0.2518 -0.2468
   67GLOH   H01 9118   1.968  10.127   0.587 -0.3721 -0.3888 -1.2272
   68GLOH   H03 9119   0.768   2.121   0.361 -0.5566  0.7465  0.7981
   68GLOH    O1 9120   0.809   2.065   0.429  0.3375 -0.0070 -0.3308
   68GLOH    C1 9121   0.914   2.141   0.496  0.5100 -0.5423  0.1271
   68GLOH   H02 9122   0.876   2.205   0.576 -1.2350 -0.5588 -0.6639
   68GLOH   H08 9123   0.971   2.203   0.427 -0.8886  2.0134  1.1814
   68GLOH    C2 9124   1.015   2.042   0.549 -0.8029 -0.0472 -0.8255
   68GLOH   H04 9125   1.057   1.981   0.468  1.7961 -0.4241  0.7657
   68GLOH    O2 9126   1.126   2.125   0.599 -0.0164 -0.3795  0.6997
   68GLOH   H05 9127   1.193   2.075   0.649 -0.4155 -0.0370  1.5759
   68GLOH    C3 9128   0.963   1.945   0.656 -0.0308  0.4567 -0.3321
   68GLOH   H06 9129   0.923   2.007   0.737 -0.7352 -0.5597  0.1058
   68GLOH   H07 9130   1.054   1.900   0.696  0.3049 -0.3350 -1.9838
   68GLOH    O3 9131   0.864   1.861   0.599 -0.0745  0.5631 -0.1112
   68GLOH   H01 9132   0.840   1.901   0.514 -2.2046 -0.1007  0.1269
   69GLOH   H03 9133   4.300   4.859   2.520  0.5864 -2.0137 -1.4316
   69GLOH    O1 9134   4.238   4.842   2.446 -0.9207 -0.5730 -0.5310
   69GLOH    C1 9135   4.120   4.925   2.459 -0.5609  0.2190  0.5221
   69GLOH   H02 9136   4.063   4.915   2.367 -0.9932  0.4561  0.7634
   69GLOH   H08 9137   4.153   5.028   2.473  0.1720 -0.2198  2.0873
   69GLOH    C2 9138   4.038   4.889   2.588  0.3764 -0.0929  0.6740
   69GLOH   H04 9139   4.016   4.781   2.587  0.6728 -0.1386 -2.1152
   69GLOH    O2 9140   4.121   4.903   2.700  0.0541 -0.1794 -0.3193
   69GLOH   H05 9141   4.097   4.838   2.769 -0.2821 -0.2637 -0.5145
   69GLOH    C3 9142   3.913   4.981   2.609 -0.2783 -0.3137  0.3947
   69GLOH   H06 9143   3.947   5.084   2.617 -1.3340  0.2124 -1.6422
   69GLOH   H07 9144   3.862   4.955   2.702 -1.7598  1.3138  0.0428
   69GLOH    O3 9145   3.820   4.970   2.496 -0.5111 -0.7269 -0.0777
   69GLOH   H01 9146   3.761   4.894   2.517  0.8417 -2.2990 -1.8275
   70GLOH   H03 9147   4.984   4.671   0.294  0.2032 -0.6312 -0.2436
   70GLOH    O1 9148   5.043   4.712   0.359  0.1842 -0.2815 -0.4475
   70GLOH    C1 9149   5.173   4.648   0.372  0.0871 -0.2317  0.0363
   70GLOH   H02 9150   5.245   4.723   0.339 -1.2529  1.7234  1.4628
   70GLOH   H08 9151   5.168   4.560   0.308 -1.8341  1.1023 -1.7278
   70GLOH    C2 9152   5.202   4.602   0.517 -0.3025 -1.2287 -0.7262
   70GLOH   H04 9153   5.121   4.534   0.547 -1.8115 -0.2700 -2.4835
   70GLOH    O2 9154   5.329   4.541   0.521  0.7445 -0.4273 -0.1478
   70GLOH   H05 9155   5.331   4.464   0.460  2.1579 -1.7678  1.5286
   70GLOH    C3 9156   5.191   4.718   0.624 -0.8695  0.2923  0.0406
   70GLOH   H06 9157   5.257   4.804   0.610 -0.0107 -0.5394 -1.0295
   70GLOH   H07 9158   5.208   4.681   0.726 -0.9288  1.3627  0.4498
   70GLOH    O3 9159   5.057   4.774   0.614  0.0089  0.3693 -0.1209
   70GLOH   H01 9160   5.026   4.772   0.522 -1.3902  1.6321  0.3062
   71GLOH   H03 9161   9.599   3.762   2.552 -1.9086  1.3037 -0.1728
   71GLOH    O1 9162   9.599   3.766   2.455 -0.6816  0.1277 -0.2281
   71GLOH    C1 9163   9.604   3.897   2.393 -0.0122  0.0903  0.3724
   71GLOH   H02 9164   9.559   3.966   2.464 -1.7554 -0.2784 -0.3542
   71GLOH   H08 9165   9.545   3.895   2.301 -0.5764 -1.2441  0.7468
   71GLOH    C2 9166   9.749   3.933   2.366 -0.1773  0.2982 -0.0314
   71GLOH   H04 9167   9.736   4.025   2.308 -0.7154  0.2554  0.0188
   71GLOH    O2 9168   9.823   3.964   2.487 -0.4232  0.1012 -0.5273
   71GLOH   H05 9169   9.876   3.896   2.530 -2.4909 -0.6634  0.9083
   71GLOH    C3 9170   9.820   3.833   2.277  0.3429  0.3206  0.1052
   71GLOH   H06 9171   9.850   3.739   2.323  0.5806 -0.9366 -2.5257
   71GLOH   H07 9172   9.914   3.879   2.248  0.7987  0.0932  1.1894
   71GLOH    O3 9173   9.741   3.806   2.163 -0.0103  0.4261  0.7096
   71GLOH   H01 9174   9.677   3.734   2.178  0.8879 -0.4175  0.5770
   72GLOH   H03 9175   8.715   7.363   1.968  0.0430  0.1148 -0.3134
   72GLOH    O1 9176   8.669   7.440   2.006 -0.0584 -0.1290  0.0627
   72GLOH    C1 9177   8.768   7.534   2.050 -0.2655  0.8951  0.5399
   72GLOH   H02 9178   8.865   7.488   2.070  0.8287  2.6311 -0.6082
   72GLOH   H08 9179   8.743   7.590   2.140 -0.8461 -0.6694  1.3621
   72GLOH    C2 9180   8.797   7.635   1.938  0.0982  0.4162  0.4283
   72GLOH   H04 9181   8.702   7.666   1.893 -0.4270 -3.2120 -1.1432
   72GLOH    O2 9182   8.874   7.747   1.989 -0.2315  0.4163  0.2216
   72GLOH   H05 9183   8.833   7.825   1.949  0.4046 -0.0675 -1.4462
   72GLOH    C3 9184   8.889   7.568   1.831 -0.6857 -0.2701  0.1322
   72GLOH   H06 9185   8.878   7.459   1.839  0.5947 -0.3000  1.9489
   72GLOH   H07 9186   8.993   7.592   1.854 -0.9564  0.9175  0.1236
   72GLOH    O3 9187   8.861   7.618   1.699  0.2212 -0.4104  0.2254
   72GLOH   H01 9188   8.882   7.713   1.691  1.3686 -0.6804 -0.0180
   73GLOH   H03 9189   9.406   6.860   0.963 -0.5807 -1.1803  2.1754
   73GLOH    O1 9190   9.318   6.826   0.941 -0.3073 -0.6618  0.1153
   73GLOH    C1 9191   9.328   6.739   0.825 -0.1007 -0.2013 -0.3105
   73GLOH   H02 9192   9.414   6.672   0.827  0.3054  0.3237 -0.1373
   73GLOH   H08 9193   9.344   6.803   0.739  0.4409 -0.3000 -0.2849
   73GLOH    C2 9194   9.195   6.665   0.794 -0.0785 -0.4047 -0.2302
   73GLOH   H04 9195   9.105   6.727   0.798 -0.9258 -1.5868 -0.6456
   73GLOH    O2 9196   9.208   6.601   0.663  0.3914 -0.4743  0.1612
   73GLOH   H05 9197   9.123   6.617   0.618 -0.4129 -1.8706  1.1393
   73GLOH    C3 9198   9.171   6.559   0.902  0.0765  0.1250 -0.5726
   73GLOH   H06 9199   9.255   6.490   0.914 -1.2418 -1.4264 -0.1333
   73GLOH   H07 9200   9.077   6.513   0.871 -0.9446  1.9170 -0.1916
   73GLOH    O3 9201   9.160   6.632   1.023 -0.3538 -0.0968  0.6099
   73GLOH   H01 9202   9.215   6.712   1.019 -1.6862  0.9630  2.4953
   74GLOH   H03 9203   4.201   4.590   1.050  1.6041 -1.0886 -2.2202
   74GLOH    O1 9204   4.176   4.667   0.996  0.0544 -0.1421 -0.2291
   74GLOH    C1 9205   4.061   4.734   1.046  0.3832 -0.3071  0.2266
   74GLOH   H02 9206   4.075   4.762   1.151 -1.7138 -0.0600  0.4536
   74GLOH   H08 9207   3.982   4.659   1.040 -1.0376  1.1757  0.0609
   74GLOH    C2 9208   4.006   4.846   0.957 -0.2409 -0.3009  1.2131
   74GLOH   H04 9209   3.908   4.876   0.997  0.0071  1.5792  0.4745
   74GLOH    O2 9210   4.098   4.956   0.976  0.2378 -0.4610 -0.6761
   74GLOH   H05 9211   4.187   4.918   0.968 -0.0415 -0.8091 -2.1659
   74GLOH    C3 9212   3.994   4.791   0.816  0.4377  0.5794  1.1105
   74GLOH   H06 9213   3.951   4.691   0.814 -1.1569  1.2554 -0.7575
   74GLOH   H07 9214   4.096   4.783   0.777 -0.0005  0.9427 -0.1616
   74GLOH    O3 9215   3.912   4.882   0.730 -0.5445  0.3977  1.0834
   74GLOH   H01 9216   3.952   4.971   0.736  0.4354  0.3012 -2.8506
   75GLOH   H03 9217   2.516   9.040   0.798 -0.3411 -0.3817  1.6507
   75GLOH    O1 9218   2.599   9.065   0.843  0.1536  0.6690  0.1871
   75GLOH    C1 9219   2.694   9.130   0.749 -0.3142  0.3491 -0.3574
   75GLOH   H02 9220   2.689   9.081   0.652 -2.1293 -2.1926  0.9683
   75GLOH   H08 9221   2.793   9.102   0.785 -1.6226 -0.3933  2.9103
   75GLOH    C2 9222   2.690   9.279   0.722 -0.0553  0.2462 -0.0070
   75GLOH   H04 9223   2.717   9.333   0.814 -2.0381 -0.8633  1.2734
   75GLOH    O2 9224   2.780   9.306   0.614 -0.5097  0.0914  0.0764
   75GLOH   H05 9225   2.754   9.393   0.579  1.7183  1.3757  1.4732
   75GLOH    C3 9226   2.544   9.320   0.694  0.6028  0.1704  0.4482
   75GLOH   H06 9227   2.487   9.305   0.785  1.8540  0.2402  1.2564
   75GLOH   H07 9228   2.498   9.247   0.627 -3.1559  0.5771  2.4669
   75GLOH    O3 9229   2.519   9.457   0.656 -0.1768 -0.0291 -0.0196
   75GLOH   H01 9230   2.535   9.519   0.730 -2.9064  2.1395 -1.1264
   76GLOH   H03 9231   2.130   1.650   1.065 -1.2949 -0.6139 -0.2196
   76GLOH    O1 9232   2.073   1.623   1.139 -0.3300 -1.4017  0.2529
   76GLOH    C1 9233   2.148   1.550   1.232 -0.6391  0.0411 -0.2160
   76GLOH   H02 9234   2.240   1.602   1.260  1.4689 -1.8958 -3.1289
   76GLOH   H08 9235   2.188   1.460   1.185 -0.2399  1.0176 -1.7809
   76GLOH    C2 9236   2.066   1.506   1.355  0.1431 -1.4195  0.4305
   76GLOH   H04 9237   1.980   1.449   1.318  0.6094 -0.9808 -1.3503
   76GLOH    O2 9238   2.155   1.436   1.436  0.4038 -0.0517  0.2185
   76GLOH   H05 9239   2.112   1.395   1.514 -1.4136  1.7897  0.2089
   76GLOH    C3 9240   2.004   1.619   1.435 -0.3924 -0.1521 -0.0767
   76GLOH   H06 9241   2.076   1.666   1.502  0.1358  0.3366 -0.9692
   76GLOH   H07 9242   1.918   1.581   1.490 -1.2911 -0.4160 -1.6208
   76GLOH    O3 9243   1.942   1.717   1.352 -0.4829 -0.3146 -0.1600
   76GLOH   H01 9244   1.980   1.703   1.263  0.5044  1.0356  0.0236
   77GLOH   H03 9245   8.806   6.692   2.191  2.5357 -1.1640 -1.6631
   77GLOH    O1 9246   8.770   6.617   2.241  0.4384  0.8363 -0.0844
   77GLOH    C1 9247   8.819   6.623   2.378  0.3207 -0.5617 -0.3688
   77GLOH   H02 9248   8.767   6.708   2.422 -0.3740 -0.8757 -0.5779
   77GLOH   H08 9249   8.924   6.651   2.370 -0.7875  4.4764  0.9220
   77GLOH    C2 9250   8.784   6.507   2.467 -0.1075  0.9233  0.6672
   77GLOH   H04 9251   8.819   6.412   2.425 -0.7216  0.8176  0.3891
   77GLOH    O2 9252   8.843   6.515   2.597 -0.2461  0.0198 -0.2253
   77GLOH   H05 9253   8.912   6.448   2.614  0.9571  1.4937  0.8983
   77GLOH    C3 9254   8.632   6.505   2.475  0.4382  0.0950  0.2605
   77GLOH   H06 9255   8.609   6.604   2.516  0.8751  0.5341 -0.5401
   77GLOH   H07 9256   8.593   6.433   2.547 -1.3843 -1.5772 -2.3441
   77GLOH    O3 9257   8.578   6.479   2.347  0.4616 -0.2521  0.0856
   77GLOH   H01 9258   8.639   6.537   2.298  1.7967 -0.5143  1.4053
   78GLOH   H03 9259   0.698   8.052   2.224  1.1970  0.4282  0.4692
   78GLOH    O1 9260   0.617   8.101   2.244  0.6955 -0.0749 -0.2955
   78GLOH    C1 9261   0.572   8.167   2.126  0.5577  0.2827 -0.0097
   78GLOH   H02 9262   0.552   8.097   2.045  1.1241  1.1572 -0.9075
   78GLOH   H08 9263   0.641   8.247   2.097 -1.6024  1.9913 -0.5180
   78GLOH    C2 9264   0.443   8.240   2.150  0.6267 -0.2561  0.1930
   78GLOH   H04 9265   0.443   8.292   2.247  0.4502 -0.2087  0.1683
   78GLOH    O2 9266   0.416   8.331   2.041  0.1090 -0.0968 -0.3376
   78GLOH   H05 9267   0.411   8.292   1.953 -2.6059  1.3374 -0.8701
   78GLOH    C3 9268   0.319   8.147   2.150  0.2052 -0.4939 -0.0779
   78GLOH   H06 9269   0.299   8.124   2.045  3.4494 -1.1348 -0.6041
   78GLOH   H07 9270   0.237   8.202   2.197 -1.3397 -0.5209 -2.6422
   78GLOH    O3 9271   0.330   8.019   2.214  0.5363  0.0165  0.7759
   78GLOH   H01 9272   0.357   8.023   2.307 -2.2455  0.5068  1.6104
   79GLOH   H03 9273   4.749   2.102   0.593 -0.4319  0.0932 -0.8012
   79GLOH    O1 9274   4.772   2.009   0.615 -0.0868  0.3042 -0.2604
   79GLOH    C1 9275   4.850   2.015   0.740 -0.4999 -0.5862 -0.3102
   79GLOH   H02 9276   4.937   2.079   0.726 -0.6036 -1.0428 -3.6030
   79GLOH   H08 9277   4.888   1.914   0.755 -1.4406 -0.9309 -0.1813
   79GLOH    C2 9278   4.760   2.076   0.851  0.9760  0.3569 -0.4792
   79GLOH   H04 9279   4.741   2.175   0.807  0.7770  0.3765 -0.3511
   79GLOH    O2 9280   4.630   2.016   0.875  0.0224 -0.3140 -0.3375
   79GLOH   H05 9281   4.576   2.078   0.927 -0.9333 -0.4291 -1.1897
   79GLOH    C3 9282   4.839   2.096   0.986 -0.1025  0.0761  0.4106
   79GLOH   H06 9283   4.867   1.999   1.027  0.3107 -0.4105 -0.9825
   79GLOH   H07 9284   4.778   2.145   1.061 -0.3279  0.9092 -0.3076
   79GLOH    O3 9285   4.954   2.186   0.970 -0.5077 -0.0750 -0.2173
   79GLOH   H01 9286   4.986   2.219   1.056  0.3364 -0.9522 -0.1809
   80GLOH   H03 9287  10.237   6.644   1.312  1.8280 -1.3808 -0.1472
   80GLOH    O1 9288  10.240   6.620   1.407 -0.3382 -0.2320  0.2359
   80GLOH    C1 9289  10.351   6.696   1.460  0.2787  0.2748  0.3446
   80GLOH   H02 9290  10.343   6.798   1.421  0.7413  0.4749  0.7787
   80GLOH   H08 9291  10.445   6.656   1.422  0.1829 -0.5833  1.0051
   80GLOH    C2 9292  10.333   6.717   1.609  0.9908 -0.5869 -0.6706
   80GLOH   H04 9293  10.425   6.762   1.651  1.4269 -3.1352  1.2275
   80GLOH    O2 9294  10.226   6.813   1.639  0.1262  0.1127  0.5228
   80GLOH   H05 9295  10.207   6.864   1.558 -1.8851  1.8318  2.0508
   80GLOH    C3 9296  10.297   6.584   1.684 -0.9474 -0.3889 -0.1196
   80GLOH   H06 9297  10.200   6.553   1.646 -0.7272 -1.6712  0.3424
   80GLOH   H07 9298  10.289   6.613   1.788 -0.0199  1.7226 -0.6022
   80GLOH    O3 9299  10.409   6.491   1.670  0.3239  0.0634 -0.3209
   80GLOH   H01 9300  10.402   6.441   1.587  1.0340 -0.8143  0.1382
   81GLOH   H03 9301   4.429   1.413   0.726 -0.0462 -0.3208  1.0393
   81GLOH    O1 9302   4.383   1.484   0.774 -0.2779 -0.0880  0.4740
   81GLOH    C1 9303   4.462   1.608   0.766  0.2217  0.1135 -0.1475
   81GLOH   H02 9304   4.561   1.587   0.807  0.6505  0.8825 -0.7874
   81GLOH   H08 9305   4.427   1.685   0.834  3.8812  1.2819  0.5409
   81GLOH    C2 9306   4.470   1.667   0.622  0.1713  0.3295  0.3768
   81GLOH   H04 9307   4.512   1.600   0.546  2.6728  2.1339  0.0725
   81GLOH    O2 9308   4.336   1.700   0.577  0.4784  0.0183 -0.0173
   81GLOH   H05 9309   4.344   1.759   0.500  1.8206 -1.2249 -0.8585
   81GLOH    C3 9310   4.564   1.790   0.624  0.2957 -0.0754  0.0874
   81GLOH   H06 9311   4.514   1.862   0.689  2.1767  1.3474 -0.0042
   81GLOH   H07 9312   4.560   1.837   0.526  1.6645 -1.7675 -0.8070
   81GLOH    O3 9313   4.696   1.762   0.666  0.0517  0.2293  0.1635
   81GLOH   H01 9314   4.744   1.846   0.655 -0.4197  0.7626  2.0714
   82GLOH   H03 9315   1.613   6.405   1.018  0.7913 -0.5215  0.2757
   82GLOH    O1 9316   1.570   6.318   1.029  0.0057 -0.1780 -0.0926
   82GLOH    C1 9317   1.546   6.299   1.170  0.6234  0.3028  0.2310
   82GLOH   H02 9318   1.518   6.194   1.183 -4.6442  1.4676 -0.2573
   82GLOH   H08 9319   1.463   6.362   1.201 -0.4655 -1.0264  0.0769
   82GLOH    C2 9320   1.660   6.331   1.276  0.4076  0.3187 -1.0018
   82GLOH   H04 9321   1.670   6.440   1.287  3.5324  0.0170 -0.3715
   82GLOH    O2 9322   1.634   6.281   1.404  0.6632 -0.2948 -0.7252
   82GLOH   H05 9323   1.698   6.319   1.468 -0.2018  0.8334 -0.5092
   82GLOH    C3 9324   1.800   6.298   1.224  0.3464 -0.2528 -0.5321
   82GLOH   H06 9325   1.805   6.193   1.196 -0.0066 -0.4584  0.1600
   82GLOH   H07 9326   1.870   6.302   1.307 -0.3464  1.4731 -0.0258
   82GLOH    O3 9327   1.839   6.386   1.117 -0.3927  0.0673  0.3797
   82GLOH   H01 9328   1.922   6.352   1.079 -2.0518 -1.8894 -1.6617
   83GLOH   H03 9329   1.073   1.208   1.044 -0.3346  1.3487 -1.5134
   83GLOH    O1 9330   1.034   1.153   0.975 -0.3357 -0.2545 -0.2545
   83GLOH    C1 9331   1.050   1.019   1.014 -0.2993  0.7592  0.7878
   83GLOH   H02 9332   0.986   0.989   1.097 -0.3901 -2.1218 -0.2622
   83GLOH   H08 9333   1.151   1.008   1.053 -0.0601  1.0073  0.2418
   83GLOH    C2 9334   1.030   0.909   0.904  0.4135 -0.6631 -0.3923
   83GLOH   H04 9335   1.089   0.947   0.820 -0.5844  2.6372  0.3399
   83GLOH    O2 9336   1.064   0.777   0.961 -0.3333 -0.0683  0.0632
   83GLOH   H05 9337   1.159   0.756   0.956  0.4966  3.1524  1.3250
   83GLOH    C3 9338   0.885   0.909   0.865  0.2853  0.0599  0.3701
   83GLOH   H06 9339   0.821   0.866   0.941 -0.8064  1.0400  0.0299
   83GLOH   H07 9340   0.890   0.839   0.782  1.8890 -1.4951  1.7693
   83GLOH    O3 9341   0.833   1.039   0.831  0.2230  0.1406 -0.2464
   83GLOH   H01 9342   0.890   1.101   0.880  0.8728  0.4491 -1.3890
   84GLOH   H03 9343   0.443   3.146   2.374 -1.1384 -1.8552 -2.7709
   84GLOH    O1 9344   0.477   3.203   2.303 -0.2217  0.3116 -0.6661
   84GLOH    C1 9345   0.450   3.344   2.318 -0.1034  0.0027  0.5117
   84GLOH   H02 9346   0.487   3.379   2.414 -1.0279 -1.1585  1.3114
   84GLOH   H08 9347   0.342   3.362   2.325 -0.8438 -3.1034 -1.7130
   84GLOH    C2 9348   0.506   3.429   2.205  0.3963  0.7517  0.2737
   84GLOH   H04 9349   0.457   3.403   2.110 -2.4436  1.3406  1.5254
   84GLOH    O2 9350   0.479   3.565   2.249  0.2001  0.2400  0.3548
   84GLOH   H05 9351   0.562   3.614   2.245  1.0821 -1.1630  1.0056
   84GLOH    C3 9352   0.658   3.413   2.192  0.4764 -0.1073 -0.1485
   84GLOH   H06 9353   0.691   3.453   2.096  1.4550  1.3490  0.7627
   84GLOH   H07 9354   0.667   3.305   2.184 -0.6480 -0.1903 -0.3353
   84GLOH    O3 9355   0.746   3.461   2.294  0.0224 -0.4446  0.0530
   84GLOH   H01 9356   0.767   3.383   2.349 -2.7895  0.1723  2.1364
   85GLOH   H03 9357   3.655   5.853   1.381  0.5108 -0.4774 -0.7329
   85GLOH    O1 9358   3.636   5.896   1.296 -0.2204  1.0637  0.1884
   85GLOH    C1 9359   3.492   5.909   1.284 -0.0201  0.2802  0.1008
   85GLOH   H02 9360   3.450   5.926   1.383  0.1222 -3.6081  0.8745
   85GLOH   H08 9361   3.443   5.825   1.235  0.3719 -0.2298  0.5811
   85GLOH    C2 9362   3.437   6.026   1.201  0.7500 -0.4186  0.3789
   85GLOH   H04 9363   3.472   6.013   1.097 -0.4699  2.0481 -0.4010
   85GLOH    O2 9364   3.293   6.027   1.208 -0.4208  0.4034  0.6084
   85GLOH   H05 9365   3.261   5.955   1.150 -0.0724 -0.0029  0.9129
   85GLOH    C3 9366   3.492   6.166   1.250 -0.3220  0.5497  0.1124
   85GLOH   H06 9367   3.601   6.157   1.249 -0.3850 -0.4526  1.1507
   85GLOH   H07 9368   3.469   6.177   1.356 -2.7315 -1.9695 -0.1206
   85GLOH    O3 9369   3.468   6.279   1.162 -0.0481  0.2220  0.2966
   85GLOH   H01 9370   3.442   6.354   1.219  2.5562  1.7904 -0.5090
   86GLOH   H03 9371   9.559   5.818   1.237 -0.3123  1.5609  0.3311
   86GLOH    O1 9372   9.598   5.852   1.154  0.1624 -0.0496 -0.1242
   86GLOH    C1 9373   9.581   5.754   1.047 -0.1796  0.4614 -0.1757
   86GLOH   H02 9374   9.593   5.794   0.947  2.5656  0.4646  0.1373
   86GLOH   H08 9375   9.476   5.724   1.046 -0.2653  0.7142  0.7396
   86GLOH    C2 9376   9.673   5.629   1.071 -0.5740 -0.2964 -0.1499
   86GLOH   H04 9377   9.650   5.586   1.170  0.9147  0.3026  0.4812
   86GLOH    O2 9378   9.649   5.529   0.969  0.7034 -0.5679  0.0339
   86GLOH   H05 9379   9.648   5.441   1.011 -0.0675  0.2697  1.8496
   86GLOH    C3 9380   9.824   5.662   1.064 -0.6374  0.1578  0.4755
   86GLOH   H06 9381   9.848   5.714   0.971  0.9139 -0.8124  0.3078
   86GLOH   H07 9382   9.871   5.564   1.058 -1.2720 -0.1718  0.8726
   86GLOH    O3 9383   9.878   5.727   1.179  0.5523 -0.5006 -0.6971
   86GLOH   H01 9384   9.852   5.668   1.252  1.4921 -1.4462 -1.1077
   87GLOH   H03 9385   9.913   5.753   1.994  0.8187 -1.7415 -0.0703
   87GLOH    O1 9386   9.984   5.776   1.932  0.1749 -0.3048 -0.2848
   87GLOH    C1 9387  10.095   5.776   2.012  0.0529  0.1322  0.6498
   87GLOH   H02 9388  10.175   5.750   1.943 -3.1703  1.3366 -3.7862
   87GLOH   H08 9389  10.090   5.720   2.105 -0.0628  0.3047  0.7471
   87GLOH    C2 9390  10.146   5.912   2.052  0.5285  0.0863 -0.9022
   87GLOH   H04 9391  10.175   5.966   1.960  0.9398  1.1196 -0.1743
   87GLOH    O2 9392  10.045   5.978   2.130  0.6585  0.2612 -0.3848
   87GLOH   H05 9393  10.056   5.963   2.225 -1.0469  1.2093 -0.0045
   87GLOH    C3 9394  10.274   5.896   2.140  0.9242 -0.4226 -0.4130
   87GLOH   H06 9395  10.242   5.832   2.223  0.8930 -2.2561 -1.7941
   87GLOH   H07 9396  10.306   5.995   2.172  0.0889  0.3123 -1.8120
   87GLOH    O3 9397  10.380   5.821   2.083  0.0701  0.4258  0.3288
   87GLOH   H01 9398  10.351   5.728   2.085  2.1239 -0.2532  0.1799
   88GLOH   H03 9399   5.239   3.791   0.917 -1.7570 -0.6686 -0.2416
   88GLOH    O1 9400   5.240   3.831   1.006 -0.2821 -0.2870 -0.4148
   88GLOH    C1 9401   5.115   3.897   1.034  0.1775  0.7952 -0.0443
   88GLOH   H02 9402   5.044   3.820   1.065 -1.1125  1.9330 -0.1269
   88GLOH   H08 9403   5.079   3.946   0.944 -1.2194  1.7137  1.0095
   88GLOH    C2 9404   5.143   3.990   1.157  0.2493  0.0631 -0.1016
   88GLOH   H04 9405   5.233   4.053   1.153  1.6943 -2.1100 -3.1405
   88GLOH    O2 9406   5.023   4.069   1.171  0.2363  0.0709 -0.2758
   88GLOH   H05 9407   5.007   4.124   1.092 -0.3238  1.7752  0.9789
   88GLOH    C3 9408   5.165   3.906   1.282 -0.1825 -0.2689 -0.1864
   88GLOH   H06 9409   5.069   3.874   1.324  0.2071  0.2885  1.1664
   88GLOH   H07 9410   5.200   3.981   1.353 -0.4321 -0.6200  0.3082
   88GLOH    O3 9411   5.257   3.795   1.275  0.3918  0.1154  0.1538
   88GLOH   H01 9412   5.269   3.794   1.178  0.1920 -1.4886  0.1311
   89GLOH   H03 9413   3.414   1.012   1.275  2.7145  0.9818 -1.5945
   89GLOH    O1 9414   3.353   1.028   1.200  0.0309  0.4196  0.3682
   89GLOH    C1 9415   3.436   1.058   1.086 -0.1531  0.1610  0.4042
   89GLOH   H02 9416   3.481   1.157   1.101  0.4971 -0.3653  2.0657
   89GLOH   H08 9417   3.373   1.064   0.997  1.8340 -2.3302 -1.2268
   89GLOH    C2 9418   3.559   0.967   1.062  0.0853 -0.1855 -0.3071
   89GLOH   H04 9419   3.513   0.873   1.029  0.1723  0.1034 -1.2492
   89GLOH    O2 9420   3.640   1.028   0.958 -0.1874 -0.0815 -0.5619
   89GLOH   H05 9421   3.648   0.962   0.887  1.4709  0.1168 -0.5794
   89GLOH    C3 9422   3.628   0.934   1.199  0.2209  0.4622  0.4245
   89GLOH   H06 9423   3.694   1.018   1.224 -1.0517  2.1880 -1.7683
   89GLOH   H07 9424   3.697   0.853   1.175 -0.5151  0.2668 -1.1239
   89GLOH    O3 9425   3.548   0.905   1.312  0.0834 -0.1723  0.1088
   89GLOH   H01 9426   3.506   0.817   1.304 -2.7948  1.1871 -0.4009
   90GLOH   H03 9427   4.321   2.523   1.790 -1.4323 -0.0373  2.6931
   90GLOH    O1 9428   4.348   2.430   1.799 -0.5074 -0.0805 -0.3253
   90GLOH    C1 9429   4.270   2.360   1.695 -0.1539 -0.2929  0.5267
   90GLOH   H02 9430   4.323   2.338   1.603 -2.9574  1.3278 -1.5379
   90GLOH   H08 9431   4.195   2.432   1.664  0.0044 -0.2792  0.1718
   90GLOH    C2 9432   4.204   2.233   1.747  0.4978  0.4060  0.2645
   90GLOH   H04 9433   4.253   2.191   1.837 -1.8320  0.8538  1.7983
   90GLOH    O2 9434   4.069   2.247   1.777  0.3188  0.1863 -0.4068
   90GLOH   H05 9435   4.044   2.164   1.822  0.7531  0.2357 -0.0689
   90GLOH    C3 9436   4.201   2.132   1.628 -0.5473 -0.6613  0.1732
   90GLOH   H06 9437   4.137   2.169   1.548 -0.3423  0.2535  0.4291
   90GLOH   H07 9438   4.150   2.045   1.670 -1.4229 -0.3447 -0.2192
   90GLOH    O3 9439   4.327   2.098   1.584  0.1848  0.1236  0.4383
   90GLOH   H01 9440   4.324   2.077   1.489 -1.1856  0.0091  0.5062
   91GLOH   H03 9441   4.762   2.810   0.488 -1.6854  0.0527 -0.1284
   91GLOH    O1 9442   4.792   2.799   0.580 -0.0756 -0.2442 -0.6607
   91GLOH    C1 9443   4.768   2.930   0.648 -0.7575 -0.6000  0.0289
   91GLOH   H02 9444   4.660   2.943   0.648 -0.5836  1.0262 -0.5315
   91GLOH   H08 9445   4.801   3.018   0.592 -0.4996 -0.6775  0.0577
   91GLOH    C2 9446   4.851   2.932   0.780 -0.1491  0.2762  0.2451
   91GLOH   H04 9447   4.959   2.918   0.761 -0.6823 -1.6314 -1.5605
   91GLOH    O2 9448   4.836   3.054   0.851 -0.5875 -0.1417 -0.3908
   91GLOH   H05 9449   4.762   3.042   0.912  1.9712  2.0161  3.3409
   91GLOH    C3 9450   4.809   2.810   0.861 -0.0261 -0.1197  0.5202
   91GLOH   H06 9451   4.706   2.832   0.890  0.6525  1.4923  1.8362
   91GLOH   H07 9452   4.865   2.810   0.955  0.7873  0.2396  0.0429
   91GLOH    O3 9453   4.823   2.677   0.802 -0.2925 -0.0689  0.0360
   91GLOH   H01 9454   4.828   2.697   0.706  2.4395  0.0303  0.1586
   92GLOH   H03 9455   4.835   3.032   2.621 -2.9572  0.5523 -1.0160
   92GLOH    O1 9456   4.818   3.021   2.716 -0.7016  0.4990 -0.5811
   92GLOH    C1 9457   4.784   3.136   2.786  0.1156 -0.0553  0.3969
   92GLOH   H02 9458   4.866   3.193   2.830 -0.3231  0.9482 -0.0720
   92GLOH   H08 9459   4.726   3.109   2.874  0.0510  2.0490  1.0165
   92GLOH    C2 9460   4.682   3.224   2.714  0.0686  0.7480 -0.6887
   92GLOH   H04 9461   4.715   3.246   2.611  0.1312 -0.4842 -0.9411
   92GLOH    O2 9462   4.547   3.159   2.704 -0.1239  0.2233 -0.0193
   92GLOH   H05 9463   4.488   3.203   2.640 -0.3767 -1.3978 -0.9423
   92GLOH    C3 9464   4.674   3.364   2.787  0.2010 -0.0065 -0.1324
   92GLOH   H06 9465   4.641   3.345   2.889  0.6422 -1.1314 -0.1852
   92GLOH   H07 9466   4.613   3.432   2.728  2.2607  1.2258 -0.8934
   92GLOH    O3 9467   4.799   3.436   2.787 -0.1761  1.1642 -0.0639
   92GLOH   H01 9468   4.813   3.483   2.703  1.1280  2.3890  0.8215
   93GLOH   H03 9469   3.664   8.496   1.846 -0.1886  1.0279  1.2438
   93GLOH    O1 9470   3.748   8.469   1.887  0.1807 -0.1159 -0.2100
   93GLOH    C1 9471   3.774   8.534   2.011 -0.1427 -0.5357 -0.5222
   93GLOH   H02 9472   3.684   8.528   2.073  0.7268  3.7395  1.3224
   93GLOH   H08 9473   3.788   8.642   2.004  1.4047 -0.6199  1.2300
   93GLOH    C2 9474   3.884   8.468   2.095  0.2341  0.1153  0.1462
   93GLOH   H04 9475   3.965   8.461   2.021 -1.0069 -0.6929 -1.1689
   93GLOH    O2 9476   3.912   8.549   2.209 -0.1535 -0.0613  0.3178
   93GLOH   H05 9477   3.943   8.637   2.183  0.3882 -0.3436 -0.0007
   93GLOH    C3 9478   3.830   8.333   2.141  0.0967 -0.1306 -0.3030
   93GLOH   H06 9479   3.743   8.355   2.202  0.5745 -0.7240  0.6096
   93GLOH   H07 9480   3.908   8.286   2.201  1.8736  1.0853 -1.5885
   93GLOH    O3 9481   3.791   8.255   2.024  0.0054 -0.7326  0.0576
   93GLOH   H01 9482   3.782   8.309   1.943 -0.5322  1.7949  1.7770
   94GLOH   H03 9483   4.782   9.432   0.524  1.1009  1.0452  0.6259
   94GLOH    O1 9484   4.746   9.507   0.473 -0.4241  0.1004  0.2768
   94GLOH    C1 9485   4.600   9.515   0.465 -0.2582 -0.4966  0.1342
   94GLOH   H02 9486   4.553   9.506   0.563 -1.3920  0.4522 -0.3134
   94GLOH   H08 9487   4.560   9.433   0.406  0.2731 -1.2166  0.7634
   94GLOH    C2 9488   4.553   9.646   0.399  0.0235  0.0202  0.0156
   94GLOH   H04 9489   4.601   9.736   0.439 -2.8734  2.0899 -0.9789
   94GLOH    O2 9490   4.597   9.636   0.264  0.3263 -0.1039  0.5360
   94GLOH   H05 9491   4.694   9.632   0.264  0.3146 -0.4978  1.4703
   94GLOH    C3 9492   4.398   9.653   0.407 -0.9811  0.0283  0.1301
   94GLOH   H06 9493   4.358   9.593   0.326 -0.8509 -0.1622  0.2057
   94GLOH   H07 9494   4.379   9.758   0.387 -0.1232  0.1255 -0.2126
   94GLOH    O3 9495   4.343   9.619   0.536  0.2165 -0.2506  0.4979
   94GLOH   H01 9496   4.393   9.676   0.597  1.1152  0.2230 -0.6624
   95GLOH   H03 9497   3.056   5.587   0.993  0.4422 -0.4853  0.1362
   95GLOH    O1 9498   3.046   5.500   1.036 -0.0788 -0.5110 -0.0427
   95GLOH    C1 9499   2.909   5.473   1.056 -0.1546 -0.8265 -0.5817
   95GLOH   H02 9500   2.890   5.367   1.041  2.8769 -1.4976 -0.0412
   95GLOH   H08 9501   2.856   5.526   0.977  1.5950 -0.1111 -1.3040
   95GLOH    C2 9502   2.851   5.513   1.193 -0.0090  0.5700 -0.3855
   95GLOH   H04 9503   2.828   5.621   1.192 -0.7275  0.4267 -2.4330
   95GLOH    O2 9504   2.720   5.442   1.202 -0.5488  0.0633 -0.3362
   95GLOH   H05 9505   2.652   5.491   1.153  0.7941  0.7252 -1.5997
   95GLOH    C3 9506   2.947   5.476   1.305  0.7595  0.2217 -1.0814
   95GLOH   H06 9507   3.046   5.521   1.297  1.0764  0.1645  1.8078
   95GLOH   H07 9508   2.972   5.370   1.304  2.6911  0.6530 -0.7934
   95GLOH    O3 9509   2.901   5.510   1.436 -0.2852  0.5029  0.1357
   95GLOH   H01 9510   2.845   5.590   1.434 -0.2129  0.6543  2.4622
   96GLOH   H03 9511   4.198   5.541   0.270  0.7600  1.0062 -0.5351
   96GLOH    O1 9512   4.187   5.611   0.204 -0.0859  0.8770 -0.5386
   96GLOH    C1 9513   4.051   5.626   0.166  0.3149 -0.3702  0.2092
   96GLOH   H02 9514   4.046   5.697   0.084  0.1513  1.4588  1.7733
   96GLOH   H08 9515   3.991   5.676   0.243 -1.1871  2.3749 -2.6469
   96GLOH    C2 9516   3.970   5.498   0.119 -0.1352 -0.5112 -0.0272
   96GLOH   H04 9517   3.957   5.441   0.212  1.3037  0.4723  0.8008
   96GLOH    O2 9518   3.839   5.533   0.070  0.3516  0.2711  0.1685
   96GLOH   H05 9519   3.787   5.564   0.146 -0.9377  1.1634 -1.0425
   96GLOH    C3 9520   4.040   5.417   0.010  0.0794  0.1460  0.5280
   96GLOH   H06 9521   4.050   5.468  -0.086 -0.8043  2.6663  1.7228
   96GLOH   H07 9522   3.969   5.338  -0.014  2.4676 -2.2795  1.2359
   96GLOH    O3 9523   4.166   5.376   0.062 -0.6116 -0.0690  0.0899
   96GLOH   H01 9524   4.213   5.448   0.108 -1.8716  0.8128 -0.0043
   97GLOH   H03 9525   4.912   2.538   2.754 -0.1547 -0.5202  1.3995
   97GLOH    O1 9526   4.958   2.622   2.775  0.1999 -0.3922  0.1584
   97GLOH    C1 9527   5.069   2.628   2.686  0.4528 -0.2737 -0.0710
   97GLOH   H02 9528   5.146   2.552   2.702 -0.4936 -1.1573  0.3484
   97GLOH   H08 9529   5.117   2.724   2.702 -0.9815  0.5618 -0.6709
   97GLOH    C2 9530   5.028   2.625   2.539 -0.3449 -0.7212 -0.3236
   97GLOH   H04 9531   5.118   2.645   2.479 -0.3530  0.3568  0.0087
   97GLOH    O2 9532   4.954   2.503   2.502 -0.3503 -0.0049 -0.4681
   97GLOH   H05 9533   4.891   2.519   2.430  0.6954  0.1305 -1.3602
   97GLOH    C3 9534   4.939   2.744   2.518 -0.0592 -0.3526  0.0823
   97GLOH   H06 9535   4.979   2.822   2.582 -0.3826  0.9679 -1.2751
   97GLOH   H07 9536   4.839   2.718   2.554 -0.3042 -0.7392 -0.8484
   97GLOH    O3 9537   4.915   2.779   2.381 -0.1811 -0.5235 -0.1819
   97GLOH   H01 9538   4.869   2.702   2.342 -1.7641 -0.6264  1.8080
   98GLOH   H03 9539   1.549   6.747   0.170  0.1399 -0.5507  0.5604
   98GLOH    O1 9540   1.640   6.743   0.135  0.0563  0.5113  0.2000
   98GLOH    C1 9541   1.664   6.846   0.035  0.3397  0.0312 -0.1179
   98GLOH   H02 9542   1.573   6.906   0.034 -0.2579 -0.8484  0.7843
   98GLOH   H08 9543   1.684   6.794  -0.058 -0.6366 -0.5517 -0.0086
   98GLOH    C2 9544   1.776   6.942   0.071 -0.5556 -0.2084 -0.4628
   98GLOH   H04 9545   1.745   6.989   0.165  0.4708 -2.3899  0.9928
   98GLOH    O2 9546   1.893   6.864   0.094 -0.7650 -0.2285  0.3046
   98GLOH   H05 9547   1.873   6.788   0.152  2.6017 -0.3483  1.3639
   98GLOH    C3 9548   1.809   7.053  -0.030 -0.2158  0.2844 -0.2235
   98GLOH   H06 9549   1.858   7.004  -0.114  1.1943  0.3700  0.5413
   98GLOH   H07 9550   1.885   7.117   0.015  0.2208 -0.2903 -0.1348
   98GLOH    O3 9551   1.696   7.131  -0.062 -0.9137  0.2001 -0.6125
   98GLOH   H01 9552   1.726   7.194  -0.130  0.4581 -0.9077 -1.0605
   99GLOH   H03 9553   1.802   6.024   1.396 -1.0594  0.8448  2.4345
   99GLOH    O1 9554   1.894   6.054   1.406 -0.3896 -0.2108 -0.1273
   99GLOH    C1 9555   1.986   5.949   1.400 -0.1139  0.4607  0.3238
   99GLOH   H02 9556   1.950   5.862   1.455  2.0919 -1.1668 -0.7107
   99GLOH   H08 9557   2.069   5.985   1.461 -0.5920  2.1589  0.0086
   99GLOH    C2 9558   2.026   5.908   1.260 -0.5024  0.5341  0.5593
   99GLOH   H04 9559   2.104   5.831   1.263 -0.5540  0.4529 -0.1357
   99GLOH    O2 9560   1.917   5.852   1.181  0.5499 -0.1453 -0.0582
   99GLOH   H05 9561   1.833   5.859   1.228  0.3576 -0.0714 -0.4144
   99GLOH    C3 9562   2.082   6.033   1.201 -0.2694  0.1409  0.8925
   99GLOH   H06 9563   2.154   6.077   1.269  1.0182 -0.4313 -0.0682
   99GLOH   H07 9564   2.008   6.112   1.186 -0.9827 -0.4731  1.1404
   99GLOH    O3 9565   2.146   6.013   1.072  0.3980  0.4429  0.3767
   99GLOH   H01 9566   2.221   5.951   1.067  1.3518  1.6987 -1.1622
  100GLOH   H03 9567   9.115   5.719   0.801  0.2189  0.0449  0.3854
  100GLOH    O1 9568   9.115   5.813   0.772  0.5701  0.1191  0.6242
  100GLOH    C1 9569   9.180   5.902   0.865 -0.2804 -0.3335 -0.5016
  100GLOH   H02 9570   9.199   5.998   0.817 -0.7522  0.1761  0.3033
  100GLOH   H08 9571   9.277   5.864   0.896 -0.7023 -0.3026  0.8822
  100GLOH    C2 9572   9.088   5.922   0.988  0.4722  0.2030 -0.0857
  100GLOH   H04 9573   9.153   5.963   1.066  0.1432 -1.1115  0.8852
  100GLOH    O2 9574   8.997   6.031   0.973  0.2549 -0.1098 -0.0999
  100GLOH   H05 9575   8.965   6.047   1.063  1.6571 -0.3377  0.4599
  100GLOH    C3 9576   9.022   5.791   1.043 -0.2745  0.2825  0.0720
  100GLOH   H06 9577   8.957   5.750   0.966 -0.4572  0.1561  0.2922
  100GLOH   H07 9578   8.954   5.822   1.122  1.6481  1.4088  1.3314
  100GLOH    O3 9579   9.109   5.681   1.088  0.0307  0.5113  0.1497
  100GLOH   H01 9580   9.141   5.699   1.179 -0.8837 -1.5279  0.9072
  101GLOH   H03 9581   2.653   6.887   2.495  0.0520 -1.7697  0.9296
  101GLOH    O1 9582   2.558   6.883   2.515 -0.2739 -0.6743 -0.2914
  101GLOH    C1 9583   2.487   6.792   2.431  0.1487 -0.1156 -0.1466
  101GLOH   H02 9584   2.547   6.774   2.341 -0.8672  1.3107 -1.1380
  101GLOH   H08 9585   2.396   6.834   2.388  0.9546  1.7961 -0.0467
  101GLOH    C2 9586   2.464   6.659   2.504 -0.3639  0.7200 -0.2819
  101GLOH   H04 9587   2.391   6.682   2.582 -0.8363 -1.4478 -0.0572
  101GLOH    O2 9588   2.409   6.551   2.425  0.0673  0.4484  0.7604
  101GLOH   H05 9589   2.330   6.583   2.379  0.4188  0.9007  0.4686
  101GLOH    C3 9590   2.587   6.604   2.579  0.5524  0.3601  0.2684
  101GLOH   H06 9591   2.552   6.522   2.642 -0.0485  0.1055 -0.3878
  101GLOH   H07 9592   2.630   6.688   2.634 -0.0288 -0.2332  1.6577
  101GLOH    O3 9593   2.684   6.551   2.485 -0.4980  0.0498  0.2667
  101GLOH   H01 9594   2.700   6.460   2.515 -0.9890 -0.4496 -0.9647
  102GLOH   H03 9595   3.148   1.018   1.416  0.4412  0.3379 -3.7710
  102GLOH    O1 9596   3.085   0.944   1.406 -0.3376  0.3623 -0.0121
  102GLOH    C1 9597   3.140   0.858   1.297  0.2641 -0.2080  0.1160
  102GLOH   H02 9598   3.105   0.756   1.316  0.6932 -0.1786  1.0635
  102GLOH   H08 9599   3.248   0.849   1.289  0.1117 -1.7185 -0.2835
  102GLOH    C2 9600   3.077   0.900   1.161 -0.2029  0.2479 -0.0287
  102GLOH   H04 9601   2.968   0.888   1.166  0.0039 -1.4629  0.4435
  102GLOH    O2 9602   3.114   1.038   1.127 -0.0226  0.2477 -0.2741
  102GLOH   H05 9603   3.199   1.066   1.166 -0.7194  0.1778  1.2955
  102GLOH    C3 9604   3.126   0.804   1.054  0.1529  0.4530 -0.6146
  102GLOH   H06 9605   3.233   0.789   1.071  0.0709  0.6502  0.1124
  102GLOH   H07 9606   3.107   0.849   0.957  2.4152  1.6247 -0.5707
  102GLOH    O3 9607   3.072   0.671   1.069 -0.7947 -0.1721  0.1105
  102GLOH   H01 9608   3.086   0.625   0.984  0.1112 -0.6432  0.5139
  103GLOH   H03 9609   2.007   2.540   2.451  2.3501 -0.9119  1.2000
  103GLOH    O1 9610   2.005   2.452   2.408  0.3873 -0.1838 -0.2416
  103GLOH    C1 9611   1.917   2.439   2.298 -0.1465  0.4912  0.6007
  103GLOH   H02 9612   1.818   2.430   2.342 -0.2298  0.1728  0.3530
  103GLOH   H08 9613   1.943   2.358   2.230 -5.9533 -0.4454 -0.7544
  103GLOH    C2 9614   1.914   2.567   2.205 -0.2063  0.3964  0.2331
  103GLOH   H04 9615   2.013   2.565   2.158 -1.4441 -3.2035 -2.4343
  103GLOH    O2 9616   1.818   2.560   2.102  0.3046 -0.3268 -0.7646
  103GLOH   H05 9617   1.727   2.574   2.134  0.0061 -1.4182 -1.1367
  103GLOH    C3 9618   1.890   2.698   2.283  0.4208  0.0185 -0.9729
  103GLOH   H06 9619   1.785   2.690   2.313  0.8530 -2.2208  0.0402
  103GLOH   H07 9620   1.892   2.779   2.210 -0.2300  0.5529 -0.4066
  103GLOH    O3 9621   1.972   2.724   2.401 -0.1206 -0.2883  0.1089
  103GLOH   H01 9622   2.068   2.721   2.389  0.0192  2.7344  0.1899
  104GLOH   H03 9623   1.452   1.818   1.928  0.2554 -0.7739  1.2964
  104GLOH    O1 9624   1.361   1.815   1.964 -0.1429  0.8959  0.4601
  104GLOH    C1 9625   1.360   1.882   2.091  0.2650 -0.0199  0.0050
  104GLOH   H02 9626   1.260   1.916   2.117 -0.8309 -1.9051 -1.5993
  104GLOH   H08 9627   1.417   1.974   2.077  1.7371 -0.8096  0.5466
  104GLOH    C2 9628   1.416   1.799   2.209 -0.8754 -0.0220  0.0377
  104GLOH   H04 9629   1.525   1.789   2.191 -0.6375 -2.8208  2.5803
  104GLOH    O2 9630   1.415   1.868   2.337  0.7646  0.9325  0.3104
  104GLOH   H05 9631   1.463   1.817   2.405 -0.9713 -2.4471 -0.8582
  104GLOH    C3 9632   1.360   1.657   2.217  0.0996 -0.2702  0.3234
  104GLOH   H06 9633   1.251   1.648   2.218  0.1418 -1.0456 -0.8271
  104GLOH   H07 9634   1.396   1.613   2.310 -0.1676  1.0248  1.0570
  104GLOH    O3 9635   1.421   1.574   2.118 -0.5086  0.2357  0.0941
  104GLOH   H01 9636   1.517   1.594   2.125 -0.3606  0.3140 -1.6847
  105GLOH   H03 9637   2.581   8.305   0.549  0.8437 -0.4520  1.7819
  105GLOH    O1 9638   2.675   8.330   0.549  0.6744  0.2132  0.2951
  105GLOH    C1 9639   2.752   8.209   0.530 -0.4907 -0.0847  0.6858
  105GLOH   H02 9640   2.707   8.120   0.573 -0.4132 -0.5916 -0.2605
  105GLOH   H08 9641   2.846   8.230   0.581 -0.4588  0.2500  0.4937
  105GLOH    C2 9642   2.781   8.184   0.376  0.2433 -1.0086  0.4723
  105GLOH   H04 9643   2.859   8.256   0.346  0.2689 -1.1688  0.1507
  105GLOH    O2 9644   2.833   8.048   0.355  0.3044 -0.5644  0.5654
  105GLOH   H05 9645   2.927   8.043   0.377  0.2710 -2.1266  0.3793
  105GLOH    C3 9646   2.648   8.209   0.298 -0.0480 -0.7154  0.3129
  105GLOH   H06 9647   2.607   8.307   0.324  0.1875 -1.1283  2.3038
  105GLOH   H07 9648   2.574   8.136   0.333 -1.0415 -0.6764 -1.6275
  105GLOH    O3 9649   2.675   8.201   0.157 -0.2845 -0.0258 -0.7288
  105GLOH   H01 9650   2.653   8.109   0.134 -1.3986 -0.6913  2.7509
  106GLOH   H03 9651   2.735   7.198   2.204  1.1429  0.1983 -1.9245
  106GLOH    O1 9652   2.803   7.217   2.272 -0.4930 -0.4859 -0.0401
  106GLOH    C1 9653   2.790   7.127   2.382 -0.1109  0.1390 -0.0328
  106GLOH   H02 9654   2.687   7.122   2.417  0.0857  0.4079  0.5901
  106GLOH   H08 9655   2.850   7.165   2.464  0.0365 -0.9681  0.3831
  106GLOH    C2 9656   2.844   6.990   2.334 -0.2636 -0.5674  0.6105
  106GLOH   H04 9657   2.950   7.001   2.306 -0.5797  0.8908 -0.0713
  106GLOH    O2 9658   2.816   6.894   2.436  0.2061  0.0108  0.2479
  106GLOH   H05 9659   2.858   6.809   2.418  0.8128  0.6993 -1.6992
  106GLOH    C3 9660   2.754   6.959   2.218 -0.1611  0.4771  0.2451
  106GLOH   H06 9661   2.654   6.991   2.249 -0.2703  0.0742  0.3079
  106GLOH   H07 9662   2.754   6.851   2.204 -0.1765  0.4390  0.5557
  106GLOH    O3 9663   2.793   7.021   2.092 -0.4444  0.3581 -0.3972
  106GLOH   H01 9664   2.719   7.021   2.029 -1.4852  0.3938  0.8056
  107GLOH   H03 9665   9.364   4.314   1.070  0.3761 -1.5507 -0.6893
  107GLOH    O1 9666   9.443   4.308   1.127  0.1930  0.5955 -0.1759
  107GLOH    C1 9667   9.444   4.406   1.228  0.2719  0.7864 -0.2476
  107GLOH   H02 9668   9.543   4.415   1.274  0.8719  1.1693 -1.5912
  107GLOH   H08 9669   9.387   4.381   1.317  1.2030  1.0982  0.4485
  107GLOH    C2 9670   9.412   4.549   1.180 -0.2955  0.0346  0.2935
  107GLOH   H04 9671   9.314   4.555   1.130 -0.0397 -3.3269 -0.7592
  107GLOH    O2 9672   9.417   4.634   1.302 -0.2313 -0.1750 -0.2408
  107GLOH   H05 9673   9.500   4.624   1.352  0.0040 -2.4036 -1.0113
  107GLOH    C3 9674   9.524   4.600   1.081 -0.0235  0.0928  0.1783
  107GLOH   H06 9675   9.530   4.518   1.010  2.0245 -0.8905  1.4210
  107GLOH   H07 9676   9.613   4.613   1.144  0.1240  1.2562 -0.2534
  107GLOH    O3 9677   9.491   4.723   1.023 -0.2911 -0.2469 -0.4477
  107GLOH   H01 9678   9.435   4.705   0.945 -0.3992 -2.2423  0.0488
  108GLOH   H03 9679   3.696   1.983   2.125 -1.2697  0.1962  0.3379
  108GLOH    O1 9680   3.630   1.950   2.061 -0.1286 -0.2082 -0.6352
  108GLOH    C1 9681   3.507   2.011   2.082 -0.0715 -0.2645  0.0280
  108GLOH   H02 9682   3.486   1.998   2.188 -1.2836  0.0994 -0.1567
  108GLOH   H08 9683   3.421   1.960   2.039  0.8355 -0.7476 -1.2428
  108GLOH    C2 9684   3.501   2.163   2.038 -0.1378  0.4456 -0.3737
  108GLOH   H04 9685   3.402   2.203   2.066 -1.2537 -2.3511 -0.1763
  108GLOH    O2 9686   3.610   2.226   2.110 -0.1583 -0.3953  0.2349
  108GLOH   H05 9687   3.606   2.189   2.200  0.0958 -2.9239 -0.7597
  108GLOH    C3 9688   3.523   2.182   1.887 -0.1818 -0.5462  0.5564
  108GLOH   H06 9689   3.618   2.136   1.858  0.2983  0.0842  1.1251
  108GLOH   H07 9690   3.526   2.290   1.876 -0.2763 -0.6602 -0.6568
  108GLOH    O3 9691   3.409   2.125   1.822  0.3658  0.0810 -0.2275
  108GLOH   H01 9692   3.419   2.028   1.818  2.3691  0.2350  0.4051
  109GLOH   H03 9693   4.555   3.543   0.459 -1.1409  2.1357  1.2916
  109GLOH    O1 9694   4.642   3.570   0.494 -0.0142 -0.0916  0.3024
  109GLOH    C1 9695   4.746   3.598   0.397  0.1010  0.2736  0.0085
  109GLOH   H02 9696   4.821   3.661   0.445 -1.5140  3.7247 -1.8509
  109GLOH   H08 9697   4.707   3.653   0.312  0.1994 -1.3544 -1.1278
  109GLOH    C2 9698   4.811   3.473   0.346 -0.0067 -0.0183 -0.5382
  109GLOH   H04 9699   4.729   3.415   0.303  1.5506 -1.2513 -1.9343
  109GLOH    O2 9700   4.905   3.502   0.244  0.4353 -0.8133 -0.1113
  109GLOH   H05 9701   4.861   3.486   0.159  0.3509  0.9756 -0.4161
  109GLOH    C3 9702   4.879   3.400   0.463 -0.3347  0.0180 -0.1949
  109GLOH   H06 9703   4.910   3.304   0.421  1.8597  0.8643 -0.5470
  109GLOH   H07 9704   4.795   3.372   0.527 -1.9338 -1.2386 -2.7371
  109GLOH    O3 9705   4.980   3.454   0.545  1.5622  0.1679 -0.8028
  109GLOH   H01 9706   5.010   3.391   0.614 -2.2866 -0.9575 -0.0506
  110GLOH   H03 9707   1.508   3.166   2.075  0.4092 -3.1834 -1.0306
  110GLOH    O1 9708   1.542   3.149   2.165 -0.5923  0.1422  0.0280
  110GLOH    C1 9709   1.429   3.179   2.246  0.3976 -0.0809  0.0843
  110GLOH   H02 9710   1.339   3.157   2.189  0.0826  1.7148 -0.1200
  110GLOH   H08 9711   1.429   3.286   2.264  1.8526  0.4107 -2.5691
  110GLOH    C2 9712   1.425   3.099   2.372  0.3546  0.2212 -0.0817
  110GLOH   H04 9713   1.340   3.134   2.432 -0.2190 -1.2099 -0.0447
  110GLOH    O2 9714   1.395   2.966   2.334 -0.0807  0.6368 -0.4120
  110GLOH   H05 9715   1.463   2.941   2.269  0.7720 -0.0515  0.7300
  110GLOH    C3 9716   1.560   3.112   2.445  0.6663 -0.3174 -0.0853
  110GLOH   H06 9717   1.644   3.080   2.384 -0.2262 -0.5187 -1.2289
  110GLOH   H07 9718   1.554   3.053   2.537 -0.3610  1.1428  0.8210
  110GLOH    O3 9719   1.597   3.245   2.480  0.5763 -0.0941 -0.3311
  110GLOH   H01 9720   1.543   3.283   2.551  0.1064  0.5439 -1.0167
  111GLOH   H03 9721   2.627   3.843   1.389 -2.6163  0.0026  2.7160
  111GLOH    O1 9722   2.685   3.792   1.449  0.1222  0.0712  0.2301
  111GLOH    C1 9723   2.600   3.712   1.531 -0.4341 -0.6581  0.8119
  111GLOH   H02 9724   2.573   3.630   1.464  0.8696  0.4199 -1.0902
  111GLOH   H08 9725   2.508   3.765   1.552  0.9199  1.5064  1.4737
  111GLOH    C2 9726   2.667   3.645   1.653  1.0628  0.0097 -0.1421
  111GLOH   H04 9727   2.698   3.722   1.726  0.7697  0.9004 -0.9537
  111GLOH    O2 9728   2.565   3.557   1.722  0.0902 -0.6307  0.6604
  111GLOH   H05 9729   2.609   3.511   1.796  1.3256  0.3391  0.5463
  111GLOH    C3 9730   2.795   3.578   1.607 -0.0257  0.9407  0.2351
  111GLOH   H06 9731   2.754   3.501   1.541  2.2473  1.7831 -2.2677
  111GLOH   H07 9732   2.852   3.535   1.690 -0.1123  1.2796  0.4676
  111GLOH    O3 9733   2.878   3.667   1.532 -0.1148 -0.8457  0.4540
  111GLOH   H01 9734   2.808   3.720   1.491  0.0631 -0.6277  0.4289
  112GLOH   H03 9735   2.505   3.220   2.539  0.4109 -2.3902  1.5130
  112GLOH    O1 9736   2.438   3.182   2.479  0.0914  0.3269  0.0508
  112GLOH    C1 9737   2.397   3.045   2.509 -0.1128 -0.5828 -0.2893
  112GLOH   H02 9738   2.370   2.991   2.418 -0.4120 -0.2918 -0.3736
  112GLOH   H08 9739   2.319   3.033   2.585 -0.2476  2.2932  0.0787
  112GLOH    C2 9740   2.508   2.967   2.578  1.0116 -0.4160 -0.0284
  112GLOH   H04 9741   2.597   2.980   2.516  1.0924 -2.6995 -0.4320
  112GLOH    O2 9742   2.548   3.011   2.704 -0.4810  0.4125 -0.6305
  112GLOH   H05 9743   2.565   3.106   2.694 -0.8059  0.4957 -0.4149
  112GLOH    C3 9744   2.490   2.815   2.587  0.0292  0.3028  0.1140
  112GLOH   H06 9745   2.414   2.806   2.664 -0.9572 -0.3135 -0.9124
  112GLOH   H07 9746   2.582   2.769   2.623 -0.0610  0.4358  0.5111
  112GLOH    O3 9747   2.443   2.750   2.466 -0.5239 -0.0806  0.0111
  112GLOH   H01 9748   2.376   2.684   2.491 -1.3175  1.2730  1.5744
  113GLOH   H03 9749   2.072   5.624   1.945  0.8162  1.4899 -1.7372
  113GLOH    O1 9750   1.989   5.674   1.960  0.1501  0.0021 -0.2805
  113GLOH    C1 9751   1.880   5.578   1.979 -0.2673  0.0940 -0.1728
  113GLOH   H02 9752   1.901   5.488   1.921 -0.2271 -1.1852  1.8091
  113GLOH   H08 9753   1.797   5.633   1.935 -0.8655 -0.2001  0.5720
  113GLOH    C2 9754   1.844   5.531   2.116 -0.0607 -0.6665 -0.3862
  113GLOH   H04 9755   1.939   5.507   2.167 -0.1271  0.1406  0.1315
  113GLOH    O2 9756   1.793   5.648   2.187 -0.3249  0.3022 -0.7609
  113GLOH   H05 9757   1.738   5.701   2.126  0.0580  2.5609  0.7895
  113GLOH    C3 9758   1.749   5.412   2.124 -0.0343  0.7352  0.4755
  113GLOH   H06 9759   1.654   5.447   2.084 -0.6015 -0.8258  0.4157
  113GLOH   H07 9760   1.739   5.383   2.229  0.0814 -0.9975  0.0252
  113GLOH    O3 9761   1.795   5.293   2.061 -0.3513  0.0034 -0.5840
  113GLOH   H01 9762   1.869   5.265   2.119  1.7200  3.5613 -1.3457
  114GLOH   H03 9763  10.116   8.584   0.435 -0.1788  0.6034 -0.2978
  114GLOH    O1 9764  10.106   8.579   0.532  0.1046  0.0662 -0.2922
  114GLOH    C1 9765  10.204   8.667   0.598 -0.1407 -0.2808  0.0361
  114GLOH   H02 9766  10.158   8.748   0.654  1.5045  0.5760  0.1882
  114GLOH   H08 9767  10.261   8.719   0.522  1.4457  0.5592  1.7582
  114GLOH    C2 9768  10.294   8.589   0.700  0.3833  0.2224 -0.0910
  114GLOH   H04 9769  10.232   8.528   0.766  0.8635  1.0527  1.1559
  114GLOH    O2 9770  10.386   8.499   0.628  0.7855  0.1284 -0.6048
  114GLOH   H05 9771  10.364   8.507   0.534  0.4691 -0.7388 -0.6075
  114GLOH    C3 9772  10.362   8.682   0.804  0.1712 -0.0719  0.3851
  114GLOH   H06 9773  10.452   8.727   0.763  0.0107  0.0377  0.1496
  114GLOH   H07 9774  10.401   8.620   0.885  0.3655  0.8597  1.0161
  114GLOH    O3 9775  10.266   8.778   0.858 -0.0452 -0.0940 -0.5222
  114GLOH   H01 9776  10.300   8.865   0.830 -3.5803  1.3957 -0.3994
  115GLOH   H03 9777   8.452   6.844   0.674 -0.3891  1.5355  0.8063
  115GLOH    O1 9778   8.376   6.805   0.721 -0.4727 -0.2428 -0.7605
  115GLOH    C1 9779   8.406   6.788   0.857 -0.4072 -0.0105 -0.5100
  115GLOH   H02 9780   8.452   6.691   0.877  0.2095  0.9074  2.8135
  115GLOH   H08 9781   8.322   6.801   0.926  0.5610  0.0261  0.6738
  115GLOH    C2 9782   8.517   6.887   0.901  0.5276  0.4467  0.5989
  115GLOH   H04 9783   8.475   6.989   0.897 -3.6069 -1.1947 -2.4090
  115GLOH    O2 9784   8.551   6.862   1.039  0.7928  0.0316 -0.3814
  115GLOH   H05 9785   8.558   6.767   1.055  1.2593  0.3531  1.3749
  115GLOH    C3 9786   8.641   6.881   0.812  0.1649 -0.3055 -0.0472
  115GLOH   H06 9787   8.684   6.783   0.830 -0.3002 -0.8053 -1.5373
  115GLOH   H07 9788   8.720   6.947   0.848 -0.4644 -1.7345  4.2183
  115GLOH    O3 9789   8.611   6.906   0.673  0.0832  0.1620  0.0206
  115GLOH   H01 9790   8.699   6.890   0.634 -1.7955 -0.1390 -4.4839
  116GLOH   H03 9791   1.185   4.428   1.994  0.4200 -1.5417  0.7462
  116GLOH    O1 9792   1.154   4.418   1.903  0.4793 -0.4519  0.5976
  116GLOH    C1 9793   1.160   4.543   1.826 -0.1837  0.7691 -0.4926
  116GLOH   H02 9794   1.105   4.532   1.732  0.2837 -1.1436 -0.5503
  116GLOH   H08 9795   1.256   4.574   1.785  0.3789 -2.7976 -2.0133
  116GLOH    C2 9796   1.102   4.661   1.908 -0.3799 -0.4833 -0.1198
  116GLOH   H04 9797   1.164   4.674   1.999 -0.1771 -0.7250 -0.2245
  116GLOH    O2 9798   1.099   4.788   1.828 -0.3525  0.3118 -0.3748
  116GLOH   H05 9799   1.190   4.822   1.818 -1.1442  2.0305 -2.0988
  116GLOH    C3 9800   0.967   4.633   1.963 -0.2048  0.1189 -0.1528
  116GLOH   H06 9801   0.963   4.544   2.025  2.5631 -0.2614 -0.5066
  116GLOH   H07 9802   0.900   4.622   1.877  1.5991 -2.5783 -1.2520
  116GLOH    O3 9803   0.914   4.743   2.041  0.3705 -0.1523 -0.2889
  116GLOH   H01 9804   0.913   4.708   2.133  1.4081  3.6107  1.2211
  117GLOH   H03 9805   9.370   4.979   1.470  1.0194 -0.4882 -2.5343
  117GLOH    O1 9806   9.305   4.907   1.461  0.0926 -0.1629  0.8297
  117GLOH    C1 9807   9.255   4.856   1.589  0.0819  0.5787 -0.3192
  117GLOH   H02 9808   9.331   4.800   1.643  0.1647  0.1260 -0.9079
  117GLOH   H08 9809   9.168   4.792   1.573  0.1168  0.5569 -0.4186
  117GLOH    C2 9810   9.208   4.971   1.678  0.0993  0.0279 -0.1216
  117GLOH   H04 9811   9.133   5.032   1.624 -0.0568 -0.0753 -0.0189
  117GLOH    O2 9812   9.154   4.935   1.808  0.0847 -0.3959 -0.1405
  117GLOH   H05 9813   9.103   4.853   1.806 -0.5996  0.0360 -0.3751
  117GLOH    C3 9814   9.335   5.060   1.706  0.0239  0.3749  0.3234
  117GLOH   H06 9815   9.401   5.004   1.772 -4.4095 -2.9837  2.2174
  117GLOH   H07 9816   9.295   5.147   1.758 -1.5173 -0.1002 -0.0183
  117GLOH    O3 9817   9.410   5.117   1.599 -0.3489 -0.2288 -0.3910
  117GLOH   H01 9818   9.502   5.086   1.587 -0.1665  0.4729 -0.7857
  118GLOH   H03 9819   3.981   5.189   0.651 -1.6778  2.0949  0.4265
  118GLOH    O1 9820   3.949   5.124   0.716  0.2801  0.2657 -0.3842
  118GLOH    C1 9821   3.891   5.182   0.839 -0.3080  0.4914  0.1623
  118GLOH   H02 9822   3.895   5.291   0.836 -1.5450  0.5975  1.8391
  118GLOH   H08 9823   3.949   5.142   0.922 -1.3915 -0.7797  0.3283
  118GLOH    C2 9824   3.751   5.129   0.863  0.6100  0.3485 -0.2743
  118GLOH   H04 9825   3.753   5.023   0.893  0.7248  0.5710  0.5349
  118GLOH    O2 9826   3.696   5.197   0.976  0.4624 -0.0288 -0.2861
  118GLOH   H05 9827   3.717   5.162   1.064  0.3441 -0.5994 -0.4848
  118GLOH    C3 9828   3.672   5.163   0.736  0.4788 -0.0217 -0.8020
  118GLOH   H06 9829   3.700   5.265   0.709 -0.0948  0.6300  1.0004
  118GLOH   H07 9830   3.565   5.164   0.757  0.9937 -0.4826  2.0010
  118GLOH    O3 9831   3.701   5.075   0.628 -0.9238 -0.5187  0.1134
  118GLOH   H01 9832   3.797   5.062   0.644 -0.6797 -0.8325 -1.5042
  119GLOH   H03 9833  10.267   7.614   0.918 -0.5406  0.1156 -0.7148
  119GLOH    O1 9834  10.351   7.567   0.902 -0.3495  0.1889  0.0239
  119GLOH    C1 9835  10.378   7.488   1.017  0.2308 -0.0835 -0.0341
  119GLOH   H02 9836  10.286   7.466   1.071  2.2309 -2.0268  2.7472
  119GLOH   H08 9837  10.443   7.544   1.084 -0.8602 -0.2917  1.2455
  119GLOH    C2 9838  10.443   7.356   0.993 -0.5183  0.5421 -0.1320
  119GLOH   H04 9839  10.467   7.311   1.091  0.9504  2.9574  0.6712
  119GLOH    O2 9840  10.363   7.260   0.923  0.3519  0.1024 -0.4769
  119GLOH   H05 9841  10.360   7.292   0.831 -3.8980 -1.0030 -0.8213
  119GLOH    C3 9842  10.569   7.371   0.913  0.3188  0.2160 -0.0587
  119GLOH   H06 9843  10.617   7.452   0.969 -1.5205  1.9032 -0.8799
  119GLOH   H07 9844  10.557   7.413   0.813  1.7754 -0.5385 -0.5729
  119GLOH    O3 9845  10.655   7.253   0.911  0.5909  0.0940 -0.4657
  119GLOH   H01 9846  10.634   7.191   0.839  1.6172 -0.9388  0.1113
  120GLOH   H03 9847   2.085   5.076   1.089  0.3910  0.1493  0.6906
  120GLOH    O1 9848   2.133   5.041   1.166 -0.2906 -0.6665  0.7576
  120GLOH    C1 9849   2.080   5.091   1.290 -0.2836  0.9493  0.4100
  120GLOH   H02 9850   1.972   5.090   1.298 -0.2812  0.3836  0.3599
  120GLOH   H08 9851   2.105   5.197   1.285 -0.3112  0.9630  0.5530
  120GLOH    C2 9852   2.138   5.011   1.406  0.3025  0.2356  0.0751
  120GLOH   H04 9853   2.247   5.028   1.407  0.1037  1.5287 -0.2808
  120GLOH    O2 9854   2.089   5.061   1.533 -0.1064  0.2392 -0.2482
  120GLOH   H05 9855   2.100   4.983   1.590  0.1418 -0.2079 -0.9163
  120GLOH    C3 9856   2.124   4.858   1.393  0.0380 -0.2758  0.3165
  120GLOH   H06 9857   2.157   4.833   1.292 -0.2229 -0.4365  0.2712
  120GLOH   H07 9858   2.020   4.823   1.391 -0.8456  2.2169  1.1559
  120GLOH    O3 9859   2.202   4.782   1.490  0.1327  0.0407  0.5599
  120GLOH   H01 9860   2.291   4.822   1.497 -0.6305  1.8569  0.1124
  121ACOH    H4 9861   0.907   1.300   0.492  0.5917  0.7211  1.3641
  121ACOH    O2 9862   0.818   1.338   0.482  0.4624  0.0322 -0.2002
  121ACOH    C2 9863   0.801   1.433   0.575 -0.1720  0.1858 -0.7315
  121ACOH    O1 9864   0.888   1.476   0.644  0.5199  0.4187  0.0796
  121ACOH    C1 9865   0.658   1.445   0.608 -0.2917 -0.0280 -0.2957
  121ACOH    H1 9866   0.603   1.379   0.541 -0.1836  1.5353 -1.9396
  121ACOH    H2 9867   0.636   1.545   0.571 -0.1009  0.2372  0.2930
  121ACOH    H3 9868   0.630   1.420   0.711  1.2335  0.6745  0.3078
  122ACOH    H4 9869   4.321   6.011   0.293 -0.4823  0.3889  0.3972
  122ACOH    O2 9870   4.353   6.102   0.277  0.0384  0.1764  0.2164
  122ACOH    C2 9871   4.443   6.137   0.374  0.8372  0.4131  0.0868
  122ACOH    O1 9872   4.465   6.076   0.476 -0.0071  0.1226 -0.1176
  122ACOH    C1 9873   4.487   6.276   0.356 -0.2754  0.5056  0.0641
  122ACOH    H1 9874   4.413   6.346   0.396 -0.0539 -0.6676  2.6178
  122ACOH    H2 9875   4.508   6.305   0.253 -3.6890 -2.1561 -1.4629
  122ACOH    H3 9876   4.584   6.287   0.405  0.9441  0.5642 -2.3278
  123ACOH    H4 9877  10.301   2.870   1.525  1.4145  0.4787 -2.5009
  123ACOH    O2 9878  10.217   2.918   1.515  0.6547 -0.2384 -0.0742
  123ACOH    C2 9879  10.202   2.990   1.630  0.4890 -0.2265  0.5121
  123ACOH    O1 9880  10.262   2.974   1.732  0.6247 -0.5101 -0.1578
  123ACOH    C1 9881  10.102   3.099   1.621  0.2399  0.7599  0.0554
  123ACOH    H1 9882  10.038   3.084   1.534 -0.9205  0.1255  1.0034
  123ACOH    H2 9883  10.156   3.194   1.614 -0.7486  1.4104  1.0697
  123ACOH    H3 9884  10.042   3.101   1.712 -0.5463  4.5809 -0.4610
  124ACOH    H4 9885   4.555   0.238   1.534 -1.3331  0.2257  0.8190
  124ACOH    O2 9886   4.607   0.269   1.610 -0.2977 -0.2725  0.3253
  124ACOH    C2 9887   4.637   0.398   1.600  0.4263  0.0778 -0.1592
  124ACOH    O1 9888   4.589   0.479   1.521  0.3201  0.4530  0.3893
  124ACOH    C1 9889   4.743   0.444   1.689  0.0610  1.2130 -0.7973
  124ACOH    H1 9890   4.835   0.470   1.637  1.4379  2.0606  1.9173
  124ACOH    H2 9891   4.772   0.365   1.759 -1.4699  0.2196 -1.2803
  124ACOH    H3 9892   4.714   0.528   1.751  2.0388  0.0928  1.7670
  125ACOH    H4 9893   8.873   3.523   2.385 -0.4642 -2.6872 -0.3570
  125ACOH    O2 9894   8.818   3.535   2.464  0.7758 -0.6057  0.2315
  125ACOH    C2 9895   8.875   3.632   2.536 -0.1046  0.1430  0.5173
  125ACOH    O1 9896   8.946   3.714   2.487  0.5089 -0.7316  0.0422
  125ACOH    C1 9897   8.834   3.629   2.676 -0.1538 -0.7970 -0.2896
  125ACOH    H1 9898   8.847   3.529   2.717 -0.3984  0.3357  2.6796
  125ACOH    H2 9899   8.729   3.657   2.690  0.1687  1.1170 -1.5083
  125ACOH    H3 9900   8.898   3.701   2.728 -0.5323  0.7568 -1.9280
  126ACOH    H4 9901  10.017   5.748   1.187  0.6075 -0.8154  1.9151
  126ACOH    O2 9902  10.111   5.770   1.174  0.0449  0.8306  0.1972
  126ACOH    C2 9903  10.175   5.684   1.252 -0.0352  0.5575  0.2282
  126ACOH    O1 9904  10.129   5.585   1.311  0.7536 -0.3962  0.3216
  126ACOH    C1 9905  10.320   5.706   1.257 -0.6130  0.1424 -0.1314
  126ACOH    H1 9906  10.370   5.615   1.222  2.0585  0.8776  1.5801
  126ACOH    H2 9907  10.355   5.734   1.357  1.8410 -0.7397 -0.6916
  126ACOH    H3 9908  10.356   5.789   1.196 -1.0173  1.3086  1.1893
  127ACOH    H4 9909   3.531   6.344   0.099 -2.1547  1.1102  0.0755
  127ACOH    O2 9910   3.565   6.420   0.149 -0.3111  0.3545  0.0216
  127ACOH    C2 9911   3.555   6.523   0.059  0.0444  0.2038 -0.0981
  127ACOH    O1 9912   3.454   6.539  -0.009  0.8081 -0.6849 -0.0524
  127ACOH    C1 9913   3.640   6.636   0.094  0.0957 -0.1382 -0.2515
  127ACOH    H1 9914   3.590   6.725   0.055  0.5147 -1.3812 -3.8199
  127ACOH    H2 9915   3.737   6.628   0.044 -0.0205 -1.3083 -0.2867
  127ACOH    H3 9916   3.666   6.631   0.200  5.0402  0.3149 -1.3073
  128ACOH    H4 9917   8.742   4.246   1.512  0.9966  2.3325  0.8889
  128ACOH    O2 9918   8.656   4.291   1.514 -0.2748  0.0229 -0.2667
  128ACOH    C2 9919   8.680   4.420   1.532  0.1507 -0.8215  0.9883
  128ACOH    O1 9920   8.779   4.472   1.584  0.3431 -0.0332  0.5706
  128ACOH    C1 9921   8.562   4.503   1.484  0.3202  0.2344 -0.2651
  128ACOH    H1 9922   8.523   4.463   1.391  2.4951  0.2358 -1.2133
  128ACOH    H2 9923   8.601   4.604   1.472 -1.9906  1.0556 -1.0123
  128ACOH    H3 9924   8.483   4.512   1.558 -0.9071  0.3650 -1.5602
  129ACOH    H4 9925   4.425   5.195   2.740  1.0919 -1.6241 -0.1390
  129ACOH    O2 9926   4.511   5.231   2.765  0.6019 -0.4684 -0.0560
  129ACOH    C2 9927   4.591   5.125   2.797 -0.2501 -0.3956 -1.3086
  129ACOH    O1 9928   4.581   5.006   2.776 -0.6213 -0.0220 -0.0719
  129ACOH    C1 9929   4.706   5.179   2.873  0.2033  0.6095  0.1104
  129ACOH    H1 9930   4.715   5.287   2.868  2.7109  0.3629 -1.9558
  129ACOH    H2 9931   4.797   5.131   2.836 -1.6314 -2.2786 -0.8051
  129ACOH    H3 9932   4.696   5.147   2.977 -1.2403 -0.9532 -0.4833
  130ACOH    H4 9933   8.672   7.324   0.431  0.8952  0.5529  1.6209
  130ACOH    O2 9934   8.595   7.306   0.487 -0.0525 -0.0832  0.1304
  130ACOH    C2 9935   8.633   7.282   0.616  0.6313 -0.1839 -0.1294
  130ACOH    O1 9936   8.737   7.320   0.670  0.3478  0.1526 -0.1072
  130ACOH    C1 9937   8.533   7.232   0.709 -1.1914 -0.4491 -0.4636
  130ACOH    H1 9938   8.562   7.134   0.747  1.0072  0.2881 -0.1755
  130ACOH    H2 9939   8.442   7.212   0.653 -1.7475 -1.9140  0.9158
  130ACOH    H3 9940   8.523   7.303   0.791  0.2122 -2.8666  1.9089
  131ACOH    H4 9941  10.199   8.598   2.034 -0.8824  0.3640 -0.8091
  131ACOH    O2 9942  10.252   8.616   1.954 -0.0024  0.6035 -0.1684
  131ACOH    C2 9943  10.232   8.521   1.870  0.1505 -0.3216 -0.1769
  131ACOH    O1 9944  10.134   8.446   1.872  0.5692  0.3283  0.8615
  131ACOH    C1 9945  10.319   8.537   1.752 -0.5085  0.5884 -0.2068
  131ACOH    H1 9946  10.295   8.625   1.694  1.1929  0.6350 -0.8685
  131ACOH    H2 9947  10.294   8.456   1.684 -0.3222  0.1730  0.2097
  131ACOH    H3 9948  10.426   8.533   1.773 -0.6767 -3.5221  0.3298
  132ACOH    H4 9949   5.916   9.429   1.610 -0.7220  0.1758  0.7787
  132ACOH    O2 9950   5.924   9.476   1.525  0.2162 -0.1743  0.6612
  132ACOH    C2 9951   5.808   9.538   1.505 -0.2429  0.3671 -0.3364
  132ACOH    O1 9952   5.723   9.554   1.592 -0.4578 -0.4838 -0.5440
  132ACOH    C1 9953   5.788   9.599   1.370  0.6928  0.0020  0.4847
  132ACOH    H1 9954   5.689   9.644   1.362 -0.6709 -2.9168  0.0071
  132ACOH    H2 9955   5.792   9.521   1.294 -1.6421 -0.3584  0.6867
  132ACOH    H3 9956   5.860   9.679   1.355 -2.0334  2.6825  1.1425
  133ACOH    H4 9957   0.968   3.016   0.719 -0.6005 -0.0260 -2.0238
  133ACOH    O2 9958   0.994   2.931   0.679  0.4217 -1.0173  0.6410
  133ACOH    C2 9959   1.001   2.946   0.542  0.8290  0.0811  0.5839
  133ACOH    O1 9960   0.992   3.040   0.462  0.2873 -0.1295 -0.2232
  133ACOH    C1 9961   1.019   2.818   0.481 -0.4931  0.1081  0.4322
  133ACOH    H1 9962   0.935   2.756   0.511 -0.6515 -0.9528 -2.0866
  133ACOH    H2 9963   1.114   2.768   0.500 -0.0701  0.0887 -1.6127
  133ACOH    H3 9964   1.015   2.821   0.372  0.9332  0.4242  0.3706
  134ACOH    H4 9965   8.834   3.495   0.808 -0.8275 -0.9978 -3.5467
  134ACOH    O2 9966   8.753   3.544   0.831  0.3533 -0.3168 -0.6171
  134ACOH    C2 9967   8.693   3.463   0.920  0.1031  0.4579 -0.2280
  134ACOH    O1 9968   8.721   3.344   0.932  0.5408 -0.4183 -0.9063
  134ACOH    C1 9969   8.586   3.534   0.987 -0.2083 -0.3510  0.2512
  134ACOH    H1 9970   8.576   3.496   1.089 -0.5143  1.8099  1.0471
  134ACOH    H2 9971   8.488   3.551   0.942 -0.5040  1.7645  1.6068
  134ACOH    H3 9972   8.622   3.636   0.998  0.3637 -0.3371 -1.7086
  135ACOH    H4 9973  10.093   6.250   1.745  1.3969  4.0502  0.7431
  135ACOH    O2 9974  10.056   6.241   1.834 -0.0385 -0.2227 -0.1768
  135ACOH    C2 9975  10.162   6.281   1.910 -0.7791  0.0380  0.0415
  135ACOH    O1 9976  10.278   6.298   1.866  0.3886  0.0293 -0.6043
  135ACOH    C1 9977  10.126   6.292   2.054 -0.0247  0.5126 -0.1321
  135ACOH    H1 9978  10.026   6.333   2.061 -0.2645  0.2102 -1.4939
  135ACOH    H2 9979  10.193   6.360   2.107 -0.5899  0.3939  0.7378
  135ACOH    H3 9980  10.144   6.189   2.086  0.8518  0.3571 -1.0886
  136ACOH    H4 9981   4.323   1.007   1.809  0.7285 -0.6316 -2.1727
  136ACOH    O2 9982   4.396   0.945   1.826  0.7613  0.1747  0.8029
  136ACOH    C2 9983   4.349   0.820   1.792 -0.0124 -0.7348 -0.1389
  136ACOH    O1 9984   4.231   0.788   1.791 -0.0226  0.3416  0.0508
  136ACOH    C1 9985   4.444   0.709   1.823  0.1122  0.0962  0.0211
  136ACOH    H1 9986   4.499   0.735   1.913 -1.2832 -1.0095  1.2097
  136ACOH    H2 9987   4.505   0.700   1.733 -1.1516 -1.4397 -0.7206
  136ACOH    H3 9988   4.393   0.613   1.828 -0.4311  0.3745 -0.1217
  137ACOH    H4 9989   1.426   9.180   2.552 -1.9539 -1.5583 -2.9599
  137ACOH    O2 9990   1.480   9.104   2.581  0.5321  1.1946  0.0555
  137ACOH    C2 9991   1.414   8.987   2.580  0.7074  0.3534 -0.5438
  137ACOH    O1 9992   1.294   8.981   2.570 -0.1458 -0.0161  0.5155
  137ACOH    C1 9993   1.502   8.880   2.630  0.1924 -0.2170 -0.0449
  137ACOH    H1 9994   1.549   8.902   2.726  2.6388 -3.6171 -0.3823
  137ACOH    H2 9995   1.578   8.869   2.553  0.6872 -0.0776  0.4229
  137ACOH    H3 9996   1.440   8.790   2.639  0.8735 -0.7327 -0.5186
  138ACOH    H4 9997   4.555   8.595   0.575 -0.4112  3.1291  2.4282
  138ACOH    O2 9998   4.625   8.560   0.633  0.2577 -0.4076 -0.3126
  138ACOH    C2 9999   4.717   8.652   0.631 -0.0668  0.1250 -0.4351
  138ACOH    O110000   4.692   8.771   0.615 -0.2321  0.0074 -0.1689
  138ACOH    C110001   4.850   8.593   0.673  0.1024 -0.3458  0.0921
  138ACOH    H110002   4.855   8.484   0.669 -0.0261 -0.3595  0.3024
  138ACOH    H210003   4.859   8.622   0.778  1.4924 -1.5876  0.3302
  138ACOH    H310004   4.932   8.639   0.618 -2.1844  4.0700  0.1472
  139ACOH    H410005   8.487   7.328   2.771 -0.0229  0.3009  1.1527
  139ACOH    O210006   8.429   7.401   2.745  0.3045 -0.0752 -0.7191
  139ACOH    C210007   8.331   7.352   2.669  0.2361 -0.0124  0.3770
  139ACOH    O110008   8.300   7.235   2.648 -0.1784  0.0528  0.0401
  139ACOH    C110009   8.259   7.457   2.592 -0.4323 -0.4131 -0.6129
  139ACOH    H110010   8.342   7.505   2.540 -1.7334  0.1302 -2.2117
  139ACOH    H210011   8.206   7.525   2.660  0.7078  0.8443 -0.9596
  139ACOH    H310012   8.188   7.414   2.521  1.0827 -0.2119 -2.2896
  140ACOH    H410013   5.753   3.220   0.912 -0.6416 -2.0743  2.2064
  140ACOH    O210014   5.733   3.138   0.862  0.5269 -0.9129 -0.2910
  140ACOH    C210015   5.626   3.172   0.783  0.2039  0.4216 -0.3036
  140ACOH    O110016   5.577   3.284   0.778 -0.4362 -0.0041 -0.1433
  140ACOH    C110017   5.596   3.058   0.689 -0.0338  0.4132 -0.4729
  140ACOH    H110018   5.686   3.022   0.639  0.7479  2.7031 -0.7766
  140ACOH    H210019   5.518   3.090   0.620  0.1414  1.3757 -0.2314
  140ACOH    H310020   5.558   2.974   0.747 -0.2429  0.1706 -0.9589
  141ACOH    H410021   1.103   8.882   1.951  1.0612 -1.2254 -0.6155
  141ACOH    O210022   1.030   8.818   1.950  0.2709 -0.3276 -0.9929
  141ACOH    C210023   1.036   8.789   1.818 -0.6288 -0.1623  0.0411
  141ACOH    O110024   1.123   8.812   1.736 -0.0661  0.0721  0.1995
  141ACOH    C110025   0.920   8.699   1.790 -0.7701  0.0150 -0.4288
  141ACOH    H110026   0.882   8.647   1.878 -1.1246 -0.4448 -0.8527
  141ACOH    H210027   0.954   8.624   1.719  1.4595  0.8192 -0.2463
  141ACOH    H310028   0.836   8.754   1.747 -0.6819  1.4467  1.1647
  142ACOH    H410029   4.987   9.792   2.329  1.0310  0.0791  0.4125
  142ACOH    O210030   5.062   9.767   2.272  0.3698  0.0803 -0.4654
  142ACOH    C210031   5.012   9.736   2.150 -0.5195  0.7252 -0.3487
  142ACOH    O110032   4.900   9.701   2.112  0.0663 -0.3681  0.2659
  142ACOH    C110033   5.127   9.711   2.057 -0.3006 -0.1945  0.0323
  142ACOH    H110034   5.186   9.798   2.029 -0.3935  0.2511  1.2420
  142ACOH    H210035   5.089   9.680   1.959  0.3435 -2.3010  0.4261
  142ACOH    H310036   5.202   9.641   2.093 -0.3391 -1.2051 -1.7865
  143ACOH    H410037   9.563   9.248   0.741  0.4461  1.6027 -1.1285
  143ACOH    O210038   9.499   9.215   0.677  0.2230  0.3527 -0.2749
  143ACOH    C210039   9.567   9.133   0.598  0.7402  0.1686 -0.9330
  143ACOH    O110040   9.685   9.132   0.589  0.8009 -0.2737  0.1662
  143ACOH    C110041   9.472   9.079   0.498 -0.0442  0.0050 -0.1057
  143ACOH    H110042   9.385   9.143   0.481  0.9157  1.2021 -0.5522
  143ACOH    H210043   9.441   8.977   0.517 -3.3258  0.8075 -0.8509
  143ACOH    H310044   9.528   9.077   0.404 -0.6511  0.1270 -0.4731
  144ACOH    H410045   8.586   7.699   0.715  1.1329  0.6855  0.1843
  144ACOH    O210046   8.543   7.758   0.650 -0.6334 -0.2607  0.4603
  144ACOH    C210047   8.609   7.874   0.622  0.4122 -0.3470 -0.1441
  144ACOH    O110048   8.711   7.920   0.671 -0.0910  0.4666  0.0019
  144ACOH    C110049   8.536   7.957   0.521  0.1636 -0.1426 -0.2265
  144ACOH    H110050   8.608   7.964   0.440  0.0474 -1.9204 -0.5108
  144ACOH    H210051   8.515   8.058   0.554  1.3079  0.0753 -0.1574
  144ACOH    H310052   8.444   7.908   0.487 -0.3287  2.1549 -2.3702
  145ACOH    H410053   1.333   1.490   2.035 -1.4483  0.9151 -0.7778
  145ACOH    O210054   1.271   1.419   2.011  0.0938 -0.5803 -0.4966
  145ACOH    C210055   1.346   1.356   1.921 -0.2234  0.6029 -0.1565
  145ACOH    O110056   1.465   1.371   1.897  1.1454 -0.0972  0.3981
  145ACOH    C110057   1.251   1.262   1.858  0.3345 -0.7544  0.0955
  145ACOH    H110058   1.295   1.217   1.769 -2.0431  0.1265 -1.5826
  145ACOH    H210059   1.164   1.316   1.821  2.7546  2.2952 -1.3516
  145ACOH    H310060   1.227   1.186   1.932  0.7227 -1.2066 -0.2385
  146ACOH    H410061   5.139   9.348   0.444 -1.4767 -1.4094  0.8707
  146ACOH    O210062   5.196   9.273   0.467  0.1555 -0.5333 -0.1480
  146ACOH    C210063   5.183   9.232   0.595  1.1395  0.0841 -0.6077
  146ACOH    O110064   5.118   9.293   0.679 -0.4760  0.2220 -0.2106
  146ACOH    C110065   5.275   9.125   0.626  0.2451 -0.8674  0.2083
  146ACOH    H110066   5.338   9.109   0.538  1.5423  0.9570  0.7985
  146ACOH    H210067   5.221   9.035   0.657 -1.3882 -0.2618 -0.8164
  146ACOH    H310068   5.346   9.167   0.697  0.2865 -0.8019  0.1273
  147ACOH    H410069   5.298   2.925   1.903  0.0886  0.0002 -1.1274
  147ACOH    O210070   5.385   2.883   1.897  0.1475 -0.1427  0.3778
  147ACOH    C210071   5.478   2.983   1.868 -0.2805 -0.1407  0.5570
  147ACOH    O110072   5.454   3.096   1.842  0.7849 -0.1721  0.4616
  147ACOH    C110073   5.608   2.918   1.829  0.5723 -0.0353  0.2354
  147ACOH    H110074   5.594   2.816   1.794 -1.2608  0.7308 -1.3861
  147ACOH    H210075   5.671   2.917   1.918  1.1014  0.8964 -0.1232
  147ACOH    H310076   5.654   2.976   1.749  1.2978  2.0818  2.1365
  148ACOH    H410077   5.012   1.554   1.138 -0.0630  0.9338 -1.7824
  148ACOH    O210078   4.922   1.521   1.150  0.4802  0.0209 -0.1568
  148ACOH    C210079   4.864   1.505   1.031 -0.8380 -0.5484  0.5917
  148ACOH    O110080   4.907   1.570   0.938  0.4673  0.3872  0.1708
  148ACOH    C110081   4.734   1.437   1.019 -0.3607 -0.3161  0.6332
  148ACOH    H110082   4.725   1.385   0.924  0.2096  1.1173 -0.2150
  148ACOH    H210083   4.657   1.513   1.027  1.4946  1.9701 -2.2197
  148ACOH    H310084   4.723   1.369   1.103 -1.1947  0.1053  0.8727
  149ACOH    H410085   8.699   3.331   0.360  0.4239  1.6243  2.3609
  149ACOH    O210086   8.669   3.414   0.318 -0.2585 -0.0827 -0.6801
  149ACOH    C210087   8.695   3.522   0.396 -0.6321  1.1072  0.0296
  149ACOH    O110088   8.802   3.533   0.453  0.2740 -0.1618 -0.1633
  149ACOH    C110089   8.600   3.637   0.377  0.2744  0.4709 -0.7288
  149ACOH    H110090   8.523   3.603   0.308 -0.3324 -0.1325  0.2424
  149ACOH    H210091   8.652   3.720   0.328  0.6113  1.1068  0.6791
  149ACOH    H310092   8.554   3.669   0.471  0.8167  1.4182 -0.7709
  150ACOH    H410093   4.607   8.748   2.785  0.2191 -0.7763 -0.2369
  150ACOH    O210094   4.690   8.732   2.832  0.3533 -0.0882 -0.2276
  150ACOH    C210095   4.686   8.616   2.900 -0.3212 -0.3572 -0.2370
  150ACOH    O110096   4.595   8.533   2.918  0.1006 -0.0063  0.5095
  150ACOH    C110097   4.816   8.613   2.973 -0.3313  0.3992  0.0326
  150ACOH    H110098   4.820   8.687   3.053  0.6344  0.1207  0.2425
  150ACOH    H210099   4.896   8.630   2.901 -0.9079  3.1760 -0.0018
  150ACOH    H310100   4.837   8.518   3.023 -0.5414  0.5003  0.3129
  151ACOH    H410101   5.425   2.677   1.331  0.2755 -2.2524  1.8305
  151ACOH    O210102   5.512   2.671   1.289 -0.2547 -0.3800  0.4248
  151ACOH    C210103   5.548   2.541   1.298 -0.0544  0.5733 -1.3467
  151ACOH    O110104   5.468   2.450   1.315 -0.2565 -0.1486  0.2902
  151ACOH    C110105   5.688   2.525   1.260  0.5600 -0.6490  0.2109
  151ACOH    H110106   5.726   2.426   1.236  1.6384 -0.6149  1.6343
  151ACOH    H210107   5.745   2.565   1.344  0.3489 -0.3710  0.2213
  151ACOH    H310108   5.701   2.592   1.175  0.2111 -2.4228 -1.2594
  152ACOH    H410109   9.351   6.180   2.031  0.3772  0.2946  0.2776
  152ACOH    O210110   9.389   6.169   1.943 -0.1502 -0.0407  0.0931
  152ACOH    C210111   9.286   6.164   1.853  0.2953  0.6695  0.8446
  152ACOH    O110112   9.168   6.186   1.887 -0.0577  0.1194 -1.1201
  152ACOH    C110113   9.340   6.130   1.720  0.2610 -0.2385 -0.5120
  152ACOH    H110114   9.295   6.040   1.680  0.2671 -0.1548 -0.7097
  152ACOH    H210115   9.449   6.131   1.721  0.2782  2.0689  1.6309
  152ACOH    H310116   9.309   6.216   1.660 -0.6524 -0.2338 -0.0462
  153ACOH    H410117   8.765   6.187   2.735 -0.3787 -1.4184 -0.6270
  153ACOH    O210118   8.739   6.149   2.649 -0.0552 -0.2665 -1.2346
  153ACOH    C210119   8.827   6.047   2.617 -0.2970  0.0173 -0.2040
  153ACOH    O110120   8.908   5.994   2.689  0.5442  0.2050 -0.0946
  153ACOH    C110121   8.786   5.986   2.492 -0.1757  0.3922 -0.1306
  153ACOH    H110122   8.726   5.896   2.502  0.8202 -0.2164  0.4582
  153ACOH    H210123   8.875   5.965   2.432 -0.1382 -2.4644  0.8653
  153ACOH    H310124   8.724   6.050   2.430 -1.5817 -0.5216  0.3152
  154ACOH    H410125   4.817   9.408   2.468 -0.3055  0.8175  0.0374
  154ACOH    O210126   4.899   9.456   2.488  0.0360  0.3371 -0.1913
  154ACOH    C210127   4.989   9.436   2.389  0.9068  0.2636  0.4195
  154ACOH    O110128   4.970   9.416   2.270  0.4474  0.5281 -0.6337
  154ACOH    C110129   5.125   9.482   2.434 -0.7323  0.2745  0.2018
  154ACOH    H110130   5.108   9.572   2.493  1.0780  0.8651 -0.1560
  154ACOH    H210131   5.178   9.515   2.344 -1.6622  2.7734  0.5181
  154ACOH    H310132   5.179   9.411   2.496 -0.0425  1.7656  1.3417
  155ACOH    H410133   4.694   8.530   1.075 -0.5500 -0.8320  0.2090
  155ACOH    O210134   4.667   8.442   1.045 -0.2175 -1.0596  0.5796
  155ACOH    C210135   4.533   8.432   1.016 -0.5147  0.0688 -0.5964
  155ACOH    O110136   4.448   8.517   1.024  0.2287  0.2099  0.2207
  155ACOH    C110137   4.506   8.298   0.950  0.3924 -0.0917 -0.5673
  155ACOH    H110138   4.436   8.245   1.015  0.8508  0.0647  0.0544
  155ACOH    H210139   4.597   8.238   0.946  0.0796 -0.5076 -1.5921
  155ACOH    H310140   4.451   8.304   0.856 -1.3673  0.9682  0.5085
  156ACOH    H410141   4.020   8.223   1.288 -0.6249 -3.8785  2.3438
  156ACOH    O210142   4.021   8.187   1.198  0.2862  0.5307  0.4705
  156ACOH    C210143   3.942   8.077   1.204  0.3731  0.4985  0.0792
  156ACOH    O110144   3.855   8.047   1.283  0.0197  0.1401 -0.4426
  156ACOH    C110145   3.957   8.011   1.069  0.1682 -0.3921 -0.1921
  156ACOH    H110146   3.918   8.078   0.992 -0.9584 -1.0003 -0.1680
  156ACOH    H210147   3.893   7.923   1.070 -0.5150  0.0933 -0.5909
  156ACOH    H310148   4.057   7.975   1.045  1.1444  0.5722  2.1968
  157ACOH    H410149   4.769   0.744   0.979 -1.0788  1.3438 -0.6275
  157ACOH    O210150   4.760   0.762   1.074 -0.2873  0.0727 -0.2920
  157ACOH    C210151   4.735   0.898   1.082  0.6224 -0.1069  0.5133
  157ACOH    O110152   4.700   0.973   0.987 -0.5410 -0.4431  0.0838
  157ACOH    C110153   4.757   0.951   1.217 -0.0437  0.6949 -0.9452
  157ACOH    H110154   4.782   1.057   1.215 -0.1848  0.8453  2.5424
  157ACOH    H210155   4.834   0.889   1.265 -0.9721  0.4328  0.2348
  157ACOH    H310156   4.664   0.926   1.267  0.3361  0.6999 -0.2176
  158ACOH    H410157   3.433   7.538   0.715  1.2130  2.0475 -1.4153
  158ACOH    O210158   3.463   7.461   0.664  0.1905  0.1847  0.7307
  158ACOH    C210159   3.400   7.355   0.720 -0.4031 -0.0977 -1.0766
  158ACOH    O110160   3.344   7.342   0.830  0.2562 -0.3813  0.1130
  158ACOH    C110161   3.424   7.234   0.639  0.5964 -0.4945 -0.2723
  158ACOH    H110162   3.474   7.271   0.549  0.2578  1.5620  0.3686
  158ACOH    H210163   3.328   7.186   0.617 -0.6370  1.4249  0.8043
  158ACOH    H310164   3.487   7.167   0.697  1.2031  1.1170  0.9448
  159ACOH    H410165   3.812   6.243   0.655  1.2529 -0.5709 -0.0168
  159ACOH    O210166   3.821   6.311   0.586 -0.4181 -0.2940  0.0120
  159ACOH    C210167   3.699   6.362   0.552 -0.1372  0.1531  0.1877
  159ACOH    O110168   3.603   6.349   0.626  0.1796 -0.0244 -0.1297
  159ACOH    C110169   3.701   6.468   0.445  0.2579 -0.0115  0.2295
  159ACOH    H110170   3.717   6.566   0.489  3.0833  0.5564 -1.8546
  159ACOH    H210171   3.605   6.460   0.393 -0.1084 -0.5977  0.9911
  159ACOH    H310172   3.783   6.455   0.374  0.5335 -0.1798  0.5818
  160ACOH    H410173   3.482   6.956   0.174 -0.2669  0.5875  0.9617
  160ACOH    O210174   3.525   7.033   0.132  0.4220 -0.2417  0.1430
  160ACOH    C210175   3.501   7.137   0.204  0.2292  0.5366  1.0440
  160ACOH    O110176   3.436   7.145   0.301 -0.2741 -0.3239 -0.1508
  160ACOH    C110177   3.594   7.247   0.160 -0.1473 -0.9777  0.0616
  160ACOH    H110178   3.658   7.218   0.076 -0.9002  1.7977 -1.5358
  160ACOH    H210179   3.658   7.284   0.240 -2.3102  0.6252  1.0702
  160ACOH    H310180   3.534   7.329   0.122  0.1620 -0.4716  0.6615
  161ACOH    H410181   2.253   3.269   1.379  0.1577 -0.9149  0.5379
  161ACOH    O210182   2.276   3.262   1.473 -0.1437 -0.2829  0.6629
  161ACOH    C210183   2.398   3.313   1.474 -0.2630  0.1244 -0.3463
  161ACOH    O110184   2.439   3.406   1.411  0.4336 -0.1152  0.2919
  161ACOH    C110185   2.487   3.226   1.561 -0.0198  0.1154 -0.6363
  161ACOH    H110186   2.424   3.147   1.601 -0.3598  0.6167 -0.1815
  161ACOH    H210187   2.532   3.287   1.639  0.1959 -1.6870  0.6972
  161ACOH    H310188   2.560   3.177   1.497  0.0214  0.6112 -0.9695
  162ACOH    H410189   5.208   3.960   1.681 -0.8855 -1.5471 -1.5266
  162ACOH    O210190   5.271   3.962   1.607  0.4616 -0.0104 -0.3743
  162ACOH    C210191   5.335   3.841   1.603  0.4363 -0.3877  0.0268
  162ACOH    O110192   5.310   3.741   1.669  0.7096  0.5421 -0.2566
  162ACOH    C110193   5.463   3.840   1.523  0.4944  0.4646  0.3227
  162ACOH    H110194   5.549   3.856   1.587 -0.5656  0.8311  1.6903
  162ACOH    H210195   5.459   3.917   1.446 -1.3948  2.1431  2.0185
  162ACOH    H310196   5.482   3.749   1.466 -0.2575  0.4829  0.0330
  163ACOH    H410197   4.718   8.962   0.219  0.4979  0.4104  1.7861
  163ACOH    O210198   4.748   9.043   0.174  0.7047 -0.3235  0.5620
  163ACOH    C210199   4.877   9.020   0.153 -0.9638 -0.2445 -0.6080
  163ACOH    O110200   4.943   8.951   0.231 -0.2592  0.8898  0.2109
  163ACOH    C110201   4.945   9.108   0.052  0.9436 -0.3002 -0.2232
  163ACOH    H110202   5.036   9.152   0.092  1.2528  0.1624 -1.4068
  163ACOH    H210203   4.874   9.190   0.040  1.8917  0.5985  0.2567
  163ACOH    H310204   4.955   9.057  -0.044 -1.8228  2.0437 -1.8307
  164ACOH    H410205   8.661   3.598   1.879  0.4145 -0.2132  1.4032
  164ACOH    O210206   8.581   3.542   1.873  0.1745  0.2595 -0.2451
  164ACOH    C210207   8.574   3.467   1.986  0.7000 -0.4649  0.2129
  164ACOH    O110208   8.665   3.456   2.060 -0.2623  0.7516 -0.2392
  164ACOH    C110209   8.462   3.370   1.967 -0.4611  0.6279 -0.4232
  164ACOH    H110210   8.403   3.392   1.879 -0.3988  1.4673 -0.2551
  164ACOH    H210211   8.399   3.381   2.056  0.3896  2.0087  0.0234
  164ACOH    H310212   8.503   3.269   1.957 -4.3033 -1.0896  0.2197
  165ACOH    H410213   8.729   4.720   0.810  1.6505  0.0798  0.2786
  165ACOH    O210214   8.748   4.786   0.742 -0.1716 -0.2233 -0.5555
  165ACOH    C210215   8.821   4.713   0.648  0.2540  0.3685 -0.0211
  165ACOH    O110216   8.847   4.595   0.654  0.0883  0.0772  0.0754
  165ACOH    C110217   8.869   4.797   0.529  0.2198 -0.4496 -0.1716
  165ACOH    H110218   8.976   4.815   0.541 -0.1885  0.7603  1.9443
  165ACOH    H210219   8.802   4.881   0.511  1.9031  0.4552 -2.4101
  165ACOH    H310220   8.856   4.728   0.446 -1.0571 -0.8347  0.3305
  166ACOH    H410221   3.089   7.500   0.595 -0.8903  2.3035  0.3679
  166ACOH    O210222   3.178   7.531   0.574  0.0918 -0.8979 -0.4117
  166ACOH    C210223   3.164   7.601   0.461 -0.1137  0.2975  0.2566
  166ACOH    O110224   3.070   7.597   0.391 -0.4930  0.4597  0.3814
  166ACOH    C110225   3.280   7.682   0.429  0.5560 -0.2146 -0.4172
  166ACOH    H110226   3.322   7.648   0.334  1.3193  0.5392 -0.3481
  166ACOH    H210227   3.353   7.679   0.510  1.0632  0.1412 -0.8646
  166ACOH    H310228   3.244   7.784   0.416  0.7719  0.0262  0.7878
  167ACOH    H410229   8.273   6.687   0.706 -1.5224  0.5396 -0.1508
  167ACOH    O210230   8.213   6.615   0.678 -0.6339 -0.1025 -0.4421
  167ACOH    C210231   8.273   6.511   0.624 -0.5759 -0.2444 -0.5886
  167ACOH    O110232   8.380   6.509   0.565 -0.2358  0.1823  0.7314
  167ACOH    C110233   8.177   6.400   0.614  0.3307  0.0012  0.2263
  167ACOH    H110234   8.074   6.435   0.607  0.2208 -0.3622  0.0013
  167ACOH    H210235   8.185   6.331   0.699  0.0221  0.7007  0.8251
  167ACOH    H310236   8.197   6.335   0.529 -0.7342 -0.3756  0.2522
  168ACOH    H410237   4.798   4.354   1.019  0.6545 -1.0142 -1.2002
  168ACOH    O210238   4.866   4.420   1.000  0.2725 -0.1194  0.4991
  168ACOH    C210239   4.973   4.376   0.936  0.2130  0.1683  0.6359
  168ACOH    O110240   4.989   4.258   0.907 -0.3977 -0.3221 -0.2089
  168ACOH    C110241   5.070   4.479   0.893  0.4502  0.3556  0.2505
  168ACOH    H110242   5.027   4.539   0.812 -0.7603 -0.9534 -0.0947
  168ACOH    H210243   5.152   4.418   0.854  0.5891  2.1352 -2.4093
  168ACOH    H310244   5.099   4.537   0.981 -1.6358 -0.2608  1.3591
  169ACOH    H410245   9.795   4.312   1.663  0.0698  0.3510 -0.7822
  169ACOH    O210246   9.780   4.216   1.654 -0.1887  0.3188 -0.1050
  169ACOH    C210247   9.655   4.173   1.608  0.2334  0.5525  0.8489
  169ACOH    O110248   9.557   4.242   1.597 -0.0511 -0.4151  0.0599
  169ACOH    C110249   9.665   4.029   1.576  0.0397  0.0570  0.7649
  169ACOH    H110250   9.668   3.964   1.663  1.0035 -3.3001 -1.7174
  169ACOH    H210251   9.749   4.019   1.508  0.0285 -4.5833  1.2869
  169ACOH    H310252   9.579   3.992   1.521 -0.8400 -1.6891  3.2247
  170ACOH    H410253   2.068   3.451   1.311 -1.3763  0.2702  0.2062
  170ACOH    O210254   2.035   3.419   1.226  0.2174  0.4174 -0.4803
  170ACOH    C210255   1.936   3.492   1.183 -0.3322 -0.3973  0.6243
  170ACOH    O110256   1.913   3.601   1.235 -0.0861 -0.2067  0.2215
  170ACOH    C110257   1.864   3.444   1.062  0.8332  0.4862  0.6400
  170ACOH    H110258   1.857   3.517   0.981  2.0097 -0.2112 -0.0987
  170ACOH    H210259   1.759   3.438   1.091  0.9658  1.0976  1.2750
  170ACOH    H310260   1.897   3.348   1.024 -3.3567 -0.6378 -0.3731
  171ACOH    H410261   3.281   2.510   2.529  0.4622  0.3718  0.4416
  171ACOH    O210262   3.221   2.543   2.598  0.2046  0.3165  0.2454
  171ACOH    C210263   3.144   2.643   2.564  0.1018 -0.3285 -0.1093
  171ACOH    O110264   3.147   2.692   2.451 -0.0870 -0.5685 -0.2024
  171ACOH    C110265   3.041   2.665   2.670  0.3214 -0.6489 -0.0454
  171ACOH    H110266   3.077   2.640   2.770 -0.4349  2.4355  1.0782
  171ACOH    H210267   2.941   2.629   2.648  1.2985 -1.9999 -2.5142
  171ACOH    H310268   3.028   2.774   2.668 -1.5697 -0.7382  3.5602
  172ACOH    H410269   4.853   9.568   0.338  1.9050 -0.6746  0.0393
  172ACOH    O210270   4.853   9.588   0.242  0.0201  0.0814  0.1871
  172ACOH    C210271   4.933   9.501   0.178  0.1322 -0.3041  0.4660
  172ACOH    O110272   5.013   9.432   0.236 -0.2893  0.2544 -0.1430
  172ACOH    C110273   4.925   9.506   0.031 -0.0070 -0.3477 -0.0907
  172ACOH    H110274   4.849   9.438  -0.006 -0.9663 -0.0102  1.2149
  172ACOH    H210275   5.015   9.458  -0.009  0.9200  0.5398  0.9040
  172ACOH    H310276   4.917   9.606  -0.011  2.8087  0.0569  0.1929
  173ACOH    H410277   8.830   4.643   1.010  0.7863 -2.0639  0.1865
  173ACOH    O210278   8.765   4.624   0.940 -0.3484 -0.1210  0.6902
  173ACOH    C210279   8.690   4.525   0.980  0.6772  0.8603  0.0283
  173ACOH    O110280   8.704   4.479   1.095 -0.4538 -0.1012  0.8005
  173ACOH    C110281   8.600   4.459   0.885 -0.5112  0.5090  0.6072
  173ACOH    H110282   8.555   4.370   0.930 -0.6249 -0.3074 -1.0715
  173ACOH    H210283   8.637   4.426   0.788  0.4850  0.1642  1.1032
  173ACOH    H310284   8.528   4.539   0.865  0.1710  0.7611 -0.8560
  174ACOH    H410285   4.709   9.466   1.818  0.1655  1.4291 -0.8370
  174ACOH    O210286   4.699   9.416   1.735 -0.2637 -0.4991  0.3573
  174ACOH    C210287   4.715   9.281   1.760  0.2659 -0.3820  0.2081
  174ACOH    O110288   4.717   9.223   1.871  0.0428 -0.3473  0.8826
  174ACOH    C110289   4.681   9.212   1.635 -0.1193  0.0306 -0.3123
  174ACOH    H110290   4.576   9.227   1.610  0.2932 -0.9311 -2.8609
  174ACOH    H210291   4.709   9.107   1.642 -0.5019 -0.1378 -1.1720
  174ACOH    H310292   4.742   9.246   1.552 -1.0355  0.9998 -0.5971
  175ACOH    H410293   4.796   1.138   2.403 -0.5122  0.2304  0.0627
  175ACOH    O210294   4.879   1.188   2.414 -0.3939  0.0586 -0.0303
  175ACOH    C210295   4.867   1.300   2.345 -0.9551  0.6047 -0.0124
  175ACOH    O110296   4.766   1.357   2.317  0.9777 -0.3577 -0.5393
  175ACOH    C110297   5.001   1.359   2.333 -0.1260 -0.1025 -0.0300
  175ACOH    H110298   5.020   1.389   2.230  0.5031  0.9898  0.3866
  175ACOH    H210299   5.080   1.289   2.357  0.6873  0.7434 -0.1905
  175ACOH    H310300   5.016   1.433   2.412 -0.9527 -0.5282  0.5261
  176ACOH    H410301   8.847   7.268   1.640 -0.7902 -1.0044  0.3134
  176ACOH    O210302   8.766   7.319   1.627 -0.0674  0.1092  0.0780
  176ACOH    C210303   8.776   7.396   1.520 -0.7555 -0.6780 -0.5615
  176ACOH    O110304   8.858   7.372   1.431 -0.2007  0.4396  0.0460
  176ACOH    C110305   8.662   7.487   1.495  0.4613  0.0702  0.0744
  176ACOH    H110306   8.589   7.485   1.576  0.5044  1.0615  0.1396
  176ACOH    H210307   8.616   7.474   1.397  2.5611 -0.6536 -0.8493
  176ACOH    H310308   8.708   7.585   1.488 -2.3904  1.6469  2.1987
  177ACOH    H410309   2.972   7.253   2.298  0.9875 -1.4732  2.0079
  177ACOH    O210310   3.033   7.320   2.333 -0.2958  0.7100  0.2667
  177ACOH    C210311   3.154   7.266   2.317  0.0857 -0.0130 -0.0404
  177ACOH    O110312   3.190   7.156   2.273 -0.2155  0.2642  0.2805
  177ACOH    C110313   3.252   7.356   2.376 -0.0128 -0.6278  0.1192
  177ACOH    H110314   3.201   7.434   2.432 -1.9565 -0.8502 -1.2864
  177ACOH    H210315   3.295   7.402   2.287 -1.4952  0.1293 -0.2106
  177ACOH    H310316   3.328   7.305   2.436 -1.2380 -0.4807  1.8283
  178ACOH    H410317   0.969   0.165   1.337 -0.5041 -0.5773  0.8066
  178ACOH    O210318   0.931   0.127   1.257 -0.5391 -0.0449  0.5694
  178ACOH    C210319   1.040   0.054   1.208  0.1558 -0.6931 -0.5275
  178ACOH    O110320   1.146   0.026   1.263  0.0338  0.4674 -0.6184
  178ACOH    C110321   1.021   0.016   1.065 -1.0129 -0.1343 -0.4620
  178ACOH    H110322   0.918  -0.009   1.039 -1.0604 -0.7131  0.2573
  178ACOH    H210323   1.077  -0.076   1.046  0.8625  0.5912  1.3049
  178ACOH    H310324   1.057   0.089   0.993 -0.6280  1.3007  1.1304
  179ACOH    H410325   8.943   4.922   2.412 -1.8091  1.8999 -1.3460
  179ACOH    O210326   8.966   4.879   2.327  0.1105 -0.4628  0.2803
  179ACOH    C210327   8.905   4.759   2.339 -0.1139  0.8495 -0.4104
  179ACOH    O110328   8.870   4.697   2.437  0.2350  0.5939 -0.0180
  179ACOH    C110329   8.919   4.691   2.207 -0.1559  0.8683  0.3563
  179ACOH    H110330   8.830   4.632   2.188  0.3775 -0.2417  1.2580
  179ACOH    H210331   9.011   4.635   2.214 -2.0198 -2.1400  1.6905
  179ACOH    H310332   8.934   4.764   2.128  1.8482 -0.4906 -0.5453
  180ACOH    H410333   8.876   3.404   1.276  1.1054 -0.5434 -0.4933
  180ACOH    O210334   8.848   3.365   1.360 -0.0818  0.6118 -0.3349
  180ACOH    C210335   8.776   3.457   1.422 -0.1074 -0.8989 -0.4505
  180ACOH    O110336   8.714   3.544   1.366  0.5640 -0.6596 -0.1428
  180ACOH    C110337   8.776   3.448   1.570  0.0057 -0.3260 -0.3893
  180ACOH    H110338   8.846   3.521   1.610 -0.3966 -0.3121  0.3010
  180ACOH    H210339   8.806   3.348   1.603  0.7923  0.1447  0.3389
  180ACOH    H310340   8.679   3.462   1.618  0.5237  0.5850  0.4069
  181ACOH    H410341   4.727   8.981   1.262 -0.5566 -1.4386 -1.7907
  181ACOH    O210342   4.791   8.907   1.269  0.1283 -0.7335 -0.3600
  181ACOH    C210343   4.788   8.863   1.398  0.2984 -0.0048  0.0174
  181ACOH    O110344   4.701   8.883   1.473  0.1657  0.2659  0.2726
  181ACOH    C110345   4.869   8.744   1.415 -0.2487  0.2121  0.1592
  181ACOH    H110346   4.948   8.731   1.342 -0.6950 -0.9226 -0.1273
  181ACOH    H210347   4.807   8.655   1.402  1.7065 -0.9731 -1.2154
  181ACOH    H310348   4.908   8.743   1.517  2.0841 -0.5759 -0.7118
  182ACOH    H410349   8.661   6.340   1.916 -1.9119 -0.9138  1.7557
  182ACOH    O210350   8.640   6.272   1.850 -0.0664  0.3117 -0.1576
  182ACOH    C210351   8.527   6.300   1.799  0.4270  0.2613  0.1391
  182ACOH    O110352   8.454   6.397   1.818 -0.4307  0.4358 -0.5450
  182ACOH    C110353   8.487   6.197   1.707  0.8480  0.1628 -0.0654
  182ACOH    H110354   8.386   6.167   1.737  1.5120 -2.4781 -0.3513
  182ACOH    H210355   8.553   6.112   1.727  1.2034  0.4246 -0.1320
  182ACOH    H310356   8.494   6.222   1.601  1.2884 -1.8104 -0.5213
  183ACOH    H410357   8.914   3.976   1.909  0.6501  0.1693 -0.7916
  183ACOH    O210358   8.831   3.981   1.859  0.2884  0.0113 -0.2146
  183ACOH    C210359   8.772   4.099   1.884 -0.3900 -0.4278 -0.1608
  183ACOH    O110360   8.828   4.193   1.935  0.3389 -0.4157  0.1432
  183ACOH    C110361   8.649   4.115   1.812  0.1529  0.3390 -0.8443
  183ACOH    H110362   8.670   4.131   1.707  0.6264  0.6563 -0.7005
  183ACOH    H210363   8.591   4.200   1.849  0.6496 -1.0824  3.4613
  183ACOH    H310364   8.584   4.028   1.823  0.0915  0.2919 -1.5689
  184ACOH    H410365   2.168   4.648   2.276 -2.2438  0.6129  1.0236
  184ACOH    O210366   2.141   4.694   2.194 -0.3139 -0.1185 -0.0320
  184ACOH    C210367   2.016   4.667   2.160 -0.1840  0.9189  0.1918
  184ACOH    O110368   1.952   4.577   2.205 -0.5057 -0.2468  0.1356
  184ACOH    C110369   1.994   4.724   2.035 -0.2350  0.1034  0.5015
  184ACOH    H110370   2.078   4.698   1.971 -1.5774  0.0127 -1.2691
  184ACOH    H210371   1.996   4.832   2.054 -3.3728  0.1834  0.5614
  184ACOH    H310372   1.895   4.699   1.996  0.6083  0.7821 -2.2589
  185ACOH    H410373   3.164   5.391   1.077  1.7906  1.8199 -0.6322
  185ACOH    O210374   3.246   5.341   1.091  0.3262 -0.4760  0.0266
  185ACOH    C210375   3.226   5.216   1.139  0.2201 -0.0833  0.1604
  185ACOH    O110376   3.116   5.163   1.151 -0.5877 -0.4788 -0.1763
  185ACOH    C110377   3.346   5.134   1.172 -0.7850  0.5635  0.1384
  185ACOH    H110378   3.398   5.164   1.263  2.0341 -1.0341 -0.8836
  185ACOH    H210379   3.422   5.135   1.094  0.7661  0.1636  1.6142
  185ACOH    H310380   3.312   5.033   1.194 -2.2774  0.4625 -2.4247
  186ACOH    H410381   3.591   2.752   0.415 -0.7780  0.4032  1.4446
  186ACOH    O210382   3.670   2.768   0.470  0.2223 -0.1994  0.2149
  186ACOH    C210383   3.613   2.853   0.554 -0.5494  0.2246 -0.4969
  186ACOH    O110384   3.516   2.922   0.538 -0.3839 -0.1207 -0.1316
  186ACOH    C110385   3.711   2.867   0.664  0.0181 -0.0384  0.4228
  186ACOH    H110386   3.809   2.843   0.625 -1.3322 -3.4888 -1.0542
  186ACOH    H210387   3.691   2.788   0.736  0.7395 -1.0073 -0.4372
  186ACOH    H310388   3.703   2.962   0.718  0.0385 -0.9175  1.9901
  187ACOH    H410389   8.636   6.291   0.220 -0.9850  0.7615  0.0410
  187ACOH    O210390   8.556   6.297   0.275 -0.6600 -0.1192  0.6327
  187ACOH    C210391   8.558   6.187   0.347 -0.6027  0.7727 -0.5140
  187ACOH    O110392   8.642   6.101   0.348 -0.4285 -0.0294 -0.1706
  187ACOH    C110393   8.460   6.188   0.455 -0.5158  0.8504 -0.2082
  187ACOH    H110394   8.509   6.182   0.552  0.0762  3.2222 -0.3212
  187ACOH    H210395   8.401   6.100   0.430  0.5893  0.2887 -0.8488
  187ACOH    H310396   8.404   6.282   0.447 -3.0656 -0.4275  2.1333
  188ACOH    H410397   4.549   0.018   0.102  0.9558 -1.9299 -1.0210
  188ACOH    O210398   4.569   0.069   0.022 -0.6989  0.2260 -0.1132
  188ACOH    C210399   4.597  -0.013  -0.081 -0.2876 -0.5665  0.0851
  188ACOH    O110400   4.651  -0.119  -0.075 -0.3981  0.2596 -0.0344
  188ACOH    C110401   4.580   0.058  -0.211  0.3056 -0.3553  1.0719
  188ACOH    H110402   4.526  -0.005  -0.281  0.4222  0.5357  0.1772
  188ACOH    H210403   4.672   0.094  -0.257 -0.0497  1.1553  1.5089
  188ACOH    H310404   4.518   0.145  -0.193  0.6486 -0.2387  1.7187
  189ACOH    H410405   9.244   7.379   2.529  1.0508 -0.1300  0.1349
  189ACOH    O210406   9.194   7.298   2.551 -0.1044  0.4571 -0.2733
  189ACOH    C210407   9.096   7.320   2.642  0.0878  0.7331 -0.0125
  189ACOH    O110408   9.054   7.432   2.680 -0.1145  0.5893 -0.0946
  189ACOH    C110409   9.041   7.191   2.696  0.3655  0.1234 -0.3275
  189ACOH    H110410   9.081   7.181   2.796  1.3365  0.2729 -0.6980
  189ACOH    H210411   9.078   7.114   2.628 -1.4464 -0.1770 -0.9961
  189ACOH    H310412   8.932   7.196   2.700  0.3670 -0.2465  0.1382
  190ACOH    H410413   4.061   8.583   0.345  0.3882  0.2842 -0.3322
  190ACOH    O210414   4.082   8.488   0.343 -0.5109  0.0851 -0.7194
  190ACOH    C210415   4.043   8.423   0.458  0.4857 -0.3651  0.1860
  190ACOH    O110416   4.008   8.472   0.564  0.0648 -0.2964  0.5213
  190ACOH    C110417   4.052   8.282   0.430  0.1812  0.5356 -0.9160
  190ACOH    H110418   4.139   8.253   0.488 -0.9904 -1.0372  0.1202
  190ACOH    H210419   4.063   8.255   0.325 -0.6260  0.3676 -0.9625
  190ACOH    H310420   3.963   8.233   0.470  0.9647  0.8028  1.2033
  191ACOH    H410421   8.770   3.100   0.089  0.2441 -3.0674  0.6911
  191ACOH    O210422   8.680   3.085   0.054 -0.0206  0.5161 -0.3139
  191ACOH    C210423   8.643   3.217   0.022 -1.1453  0.2916  0.3422
  191ACOH    O110424   8.700   3.321   0.038  0.2224  0.3489  0.1259
  191ACOH    C110425   8.499   3.204  -0.016 -0.3275  1.3031  0.2042
  191ACOH    H110426   8.445   3.144   0.056  0.6603  1.5092  1.1294
  191ACOH    H210427   8.485   3.163  -0.116  2.4188 -1.8483  1.0251
  191ACOH    H310428   8.462   3.307  -0.018  1.0763  1.8121 -1.8110
  192ACOH    H410429   2.935   9.978   2.135  0.6622  0.9132  0.6587
  192ACOH    O210430   2.843   9.985   2.165  0.2605 -0.4879 -0.2017
  192ACOH    C210431   2.767  10.011   2.060  0.1166  0.3318  0.3149
  192ACOH    O110432   2.785  10.024   1.941 -0.0345 -0.2985 -0.8429
  192ACOH    C110433   2.633  10.047   2.109  0.5016 -0.0024  0.2976
  192ACOH    H110434   2.552  10.003   2.051  0.4140 -4.0547  3.2416
  192ACOH    H210435   2.624  10.155   2.119 -2.7154 -0.2429  0.4989
  192ACOH    H310436   2.619  10.003   2.208  2.6441  0.2452  0.7390
  193ACOH    H410437   4.405   8.579   2.274 -1.3864 -1.5410  0.4662
  193ACOH    O210438   4.435   8.513   2.209 -0.2503 -0.4454 -0.1481
  193ACOH    C210439   4.393   8.390   2.255 -1.0471  0.0344 -0.1547
  193ACOH    O110440   4.320   8.362   2.346 -0.0991  0.2386 -0.3672
  193ACOH    C110441   4.460   8.288   2.175  0.2738 -0.2480  0.3561
  193ACOH    H110442   4.434   8.296   2.070  1.5574  1.7775  0.1801
  193ACOH    H210443   4.445   8.186   2.212  0.7672 -1.0417 -1.6128
  193ACOH    H310444   4.564   8.313   2.194  0.4033  0.8841 -1.8025
  194ACOH    H410445   4.238   5.464   1.889  0.3873  2.1675  1.0270
  194ACOH    O210446   4.305   5.500   1.827 -0.2401  0.5875 -0.6211
  194ACOH    C210447   4.345   5.406   1.742  0.0110 -0.4350  0.4905
  194ACOH    O110448   4.279   5.304   1.714 -0.5772 -0.1878 -0.1251
  194ACOH    C110449   4.458   5.451   1.662 -0.3025  0.0190 -0.0808
  194ACOH    H110450   4.548   5.479   1.717  0.7132 -0.0073 -1.7044
  194ACOH    H210451   4.435   5.534   1.596 -0.6119 -0.5591 -0.7098
  194ACOH    H310452   4.489   5.373   1.592  2.2488 -0.9658  2.0177
  195ACOH    H410453   4.504   1.073   1.332 -1.1818  1.1610  1.0473
  195ACOH    O210454   4.545   1.128   1.401  0.7027  0.4071  0.5588
  195ACOH    C210455   4.555   1.053   1.511 -0.9493  0.0878  0.0919
  195ACOH    O110456   4.578   0.936   1.519 -0.1902  0.1246  0.3195
  195ACOH    C110457   4.584   1.138   1.630 -0.2271  0.2040  0.4330
  195ACOH    H110458   4.491   1.175   1.673  0.9362  2.0281  1.4375
  195ACOH    H210459   4.638   1.229   1.604  1.4296 -0.9355 -0.1577
  195ACOH    H310460   4.634   1.085   1.711  0.9056  0.7269  0.0885
  196ACOH    H410461   3.579   5.713   2.116 -0.1553 -0.2680  2.0820
  196ACOH    O210462   3.610   5.800   2.146  0.1111  0.4337 -0.1202
  196ACOH    C210463   3.728   5.801   2.211 -0.2419 -0.7037  0.8237
  196ACOH    O110464   3.804   5.708   2.196  0.0427  0.0577 -0.0013
  196ACOH    C110465   3.755   5.923   2.286  0.1673  0.2843 -0.2206
  196ACOH    H110466   3.763   5.901   2.393  1.1759 -1.7450 -0.6942
  196ACOH    H210467   3.683   6.003   2.266  1.5155  1.6292  0.2026
  196ACOH    H310468   3.852   5.960   2.253  0.5330 -0.8266 -0.4086
  197ACOH    H410469   4.030   5.984   0.455  0.6658 -0.0552  0.0559
  197ACOH    O210470   4.054   6.076   0.475  0.0073  0.0577  0.3253
  197ACOH    C210471   4.012   6.148   0.369  0.0133 -0.0998  0.4601
  197ACOH    O110472   3.956   6.106   0.269  0.0995 -0.2802 -0.4044
  197ACOH    C110473   4.048   6.294   0.369 -0.0270  0.5293  0.9886
  197ACOH    H110474   3.989   6.357   0.303  0.1045 -0.9296 -0.5465
  197ACOH    H210475   4.150   6.309   0.334 -0.7973 -0.1656 -1.6445
  197ACOH    H310476   4.051   6.340   0.468 -0.0209  1.5773  0.5077
  198ACOH    H410477   5.321   2.476   1.430  0.6669  3.1866 -0.3356
  198ACOH    O210478   5.255   2.490   1.500  0.3067 -0.7728  0.2368
  198ACOH    C210479   5.141   2.529   1.439 -0.7801  0.1043 -0.3254
  198ACOH    O110480   5.104   2.500   1.323  0.3826 -0.6676 -0.1012
  198ACOH    C110481   5.042   2.576   1.540 -0.2809  0.1665 -0.2571
  198ACOH    H110482   4.951   2.616   1.496 -0.2363  1.7945  1.0885
  198ACOH    H210483   5.091   2.654   1.598  0.0437 -1.1263  1.2428
  198ACOH    H310484   5.022   2.494   1.608  0.2573 -0.3295 -0.6857
  199ACOH    H410485   8.683   3.023   2.024  1.8561 -0.7029  0.9020
  199ACOH    O210486   8.675   2.955   1.954  0.0583  0.0373  0.3626
  199ACOH    C210487   8.674   3.012   1.833  0.2462  0.4935 -0.1128
  199ACOH    O110488   8.681   3.134   1.816  0.3383 -0.0084  0.4821
  199ACOH    C110489   8.649   2.907   1.731  1.1382 -0.3366  0.0438
  199ACOH    H110490   8.552   2.926   1.685  1.7674  2.3260 -0.2922
  199ACOH    H210491   8.655   2.803   1.764 -1.6616 -1.2322 -2.1460
  199ACOH    H310492   8.734   2.917   1.664  1.6849  0.2409  0.8079
  200ACOH    H410493   5.274   4.192   2.188  1.2614  0.0003  0.0283
  200ACOH    O210494   5.271   4.280   2.147  0.1453  0.1163  0.3204
  200ACOH    C210495   5.156   4.300   2.081  0.8788  0.0333  0.1018
  200ACOH    O110496   5.068   4.218   2.060 -0.1198 -0.3319 -0.2619
  200ACOH    C110497   5.134   4.438   2.031 -0.3722  0.0101 -0.2360
  200ACOH    H110498   5.099   4.430   1.929 -1.5876 -0.0649  0.1775
  200ACOH    H210499   5.226   4.497   2.030  0.0848 -0.6973 -0.4989
  200ACOH    H310500   5.066   4.478   2.106  0.6420  0.0496  0.6896
  201ACOH    H410501   3.642   5.346   1.058  0.5144  4.4171 -1.9371
  201ACOH    O210502   3.590   5.385   1.130 -0.1541  0.0676  0.0984
  201ACOH    C210503   3.659   5.469   1.207  0.1248  0.0143 -0.0610
  201ACOH    O110504   3.758   5.521   1.164  0.3212  0.0716  0.3372
  201ACOH    C110505   3.569   5.541   1.293 -0.1482 -0.1751  0.1636
  201ACOH    H110506   3.517   5.621   1.240  0.5096 -0.1486 -0.4539
  201ACOH    H210507   3.629   5.594   1.367  0.1222 -1.7048  1.0473
  201ACOH    H310508   3.493   5.480   1.343 -0.3778 -0.7962 -0.9220
  202ACOH    H410509   5.332   3.182   1.285 -1.6800 -0.1737 -0.6846
  202ACOH    O210510   5.333   3.104   1.228 -0.0698 -0.4885 -0.2590
  202ACOH    C210511   5.423   3.115   1.131 -0.4561 -0.5863  0.5127
  202ACOH    O110512   5.491   3.212   1.099 -0.0978  0.6323 -0.0014
  202ACOH    C110513   5.443   2.980   1.077  0.4771 -0.8400  0.3940
  202ACOH    H110514   5.477   2.921   1.162  0.9517  0.6813  1.2943
  202ACOH    H210515   5.520   2.992   1.001  1.2887  0.3189  1.3605
  202ACOH    H310516   5.354   2.940   1.030  0.4472 -0.6315  0.2726
  203ACOH    H410517   2.409   0.151   1.809  2.0438 -1.1416  0.2151
  203ACOH    O210518   2.435   0.225   1.866 -0.5756 -0.1337  0.1819
  203ACOH    C210519   2.353   0.325   1.842  0.8287 -0.1402 -0.7474
  203ACOH    O110520   2.284   0.343   1.744  0.4229  0.1437  0.6881
  203ACOH    C110521   2.369   0.427   1.950 -0.5346 -0.1308 -0.2330
  203ACOH    H110522   2.386   0.529   1.915  1.1698 -0.1773  0.4158
  203ACOH    H210523   2.450   0.400   2.017  0.5887  0.7783 -1.1943
  203ACOH    H310524   2.276   0.436   2.006 -1.7943 -0.4897 -2.2018
  204ACOH    H410525   4.969   3.802   2.373  0.4385 -0.4944  0.1115
  204ACOH    O210526   4.972   3.725   2.432  0.4601 -0.2480  0.4349
  204ACOH    C210527   5.080   3.719   2.513 -0.0418 -0.1745  0.2769
  204ACOH    O110528   5.162   3.806   2.536 -0.1694 -0.2682  0.7265
  204ACOH    C110529   5.073   3.591   2.591 -0.7101 -0.2382 -0.3265
  204ACOH    H110530   5.050   3.502   2.534  1.3698 -1.3251  0.4540
  204ACOH    H210531   4.993   3.605   2.664 -0.8910  1.2009 -0.7876
  204ACOH    H310532   5.163   3.573   2.651 -0.7322 -1.2539 -0.5991
  205ACOH    H410533   4.066   3.807   1.405  0.5950 -0.0879 -0.3084
  205ACOH    O210534   4.132   3.770   1.465  0.4129  0.1252  0.0272
  205ACOH    C210535   4.225   3.865   1.468 -0.1255  0.6744  0.2414
  205ACOH    O110536   4.252   3.938   1.374 -0.6090  0.4431  0.0463
  205ACOH    C110537   4.325   3.846   1.579 -0.1902 -0.3353  0.2861
  205ACOH    H110538   4.405   3.779   1.549  0.6082 -0.1842  2.0623
  205ACOH    H210539   4.280   3.796   1.665 -1.3266 -0.8126 -0.5637
  205ACOH    H310540   4.365   3.943   1.606 -1.1299 -0.1054  0.8713
  206ACOH    H410541   4.988   4.882   0.695 -2.5959 -1.8666 -0.2845
  206ACOH    O210542   4.947   4.950   0.750 -0.4911 -0.6838 -0.1407
  206ACOH    C210543   4.815   4.943   0.733  0.9926  0.3181 -0.1030
  206ACOH    O110544   4.761   4.908   0.632  0.4827 -0.5371  0.2325
  206ACOH    C110545   4.749   5.042   0.820  0.5405 -0.1729 -0.1128
  206ACOH    H110546   4.746   5.018   0.926 -0.8730  0.7415  0.0813
  206ACOH    H210547   4.648   5.059   0.782  0.9674 -0.1618 -1.2946
  206ACOH    H310548   4.806   5.134   0.802 -1.1744  0.9327  0.0154
  207ACOH    H410549   9.467   3.293   2.302 -0.6285 -1.6584 -0.8910
  207ACOH    O210550   9.411   3.279   2.380  0.0858  0.0407 -0.0577
  207ACOH    C210551   9.426   3.375   2.473  0.1938  0.6250  0.2452
  207ACOH    O110552   9.511   3.467   2.472  0.3493  0.2603 -0.4576
  207ACOH    C110553   9.327   3.345   2.583  0.5079  0.2403 -0.6905
  207ACOH    H110554   9.366   3.359   2.684  0.7855 -1.2775 -0.5817
  207ACOH    H210555   9.289   3.244   2.573 -2.6597  1.3051  0.0590
  207ACOH    H310556   9.239   3.409   2.578 -0.4316 -0.9434  0.5330
  208ACOH    H410557   3.847   6.054   0.823 -0.1823  1.5140  0.5617
  208ACOH    O210558   3.902   6.123   0.781  0.3098  0.4198 -0.6259
  208ACOH    C210559   4.027   6.097   0.824 -0.7871  0.2336  0.3220
  208ACOH    O110560   4.065   6.028   0.912  0.1582  0.4144  0.5116
  208ACOH    C110561   4.101   6.220   0.776 -0.0760 -0.3585 -0.0443
  208ACOH    H110562   4.045   6.311   0.797  0.4441 -0.1697  0.5542
  208ACOH    H210563   4.115   6.205   0.669  0.1135  0.4437 -0.1348
  208ACOH    H310564   4.200   6.216   0.822 -0.0523  0.0809 -0.0521
  209ACOH    H410565   4.618   0.292   2.241 -0.0992 -0.9935  0.6684
  209ACOH    O210566   4.711   0.264   2.253  0.1002 -0.6268 -0.0325
  209ACOH    C210567   4.711   0.128   2.236 -0.2252 -0.0476  0.5679
  209ACOH    O110568   4.608   0.066   2.216 -0.5774  0.3946 -0.2756
  209ACOH    C110569   4.843   0.075   2.205 -0.4307  0.1343 -0.2268
  209ACOH    H110570   4.832  -0.013   2.142  1.7828  0.1501 -0.6536
  209ACOH    H210571   4.903   0.052   2.293  1.2823  1.1309 -1.1170
  209ACOH    H310572   4.895   0.148   2.144  1.6228 -0.5300  0.6849
  210ACOH    H410573   4.853   2.312   1.710  1.3707 -0.1882 -2.4204
  210ACOH    O210574   4.941   2.328   1.747  0.4039 -0.3841  0.0073
  210ACOH    C210575   5.026   2.251   1.676  0.1277  0.0800 -0.2790
  210ACOH    O110576   4.996   2.144   1.627 -0.2826  0.2377 -0.0523
  210ACOH    C110577   5.162   2.265   1.736 -0.0923 -0.1739 -0.4022
  210ACOH    H110578   5.203   2.358   1.696  0.6165 -0.3303 -0.0567
  210ACOH    H210579   5.227   2.182   1.710 -0.7815 -0.4730 -1.1928
  210ACOH    H310580   5.151   2.277   1.844 -2.0920 -1.2252 -0.4637
  211ACOH    H410581   4.966   0.441   1.235 -1.1324  0.2789 -0.6219
  211ACOH    O210582   5.031   0.432   1.163 -0.5011  0.5322 -0.0847
  211ACOH    C210583   4.960   0.427   1.047  0.3821  0.0977 -0.6557
  211ACOH    O110584   4.864   0.352   1.033 -0.3045 -0.5483  0.2894
  211ACOH    C110585   5.045   0.478   0.940 -0.5259  0.3223 -0.1767
  211ACOH    H110586   5.042   0.586   0.950  1.6538  0.2726  1.5513
  211ACOH    H210587   5.006   0.451   0.842 -3.0231  1.0030  0.6052
  211ACOH    H310588   5.148   0.444   0.957 -0.9838 -0.2861  1.4384
  212ACOH    H410589   3.692   6.067   1.946 -0.1602  0.5120  2.6086
  212ACOH    O210590   3.771   6.015   1.969  0.7537  0.5510 -0.2115
  212ACOH    C210591   3.753   5.898   1.901  0.4253  0.8341 -0.3363
  212ACOH    O110592   3.653   5.875   1.832 -0.2826  0.4185  0.5656
  212ACOH    C110593   3.868   5.809   1.905  0.1414  0.0588  0.7740
  212ACOH    H110594   3.939   5.842   1.981  0.7924  0.9618 -0.1977
  212ACOH    H210595   3.931   5.821   1.816 -0.3437 -1.8286  0.1595
  212ACOH    H310596   3.847   5.703   1.918  0.5953 -0.3035 -1.2476
  213ACOH    H410597   5.436   4.026   0.432  0.2687  0.5328 -1.7409
  213ACOH    O210598   5.483   4.091   0.487  0.4424 -0.3717 -0.8098
  213ACOH    C210599   5.450   4.217   0.453  0.6894 -0.0346 -0.1984
  213ACOH    O110600   5.354   4.261   0.395  0.0939 -0.1348 -0.2664
  213ACOH    C110601   5.528   4.290   0.560  0.2105 -0.6371 -0.4607
  213ACOH    H110602   5.452   4.316   0.634  0.3979 -1.7502  0.1343
  213ACOH    H210603   5.575   4.369   0.503  1.2868  0.4754  1.8991
  213ACOH    H310604   5.602   4.228   0.610 -1.1569 -1.6722  0.3397
  214ACOH    H410605  10.166   1.331   1.512  2.1990  2.1551 -0.1844
  214ACOH    O210606  10.219   1.257   1.545 -0.0890  0.3972 -0.2973
  214ACOH    C210607  10.185   1.229   1.674 -0.3955 -0.2039  0.5487
  214ACOH    O110608  10.091   1.274   1.742 -0.2429  0.5797 -0.7672
  214ACOH    C110609  10.269   1.113   1.726  0.3324 -0.4533 -0.5790
  214ACOH    H110610  10.338   1.082   1.648  1.2000 -0.8836  0.3513
  214ACOH    H210611  10.206   1.029   1.757  1.5392 -0.7152  1.2580
  214ACOH    H310612  10.324   1.143   1.816 -1.5649  0.4488  0.3356
  215ACOH    H410613   4.559   4.366   1.664  0.6479  2.0088 -1.3965
  215ACOH    O210614   4.649   4.330   1.666 -0.1135  0.1012 -0.6252
  215ACOH    C210615   4.729   4.426   1.715 -0.1335  0.3380  0.0236
  215ACOH    O110616   4.694   4.536   1.751 -0.1029 -0.0581 -0.6128
  215ACOH    C110617   4.867   4.370   1.720  0.1405 -0.0442  0.2551
  215ACOH    H110618   4.902   4.329   1.625 -0.2875  1.7196 -0.6853
  215ACOH    H210619   4.868   4.288   1.791  3.8725 -0.8014 -0.5921
  215ACOH    H310620   4.939   4.439   1.763 -3.0978  1.7851  2.9589
  216ACOH    H410621   4.465   1.590   1.468  0.6455 -0.1295  0.5300
  216ACOH    O210622   4.549   1.573   1.424 -0.1394 -0.0795 -1.0133
  216ACOH    C210623   4.630   1.519   1.515  0.0183 -0.1152  0.2011
  216ACOH    O110624   4.598   1.490   1.625 -0.3424  0.0300  0.5018
  216ACOH    C110625   4.766   1.491   1.465  0.3922  0.8348  0.0128
  216ACOH    H110626   4.819   1.408   1.511  1.8047  0.3863 -2.3364
  216ACOH    H210627   4.816   1.585   1.483  1.6549  0.1728 -0.0284
  216ACOH    H310628   4.758   1.482   1.356  1.1436 -0.2392  0.0412
  217ACOH    H410629   9.460   9.381   0.159  0.9414  1.2032 -0.6112
  217ACOH    O210630   9.382   9.425   0.197  0.7174  0.5255 -0.2554
  217ACOH    C210631   9.285   9.338   0.193  0.2081  0.0974  0.1761
  217ACOH    O110632   9.286   9.232   0.136 -0.7635  0.0788  0.0435
  217ACOH    C110633   9.168   9.382   0.273 -0.6251 -0.3770  0.4405
  217ACOH    H110634   9.130   9.477   0.235 -0.8322 -0.3541  0.7034
  217ACOH    H210635   9.185   9.388   0.380  0.0579 -0.0804  0.3158
  217ACOH    H310636   9.092   9.305   0.258  0.2575 -1.0542 -0.6360
  218ACOH    H410637   2.389   1.303   2.829  1.2480  0.2460 -1.1124
  218ACOH    O210638   2.346   1.226   2.787 -0.2541  0.2223  0.4155
  218ACOH    C210639   2.407   1.119   2.842  0.1361 -0.1249  0.4353
  218ACOH    O110640   2.443   1.105   2.961  0.4964 -0.8177  0.4960
  218ACOH    C110641   2.398   1.004   2.751 -0.1200  0.5657 -0.3676
  218ACOH    H110642   2.473   1.006   2.672  0.8138 -1.6470  0.4358
  218ACOH    H210643   2.300   1.005   2.702 -0.7963 -0.0259  0.9409
  218ACOH    H310644   2.418   0.913   2.807 -1.2399  0.7664  0.3837
  219ACOH    H410645   4.574   8.073   0.083  2.2016 -1.2563 -0.8611
  219ACOH    O210646   4.539   8.002   0.139  0.0558  0.3144 -0.1393
  219ACOH    C210647   4.407   8.028   0.160 -0.6753 -1.2318  0.4011
  219ACOH    O110648   4.357   8.137   0.177 -0.5877  0.6224 -0.9393
  219ACOH    C110649   4.331   7.906   0.181 -0.1561 -0.3205  0.3193
  219ACOH    H110650   4.308   7.868   0.081  1.0589  0.1752 -0.1507
  219ACOH    H210651   4.239   7.920   0.238 -0.9660 -0.2688 -0.9694
  219ACOH    H310652   4.392   7.833   0.234 -2.1757 -1.1164  1.6039
  220ACOH    H410653   4.810   8.928   2.444 -0.3057 -1.1849 -0.9145
  220ACOH    O210654   4.847   8.993   2.382 -0.2014 -0.7400 -0.3880
  220ACOH    C210655   4.900   8.938   2.275  0.0407  0.5730 -0.3086
  220ACOH    O110656   4.911   8.819   2.257 -0.2635  0.0480 -0.5047
  220ACOH    C110657   4.956   9.043   2.185 -0.2239 -0.1223  0.0048
  220ACOH    H110658   4.924   9.142   2.216 -1.3062 -0.4857  0.0619
  220ACOH    H210659   4.935   9.027   2.079  3.0394 -2.9915 -0.2990
  220ACOH    H310660   5.063   9.037   2.207 -0.4091 -2.7421  0.3830
  221ACOH    H410661  10.058   3.952   2.722 -2.5244  0.4136  2.0862
  221ACOH    O210662  10.012   3.891   2.662 -0.3351  0.2999  0.4449
  221ACOH    C210663  10.023   3.773   2.731 -0.5325  0.1264 -0.7054
  221ACOH    O110664  10.102   3.751   2.825  0.1823  0.1676 -0.2497
  221ACOH    C110665   9.948   3.669   2.660 -0.1916  0.0618 -0.3409
  221ACOH    H110666   9.843   3.692   2.646 -0.1491 -0.4711 -1.5908
  221ACOH    H210667   9.964   3.573   2.709  2.8258  0.5664 -0.1959
  221ACOH    H310668   9.993   3.666   2.561  0.3339 -0.6934 -0.0860
  222ACOH    H410669   9.050   4.126   0.552  1.8553  1.2859  2.1249
  222ACOH    O210670   8.969   4.162   0.594 -0.0086  0.3142 -0.5166
  222ACOH    C210671   8.878   4.060   0.601  0.3629 -0.3885  0.4223
  222ACOH    O110672   8.891   3.947   0.562  0.4039  0.0362  0.3407
  222ACOH    C110673   8.745   4.110   0.644  0.2965 -0.3686 -0.4021
  222ACOH    H110674   8.764   4.215   0.666  1.3310 -1.1954  3.0245
  222ACOH    H210675   8.715   4.055   0.733  0.2562 -1.5424 -1.1386
  222ACOH    H310676   8.673   4.105   0.563  2.3854 -4.0636 -2.1267
  223ACOH    H410677   4.508   4.240   1.439 -2.5660 -1.0788  0.3248
  223ACOH    O210678   4.463   4.321   1.468 -0.4180  0.6609 -1.0195
  223ACOH    C210679   4.501   4.428   1.396 -0.2827  0.6713 -0.0819
  223ACOH    O110680   4.481   4.545   1.422 -0.0762  0.1518 -0.3813
  223ACOH    C110681   4.588   4.397   1.276 -0.0226  0.4993  0.4081
  223ACOH    H110682   4.571   4.295   1.240  4.0997 -0.6840  1.5797
  223ACOH    H210683   4.694   4.410   1.298  0.0673 -2.3070  1.9274
  223ACOH    H310684   4.561   4.457   1.189 -0.7239  1.8251  1.5280
  224ACOH    H410685   8.764   3.900   1.229  1.0269  0.4654  0.0770
  224ACOH    O210686   8.728   3.989   1.244  0.0002  0.0323  0.2215
  224ACOH    C210687   8.632   4.004   1.152 -0.2609  0.8261 -0.2728
  224ACOH    O110688   8.613   3.933   1.055 -0.0735 -0.2948 -0.3279
  224ACOH    C110689   8.563   4.128   1.171  0.7229 -0.0827  0.2839
  224ACOH    H110690   8.585   4.184   1.262  0.2651  0.3087  0.1571
  224ACOH    H210691   8.457   4.108   1.161  0.7314 -0.7507  1.4275
  224ACOH    H310692   8.592   4.188   1.084 -1.0498  0.8671  0.3260
  225ACOH    H410693   8.886   4.361   2.354  1.8064  1.1233  1.2210
  225ACOH    O210694   8.874   4.321   2.442 -0.2142 -0.6085  0.1947
  225ACOH    C210695   8.989   4.344   2.511 -0.1457 -0.2824 -0.5957
  225ACOH    O110696   9.102   4.366   2.459  0.1613 -0.2075 -0.1970
  225ACOH    C110697   8.969   4.285   2.648  0.2146  0.2357 -0.0118
  225ACOH    H110698   8.933   4.364   2.715 -0.1084 -0.0931  0.2035
  225ACOH    H210699   9.063   4.246   2.688  0.9177  1.0939 -0.8000
  225ACOH    H310700   8.890   4.211   2.644  1.4584 -1.0593 -1.0552
  226ACOH    H410701   4.153   3.481   1.154 -1.9203  3.3143  1.0274
  226ACOH    O210702   4.194   3.483   1.242 -0.4920 -0.2862  0.5123
  226ACOH    C210703   4.127   3.406   1.324 -0.9405  0.3937 -0.4517
  226ACOH    O110704   4.025   3.342   1.293 -0.1419  0.5195  0.3433
  226ACOH    C110705   4.162   3.426   1.472  0.1155 -0.1529 -0.2174
  226ACOH    H110706   4.091   3.497   1.515  0.5717  0.1938 -0.0292
  226ACOH    H210707   4.265   3.457   1.489  0.2179 -0.6405  0.0789
  226ACOH    H310708   4.146   3.333   1.527 -1.3929  0.4488  0.3878
  227ACOH    H410709   8.434   3.326   0.586  0.0413  1.1720  0.3730
  227ACOH    O210710   8.360   3.363   0.535 -0.0990 -0.0931 -0.3469
  227ACOH    C210711   8.352   3.323   0.404 -0.4203  0.5317 -1.2507
  227ACOH    O110712   8.425   3.228   0.367  0.0042  0.7590  0.7359
  227ACOH    C110713   8.272   3.416   0.320 -0.1385 -0.1536  0.4585
  227ACOH    H110714   8.319   3.514   0.319 -0.5228  0.0382  0.9484
  227ACOH    H210715   8.174   3.417   0.369  0.1882  2.4801  1.0923
  227ACOH    H310716   8.270   3.376   0.219 -0.1709  1.3194 -0.1318
  228ACOH    H410717   4.594   8.355   2.574  1.7002 -3.7198  1.0427
  228ACOH    O210718   4.641   8.370   2.490 -0.7425  0.1375  0.2694
  228ACOH    C210719   4.713   8.482   2.499 -0.5218 -0.2385 -0.3012
  228ACOH    O110720   4.738   8.540   2.603 -0.6934 -0.3000  0.0823
  228ACOH    C110721   4.751   8.547   2.368  0.7082  0.6042 -0.0471
  228ACOH    H110722   4.726   8.480   2.286  0.2601 -1.4910  1.7701
  228ACOH    H210723   4.857   8.571   2.372  0.7222  0.5329 -0.0007
  228ACOH    H310724   4.685   8.633   2.379 -0.4781 -0.5168  1.9187
  229ACOH    H410725   8.716   5.397   0.153 -0.9628 -0.5943 -1.5579
  229ACOH    O210726   8.673   5.331   0.210  0.5602  0.4989  0.9286
  229ACOH    C210727   8.737   5.310   0.326 -0.1440  1.3421  0.4944
  229ACOH    O110728   8.833   5.371   0.365 -0.1137 -0.0324  0.0269
  229ACOH    C110729   8.676   5.205   0.415 -0.0366  0.4423  0.2851
  229ACOH    H110730   8.731   5.204   0.510 -1.8567 -0.8960  1.3669
  229ACOH    H210731   8.685   5.111   0.361 -1.7675  1.9872 -2.8055
  229ACOH    H310732   8.572   5.225   0.440  0.9173  0.5401  4.5891
  230ACOH    H410733   4.887   2.364   2.567  1.5692 -0.3578 -0.6978
  230ACOH    O210734   4.849   2.277   2.589  0.1587  0.3114 -0.4517
  230ACOH    C210735   4.791   2.298   2.712  0.6763 -0.0684 -0.5128
  230ACOH    O110736   4.828   2.377   2.794  0.3255  0.6630  0.1196
  230ACOH    C110737   4.681   2.201   2.727  0.5209 -0.1657  0.1449
  230ACOH    H110738   4.690   2.123   2.651  0.0027  0.3917 -0.5007
  230ACOH    H210739   4.587   2.256   2.716  0.2297 -1.0969 -2.3029
  230ACOH    H310740   4.687   2.161   2.828 -0.2109 -1.2964 -0.2581
  231ACOH    H410741   4.194   4.907   1.969  0.1164 -0.4763  0.1630
  231ACOH    O210742   4.281   4.888   1.930  0.0661 -0.5325  0.0781
  231ACOH    C210743   4.266   4.890   1.794 -0.4790  0.4801 -0.4923
  231ACOH    O110744   4.164   4.877   1.730 -0.0653  0.0876  0.5527
  231ACOH    C110745   4.401   4.896   1.722  0.7858 -0.0752  0.0439
  231ACOH    H110746   4.422   4.999   1.692 -0.4820  0.6482  1.5994
  231ACOH    H210747   4.402   4.825   1.639 -0.9052 -0.9701  0.7799
  231ACOH    H310748   4.475   4.856   1.792 -0.0927 -1.8737 -0.0385
  232ACOH    H410749   4.942   1.743   0.947  0.5432 -0.0883 -1.1397
  232ACOH    O210750   4.998   1.820   0.929 -0.1577  0.6756 -0.1093
  232ACOH    C210751   5.101   1.802   1.016  0.2965 -0.3367  0.4265
  232ACOH    O110752   5.121   1.719   1.102 -0.2307  0.0795  0.7906
  232ACOH    C110753   5.188   1.928   1.002 -0.1439 -0.2228 -0.3601
  232ACOH    H110754   5.272   1.929   1.071  0.1080 -0.7391 -0.6557
  232ACOH    H210755   5.127   2.016   1.020 -0.7539 -1.2888  3.0043
  232ACOH    H310756   5.235   1.928   0.903  3.2397 -1.2723  1.1933
  233ACOH    H410757   9.744   9.362   2.051 -0.9728 -1.2294 -1.1565
  233ACOH    O210758   9.688   9.321   2.119 -0.0523 -0.4388  0.1080
  233ACOH    C210759   9.608   9.425   2.165  0.6482  0.3262  0.4442
  233ACOH    O110760   9.628   9.545   2.156 -0.3299  0.4289 -0.0114
  233ACOH    C110761   9.507   9.363   2.256  0.1756  0.0958  0.3091
  233ACOH    H110762   9.551   9.321   2.347  1.3487  0.5869 -0.0223
  233ACOH    H210763   9.462   9.281   2.201 -1.3544  0.8924  0.3228
  233ACOH    H310764   9.431   9.436   2.284  1.4989  1.2995  0.8305
  234ACOH    H410765   4.734   8.981   0.930 -0.3578 -4.3764 -1.0191
  234ACOH    O210766   4.829   8.968   0.920  0.4827 -0.0841  0.4547
  234ACOH    C210767   4.885   9.092   0.923  0.1002 -0.6774 -0.3802
  234ACOH    O110768   4.829   9.196   0.907  0.3399 -0.8109 -0.4585
  234ACOH    C110769   5.031   9.080   0.938 -0.4673  0.0439  0.2952
  234ACOH    H110770   5.079   9.012   0.868  1.9713  1.7682  0.2328
  234ACOH    H210771   5.045   9.039   1.038 -0.0238 -1.3669 -0.3407
  234ACOH    H310772   5.077   9.179   0.936  2.2312 -1.1058  2.2389
  235ACOH    H410773   8.690   6.338   1.312  0.2217 -3.0083  0.8701
  235ACOH    O210774   8.655   6.352   1.402 -0.3092  0.3452  0.2384
  235ACOH    C210775   8.712   6.463   1.450  0.1610 -0.2145 -0.1667
  235ACOH    O110776   8.815   6.498   1.409 -0.3430 -0.0333 -0.3358
  235ACOH    C110777   8.633   6.525   1.560  1.0854 -0.5839 -0.0808
  235ACOH    H110778   8.697   6.524   1.648 -0.2883 -1.7592  0.9262
  235ACOH    H210779   8.534   6.485   1.582  0.1641  2.0643  0.8156
  235ACOH    H310780   8.611   6.630   1.539 -1.4462 -1.0040  0.3327
  236ACOH    H410781   5.566   3.610   1.234 -0.6280  0.5012  1.3428
  236ACOH    O210782   5.646   3.661   1.212 -0.3346 -0.2595  0.5686
  236ACOH    C210783   5.660   3.671   1.077 -0.0491  0.1106 -1.2881
  236ACOH    O110784   5.608   3.594   0.997  0.0028  0.0716  0.2204
  236ACOH    C110785   5.784   3.743   1.052 -0.3594 -0.2063  0.8325
  236ACOH    H110786   5.860   3.667   1.035 -0.8797 -0.3601 -0.9092
  236ACOH    H210787   5.806   3.810   1.135  0.4255 -0.0126  0.4763
  236ACOH    H310788   5.772   3.799   0.959 -1.7003  0.7339  1.5461
  237ACOH    H410789   4.975   4.505   0.167 -0.6156  0.9769  1.2722
  237ACOH    O210790   4.973   4.584   0.111 -0.3053  0.3800  0.4096
  237ACOH    C210791   4.882   4.559   0.009 -0.5813 -0.2758 -0.3484
  237ACOH    O110792   4.819   4.461  -0.013 -0.2814 -0.1488  0.2020
  237ACOH    C110793   4.902   4.664  -0.094  0.2995  0.5030 -0.0440
  237ACOH    H110794   5.008   4.680  -0.113  0.5593 -0.1868  0.8369
  237ACOH    H210795   4.861   4.761  -0.065 -0.7091  0.2399 -0.5486
  237ACOH    H310796   4.854   4.640  -0.190 -0.3137  1.5057  0.0042
  238ACOH    H410797   4.465   5.128   1.165 -0.8398 -1.5563 -0.8830
  238ACOH    O210798   4.511   5.150   1.082 -0.4136  0.3982 -0.1603
  238ACOH    C210799   4.510   5.285   1.082 -0.4196  0.1772 -0.0076
  238ACOH    O110800   4.446   5.354   1.159 -0.3211 -0.3738  0.5503
  238ACOH    C110801   4.611   5.330   0.975 -0.2937  0.1446  0.2983
  238ACOH    H110802   4.560   5.401   0.910 -0.0738 -0.3766 -0.4517
  238ACOH    H210803   4.628   5.244   0.910  0.6935 -1.6312  2.8026
  238ACOH    H310804   4.702   5.365   1.022 -0.0696 -1.4675  1.1054
  239ACOH    H410805   4.543   8.835   1.821  0.2244  1.0008 -1.0950
  239ACOH    O210806   4.531   8.743   1.789  0.1119  0.4658  0.4567
  239ACOH    C210807   4.488   8.666   1.890 -0.0710  0.4262  0.5735
  239ACOH    O110808   4.444   8.705   1.993 -0.9558 -0.5384 -0.0722
  239ACOH    C110809   4.477   8.517   1.858  0.3046  0.0469 -0.0859
  239ACOH    H110810   4.548   8.465   1.922  1.6581 -0.3473 -1.8486
  239ACOH    H210811   4.516   8.501   1.757  0.2991  2.8838 -0.5643
  239ACOH    H310812   4.382   8.468   1.877  0.5049 -0.7774 -1.1556
  240ACOH    H410813   4.734   0.441   2.022  0.0098 -0.8422 -1.5172
  240ACOH    O210814   4.831   0.445   2.014  0.0853 -0.1597 -0.3655
  240ACOH    C210815   4.859   0.578   2.016  0.1776 -0.4162 -0.3433
  240ACOH    O110816   4.785   0.659   2.073  0.6062 -0.1089  0.0293
  240ACOH    C110817   5.000   0.602   1.989  0.3000  0.2987  0.4276
  240ACOH    H110818   5.048   0.526   1.928  0.0324  2.4556 -2.5514
  240ACOH    H210819   5.056   0.609   2.082 -1.2993  0.6407  1.3907
  240ACOH    H310820   5.015   0.698   1.941  2.0149  0.0676  0.4666
  241ACOH    H410821   4.344   9.843   1.699  0.5016  0.5341  0.6184
  241ACOH    O210822   4.351   9.936   1.727 -0.6125  0.8022  0.0549
  241ACOH    C210823   4.475   9.930   1.763 -1.0939 -0.0346 -0.1947
  241ACOH    O110824   4.564   9.854   1.731 -0.3023  0.1471 -0.0017
  241ACOH    C110825   4.518  10.047   1.839  0.3824  0.2709  0.3836
  241ACOH    H110826   4.434  10.117   1.843 -1.2186 -1.5995  0.2504
  241ACOH    H210827   4.594  10.102   1.783  0.6539 -0.1549  0.3359
  241ACOH    H310828   4.560  10.021   1.936 -1.6046 -0.3079  1.1185
  242SOL     OW10829   1.526   7.926   2.184  0.1988  0.0538  0.2337
  242SOL    HW110830   1.444   7.871   2.166  0.9068 -0.9903  0.1101
  242SOL    HW210831   1.521   7.966   2.275  0.1568 -1.1253  0.7592
  243SOL     OW10832   9.596   2.749   1.347  0.3845 -0.3654  0.0450
  243SOL    HW110833   9.512   2.793   1.378 -0.3804  1.0968 -3.7478
  243SOL    HW210834   9.582   2.711   1.255  3.5489 -1.0298 -0.2336
  244SOL     OW10835   2.403   8.605   1.691  0.2984  0.6088 -0.2924
  244SOL    HW110836   2.487   8.572   1.650 -0.4263 -0.6111 -0.8140
  244SOL    HW210837   2.336   8.626   1.619 -0.5994 -0.5070  0.2066
  245SOL     OW10838   3.017   8.985   2.245 -0.6047  0.0849 -0.3978
  245SOL    HW110839   2.933   9.039   2.242 -0.9150 -0.2708  1.8169
  245SOL    HW210840   2.997   8.893   2.278  0.7919  0.2614  0.9678
  246SOL     OW10841   9.791   2.702   2.217  1.0950  0.2611  0.0173
  246SOL    HW110842   9.736   2.639   2.273  0.5801  1.3747  0.7872
  246SOL    HW210843   9.807   2.661   2.127  0.8622 -1.0190  0.5403
  247SOL     OW10844   1.163   3.295   1.890  0.1596  0.2877 -0.2307
  247SOL    HW110845   1.178   3.339   1.979 -1.0787 -1.6371  0.9688
  247SOL    HW210846   1.071   3.317   1.857  0.2682  0.2096 -0.5872
  248SOL     OW10847  10.250   6.069   1.314  0.2211 -0.2470 -0.0351
  248SOL    HW110848  10.324   6.070   1.382 -0.0433 -0.1232  0.2508
  248SOL    HW210849  10.164   6.046   1.359  0.3747 -2.1124 -0.6504
  249SOL     OW10850   2.886   8.126   2.786  0.1042 -0.1352  0.1569
  249SOL    HW110851   2.802   8.159   2.828  0.2146 -2.8221  2.6468
  249SOL    HW210852   2.961   8.129   2.853  1.1817 -0.9454 -0.9757
  250SOL     OW10853   2.815   6.622   1.919 -0.5616 -0.1338 -0.1395
  250SOL    HW110854   2.781   6.589   2.007 -0.7525  1.4200  0.4001
  250SOL    HW210855   2.834   6.545   1.859 -2.1146 -1.1520  0.6428
  251SOL     OW10856   0.627   3.838   2.229 -0.1103 -0.8743  0.1714
  251SOL    HW110857   0.696   3.910   2.222 -0.7747 -0.3087 -0.5563
  251SOL    HW210858   0.586   3.839   2.320  0.9454 -1.3167  0.6647
  252SOL     OW10859   2.967   7.816   1.258  0.4699  0.0371  0.0453
  252SOL    HW110860   3.042   7.836   1.195  0.1213  0.3070 -0.2847
  252SOL    HW210861   2.889   7.779   1.207  0.0150  0.6955  0.2517
  253SOL     OW10862  10.171   3.336   0.552  0.1864  0.5851 -0.0299
  253SOL    HW110863  10.107   3.384   0.492 -0.1934  1.3719  0.9885
  253SOL    HW210864  10.133   3.332   0.644  0.8589 -0.4373  0.2109
  254SOL     OW10865   3.817   8.970   1.382 -0.1179 -0.0269 -0.0719
  254SOL    HW110866   3.889   8.996   1.447  1.3802 -1.2496 -1.2029
  254SOL    HW210867   3.747   8.918   1.429 -1.3839  2.9752  1.4999
  255SOL     OW10868   2.535   7.212   2.147  0.2272 -0.9177 -0.7935
  255SOL    HW110869   2.508   7.291   2.092  0.2801 -0.2021  0.2029
  255SOL    HW210870   2.487   7.130   2.114  1.5879 -0.8493 -3.0433
  256SOL     OW10871   9.430   1.788   1.945  0.5572  0.5908 -0.0512
  256SOL    HW110872   9.354   1.759   2.003  0.7964  0.3518  0.1441
  256SOL    HW210873   9.461   1.878   1.973  2.2175 -0.5173  1.7259
  257SOL     OW10874   8.982   2.876   1.298 -0.1034 -0.2517 -0.6105
  257SOL    HW110875   8.908   2.844   1.239 -1.9799 -0.4069  1.7449
  257SOL    HW210876   9.026   2.955   1.256 -3.3988  1.5549 -0.9018
  258SOL     OW10877   2.169   8.079   0.586  0.0916 -0.1764  0.4396
  258SOL    HW110878   2.203   8.106   0.676  1.3760 -0.0816 -0.0634
  258SOL    HW210879   2.150   7.981   0.585 -0.5596 -0.0579  1.0092
  259SOL     OW10880   2.862   3.196   0.574 -0.1983 -0.6538 -0.2201
  259SOL    HW110881   2.903   3.281   0.540  2.4338 -1.5826  0.5610
  259SOL    HW210882   2.828   3.142   0.497  1.1167 -0.4118 -0.9752
  260SOL     OW10883   3.061   8.334   1.863  0.1189  0.8789  0.3103
  260SOL    HW110884   3.075   8.237   1.845  0.2214  1.1702 -1.3053
  260SOL    HW210885   3.039   8.348   1.959 -1.7907 -0.9519  0.1836
  261SOL     OW10886   1.694   0.258   1.613  0.5020  0.0405  0.0080
  261SOL    HW110887   1.768   0.309   1.570  0.6099  0.3757  0.5838
  261SOL    HW210888   1.650   0.314   1.683 -0.1633 -0.2318 -0.1835
  262SOL     OW10889   2.826   2.294   0.528 -0.4520 -0.7246 -0.6913
  262SOL    HW110890   2.894   2.235   0.485 -1.2167 -3.9180  2.2488
  262SOL    HW210891   2.739   2.245   0.533 -1.5014  1.2178  0.5460
  263SOL     OW10892   0.919   0.298   0.257 -0.1549  0.7307 -0.0361
  263SOL    HW110893   0.847   0.246   0.211  0.8025 -0.5083 -0.1401
  263SOL    HW210894   0.911   0.286   0.356 -0.7855  1.5267  0.0188
  264SOL     OW10895   3.767   1.277   1.020 -0.8680  0.1591  0.4345
  264SOL    HW110896   3.735   1.294   1.113  0.1120 -0.4968  0.8971
  264SOL    HW210897   3.745   1.183   0.993 -0.3721  0.0666  0.3358
  265SOL     OW10898   5.097   3.550   1.312  0.6891 -0.8059 -0.5043
  265SOL    HW110899   5.187   3.591   1.326  0.8262 -1.7202  1.5109
  265SOL    HW210900   5.071   3.557   1.215  1.1504  3.0228 -0.4084
  266SOL     OW10901   3.759   0.363   0.161  0.4191  0.2419  0.2151
  266SOL    HW110902   3.700   0.444   0.157 -0.9209 -0.7720 -0.7971
  266SOL    HW210903   3.785   0.337   0.069 -0.0159 -1.0950  0.4641
  267SOL     OW10904   0.885   8.963   2.122 -0.3161 -0.4335  0.2455
  267SOL    HW110905   0.932   8.878   2.101  0.5415 -0.1511  0.9775
  267SOL    HW210906   0.884   8.977   2.221 -1.8753 -0.3905  0.2454
  268SOL     OW10907   4.259   3.804   1.112  0.1071  0.1318  0.4358
  268SOL    HW110908   4.190   3.735   1.091  1.2845 -0.9823  0.1982
  268SOL    HW210909   4.254   3.827   1.209 -1.2474  0.7877  0.2228
  269SOL     OW10910  10.013   8.043   2.340  0.2755  0.3202  0.1886
  269SOL    HW110911  10.060   7.976   2.283 -0.4917  0.9090 -1.1576
  269SOL    HW210912   9.914   8.028   2.335  0.0943  1.5738 -0.1808
  270SOL     OW10913   3.259   6.997   1.438 -0.2473  0.0566 -0.5297
  270SOL    HW110914   3.241   7.070   1.372 -1.1866  0.4675  0.1642
  270SOL    HW210915   3.256   7.034   1.531 -2.4861 -1.1690 -0.0627
  271SOL     OW10916   0.815   6.197   0.822 -0.3043 -0.1386  0.5880
  271SOL    HW110917   0.899   6.241   0.855 -0.1161 -0.1177  0.0856
  271SOL    HW210918   0.810   6.205   0.722 -2.0161  1.8422  0.7904
  272SOL     OW10919  10.099   0.921   1.033  0.0851  0.1227  0.0980
  272SOL    HW110920  10.144   0.874   0.958  0.5072 -0.8806  0.9608
  272SOL    HW210921  10.030   0.984   0.997  0.4941 -0.1270 -1.1265
  273SOL     OW10922   4.699   8.695   1.101 -0.2581 -0.2767  0.2784
  273SOL    HW110923   4.767   8.753   1.055 -0.2068 -0.1580  0.5015
  273SOL    HW210924   4.622   8.751   1.131 -0.9877 -0.5906 -0.9788
  274SOL     OW10925   4.430   1.004   0.311 -0.5181 -0.2053  0.4758
  274SOL    HW110926   4.347   1.060   0.309 -0.7812 -0.6132 -0.0765
  274SOL    HW210927   4.510   1.063   0.323 -0.6131  0.5081 -2.0800
  275SOL     OW10928   3.414   2.899   0.834 -0.1771  0.0949  0.4124
  275SOL    HW110929   3.441   2.803   0.847  1.1379  0.1909 -1.4835
  275SOL    HW210930   3.324   2.902   0.790  0.1072 -0.2548 -0.1813
  276SOL     OW10931   9.078   5.243   0.345  0.1865  0.0331 -0.3197
  276SOL    HW110932   9.159   5.231   0.403  0.1840  0.0337 -0.3162
  276SOL    HW210933   8.996   5.243   0.401  0.2223  0.5705 -0.2622
  277SOL     OW10934   9.255   7.169   1.935  0.1203 -0.5751  0.1308
  277SOL    HW110935   9.224   7.088   1.985  1.7637 -0.8209  0.7721
  277SOL    HW210936   9.246   7.249   1.994  2.8497 -0.9847  1.1827
  278SOL     OW10937   3.275   9.732   2.106 -0.1549  0.1162 -0.3606
  278SOL    HW110938   3.201   9.775   2.055  0.8966  1.0557 -1.1178
  278SOL    HW210939   3.312   9.797   2.172  1.6017  0.4683 -1.6761
  279SOL     OW10940   1.527   4.392   2.525 -0.1072 -0.0331  0.1313
  279SOL    HW110941   1.600   4.461   2.525 -0.0484 -0.0884  1.2811
  279SOL    HW210942   1.565   4.303   2.548 -0.4335 -0.1772  0.1105
  280SOL     OW10943   9.392   4.627   0.380 -0.0542  0.6984  0.3784
  280SOL    HW110944   9.454   4.561   0.338  0.8026  1.6583  0.1122
  280SOL    HW210945   9.353   4.589   0.463  0.1124 -0.2965  0.0050
  281SOL     OW10946   2.124   0.928   0.910 -0.1104  0.4364 -0.1555
  281SOL    HW110947   2.027   0.943   0.890  0.0476  0.0319 -1.3135
  281SOL    HW210948   2.163   0.868   0.840  0.7430 -0.2031  0.8595
  282SOL     OW10949   9.251   8.546   1.816  0.4650  0.4021 -0.2970
  282SOL    HW110950   9.160   8.531   1.778  0.3732  0.2368 -0.0129
  282SOL    HW210951   9.263   8.643   1.837 -0.4103  0.1260  1.5869
  283SOL     OW10952   9.990   8.264   1.646 -0.3189  0.3490  0.6376
  283SOL    HW110953  10.083   8.299   1.655  0.6959 -1.7212 -1.3648
  283SOL    HW210954   9.925   8.333   1.677  1.8472  2.1083  1.3435
  284SOL     OW10955   9.794   3.934   0.746 -0.2580  0.1544  0.2464
  284SOL    HW110956   9.837   4.021   0.726 -0.4259  0.0958 -0.3831
  284SOL    HW210957   9.701   3.949   0.780  0.2738  0.2823  1.6589
  285SOL     OW10958   4.797   2.674   2.089 -0.0433  0.6755 -0.0504
  285SOL    HW110959   4.878   2.650   2.143 -0.7018  0.4782  0.8540
  285SOL    HW210960   4.764   2.594   2.040  1.2491  1.1189 -1.6989
  286SOL     OW10961   9.959   8.279   1.139 -0.5256 -0.1720 -0.0407
  286SOL    HW110962  10.026   8.212   1.172 -0.8483 -0.2772  0.4168
  286SOL    HW210963   9.868   8.254   1.172 -0.8609 -0.2733 -1.0277
  287SOL     OW10964   3.972   0.703   0.744  0.1951  0.0770 -0.0909
  287SOL    HW110965   4.044   0.769   0.765  2.1678 -2.4905  1.6915
  287SOL    HW210966   4.013   0.622   0.701 -1.9136 -0.6602 -0.8013
  288SOL     OW10967   0.818   2.145   2.292 -0.0454 -0.0406 -0.6301
  288SOL    HW110968   0.897   2.128   2.351 -0.0669 -0.4672 -0.7240
  288SOL    HW210969   0.736   2.106   2.333  0.2402 -1.8716 -1.7783
  289SOL     OW10970   9.770   5.560   1.357  0.5579 -0.5714  0.4261
  289SOL    HW110971   9.768   5.581   1.455 -1.3973  0.2355  0.2439
  289SOL    HW210972   9.753   5.463   1.343 -2.0648 -0.2190  0.8053
  290SOL     OW10973   2.409   2.599   0.589 -0.3976 -0.2867 -0.1352
  290SOL    HW110974   2.501   2.571   0.563 -0.4577  1.2787 -2.1377
  290SOL    HW210975   2.344   2.570   0.518 -1.0536  1.0588 -0.0932
  291SOL     OW10976   9.472   5.486   2.414  0.5068  0.5798  0.1795
  291SOL    HW110977   9.460   5.425   2.336  0.6068  2.0834 -1.0355
  291SOL    HW210978   9.404   5.559   2.410 -3.0869 -2.2315  4.4565
  292SOL     OW10979   2.547   0.201   0.556 -0.4465  0.0479  0.1206
  292SOL    HW110980   2.499   0.121   0.591  0.6144 -0.6365  0.0370
  292SOL    HW210981   2.628   0.171   0.506 -0.4979  1.1369 -0.6319
  293SOL     OW10982   9.695   0.767   2.462  0.2521 -0.1999 -0.1974
  293SOL    HW110983   9.768   0.835   2.461 -0.0457  0.1215 -0.1554
  293SOL    HW210984   9.732   0.678   2.488  0.6802 -0.0941 -0.4442
  294SOL     OW10985   0.564   1.566   0.267  0.2023 -1.0239  0.4133
  294SOL    HW110986   0.572   1.572   0.168  2.0815  1.2714  0.6516
  294SOL    HW210987   0.536   1.474   0.293 -2.3533 -1.1068 -2.3382
  295SOL     OW10988   8.959   7.126   0.420  0.1722 -0.2675  0.2282
  295SOL    HW110989   8.963   7.226   0.427 -0.6776 -0.2672  0.7961
  295SOL    HW210990   8.929   7.100   0.328  3.8861 -0.0934 -1.1057
  296SOL     OW10991   4.033   8.980   1.559  0.0702  0.3207  0.3214
  296SOL    HW110992   4.040   8.881   1.551 -1.5781 -0.0581  3.1447
  296SOL    HW210993   4.095   9.012   1.631  1.7175  1.5524 -1.5897
  297SOL     OW10994  10.163   7.875   1.036 -0.4461 -0.0436  0.0849
  297SOL    HW110995  10.258   7.846   1.044  0.2053  1.8913 -0.4122
  297SOL    HW210996  10.123   7.835   0.954 -0.3523 -1.5973  0.7810
  298SOL     OW10997   4.300   9.714   1.573 -0.4953 -0.2558  0.0239
  298SOL    HW110998   4.282   9.749   1.481  0.2287 -1.4293 -0.5691
  298SOL    HW210999   4.380   9.654   1.571 -0.1636  0.1160  1.5157
  299SOL     OW11000   9.514   8.646   0.300 -0.0122 -0.1135 -0.1021
  299SOL    HW111001   9.547   8.623   0.391 -0.6020  0.8068  0.3558
  299SOL    HW211002   9.519   8.565   0.241 -0.5992 -0.9923  1.0295
  300SOL     OW11003   0.813   9.794   0.863 -0.4427  0.5272  0.0154
  300SOL    HW111004   0.830   9.847   0.780  0.5321  0.9526  0.4751
  300SOL    HW211005   0.741   9.728   0.846  2.0705 -1.7553 -2.2157
  301SOL     OW11006   1.518   1.309   1.036 -0.5276  0.3273 -0.0023
  301SOL    HW111007   1.552   1.345   1.123  1.1914 -1.8117  0.2430
  301SOL    HW211008   1.595   1.297   0.973 -1.9234  3.4443 -2.4868
  302SOL     OW11009   2.939   7.187   0.303  0.2806  0.1906  0.3469
  302SOL    HW111010   2.959   7.254   0.232 -0.1991  1.7923  1.6946
  302SOL    HW211011   3.021   7.135   0.324  0.3570 -0.5103 -1.5730
  303SOL     OW11012   4.038   2.416   2.464 -0.2999 -0.0201  0.0361
  303SOL    HW111013   4.045   2.325   2.423 -0.1523 -0.4596  1.0258
  303SOL    HW211014   4.128   2.458   2.467 -0.4920  0.4728 -1.1337
  304SOL     OW11015   9.804   3.184   2.687  0.3623  0.6190 -0.0982
  304SOL    HW111016   9.779   3.106   2.630 -1.6475  0.1793  1.3563
  304SOL    HW211017   9.867   3.154   2.759 -0.4030  0.3175  0.4545
  305SOL     OW11018   2.634   2.259   2.511 -0.2573 -0.3641 -0.5850
  305SOL    HW111019   2.697   2.196   2.557 -1.8416 -2.9965 -1.8567
  305SOL    HW211020   2.597   2.215   2.429 -0.8608  2.5601 -1.9526
  306SOL     OW11021   4.246   2.165   1.347 -0.0963  0.0884 -0.0973
  306SOL    HW111022   4.163   2.147   1.294 -0.6201  0.9983  0.4019
  306SOL    HW211023   4.287   2.251   1.316  1.5530 -1.1671 -1.4466
  307SOL     OW11024   1.919   8.448   0.659 -0.3712  0.4293 -0.4842
  307SOL    HW111025   1.849   8.419   0.594 -1.7666  0.3253  1.0557
  307SOL    HW211026   1.908   8.399   0.745  1.0189  1.1065  0.1073
  308SOL     OW11027   2.459   1.414   0.143 -0.2508  0.1152 -0.6157
  308SOL    HW111028   2.494   1.453   0.058 -0.5438 -0.0653 -0.8193
  308SOL    HW211029   2.520   1.438   0.218  0.0625  0.1884 -0.8943
  309SOL     OW11030   2.179   4.948   0.414  0.0036  0.3461  0.6276
  309SOL    HW111031   2.147   4.959   0.320  0.0301 -1.0896  0.4398
  309SOL    HW211032   2.265   4.898   0.414 -1.1017 -1.5967  1.5459
  310SOL     OW11033   3.911   3.165   2.172 -0.1462 -0.2340  0.4324
  310SOL    HW111034   3.961   3.087   2.133 -2.6657 -1.2031 -0.9630
  310SOL    HW211035   3.870   3.138   2.259 -0.3525 -0.2214  0.3392
  311SOL     OW11036  10.311   9.506   1.098 -0.1266 -0.0444 -0.5021
  311SOL    HW111037  10.295   9.452   1.015  1.0550 -0.5096 -0.4445
  311SOL    HW211038  10.267   9.461   1.176 -0.4090 -0.1321 -0.7125
  312SOL     OW11039   0.700   6.731   0.514 -0.3849  0.2375 -0.4739
  312SOL    HW111040   0.786   6.737   0.566  0.2265  0.4346 -1.5061
  312SOL    HW211041   0.664   6.638   0.521 -0.5761  0.3911  0.7246
  313SOL     OW11042   4.042   9.544   1.079  0.0754  0.0599 -0.4264
  313SOL    HW111043   4.027   9.450   1.110  1.4406 -0.4619 -1.3226
  313SOL    HW211044   3.964   9.573   1.024 -1.3112  0.1975  1.5276
  314SOL     OW11045   3.972   0.367   2.058  0.0673  0.4322 -0.7442
  314SOL    HW111046   3.981   0.382   1.960 -0.3569 -0.0203 -0.8518
  314SOL    HW211047   3.896   0.305   2.076  0.4153  0.1671 -0.1597
  315SOL     OW11048   1.275   2.152   0.366  0.8535  0.0034 -0.0754
  315SOL    HW111049   1.208   2.124   0.434  0.9348  0.6283  0.2644
  315SOL    HW211050   1.323   2.233   0.398 -0.4381  1.4585 -1.6882
  316SOL     OW11051   9.584   2.769   0.326 -0.5231 -0.0028 -0.4814
  316SOL    HW111052   9.526   2.687   0.323 -1.0161  0.2626  1.4604
  316SOL    HW211053   9.531   2.848   0.296 -0.6150 -0.0684 -0.4965
  317SOL     OW11054   1.142   0.219   0.741  0.4316  0.2130 -0.8898
  317SOL    HW111055   1.203   0.257   0.810  0.1245 -0.5801 -0.1800
  317SOL    HW211056   1.049   0.214   0.777  0.1186  0.5254 -1.6352
  318SOL     OW11057   1.917   4.301   2.150  0.0527 -0.7120 -0.0778
  318SOL    HW111058   1.891   4.294   2.054 -0.7645 -1.1892  0.1733
  318SOL    HW211059   1.894   4.392   2.184  0.9415 -0.3250 -0.5062
  319SOL     OW11060   9.340   2.866   1.444 -0.1177 -0.1021  0.2227
  319SOL    HW111061   9.250   2.862   1.488 -0.5879  4.0334 -0.1668
  319SOL    HW211062   9.398   2.930   1.493  0.7711  1.3558 -2.6052
  320SOL     OW11063   8.749   6.065   2.033 -0.5447 -0.5343 -0.3350
  320SOL    HW111064   8.728   6.135   2.101 -1.7775 -2.3528  1.2173
  320SOL    HW211065   8.674   6.059   1.967 -0.5802 -0.5776 -0.2907
  321SOL     OW11066   3.500   4.359   1.878 -1.0120  0.0455  0.2627
  321SOL    HW111067   3.409   4.391   1.903 -0.8448  1.5451 -0.9892
  321SOL    HW211068   3.493   4.267   1.838 -2.0331  0.3650 -0.3117
  322SOL     OW11069   3.746   3.530   1.552  0.2042 -0.3693 -0.0199
  322SOL    HW111070   3.690   3.501   1.630 -0.3604  0.3095 -0.1607
  322SOL    HW211071   3.779   3.450   1.503 -0.2249 -0.7882  0.3654
  323SOL     OW11072   0.679   5.453   1.778 -0.5001  0.0535  0.3852
  323SOL    HW111073   0.640   5.485   1.692  0.8416  0.1550 -0.1992
  323SOL    HW211074   0.690   5.353   1.774  1.2466  0.2613 -0.2756
  324SOL     OW11075   3.049   0.827   0.478 -0.2888  0.3514  0.3334
  324SOL    HW111076   3.116   0.752   0.480 -1.2491 -0.5604 -0.5442
  324SOL    HW211077   3.000   0.832   0.565  0.3930  0.5249  0.7041
  325SOL     OW11078   3.771   3.483   2.369  0.5338  0.2336  0.3281
  325SOL    HW111079   3.750   3.550   2.297  1.1869 -0.4494 -0.5120
  325SOL    HW211080   3.831   3.412   2.332  0.3551 -0.4815  1.3825
  326SOL     OW11081   3.447   2.139   1.520  0.1455 -0.8556  0.3834
  326SOL    HW111082   3.356   2.128   1.482  0.1999  0.3199 -0.1144
  326SOL    HW211083   3.445   2.117   1.618 -0.8620 -0.0268  0.5652
  327SOL     OW11084   2.441   2.986   2.051  0.3296  0.1228 -0.1643
  327SOL    HW111085   2.480   3.061   1.998  2.1840 -0.3102  0.5637
  327SOL    HW211086   2.476   2.899   2.017  2.0908 -0.1310  2.1409
  328SOL     OW11087   3.548   3.135   0.957 -0.1603 -0.1058 -0.3738
  328SOL    HW111088   3.477   3.079   0.913 -0.9448  0.2418  0.4285
  328SOL    HW211089   3.635   3.086   0.953 -1.3487 -2.6973  2.6896
  329SOL     OW11090   0.698   5.202   2.173  0.3317  0.2600  0.5704
  329SOL    HW111091   0.792   5.183   2.143 -0.4737 -2.3082 -0.4749
  329SOL    HW211092   0.679   5.151   2.257 -0.1512  0.7144  0.7334
  330SOL     OW11093   2.715   8.642   0.250  0.3421  0.0747  0.0427
  330SOL    HW111094   2.633   8.589   0.270  0.6450 -0.1734  0.6553
  330SOL    HW211095   2.769   8.594   0.181  0.4373 -0.2360  0.3312
  331SOL     OW11096   3.072   1.238   0.604  0.5896 -0.8771  0.0124
  331SOL    HW111097   3.116   1.198   0.524  3.7998  1.6184  0.4088
  331SOL    HW211098   3.128   1.220   0.685 -0.3748  0.3086  0.9584
  332SOL     OW11099   3.115   5.325   2.136  0.2623 -0.2947  0.3853
  332SOL    HW111100   3.029   5.359   2.174  0.1091 -1.2388  0.9025
  332SOL    HW211101   3.102   5.232   2.100  1.0413 -0.4146  0.4042
  333SOL     OW11102   2.505   4.337   0.211  0.6308  0.6821 -0.0091
  333SOL    HW111103   2.430   4.299   0.266 -0.9154  1.7700 -1.2944
  333SOL    HW211104   2.582   4.274   0.212  0.3397  0.2771  2.6862
  334SOL     OW11105   4.116   1.751   0.727 -0.3888  0.3452 -0.0527
  334SOL    HW111106   4.199   1.720   0.681 -1.6230 -0.5447 -1.7371
  334SOL    HW211107   4.125   1.738   0.826  1.7063  0.8514 -0.1642
  335SOL     OW11108   3.302   6.459   1.304  0.3734 -0.0831 -0.7123
  335SOL    HW111109   3.228   6.393   1.321 -2.3763  3.0139 -0.1696
  335SOL    HW211110   3.355   6.471   1.387 -0.5010  0.0408 -0.1682
  336SOL     OW11111   0.612   4.247   0.981 -0.0756  0.3064 -0.0734
  336SOL    HW111112   0.568   4.179   0.924  0.2881  0.8254 -0.9880
  336SOL    HW211113   0.706   4.219   1.001 -0.7369 -0.6971  1.6980
  337SOL     OW11114   2.114   1.910   2.371  0.3931  0.6614  0.3929
  337SOL    HW111115   2.206   1.917   2.410  0.9256  0.7563 -0.8608
  337SOL    HW211116   2.106   1.974   2.294  0.0209 -0.9704 -0.9512
  338SOL     OW11117   1.087   0.804   1.859  0.1113 -0.0854 -0.3933
  338SOL    HW111118   1.091   0.796   1.959  0.6782  0.7771 -0.3404
  338SOL    HW211119   1.170   0.766   1.819 -0.4916 -1.2103 -0.5970
  339SOL     OW11120   3.997   5.315   2.200 -0.7814  0.1985  0.1670
  339SOL    HW111121   3.975   5.388   2.265 -0.3679 -0.5885  1.2012
  339SOL    HW211122   3.976   5.227   2.241  1.7819 -0.4387  0.1771
  340SOL     OW11123   2.035   0.599   1.120 -0.1009  0.0489  0.4181
  340SOL    HW111124   2.126   0.625   1.089 -0.6520 -0.0592 -1.3507
  340SOL    HW211125   2.035   0.589   1.219  2.1558 -1.3091  0.3192
  341SOL     OW11126   3.933   2.236   1.016  0.3543  0.8914 -0.7871
  341SOL    HW111127   3.862   2.277   0.957  0.0624  0.8548 -0.4614
  341SOL    HW211128   3.979   2.308   1.067 -0.5619  0.7617  0.2322
  342SOL     OW11129   2.520   5.098   1.877  0.0383  1.1026 -0.1218
  342SOL    HW111130   2.538   5.014   1.827 -1.7076 -0.5743  1.9744
  342SOL    HW211131   2.432   5.135   1.850 -0.3995  0.7986  0.8611
  343SOL     OW11132   0.870   0.447   1.964  0.5753  0.3101 -0.4231
  343SOL    HW111133   0.908   0.438   2.056 -0.4161  5.3915  0.5893
  343SOL    HW211134   0.777   0.410   1.964  0.1465  1.3481  0.9340
  344SOL     OW11135   3.117   9.561   0.776  0.3835 -0.4862 -0.0132
  344SOL    HW111136   3.127   9.462   0.769  0.0068 -0.4867 -0.5676
  344SOL    HW211137   3.024   9.587   0.750  0.7557  0.1008 -0.7850
  345SOL     OW11138   9.846   3.027   1.348  0.4801 -0.2262  0.3755
  345SOL    HW111139   9.781   3.032   1.273 -0.6758 -1.6792  1.2477
  345SOL    HW211140   9.930   2.982   1.317  0.2107 -0.3406 -0.1795
  346SOL     OW11141   0.489   2.033   0.160  0.0702  0.2668  0.0666
  346SOL    HW111142   0.478   1.952   0.216 -0.2589  1.2277  1.4248
  346SOL    HW211143   0.400   2.063   0.126 -0.1220  1.3536  1.4612
  347SOL     OW11144   1.964   6.016   0.874 -0.3374  0.2721 -0.1361
  347SOL    HW111145   1.887   6.040   0.932 -0.6262  1.2252 -0.8887
  347SOL    HW211146   2.048   6.012   0.928 -0.8861 -0.6223  0.6547
  348SOL     OW11147   3.692   3.543   0.994 -0.5668 -0.2346 -0.3060
  348SOL    HW111148   3.640   3.508   1.072 -2.0508 -3.0155 -2.4621
  348SOL    HW211149   3.650   3.627   0.960  0.5217  1.4263  2.2615
  349SOL     OW11150   4.001   3.879   2.171 -0.1144  0.5257 -0.0227
  349SOL    HW111151   3.989   3.963   2.118 -0.4748  0.7181  0.3482
  349SOL    HW211152   4.064   3.897   2.247  0.8910  0.0798 -0.7552
  350SOL     OW11153   9.831   8.475   1.704 -0.4187  0.0988 -0.6339
  350SOL    HW111154   9.784   8.519   1.628 -0.1228  0.3769 -0.6584
  350SOL    HW211155   9.854   8.544   1.773 -0.1099 -0.0464 -0.5927
  351SOL     OW11156   1.556   8.887   0.650 -0.4359 -0.1493  0.8368
  351SOL    HW111157   1.464   8.923   0.666 -0.7385 -1.2266  1.5609
  351SOL    HW211158   1.559   8.790   0.674  1.0579  0.0303  1.4354
  352SOL     OW11159   2.442   7.658   2.558  0.1404 -0.0300  0.1364
  352SOL    HW111160   2.456   7.724   2.485 -0.4056  1.2184  1.1359
  352SOL    HW211161   2.390   7.580   2.523 -0.1520  0.5682 -0.7901
  353SOL     OW11162  10.091   8.841   1.668  0.5877  0.1032  0.4609
  353SOL    HW111163  10.075   8.752   1.625  0.6522  0.7835 -1.0239
  353SOL    HW211164  10.010   8.867   1.722  0.0923 -0.3304 -0.0619
  354SOL     OW11165   2.223   6.239   0.224 -0.4634 -0.0533 -0.2878
  354SOL    HW111166   2.250   6.242   0.128 -0.2408  2.1749 -0.1719
  354SOL    HW211167   2.161   6.314   0.243 -2.4654 -1.9162  0.7580
  355SOL     OW11168   9.484   1.108   1.613 -0.1301  0.4040  0.1625
  355SOL    HW111169   9.537   1.162   1.547 -0.2091  0.6110  0.2662
  355SOL    HW211170   9.516   1.014   1.613  0.6125  0.6577  0.6302
  356SOL     OW11171   2.664   8.849   2.372  0.7819 -0.4296 -0.2343
  356SOL    HW111172   2.676   8.906   2.453 -1.3560  0.1051 -0.2498
  356SOL    HW211173   2.753   8.819   2.338  1.8223  1.2183  0.9659
  357SOL     OW11174   9.435   2.746   2.626 -0.4804 -0.4123 -0.4741
  357SOL    HW111175   9.417   2.649   2.612  2.5938 -0.7977 -2.2858
  357SOL    HW211176   9.511   2.758   2.690 -0.3313  0.7701 -0.8447
  358SOL     OW11177   9.323   6.595   1.573 -0.1426 -0.2662  0.0419
  358SOL    HW111178   9.262   6.525   1.535  1.3063 -3.3926  3.1364
  358SOL    HW211179   9.268   6.669   1.613 -1.8674 -1.9201  0.8194
  359SOL     OW11180   9.581   4.087   0.420  0.6665 -0.2279 -0.0242
  359SOL    HW111181   9.596   4.183   0.443 -0.3203 -0.2577  0.7507
  359SOL    HW211182   9.511   4.048   0.480  0.3397 -1.1651 -0.9867
  360SOL     OW11183   3.363   0.605   0.704 -0.1029  0.6904 -0.6087
  360SOL    HW111184   3.362   0.595   0.803 -0.8534  2.7181 -0.3668
  360SOL    HW211185   3.456   0.592   0.669  0.5621  2.0224  0.6220
  361SOL     OW11186   3.729   9.528   1.198  0.4362 -0.3587  0.0296
  361SOL    HW111187   3.639   9.485   1.187  1.0608 -1.8974  0.7235
  361SOL    HW211188   3.745   9.545   1.296  1.0254 -0.3752 -0.0638
  362SOL     OW11189   0.692   2.508   1.510 -0.0528  0.1152  0.2674
  362SOL    HW111190   0.759   2.439   1.482 -1.5563 -0.0088 -3.2835
  362SOL    HW211191   0.603   2.464   1.524 -0.6358  1.0786 -0.3604
  363SOL     OW11192   2.977   9.021   1.557  0.5294  0.2872  0.1997
  363SOL    HW111193   3.062   8.983   1.595  0.9232  0.2400 -0.7230
  363SOL    HW211194   2.999   9.098   1.497 -0.0726  0.1679 -0.1741
  364SOL     OW11195   1.930   5.646   2.634 -0.1378 -0.2251  0.0565
  364SOL    HW111196   1.837   5.660   2.601  0.7515  0.2061 -2.4178
  364SOL    HW211197   1.937   5.557   2.679 -1.7624 -0.1852  0.4047
  365SOL     OW11198   3.013   7.602   1.848  0.1424  0.3696  0.7493
  365SOL    HW111199   3.049   7.618   1.940  0.5760 -1.2876  0.8872
  365SOL    HW211200   2.940   7.533   1.852  1.2195 -0.8523 -0.3391
  366SOL     OW11201   4.296   3.355   0.142  0.1043  0.5121  0.2111
  366SOL    HW111202   4.307   3.429   0.075  1.7087  0.4898  0.4293
  366SOL    HW211203   4.199   3.330   0.148 -0.4067  2.2989 -0.1751
  367SOL     OW11204   5.243   4.056   2.277  0.2451 -0.1105 -0.4230
  367SOL    HW111205   5.159   4.048   2.225  0.8285  0.6453 -1.4982
  367SOL    HW211206   5.241   3.993   2.354 -0.1907 -1.9989 -1.9553
  368SOL     OW11207   8.596   6.905   1.305  0.8139  1.2647 -0.3656
  368SOL    HW111208   8.557   6.988   1.345  3.8097  3.7422 -2.4230
  368SOL    HW211209   8.565   6.896   1.211 -0.4692 -0.7108  0.1950
  369SOL     OW11210   4.608   3.942   0.821  0.7149 -0.2282 -0.0934
  369SOL    HW111211   4.509   3.940   0.806  0.0597 -2.3174  3.7675
  369SOL    HW211212   4.637   4.035   0.841 -0.6696  0.1942  0.0047
  370SOL     OW11213   4.437   3.268   2.406  0.1871 -0.6568  0.0861
  370SOL    HW111214   4.479   3.182   2.376 -0.7896 -1.5461  1.2019
  370SOL    HW211215   4.500   3.344   2.390  0.5349 -1.3802 -2.2011
  371SOL     OW11216   9.782   2.957   2.048 -0.1175  0.6724  0.4029
  371SOL    HW111217   9.881   2.954   2.033 -0.3017  0.0174 -0.7468
  371SOL    HW211218   9.747   2.864   2.058 -0.5427  0.9308  1.2997
  372SOL     OW11219   1.673   7.665   1.274 -0.7732 -0.1847  0.0375
  372SOL    HW111220   1.605   7.644   1.345 -1.2195  3.1735  0.6801
  372SOL    HW211221   1.625   7.690   1.189 -0.3055 -0.4497 -0.3030
  373SOL     OW11222   1.787   3.530   0.362  0.3853  0.1316  0.0174
  373SOL    HW111223   1.791   3.494   0.456  0.3597  0.3502  0.1015
  373SOL    HW211224   1.694   3.519   0.327  0.1531  0.9476  0.3704
  374SOL     OW11225   3.087   6.684   1.917  0.2680  0.0482  0.2253
  374SOL    HW111226   3.079   6.650   1.823 -1.3791  1.2185 -0.0953
  374SOL    HW211227   3.000   6.725   1.944  1.3898  1.6586  1.5002
  375SOL     OW11228   3.449   7.759   1.681  0.0822  0.1226  0.1768
  375SOL    HW111229   3.470   7.827   1.611 -1.6694  0.6522  0.1514
  375SOL    HW211230   3.367   7.708   1.655  1.6053 -2.3038 -0.0125
  376SOL     OW11231   9.792   4.873   1.367  0.5858 -0.6163  0.1470
  376SOL    HW111232   9.722   4.940   1.391  0.4168 -1.1385  1.1336
  376SOL    HW211233   9.882   4.909   1.390  0.5168 -0.6183  0.4147
  377SOL     OW11234   3.572   4.008   2.271 -0.1618  0.7383  0.5346
  377SOL    HW111235   3.633   4.071   2.222  1.2177  0.6157  2.0505
  377SOL    HW211236   3.558   3.926   2.216  1.4150  0.5788  0.3393
  378SOL     OW11237   9.313   8.628   2.145  0.3322 -0.4948 -0.0684
  378SOL    HW111238   9.243   8.560   2.123  1.0423 -1.0249 -0.7096
  378SOL    HW211239   9.341   8.617   2.241 -0.0029 -0.6953  0.0077
  379SOL     OW11240   1.679   3.369   1.751 -0.9951  0.1975 -0.4090
  379SOL    HW111241   1.627   3.312   1.816 -2.4142  1.6301 -0.2594
  379SOL    HW211242   1.657   3.465   1.767  0.6699  0.7306 -1.2831
  380SOL     OW11243   3.086   2.250   2.470 -0.5888  0.2815 -0.2392
  380SOL    HW111244   3.125   2.159   2.458 -0.3381  0.1691  1.3269
  380SOL    HW211245   3.054   2.261   2.564 -1.1556  1.6062 -0.5689
  381SOL     OW11246   9.755   7.693   2.519 -0.1689 -0.1823  0.1460
  381SOL    HW111247   9.845   7.691   2.477 -0.1649  0.7139  0.1076
  381SOL    HW211248   9.689   7.651   2.457 -0.4961  2.7862 -1.6134
  382SOL     OW11249   2.449   0.975   1.766  0.2054 -0.2193  0.1813
  382SOL    HW111250   2.415   0.932   1.683  2.0354 -2.9794  0.7613
  382SOL    HW211251   2.533   1.024   1.746  0.9497 -1.3517  0.4640
  383SOL     OW11252   3.672   9.213   1.367 -0.2908 -0.5654 -0.1829
  383SOL    HW111253   3.706   9.119   1.356  0.5873 -0.1859 -0.7359
  383SOL    HW211254   3.746   9.271   1.400 -1.0534 -0.2286  0.9641
  384SOL     OW11255   9.592   1.590   1.485  0.2255  0.8650 -0.2752
  384SOL    HW111256   9.549   1.592   1.576 -1.1032 -0.8042 -0.8323
  384SOL    HW211257   9.595   1.682   1.448 -1.6903  1.2157  0.3626
  385SOL     OW11258   3.144   3.655   0.760 -0.4654 -0.3281  0.0985
  385SOL    HW111259   3.216   3.665   0.829 -0.9002  1.6210  0.3076
  385SOL    HW211260   3.055   3.668   0.803 -0.8239 -0.6282 -0.5487
  386SOL     OW11261   3.365   1.471   0.833  0.0497  0.1302  0.0703
  386SOL    HW111262   3.267   1.468   0.850  0.1479  0.9678  0.7904
  386SOL    HW211263   3.399   1.378   0.818 -1.0627 -0.0404 -1.4195
  387SOL     OW11264   0.626   8.386   1.162  0.0843  0.0425 -1.0506
  387SOL    HW111265   0.590   8.297   1.190  0.0309  0.7016  1.0723
  387SOL    HW211266   0.558   8.457   1.183  1.6086  1.0061  0.7319
  388SOL     OW11267   1.775   7.064   1.640  0.4799 -0.5496 -0.3010
  388SOL    HW111268   1.779   7.151   1.590 -0.1338 -0.1162  0.3907
  388SOL    HW211269   1.814   7.077   1.732 -2.3349 -0.2210  0.8993
  389SOL     OW11270   4.645   4.338   2.550 -0.0468  0.5782 -0.5984
  389SOL    HW111271   4.697   4.358   2.466 -1.4111  0.5009 -1.4732
  389SOL    HW211272   4.698   4.369   2.629  2.0585 -0.9361 -1.3562
  390SOL     OW11273   4.787   4.143   0.161 -0.3591 -0.1965  0.0349
  390SOL    HW111274   4.859   4.208   0.185 -0.3149 -0.2610  0.0765
  390SOL    HW211275   4.765   4.087   0.241 -4.1022  3.2641  1.6355
  391SOL     OW11276   4.755   4.039   2.406  0.4570  0.1380 -0.4841
  391SOL    HW111277   4.765   4.101   2.329 -1.2509 -0.3091 -1.1019
  391SOL    HW211278   4.805   4.074   2.485  0.2248  1.8418 -1.0783
  392SOL     OW11279   2.920   4.394   2.156 -0.2971  0.4023 -0.4652
  392SOL    HW111280   2.912   4.371   2.059 -2.6756  1.7880 -0.6293
  392SOL    HW211281   2.836   4.370   2.204  1.1424 -1.0183  1.4442
  393SOL     OW11282   9.183   3.450   1.627  0.0173 -0.6215  0.6135
  393SOL    HW111283   9.232   3.379   1.577 -0.1937 -0.4062  0.0927
  393SOL    HW211284   9.119   3.409   1.691  0.2482 -0.9020  0.6625
  394SOL     OW11285   9.152   8.011   2.168 -0.0626  0.3308  0.2085
  394SOL    HW111286   9.095   8.012   2.250 -0.3338  3.3642  0.0452
  394SOL    HW211287   9.155   7.918   2.130 -0.7416 -0.8980  3.0573
  395SOL     OW11288   2.627   9.095   1.577  0.4685 -0.4471 -0.1231
  395SOL    HW111289   2.586   9.186   1.581 -0.2509 -0.6545 -2.2967
  395SOL    HW211290   2.555   9.026   1.575  0.8978 -0.8493 -3.1158
  396SOL     OW11291   3.358   2.414   2.409 -0.0052  0.4140 -0.0799
  396SOL    HW111292   3.325   2.324   2.439  1.0097 -0.3559 -1.2105
  396SOL    HW211293   3.313   2.440   2.324  1.0457  0.1101 -0.7490
  397SOL     OW11294   0.892   1.638   1.419 -0.1770  0.0986 -0.9677
  397SOL    HW111295   0.834   1.567   1.459 -0.9849  0.2100 -1.9243
  397SOL    HW211296   0.892   1.718   1.480 -0.9503  0.0554 -0.9037
  398SOL     OW11297   3.326   4.683   2.322 -0.5270 -0.3044  0.3317
  398SOL    HW111298   3.425   4.680   2.339 -0.4120  0.1512 -0.2285
  398SOL    HW211299   3.293   4.593   2.295 -0.4939 -0.7527  1.7794
  399SOL     OW11300   4.261   4.508   0.601  0.1225  0.1460  0.2292
  399SOL    HW111301   4.353   4.477   0.575  0.9311  0.8390  2.1531
  399SOL    HW211302   4.198   4.430   0.601  1.2208 -0.7550  1.0809
  400SOL     OW11303   9.612   6.429   2.081  0.3530  0.7644 -0.5164
  400SOL    HW111304   9.591   6.452   1.986 -2.4780 -0.0420 -0.1200
  400SOL    HW211305   9.551   6.479   2.142  0.6575 -0.3971  0.7793
  401SOL     OW11306  10.112   0.214   2.117 -0.4144  0.3394 -0.3161
  401SOL    HW111307  10.019   0.219   2.154 -1.0104  1.6051 -1.9364
  401SOL    HW211308  10.111   0.163   2.032  0.5546 -0.4754  0.1524
  402SOL     OW11309   3.103   6.325   2.561  0.5017 -0.4155 -0.5355
  402SOL    HW111310   3.113   6.225   2.570 -0.6672 -0.5149 -0.2052
  402SOL    HW211311   3.189   6.364   2.528  1.1748 -1.4586 -0.0702
  403SOL     OW11312   1.749   2.537   0.123 -0.2400  0.3319  0.0884
  403SOL    HW111313   1.670   2.598   0.130  0.3317  1.1787 -0.7005
  403SOL    HW211314   1.820   2.565   0.188  0.9946  2.0166 -1.9155
  404SOL     OW11315   2.323   1.599   2.168 -0.2348  0.1791 -0.5409
  404SOL    HW111316   2.258   1.524   2.183 -1.7903  1.7053  0.6166
  404SOL    HW211317   2.290   1.657   2.093 -0.1504  0.8844 -0.0369
  405SOL     OW11318   1.000   3.692   2.499 -0.0333  0.4159 -0.3992
  405SOL    HW111319   1.040   3.622   2.440  0.5105  0.4533 -0.0754
  405SOL    HW211320   0.918   3.656   2.543  0.8696 -0.4097  0.6456
  406SOL     OW11321   9.663   3.702   0.690 -0.6198 -0.4621 -0.4270
  406SOL    HW111322   9.619   3.667   0.773 -2.2732  0.1940 -1.0100
  406SOL    HW211323   9.720   3.781   0.713  0.3497 -1.3729  0.3485
  407SOL     OW11324   4.297   0.038   0.710 -0.7870  0.0333 -0.5271
  407SOL    HW111325   4.255  -0.052   0.725  0.5082 -0.3946  0.6633
  407SOL    HW211326   4.276   0.097   0.788  0.1830  0.0593 -0.2876
  408SOL     OW11327   2.029   5.947   1.985  0.3446  0.7109  0.1202
  408SOL    HW111328   1.999   5.852   1.996  0.2917  0.6899 -0.1797
  408SOL    HW211329   1.979   6.005   2.049 -0.1476  0.6339 -0.1817
  409SOL     OW11330   9.168   4.474   2.098 -0.4125 -0.5922  0.4550
  409SOL    HW111331   9.132   4.531   2.024 -1.6763 -0.2533  1.3064
  409SOL    HW211332   9.201   4.387   2.061 -1.6990 -0.7207 -0.4145
  410SOL     OW11333  10.246   4.907   2.171  0.0745 -0.0636  0.2946
  410SOL    HW111334  10.287   4.840   2.109 -1.0505  0.2852 -0.8693
  410SOL    HW211335  10.170   4.864   2.221  0.2560 -0.0411  0.5876
  411SOL     OW11336   9.650   4.791   0.607  0.0522 -0.2407  0.0094
  411SOL    HW111337   9.567   4.837   0.575  1.5138  2.8482  0.4141
  411SOL    HW211338   9.676   4.829   0.696  3.3700  0.8755 -1.3416
  412SOL     OW11339   1.097   6.070   2.014 -0.1169  0.4168 -0.0163
  412SOL    HW111340   1.108   6.002   2.087  0.9934 -0.8331 -1.3190
  412SOL    HW211341   0.999   6.083   1.995 -0.3729 -0.0615  0.9305
  413SOL     OW11342   3.497   1.468   2.040  0.3481 -0.5343  0.3337
  413SOL    HW111343   3.491   1.420   2.127 -0.8508 -0.9071  0.0521
  413SOL    HW211344   3.574   1.431   1.987  0.2094 -1.2847  0.6427
  414SOL     OW11345   3.176   6.704   1.208 -0.0342 -0.2456  0.2511
  414SOL    HW111346   3.255   6.762   1.227  1.7322 -1.4221 -3.1740
  414SOL    HW211347   3.203   6.608   1.210 -1.7516 -0.7338  0.7148
  415SOL     OW11348   0.632   9.727   0.661 -0.3400  0.5275  0.2681
  415SOL    HW111349   0.546   9.707   0.706 -0.3946  1.6100  0.6776
  415SOL    HW211350   0.682   9.642   0.642 -1.1983 -0.0501  0.6116
  416SOL     OW11351   4.128   4.405   0.877  0.1612  0.5600  0.2491
  416SOL    HW111352   4.053   4.423   0.812 -0.5744  0.0698  0.9495
  416SOL    HW211353   4.154   4.490   0.922  1.5743  1.1530 -1.6366
  417SOL     OW11354   4.044   3.279   0.121  0.3976 -0.0980 -0.2505
  417SOL    HW111355   4.014   3.192   0.161  1.5640  0.2651  1.5220
  417SOL    HW211356   4.016   3.284   0.026 -1.1628 -1.6851  0.0997
  418SOL     OW11357   3.367   9.132   2.652  0.4653 -0.7523 -0.1397
  418SOL    HW111358   3.444   9.094   2.602  0.8660  0.1807 -0.2365
  418SOL    HW211359   3.284   9.125   2.596  0.5258 -1.5150 -0.1363
  419SOL     OW11360   4.968   3.910   2.237  0.1875 -0.6969 -0.4114
  419SOL    HW111361   4.972   3.889   2.140 -0.4374  0.1959 -0.6412
  419SOL    HW211362   4.873   3.921   2.265  0.3932 -0.3132  0.1542
  420SOL     OW11363   3.764   5.988   0.528 -0.6162 -0.0497 -0.1731
  420SOL    HW111364   3.714   5.923   0.586 -0.5038 -0.5446 -0.6194
  420SOL    HW211365   3.717   5.997   0.440  1.2050 -2.1511 -1.4092
  421SOL     OW11366   1.914   5.494   0.849 -0.0131 -0.0343  0.4057
  421SOL    HW111367   1.894   5.587   0.880 -1.3829 -0.2390  0.1616
  421SOL    HW211368   2.009   5.472   0.869  0.0103  1.0135  1.4951
  422SOL     OW11369   2.834   5.399   0.637 -0.1732  0.0102 -0.1988
  422SOL    HW111370   2.815   5.301   0.632 -1.5742  0.2483  0.2474
  422SOL    HW211371   2.927   5.413   0.668 -0.9255 -1.1564  2.7364
  423SOL     OW11372   0.488   9.088   2.170  0.4758 -0.5147  0.6126
  423SOL    HW111373   0.505   9.165   2.232 -0.8476 -1.4734  2.2025
  423SOL    HW211374   0.429   9.118   2.095  1.1594  0.3697  0.4149
  424SOL     OW11375   2.594   1.203   0.890 -0.5330 -0.0265  0.4152
  424SOL    HW111376   2.678   1.152   0.871  0.1923  1.3486 -0.1471
  424SOL    HW211377   2.519   1.163   0.838  0.0325 -0.4680 -0.0758
  425SOL     OW11378   3.573   3.453   0.266 -0.1185 -0.0735  0.2296
  425SOL    HW111379   3.584   3.551   0.249  2.4353 -0.0461  1.6986
  425SOL    HW211380   3.661   3.407   0.251 -1.3395 -2.1821 -0.6263
  426SOL     OW11381   1.674   8.199   1.643 -0.9192  0.4036 -0.2700
  426SOL    HW111382   1.673   8.247   1.555 -0.7374  2.8182  0.9909
  426SOL    HW211383   1.761   8.217   1.689 -1.1441 -0.5712  0.5377
  427SOL     OW11384   2.532   6.795   0.387 -0.0355 -0.4965 -0.7970
  427SOL    HW111385   2.618   6.791   0.437 -0.3409 -0.7035 -0.2830
  427SOL    HW211386   2.516   6.888   0.354  1.2413 -0.8366 -2.4214
  428SOL     OW11387   1.953   0.579   2.172 -0.1527 -0.1067  0.0720
  428SOL    HW111388   1.856   0.587   2.149 -0.3623 -0.3086  0.8515
  428SOL    HW211389   1.976   0.482   2.184  0.7688 -0.2707 -2.6845
  429SOL     OW11390   1.015   6.162   1.119  0.0622 -0.0839 -0.2811
  429SOL    HW111391   0.916   6.148   1.122 -0.2095  1.5396 -1.3680
  429SOL    HW211392   1.048   6.186   1.211 -0.7233  0.5139 -0.1481
  430SOL     OW11393   2.987   1.489   0.703  0.4253 -0.2337 -0.0829
  430SOL    HW111394   2.969   1.539   0.618 -3.1293 -1.4378 -0.1370
  430SOL    HW211395   2.987   1.390   0.683 -2.4540 -0.6280  1.5509
  431SOL     OW11396   4.400   1.513   2.370  0.1041 -0.2029 -0.1341
  431SOL    HW111397   4.457   1.499   2.290  1.0939  0.3150  0.4653
  431SOL    HW211398   4.427   1.599   2.415 -0.2243 -0.6416  0.9137
  432SOL     OW11399   3.300   9.821   2.807 -0.4334 -0.1757 -0.2648
  432SOL    HW111400   3.236   9.838   2.882 -1.7373  0.6560 -1.5208
  432SOL    HW211401   3.311   9.723   2.794 -2.3201 -0.3517 -0.7160
  433SOL     OW11402   2.248   3.861   1.426  0.4031  0.1038 -0.4338
  433SOL    HW111403   2.284   3.954   1.431 -0.3571  0.4158 -0.6235
  433SOL    HW211404   2.151   3.862   1.450  0.4516 -0.6788 -0.1947
  434SOL     OW11405   1.326   4.698   2.461  0.8886 -0.1772 -0.1519
  434SOL    HW111406   1.407   4.686   2.404  1.3184  1.3071  0.1130
  434SOL    HW211407   1.355   4.714   2.556  0.2021 -2.1275  0.4013
  435SOL     OW11408   8.965   3.806   0.288  0.3159 -0.1598 -0.2979
  435SOL    HW111409   8.924   3.845   0.370  0.1968  2.2246 -1.4412
  435SOL    HW211410   9.037   3.742   0.313 -0.5073 -0.3325  1.6639
  436SOL     OW11411   3.289   7.494   1.281 -0.8402  0.3364  0.1516
  436SOL    HW111412   3.271   7.520   1.186  1.8592 -1.1754 -0.8194
  436SOL    HW211413   3.368   7.545   1.315 -0.2617 -0.9293  0.7372
  437SOL     OW11414   3.606   5.814   2.772  0.4185  0.5084  0.7020
  437SOL    HW111415   3.692   5.831   2.822  0.3424  2.8368  0.1206
  437SOL    HW211416   3.626   5.805   2.675  0.1511 -0.3830  0.7278
  438SOL     OW11417   2.166   5.794   0.568 -0.2884 -0.3560  0.3864
  438SOL    HW111418   2.188   5.852   0.489 -1.2594  0.0875  0.4395
  438SOL    HW211419   2.250   5.751   0.601  0.1386 -0.5461 -0.8858
  439SOL     OW11420   2.154   0.945   0.298 -0.4759 -0.0611  0.3383
  439SOL    HW111421   2.247   0.977   0.283 -0.5648  0.7759  1.4532
  439SOL    HW211422   2.156   0.861   0.353 -0.2649 -1.7152 -2.1481
  440SOL     OW11423   2.014   7.685   2.505 -0.1407  0.2092  0.3249
  440SOL    HW111424   2.101   7.703   2.459 -0.2374 -0.3440 -0.0743
  440SOL    HW211425   2.032   7.655   2.599  0.0665  0.9389  0.5287
  441SOL     OW11426  10.017   2.343   0.471 -0.7202 -0.0767  0.3537
  441SOL    HW111427  10.011   2.326   0.373  0.3925  0.5989  0.1502
  441SOL    HW211428  10.080   2.277   0.512 -1.5605 -0.6700  0.7062
  442SOL     OW11429   1.262   6.044   2.355 -0.2576 -0.2837  0.4275
  442SOL    HW111430   1.345   5.997   2.325 -0.5841 -2.7064  3.0787
  442SOL    HW211431   1.200   6.054   2.277  0.6490 -2.5757 -0.6492
  443SOL     OW11432   3.183   5.040   0.264 -0.0373 -0.3531  0.0911
  443SOL    HW111433   3.242   5.010   0.339 -2.6951 -1.9089  1.6329
  443SOL    HW211434   3.136   5.125   0.290  0.1329 -0.1090 -0.3901
  444SOL     OW11435  10.254   4.767   1.137  0.2822  0.2200 -0.5530
  444SOL    HW111436  10.156   4.767   1.117  0.1285  1.1281  0.1451
  444SOL    HW211437  10.305   4.805   1.060  0.0819 -0.2318 -0.9062
  445SOL     OW11438   1.859   5.145   2.574  0.4227  0.3300  0.7939
  445SOL    HW111439   1.916   5.226   2.588  1.2956 -0.1815  0.2360
  445SOL    HW211440   1.917   5.067   2.550 -0.5919  0.0439 -0.8284
  446SOL     OW11441   9.477   0.159   0.968 -0.2024 -0.3825  1.0634
  446SOL    HW111442   9.488   0.093   0.893 -0.7425 -0.8956  1.4321
  446SOL    HW211443   9.402   0.221   0.947  0.2788  0.0885  0.7355
  447SOL     OW11444   9.157   0.654   2.128  0.3314 -0.0634 -0.4488
  447SOL    HW111445   9.079   0.622   2.074 -0.9258 -0.1741  1.3956
  447SOL    HW211446   9.152   0.616   2.220  2.0223  0.7457 -0.0068
  448SOL     OW11447   0.957   2.474   0.563 -0.1946 -0.3886 -0.3453
  448SOL    HW111448   0.989   2.485   0.469  1.6713 -1.2511  0.1712
  448SOL    HW211449   1.013   2.529   0.625  0.9822 -2.6474  0.6811
  449SOL     OW11450   3.571   2.227   2.371 -0.1311 -0.5936 -0.3255
  449SOL    HW111451   3.485   2.277   2.382  0.2783 -0.2287  1.3325
  449SOL    HW211452   3.643   2.273   2.423  0.8806 -1.3861 -0.9982
  450SOL     OW11453   1.864   4.278   0.188 -0.4624  0.1869  0.1753
  450SOL    HW111454   1.773   4.255   0.222 -1.1322  0.6696 -1.2770
  450SOL    HW211455   1.930   4.272   0.263 -1.3774 -1.9332  0.8445
  451SOL     OW11456   9.910   3.847   1.021 -0.3490 -0.0233  0.6851
  451SOL    HW111457   9.915   3.913   1.095  2.1500 -0.4911  0.9928
  451SOL    HW211458   9.895   3.894   0.935  1.7247  1.0069  0.8568
  452SOL     OW11459   0.886   9.111   0.391  0.5647 -0.1963  0.1022
  452SOL    HW111460   0.800   9.096   0.440 -0.0224 -3.0617 -1.6793
  452SOL    HW211461   0.867   9.155   0.303  1.0452  0.3255  0.2639
  453SOL     OW11462   9.804   7.123   1.455  0.4598  0.2101  0.0365
  453SOL    HW111463   9.835   7.029   1.441 -2.5300 -0.6962 -0.7143
  453SOL    HW211464   9.883   7.181   1.476  2.5247 -2.1719 -0.9183
  454SOL     OW11465   3.538   4.582   0.792  0.3293  0.3727  0.2332
  454SOL    HW111466   3.554   4.636   0.710 -2.1012 -0.1921 -0.6571
  454SOL    HW211467   3.503   4.641   0.865  1.2375  0.6484  0.4430
  455SOL     OW11468   2.693   2.539   0.534  0.5482 -0.1130 -0.9682
  455SOL    HW111469   2.721   2.444   0.518  0.2928 -0.2935 -0.3687
  455SOL    HW211470   2.772   2.591   0.567  0.0285 -0.8151  1.5058
  456SOL     OW11471   9.880   1.794   1.847  0.4602  0.7949  0.2222
  456SOL    HW111472   9.853   1.836   1.760 -0.4655 -1.1897 -0.4810
  456SOL    HW211473   9.910   1.700   1.830  2.3615  1.0962  1.7778
  457SOL     OW11474   9.745   0.215   0.937 -0.0078 -0.3867 -0.4016
  457SOL    HW111475   9.813   0.142   0.946 -0.5497 -0.6329  2.1494
  457SOL    HW211476   9.655   0.181   0.964 -0.7379  0.5734 -1.5516
  458SOL     OW11477   2.758   7.159   0.844  0.0382 -0.0458 -0.1984
  458SOL    HW111478   2.751   7.063   0.871 -0.5661  0.1228  0.2713
  458SOL    HW211479   2.802   7.166   0.755 -0.1884 -0.7795 -0.3726
  459SOL     OW11480   0.878   9.506   1.339 -0.2784 -0.4469  0.3551
  459SOL    HW111481   0.910   9.576   1.275  0.6086 -0.3104  0.9475
  459SOL    HW211482   0.779   9.496   1.330 -0.2872  0.2452 -0.3712
  460SOL     OW11483   0.915   9.959   0.654  0.1896  0.3663  0.3432
  460SOL    HW111484   1.003   9.912   0.647 -0.3130 -0.7435  1.4064
  460SOL    HW211485   0.929  10.049   0.695  0.5711 -0.6073  2.3744
  461SOL     OW11486   0.749   5.447   0.217 -0.3412 -0.2000  0.1709
  461SOL    HW111487   0.779   5.355   0.193 -0.4990 -0.0517 -0.6252
  461SOL    HW211488   0.825   5.511   0.207 -0.3812 -0.1533  0.1644
  462SOL     OW11489   0.582   0.019   0.090 -0.6929  0.1111 -0.2961
  462SOL    HW111490   0.613  -0.075   0.102  0.3580  0.3760 -0.9491
  462SOL    HW211491   0.500   0.020   0.033 -0.2509 -0.3341 -0.9352
  463SOL     OW11492   1.491   4.909   1.067  0.6340  0.0014  0.1225
  463SOL    HW111493   1.405   4.952   1.040 -0.3182 -0.8126  1.8280
  463SOL    HW211494   1.552   4.978   1.105  0.4334  0.4460 -0.3625
  464SOL     OW11495   3.436   3.114   1.761  0.3304 -0.3247  0.0552
  464SOL    HW111496   3.464   3.208   1.745  0.7009 -0.2627  1.0084
  464SOL    HW211497   3.516   3.058   1.779  0.0897 -0.7633 -0.2454
  465SOL     OW11498   1.644   9.438   1.527  0.4057  0.2504 -1.0222
  465SOL    HW111499   1.682   9.356   1.571 -1.0511  0.1564  0.1044
  465SOL    HW211500   1.544   9.430   1.523  0.3822  1.0896 -2.7158
  466SOL     OW11501   3.362   9.267   0.517  0.0537 -0.3121 -0.6069
  466SOL    HW111502   3.324   9.182   0.482  1.3770 -1.2747  0.2480
  466SOL    HW211503   3.350   9.271   0.617 -0.0646  0.5360 -0.6468
  467SOL     OW11504   4.153   8.988   2.538  0.1615 -0.0501  0.2701
  467SOL    HW111505   4.237   8.968   2.489  0.5184  2.3840 -0.1890
  467SOL    HW211506   4.092   8.909   2.534  0.7806 -0.4328 -2.8591
  468SOL     OW11507   0.756   9.011   2.374 -0.3410 -0.3966  0.0247
  468SOL    HW111508   0.683   9.035   2.438 -0.4778  0.3964 -0.4172
  468SOL    HW211509   0.765   9.084   2.305  1.0901 -0.3284  0.2767
  469SOL     OW11510   0.484   1.860   0.743  0.4237  0.1522 -0.2991
  469SOL    HW111511   0.508   1.914   0.663  1.9286 -0.9169 -0.5771
  469SOL    HW211512   0.566   1.824   0.786 -0.4797 -0.9198  0.5822
  470SOL     OW11513   3.216   3.824   2.830 -0.1613 -0.3892  0.4591
  470SOL    HW111514   3.277   3.865   2.762  0.9057  0.2865  1.7965
  470SOL    HW211515   3.210   3.725   2.815 -1.1028 -0.0518 -1.5021
  471SOL     OW11516   0.348   8.156   1.616 -0.8290  0.0671 -0.0088
  471SOL    HW111517   0.332   8.068   1.661 -1.7815  0.1693 -0.1364
  471SOL    HW211518   0.325   8.148   1.519  0.7709 -0.0211 -0.3802
  472SOL     OW11519   3.415   3.845   1.388  0.1079 -0.1456  0.2949
  472SOL    HW111520   3.385   3.753   1.365 -1.5218  0.4812 -0.1735
  472SOL    HW211521   3.445   3.893   1.306 -0.2699  0.1687  0.3366
  473SOL     OW11522   1.047   7.184   2.397  0.1974 -0.0179  0.0242
  473SOL    HW111523   1.066   7.105   2.338 -0.0734  0.5007 -0.7661
  473SOL    HW211524   1.030   7.152   2.490 -0.2310 -0.9268 -0.3538
  474SOL     OW11525   2.720   8.429   1.339  0.2589  0.2204  0.8830
  474SOL    HW111526   2.655   8.465   1.272  3.1230  1.9332 -1.0908
  474SOL    HW211527   2.744   8.335   1.316 -1.6340 -0.5136  1.7712
  475SOL     OW11528   2.855   6.782   2.780 -0.4408  0.1401 -0.0861
  475SOL    HW111529   2.886   6.699   2.735 -0.3724 -0.3425  0.8528
  475SOL    HW211530   2.764   6.767   2.818  0.2642 -0.0548  1.5630
  476SOL     OW11531   9.372   0.127   0.246 -0.8258 -0.0384 -0.8123
  476SOL    HW111532   9.438   0.176   0.303 -0.9903 -0.9475  0.1532
  476SOL    HW211533   9.280   0.152   0.273 -0.8983  0.1947 -1.2665
  477SOL     OW11534   2.320   7.719   0.852 -0.5190  0.4842 -0.2982
  477SOL    HW111535   2.372   7.639   0.822 -2.9097 -1.0246 -0.5724
  477SOL    HW211536   2.352   7.749   0.942 -0.4200 -1.5369  0.3534
  478SOL     OW11537   1.698   0.002   1.459  0.2744 -0.2357  0.8190
  478SOL    HW111538   1.616   0.041   1.417  0.9611  0.7446  0.3559
  478SOL    HW211539   1.732   0.064   1.530  1.2389 -0.0811  0.2436
  479SOL     OW11540   3.222   4.637   1.965  0.0716 -0.5275  0.4551
  479SOL    HW111541   3.285   4.714   1.981  1.4295 -1.5765  0.2611
  479SOL    HW211542   3.156   4.632   2.039 -0.3673  1.1626  0.1937
  480SOL     OW11543   2.924   1.384   1.299 -0.1024  0.5688  0.2075
  480SOL    HW111544   2.953   1.477   1.276 -0.3409  0.5376 -0.2334
  480SOL    HW211545   2.951   1.321   1.225 -0.1118  0.3226  0.4133
  481SOL     OW11546   2.139   7.057   0.467 -0.5794 -0.4947  0.3063
  481SOL    HW111547   2.117   6.969   0.426  0.6530 -0.3928 -0.6042
  481SOL    HW211548   2.174   7.119   0.397  1.7023 -0.3735  1.5121
  482SOL     OW11549   9.677   7.299   0.767 -0.6548 -0.2680 -0.1395
  482SOL    HW111550   9.716   7.265   0.682 -2.5290 -1.1081 -0.6830
  482SOL    HW211551   9.578   7.302   0.759 -0.6295  4.2946  0.2900
  483SOL     OW11552   9.044   3.105   1.192 -0.2724 -0.2805 -0.2678
  483SOL    HW111553   8.963   3.105   1.133 -0.7000  0.5382  0.3004
  483SOL    HW211554   9.126   3.120   1.136 -0.7980  1.7805 -0.5186
  484SOL     OW11555   4.040   2.346   2.743  0.4812  0.1083 -0.0948
  484SOL    HW111556   4.012   2.400   2.664  0.9521 -0.1452 -0.4387
  484SOL    HW211557   3.994   2.257   2.741  1.3073 -0.3149 -0.6687
  485SOL     OW11558   0.453   3.677   1.688 -0.1286  0.3992 -0.5544
  485SOL    HW111559   0.439   3.601   1.751 -1.1230 -0.0196 -1.2707
  485SOL    HW211560   0.478   3.759   1.740 -0.2046 -0.1258  0.3167
  486SOL     OW11561  10.125   6.391   2.770 -0.1231 -0.1015 -0.1092
  486SOL    HW111562  10.216   6.358   2.745  0.1170 -0.6407  1.4498
  486SOL    HW211563  10.121   6.490   2.756  0.1449 -0.3227 -1.8289
  487SOL     OW11564  10.153   3.287   1.298  0.4178  0.3421 -0.1807
  487SOL    HW111565  10.070   3.302   1.351 -0.1158 -0.5014 -0.7650
  487SOL    HW211566  10.150   3.344   1.216  1.0412  1.3120  0.4511
  488SOL     OW11567   0.628   3.455   0.753  0.2044 -0.0789  0.2748
  488SOL    HW111568   0.697   3.523   0.728  1.7439 -1.5372  0.4870
  488SOL    HW211569   0.563   3.496   0.817  0.4800  1.4984 -0.4269
  489SOL     OW11570   8.789   3.682   1.871 -0.6683 -0.3887 -0.2731
  489SOL    HW111571   8.817   3.761   1.815 -0.7703  1.0990  1.7093
  489SOL    HW211572   8.867   3.652   1.927 -1.5483  0.5284  1.5048
  490SOL     OW11573   0.388   0.602   1.984 -0.3851 -0.3421 -0.5623
  490SOL    HW111574   0.415   0.607   1.887  0.3321 -0.0042 -0.3532
  490SOL    HW211575   0.355   0.510   2.005  0.6923 -0.8059 -0.8216
  491SOL     OW11576   3.316   4.296   0.076  0.0986 -0.3011 -0.0151
  491SOL    HW111577   3.247   4.247   0.022  0.5839 -0.5275 -0.4301
  491SOL    HW211578   3.278   4.317   0.166 -1.0506  0.8902 -0.7464
  492SOL     OW11579   2.700   1.817   2.088  0.3469 -0.1359 -0.4123
  492SOL    HW111580   2.721   1.825   1.990 -1.7128 -0.4723 -0.8852
  492SOL    HW211581   2.606   1.846   2.104  0.8468  0.4388  1.5677
  493SOL     OW11582   1.672   9.375   0.686  0.0651 -0.3976 -0.0227
  493SOL    HW111583   1.764   9.391   0.652  0.9114 -0.5624  2.0802
  493SOL    HW211584   1.638   9.287   0.655  1.3056 -1.0967  0.6012
  494SOL     OW11585   2.817   4.115   2.313 -0.9498  0.1097 -0.1159
  494SOL    HW111586   2.764   4.194   2.281  1.0514  1.4287 -0.2523
  494SOL    HW211587   2.846   4.129   2.407  1.0995  0.4629 -0.7732
  495SOL     OW11588   0.933   1.640   2.285  0.2365 -0.4523 -0.5296
  495SOL    HW111589   0.878   1.558   2.271  1.0717 -0.9596 -0.8908
  495SOL    HW211590   1.007   1.643   2.217 -0.0265  0.8045 -0.7771
  496SOL     OW11591   1.869   5.314   1.106  0.0534  0.0958 -0.4760
  496SOL    HW111592   1.794   5.344   1.164 -0.3916  0.1788 -1.0820
  496SOL    HW211593   1.865   5.362   1.018  1.6583  1.1430  0.0141
  497SOL     OW11594   9.085   3.967   2.663  0.8834 -0.2943  0.5485
  497SOL    HW111595   9.011   3.922   2.612  0.4432  1.6990 -0.6598
  497SOL    HW211596   9.168   3.968   2.607  0.9889  0.0571  0.7097
  498SOL     OW11597   1.666   6.642   2.479 -0.8455 -0.3245  0.1423
  498SOL    HW111598   1.748   6.588   2.496 -1.3266 -1.1844 -0.2545
  498SOL    HW211599   1.593   6.614   2.542 -1.1213 -0.1957 -0.1153
  499SOL     OW11600   1.710   0.243   2.404  0.1405  0.0895 -0.4463
  499SOL    HW111601   1.734   0.208   2.495 -0.1700  0.9483 -0.0354
  499SOL    HW211602   1.686   0.166   2.345  1.9617 -0.6310 -0.2866
  500SOL     OW11603   1.544   0.978   2.835 -0.2213 -0.1980  0.3366
  500SOL    HW111604   1.512   0.903   2.892 -0.5583  0.3786  0.9227
  500SOL    HW211605   1.621   1.023   2.881  0.0936 -0.2963 -0.0934
  501SOL     OW11606   9.924   2.222   1.510  0.1726  0.0009  0.1530
  501SOL    HW111607   9.922   2.304   1.566  3.4742 -0.5729  1.1984
  501SOL    HW211608   9.885   2.242   1.420  0.8491  2.6636  0.4320
  502SOL     OW11609   0.356   2.347   2.315 -0.5967  0.4136 -0.2755
  502SOL    HW111610   0.277   2.311   2.365 -0.7991  1.2960  0.0327
  502SOL    HW211611   0.433   2.359   2.379  0.1226 -1.4158 -0.7570
  503SOL     OW11612   1.350   1.408   0.842  0.5879  0.5165  0.7918
  503SOL    HW111613   1.394   1.400   0.931  0.9582  0.4014  0.6009
  503SOL    HW211614   1.316   1.318   0.814  2.0169  0.2132  0.0316
  504SOL     OW11615   4.640   1.643   0.238 -0.4434  0.1257  0.0516
  504SOL    HW111616   4.642   1.741   0.258  0.0182  0.2881 -0.7801
  504SOL    HW211617   4.553   1.620   0.194  0.1907  0.4993 -1.4245
  505SOL     OW11618   3.670   4.550   1.465 -0.6247  0.4979 -0.2205
  505SOL    HW111619   3.763   4.524   1.437 -0.5620  1.2478 -0.7315
  505SOL    HW211620   3.674   4.595   1.554 -0.7437 -1.2814  0.7061
  506SOL     OW11621   0.592   8.544   0.215 -0.5838 -0.3842  0.8263
  506SOL    HW111622   0.681   8.512   0.182 -0.3870  1.5860 -0.6255
  506SOL    HW211623   0.528   8.549   0.139 -1.0987  1.0026  1.3284
  507SOL     OW11624   9.592   7.051   1.635 -0.2212  0.2646 -0.2478
  507SOL    HW111625   9.629   6.973   1.686 -0.3823  0.3268 -0.0331
  507SOL    HW211626   9.659   7.081   1.567 -0.0860  0.0541 -0.2086
  508SOL     OW11627   9.030   3.341   1.831  0.8528  0.1207  0.4845
  508SOL    HW111628   9.031   3.433   1.869 -1.2573  0.5562 -0.4446
  508SOL    HW211629   9.018   3.274   1.905 -1.8200  0.8675  0.7780
  509SOL     OW11630   0.588   3.953   0.373 -0.1614  0.0758  0.4732
  509SOL    HW111631   0.506   4.006   0.354  0.4418  0.3783 -1.3961
  509SOL    HW211632   0.563   3.868   0.420 -1.3738  0.8366  1.2317
  510SOL     OW11633   2.179   4.241   1.618  0.0696 -0.0974  0.0325
  510SOL    HW111634   2.098   4.253   1.560  0.4087  0.3179 -0.3604
  510SOL    HW211635   2.197   4.325   1.669 -0.3331 -0.5219  0.8842
  511SOL     OW11636   0.356   3.664   1.201  0.3164  0.3102 -0.8122
  511SOL    HW111637   0.440   3.643   1.251  0.8551  1.9397 -1.0247
  511SOL    HW211638   0.283   3.683   1.266  1.0963  2.7440 -0.6102
  512SOL     OW11639   2.830   6.100   1.500  0.5001  0.3782 -0.0391
  512SOL    HW111640   2.783   6.025   1.547 -0.8584  0.6426 -0.9616
  512SOL    HW211641   2.769   6.178   1.491  1.2327  0.8615 -0.9332
  513SOL     OW11642   9.844   6.010   1.287 -0.6626  0.3561 -0.2248
  513SOL    HW111643   9.803   5.948   1.221 -0.4782  0.3420 -0.3276
  513SOL    HW211644   9.879   6.091   1.239 -1.6527  0.9269  0.0114
  514SOL     OW11645   1.022   0.515   0.892  0.2243 -0.0796 -0.1174
  514SOL    HW111646   1.038   0.604   0.934  0.4457 -0.4761  0.6330
  514SOL    HW211647   0.925   0.491   0.899 -0.0157  0.5265 -1.1664
  515SOL     OW11648   8.702   3.132   2.132  0.7760 -0.3491 -0.1957
  515SOL    HW111649   8.764   3.131   2.210 -0.0155  0.0750  0.4576
  515SOL    HW211650   8.706   3.222   2.088 -0.5441  0.2328  0.8271
  516SOL     OW11651   1.494   8.923   2.265  0.6359  0.0047 -0.0108
  516SOL    HW111652   1.394   8.928   2.269  0.6219 -0.8830  0.7112
  516SOL    HW211653   1.524   8.830   2.285  1.4196 -0.7642 -4.2995
  517SOL     OW11654   2.031   7.407   2.553  0.0624 -0.3593 -0.4028
  517SOL    HW111655   2.005   7.470   2.479  0.8018  0.3305 -0.0859
  517SOL    HW211656   2.103   7.346   2.521  1.5315  1.0154  0.2336
  518SOL     OW11657   2.180   7.568   1.100  0.1418 -0.1691 -1.0697
  518SOL    HW111658   2.189   7.648   1.040 -0.3371  2.2438  1.9396
  518SOL    HW211659   2.083   7.541   1.105  0.2165 -0.5409 -1.5565
  519SOL     OW11660   0.701   3.852   1.056  0.2961 -0.1191  0.1500
  519SOL    HW111661   0.647   3.860   1.140 -0.7764  1.4514 -0.6551
  519SOL    HW211662   0.670   3.772   1.004 -1.5639  0.9714 -0.4800
  520SOL     OW11663   4.406   5.217   0.739 -0.5124  0.4821  0.2079
  520SOL    HW111664   4.395   5.269   0.654 -1.9601 -0.7417 -0.3879
  520SOL    HW211665   4.362   5.267   0.814  0.2774  1.2962  0.1401
  521SOL     OW11666   1.074   2.467   1.583  0.2134  0.4784 -0.1362
  521SOL    HW111667   1.011   2.544   1.579  0.9546  1.0727 -0.6282
  521SOL    HW211668   1.023   2.382   1.589 -0.6338  0.9283 -0.9591
  522SOL     OW11669   2.460   8.184   0.545 -0.1644  0.3049  0.3058
  522SOL    HW111670   2.520   8.139   0.610  0.4687  0.5421 -0.1056
  522SOL    HW211671   2.365   8.155   0.560  0.2505 -1.3058 -0.0869
  523SOL     OW11672   1.808   4.985   0.730 -0.3611  0.0892  0.1965
  523SOL    HW111673   1.788   4.912   0.665 -2.5460  0.3956  0.4807
  523SOL    HW211674   1.824   4.946   0.821 -0.8414 -0.1088  0.2009
  524SOL     OW11675   3.558   2.735   1.808  0.0653 -0.2986 -0.3000
  524SOL    HW111676   3.632   2.674   1.779 -1.5810 -2.1793 -0.6682
  524SOL    HW211677   3.486   2.734   1.738 -0.9340  0.3902  0.7168
  525SOL     OW11678   3.207   3.087   2.553 -0.2717 -0.1269 -0.3260
  525SOL    HW111679   3.130   3.110   2.612 -0.2494 -1.0033  0.0572
  525SOL    HW211680   3.175   3.074   2.459 -0.2138  1.8854 -0.6553
  526SOL     OW11681   0.994   2.100   2.083 -0.1511 -0.4765  0.3642
  526SOL    HW111682   0.988   2.010   2.039 -0.1291 -0.5709  0.5550
  526SOL    HW211683   0.906   2.122   2.125 -0.8431  0.5386 -1.5304
  527SOL     OW11684   0.509   8.235   1.812 -0.3750  0.0360  0.4834
  527SOL    HW111685   0.594   8.280   1.786 -0.5920  0.1556 -0.0228
  527SOL    HW211686   0.458   8.209   1.729 -0.1868 -1.2580  0.7607
  528SOL     OW11687   2.684   4.148   1.874  0.0860  0.0550 -0.1905
  528SOL    HW111688   2.642   4.101   1.797 -0.9892 -1.5522  1.3557
  528SOL    HW211689   2.756   4.091   1.914 -0.9374 -0.1481  1.4268
  529SOL     OW11690   2.653   8.995   2.000 -0.0394  0.1326 -0.1148
  529SOL    HW111691   2.585   9.051   2.049 -0.5949  0.3083 -1.0797
  529SOL    HW211692   2.612   8.907   1.976  0.8238 -0.6874  1.3711
  530SOL     OW11693   4.589   1.911   0.297 -0.0647  0.0621  0.4769
  530SOL    HW111694   4.671   1.966   0.288  1.0986 -1.7880 -0.4781
  530SOL    HW211695   4.519   1.944   0.233  0.7638  0.1394 -0.3862
  531SOL     OW11696   9.865   8.219   2.576 -0.0269 -0.1899  0.5839
  531SOL    HW111697   9.841   8.122   2.574 -1.0767  0.0704 -1.4673
  531SOL    HW211698   9.782   8.274   2.566  0.8028  0.8600 -0.6607
  532SOL     OW11699  10.145   9.579   2.837 -0.6561 -0.0707 -0.0792
  532SOL    HW111700  10.165   9.491   2.794  1.4122  0.3150  0.0496
  532SOL    HW211701  10.126   9.565   2.934 -1.1902 -0.4733 -0.2404
  533SOL     OW11702   3.773   0.155   1.834 -0.4032 -0.6533  0.6951
  533SOL    HW111703   3.724   0.191   1.913 -2.0479 -0.3475 -0.4371
  533SOL    HW211704   3.832   0.226   1.796  0.9957 -1.0365  2.0855
  534SOL     OW11705   1.463   3.474   2.097  0.2731 -0.2472 -0.2583
  534SOL    HW111706   1.403   3.482   2.177 -1.0458  0.4473 -1.3055
  534SOL    HW211707   1.558   3.465   2.128 -0.3781 -1.5630  1.4101
  535SOL     OW11708   2.590   4.400   1.902 -0.3347 -0.1737 -0.8620
  535SOL    HW111709   2.649   4.471   1.862  1.1353 -0.9643 -0.1511
  535SOL    HW211710   2.644   4.316   1.915 -1.3963 -0.6363  0.6427
  536SOL     OW11711   3.007   2.907   1.316  1.1134 -0.6280 -0.4259
  536SOL    HW111712   3.101   2.874   1.321  1.2810  0.0202  1.1458
  536SOL    HW211713   2.948   2.849   1.372  0.8240 -0.2506 -0.3382
  537SOL     OW11714   9.517   7.463   1.275 -0.4036  0.7743 -0.1502
  537SOL    HW111715   9.515   7.392   1.204  1.9261  1.2917 -0.7702
  537SOL    HW211716   9.481   7.549   1.237 -1.4642  0.4191  0.0417
  538SOL     OW11717   9.949   7.693   1.426  0.4249  0.1272 -0.4022
  538SOL    HW111718   9.994   7.730   1.507  0.5252 -1.6577  0.3880
  538SOL    HW211719   9.862   7.651   1.452 -0.4193  1.1475 -1.5137
  539SOL     OW11720   2.503   8.175   2.358 -0.6025  0.9107  0.1989
  539SOL    HW111721   2.464   8.151   2.447 -1.2813  0.1142 -0.3038
  539SOL    HW211722   2.451   8.250   2.317 -0.5597  0.9822  0.2773
  540SOL     OW11723   9.985   6.993   0.350 -0.3198 -0.0284  0.3295
  540SOL    HW111724   9.921   6.933   0.302  1.0230 -1.6152  0.4614
  540SOL    HW211725   9.980   6.974   0.448  1.2178 -1.0500  0.2267
  541SOL     OW11726   9.704   9.724   0.207 -0.3135 -0.0846 -0.0894
  541SOL    HW111727   9.662   9.814   0.190 -0.4033  0.2186  1.6383
  541SOL    HW211728   9.728   9.682   0.120 -1.0718  1.2410 -0.9639
  542SOL     OW11729   3.742   1.806   1.612  0.3313 -0.1294 -0.0696
  542SOL    HW111730   3.756   1.718   1.566 -0.2915  0.4568 -1.4037
  542SOL    HW211731   3.755   1.794   1.710  1.0367 -1.5433 -0.3196
  543SOL     OW11732   1.018   3.392   2.781  0.0139 -0.2246 -0.1082
  543SOL    HW111733   0.998   3.294   2.776 -0.5164 -0.1172 -0.1270
  543SOL    HW211734   0.937   3.444   2.754 -0.4823  0.2621  2.2259
  544SOL     OW11735   3.469   5.625   2.010 -0.1881 -0.6467  0.2879
  544SOL    HW111736   3.375   5.603   2.036 -2.1219  2.9088 -3.1350
  544SOL    HW211737   3.501   5.561   1.940 -0.6044 -1.0147  0.4367
  545SOL     OW11738   4.261   1.137   2.757  0.2897 -0.2543  0.2729
  545SOL    HW111739   4.348   1.146   2.709  1.5348  0.5321  2.6200
  545SOL    HW211740   4.241   1.040   2.771  0.7126 -0.4426 -0.3957
  546SOL     OW11741   3.864   9.470   2.249 -0.1902  0.1984  0.6554
  546SOL    HW111742   3.906   9.484   2.160 -0.4127 -0.2984  0.4708
  546SOL    HW211743   3.936   9.454   2.317 -0.0556 -0.3408  0.3935
  547SOL     OW11744   2.532   9.440   1.983 -0.4873 -0.3120 -0.7537
  547SOL    HW111745   2.483   9.362   1.944 -0.9497 -1.0445  1.2558
  547SOL    HW211746   2.467   9.507   2.018 -0.0849  0.7374 -1.9613
  548SOL     OW11747   3.774   0.202   2.385  0.5942  0.2721 -0.3838
  548SOL    HW111748   3.829   0.119   2.379  0.7221  0.0497  3.0094
  548SOL    HW211749   3.718   0.199   2.468  0.9659  3.7746  0.0675
  549SOL     OW11750   4.270   2.664   1.695 -0.0406 -0.6461  0.0980
  549SOL    HW111751   4.286   2.624   1.604  0.8191 -1.1442  0.4651
  549SOL    HW211752   4.228   2.754   1.684 -1.2346 -1.2906 -0.7628
  550SOL     OW11753   1.457   1.040   0.842  0.6082 -0.5867  0.3330
  550SOL    HW111754   1.368   1.072   0.809  1.2598  2.0983  1.0322
  550SOL    HW211755   1.449   1.016   0.939  0.5759 -0.6712  0.3098
  551SOL     OW11756   0.914   5.704   0.852 -0.5238  0.7419 -0.1536
  551SOL    HW111757   0.840   5.743   0.797 -1.3808 -2.1226 -1.1136
  551SOL    HW211758   0.907   5.739   0.945 -1.5369  2.4859 -0.8481
  552SOL     OW11759   1.017   5.255   1.479 -0.2588  0.0551  0.6252
  552SOL    HW111760   0.949   5.303   1.424  1.8093  2.7774  0.3837
  552SOL    HW211761   1.009   5.283   1.575  0.0294 -0.2286  0.7345
  553SOL     OW11762   1.756   6.995   0.762  0.1977  0.3114 -0.1858
  553SOL    HW111763   1.671   7.031   0.723 -0.6565  0.3585  1.6666
  553SOL    HW211764   1.831   7.057   0.740 -0.5696  1.2211 -0.3021
  554SOL     OW11765   2.349   6.331   1.274 -0.0254  0.3417 -0.1231
  554SOL    HW111766   2.373   6.261   1.208 -2.2617  0.1484 -0.7832
  554SOL    HW211767   2.345   6.420   1.229  1.6413  0.7274  0.4614
  555SOL     OW11768   9.703   2.914   2.380 -0.0575 -0.4212 -0.3350
  555SOL    HW111769   9.729   2.846   2.313 -0.8492 -0.1900 -0.8916
  555SOL    HW211770   9.634   2.975   2.341  0.7323  0.7783  0.1060
  556SOL     OW11771   9.668   8.332   1.878  0.0457 -0.0545 -0.1714
  556SOL    HW111772   9.694   8.381   1.795 -0.2631  0.0211 -0.2258
  556SOL    HW211773   9.750   8.301   1.926  0.2867  1.5567  0.4812
  557SOL     OW11774   0.503   0.616   1.701  0.3038  0.2375 -0.1966
  557SOL    HW111775   0.594   0.576   1.712 -0.6983 -1.9533  0.2977
  557SOL    HW211776   0.505   0.681   1.625  2.4307  0.7281  0.2312
  558SOL     OW11777   9.346   6.235   0.947 -0.1272 -0.2674  0.6351
  558SOL    HW111778   9.412   6.172   0.987  0.3650  0.3456  0.7986
  558SOL    HW211779   9.268   6.245   1.009 -1.1888 -2.3178 -0.3427
  559SOL     OW11780   0.805   2.138   0.924  0.4829 -0.1220 -0.0627
  559SOL    HW111781   0.836   2.231   0.945  1.2107 -0.2885 -0.3590
  559SOL    HW211782   0.764   2.136   0.833 -0.9789  0.2229  0.5734
  560SOL     OW11783   2.644   4.143   1.305 -0.1843  0.6141  0.0412
  560SOL    HW111784   2.645   4.150   1.404  0.4877 -0.8249  0.1443
  560SOL    HW211785   2.728   4.098   1.273 -1.5965 -1.3998 -0.9532
  561SOL     OW11786   1.192   1.905   1.039 -0.4859  0.2440  0.4166
  561SOL    HW111787   1.280   1.873   1.002 -1.2465  0.5140 -1.7252
  561SOL    HW211788   1.197   1.908   1.138  1.3690 -1.3620  0.4081
  562SOL     OW11789   0.720   8.823   0.143 -0.2887 -0.0200 -0.0849
  562SOL    HW111790   0.747   8.761   0.070 -0.0919  0.7707 -0.6856
  562SOL    HW211791   0.787   8.818   0.217 -0.4254 -0.7339 -0.0120
  563SOL     OW11792   0.834   6.990   0.468  0.6960 -0.4524  0.4737
  563SOL    HW111793   0.800   6.895   0.469 -0.5508 -0.0812 -2.2704
  563SOL    HW211794   0.933   6.990   0.454  0.9883 -1.3828  2.3952
  564SOL     OW11795   1.662   2.950   2.825 -0.0590 -0.0418  0.3932
  564SOL    HW111796   1.664   2.866   2.771  3.6274 -0.5604  1.2154
  564SOL    HW211797   1.637   2.929   2.919 -1.2858  0.1077  0.1047
  565SOL     OW11798   3.233   9.793   1.469 -0.0257 -0.0852 -0.1520
  565SOL    HW111799   3.198   9.873   1.517  0.8930  1.3136 -1.7468
  565SOL    HW211800   3.230   9.809   1.370 -0.0423 -2.1088 -0.5048
  566SOL     OW11801   3.663   5.187   1.459 -0.0464 -0.1916 -0.0059
  566SOL    HW111802   3.657   5.270   1.516  1.8635 -1.2350  1.7945
  566SOL    HW211803   3.581   5.132   1.472  0.3237 -0.3865  1.7719
  567SOL     OW11804   8.756   6.496   0.851 -0.2864  0.2453  0.2708
  567SOL    HW111805   8.805   6.408   0.856 -0.3644  0.1925  0.1084
  567SOL    HW211806   8.756   6.528   0.756 -1.7315 -0.4167  0.0303
  568SOL     OW11807   4.415   8.935   0.707  0.1916  0.2032  0.3278
  568SOL    HW111808   4.501   8.893   0.678 -1.0868 -1.0956 -1.7501
  568SOL    HW211809   4.366   8.872   0.767  0.4938  0.7700  1.1714
  569SOL     OW11810   3.189   7.081   0.454 -0.3356  0.0822 -0.7328
  569SOL    HW111811   3.166   6.985   0.469 -0.1753  0.2344  0.5774
  569SOL    HW211812   3.275   7.087   0.404 -1.0024 -0.4586 -1.9703
  570SOL     OW11813   4.077   3.638   0.116 -0.3899  0.0769 -0.6231
  570SOL    HW111814   4.162   3.630   0.064  0.5284 -3.0258  1.1885
  570SOL    HW211815   4.009   3.574   0.079 -1.8330  2.2422 -1.8013
  571SOL     OW11816   0.443   6.179   0.729 -0.4041  0.1722  0.1771
  571SOL    HW111817   0.415   6.095   0.682 -0.8516  0.1234  0.5262
  571SOL    HW211818   0.517   6.223   0.678 -0.8114  0.0590 -0.5072
  572SOL     OW11819   3.040   9.243   0.663 -0.1665  0.3413  0.2422
  572SOL    HW111820   3.060   9.186   0.583  0.9532  1.8005 -0.5445
  572SOL    HW211821   2.955   9.293   0.648 -0.1691  0.3022  0.1266
  573SOL     OW11822   8.897   4.550   1.334 -0.4439 -0.5234  0.1641
  573SOL    HW111823   8.887   4.470   1.275 -0.2302 -1.3333  1.2074
  573SOL    HW211824   8.883   4.523   1.430  1.6411  0.2725  0.7319
  574SOL     OW11825   0.356   9.974   2.684 -0.5976  0.3926 -0.0391
  574SOL    HW111826   0.382  10.054   2.630  1.3112 -0.3901 -0.3274
  574SOL    HW211827   0.349   9.895   2.624  0.8095 -0.3288  0.7287
  575SOL     OW11828   2.165   8.462   0.314  0.0852  0.0986 -0.4712
  575SOL    HW111829   2.139   8.516   0.394  1.2343 -0.3799  0.2307
  575SOL    HW211830   2.115   8.375   0.315  3.3942 -1.8754  2.1767
  576SOL     OW11831   1.396   3.172   1.396  0.4277  0.0558  0.8472
  576SOL    HW111832   1.373   3.075   1.389  0.8733 -0.0447  0.7813
  576SOL    HW211833   1.486   3.182   1.439  1.6774  0.3259 -1.7424
  577SOL     OW11834   1.887   4.467   0.699 -0.6226  0.0431  0.4163
  577SOL    HW111835   1.881   4.515   0.611  2.9692 -0.0715  0.0185
  577SOL    HW211836   1.806   4.409   0.711 -1.2622  0.1777 -2.7770
  578SOL     OW11837   2.325   8.383   2.322 -0.1942  0.4833  0.3370
  578SOL    HW111838   2.329   8.453   2.251 -1.8091  0.6427  0.3807
  578SOL    HW211839   2.293   8.425   2.407  0.0282 -0.0689  0.6943
  579SOL     OW11840  10.179   2.188   1.585  0.0543 -0.0533 -0.8002
  579SOL    HW111841  10.084   2.170   1.558  0.6364 -1.5604 -1.9078
  579SOL    HW211842  10.191   2.162   1.681 -0.6226  0.0555 -0.6802
  580SOL     OW11843   4.036   1.656   2.717  0.3334  0.7258  0.6248
  580SOL    HW111844   4.116   1.610   2.678 -0.0016  0.0479  0.7445
  580SOL    HW211845   4.029   1.634   2.814 -1.9073 -1.9504 -0.0897
  581SOL     OW11846   3.682   2.970   1.751 -0.0278  0.3750 -0.3257
  581SOL    HW111847   3.762   3.016   1.789  1.3882 -0.8098 -1.8038
  581SOL    HW211848   3.664   2.886   1.802 -1.0695  1.2233  0.7469
  582SOL     OW11849   0.632   9.768   1.672  0.1859 -0.2138 -0.3834
  582SOL    HW111850   0.621   9.696   1.741  0.9445  1.1402  1.1920
  582SOL    HW211851   0.542   9.789   1.632 -0.1986 -1.3058 -0.1212
  583SOL     OW11852   0.822   6.060   2.011  0.4344  0.3212 -0.5588
  583SOL    HW111853   0.765   5.998   2.066 -1.2171 -1.0112 -3.6426
  583SOL    HW211854   0.781   6.152   2.013  1.7619  0.9033  2.3675
  584SOL     OW11855   0.654   1.703   2.534 -0.0877 -0.0131  0.4795
  584SOL    HW111856   0.737   1.650   2.552 -1.5000 -1.8131  1.8471
  584SOL    HW211857   0.646   1.720   2.436  2.5678  1.3255  0.4516
  585SOL     OW11858  10.247   5.479   2.800 -0.3398  0.0326  0.2492
  585SOL    HW111859  10.253   5.552   2.867 -1.5882  0.2126  0.1721
  585SOL    HW211860  10.316   5.409   2.820 -1.1548 -0.2573  2.1410
  586SOL     OW11861   9.636   9.718   1.874 -0.0959 -0.0427  0.2001
  586SOL    HW111862   9.648   9.640   1.935  1.2869  0.9701  1.2450
  586SOL    HW211863   9.634   9.686   1.779  1.3806 -1.2625  0.5575
  587SOL     OW11864   2.983   5.942   0.457 -0.1338 -0.3766  0.1380
  587SOL    HW111865   3.052   5.927   0.385 -0.5100 -2.5250  0.1919
  587SOL    HW211866   2.967   6.040   0.468  1.2283  0.0496 -1.4840
  588SOL     OW11867   1.889   2.023   2.543 -0.1911 -0.0933  0.2479
  588SOL    HW111868   1.908   2.108   2.593  1.1963 -0.3524  0.1946
  588SOL    HW211869   1.887   1.946   2.608  0.6061 -0.2887  0.0560
  589SOL     OW11870   2.062   6.477   0.172  0.1307  0.8181 -0.8090
  589SOL    HW111871   2.120   6.524   0.106 -0.6258  0.6323 -1.6131
  589SOL    HW211872   1.966   6.499   0.153 -0.1451 -0.0086 -0.3772
  590SOL     OW11873   9.574   4.493   2.777 -0.0434  0.1723 -0.4414
  590SOL    HW111874   9.551   4.573   2.832 -1.7956 -1.1552  0.8232
  590SOL    HW211875   9.495   4.467   2.721  0.3102 -0.9938 -0.4170
  591SOL     OW11876   1.424   5.823   0.094 -0.3266 -0.4918 -0.3991
  591SOL    HW111877   1.368   5.757   0.144 -0.3909  1.2345  1.8581
  591SOL    HW211878   1.520   5.802   0.107 -0.3522 -0.2960  0.1180
  592SOL     OW11879   3.426   1.622   1.842 -0.0514  0.1306 -0.5199
  592SOL    HW111880   3.454   1.555   1.911 -0.5328  0.1200 -0.3276
  592SOL    HW211881   3.363   1.579   1.777 -0.1243  0.3150 -0.5725
  593SOL     OW11882   1.199   0.593   1.367  0.2199  0.1464 -0.5479
  593SOL    HW111883   1.163   0.528   1.433 -0.5863  0.4022 -0.7211
  593SOL    HW211884   1.177   0.686   1.397  1.3789  0.3394 -0.2911
  594SOL     OW11885   1.546   5.831   0.864  0.0744 -0.3301 -0.3308
  594SOL    HW111886   1.479   5.878   0.806  0.3274 -0.4979 -0.7607
  594SOL    HW211887   1.504   5.751   0.905 -1.1298  1.6137  2.4008
  595SOL     OW11888   9.303   8.806   1.948 -0.0083 -0.2191 -0.0106
  595SOL    HW111889   9.214   8.850   1.941 -0.4738 -1.1132  0.1617
  595SOL    HW211890   9.308   8.752   2.033  0.6749 -0.2132 -0.0398
  596SOL     OW11891  10.056   0.626   2.675  0.2739  0.0916  0.0982
  596SOL    HW111892  10.068   0.556   2.744  2.0348 -1.1658 -1.4201
  596SOL    HW211893  10.013   0.586   2.594  0.9682  0.8120 -0.6454
  597SOL     OW11894   0.726   6.630   1.474 -0.4817  0.0943  0.2679
  597SOL    HW111895   0.741   6.668   1.383  1.2039 -3.0919 -0.8796
  597SOL    HW211896   0.793   6.667   1.537 -1.1664  1.7362  0.0513
  598SOL     OW11897   4.250   5.120   2.763  0.2455 -0.1819  0.4145
  598SOL    HW111898   4.188   5.046   2.737 -0.6522  0.6027  0.2482
  598SOL    HW211899   4.199   5.207   2.764  1.7706  0.7811 -1.6171
  599SOL     OW11900   3.335   2.577   0.827  0.2289 -0.1841 -0.4716
  599SOL    HW111901   3.353   2.479   0.831 -2.3052 -0.6294  0.8666
  599SOL    HW211902   3.281   2.597   0.745 -1.3502 -0.3108  0.5072
  600SOL     OW11903   2.097   1.206   1.105  0.8671 -0.3793  0.3823
  600SOL    HW111904   2.051   1.138   1.162  0.9268  0.8785  1.9595
  600SOL    HW211905   2.179   1.239   1.151  1.6539 -0.3088 -1.0288
  601SOL     OW11906   5.054   3.076   1.048  0.2619 -0.3607 -0.0915
  601SOL    HW111907   4.971   3.081   0.992  0.6847  0.9976 -0.6152
  601SOL    HW211908   5.127   3.128   1.004  0.4297  1.2348  1.9953
  602SOL     OW11909   1.608   6.235   2.242 -0.1983  0.8459  0.2777
  602SOL    HW111910   1.549   6.226   2.322  0.9230 -0.2377  0.9895
  602SOL    HW211911   1.580   6.316   2.190 -1.8358  0.7753  0.9904
  603SOL     OW11912   4.387   2.111   2.187 -0.6883 -0.3487 -0.0771
  603SOL    HW111913   4.458   2.117   2.117  0.8088 -3.3638  1.0908
  603SOL    HW211914   4.423   2.143   2.275 -1.4455  0.0819  0.0825
  604SOL     OW11915   3.234   2.535   2.205 -0.0330 -0.0685  0.0344
  604SOL    HW111916   3.247   2.530   2.106  0.0026 -0.7657  0.0702
  604SOL    HW211917   3.140   2.562   2.225 -0.0873 -0.0853 -0.1941
  605SOL     OW11918   3.949   4.687   0.522 -0.0211 -0.4533 -0.0160
  605SOL    HW111919   3.943   4.765   0.585 -2.7514  0.1496 -0.9560
  605SOL    HW211920   4.026   4.700   0.460 -0.6794  1.7208 -0.4225
  606SOL     OW11921   3.668   5.824   1.555  0.5210  0.5513 -0.4375
  606SOL    HW111922   3.762   5.789   1.549 -0.1590 -1.2809 -0.7507
  606SOL    HW211923   3.638   5.820   1.651  0.5885  0.6600 -0.4117
  607SOL     OW11924   3.674   1.399   0.651 -0.0240 -0.4035 -0.1692
  607SOL    HW111925   3.711   1.465   0.716  2.6466 -1.4930 -0.5194
  607SOL    HW211926   3.677   1.437   0.559 -1.8500  0.3208  0.0344
  608SOL     OW11927   0.365   2.220   0.365  0.3698 -0.2886 -0.1045
  608SOL    HW111928   0.325   2.183   0.281 -0.3584  0.3172 -0.0269
  608SOL    HW211929   0.308   2.194   0.443  0.3467  0.2358  0.0547
  609SOL     OW11930   9.370   6.373   2.633 -0.0799  0.2350 -0.6330
  609SOL    HW111931   9.316   6.291   2.613 -1.7623  0.8244  1.2981
  609SOL    HW211932   9.464   6.360   2.602 -0.1686 -2.6963  0.1940
  610SOL     OW11933   2.891   6.012   1.033  0.5099  0.3716  0.4152
  610SOL    HW111934   2.898   6.101   1.079  1.4648  0.8692 -0.6518
  610SOL    HW211935   2.902   6.025   0.934  0.7573 -0.9415  0.2633
  611SOL     OW11936   1.935   7.593   1.351 -0.3763 -0.0599 -0.2580
  611SOL    HW111937   1.924   7.540   1.435  0.2557  0.5289  0.1993
  611SOL    HW211938   1.847   7.635   1.328 -0.1188  1.2663  1.1195
  612SOL     OW11939   9.283   5.171   2.020 -0.0123 -0.3302  0.2603
  612SOL    HW111940   9.232   5.257   2.030  1.0593  0.5565 -1.6577
  612SOL    HW211941   9.219   5.094   2.021 -1.2345  0.6520 -0.4547
  613SOL     OW11942   9.444   6.515   0.621  0.0564 -0.4633  0.2818
  613SOL    HW111943   9.349   6.542   0.636  0.9511  1.9757  1.7680
  613SOL    HW211944   9.454   6.417   0.642 -2.2266 -0.9006 -0.4863
  614SOL     OW11945   0.443   0.293   0.604  0.0400  0.3463  0.1691
  614SOL    HW111946   0.482   0.205   0.630  0.5420 -0.1870 -2.2761
  614SOL    HW211947   0.356   0.306   0.651  0.3130 -1.1292  1.1070
  615SOL     OW11948   2.192   2.908   0.654 -0.3482  0.3368  0.2326
  615SOL    HW111949   2.188   3.008   0.651 -1.4373  0.3516  1.6926
  615SOL    HW211950   2.287   2.878   0.655 -0.0085  1.4397  2.5126
  616SOL     OW11951   9.202   6.607   2.508 -0.4666 -0.2975 -0.3926
  616SOL    HW111952   9.160   6.659   2.583  0.3485  1.0853 -0.8834
  616SOL    HW211953   9.268   6.543   2.546 -0.0501  0.4061  0.0760
  617SOL     OW11954  10.096   8.601   0.257 -0.5016 -0.2976  0.2225
  617SOL    HW111955  10.150   8.630   0.179 -1.8601 -0.5523 -0.8327
  617SOL    HW211956  10.002   8.636   0.248 -0.5903 -0.0629  1.8941
  618SOL     OW11957   3.579   2.485   0.977  0.1045 -0.2981 -0.5073
  618SOL    HW111958   3.518   2.461   1.053  0.7387  0.6220  0.3086
  618SOL    HW211959   3.588   2.584   0.972  0.6869 -0.3888 -1.3014
  619SOL     OW11960   1.416   9.807   1.902  0.1284  0.0621  0.4674
  619SOL    HW111961   1.458   9.808   1.811 -0.7704 -0.4993  0.0476
  619SOL    HW211962   1.345   9.876   1.907 -0.7317 -0.7998  0.3083
  620SOL     OW11963   3.021   8.485   2.566 -0.2653 -0.1521 -0.5458
  620SOL    HW111964   2.975   8.397   2.570 -1.5835  0.5770  0.3252
  620SOL    HW211965   2.960   8.557   2.598  1.0988  0.9710 -0.4185
  621SOL     OW11966  10.080   0.434   0.486 -0.2444 -0.5318  0.0927
  621SOL    HW111967   9.990   0.470   0.509 -1.4658 -2.6572 -1.1570
  621SOL    HW211968  10.135   0.504   0.441 -2.4004 -0.0891 -1.9270
  622SOL     OW11969   1.744   0.497   1.451  0.4401 -0.1128  0.2136
  622SOL    HW111970   1.778   0.585   1.482  0.6402  0.0242 -0.3977
  622SOL    HW211971   1.670   0.510   1.386 -1.4596 -0.4134  2.2644
  623SOL     OW11972   2.746   8.296   2.406 -0.1135  0.1098  0.0406
  623SOL    HW111973   2.830   8.257   2.445 -0.1081  0.4395  0.3612
  623SOL    HW211974   2.676   8.225   2.400 -0.1166  0.0596  0.6612
  624SOL     OW11975   3.242   9.990   0.488  0.0519 -0.3575  0.5905
  624SOL    HW111976   3.328   9.940   0.479  1.2088  1.9254 -1.6799
  624SOL    HW211977   3.260  10.080   0.528 -1.5294 -0.4865  1.6393
  625SOL     OW11978   2.221   9.059   0.176 -0.3103  0.3808  0.5916
  625SOL    HW111979   2.221   9.145   0.126  0.2745  1.5066  2.4637
  625SOL    HW211980   2.307   9.011   0.160 -0.2327  0.6177  0.2967
  626SOL     OW11981   9.287   4.251   0.723 -0.2043  0.0456  0.5741
  626SOL    HW111982   9.236   4.181   0.673  0.6963 -1.7419  2.1294
  626SOL    HW211983   9.382   4.222   0.734 -0.6559 -0.2012  4.3902
  627SOL     OW11984   9.678   8.859   1.019  0.2152  0.0955  0.0368
  627SOL    HW111985   9.616   8.937   1.006  0.0327 -0.2290 -1.1519
  627SOL    HW211986   9.662   8.792   0.946 -1.2982 -2.1949  2.4048
  628SOL     OW11987  10.123   6.659   2.728  0.0147  0.2624 -0.0807
  628SOL    HW111988  10.141   6.688   2.822  0.0057  1.7083 -0.5240
  628SOL    HW211989  10.103   6.738   2.671  2.9121 -0.2645 -1.9481
  629SOL     OW11990   3.034   7.721   0.876  0.1943  0.9891 -0.5425
  629SOL    HW111991   2.989   7.633   0.859  0.3886  0.6053  0.9423
  629SOL    HW211992   3.042   7.771   0.789  0.6331 -0.7050 -1.5018
  630SOL     OW11993   2.151   6.534   2.685  0.2440  0.2093 -0.1047
  630SOL    HW111994   2.242   6.524   2.645  0.0536  0.4656 -0.6082
  630SOL    HW211995   2.094   6.457   2.656  0.8077 -0.9002  1.6384
  631SOL     OW11996   0.586   0.318   0.179 -0.2300  0.4908  0.5803
  631SOL    HW111997   0.638   0.313   0.264 -1.6084 -1.3422  1.3522
  631SOL    HW211998   0.590   0.228   0.134  1.9169  1.8845 -2.1809
  632SOL     OW11999   2.885   6.500   0.972  0.4274 -0.0530 -0.5455
  632SOL    HW112000   2.794   6.497   1.013 -0.4948  1.3489 -2.4337
  632SOL    HW212001   2.934   6.580   1.008 -0.1477  0.8129 -1.6557
  633SOL     OW12002   2.355   7.852   1.360  0.0948  0.6365  0.2233
  633SOL    HW112003   2.309   7.768   1.389  1.1117 -0.0257 -0.0691
  633SOL    HW212004   2.290   7.911   1.312 -0.8138  0.3664  1.1181
  634SOL     OW12005   2.947   9.925   1.170  0.1180  0.1457 -0.2712
  634SOL    HW112006   2.916   9.968   1.085 -1.2123  0.6718  0.4546
  634SOL    HW212007   2.972   9.996   1.236 -1.3221 -0.1876  0.6564
  635SOL     OW12008   2.565   3.176   1.195 -0.2049  0.2853  0.2387
  635SOL    HW112009   2.618   3.256   1.221 -1.3054  0.1373  3.1470
  635SOL    HW212010   2.625   3.096   1.187  0.5702  0.9410 -0.4701
  636SOL     OW12011   9.317   7.155   2.326  0.6094  0.2516 -0.7285
  636SOL    HW112012   9.267   7.224   2.377 -0.3106 -0.6410 -0.4005
  636SOL    HW212013   9.343   7.080   2.387  0.4805 -0.3010 -1.3404
  637SOL     OW12014   1.167   7.978   1.022  0.1800  0.5507 -0.4644
  637SOL    HW112015   1.257   8.005   1.055  0.3579  0.5692 -0.9564
  637SOL    HW212016   1.161   7.997   0.924  0.8845 -2.5646 -1.1894
  638SOL     OW12017   2.533   2.087   0.221  0.1640  0.1015  0.2725
  638SOL    HW112018   2.605   2.151   0.247 -0.3816  0.4173  1.0492
  638SOL    HW212019   2.556   1.995   0.254  1.1968 -0.2064 -1.3034
  639SOL     OW12020   8.885   2.645   0.090  0.1925 -0.4833 -0.1441
  639SOL    HW112021   8.841   2.555   0.095  1.8680 -1.3190 -0.3606
  639SOL    HW212022   8.923   2.659  -0.002 -1.5248  1.1730 -0.6618
  640SOL     OW12023   3.687   0.738   0.120 -0.6944 -0.0311 -0.2688
  640SOL    HW112024   3.621   0.666   0.097 -1.0062  0.3465 -0.5666
  640SOL    HW212025   3.651   0.826   0.091 -1.0497  0.4552  1.5531
  641SOL     OW12026   1.328   0.698   0.966  0.9656 -0.7349 -0.4028
  641SOL    HW112027   1.321   0.658   0.875  4.2558 -1.9546 -0.1849
  641SOL    HW212028   1.362   0.630   1.030  1.2192  0.8424  1.1739
  642SOL     OW12029   0.392   3.247   0.457 -0.0643 -0.4891 -0.0333
  642SOL    HW112030   0.306   3.267   0.505  0.7089 -1.0799  1.6195
  642SOL    HW212031   0.380   3.166   0.401 -1.0376  0.3188 -1.0262
  643SOL     OW12032   1.471   7.491   1.925 -0.0984 -0.3813 -0.3029
  643SOL    HW112033   1.435   7.583   1.913 -1.1796 -0.9539 -1.6145
  643SOL    HW212034   1.503   7.479   2.019 -0.6314  1.0943  0.0717
  644SOL     OW12035   3.022   2.283   2.751 -0.3849  0.6679 -0.7361
  644SOL    HW112036   2.965   2.360   2.778  0.4786  1.2382 -0.5158
  644SOL    HW212037   3.005   2.206   2.812 -0.3924  1.0690 -0.2286
  645SOL     OW12038   5.174   2.982   1.564 -0.8014 -0.6832 -0.1565
  645SOL    HW112039   5.161   2.934   1.651  1.3141  1.7231  1.5524
  645SOL    HW212040   5.145   3.077   1.574 -0.6015 -0.3965 -2.1220
  646SOL     OW12041   1.534   2.898   1.609 -0.1177 -0.1163 -0.4850
  646SOL    HW112042   1.467   2.940   1.671  0.4696 -0.5959  0.4793
  646SOL    HW212043   1.531   2.944   1.521 -0.5949  0.9180  0.0664
  647SOL     OW12044   3.417   4.094   2.475 -0.2044  0.3585 -0.1978
  647SOL    HW112045   3.502   4.103   2.526 -0.0080  1.0272 -0.6315
  647SOL    HW212046   3.436   4.061   2.383 -0.3595  0.9303 -0.4397
  648SOL     OW12047   1.653   2.768   1.236 -0.1394 -0.1470  0.3237
  648SOL    HW112048   1.583   2.736   1.300  0.1692 -0.2657  0.6011
  648SOL    HW212049   1.609   2.817   1.161 -0.3566  1.6578  1.5930
  649SOL     OW12050   2.292   0.030   1.743  0.1145 -0.6128 -0.2755
  649SOL    HW112051   2.340  -0.053   1.715 -1.6557 -1.1990 -1.6636
  649SOL    HW212052   2.214   0.005   1.800  0.1926  0.1829  0.1821
  650SOL     OW12053   1.470   9.029   1.098  0.5682 -0.2340 -0.1540
  650SOL    HW112054   1.456   9.071   1.187 -1.2245 -0.7037 -0.2135
  650SOL    HW212055   1.423   9.083   1.028  0.7453 -0.6801 -0.6204
  651SOL     OW12056   2.839   6.502   0.687 -0.0528 -0.6361  0.4012
  651SOL    HW112057   2.927   6.477   0.647  1.6561  3.5164  1.3032
  651SOL    HW212058   2.847   6.502   0.787 -0.5038  1.4411  0.4633
  652SOL     OW12059   0.644   2.752   2.727  0.3005 -0.2107  0.1213
  652SOL    HW112060   0.704   2.824   2.695  0.5452 -0.6399 -0.3926
  652SOL    HW212061   0.633   2.683   2.656 -0.1428 -0.5478  0.5097
  653SOL     OW12062  10.014   4.785   2.252  0.2851 -0.6161  0.5040
  653SOL    HW112063   9.984   4.842   2.329 -0.9393 -0.4532 -0.0703
  653SOL    HW212064   9.954   4.801   2.174  2.5244  0.4740 -1.0406
  654SOL     OW12065   0.941   4.831   2.581 -0.3219  0.0845 -0.2369
  654SOL    HW112066   0.903   4.851   2.491  2.1914  1.8652 -0.9476
  654SOL    HW212067   0.881   4.868   2.652 -2.3065 -1.3185 -1.1477
  655SOL     OW12068   9.727   5.567   2.348  0.6190  0.0279  0.3124
  655SOL    HW112069   9.722   5.588   2.250  1.4502  1.4556  0.5616
  655SOL    HW212070   9.637   5.541   2.382  0.1376  0.4644 -0.6285
  656SOL     OW12071   9.130   3.037   0.775  0.2267  0.4738  0.2652
  656SOL    HW112072   9.127   3.034   0.676 -0.1092  0.8917  0.2618
  656SOL    HW212073   9.041   3.067   0.810  0.6824  1.3842  0.6548
  657SOL     OW12074   1.610   1.843   1.878 -0.6117 -0.0092  0.0619
  657SOL    HW112075   1.667   1.794   1.812 -1.6239 -0.1473 -0.7320
  657SOL    HW212076   1.666   1.905   1.931 -0.0208  1.3443 -2.0973
  658SOL     OW12077   3.189   4.652   2.772  0.0940  0.1320 -0.2135
  658SOL    HW112078   3.182   4.648   2.872  2.2660 -0.8808 -0.0721
  658SOL    HW212079   3.265   4.713   2.747 -0.2972  0.2023 -1.2597
  659SOL     OW12080   3.254   2.854   0.229  0.2658  0.1216  0.3301
  659SOL    HW112081   3.243   2.837   0.131  0.4509  0.4674  0.2485
  659SOL    HW212082   3.302   2.941   0.242 -1.0578  0.7949  0.7547
  660SOL     OW12083   0.624   5.697   2.390 -0.2799  0.0882  0.0393
  660SOL    HW112084   0.710   5.747   2.402  0.4904 -0.9088 -1.1376
  660SOL    HW212085   0.643   5.609   2.346 -1.9659  0.0908 -0.7316
  661SOL     OW12086   2.536   5.894   1.162 -0.0798 -0.0449  0.0140
  661SOL    HW112087   2.621   5.901   1.214  0.7896 -0.6498 -1.2943
  661SOL    HW212088   2.488   5.810   1.188 -0.7014  0.7059  1.3482
  662SOL     OW12089   9.065   7.784   0.872 -0.0317 -0.1760  0.0895
  662SOL    HW112090   9.132   7.728   0.822  0.1282 -0.4315  0.5899
  662SOL    HW212091   9.007   7.725   0.927 -1.0165 -0.0013 -0.7425
  663SOL     OW12092   9.278   9.180   1.867 -0.3640 -0.1152  0.3137
  663SOL    HW112093   9.300   9.172   1.770  1.4721  0.5113  0.6550
  663SOL    HW212094   9.272   9.277   1.892 -1.6707 -0.2711  0.6599
  664SOL     OW12095   4.415   4.845   2.629 -0.0088  0.5568 -0.8803
  664SOL    HW112096   4.465   4.916   2.677  0.2863  0.2508 -0.7366
  664SOL    HW212097   4.476   4.797   2.566 -0.2617  0.5895 -1.1523
  665SOL     OW12098   9.398   0.138   2.722  0.8101  0.0052  0.0180
  665SOL    HW112099   9.380   0.124   2.819 -1.0452  0.4685 -0.2308
  665SOL    HW212100   9.329   0.090   2.668  1.3616  0.3908 -1.0546
  666SOL     OW12101   2.943   3.433   2.362  0.6645 -0.4992 -0.9855
  666SOL    HW112102   2.991   3.347   2.341 -0.4195 -1.2820 -0.3045
  666SOL    HW212103   2.874   3.450   2.292  0.1193 -0.7722 -0.5215
  667SOL     OW12104   2.277   4.686   2.832 -0.1765 -0.2408  0.0710
  667SOL    HW112105   2.338   4.672   2.910  0.7631  1.0398 -0.4245
  667SOL    HW212106   2.272   4.602   2.778 -0.0804 -0.8325  0.9785
  668SOL     OW12107   3.107   4.005   0.742 -0.4456  0.6017 -0.6334
  668SOL    HW112108   3.038   3.939   0.712 -1.3637  1.4666 -0.4263
  668SOL    HW212109   3.171   4.023   0.666 -0.6968  0.1301 -0.9575
  669SOL     OW12110   3.387   5.873   1.951  0.0437 -0.4575  0.7809
  669SOL    HW112111   3.422   5.781   1.965 -0.4415 -0.5337  1.5050
  669SOL    HW212112   3.439   5.937   2.007  0.0997 -0.3427  0.6014
  670SOL     OW12113  10.321   8.483   0.366 -0.2103  0.1869 -0.0261
  670SOL    HW112114  10.258   8.431   0.307  0.5207  0.1285 -0.7638
  670SOL    HW212115  10.388   8.530   0.309  1.0681 -0.6017  0.8072
  671SOL     OW12116   1.913   5.736   1.716  0.6059 -0.8176  0.2699
  671SOL    HW112117   1.865   5.823   1.700  0.2869 -1.2495 -1.1514
  671SOL    HW212118   1.946   5.734   1.810  1.5100  1.2915  0.0267
  672SOL     OW12119   1.679   5.581   2.456  0.2496 -0.3673  0.7841
  672SOL    HW112120   1.593   5.610   2.414  0.5334  1.5843  1.4600
  672SOL    HW212121   1.755   5.605   2.396  0.5015  0.5065  1.4324
  673SOL     OW12122   9.188   7.797   1.481  0.4499  0.0335 -0.4378
  673SOL    HW112123   9.143   7.715   1.445  1.1875 -0.8112  0.5357
  673SOL    HW212124   9.142   7.826   1.565 -0.0716  0.8740 -1.0031
  674SOL     OW12125   2.604   0.901   1.010 -0.6087  0.4989 -0.5007
  674SOL    HW112126   2.509   0.927   1.023 -1.0761 -2.0147  1.5513
  674SOL    HW212127   2.648   0.890   1.099  0.7288 -1.3320 -1.3562
  675SOL     OW12128   2.880   3.996   1.215 -0.6798 -0.1078  0.2874
  675SOL    HW112129   2.944   4.070   1.233 -1.2781  0.2573  0.9363
  675SOL    HW212130   2.924   3.908   1.234  0.3751  0.0047 -1.4927
  676SOL     OW12131   2.495   7.025   0.236  0.6377 -0.2553  0.4296
  676SOL    HW112132   2.415   7.048   0.180  1.3397  2.6831  0.5604
  676SOL    HW212133   2.578   7.040   0.184  1.2476  1.0005  1.7260
  677SOL     OW12134   9.601   5.056   1.367 -0.0915  0.9925 -0.5482
  677SOL    HW112135   9.677   5.122   1.367  2.2255 -1.5362 -2.0662
  677SOL    HW212136   9.534   5.083   1.298  0.9996  1.6058 -1.3954
  678SOL     OW12137   3.833   5.983   1.150  0.3921  0.0259 -0.1696
  678SOL    HW112138   3.819   5.957   1.055  1.0363 -0.4629 -0.1446
  678SOL    HW212139   3.747   5.979   1.200 -0.1094  1.1789 -0.9388
  679SOL     OW12140   1.928   0.526   1.824  0.0934 -0.2767  0.2852
  679SOL    HW112141   2.003   0.459   1.820  0.2652 -0.0325 -0.9412
  679SOL    HW212142   1.848   0.484   1.866  0.7174 -0.7461  1.0227
  680SOL     OW12143   3.148   1.584   2.340  0.1735  0.1185 -0.1993
  680SOL    HW112144   3.089   1.518   2.295  0.5104  0.3117 -0.9357
  680SOL    HW212145   3.235   1.541   2.363  1.0214  0.7322 -2.1686
  681SOL     OW12146  10.120   9.711   1.965  0.7822 -0.2143  0.0553
  681SOL    HW112147  10.175   9.791   1.990  1.2262 -0.7275  0.7583
  681SOL    HW212148  10.180   9.631   1.959  0.1952 -0.6730  0.2970
  682SOL     OW12149   8.661   6.619   1.059 -0.8299 -0.4284  0.4406
  682SOL    HW112150   8.734   6.684   1.080 -0.0303 -0.8975 -0.8560
  682SOL    HW212151   8.687   6.562   0.981 -1.4418 -2.4333  1.6470
  683SOL     OW12152  10.101   4.606   2.450  0.7488 -0.3095 -0.4700
  683SOL    HW112153  10.005   4.578   2.457  0.8839 -0.6542  0.0742
  683SOL    HW212154  10.114   4.664   2.370  0.0509 -0.1232 -0.4440
  684SOL     OW12155   9.578   4.225   0.758  0.0296 -0.4439 -0.0767
  684SOL    HW112156   9.631   4.287   0.815  0.1254 -0.4275 -0.1822
  684SOL    HW212157   9.583   4.255   0.663 -2.2003  0.9949  0.2309
  685SOL     OW12158   4.549   3.167   2.074  0.1718  0.1574 -0.4990
  685SOL    HW112159   4.524   3.264   2.074 -0.5613 -0.0140  0.7122
  685SOL    HW212160   4.484   3.116   2.132  1.4332 -0.8144  0.0747
  686SOL     OW12161   2.995   8.016   1.465  0.4308 -0.0362 -0.3075
  686SOL    HW112162   2.985   7.956   1.386  0.0334 -0.4559  0.0587
  686SOL    HW212163   2.982   7.963   1.549 -0.8726  0.7266 -0.0000
  687SOL     OW12164   2.935   3.365   0.859  0.3967  0.1509  0.1173
  687SOL    HW112165   2.937   3.464   0.858 -0.1749  0.1625 -0.3162
  687SOL    HW212166   2.901   3.331   0.771 -0.2972 -0.3998  0.5821
  688SOL     OW12167   4.142   0.144   0.115  0.2885 -0.6228  0.3864
  688SOL    HW112168   4.173   0.156   0.021  0.0507 -2.5587  0.0340
  688SOL    HW212169   4.213   0.173   0.178  0.5549  0.4337 -0.3809
  689SOL     OW12170   1.034   0.202   1.470 -0.5942 -0.0112 -0.1459
  689SOL    HW112171   1.066   0.119   1.516 -0.4668 -0.2070 -0.5830
  689SOL    HW212172   1.079   0.282   1.509 -1.0848 -0.1004  0.6143
  690SOL     OW12173   9.458   3.484   1.521 -0.3383 -0.3578 -0.2434
  690SOL    HW112174   9.371   3.440   1.502 -0.1245 -1.0770  0.4247
  690SOL    HW212175   9.486   3.465   1.615  1.0732 -1.0584 -0.7962
  691SOL     OW12176   0.365   0.374   1.570 -1.1468  0.1090  0.0860
  691SOL    HW112177   0.276   0.385   1.526 -1.4085 -1.2391  0.2590
  691SOL    HW212178   0.425   0.449   1.542 -1.7088 -0.0288 -1.5774
  692SOL     OW12179   2.617   6.992   1.837  0.0408 -0.0883 -0.1879
  692SOL    HW112180   2.688   6.941   1.788 -1.0809 -1.2734 -0.6033
  692SOL    HW212181   2.543   7.016   1.774 -0.1830  0.6773  0.3562
  693SOL     OW12182   4.349   4.103   2.836  0.0435  0.1649  0.0379
  693SOL    HW112183   4.406   4.126   2.758  0.0854  0.0769  0.0424
  693SOL    HW212184   4.365   4.007   2.862 -1.8232 -0.5822 -1.4203
  694SOL     OW12185   1.425   6.540   1.767 -0.6435 -0.4270  0.3364
  694SOL    HW112186   1.503   6.588   1.726 -0.2842 -1.4124 -0.1534
  694SOL    HW212187   1.359   6.607   1.800  0.6594  0.4448  1.2497
  695SOL     OW12188   9.882   0.805   1.413 -0.0030  0.3469  0.0413
  695SOL    HW112189   9.795   0.757   1.425 -0.4752  1.2563  0.2769
  695SOL    HW212190   9.868   0.903   1.427  0.9806  0.5402 -0.3272
  696SOL     OW12191   9.956   2.273   2.044 -0.3325 -0.9494  0.6304
  696SOL    HW112192   9.904   2.304   1.964  1.1401 -1.7628 -0.6867
  696SOL    HW212193  10.026   2.208   2.014  1.2507 -0.1004  2.3991
  697SOL     OW12194   3.292   6.593   0.364  0.2880 -0.1189 -0.4260
  697SOL    HW112195   3.208   6.552   0.328 -0.5625  0.9308  0.3354
  697SOL    HW212196   3.359   6.522   0.384 -1.0774 -1.1213  0.6418
  698SOL     OW12197   9.853   2.613   1.976  0.0015 -0.1784  1.0573
  698SOL    HW112198   9.930   2.669   1.945  0.9153 -1.3928  1.1144
  698SOL    HW212199   9.772   2.635   1.921  1.1705 -1.1285 -1.1242
  699SOL     OW12200   3.295   4.638   1.180 -0.1081 -0.2186  0.0785
  699SOL    HW112201   3.208   4.687   1.171 -0.2381 -0.2371  1.1139
  699SOL    HW212202   3.342   4.668   1.263  0.9955 -0.0407 -0.6059
  700SOL     OW12203   0.776   3.506   2.714 -0.1808  0.5265  0.0052
  700SOL    HW112204   0.733   3.557   2.640 -0.6361 -0.2869 -0.2935
  700SOL    HW212205   0.725   3.521   2.799 -1.3569 -0.8324 -0.4529
  701SOL     OW12206   9.297   7.775   2.622 -0.6510  0.3828  0.1703
  701SOL    HW112207   9.390   7.738   2.622  0.0453  2.0972  1.3254
  701SOL    HW212208   9.249   7.746   2.704 -0.8344  0.2828  0.0298
  702SOL     OW12209   1.571   0.159   2.805 -0.1943 -0.5650 -0.0405
  702SOL    HW112210   1.578   0.255   2.833 -0.3091 -0.9495  1.3752
  702SOL    HW212211   1.645   0.137   2.742 -0.6162  0.6566 -0.9781
  703SOL     OW12212  10.109   7.266   2.805 -0.0268 -0.6098 -0.2419
  703SOL    HW112213  10.014   7.276   2.836  0.7123  2.2525  1.2747
  703SOL    HW212214  10.160   7.210   2.870 -0.1183 -0.1746  0.2088
  704SOL     OW12215   1.117   7.019   1.938 -0.4761 -0.1296 -0.2907
  704SOL    HW112216   1.045   6.950   1.948 -0.1034 -0.2251  2.1885
  704SOL    HW212217   1.078   7.102   1.898 -1.7979 -0.4687  0.2489
  705SOL     OW12218   2.991   7.086   1.385  0.2037 -0.0924  0.3211
  705SOL    HW112219   3.002   7.080   1.485 -0.8904  1.2907  0.5321
  705SOL    HW212220   3.063   7.145   1.348 -1.0458  1.6738  0.6434
  706SOL     OW12221   0.750   6.407   2.465 -0.4792 -0.4544  0.1406
  706SOL    HW112222   0.687   6.368   2.532 -1.2573  0.6034  0.0312
  706SOL    HW212223   0.838   6.427   2.509 -0.4758 -1.1781  0.4764
  707SOL     OW12224   4.449   3.987   2.252  0.2630 -0.7525  0.1423
  707SOL    HW112225   4.545   3.995   2.276  0.6253  0.0386 -1.5327
  707SOL    HW212226   4.424   4.058   2.187 -1.4332 -1.0191  0.4649
  708SOL     OW12227   9.832   5.213   2.805 -0.2907 -0.2667  0.1547
  708SOL    HW112228   9.877   5.127   2.784 -0.5540 -0.5367  0.7009
  708SOL    HW212229   9.884   5.289   2.764 -0.1925 -0.6960 -0.5229
  709SOL     OW12230   9.803   2.615   0.269  0.0361  0.4143 -0.0922
  709SOL    HW112231   9.738   2.671   0.318  0.4437  0.4604  0.4005
  709SOL    HW212232   9.896   2.647   0.287  0.2735 -0.4013  0.1904
  710SOL     OW12233   4.684   1.427   0.397 -0.3938  0.7108 -0.3307
  710SOL    HW112234   4.720   1.460   0.484  0.7278 -0.7359 -0.2193
  710SOL    HW212235   4.672   1.504   0.335  1.1101  1.4696  0.2919
  711SOL     OW12236   4.885   3.426   1.756  0.2779  0.5060  0.1132
  711SOL    HW112237   4.891   3.346   1.697 -0.0863 -0.7053  1.7135
  711SOL    HW212238   4.898   3.509   1.701  0.6459 -0.6392 -1.5391
  712SOL     OW12239   0.928   7.460   1.678  0.1323  0.2517 -0.2939
  712SOL    HW112240   0.838   7.489   1.710 -0.0348 -1.8818  1.2053
  712SOL    HW212241   0.927   7.455   1.578 -1.2809  0.6055 -0.3135
  713SOL     OW12242   1.591   0.018   2.182 -0.3672 -0.1489  0.3294
  713SOL    HW112243   1.573  -0.079   2.199  0.1911 -0.2257  0.4797
  713SOL    HW212244   1.645   0.028   2.099  1.4552 -0.1051  1.5023
  714SOL     OW12245  10.249   9.434   2.228  0.8019  0.4663  0.6262
  714SOL    HW112246  10.230   9.525   2.263 -1.2325  0.0108  0.7788
  714SOL    HW212247  10.248   9.436   2.128  0.3312  0.5334  0.6302
  715SOL     OW12248   9.517   9.956   1.947 -0.6448  0.0345  0.0870
  715SOL    HW112249   9.545   9.861   1.933 -1.1570 -0.1748  0.4892
  715SOL    HW212250   9.592  10.017   1.919  0.0192 -0.5113  0.6412
  716SOL     OW12251   9.082   6.665   1.358  0.2111 -0.3944 -0.3773
  716SOL    HW112252   9.140   6.725   1.303 -0.5344 -0.1379 -0.8885
  716SOL    HW212253   8.992   6.706   1.370 -0.4065 -1.5321 -0.9848
  717SOL     OW12254   9.624   0.680   1.418  0.6285 -0.0460  0.0257
  717SOL    HW112255   9.644   0.582   1.415  1.8753  0.1971  0.2030
  717SOL    HW212256   9.596   0.711   1.327  1.2738 -0.3522 -0.2813
  718SOL     OW12257   0.907   8.196   2.100 -0.3851 -0.1694 -0.1350
  718SOL    HW112258   0.878   8.290   2.080  0.4644 -0.0545 -0.8753
  718SOL    HW212259   1.006   8.194   2.111 -0.7077 -0.4091  3.1657
  719SOL     OW12260   9.335   7.508   2.486 -0.2499  0.6152 -0.6836
  719SOL    HW112261   9.426   7.537   2.516 -0.8742  2.3436 -0.3973
  719SOL    HW212262   9.300   7.574   2.420 -1.1471 -0.2344 -1.0520
  720SOL     OW12263   9.431   8.016   1.121  0.3611  0.2176  0.2129
  720SOL    HW112264   9.441   8.074   1.202  0.1870 -0.5602  0.7955
  720SOL    HW212265   9.518   7.971   1.101  0.6615  1.1464 -0.6006
  721SOL     OW12266   1.550   6.265   0.360 -0.1241  0.3869 -0.0997
  721SOL    HW112267   1.508   6.356   0.362 -1.1869 -0.1075  1.3109
  721SOL    HW212268   1.609   6.254   0.440  0.0962 -0.1239 -0.3322
  722SOL     OW12269   2.796   4.711   0.398  0.4316 -0.0406 -0.5296
  722SOL    HW112270   2.854   4.737   0.476 -0.5563 -0.0169  0.2003
  722SOL    HW212271   2.780   4.792   0.341 -0.2392  0.3260  0.1659
  723SOL     OW12272   1.349   7.091   0.886  0.2722  0.0985 -0.1497
  723SOL    HW112273   1.306   7.180   0.872  1.1381  0.6776  0.8388
  723SOL    HW212274   1.370   7.078   0.983  0.2755 -1.1228 -0.3053
  724SOL     OW12275   2.608   0.431   0.468  0.0802  0.3943  0.1385
  724SOL    HW112276   2.579   0.342   0.504  2.3169 -1.2067 -1.8470
  724SOL    HW212277   2.620   0.424   0.369 -0.4998  3.1609 -0.1563
  725SOL     OW12278   0.673   5.562   0.980 -0.2944  0.0196  0.2582
  725SOL    HW112279   0.746   5.496   0.962 -0.5741 -0.6604  1.5914
  725SOL    HW212280   0.588   5.529   0.938  0.1246  0.7487 -1.1845
  726SOL     OW12281   1.548   4.919   0.362 -0.5633 -0.1109 -0.5832
  726SOL    HW112282   1.541   5.016   0.336  0.8259  0.5863  1.5030
  726SOL    HW212283   1.493   4.902   0.444  0.3442 -0.7551 -0.0980
  727SOL     OW12284   0.819   4.105   1.057  0.5816  0.4366  0.2173
  727SOL    HW112285   0.852   4.102   1.152 -0.2877  0.8060  0.5432
  727SOL    HW212286   0.787   4.014   1.031 -1.3209  0.8288  1.0815
  728SOL     OW12287  10.024   1.726   2.389  0.3600  0.8631 -0.3467
  728SOL    HW112288   9.982   1.646   2.432 -0.1964  0.8847 -0.8434
  728SOL    HW212289  10.122   1.708   2.375  0.3011  0.3914 -0.1698
  729SOL     OW12290   0.932   3.980   2.478 -0.1866  0.1791 -0.1049
  729SOL    HW112291   0.961   3.888   2.452 -0.8857 -0.1656  0.3089
  729SOL    HW212292   0.879   3.976   2.563  3.2958  1.4639  2.2197
  730SOL     OW12293   1.894   0.703   0.914  0.1256 -0.4213  0.3022
  730SOL    HW112294   1.957   0.656   0.975  0.4363 -0.9408 -0.4076
  730SOL    HW212295   1.803   0.704   0.955  0.5176  0.0408  1.1814
  731SOL     OW12296   8.373   6.672   1.918  0.1921 -0.0727  0.5587
  731SOL    HW112297   8.283   6.675   1.874  0.4562  0.9708  0.0559
  731SOL    HW212298   8.407   6.578   1.919  0.6690 -0.0103 -2.5321
  732SOL     OW12299   1.307   4.669   0.982  0.5984  0.1711  0.3253
  732SOL    HW112300   1.331   4.732   1.056 -0.3543  0.6562  0.2292
  732SOL    HW212301   1.208   4.656   0.980  0.8176 -1.7569  0.6803
  733SOL     OW12302   3.886   0.611   2.676 -0.3017 -0.3902 -0.2133
  733SOL    HW112303   3.859   0.671   2.751 -2.4152 -1.1249 -0.3639
  733SOL    HW212304   3.844   0.642   2.591 -2.4049 -2.7241 -0.0816
  734SOL     OW12305   1.820   3.225   2.053  0.0304 -0.0646 -0.7307
  734SOL    HW112306   1.771   3.168   1.987  0.7135  1.0649 -2.2243
  734SOL    HW212307   1.884   3.169   2.105 -0.1706 -0.8658 -1.3412
  735SOL     OW12308   2.353   7.174   1.607  0.2879 -0.9513 -0.2962
  735SOL    HW112309   2.344   7.160   1.706  0.8735 -1.4095 -0.3025
  735SOL    HW212310   2.450   7.181   1.584  0.2580 -3.1985 -1.1700
  736SOL     OW12311   0.802   7.974   0.783 -0.0717 -0.1384  1.0169
  736SOL    HW112312   0.710   7.964   0.745  0.8281  1.6872 -1.8313
  736SOL    HW212313   0.810   8.064   0.827  0.7352  0.3365 -0.0566
  737SOL     OW12314   3.308   3.865   2.583  0.1616  0.2817 -0.2066
  737SOL    HW112315   3.322   3.953   2.538 -1.5179  0.5890 -0.1549
  737SOL    HW212316   3.210   3.845   2.588  0.4113 -0.6235  1.6293
  738SOL     OW12317   2.366   6.070   1.732  0.3659 -0.4162  0.4442
  738SOL    HW112318   2.358   6.071   1.632 -0.5388 -0.1249  0.5171
  738SOL    HW212319   2.368   5.976   1.765  0.0101 -0.5066  0.2040
  739SOL     OW12320   2.138   8.308   1.719 -0.2789 -0.1920 -0.1057
  739SOL    HW112321   2.155   8.228   1.661  0.6590  0.0895 -0.2269
  739SOL    HW212322   2.180   8.294   1.809  1.2149  0.7805 -0.6225
  740SOL     OW12323   9.605   4.943   2.217 -0.3379  0.6959 -0.1743
  740SOL    HW112324   9.584   4.910   2.309  1.6440  0.4180  0.2011
  740SOL    HW212325   9.654   5.030   2.222  0.2335  0.4296 -0.9383
  741SOL     OW12326   3.414   1.865   0.228  0.2816 -0.0522  0.2464
  741SOL    HW112327   3.430   1.830   0.136 -0.0808  0.9435 -0.1957
  741SOL    HW212328   3.353   1.944   0.225  1.1033  0.6567  1.2203
  742SOL     OW12329   5.150   2.983   1.876  0.3189  0.1487  0.4100
  742SOL    HW112330   5.115   3.073   1.899  0.3788 -0.1678  1.7663
  742SOL    HW212331   5.082   2.914   1.900  0.0425 -0.1437 -1.1318
  743SOL     OW12332   0.533   4.506   2.540  0.2181 -0.0269 -0.5910
  743SOL    HW112333   0.533   4.407   2.553 -0.2917 -0.2150 -1.9760
  743SOL    HW212334   0.621   4.536   2.505 -0.4868 -0.3365 -2.6614
  744SOL     OW12335   2.432   1.449   1.441 -0.4021  0.3729 -0.3925
  744SOL    HW112336   2.339   1.471   1.412 -1.4095  0.8697  3.0467
  744SOL    HW212337   2.448   1.351   1.431 -1.3370  0.2636 -0.8133
  745SOL     OW12338  10.125   3.262   2.526 -0.0720 -0.9723 -0.3317
  745SOL    HW112339  10.066   3.215   2.460  1.6487 -2.1670 -1.0561
  745SOL    HW212340  10.084   3.258   2.617 -1.7210 -0.6634 -1.0458
  746SOL     OW12341   0.587   5.812   1.649 -0.1436  0.0423 -0.5998
  746SOL    HW112342   0.622   5.732   1.599  1.3300  0.6222 -0.5157
  746SOL    HW212343   0.664   5.863   1.688 -1.1410  0.9661  0.1689
  747SOL     OW12344   1.079   3.019   1.967  0.2698 -0.3502  0.5756
  747SOL    HW112345   1.122   3.107   1.950  0.8073 -0.1210  2.9897
  747SOL    HW212346   1.112   2.953   1.899  1.8862  0.6473  0.3568
  748SOL     OW12347   3.352   8.948   0.083 -0.2154  0.0008  0.1866
  748SOL    HW112348   3.368   9.028   0.026  0.3028 -0.8041 -0.8279
  748SOL    HW212349   3.437   8.896   0.092 -0.7586 -0.9283  0.0531
  749SOL     OW12350   3.418   1.180   1.924 -0.3408 -0.3875  0.7608
  749SOL    HW112351   3.428   1.265   1.976 -0.7579 -1.4250  2.5698
  749SOL    HW212352   3.500   1.124   1.933 -1.0062 -1.2468  1.5476
  750SOL     OW12353   9.838   4.293   1.085 -0.0667  0.4227  0.7031
  750SOL    HW112354   9.869   4.355   1.157 -1.5746  1.0528  0.8457
  750SOL    HW212355   9.816   4.345   1.003  2.3261 -0.3695 -0.4944
  751SOL     OW12356   3.114   1.750   2.005 -0.2736  0.2421  0.2355
  751SOL    HW112357   3.128   1.849   2.006 -1.5367  0.4376 -0.6692
  751SOL    HW212358   3.189   1.706   1.957 -1.1130  1.0119 -1.8455
  752SOL     OW12359   3.173   0.131   2.058  0.0403  0.2550  0.4014
  752SOL    HW112360   3.194   0.111   1.962  0.8920  0.8355  0.4617
  752SOL    HW212361   3.083   0.175   2.064  0.3177  0.9179 -0.2154
  753SOL     OW12362   1.127   3.663   1.806  0.2982 -0.4596 -0.3751
  753SOL    HW112363   1.144   3.651   1.708  1.6067 -0.5880 -0.1476
  753SOL    HW212364   1.031   3.646   1.826 -0.4793  1.7184 -1.9892
  754SOL     OW12365   3.466   9.631   1.513 -0.3692  0.2185  0.4361
  754SOL    HW112366   3.395   9.701   1.523  0.3730  0.8729  1.2303
  754SOL    HW212367   3.423   9.542   1.502 -1.3411  0.9006 -1.4948
  755SOL     OW12368   0.872   3.660   0.624 -0.2123  0.8963 -0.5430
  755SOL    HW112369   0.951   3.639   0.682 -0.6502  0.9860  0.0914
  755SOL    HW212370   0.904   3.694   0.536  0.4779 -0.3976 -0.8133
  756SOL     OW12371   2.428   0.370   1.486 -0.6857 -0.0203 -0.4945
  756SOL    HW112372   2.390   0.392   1.575 -0.8724  0.0934 -0.6013
  756SOL    HW212373   2.526   0.392   1.485 -0.9585  1.2426 -0.7367
  757SOL     OW12374   9.024   6.639   0.230  0.3701 -0.7762 -0.4427
  757SOL    HW112375   8.939   6.597   0.198  0.0747 -0.8753  0.4414
  757SOL    HW212376   9.102   6.584   0.199  0.1014 -0.8263 -1.0437
  758SOL     OW12377   3.036   1.253   1.597  0.1310  0.3942  0.4335
  758SOL    HW112378   2.982   1.296   1.525 -0.6221  3.0858  2.5121
  758SOL    HW212379   3.110   1.199   1.556 -1.4169  0.3092 -2.3426
  759SOL     OW12380   2.009   5.802   2.248  0.9116 -0.3315 -0.4946
  759SOL    HW112381   1.960   5.714   2.248  0.7196 -0.2313  0.0587
  759SOL    HW212382   2.032   5.826   2.343 -1.3168  1.4702 -0.3765
  760SOL     OW12383   3.123   2.292   2.029  0.1916 -0.8949 -0.6215
  760SOL    HW112384   3.045   2.331   2.078 -0.0945  0.1329 -1.8779
  760SOL    HW212385   3.189   2.364   2.008  1.7326 -1.8322  0.8483
  761SOL     OW12386   2.428   9.749   2.629 -0.4409 -0.2437  0.0227
  761SOL    HW112387   2.494   9.810   2.586 -0.4255  0.4112  0.9508
  761SOL    HW212388   2.346   9.801   2.654 -1.1349 -0.9648 -0.7440
  762SOL     OW12389   1.661   8.021   0.583  0.4796 -0.4816  0.3172
  762SOL    HW112390   1.593   7.961   0.541  0.7466  0.4565 -1.5303
  762SOL    HW212391   1.713   7.971   0.652  0.0660 -2.0885 -0.5213
  763SOL     OW12392   3.142   7.178   1.007 -0.2573  0.6883 -0.3494
  763SOL    HW112393   3.204   7.223   0.942 -0.6939  1.0610 -0.5136
  763SOL    HW212394   3.051   7.218   0.998 -0.5692 -0.0090 -0.2606
  764SOL     OW12395   2.435   7.341   2.818  0.3108 -0.3537  0.1279
  764SOL    HW112396   2.524   7.367   2.856 -0.7693  1.1108  1.7356
  764SOL    HW212397   2.443   7.331   2.719  1.9059  1.3229  0.0656
  765SOL     OW12398   3.872   4.394   2.068  0.1885 -0.2422 -0.3410
  765SOL    HW112399   3.931   4.399   1.988  1.9069 -2.1035  0.7584
  765SOL    HW212400   3.894   4.470   2.130 -0.7119  0.8347 -1.3205
  766SOL     OW12401   2.001   0.163   1.567  0.5815 -0.6455 -0.0236
  766SOL    HW112402   2.096   0.194   1.561  0.1378  0.6888 -0.3535
  766SOL    HW212403   1.996   0.066   1.542  2.0680 -1.1600  1.5704
  767SOL     OW12404   0.380   5.506   0.942 -0.2240  0.1799  0.2070
  767SOL    HW112405   0.294   5.549   0.970 -0.1866  0.8234 -0.6544
  767SOL    HW212406   0.369   5.468   0.850  0.4365  0.3395  0.0605
  768SOL     OW12407   3.432   0.720   2.084 -0.0461 -0.3283  0.4164
  768SOL    HW112408   3.337   0.704   2.111  0.5340  0.2815  2.9906
  768SOL    HW212409   3.488   0.729   2.166  1.8063  1.9373 -1.0567
  769SOL     OW12410   3.427   1.196   1.650  0.7106  0.1553 -0.0907
  769SOL    HW112411   3.497   1.125   1.642 -0.1675 -0.5677 -1.8638
  769SOL    HW212412   3.407   1.213   1.746  1.3722 -1.5657  0.3737
  770SOL     OW12413  10.098   2.290   2.456 -0.2256 -0.6193  0.2193
  770SOL    HW112414  10.056   2.341   2.381  0.3754 -2.4248 -1.3927
  770SOL    HW212415  10.030   2.230   2.498 -0.4262 -0.0135  0.7678
  771SOL     OW12416   9.376   0.592   2.715 -0.2284  0.0724  0.3446
  771SOL    HW112417   9.353   0.652   2.639  1.9739  0.9495  0.3305
  771SOL    HW212418   9.431   0.515   2.681 -0.4149 -0.2752  0.8275
  772SOL     OW12419   1.636   4.953   2.597  0.3639 -0.0985 -0.3319
  772SOL    HW112420   1.732   4.925   2.609  0.3267  0.4282  1.3775
  772SOL    HW212421   1.623   5.044   2.636 -0.8992 -0.2602 -0.3529
  773SOL     OW12422   1.082   1.273   2.438  0.2786  0.1590 -0.6867
  773SOL    HW112423   1.115   1.345   2.500  2.1011  0.9838 -2.5637
  773SOL    HW212424   1.160   1.225   2.398 -0.9218 -2.7152  0.3196
  774SOL     OW12425   4.586   1.766   2.192 -0.2959 -0.4442 -0.4346
  774SOL    HW112426   4.616   1.670   2.190  0.1740 -0.2809 -2.3315
  774SOL    HW212427   4.596   1.806   2.101  0.9254  1.8599  0.6639
  775SOL     OW12428   9.344   2.812   2.374 -0.1412  0.2995 -0.8124
  775SOL    HW112429   9.355   2.742   2.304  0.8152  0.5232 -0.8922
  775SOL    HW212430   9.404   2.791   2.452  1.5313  2.0101 -1.6139
  776SOL     OW12431   9.557   3.559   0.499 -0.0076  0.2597 -0.8695
  776SOL    HW112432   9.572   3.623   0.574 -3.5111  1.0513 -0.7620
  776SOL    HW212433   9.640   3.506   0.484  1.6474  1.9750  1.7447
  777SOL     OW12434   1.121   3.640   0.726 -0.5235 -0.0391 -0.2743
  777SOL    HW112435   1.151   3.734   0.742  0.1268 -0.3918  0.5813
  777SOL    HW212436   1.097   3.597   0.814  0.3132 -1.0568 -0.5394
  778SOL     OW12437   3.332   7.986   0.552 -0.8108  0.0397  0.6809
  778SOL    HW112438   3.387   8.027   0.625 -1.3286 -0.7057  1.5104
  778SOL    HW212439   3.376   8.000   0.464  0.0494  0.5680  1.1932
  779SOL     OW12440   1.733   0.675   0.181 -0.5038 -0.8279  0.0588
  779SOL    HW112441   1.657   0.724   0.222 -0.9849 -1.1742 -0.4030
  779SOL    HW212442   1.812   0.736   0.174 -0.4315 -0.7515  1.4153
  780SOL     OW12443   3.767   8.609   1.120  0.0502  0.4041  0.4110
  780SOL    HW112444   3.679   8.568   1.096  1.3293 -2.7731  0.9366
  780SOL    HW212445   3.830   8.601   1.043  0.1208  2.0389  0.2853
  781SOL     OW12446   0.521   8.086   2.670  0.2574  0.5812  0.8574
  781SOL    HW112447   0.570   8.143   2.605  0.5282 -2.2559 -1.5153
  781SOL    HW212448   0.527   8.127   2.761  2.8625  2.7966 -0.2477
  782SOL     OW12449   1.053   7.553   2.117 -0.4057 -0.0243  0.2209
  782SOL    HW112450   1.124   7.486   2.092 -0.4332  0.5993 -1.5840
  782SOL    HW212451   1.010   7.524   2.202  0.5546 -1.5638  0.2196
  783SOL     OW12452   1.782   5.994   0.329  0.1462 -0.3757 -0.0385
  783SOL    HW112453   1.798   6.087   0.296 -2.6439  0.2285  0.1409
  783SOL    HW212454   1.824   5.983   0.419 -1.0474  1.3347  0.7708
  784SOL     OW12455   1.805   7.340   0.358 -0.0052  0.1684 -0.0680
  784SOL    HW112456   1.802   7.245   0.388 -2.4493  0.4592  0.6701
  784SOL    HW212457   1.805   7.343   0.258 -2.4608 -0.5842 -0.1295
  785SOL     OW12458   3.987   2.035   1.914  0.2225 -0.4970 -0.3470
  785SOL    HW112459   4.068   2.014   1.969  1.0078 -0.5677 -1.5272
  785SOL    HW212460   3.935   2.108   1.958  1.9266  0.8618 -0.5350
  786SOL     OW12461   2.719   0.261   0.919 -0.4098 -0.3694  0.1051
  786SOL    HW112462   2.791   0.194   0.900  0.1344 -0.2946  1.7849
  786SOL    HW212463   2.714   0.327   0.845  0.0528 -1.4073 -0.8641
  787SOL     OW12464   0.791   1.218   1.792  0.1070 -0.6949  0.1837
  787SOL    HW112465   0.857   1.292   1.805 -1.6092  0.7397  1.0953
  787SOL    HW212466   0.822   1.136   1.838  2.4574 -0.8287 -1.5312
  788SOL     OW12467   2.005   5.271   0.199  0.3843 -0.5601  0.0299
  788SOL    HW112468   1.918   5.222   0.197  1.2385 -2.1719  0.8798
  788SOL    HW212469   2.019   5.311   0.289 -0.6017  1.8344 -0.8560
  789SOL     OW12470   3.957   3.610   1.783  0.2846  0.4544 -0.2263
  789SOL    HW112471   3.940   3.553   1.703  1.9465 -0.3006 -0.0633
  789SOL    HW212472   3.891   3.587   1.855  1.2233 -1.6268  0.0072
  790SOL     OW12473   1.572   3.300   0.960  0.0604  0.0828 -0.3095
  790SOL    HW112474   1.474   3.309   0.942 -0.0223  0.0502  0.1331
  790SOL    HW212475   1.618   3.270   0.876 -0.2040  0.8116 -0.7155
  791SOL     OW12476   3.137   0.161   1.038  0.7332 -0.1612 -0.5484
  791SOL    HW112477   3.089   0.222   1.100 -0.1783 -0.2229 -1.1907
  791SOL    HW212478   3.134   0.197   0.945 -1.1976 -1.9540 -1.2151
  792SOL     OW12479   9.632   6.057   2.457 -0.1437  0.0534 -0.2496
  792SOL    HW112480   9.596   6.013   2.375  0.8000 -0.1637 -0.5548
  792SOL    HW212481   9.670   5.988   2.519  1.1639  0.4136 -0.6417
  793SOL     OW12482  10.333   0.334   2.009  0.2623 -0.4530  0.1343
  793SOL    HW112483  10.243   0.305   2.040  1.2151 -0.1611  3.3696
  793SOL    HW212484  10.353   0.294   1.920 -2.4615 -1.6743  0.0451
  794SOL     OW12485   2.201   7.189   0.219  0.1041  0.4479  0.1669
  794SOL    HW112486   2.269   7.223   0.154  0.4199  0.2241  0.3772
  794SOL    HW212487   2.159   7.106   0.183  1.1485 -0.3572  0.7913
  795SOL     OW12488   2.392   6.163   1.478  0.1282 -0.1324 -0.2865
  795SOL    HW112489   2.490   6.180   1.471 -0.0457  1.2383  0.4764
  795SOL    HW212490   2.342   6.229   1.421 -0.3496 -0.9955 -0.8896
  796SOL     OW12491   1.314   5.369   0.744 -0.1965 -0.6271  0.0492
  796SOL    HW112492   1.270   5.433   0.681  1.4707  0.7980  0.2706
  796SOL    HW212493   1.371   5.306   0.693 -0.4150 -0.7571 -0.0327
  797SOL     OW12494   3.926   2.834   2.461 -0.4890  0.9831  0.0856
  797SOL    HW112495   3.928   2.769   2.385  0.2533  1.1431 -0.0375
  797SOL    HW212496   3.863   2.802   2.532 -1.3535  0.9438 -0.6939
  798SOL     OW12497  10.236   2.121   0.161 -0.1658 -0.1298  0.2371
  798SOL    HW112498  10.160   2.071   0.202 -0.7427  0.7281  0.2205
  798SOL    HW212499  10.215   2.143   0.066 -0.1873  0.7107  0.4354
  799SOL     OW12500   1.988   2.572   2.693  0.5505 -0.1774 -0.0263
  799SOL    HW112501   1.948   2.539   2.779  0.1708 -2.0943 -0.9154
  799SOL    HW212502   2.073   2.621   2.712 -1.8779  3.5270  1.8684
  800SOL     OW12503   1.352   0.527   2.499  0.4309  0.3336  0.1083
  800SOL    HW112504   1.283   0.458   2.517  0.4774  0.1386 -0.4351
  800SOL    HW212505   1.396   0.554   2.584 -0.6097  0.7712  0.5085
  801SOL     OW12506   2.157   2.323   0.114  0.1985  0.0641 -0.3304
  801SOL    HW112507   2.243   2.373   0.123  1.4808 -1.8694 -1.4331
  801SOL    HW212508   2.151   2.253   0.186  0.4421 -1.0266 -1.3449
  802SOL     OW12509   1.886   1.508   0.483  0.1905  0.6708  0.5860
  802SOL    HW112510   1.869   1.429   0.424  0.1805 -0.3113  1.8858
  802SOL    HW212511   1.947   1.572   0.436  0.3493 -0.1917 -0.4056
  803SOL     OW12512   3.492   2.749   1.332 -0.0963 -0.2220  0.6283
  803SOL    HW112513   3.563   2.807   1.293  0.6251 -1.2024  0.4601
  803SOL    HW212514   3.512   2.653   1.313 -1.7816 -0.4857  0.0638
  804SOL     OW12515   0.837   4.280   2.499  0.2569 -0.4546 -0.0659
  804SOL    HW112516   0.821   4.326   2.411 -0.1762 -1.9727 -0.8049
  804SOL    HW212517   0.936   4.278   2.517  0.2369  1.2165  0.2296
  805SOL     OW12518  10.058   0.406   2.397 -0.1774  0.4450  0.4981
  805SOL    HW112519  10.154   0.402   2.369 -0.4861  0.0973 -0.5371
  805SOL    HW212520   9.999   0.393   2.317 -1.0687 -2.3776  1.5289
  806SOL     OW12521   3.375   9.600   0.887  0.0232 -0.0936  0.5277
  806SOL    HW112522   3.343   9.563   0.974  0.4423 -0.8084  0.3784
  806SOL    HW212523   3.298   9.607   0.823 -0.7698  2.6378  1.6910
  807SOL     OW12524  10.002   5.084   1.993  0.0730  0.4272  0.2687
  807SOL    HW112525  10.025   5.159   2.054  2.6843  0.7832 -1.0810
  807SOL    HW212526   9.958   5.011   2.045  0.1315  1.6763  2.1177
  808SOL     OW12527   1.420   6.275   1.712 -0.1226  0.0320 -0.0710
  808SOL    HW112528   1.429   6.373   1.732 -2.3084  0.1594  0.3837
  808SOL    HW212529   1.412   6.224   1.797 -1.6033 -0.2589 -0.3808
  809SOL     OW12530   4.496   4.401   0.437 -0.0060  0.1647  0.4575
  809SOL    HW112531   4.522   4.349   0.355  1.9492  0.1416  1.0731
  809SOL    HW212532   4.535   4.493   0.432 -0.4991  0.4143  1.0408
  810SOL     OW12533   2.602   2.448   0.814  0.4132  0.2733  0.0099
  810SOL    HW112534   2.612   2.459   0.715 -0.3665  0.3235 -0.0661
  810SOL    HW212535   2.515   2.488   0.843 -0.2026 -1.3435  0.4546
  811SOL     OW12536   3.583   8.984   2.544  0.2907  0.0472  0.3911
  811SOL    HW112537   3.528   8.974   2.461 -0.4862  1.4253  0.7301
  811SOL    HW212538   3.582   8.898   2.595 -1.1896 -0.0876  0.1535
  812SOL     OW12539   2.046   0.156   1.072 -1.2143 -0.2419  0.2437
  812SOL    HW112540   1.966   0.095   1.080 -1.3574 -0.5039 -2.5902
  812SOL    HW212541   2.034   0.216   0.994  1.1897  0.0207  0.0358
  813SOL     OW12542   1.305   9.389   1.455  0.2948 -0.5099 -0.3556
  813SOL    HW112543   1.223   9.332   1.455  0.5757 -0.9645  1.5667
  813SOL    HW212544   1.279   9.484   1.469  0.0479 -0.5986 -0.2048
  814SOL     OW12545   0.808   2.929   1.690 -0.1725  0.2617 -0.1127
  814SOL    HW112546   0.730   2.924   1.754  2.9547 -1.2163  3.8450
  814SOL    HW212547   0.887   2.965   1.738  1.8397  1.0023 -3.8422
  815SOL     OW12548   9.675   9.045   2.198 -0.5620 -0.3814 -0.3154
  815SOL    HW112549   9.656   8.968   2.259 -2.7606 -0.2943 -0.8424
  815SOL    HW212550   9.669   9.130   2.250 -1.9558 -0.3399 -0.5127
  816SOL     OW12551   1.746   5.470   0.631  0.0216  0.1381 -0.3562
  816SOL    HW112552   1.770   5.464   0.728  0.0869  0.3937 -0.3559
  816SOL    HW212553   1.746   5.566   0.603 -1.2701  0.1608 -0.2904
  817SOL     OW12554   4.369   8.891   1.072 -0.0918 -0.7765 -0.4906
  817SOL    HW112555   4.284   8.900   1.019  0.0626 -0.8255 -0.7504
  817SOL    HW212556   4.352   8.836   1.153 -0.8004  0.9121  0.5431
  818SOL     OW12557   4.075   3.236   1.041  0.3961 -0.2856 -0.2940
  818SOL    HW112558   4.108   3.168   0.975 -0.4990 -1.7566  0.7557
  818SOL    HW212559   3.983   3.265   1.014  0.4326 -0.1405 -0.2592
  819SOL     OW12560   3.937   8.621   0.907  0.2615  0.7273  0.3217
  819SOL    HW112561   3.997   8.674   0.847 -0.6488 -0.1201 -1.3974
  819SOL    HW212562   3.989   8.548   0.951  0.2355 -1.0031 -2.3923
  820SOL     OW12563  10.139   0.993   0.526  0.0795 -0.9888  0.0502
  820SOL    HW112564  10.068   1.062   0.509  0.5853  0.4458  3.3633
  820SOL    HW212565  10.212   1.002   0.458 -1.0877  0.0250 -1.0918
  821SOL     OW12566   9.659   6.613   2.564  0.0372  0.6119  0.9116
  821SOL    HW112567   9.655   6.661   2.477  2.2966  0.5032  0.7285
  821SOL    HW212568   9.634   6.517   2.551 -1.4322  1.0156  0.7230
  822SOL     OW12569   1.667   0.797   2.392  0.5397 -0.6316  0.0869
  822SOL    HW112570   1.636   0.866   2.327 -0.4945 -0.1461  1.0610
  822SOL    HW212571   1.642   0.706   2.359 -1.1589 -0.3061  0.4143
  823SOL     OW12572   9.336   2.119   1.674 -0.8461  0.0890 -0.0567
  823SOL    HW112573   9.310   2.129   1.770  1.5356  0.6535  0.5757
  823SOL    HW212574   9.308   2.201   1.623  1.0141  1.3620  0.9289
  824SOL     OW12575   0.446   6.855   0.368  0.0999  0.3596 -0.0416
  824SOL    HW112576   0.520   6.840   0.434  0.0812 -0.5504 -0.2285
  824SOL    HW212577   0.484   6.867   0.277  0.0892  1.0916  0.0440
  825SOL     OW12578   1.120   4.295   2.583  0.5375 -0.0936 -0.1639
  825SOL    HW112579   1.172   4.359   2.639  0.0872  0.4724 -0.3969
  825SOL    HW212580   1.182   4.249   2.519  0.9173 -0.1606  0.2474
  826SOL     OW12581   3.232   8.184   1.028 -0.0574  0.3435 -0.1378
  826SOL    HW112582   3.153   8.128   1.053  0.5128  0.2166  1.4536
  826SOL    HW212583   3.253   8.171   0.931 -0.5741 -1.3952 -0.0294
  827SOL     OW12584   1.086   7.490   1.044 -0.4159 -0.5321  0.0674
  827SOL    HW112585   1.025   7.478   0.965 -0.3411 -2.0490  0.2385
  827SOL    HW212586   1.065   7.578   1.087 -0.7110  0.1567 -1.4120
  828SOL     OW12587   1.562   4.755   0.869 -0.6667  0.1627 -0.4228
  828SOL    HW112588   1.524   4.805   0.947  0.4440 -0.5723  0.6144
  828SOL    HW212589   1.523   4.663   0.866  0.9253 -0.5728  0.6065
  829SOL     OW12590   1.021   9.413   2.289  0.3546  0.2321  0.1040
  829SOL    HW112591   1.056   9.323   2.262 -2.5537 -1.2130  0.9063
  829SOL    HW212592   1.075   9.449   2.364  1.7319 -0.7132 -0.4165
  830SOL     OW12593   2.175   0.912   2.513 -0.1585 -0.4496  0.0873
  830SOL    HW112594   2.100   0.966   2.550  0.5268  1.7130 -1.5881
  830SOL    HW212595   2.154   0.887   2.418  1.5300  0.8084 -0.6351
  831SOL     OW12596   8.871   3.782   1.231 -0.1148  0.0642  0.1730
  831SOL    HW112597   8.821   3.697   1.213  0.0308  0.1376 -0.6063
  831SOL    HW212598   8.966   3.761   1.252  0.5625  0.1752 -2.6113
  832SOL     OW12599   3.455   9.447   1.796 -0.2490 -0.0717 -0.4635
  832SOL    HW112600   3.363   9.468   1.828 -0.5688 -0.5474 -1.0521
  832SOL    HW212601   3.451   9.371   1.732  0.5075  0.1648 -0.7985
  833SOL     OW12602   2.712   0.859   2.742  0.8473 -0.5071 -0.9523
  833SOL    HW112603   2.662   0.796   2.802  2.6863 -0.1778  0.9793
  833SOL    HW212604   2.731   0.815   2.655 -1.1324 -1.2965 -1.0066
  834SOL     OW12605   3.217   9.222   1.316 -0.1327  0.0852  0.4028
  834SOL    HW112606   3.246   9.260   1.228 -2.0036  0.1244 -0.2262
  834SOL    HW212607   3.121   9.197   1.311 -0.0840 -0.5578  2.2430
  835SOL     OW12608   2.160   1.862   1.948 -0.6300  0.1394 -0.0195
  835SOL    HW112609   2.199   1.923   1.880  2.9643  0.2140  2.0103
  835SOL    HW212610   2.142   1.773   1.906 -0.6453  0.8831 -1.6145
  836SOL     OW12611   3.354   3.624   0.922 -0.2789  0.0041 -0.0472
  836SOL    HW112612   3.365   3.530   0.890  0.2818 -0.1354  0.5652
  836SOL    HW212613   3.441   3.672   0.915  0.1068 -0.3051  2.1736
  837SOL     OW12614   2.756   1.189   2.216  0.0458  0.3334  0.0856
  837SOL    HW112615   2.749   1.170   2.118 -0.2671  2.9977 -0.4519
  837SOL    HW212616   2.773   1.103   2.266  0.2815 -1.0425 -2.2821
  838SOL     OW12617   9.837   2.247   0.912  0.2225 -0.7033  0.0179
  838SOL    HW112618   9.894   2.322   0.946 -0.9625 -0.0375  0.5345
  838SOL    HW212619   9.892   2.164   0.907  1.0387 -0.2553  1.2736
  839SOL     OW12620   2.073   6.878   1.861  0.0659 -0.0490  0.1600
  839SOL    HW112621   2.091   6.789   1.820 -0.4517 -0.6385  1.1969
  839SOL    HW212622   2.083   6.872   1.960 -0.0243  1.0355  0.2454
  840SOL     OW12623   1.630   1.626   2.790 -0.0953 -0.3160 -0.7847
  840SOL    HW112624   1.593   1.575   2.867 -1.5087  0.1473 -1.1518
  840SOL    HW212625   1.728   1.606   2.782  0.0716 -0.3642  1.1156
  841SOL     OW12626   1.083   5.801   0.346  0.3754  0.3814 -0.3204
  841SOL    HW112627   1.007   5.752   0.389 -1.4642  2.6229 -0.9538
  841SOL    HW212628   1.141   5.736   0.297 -0.5312 -1.4866  1.0043
  842SOL     OW12629  10.055   5.060   0.221 -0.2447  0.3045 -0.3614
  842SOL    HW112630  10.029   5.018   0.134  0.8151 -0.2162 -0.4495
  842SOL    HW212631   9.978   5.111   0.259 -0.1964  2.0182 -2.4706
  843SOL     OW12632   4.033   5.368   1.473  0.4200 -0.2386 -0.4677
  843SOL    HW112633   3.935   5.375   1.492  0.4241  0.0014 -0.5240
  843SOL    HW212634   4.084   5.420   1.543  0.3564  1.8160 -1.8889
  844SOL     OW12635   3.180   5.958   0.245 -0.1649 -0.3017  0.5668
  844SOL    HW112636   3.238   5.903   0.186 -1.7729  0.8112 -2.1240
  844SOL    HW212637   3.235   6.031   0.286  1.0141 -1.2158  0.6632
  845SOL     OW12638   0.955   1.706   0.996  0.0454  0.1335 -0.0544
  845SOL    HW112639   0.991   1.633   0.939 -0.1777  1.1964 -1.5897
  845SOL    HW212640   1.030   1.754   1.041  0.4954  1.4756 -2.1733
  846SOL     OW12641   3.805   9.178   1.094  0.0240 -0.0610  0.4409
  846SOL    HW112642   3.844   9.230   1.170  3.4367  0.4938 -1.5623
  846SOL    HW212643   3.829   9.081   1.104  1.0404  0.1152 -0.2545
  847SOL     OW12644   9.562   2.442   2.102  0.2909 -0.0539 -0.2330
  847SOL    HW112645   9.590   2.429   2.007  1.2247  0.7849 -0.0895
  847SOL    HW212646   9.614   2.381   2.162 -1.5121 -1.8055 -0.4171
  848SOL     OW12647   4.891   4.131   2.667 -0.0047 -0.1537  0.1812
  848SOL    HW112648   4.871   4.151   2.762  0.9941 -0.8076  0.5343
  848SOL    HW212649   4.983   4.164   2.644 -0.3019  0.1597 -0.6054
  849SOL     OW12650   1.398   9.784   1.143 -1.1585  0.1074  0.0993
  849SOL    HW112651   1.443   9.864   1.181  0.0630  0.5664 -2.1800
  849SOL    HW212652   1.402   9.788   1.043 -2.7996 -1.8271 -0.0852
  850SOL     OW12653   2.264   0.344   1.118  0.0809  0.0020 -0.0733
  850SOL    HW112654   2.282   0.402   1.197  1.6792 -1.0649  0.3625
  850SOL    HW212655   2.214   0.263   1.147  0.1277 -0.0953 -0.2634
  851SOL     OW12656   1.936   3.026   0.357 -0.5550  0.1069  0.0057
  851SOL    HW112657   1.902   2.937   0.386 -1.6598  0.1256 -1.1842
  851SOL    HW212658   1.859   3.089   0.347 -0.0921  0.4032 -1.9018
  852SOL     OW12659   2.391   9.231   1.839  0.2079 -0.5583 -0.0975
  852SOL    HW112660   2.309   9.214   1.785 -0.4386 -0.4770  0.8474
  852SOL    HW212661   2.381   9.188   1.929  0.0884  1.6987  0.9960
  853SOL     OW12662   9.992   6.136   2.656 -0.4388  0.2363  0.2019
  853SOL    HW112663  10.045   6.214   2.689  0.4170 -0.2446 -0.0406
  853SOL    HW212664  10.045   6.052   2.666 -1.0305 -0.2112 -0.3398
  854SOL     OW12665   3.907   0.391   1.806  0.4414 -0.0842  0.1711
  854SOL    HW112666   3.944   0.365   1.717 -2.4652 -0.2742 -1.0195
  854SOL    HW212667   3.868   0.483   1.801 -1.5504 -0.8806  0.6748
  855SOL     OW12668   2.083   5.335   1.544 -0.2766  0.1063  0.3307
  855SOL    HW112669   2.172   5.380   1.532  0.9143 -2.0072  0.9671
  855SOL    HW212670   2.093   5.237   1.527 -2.0111 -0.4845  2.5093
  856SOL     OW12671   8.934   6.708   1.835  0.4452 -0.3421 -0.1321
  856SOL    HW112672   8.954   6.612   1.852 -0.4914 -0.3207  1.2177
  856SOL    HW212673   8.849   6.717   1.784  0.3720 -0.2316  0.0069
  857SOL     OW12674  10.297   6.612   0.388 -0.2929  0.2463 -0.9902
  857SOL    HW112675  10.347   6.698   0.370  1.1294 -0.4377 -0.3800
  857SOL    HW212676  10.219   6.606   0.326  1.8533  0.1301 -3.7669
  858SOL     OW12677   1.644   5.377   0.396  0.3803 -0.4246  0.5014
  858SOL    HW112678   1.692   5.424   0.471 -0.6741 -0.2222  1.0654
  858SOL    HW212679   1.637   5.440   0.318  1.6232 -0.6898  0.1561
  859SOL     OW12680   3.216   8.276   0.736 -0.6274 -0.0033  0.1485
  859SOL    HW112681   3.181   8.317   0.652 -0.7644 -0.2556  0.0821
  859SOL    HW212682   3.149   8.287   0.809  0.5635  2.5377  0.9201
  860SOL     OW12683   3.602   4.892   1.189 -0.3265 -0.2416  0.3860
  860SOL    HW112684   3.559   4.868   1.276 -0.0173 -0.2714  0.5327
  860SOL    HW212685   3.682   4.951   1.207  0.2832 -0.9966  0.1880
  861SOL     OW12686   0.543   3.608   0.956 -0.4425 -0.4224 -0.4630
  861SOL    HW112687   0.479   3.685   0.965 -0.8391 -0.8679  0.6541
  861SOL    HW212688   0.575   3.581   1.047  2.9481  1.1201 -1.1174
  862SOL     OW12689   1.982   3.775   1.438 -0.1477  0.4195 -0.3161
  862SOL    HW112690   1.973   3.682   1.404  0.9861  0.0915  0.2488
  862SOL    HW212691   1.980   3.774   1.538  2.3000  0.7041 -0.2350
  863SOL     OW12692   2.498   0.466   0.994 -0.2079 -0.1225  0.2177
  863SOL    HW112693   2.582   0.415   0.978  0.0319  0.3821 -0.1175
  863SOL    HW212694   2.440   0.414   1.057 -0.9370 -1.8730 -1.8185
  864SOL     OW12695   2.468   2.867   0.688  0.3816  0.4390 -0.4846
  864SOL    HW112696   2.459   2.787   0.629  0.2127  0.0536  0.0571
  864SOL    HW212697   2.556   2.912   0.672  0.3759  0.2779 -0.9541
  865SOL     OW12698   0.608   5.103   1.243 -0.4600 -0.0320  0.4231
  865SOL    HW112699   0.531   5.063   1.293 -0.0796 -2.0191 -0.5374
  865SOL    HW212700   0.694   5.067   1.280 -0.1908 -1.9350 -1.9747
  866SOL     OW12701   9.676   6.817   1.751  0.2833 -0.2131 -0.1953
  866SOL    HW112702   9.758   6.760   1.763  1.4887  1.7738  1.3223
  866SOL    HW212703   9.626   6.821   1.838 -2.0365 -2.2336 -1.3612
  867SOL     OW12704   2.833   3.909   0.095  0.0106 -0.3449  1.0364
  867SOL    HW112705   2.808   3.823   0.139 -0.2578 -0.9324 -0.2626
  867SOL    HW212706   2.777   3.923   0.013  2.0565 -0.3730 -0.3968
  868SOL     OW12707   3.914   1.632   2.468 -0.4231 -0.6072 -0.0458
  868SOL    HW112708   3.816   1.625   2.446 -0.2271  0.1342 -1.1982
  868SOL    HW212709   3.925   1.647   2.566 -1.4473 -1.1062  0.1527
  869SOL     OW12710   3.620   4.029   0.983 -0.0200  0.1372 -0.5529
  869SOL    HW112711   3.677   4.048   0.903 -0.1319  0.1132 -0.6388
  869SOL    HW212712   3.539   4.088   0.980  0.4005  0.7571 -0.0095
  870SOL     OW12713   8.856   5.464   2.816  0.2447 -0.1159  0.6249
  870SOL    HW112714   8.900   5.543   2.773  1.6725 -0.2590  1.8004
  870SOL    HW212715   8.923   5.416   2.873 -1.5588 -0.1013  2.7726
  871SOL     OW12716  10.037   4.539   0.504 -0.3482 -0.9414  0.7448
  871SOL    HW112717  10.032   4.583   0.414 -0.9767  1.6390  1.9772
  871SOL    HW212718  10.131   4.540   0.537 -0.6086  1.0589  1.4854
  872SOL     OW12719  10.220   0.284   2.664 -0.2716  0.0427  0.2549
  872SOL    HW112720  10.238   0.286   2.762 -0.1032  1.3295  0.2107
  872SOL    HW212721  10.307   0.294   2.615 -0.3923 -0.3027 -0.0304
  873SOL     OW12722   4.356   3.415   1.744  0.0542 -0.0317  0.1651
  873SOL    HW112723   4.361   3.317   1.723 -0.6672  0.2867 -1.6590
  873SOL    HW212724   4.445   3.457   1.726  0.5950 -0.4857  1.7364
  874SOL     OW12725   1.064   9.906   1.539 -0.5685 -0.1198  0.2480
  874SOL    HW112726   1.145   9.878   1.488 -0.2388  1.7072 -0.2391
  874SOL    HW212727   1.006   9.826   1.554  1.1449 -1.3876  0.3207
  875SOL     OW12728   8.965   2.498   1.248  0.0174 -0.3188 -0.4412
  875SOL    HW112729   8.925   2.586   1.225  0.2664  0.5415  2.2278
  875SOL    HW212730   8.893   2.431   1.264 -0.1980 -0.3280 -1.4515
  876SOL     OW12731   2.941   8.728   2.315 -0.6339  0.0222  0.2314
  876SOL    HW112732   2.946   8.678   2.229 -0.8242 -1.0535  0.8382
  876SOL    HW212733   2.999   8.684   2.384  2.1280  2.7375 -0.2307
  877SOL     OW12734   2.141   1.704   0.606 -0.7235 -0.1009 -0.0813
  877SOL    HW112735   2.072   1.694   0.535 -0.6871 -1.9341  0.1327
  877SOL    HW212736   2.177   1.615   0.632 -0.9746  0.4930  2.4958
  878SOL     OW12737   8.949   3.405   0.727  0.0645 -0.4149  0.1118
  878SOL    HW112738   8.983   3.350   0.803 -0.5063 -2.1001 -0.8454
  878SOL    HW212739   8.953   3.353   0.642  2.6383  2.1324 -1.4279
  879SOL     OW12740   0.667   0.574   2.258  0.1547  0.0925 -0.3015
  879SOL    HW112741   0.730   0.650   2.245  0.3531  0.3031  1.7448
  879SOL    HW212742   0.576   0.609   2.279  0.1170 -0.2415  0.0887
  880SOL     OW12743   0.818   4.599   0.538 -0.6832 -0.1674 -0.1830
  880SOL    HW112744   0.771   4.578   0.624 -0.9224  2.1193  0.2719
  880SOL    HW212745   0.758   4.653   0.479 -0.4450 -1.5622 -1.7290
  881SOL     OW12746   1.827   1.991   1.662 -0.0892 -0.5376  0.0407
  881SOL    HW112747   1.806   1.994   1.564 -0.2863 -0.3815  0.0866
  881SOL    HW212748   1.851   1.898   1.688 -0.0251 -0.5773 -0.1595
  882SOL     OW12749   1.403   8.406   2.762  0.4160  0.1283 -0.1390
  882SOL    HW112750   1.433   8.497   2.789  1.3122 -0.0270 -0.5955
  882SOL    HW212751   1.414   8.342   2.838 -1.0569  0.5782  0.4732
  883SOL     OW12752   9.187   3.012   1.850  0.0982 -0.5806 -0.2967
  883SOL    HW112753   9.278   2.988   1.816 -0.3313 -0.8945 -1.2478
  883SOL    HW212754   9.139   3.068   1.782 -0.3982 -0.3752  0.2159
  884SOL     OW12755   2.107   9.494   1.403  0.2546 -0.4440  0.1968
  884SOL    HW112756   2.140   9.402   1.385  0.6339 -0.1372 -0.7148
  884SOL    HW212757   2.015   9.504   1.364  0.7298 -0.0455 -0.8327
  885SOL     OW12758   9.754   7.394   2.582 -0.1026  0.0892  0.1488
  885SOL    HW112759   9.760   7.494   2.572  1.1601  0.0740  0.7285
  885SOL    HW212760   9.699   7.357   2.507  0.1131  1.1320 -0.5411
  886SOL     OW12761  10.142   4.901   1.814  0.1893 -0.3130  0.0886
  886SOL    HW112762  10.239   4.898   1.791  0.4046  1.0916  0.7881
  886SOL    HW212763  10.117   4.993   1.843 -1.1172 -0.9218  0.9399
  887SOL     OW12764   1.551   7.484   2.617  0.6333 -0.5421 -0.0094
  887SOL    HW112765   1.640   7.439   2.615  0.2143 -1.3642 -0.3582
  887SOL    HW212766   1.555   7.564   2.677  1.2604 -1.3283  1.0134
  888SOL     OW12767   0.402   5.132   0.792 -0.5202  0.1878  0.0272
  888SOL    HW112768   0.383   5.035   0.805  0.7675 -0.3046 -1.5830
  888SOL    HW212769   0.414   5.152   0.695  0.1191  1.7777  0.4026
  889SOL     OW12770   9.181   4.500   1.456 -0.0652  0.2234  0.5577
  889SOL    HW112771   9.263   4.546   1.420 -0.3902  0.5863  0.2719
  889SOL    HW212772   9.103   4.561   1.448 -0.3387 -0.0738  0.9595
  890SOL     OW12773   2.184   5.988   2.480  0.1447  0.1556 -0.3502
  890SOL    HW112774   2.274   5.957   2.508  0.6485  1.5135 -0.4466
  890SOL    HW212775   2.137   6.030   2.557 -0.0482  0.2824 -0.5360
  891SOL     OW12776   3.345   7.268   2.717 -0.0921  0.0840 -0.1506
  891SOL    HW112777   3.437   7.230   2.724 -0.8044 -1.4057  1.3430
  891SOL    HW212778   3.351   7.368   2.720  1.4843  0.0200 -0.3401
  892SOL     OW12779   0.803   7.129   0.191 -0.1080 -0.1657 -0.5748
  892SOL    HW112780   0.808   7.108   0.289 -1.4202  0.5759 -0.3350
  892SOL    HW212781   0.732   7.198   0.176  1.3024  1.0330 -1.8454
  893SOL     OW12782   2.274   7.995   0.850 -0.5143  0.3262 -0.1819
  893SOL    HW112783   2.185   8.021   0.887 -1.3306 -1.7187 -0.5887
  893SOL    HW212784   2.275   7.896   0.835  0.6768  0.7274 -3.1894
  894SOL     OW12785   8.889   3.192   2.334  0.2728  0.9049 -0.2563
  894SOL    HW112786   8.834   3.179   2.416 -0.8373  1.5631 -0.8861
  894SOL    HW212787   8.978   3.147   2.346 -0.1650  0.3561  0.9987
  895SOL     OW12788   1.549   7.796   2.620 -0.7760 -0.4014  0.5759
  895SOL    HW112789   1.648   7.813   2.627 -0.9822  0.8098  0.6486
  895SOL    HW212790   1.509   7.795   2.712 -1.0091  0.2542  0.4872
  896SOL     OW12791   1.107   1.523   0.096 -0.1201  0.0121 -0.1670
  896SOL    HW112792   1.012   1.509   0.125  0.0018 -2.7384 -0.9338
  896SOL    HW212793   1.157   1.571   0.167 -1.6671 -0.0794  1.0113
  897SOL     OW12794   9.930   0.983   1.709  0.0535  0.2985 -0.0448
  897SOL    HW112795   9.928   1.043   1.629  0.2485 -1.2326 -1.2303
  897SOL    HW212796   9.861   1.013   1.775 -0.1929  1.5147 -0.8438
  898SOL     OW12797   1.092   7.242   1.127 -0.1739 -1.0227 -0.2488
  898SOL    HW112798   1.110   7.328   1.079 -0.1113 -0.6367  0.4483
  898SOL    HW212799   1.012   7.198   1.088 -1.2206  0.1935  0.4728
  899SOL     OW12800   3.680   2.777   1.521  0.3239  0.3012 -0.2340
  899SOL    HW112801   3.592   2.785   1.474 -0.9020  0.5925  2.0204
  899SOL    HW212802   3.702   2.865   1.565  1.0840 -0.1708  0.3440
  900SOL     OW12803   1.792   2.407   1.294  0.3098 -0.4675 -0.8724
  900SOL    HW112804   1.824   2.407   1.200  0.0791 -1.0343 -0.9510
  900SOL    HW212805   1.696   2.436   1.297  0.7088  0.8735 -0.6738
  901SOL     OW12806   0.717   7.501   0.262  0.1711  0.1704  0.6602
  901SOL    HW112807   0.703   7.468   0.169  0.3960 -1.5494  1.2214
  901SOL    HW212808   0.649   7.459   0.323  2.3104 -1.5948  1.8955
  902SOL     OW12809   9.966   8.098   1.434 -0.1272 -0.1828  0.2778
  902SOL    HW112810   9.969   8.180   1.491 -0.0228 -1.9495  2.9450
  902SOL    HW212811   9.878   8.051   1.448  0.3811 -1.2654 -0.0715
  903SOL     OW12812   1.085   4.957   2.070  0.2867  0.1699 -0.1065
  903SOL    HW112813   1.127   4.915   2.150 -0.7853 -0.0813  0.3339
  903SOL    HW212814   1.035   4.887   2.018  1.4863  0.2122 -1.3265
  904SOL     OW12815   4.073   9.176   2.142  0.6206  0.2837  0.5096
  904SOL    HW112816   3.985   9.128   2.145  1.6659 -1.6475  0.8992
  904SOL    HW212817   4.071   9.243   2.068 -1.0775  0.0460  0.3131
  905SOL     OW12818   0.665   9.088   0.586  0.0482  0.1110  0.3515
  905SOL    HW112819   0.658   9.106   0.684 -0.6779  1.8137  0.0010
  905SOL    HW212820   0.601   9.015   0.562 -0.0581 -0.0416  1.0817
  906SOL     OW12821   9.674   0.760   2.159 -0.0230 -0.0854  0.1201
  906SOL    HW112822   9.653   0.770   2.256 -3.4024  0.1690 -0.5571
  906SOL    HW212823   9.675   0.850   2.115 -2.8662 -0.4560 -0.8300
  907SOL     OW12824   4.175   8.507   1.528  0.0622 -0.5116  0.5600
  907SOL    HW112825   4.097   8.491   1.588  1.1463 -1.5005  1.7412
  907SOL    HW212826   4.238   8.571   1.572  0.8798 -1.2597  0.5047
  908SOL     OW12827   3.679   4.620   1.206 -0.0872  0.0155 -0.4847
  908SOL    HW112828   3.643   4.712   1.220  0.0889  0.0737 -0.4111
  908SOL    HW212829   3.663   4.565   1.288  0.1769  0.1036 -0.3723
  909SOL     OW12830   1.297   1.857   2.662  0.4208  0.1526 -1.0956
  909SOL    HW112831   1.346   1.790   2.607  0.4802  1.0864 -2.1966
  909SOL    HW212832   1.305   1.947   2.620  0.2639  0.8438  0.3162
  910SOL     OW12833   9.499   3.783   1.344 -0.5195 -0.0284 -0.1958
  910SOL    HW112834   9.516   3.759   1.248 -1.2438 -1.0806 -0.0676
  910SOL    HW212835   9.586   3.784   1.394 -0.2876 -0.7138 -0.5824
  911SOL     OW12836   0.687   2.521   0.450 -0.4106 -0.2744  0.2223
  911SOL    HW112837   0.667   2.581   0.527  0.7234 -0.0744  0.3768
  911SOL    HW212838   0.783   2.493   0.454  0.1402  1.1721 -2.1127
  912SOL     OW12839   3.733   3.231   1.202 -0.5908  0.2650 -0.6326
  912SOL    HW112840   3.742   3.278   1.114 -1.0796  2.1898  0.3224
  912SOL    HW212841   3.818   3.182   1.222 -0.3832  0.0255 -2.0436
  913SOL     OW12842   1.788   7.814   2.240 -0.1483  0.0706 -0.2207
  913SOL    HW112843   1.775   7.740   2.306 -1.0624 -1.7002 -2.3138
  913SOL    HW212844   1.699   7.854   2.217  0.0226 -0.1275 -1.2500
  914SOL     OW12845   4.577   9.226   2.835 -0.1622  0.0710  0.6064
  914SOL    HW112846   4.650   9.171   2.876  0.7458  0.8321  0.0249
  914SOL    HW212847   4.506   9.243   2.903 -1.5856 -3.7455  0.1989
  915SOL     OW12848   1.701   2.249   0.373  0.4490 -0.5675  0.0518
  915SOL    HW112849   1.676   2.197   0.291 -0.3384  1.3164 -0.9517
  915SOL    HW212850   1.790   2.293   0.359 -0.2867  0.8327 -0.3435
  916SOL     OW12851   1.651   3.771   0.620 -0.2279  0.5969  0.0308
  916SOL    HW112852   1.714   3.843   0.648  2.2735 -1.2359 -0.7468
  916SOL    HW212853   1.643   3.704   0.693  0.8861 -0.5902 -0.9167
  917SOL     OW12854   2.405   4.616   0.285  0.2906  0.2305  0.5764
  917SOL    HW112855   2.417   4.704   0.330  2.7278  0.5335 -0.5991
  917SOL    HW212856   2.480   4.555   0.311 -0.5555 -0.9940  0.1959
  918SOL     OW12857   4.644   1.176   0.314  0.0349  0.0251  0.7585
  918SOL    HW112858   4.645   1.271   0.347 -2.2850  1.6164 -3.3598
  918SOL    HW212859   4.733   1.154   0.273 -0.2601  1.4046 -0.6930
  919SOL     OW12860   1.389   4.223   1.842 -0.4034  0.3395 -0.4445
  919SOL    HW112861   1.400   4.241   1.744  2.4992  0.3191 -0.1535
  919SOL    HW212862   1.308   4.271   1.875 -1.2464  0.6069 -2.7801
  920SOL     OW12863   9.492   9.595   1.364 -0.0802 -0.0936  0.1635
  920SOL    HW112864   9.545   9.669   1.406  2.7032 -1.8812 -0.0461
  920SOL    HW212865   9.469   9.528   1.434  1.1553 -1.1298 -0.4070
  921SOL     OW12866   2.268   7.582   2.775 -0.2462  0.3641  0.6290
  921SOL    HW112867   2.325   7.629   2.708 -1.4824  1.1763  0.1348
  921SOL    HW212868   2.307   7.492   2.795  0.6299  0.4893 -0.4933
  922SOL     OW12869   9.416   7.699   1.635 -0.1558  0.2786 -0.2242
  922SOL    HW112870   9.466   7.782   1.611 -1.4183  0.9128 -0.7301
  922SOL    HW212871   9.336   7.690   1.575 -1.3321 -0.0509  1.3694
  923SOL     OW12872   0.528   3.526   1.454  0.8153 -0.9361  0.1311
  923SOL    HW112873   0.458   3.461   1.484  0.4872 -0.3635  0.6072
  923SOL    HW212874   0.530   3.604   1.517  1.0786 -0.3907 -0.5522
  924SOL     OW12875   1.397   4.999   1.529  0.2596  0.4471  0.3247
  924SOL    HW112876   1.455   5.029   1.453  1.6776  0.5902  1.4534
  924SOL    HW212877   1.397   5.068   1.601 -0.9287  0.2306  0.5441
  925SOL     OW12878   3.056   3.657   1.907 -0.3501  0.0277  0.2813
  925SOL    HW112879   3.107   3.695   1.984  2.2095 -1.2921 -0.7013
  925SOL    HW212880   3.065   3.717   1.827 -1.0547  0.2156  0.3388
  926SOL     OW12881   0.690   3.162   1.270  0.2311  0.2547 -0.1222
  926SOL    HW112882   0.677   3.104   1.189  2.3609 -1.2026  0.5400
  926SOL    HW212883   0.750   3.116   1.335  0.1472  2.2655  1.4398
  927SOL     OW12884   9.979   4.165   2.409 -0.4679  0.1490 -0.1149
  927SOL    HW112885   9.913   4.109   2.458 -0.0926  1.4446  1.9296
  927SOL    HW212886  10.068   4.120   2.408 -0.9024 -0.7182 -1.2318
  928SOL     OW12887   1.050   3.158   1.052  0.0988  0.3162 -0.4457
  928SOL    HW112888   1.057   3.193   0.959  1.3226 -0.5016 -0.6755
  928SOL    HW212889   0.962   3.113   1.064  1.0189 -2.0505 -2.1112
  929SOL     OW12890   0.373   8.982   1.585 -0.1097  0.7060  0.3051
  929SOL    HW112891   0.357   8.939   1.673 -2.8254  0.7502 -0.1351
  929SOL    HW212892   0.421   8.919   1.525  0.2085  0.0532  1.2374
  930SOL     OW12893   9.798   7.270   2.236 -0.0264  0.3311 -0.3478
  930SOL    HW112894   9.824   7.178   2.205 -1.7490 -0.5099  0.5831
  930SOL    HW212895   9.880   7.324   2.253  1.0631 -1.6402  0.8769
  931SOL     OW12896   3.942   0.743   1.012  0.8147  0.3867 -0.8269
  931SOL    HW112897   3.945   0.659   1.067 -0.9515  0.2468 -0.9159
  931SOL    HW212898   3.947   0.719   0.915 -0.7262  0.2748 -0.9010
  932SOL     OW12899   1.128   2.530   2.737 -0.2778  0.4618  0.4730
  932SOL    HW112900   1.201   2.560   2.676 -0.0784 -3.4924 -1.3604
  932SOL    HW212901   1.043   2.520   2.685 -0.7412 -0.3858  1.3767
  933SOL     OW12902   4.282   1.697   1.203  0.5729 -0.1690  0.3460
  933SOL    HW112903   4.266   1.657   1.113  1.3113 -0.8108  0.5028
  933SOL    HW212904   4.254   1.632   1.274  0.0665  0.3045  0.5899
  934SOL     OW12905   2.527   2.400   2.221  0.2775  0.9127 -0.8182
  934SOL    HW112906   2.602   2.438   2.274 -0.1343  1.2218 -0.4575
  934SOL    HW212907   2.459   2.471   2.202 -1.0839  0.0999  0.8677
  935SOL     OW12908   0.997   6.081   1.596  0.2074 -0.7454  0.1893
  935SOL    HW112909   1.028   6.139   1.521  1.2531 -1.4031  0.0949
  935SOL    HW212910   0.929   6.129   1.650  2.3324  1.2864  1.1614
  936SOL     OW12911   2.608   7.351   2.559 -0.1884 -0.1053 -0.1955
  936SOL    HW112912   2.667   7.408   2.503 -0.1892 -1.3811 -1.5315
  936SOL    HW212913   2.663   7.296   2.622 -0.0557 -0.2029 -0.3992
  937SOL     OW12914   3.401   4.197   1.083  0.1797 -0.0893  1.2659
  937SOL    HW112915   3.417   4.235   0.991  0.6244  0.1103  1.4225
  937SOL    HW212916   3.336   4.121   1.077  1.9041 -1.5529  0.4639
  938SOL     OW12917   9.461   4.107   2.204  0.0467  0.0252 -0.6650
  938SOL    HW112918   9.525   4.155   2.265 -0.4098  0.3473 -0.4416
  938SOL    HW212919   9.372   4.151   2.208  0.2505  0.5941 -2.2641
  939SOL     OW12920  10.219   5.114   1.176  0.1359  0.2631 -0.0060
  939SOL    HW112921  10.233   5.068   1.088  2.4231 -0.3806  0.6558
  939SOL    HW212922  10.306   5.153   1.207 -0.5852  0.2357  2.1088
  940SOL     OW12923  10.076   8.536   1.231  0.3948 -0.4521  0.1339
  940SOL    HW112924  10.003   8.468   1.220  0.0295 -0.8683  4.2679
  940SOL    HW212925  10.062   8.610   1.165 -3.6433 -0.6785  0.5895
  941SOL     OW12926   0.934   4.623   2.268  0.0437  0.1098  0.0731
  941SOL    HW112927   1.019   4.592   2.311 -0.1684  0.1967  0.5593
  941SOL    HW212928   0.858   4.566   2.299  0.3455 -1.7817 -2.5278
  942SOL     OW12929  10.049   0.089   1.884 -0.1037  0.4761 -0.8305
  942SOL    HW112930   9.984   0.014   1.895  0.9852 -0.6477 -1.9336
  942SOL    HW212931  10.080   0.094   1.789  1.8695  0.6031 -0.2054
  943SOL     OW12932   9.684   1.753   2.069  0.2676  0.3593  0.3160
  943SOL    HW112933   9.595   1.741   2.026  0.5457  0.8043 -0.3801
  943SOL    HW212934   9.739   1.818   2.016  1.4808 -0.8844  0.0215
  944SOL     OW12935  10.175   5.920   2.634  0.0489  0.1624  0.3920
  944SOL    HW112936  10.140   5.829   2.656  0.5204 -0.0497  0.2775
  944SOL    HW212937  10.267   5.912   2.596 -0.0539  0.6623  0.0329
  945SOL     OW12938   1.593   2.582   2.481 -0.8529 -0.3257  0.9551
  945SOL    HW112939   1.638   2.643   2.547 -1.3602 -0.2170  1.2047
  945SOL    HW212940   1.611   2.614   2.388  1.3613 -1.5041  0.9490
  946SOL     OW12941   0.922   5.434   0.927 -0.4699  0.4002 -0.0836
  946SOL    HW112942   0.957   5.351   0.884 -0.7280 -0.4348  1.2985
  946SOL    HW212943   0.956   5.514   0.877  1.3196 -0.4624 -0.2818
  947SOL     OW12944   0.810   8.007   0.189  0.1330  0.0998 -0.3537
  947SOL    HW112945   0.776   7.915   0.208 -2.2259  0.9282 -0.4065
  947SOL    HW212946   0.844   8.012   0.095 -0.1780 -0.5938 -0.5069
  948SOL     OW12947   9.187   3.370   0.281 -0.2314 -0.9453  0.0731
  948SOL    HW112948   9.128   3.365   0.200  0.2905 -0.2648 -0.3588
  948SOL    HW212949   9.216   3.464   0.295  1.9437 -1.4798 -0.6025
  949SOL     OW12950   2.169   8.236   1.974  0.2541 -0.8994 -0.6101
  949SOL    HW112951   2.240   8.194   2.031 -0.4436  0.5993  1.4052
  949SOL    HW212952   2.175   8.335   1.981 -2.1563 -0.7625 -0.2797
  950SOL     OW12953   1.862   9.053   1.893  0.2307  0.2878 -0.3804
  950SOL    HW112954   1.951   9.039   1.936 -0.1046 -0.3497  0.1220
  950SOL    HW212955   1.845   9.151   1.881  0.6505  0.4399  0.2664
  951SOL     OW12956   3.535   8.492   1.037  0.3112 -0.1763  0.1114
  951SOL    HW112957   3.475   8.452   1.107  0.3118  0.4165  0.4542
  951SOL    HW212958   3.484   8.560   0.984  1.0820  1.4510  1.4112
  952SOL     OW12959   9.562   0.776   1.182 -0.2017 -0.1050 -0.1214
  952SOL    HW112960   9.647   0.773   1.130 -0.8895 -0.0277 -1.2458
  952SOL    HW212961   9.539   0.871   1.202  0.0515 -0.1336  0.3246
  953SOL     OW12962   2.650   7.931   2.202  0.1000 -0.0220  0.0597
  953SOL    HW112963   2.703   7.939   2.118  0.5022 -0.7645  0.2343
  953SOL    HW212964   2.593   8.012   2.214 -0.5119 -0.2439 -1.3040
  954SOL     OW12965   0.643   7.934   1.681  0.6715 -0.5040  0.4129
  954SOL    HW112966   0.690   8.022   1.685  0.8530 -0.6132  0.6776
  954SOL    HW212967   0.679   7.880   1.604 -0.2499  0.1138 -0.4771
  955SOL     OW12968   9.913   9.991   2.809 -0.5317  0.0998 -0.0324
  955SOL    HW112969   9.974   9.922   2.771 -0.8689  0.4071 -1.1283
  955SOL    HW212970   9.902  10.066   2.745 -0.3342  1.0935  1.0675
  956SOL     OW12971   1.679   1.604   2.150  0.0011 -0.1004  0.0405
  956SOL    HW112972   1.704   1.639   2.240 -0.2386  2.7793 -0.9666
  956SOL    HW212973   1.760   1.606   2.090 -0.2182 -0.5325 -0.2766
  957SOL     OW12974   9.187   4.117   0.475  0.7234 -0.2820 -0.0255
  957SOL    HW112975   9.272   4.069   0.496  0.4597 -1.3958 -1.3769
  957SOL    HW212976   9.176   4.123   0.376 -0.3749  0.5692  0.1415
  958SOL     OW12977   4.696   9.528   1.971  0.4379  0.5169 -0.2662
  958SOL    HW112978   4.772   9.585   2.003  1.5954 -0.7278 -0.7591
  958SOL    HW212979   4.699   9.439   2.016 -0.2843  0.1899 -0.8479
  959SOL     OW12980   0.953   3.539   2.134 -0.4384 -0.0476  0.3027
  959SOL    HW112981   0.938   3.541   2.035  0.4507  1.6593  0.1725
  959SOL    HW212982   0.870   3.510   2.180 -0.9036 -0.7096 -0.9402
  960SOL     OW12983   2.360   7.461   2.392 -0.7258 -0.1162 -0.0529
  960SOL    HW112984   2.417   7.384   2.422  0.4471  0.8251  0.1286
  960SOL    HW212985   2.325   7.442   2.300 -0.3125 -0.8035 -0.0724
  961SOL     OW12986  10.031   9.726   1.642  0.4866 -0.3501 -0.8615
  961SOL    HW112987  10.078   9.779   1.712  0.2058 -1.1907 -0.0242
  961SOL    HW212988  10.053   9.764   1.551  1.5778  0.1868 -0.3904
  962SOL     OW12989   1.352   3.673   0.576  0.3894  0.0826 -0.1117
  962SOL    HW112990   1.275   3.658   0.639 -0.2447  1.1361 -0.6163
  962SOL    HW212991   1.392   3.763   0.594  0.3730  0.2797 -1.0391
  963SOL     OW12992   0.632   2.345   2.537 -0.3697  0.5524  0.0742
  963SOL    HW112993   0.588   2.403   2.605  1.4502  1.2933  0.6471
  963SOL    HW212994   0.661   2.259   2.580  0.5826  0.9281  0.1869
  964SOL     OW12995   9.460   6.246   1.270  0.1986  0.8402  0.2839
  964SOL    HW112996   9.517   6.190   1.210 -1.1540  0.8046 -0.9949
  964SOL    HW212997   9.388   6.190   1.311 -0.4423  1.3890 -0.0755
  965SOL     OW12998   3.188   7.690   2.339 -0.2164  0.0670  0.7404
  965SOL    HW112999   3.163   7.681   2.242 -2.7536 -0.7313  1.4369
  965SOL    HW213000   3.176   7.785   2.367  2.0410  0.6334 -0.0992
  966SOL     OW13001   1.338   4.668   0.486 -0.7776 -0.0902  0.1617
  966SOL    HW113002   1.350   4.732   0.562 -0.6177 -0.0716  0.1208
  966SOL    HW213003   1.391   4.585   0.504  0.6751  0.6247 -0.7479
  967SOL     OW13004   1.756   8.743   1.392 -0.3153 -0.1280 -0.5580
  967SOL    HW113005   1.715   8.652   1.398  0.2739 -0.3728 -0.1373
  967SOL    HW213006   1.776   8.776   1.484 -0.0834  0.2243 -0.7341
  968SOL     OW13007   0.384   0.167   1.792 -0.0922 -0.7049  0.3208
  968SOL    HW113008   0.424   0.079   1.767  0.7646  0.2851 -1.9509
  968SOL    HW213009   0.404   0.234   1.721 -0.3814  1.4524  2.2166
  969SOL     OW13010   1.309   4.993   2.762  0.5854 -0.2270 -0.3976
  969SOL    HW113011   1.386   5.056   2.758  1.3462 -1.0340  1.0351
  969SOL    HW213012   1.342   4.900   2.747 -0.1828 -0.5197 -0.2680
  970SOL     OW13013   1.124   0.842   1.466  0.6087  0.4892 -0.2978
  970SOL    HW113014   1.111   0.930   1.420 -1.0904  0.7335  0.5961
  970SOL    HW213015   1.038   0.813   1.508  1.1268 -1.6546 -0.6431
  971SOL     OW13016   2.220   7.964   2.818 -0.0404 -0.3861  0.0581
  971SOL    HW113017   2.256   7.871   2.810 -0.3201 -0.5085  0.2007
  971SOL    HW213018   2.248   8.004   2.905 -1.3451 -0.9718  0.7721
  972SOL     OW13019   1.516   3.476   0.661 -0.2644  0.2783 -0.1623
  972SOL    HW113020   1.469   3.549   0.611 -0.9896 -0.4346 -0.5318
  972SOL    HW213021   1.578   3.516   0.727 -0.6947  1.2392 -0.3294
  973SOL     OW13022   2.201   8.508   0.988  0.6661  0.7018 -0.3924
  973SOL    HW113023   2.144   8.569   1.043  0.1129  0.1006 -0.2918
  973SOL    HW213024   2.285   8.555   0.963 -0.3424  1.9636 -1.4514
  974SOL     OW13025   2.134   9.134   1.709  0.4255 -0.2334 -0.8897
  974SOL    HW113026   2.041   9.118   1.676  0.1016 -2.0429  0.8108
  974SOL    HW213027   2.179   9.046   1.726  0.8875  0.5697  2.5390
  975SOL     OW13028   1.348   1.714   1.713 -0.3266 -0.1339  0.4004
  975SOL    HW113029   1.334   1.780   1.787 -0.2783  0.1923  0.1171
  975SOL    HW213030   1.446   1.694   1.705 -0.2915  0.1206  0.1753
  976SOL     OW13031   2.877   3.639   0.879 -0.3693 -0.1741  0.2897
  976SOL    HW113032   2.819   3.668   0.954 -0.7542 -1.3936  0.4748
  976SOL    HW213033   2.878   3.710   0.808  1.3075  1.7332  2.1293
  977SOL     OW13034   0.441   7.898   1.076  0.0124  0.3679 -0.8160
  977SOL    HW113035   0.400   7.988   1.088 -0.4445 -0.0785  1.0776
  977SOL    HW213036   0.537   7.908   1.051 -0.0382  1.3788 -0.6025
  978SOL     OW13037   1.224   1.651   0.340 -0.2126  0.4946 -0.4006
  978SOL    HW113038   1.131   1.659   0.375 -0.2104  2.4323 -0.7712
  978SOL    HW213039   1.261   1.561   0.363 -2.1238 -0.2532 -0.1434
  979SOL     OW13040   3.500   3.850   0.406  0.5868 -0.2501 -0.7774
  979SOL    HW113041   3.515   3.923   0.339  0.7461  0.1741 -0.2833
  979SOL    HW213042   3.512   3.761   0.361  1.5916  0.0376 -1.1052
  980SOL     OW13043  10.008   8.298   2.816  0.2977  0.1782  0.0541
  980SOL    HW113044  10.075   8.225   2.799  1.7825  1.3645  0.7197
  980SOL    HW213045   9.931   8.287   2.753  1.2865 -0.9761 -1.0002
  981SOL     OW13046   9.847   4.841   2.062 -0.3221  0.6320  0.1757
  981SOL    HW113047   9.848   4.800   1.971 -0.1649  0.8064  0.0988
  981SOL    HW213048   9.754   4.839   2.099 -0.5599  1.4117 -0.3748
  982SOL     OW13049   2.705   4.367   2.314  0.4912 -0.8022 -0.0831
  982SOL    HW113050   2.700   4.372   2.414  0.3518 -0.9837 -0.0819
  982SOL    HW213051   2.655   4.444   2.275  0.1834 -0.9680 -0.0193
  983SOL     OW13052   2.839   8.539   2.092  0.0730 -0.1492  0.2858
  983SOL    HW113053   2.756   8.484   2.101 -0.4039  0.6711  0.9436
  983SOL    HW213054   2.836   8.590   2.006  0.4760 -1.0635 -0.2843
  984SOL     OW13055   3.406   9.357   2.835 -0.7456 -0.1419 -0.2084
  984SOL    HW113056   3.381   9.286   2.768 -1.1874 -1.2216  1.0898
  984SOL    HW213057   3.415   9.316   2.925 -2.7289  1.7929  0.8883
  985SOL     OW13058   1.004   3.112   0.104 -0.3135  0.3745  0.2231
  985SOL    HW113059   1.049   3.109   0.194  0.5167 -1.1596 -0.2298
  985SOL    HW213060   0.905   3.106   0.117 -0.2236  0.5819  1.0572
  986SOL     OW13061   0.511   5.361   2.031  0.4376 -0.4491  0.3525
  986SOL    HW113062   0.572   5.427   1.986  0.3407 -0.6404 -0.0622
  986SOL    HW213063   0.565   5.286   2.069  0.3711 -1.2543 -1.0938
  987SOL     OW13064   2.203   0.642   1.667 -0.2223  0.0068  0.4440
  987SOL    HW113065   2.155   0.573   1.614 -1.7685  1.4226 -0.0558
  987SOL    HW213066   2.201   0.617   1.764 -0.6926 -0.7054  0.2555
  988SOL     OW13067   0.888   3.144   0.777  0.0460  0.0105 -0.1395
  988SOL    HW113068   0.846   3.090   0.850  0.6324  1.2209  1.1309
  988SOL    HW213069   0.824   3.214   0.746 -0.0615 -0.2502 -0.4995
  989SOL     OW13070   2.295   5.824   0.972  0.0271  0.6788  0.1760
  989SOL    HW113071   2.369   5.860   0.915  0.3990  0.6997  0.6798
  989SOL    HW213072   2.223   5.787   0.912 -0.1465  1.8119 -0.3541
  990SOL     OW13073   1.390   4.223   2.113  0.0729  0.3913  0.3736
  990SOL    HW113074   1.381   4.152   2.183 -1.2587  1.0720  0.9168
  990SOL    HW213075   1.446   4.189   2.037 -0.6753 -1.2946  0.5643
  991SOL     OW13076   1.714   5.042   1.146 -0.1374  0.2635 -0.1603
  991SOL    HW113077   1.790   5.106   1.146  2.0906 -2.3046  0.5360
  991SOL    HW213078   1.747   4.950   1.124 -3.2856 -0.6417 -1.3887
  992SOL     OW13079   3.479   3.348   2.089 -0.3200 -0.1752 -0.1091
  992SOL    HW113080   3.567   3.309   2.063  0.5629  0.8474  1.2594
  992SOL    HW213081   3.467   3.436   2.042 -1.0275 -0.7339 -0.9909
  993SOL     OW13082   0.620   3.723   0.516  0.0608 -0.2815  0.1312
  993SOL    HW113083   0.601   3.636   0.471  0.2495  0.4460 -1.3799
  993SOL    HW213084   0.710   3.720   0.559 -0.4018 -1.2142  1.0234
  994SOL     OW13085   0.942   5.606   0.143  0.3470  0.3895 -1.1447
  994SOL    HW113086   0.955   5.654   0.056 -1.0931  1.9311 -0.5210
  994SOL    HW213087   1.010   5.532   0.150 -1.2534 -1.5831 -4.8019
  995SOL     OW13088   9.366   8.029   0.839 -0.2709  0.2706 -0.1363
  995SOL    HW113089   9.374   8.059   0.934  2.1765  1.3119 -0.6196
  995SOL    HW213090   9.387   8.106   0.778 -0.3584 -0.7618 -1.4874
  996SOL     OW13091   3.279   8.534   2.666 -0.1226 -0.4202 -0.1875
  996SOL    HW113092   3.298   8.620   2.713 -1.7686 -0.1884  0.0698
  996SOL    HW213093   3.184   8.532   2.636 -0.2115 -2.3028  0.1416
  997SOL     OW13094   9.910   0.174   0.469  0.2756 -0.1292  0.6080
  997SOL    HW113095   9.926   0.273   0.467 -2.6738  0.3800  0.5764
  997SOL    HW213096   9.874   0.144   0.381 -3.5028 -0.3402  2.1478
  998SOL     OW13097   2.565   5.521   2.192 -0.1135 -0.0930 -0.7161
  998SOL    HW113098   2.512   5.439   2.171 -1.5090  0.7490 -0.4985
  998SOL    HW213099   2.569   5.580   2.112 -1.4040  0.8801 -0.0889
  999SOL     OW13100   9.367   0.190   1.992 -0.3374 -0.7332  0.3888
  999SOL    HW113101   9.396   0.099   1.963 -4.7774 -2.0637 -0.2308
  999SOL    HW213102   9.379   0.199   2.091  0.2296 -1.9480  0.4350
 1000SOL     OW13103   3.394   7.993   0.296 -0.3695  0.1594  0.0890
 1000SOL    HW113104   3.385   7.920   0.228 -3.4909  0.3570  0.2043
 1000SOL    HW213105   3.443   8.070   0.256  0.4792 -0.9061 -0.9542
 1001SOL     OW13106   0.868   5.207   0.152  0.5721 -0.2381  0.4030
 1001SOL    HW113107   0.924   5.165   0.080  0.6336  0.7584 -0.1423
 1001SOL    HW213108   0.843   5.138   0.219  0.8881 -1.0907 -0.3448
 1002SOL     OW13109   3.911   8.336   0.798 -0.7970  0.0149 -0.1967
 1002SOL    HW113110   3.929   8.379   0.709 -1.5704 -0.7039 -0.7105
 1002SOL    HW213111   3.994   8.340   0.854 -0.7696  1.9057 -0.3398
 1003SOL     OW13112   4.560   1.481   2.145  0.4085  0.4862  0.0017
 1003SOL    HW113113   4.621   1.409   2.176 -0.0771  0.0863  0.0460
 1003SOL    HW213114   4.523   1.457   2.055  0.3688  0.7535 -0.0552
 1004SOL     OW13115   3.093   6.351   0.909  0.1652  0.3956  0.5710
 1004SOL    HW113116   3.162   6.411   0.870 -0.3033  1.4853  1.3923
 1004SOL    HW213117   3.008   6.402   0.924 -0.4712 -0.6513  0.5860
 1005SOL     OW13118  10.066   5.326   1.036  0.1860 -0.4681  0.7205
 1005SOL    HW113119  10.066   5.416   0.992 -0.1748 -1.3604 -1.1537
 1005SOL    HW213120  10.105   5.334   1.128  0.4805  1.5361  0.4465
 1006SOL     OW13121   3.949   3.321   2.587  0.4947 -0.9701 -0.5616
 1006SOL    HW113122   3.928   3.230   2.553 -3.1250  0.4762 -2.4872
 1006SOL    HW213123   4.008   3.369   2.520  1.3077 -1.4175 -0.1735
 1007SOL     OW13124   4.428   1.866   1.408  0.2807  0.5164  0.3429
 1007SOL    HW113125   4.378   1.790   1.450  0.0188  0.7436  0.4446
 1007SOL    HW213126   4.470   1.835   1.323 -4.0213  1.5060 -2.2983
 1008SOL     OW13127   1.766   3.977   1.858  0.3226 -0.0506 -0.2824
 1008SOL    HW113128   1.820   4.060   1.869  0.0375  0.4861 -2.6213
 1008SOL    HW213129   1.791   3.910   1.928  1.9624  1.2718  0.3989
 1009SOL     OW13130   2.031   2.886   0.873  0.8593 -0.1420  0.6502
 1009SOL    HW113131   1.939   2.852   0.853  0.7443 -0.1602  1.1861
 1009SOL    HW213132   2.082   2.898   0.788 -0.1139  1.2331  0.2462
 1010SOL     OW13133   9.286   7.605   0.322 -0.2422  0.1303 -0.2894
 1010SOL    HW113134   9.265   7.674   0.391 -1.9392 -1.3214  0.6897
 1010SOL    HW213135   9.257   7.638   0.232 -2.0966  0.2563  0.3358
 1011SOL     OW13136   1.528   5.164   0.272  0.1387 -0.0032  0.6161
 1011SOL    HW113137   1.561   5.246   0.319 -0.2376  0.4329  0.1259
 1011SOL    HW213138   1.539   5.176   0.173  0.5142 -0.7342  0.5643
 1012SOL     OW13139   4.439   3.125   0.937 -0.1358  0.0682 -0.5492
 1012SOL    HW113140   4.387   3.054   0.888  2.1121 -2.2063  0.2852
 1012SOL    HW213141   4.504   3.168   0.873  1.9205 -2.0393  0.0632
 1013SOL     OW13142   1.330   3.334   0.845  0.0910  0.7080 -0.1026
 1013SOL    HW113143   1.267   3.389   0.900 -0.6761  0.9288 -1.1793
 1013SOL    HW213144   1.381   3.394   0.783  0.4652  0.3906 -0.1006
 1014SOL     OW13145   4.509   0.497   2.531  0.2100 -0.4956 -0.1837
 1014SOL    HW113146   4.597   0.542   2.514  0.0843 -0.4916 -0.8158
 1014SOL    HW213147   4.442   0.566   2.559  0.3025 -0.4469 -0.0759
 1015SOL     OW13148   2.078   1.496   2.199  0.6340 -0.0031  0.1417
 1015SOL    HW113149   2.061   1.582   2.247  1.5690 -0.6266  1.6279
 1015SOL    HW213150   1.992   1.446   2.187 -0.0962  1.6953 -1.8311
 1016SOL     OW13151   2.281   9.209   0.466 -0.1762  0.3455 -0.5890
 1016SOL    HW113152   2.216   9.183   0.537  2.9202  0.3451  2.3819
 1016SOL    HW213153   2.352   9.140   0.458  1.7356  2.2677 -0.8240
 1017SOL     OW13154   3.778   9.816   0.513 -0.0185 -0.0413 -0.0195
 1017SOL    HW113155   3.869   9.776   0.508 -1.2037 -2.9171  0.6894
 1017SOL    HW213156   3.731   9.804   0.425 -0.1253  0.4547 -0.0332
 1018SOL     OW13157  10.039   6.698   0.686  0.0939  0.3682 -0.2469
 1018SOL    HW113158  10.068   6.669   0.777  1.8496  1.6612 -0.3539
 1018SOL    HW213159   9.975   6.632   0.648  1.6022 -1.7108  0.7456
 1019SOL     OW13160   0.418   1.315   0.325  0.2573  0.3571  0.2545
 1019SOL    HW113161   0.383   1.347   0.413  1.7320 -0.0902  1.0175
 1019SOL    HW213162   0.473   1.233   0.339  2.3451  1.5421 -0.7927
 1020SOL     OW13163   9.996   6.053   0.524  0.0086  0.1699 -0.1080
 1020SOL    HW113164   9.994   6.149   0.552 -0.1903  0.1697 -0.1267
 1020SOL    HW213165   9.931   6.038   0.449  0.1211  0.0448 -0.1823
 1021SOL     OW13166   0.936   7.450   1.383 -0.1092  0.6505 -0.4602
 1021SOL    HW113167   1.030   7.419   1.368  0.1652  1.0276  0.4265
 1021SOL    HW213168   0.873   7.374   1.368  0.3303  0.4000 -1.0771
 1022SOL     OW13169   2.636   6.707   0.141  0.1544 -0.4856  0.4030
 1022SOL    HW113170   2.605   6.613   0.125  0.2541 -0.5752  0.7369
 1022SOL    HW213171   2.589   6.744   0.221 -0.0916 -0.1533  0.1063
 1023SOL     OW13172   9.170   3.481   2.328  0.1218 -0.1525  0.3497
 1023SOL    HW113173   9.073   3.486   2.306  0.2977  1.9600 -0.0240
 1023SOL    HW213174   9.200   3.566   2.371  1.7578 -0.8717  0.7094
 1024SOL     OW13175   0.735   4.415   2.268 -0.1538  0.0092  0.0725
 1024SOL    HW113176   0.635   4.415   2.272 -0.2511  1.3440 -1.7856
 1024SOL    HW213177   0.765   4.393   2.175  1.2226  1.5185  0.1366
 1025SOL     OW13178   4.107   0.225   2.522  0.0330 -0.0267  0.2724
 1025SOL    HW113179   4.148   0.311   2.495 -1.0540  0.4262  0.0519
 1025SOL    HW213180   4.133   0.153   2.457 -0.4900  0.5055 -0.5269
 1026SOL     OW13181   3.253   0.552   1.904 -0.0906 -0.2077 -0.1201
 1026SOL    HW113182   3.352   0.547   1.913 -0.1154  0.7175  0.7998
 1026SOL    HW213183   3.228   0.641   1.864 -0.5352 -0.5528 -0.6169
 1027SOL     OW13184   0.840   1.494   0.128 -0.1393 -0.2177 -0.3649
 1027SOL    HW113185   0.787   1.439   0.192  1.4157 -0.4860  0.7399
 1027SOL    HW213186   0.836   1.590   0.156  0.5085 -0.3298  0.1299
 1028SOL     OW13187   1.035   5.622   1.350  0.0200  0.6885  0.2043
 1028SOL    HW113188   1.130   5.633   1.380  0.0491  1.4134 -0.1546
 1028SOL    HW213189   0.986   5.709   1.361 -0.9101  0.0236  1.4711
 1029SOL     OW13190   0.921   6.690   1.645  0.4559 -0.2016 -0.2165
 1029SOL    HW113191   0.914   6.789   1.649 -0.1647 -0.1933 -1.3419
 1029SOL    HW213192   0.879   6.650   1.727  1.8805  0.4939  0.8826
 1030SOL     OW13193   0.342   7.990   2.459  0.1205 -0.6007 -0.1027
 1030SOL    HW113194   0.248   8.014   2.484  0.4073  1.1615 -0.6762
 1030SOL    HW213195   0.406   8.039   2.518  0.7048 -1.7390  0.2319
 1031SOL     OW13196   3.136   2.775   0.973  0.3117  0.8915 -0.1916
 1031SOL    HW113197   3.203   2.718   0.925  0.3670  1.2008 -0.4840
 1031SOL    HW213198   3.166   2.789   1.068  0.3805  0.5719 -0.1649
 1032SOL     OW13199   1.693   5.863   0.127 -0.2345 -0.3475 -0.2927
 1032SOL    HW113200   1.783   5.863   0.084  0.3421  0.4990  0.8775
 1032SOL    HW213201   1.696   5.917   0.212 -1.9392  0.0661 -0.4609
 1033SOL     OW13202   0.764   7.805   1.472  0.8143  0.1679 -0.7696
 1033SOL    HW113203   0.849   7.764   1.440  0.2527  0.2252 -2.3533
 1033SOL    HW213204   0.694   7.796   1.402 -0.4308  0.3311  0.4332
 1034SOL     OW13205   0.600   4.497   0.123  0.4570  0.2517 -0.3251
 1034SOL    HW113206   0.547   4.439   0.185 -0.2430 -0.6968 -1.7800
 1034SOL    HW213207   0.693   4.461   0.115  0.1370 -0.4636 -0.9143
 1035SOL     OW13208  10.037   5.435   1.877  0.1065  0.1354 -0.8978
 1035SOL    HW113209   9.946   5.464   1.905  0.1277  0.8530 -1.5625
 1035SOL    HW213210  10.064   5.485   1.795  1.6734  0.9633  0.0927
 1036SOL     OW13211   0.499   1.203   2.168  0.0244  0.2215  0.7736
 1036SOL    HW113212   0.493   1.157   2.079  1.2344 -0.2669  0.9348
 1036SOL    HW213213   0.565   1.155   2.225 -1.6115 -0.1717  2.3665
 1037SOL     OW13214   2.791   7.227   2.695  0.1029  0.5903 -0.3763
 1037SOL    HW113215   2.890   7.236   2.688  0.2078 -1.7366 -2.3126
 1037SOL    HW213216   2.768   7.142   2.740 -1.0353  1.4529  0.7030
 1038SOL     OW13217   9.319   2.084   2.627  0.0874  0.0550  0.0911
 1038SOL    HW113218   9.262   2.003   2.643  0.6630 -0.5191 -0.7617
 1038SOL    HW213219   9.390   2.089   2.698 -0.7099  0.4967  0.8645
 1039SOL     OW13220   4.940   3.897   1.565  0.2213  0.1463 -0.2664
 1039SOL    HW113221   4.953   3.800   1.548 -1.1706  0.1360 -1.3006
 1039SOL    HW213222   5.004   3.927   1.637 -1.6541 -2.2687  2.5313
 1040SOL     OW13223   9.455   8.820   0.766  0.2284 -0.0025  0.5345
 1040SOL    HW113224   9.549   8.787   0.752  0.0053 -0.4882  0.1546
 1040SOL    HW213225   9.453   8.881   0.845  0.7798 -0.3604  0.8340
 1041SOL     OW13226   8.941   3.416   0.164  0.4261 -0.5084  0.0394
 1041SOL    HW113227   8.844   3.419   0.141  0.6483  1.2613 -0.7235
 1041SOL    HW213228   8.952   3.421   0.263 -0.2444 -0.2191  0.1037
 1042SOL     OW13229   9.776   0.362   1.157  0.1235  0.0751  0.1284
 1042SOL    HW113230   9.817   0.450   1.132  1.5143 -0.0073  1.9702
 1042SOL    HW213231   9.788   0.297   1.083  2.3658  0.3971  0.1754
 1043SOL     OW13232   2.297   2.142   1.995 -0.3858 -0.1131  0.3761
 1043SOL    HW113233   2.238   2.116   1.919 -0.3449  0.1273  0.2594
 1043SOL    HW213234   2.331   2.235   1.980 -0.2583 -0.1203  0.6149
 1044SOL     OW13235   1.778   4.036   0.629  0.5085 -0.0626  0.0669
 1044SOL    HW113236   1.771   4.120   0.682 -0.6184  0.1088 -0.3658
 1044SOL    HW213237   1.727   4.044   0.544 -1.7462 -2.0739  1.1705
 1045SOL     OW13238   0.628   9.291   0.838 -0.0630 -0.1776 -0.1264
 1045SOL    HW113239   0.586   9.352   0.770  4.0869  1.5873 -1.2832
 1045SOL    HW213240   0.652   9.343   0.919 -1.7127 -1.5548  1.2874
 1046SOL     OW13241   1.324   4.888   1.772  1.4385 -0.3713  0.0326
 1046SOL    HW113242   1.331   4.920   1.677 -0.0064  1.3384  0.4621
 1046SOL    HW213243   1.415   4.864   1.805  2.7461  3.7379 -0.2413
 1047SOL     OW13244   4.026   9.318   1.874  0.4406  0.0563 -0.2177
 1047SOL    HW113245   4.079   9.366   1.805  0.3190 -0.8167 -0.9276
 1047SOL    HW213246   3.929   9.331   1.857  0.4193  0.9123  0.5550
 1048SOL     OW13247  10.263   1.002   2.816  0.5868  0.7686 -0.1101
 1048SOL    HW113248  10.321   0.927   2.783 -1.8393 -0.7423 -1.0523
 1048SOL    HW213249  10.172   0.994   2.776 -0.4240  2.8730  1.6588
 1049SOL     OW13250   8.532   6.820   2.369 -0.6501  0.2495  0.2523
 1049SOL    HW113251   8.630   6.837   2.355 -0.4463 -0.7927  0.3435
 1049SOL    HW213252   8.492   6.896   2.421  0.0762  0.7556  0.0770
 1050SOL     OW13253   2.727   3.628   2.680  0.2643  0.2157 -0.3011
 1050SOL    HW113254   2.642   3.584   2.652  0.6947 -0.7155 -0.1535
 1050SOL    HW213255   2.730   3.721   2.644 -1.0432  0.4175  0.1270
 1051SOL     OW13256   2.049   3.298   2.403  0.0315  0.2693  0.2308
 1051SOL    HW113257   2.069   3.374   2.342 -0.3040  0.6982  0.6561
 1051SOL    HW213258   2.043   3.331   2.497 -1.7425 -0.0125  0.2275
 1052SOL     OW13259   1.589   5.769   2.062 -0.6476  0.1270 -0.2619
 1052SOL    HW113260   1.628   5.849   2.016  2.6766 -1.8077 -0.9620
 1052SOL    HW213261   1.546   5.710   1.994  2.4746 -1.7329 -0.6943
 1053SOL     OW13262   2.580   0.113   1.209  0.9358  0.1288  0.1852
 1053SOL    HW113263   2.563   0.084   1.303 -0.2954  1.9885  0.5702
 1053SOL    HW213264   2.655   0.179   1.207  0.5009  0.6232 -0.0409
 1054SOL     OW13265   9.440   7.916   1.880  0.0117 -0.5578  0.0937
 1054SOL    HW113266   9.503   7.979   1.925 -0.4797 -0.4057  0.5731
 1054SOL    HW213267   9.431   7.941   1.783  0.4990 -0.4363  0.0776
 1055SOL     OW13268   3.457   4.538   1.654 -0.2067 -0.7907 -0.2000
 1055SOL    HW113269   3.437   4.447   1.690 -2.0958 -0.7884 -1.1595
 1055SOL    HW213270   3.478   4.531   1.556  0.1874 -0.2632 -0.1536
 1056SOL     OW13271   3.189   6.770   0.544 -0.5493  0.1864 -0.2085
 1056SOL    HW113272   3.220   6.739   0.634  0.8213  0.0853 -0.6991
 1056SOL    HW213273   3.223   6.707   0.474 -0.4668  1.0074 -0.9205
 1057SOL     OW13274   1.416   6.504   0.404  0.2651  0.9841 -0.7963
 1057SOL    HW113275   1.464   6.491   0.491  0.2791 -1.1639 -1.1028
 1057SOL    HW213276   1.320   6.481   0.415  0.5687 -0.7605 -1.7080
 1058SOL     OW13277   9.886   3.710   0.492 -0.3505 -0.2083 -0.6549
 1058SOL    HW113278   9.883   3.809   0.474  0.0214  0.1983  1.4296
 1058SOL    HW213279   9.800   3.682   0.534  0.1189 -0.4928  0.1135
 1059SOL     OW13280   9.228   8.516   0.993  0.2903 -0.1406 -0.5136
 1059SOL    HW113281   9.218   8.495   0.895 -1.0027 -2.2040  0.0247
 1059SOL    HW213282   9.149   8.568   1.024  1.2891  1.5827 -0.8210
 1060SOL     OW13283   5.030   2.283   1.190 -0.4274  0.1709 -0.4409
 1060SOL    HW113284   5.075   2.361   1.233  3.0358 -2.0937  0.2264
 1060SOL    HW213285   5.010   2.213   1.260 -1.0944 -0.6461 -1.4295
 1061SOL     OW13286   9.849   4.815   0.408  0.4192 -0.3949 -0.1867
 1061SOL    HW113287   9.783   4.799   0.482 -0.7666  1.3881 -0.8125
 1061SOL    HW213288   9.815   4.889   0.350  2.3182 -0.4235 -1.3472
 1062SOL     OW13289   9.684   9.214   2.628 -0.4519 -0.5836 -0.6116
 1062SOL    HW113290   9.754   9.149   2.598 -1.1833 -1.5470 -0.2714
 1062SOL    HW213291   9.704   9.305   2.592  2.0426 -0.4220  1.0966
 1063SOL     OW13292   1.659   9.599   0.879 -0.3538  0.1835  0.1756
 1063SOL    HW113293   1.624   9.530   0.815  0.9614  0.8644 -1.2990
 1063SOL    HW213294   1.629   9.690   0.850  0.2997  0.4984  0.4824
 1064SOL     OW13295   1.555   7.938   1.611  0.4096  0.3386  0.1797
 1064SOL    HW113296   1.587   8.029   1.636  0.2740  0.4317  0.0219
 1064SOL    HW213297   1.529   7.887   1.693 -1.5319  1.2050  0.1307
 1065SOL     OW13298   4.300   9.356   0.486  0.0698  0.0499  0.0392
 1065SOL    HW113299   4.232   9.305   0.540  0.6642 -0.1617  0.5941
 1065SOL    HW213300   4.284   9.454   0.497 -0.2663 -0.0006  0.0172
 1066SOL     OW13301   2.756   4.274   2.643  0.5007  0.0892  0.5977
 1066SOL    HW113302   2.672   4.227   2.617  0.4679  0.4785 -0.0168
 1066SOL    HW213303   2.742   4.325   2.728 -0.0153  0.5188  0.2551
 1067SOL     OW13304   9.978   4.621   0.246  0.2643  0.2012 -0.0493
 1067SOL    HW113305   9.920   4.558   0.193  0.4274 -0.1560  0.1917
 1067SOL    HW213306   9.922   4.690   0.289  0.0474  0.0244 -0.0470
 1068SOL     OW13307   4.355   9.101   1.288 -0.0612  1.1152  0.0728
 1068SOL    HW113308   4.304   9.185   1.270 -2.3883 -0.1617  0.4773
 1068SOL    HW213309   4.346   9.039   1.211 -0.1302  0.3929  0.6551
 1069SOL     OW13310   2.943   5.755   1.787  0.0356 -0.3457 -0.2973
 1069SOL    HW113311   3.020   5.755   1.851  1.1428  0.2625 -1.6118
 1069SOL    HW213312   2.900   5.665   1.788  1.4238 -1.0282 -0.3292
 1070SOL     OW13313   9.563   3.021   0.765  0.1485 -0.4030 -0.0817
 1070SOL    HW113314   9.618   2.971   0.698 -1.0761  0.2923 -1.6518
 1070SOL    HW213315   9.541   2.962   0.842 -0.0052 -1.8321 -1.1928
 1071SOL     OW13316  10.217   7.724   0.281  0.5087 -0.2646 -0.3676
 1071SOL    HW113317  10.119   7.740   0.293  0.4194 -1.1341  0.1248
 1071SOL    HW213318  10.239   7.723   0.184  0.1194  0.4503 -0.4656
 1072SOL     OW13319   2.066   3.029   1.953 -0.7156 -0.2204  0.0162
 1072SOL    HW113320   1.979   3.026   1.904 -1.3210  0.7830  1.0092
 1072SOL    HW213321   2.141   3.033   1.887 -1.4793  0.1228 -0.8406
 1073SOL     OW13322   2.633   7.496   1.038 -0.5655 -0.4944 -0.5227
 1073SOL    HW113323   2.581   7.530   0.959 -0.3646  2.4575  0.5602
 1073SOL    HW213324   2.570   7.470   1.111 -0.6402  0.7547 -0.1260
 1074SOL     OW13325   9.504   4.386   0.251  0.1542  0.2742 -0.6775
 1074SOL    HW113326   9.433   4.318   0.233  0.9399 -0.4471 -1.0907
 1074SOL    HW213327   9.561   4.398   0.170  0.9291  0.3427 -0.1319
 1075SOL     OW13328   2.410   3.784   2.810 -0.0985 -0.0430 -0.1146
 1075SOL    HW113329   2.388   3.873   2.769  0.5080  0.1819  0.0404
 1075SOL    HW213330   2.340   3.759   2.876  0.4525  0.9844  0.8776
 1076SOL     OW13331   1.723   2.055   2.348 -0.0256  0.1783  0.0850
 1076SOL    HW113332   1.627   2.047   2.374  0.0252 -0.7969  0.0264
 1076SOL    HW213333   1.780   2.049   2.430  0.0753 -1.5536 -0.0872
 1077SOL     OW13334   4.647   9.157   1.299 -0.1786  0.3047  0.3398
 1077SOL    HW113335   4.658   9.239   1.243  0.0981  1.3897  1.9477
 1077SOL    HW213336   4.550   9.138   1.312 -0.2634  1.1515  1.0344
 1078SOL     OW13337   1.681   4.115   1.481  0.2865 -0.4158 -0.2362
 1078SOL    HW113338   1.601   4.168   1.453  0.6425 -0.1067 -0.6837
 1078SOL    HW213339   1.652   4.036   1.535 -0.1821  0.6902  1.1362
 1079SOL     OW13340   3.376   3.369   0.428  0.2925  0.1081  0.1636
 1079SOL    HW113341   3.439   3.424   0.372  0.7108  1.7042  2.1379
 1079SOL    HW213342   3.310   3.429   0.473 -0.4401 -1.2043  0.8776
 1080SOL     OW13343   1.972   0.717   0.642 -0.5726  0.4689  0.3507
 1080SOL    HW113344   1.954   0.720   0.740 -0.5180  1.0266  0.3421
 1080SOL    HW213345   1.909   0.777   0.594  1.8700  3.1654  0.4116
 1081SOL     OW13346   1.946   8.884   1.683 -0.1890 -0.6990  0.1807
 1081SOL    HW113347   1.897   8.939   1.751  0.3716 -0.7322  0.6162
 1081SOL    HW213348   1.968   8.941   1.604 -1.7216 -0.9177 -0.4077
 1082SOL     OW13349   2.842   0.866   0.288 -0.2753 -0.2556  0.3086
 1082SOL    HW113350   2.907   0.875   0.363  1.3353 -0.0068 -1.0702
 1082SOL    HW213351   2.778   0.942   0.289  0.0477  0.0026  1.1352
 1083SOL     OW13352   1.798   9.216   2.647 -0.7000  0.1411  0.4734
 1083SOL    HW113353   1.770   9.284   2.580  1.0036  1.1741  0.7696
 1083SOL    HW213354   1.836   9.262   2.727 -0.2425 -1.1445  1.0056
 1084SOL     OW13355   4.089   4.871   1.390 -0.1366 -0.4069 -0.4818
 1084SOL    HW113356   4.065   4.926   1.311 -1.0281 -1.1373 -0.7354
 1084SOL    HW213357   4.085   4.927   1.473  2.2234  0.7254 -1.0902
 1085SOL     OW13358   3.927   2.673   1.585 -0.0212 -0.1627  0.1413
 1085SOL    HW113359   3.848   2.715   1.541 -0.3567 -0.7182  0.2133
 1085SOL    HW213360   3.989   2.745   1.617 -1.2425  0.3252  1.4598
 1086SOL     OW13361  10.165   5.564   1.665 -0.1556 -0.1240 -0.0858
 1086SOL    HW113362  10.256   5.583   1.701 -0.6085  0.0179  1.0098
 1086SOL    HW213363  10.173   5.527   1.572  1.0409 -0.6726  0.2211
 1087SOL     OW13364   3.623   9.534   0.490  0.0793 -0.0803  0.0096
 1087SOL    HW113365   3.621   9.581   0.579  1.1208 -0.9317  0.4927
 1087SOL    HW213366   3.716   9.505   0.470 -0.3406 -0.8512 -0.8662
 1088SOL     OW13367   1.130   7.910   2.195  0.7234  0.2239  0.2427
 1088SOL    HW113368   1.158   7.922   2.290  0.9747  0.2665  0.1614
 1088SOL    HW213369   1.189   7.963   2.135  1.3921 -0.8424 -0.0507
 1089SOL     OW13370   9.793   8.927   1.401  0.8764  0.3474 -0.0668
 1089SOL    HW113371   9.779   8.924   1.500  2.4902 -2.1116  0.1262
 1089SOL    HW213372   9.889   8.949   1.381  1.3080 -2.1716 -0.9880
 1090SOL     OW13373   4.052   0.868   2.222  0.1759 -0.2769 -0.1664
 1090SOL    HW113374   4.000   0.893   2.141 -1.9595 -2.0758  0.5979
 1090SOL    HW213375   4.077   0.950   2.273 -1.4216  0.6500 -0.8641
 1091SOL     OW13376   8.780   6.506   0.580  0.1330 -0.0703  0.6636
 1091SOL    HW113377   8.804   6.415   0.545  2.3974  0.8576 -0.3063
 1091SOL    HW213378   8.721   6.552   0.515  0.6258 -0.0863  0.2008
 1092SOL     OW13379   9.689   5.992   1.756  0.1573  0.5516  0.1948
 1092SOL    HW113380   9.739   6.029   1.833  2.5058 -1.0559 -0.4948
 1092SOL    HW213381   9.690   6.057   1.680  0.7677  0.7414  0.3670
 1093SOL     OW13382   9.459   8.645   2.401  0.2003  0.1564  0.2212
 1093SOL    HW113383   9.513   8.567   2.370  0.5362  0.2689  0.5147
 1093SOL    HW213384   9.480   8.665   2.497 -2.2917 -1.4360  1.1419
 1094SOL     OW13385   3.022   1.906   0.353 -0.0381  0.1166 -0.4609
 1094SOL    HW113386   2.948   1.848   0.388  0.6168  0.1617  1.0625
 1094SOL    HW213387   2.996   1.942   0.264 -0.3106 -2.7600 -1.5857
 1095SOL     OW13388   2.956   7.441   0.639 -0.1943 -0.1370 -0.0570
 1095SOL    HW113389   2.920   7.353   0.608  1.4486 -0.3343 -1.4535
 1095SOL    HW213390   2.919   7.462   0.730 -4.1111 -0.1171 -1.5811
 1096SOL     OW13391   3.334   5.539   1.580  0.0479  0.4841 -0.2109
 1096SOL    HW113392   3.322   5.618   1.519 -1.0224 -1.2684 -2.3298
 1096SOL    HW213393   3.245   5.511   1.616  0.5803  0.9931  1.5486
 1097SOL     OW13394   1.023   4.872   1.163 -0.5310 -0.3744  0.3489
 1097SOL    HW113395   0.956   4.808   1.201 -1.8090  1.7054  1.7357
 1097SOL    HW213396   1.007   4.963   1.201  1.5618  0.6823 -1.1843
 1098SOL     OW13397   2.065   8.204   0.380  0.1399 -0.1190 -0.3289
 1098SOL    HW113398   2.101   8.168   0.466 -1.8146 -0.9651  0.1643
 1098SOL    HW213399   1.968   8.180   0.372 -0.2187  1.7238 -1.8166
 1099SOL     OW13400   9.292   8.842   0.313 -0.0515  0.0712 -0.6575
 1099SOL    HW113401   9.269   8.858   0.409 -0.1602 -2.0945 -0.3141
 1099SOL    HW213402   9.352   8.762   0.305 -0.8561 -0.3799 -2.4997
 1100SOL     OW13403   2.152   4.060   0.109 -0.2489 -1.2894  0.4918
 1100SOL    HW113404   2.114   4.129   0.047 -0.5377  0.0420  2.1328
 1100SOL    HW213405   2.230   4.015   0.064 -0.9169 -0.8772 -1.1211
 1101SOL     OW13406   9.555   8.656   2.671  0.1587 -0.6503  0.7862
 1101SOL    HW113407   9.652   8.682   2.676 -0.3504  1.3723  0.4154
 1101SOL    HW213408   9.510   8.677   2.757 -0.3268 -0.0510  0.3832
 1102SOL     OW13409   1.946   2.393   1.041 -0.2671 -0.2538  0.6544
 1102SOL    HW113410   2.029   2.367   1.090  0.8313 -0.7728 -1.4538
 1102SOL    HW213411   1.943   2.493   1.031  1.3494 -0.3850 -1.3890
 1103SOL     OW13412   0.346   8.200   1.043 -0.3502 -0.0234  0.0554
 1103SOL    HW113413   0.365   8.281   1.098 -0.4958 -1.3672  2.1206
 1103SOL    HW213414   0.252   8.170   1.058 -0.1832 -0.7960 -0.3953
 1104SOL     OW13415   2.448   0.995   2.221 -0.5265 -0.0516 -0.1009
 1104SOL    HW113416   2.390   0.922   2.255  1.3305 -0.8844  1.3624
 1104SOL    HW213417   2.509   0.959   2.150 -0.2244  0.2926 -0.0176
 1105SOL     OW13418   2.621   1.392   1.669 -0.1802 -0.3569  0.2510
 1105SOL    HW113419   2.670   1.466   1.717 -0.3634  0.3856 -0.6893
 1105SOL    HW213420   2.523   1.412   1.668 -0.2945 -0.9092  0.5081
 1106SOL     OW13421  10.071   2.899   1.938 -0.3910 -0.1260 -0.1531
 1106SOL    HW113422  10.107   2.834   2.005 -0.4476 -1.4702 -1.4173
 1106SOL    HW213423  10.130   2.900   1.857 -0.7943  0.8678 -0.4426
 1107SOL     OW13424   3.403   7.664   0.792  0.4083  0.5140 -0.6673
 1107SOL    HW113425   3.374   7.750   0.751  2.4800  0.8691 -1.4442
 1107SOL    HW213426   3.399   7.672   0.892  1.7810  1.9508 -0.7038
 1108SOL     OW13427  10.104   7.912   1.586 -0.3066 -0.1084 -0.8865
 1108SOL    HW113428  10.056   7.993   1.554  0.4669  0.1282 -1.4434
 1108SOL    HW213429  10.177   7.888   1.522  1.9738  1.0147  1.2158
 1109SOL     OW13430   3.197   4.546   0.905  0.6153 -0.0922 -0.4972
 1109SOL    HW113431   3.227   4.574   0.996  0.8979  2.3167 -1.2743
 1109SOL    HW213432   3.210   4.448   0.894  0.1760 -0.4832  2.1880
 1110SOL     OW13433   3.046   0.866   2.599  0.3025  0.6981 -0.3718
 1110SOL    HW113434   3.062   0.846   2.696 -2.4990 -1.1701 -0.2199
 1110SOL    HW213435   3.027   0.963   2.587  2.2276  1.2293  0.6929
 1111SOL     OW13436   2.359   1.948   2.493  0.0267  0.3717  0.1204
 1111SOL    HW113437   2.380   2.036   2.451  0.4045  0.1494 -0.1637
 1111SOL    HW213438   2.412   1.938   2.577  1.4829 -0.4202 -0.8820
 1112SOL     OW13439   0.453   2.837   0.788 -0.4728 -0.2384 -0.5049
 1112SOL    HW113440   0.354   2.829   0.779 -0.5917  0.6885 -0.0910
 1112SOL    HW213441   0.490   2.885   0.709 -0.0027 -2.9937 -2.0172
 1113SOL     OW13442   5.167   3.974   2.784 -0.0060 -0.0650  0.2675
 1113SOL    HW113443   5.124   3.905   2.843 -0.2735 -0.9450 -0.9244
 1113SOL    HW213444   5.202   3.929   2.701  1.5067  0.9449  0.3373
 1114SOL     OW13445   0.761   8.707   2.300 -0.7455 -1.0189  0.2521
 1114SOL    HW113446   0.774   8.782   2.364  0.0864 -1.2740  0.3919
 1114SOL    HW213447   0.690   8.731   2.234 -1.9804 -0.9657  1.5837
 1115SOL     OW13448   5.009   2.943   1.335 -0.5364 -0.3641  0.6415
 1115SOL    HW113449   5.070   2.960   1.412  0.2615 -0.4686  0.0286
 1115SOL    HW213450   5.028   3.008   1.261 -1.8183  0.2346  0.8248
 1116SOL     OW13451   1.106   1.685   2.473 -0.0083 -0.6411  0.5137
 1116SOL    HW113452   1.037   1.689   2.402  1.1540  1.9501 -0.5479
 1116SOL    HW213453   1.114   1.775   2.517  2.4353 -0.9569  0.8150
 1117SOL     OW13454   4.568   4.113   2.680  0.3600 -0.2286  0.2182
 1117SOL    HW113455   4.650   4.084   2.730 -0.5336 -0.1009  1.7869
 1117SOL    HW213456   4.591   4.191   2.621  1.2529  0.1176  1.0086
 1118SOL     OW13457   4.051   2.488   1.428 -0.5452  0.6306 -0.5549
 1118SOL    HW113458   4.001   2.417   1.479  1.3418 -0.9866 -0.9048
 1118SOL    HW213459   4.021   2.578   1.460 -1.7083 -0.3161  1.1548
 1119SOL     OW13460   1.197   8.512   2.105  0.1430  0.0490  0.5351
 1119SOL    HW113461   1.271   8.457   2.145  0.1074 -1.1307 -0.9711
 1119SOL    HW213462   1.234   8.569   2.031 -0.7072 -1.7292 -1.3017
 1120SOL     OW13463   1.808   9.508   1.341  0.2751 -0.1485  0.8871
 1120SOL    HW113464   1.769   9.477   1.428  1.4507 -2.7023  0.5444
 1120SOL    HW213465   1.742   9.494   1.267  0.5206 -1.1636  0.8546
 1121SOL     OW13466   4.226   0.118   0.460 -0.5688  0.2699  0.3552
 1121SOL    HW113467   4.264   0.087   0.547 -1.1437  1.0402  0.8875
 1121SOL    HW213468   4.164   0.194   0.476 -1.6559 -0.4019 -0.5966
 1122SOL     OW13469   4.151   9.813   0.189  0.4055  0.2817  0.2987
 1122SOL    HW113470   4.177   9.777   0.099  0.2128  0.7456  0.0540
 1122SOL    HW213471   4.156   9.913   0.187  0.0481  0.3070  0.6978
 1123SOL     OW13472   3.085   6.426   0.610  0.3679  0.1821 -0.2805
 1123SOL    HW113473   3.115   6.374   0.531 -0.1557 -0.5573  0.0078
 1123SOL    HW213474   3.165   6.464   0.656  0.7140  0.0993 -0.8071
 1124SOL     OW13475   0.724   9.272   1.473  0.4181 -0.2873 -0.5254
 1124SOL    HW113476   0.735   9.326   1.557  1.5130 -1.6053  0.1970
 1124SOL    HW213477   0.805   9.216   1.458 -0.1435 -0.7371 -1.9985
 1125SOL     OW13478   2.343   4.320   1.955  0.3011  0.3292 -0.0187
 1125SOL    HW113479   2.442   4.325   1.943  0.2455  0.6370 -0.3204
 1125SOL    HW213480   2.297   4.369   1.881 -0.0784  0.1300  0.0843
 1126SOL     OW13481   1.667   1.028   2.601  0.2563 -0.0494 -0.3418
 1126SOL    HW113482   1.620   0.999   2.684 -0.5084  0.2493 -0.6641
 1126SOL    HW213483   1.646   0.964   2.527 -0.5311  0.6888 -0.7640
 1127SOL     OW13484  10.144   3.511   2.057 -0.3999  0.2156 -0.1045
 1127SOL    HW113485  10.135   3.608   2.082 -0.4958 -0.0057  0.7414
 1127SOL    HW213486  10.122   3.454   2.137 -2.6886 -0.5589 -1.2414
 1128SOL     OW13487   9.229   4.063   1.272  0.0584  0.0168  0.1054
 1128SOL    HW113488   9.211   4.119   1.353  2.1475 -1.4453  1.6542
 1128SOL    HW213489   9.236   4.122   1.191 -1.1406  1.5967  1.1255
 1129SOL     OW13490   1.890   7.577   1.650  0.0520  0.2456 -0.2052
 1129SOL    HW113491   1.952   7.601   1.724  0.6619  1.6307 -1.1383
 1129SOL    HW213492   1.827   7.653   1.634 -0.8543 -0.5153 -0.3291
 1130SOL     OW13493   0.731   8.003   1.108  0.0484  0.2306 -0.3095
 1130SOL    HW113494   0.813   8.060   1.101  1.5845 -1.8209  0.4196
 1130SOL    HW213495   0.756   7.907   1.093 -2.6104 -0.2059 -2.4215
 1131SOL     OW13496   0.502   4.126   1.222  0.2948 -0.5324 -0.2937
 1131SOL    HW113497   0.557   4.150   1.142  0.8295 -1.1494 -0.1158
 1131SOL    HW213498   0.529   4.036   1.256  1.2153  0.4081  1.5455
 1132SOL     OW13499   0.384   1.404   0.963  0.1166 -0.2288 -0.2861
 1132SOL    HW113500   0.463   1.464   0.975  0.7576 -1.3401  1.0190
 1132SOL    HW213501   0.330   1.402   1.047 -0.3066 -0.9130 -0.5695
 1133SOL     OW13502   2.996   9.381   2.329  0.0472  0.2554 -0.6935
 1133SOL    HW113503   2.971   9.332   2.246 -0.0130  1.2903 -1.2960
 1133SOL    HW213504   3.096   9.393   2.332  0.0289  0.4136 -0.7241
 1134SOL     OW13505   4.232   4.356   0.293 -0.5451  0.2591  0.1181
 1134SOL    HW113506   4.189   4.269   0.269  0.8829 -0.2278 -0.7601
 1134SOL    HW213507   4.302   4.340   0.362  0.2846  0.5744 -0.6428
 1135SOL     OW13508   9.896   6.462   2.387  0.1598 -0.1208 -0.5771
 1135SOL    HW113509   9.990   6.487   2.410  0.6769  0.2874 -2.9321
 1135SOL    HW213510   9.884   6.363   2.394  0.2211  0.0056  1.5326
 1136SOL     OW13511   5.424   3.521   1.216 -0.5303  0.0349  0.2020
 1136SOL    HW113512   5.390   3.432   1.246 -2.9728  0.7602 -0.2990
 1136SOL    HW213513   5.416   3.528   1.117  0.7151  0.4147  0.1103
 1137SOL     OW13514   1.801   9.807   1.990  0.3714  0.0143 -0.1753
 1137SOL    HW113515   1.870   9.781   1.922 -0.5842  1.8323 -1.8589
 1137SOL    HW213516   1.772   9.901   1.974 -1.0470 -0.0708  1.7748
 1138SOL     OW13517   2.886   1.632   0.395 -0.1849  0.2541  0.0967
 1138SOL    HW113518   2.851   1.567   0.328 -0.5787  0.1320  0.4129
 1138SOL    HW213519   2.985   1.637   0.389 -0.0236 -1.4806  1.0546
 1139SOL     OW13520   9.885   7.451   0.495 -0.5162 -0.0449  0.2749
 1139SOL    HW113521   9.920   7.530   0.444 -2.1853  1.6306  1.6637
 1139SOL    HW213522   9.887   7.370   0.437  0.8224  1.0985 -1.3129
 1140SOL     OW13523   0.553   3.116   2.073  0.4858  0.4991  0.1000
 1140SOL    HW113524   0.652   3.119   2.056  0.7157 -0.0755  1.2312
 1140SOL    HW213525   0.534   3.150   2.165 -0.6957  3.4236 -1.1626
 1141SOL     OW13526   2.430   8.857   1.572 -0.0467  0.1676 -0.3319
 1141SOL    HW113527   2.465   8.836   1.481  0.2711  1.2997 -0.4829
 1141SOL    HW213528   2.420   8.773   1.625 -2.9316 -0.8408 -2.3656
 1142SOL     OW13529   2.348   2.566   0.862  0.1138  0.2242  0.4988
 1142SOL    HW113530   2.328   2.596   0.770  2.5564 -0.1940 -0.2147
 1142SOL    HW213531   2.367   2.645   0.920  1.6684  0.3546 -0.1567
 1143SOL     OW13532   0.871   5.536   2.495 -0.3078 -0.1467 -0.1833
 1143SOL    HW113533   0.850   5.526   2.398 -2.3320  1.9146 -0.0290
 1143SOL    HW213534   0.811   5.476   2.548  0.1054 -0.5351 -0.1537
 1144SOL     OW13535   0.850   1.534   2.612  0.3122  0.0227 -0.1065
 1144SOL    HW113536   0.948   1.527   2.593  0.3897  0.5261  0.0797
 1144SOL    HW213537   0.832   1.501   2.705  0.4748  0.9683  0.2698
 1145SOL     OW13538   3.464   4.826   2.047 -0.2163 -0.2239 -0.1588
 1145SOL    HW113539   3.550   4.783   2.078 -1.1249 -2.3191 -0.4476
 1145SOL    HW213540   3.407   4.846   2.127 -0.3288 -0.7344 -0.1108
 1146SOL     OW13541   9.550   7.855   0.595 -0.2229 -0.0979  0.7445
 1146SOL    HW113542   9.450   7.861   0.598 -0.1946  0.2256  0.9876
 1146SOL    HW213543   9.577   7.758   0.591 -0.5346 -0.1973  1.0403
 1147SOL     OW13544   0.687   6.459   0.859  0.5060  0.7358  0.0150
 1147SOL    HW113545   0.602   6.499   0.826  1.0707  0.9682 -1.2057
 1147SOL    HW213546   0.690   6.362   0.834  0.7337  0.8034 -0.2278
 1148SOL     OW13547   4.353   2.897   0.388  0.0812 -0.2003  0.0631
 1148SOL    HW113548   4.355   2.815   0.331  0.7545  0.0231 -0.2435
 1148SOL    HW213549   4.367   2.978   0.331  2.3438 -0.0778  0.7300
 1149SOL     OW13550   1.449   3.994   2.740 -0.2327  0.2874  0.2508
 1149SOL    HW113551   1.423   4.025   2.832  1.1469 -0.2219  0.8232
 1149SOL    HW213552   1.436   3.896   2.732  0.7400  0.1527  0.2813
 1150SOL     OW13553   2.464   6.148   1.102  0.1494 -0.3403 -0.2500
 1150SOL    HW113554   2.481   6.050   1.111  2.3007  0.1738  1.7740
 1150SOL    HW213555   2.541   6.199   1.142 -1.4481  2.1759 -0.2825
 1151SOL     OW13556   2.880   0.576   2.688 -0.0493 -0.4656  0.6047
 1151SOL    HW113557   2.840   0.604   2.601  3.1270 -1.7995 -1.3661
 1151SOL    HW213558   2.943   0.647   2.721 -0.7430 -0.2507  1.4863
 1152SOL     OW13559   9.222   2.694   0.268  0.0171  0.0552 -0.5726
 1152SOL    HW113560   9.123   2.679   0.266 -0.0553  0.7271 -2.3829
 1152SOL    HW213561   9.250   2.741   0.185  1.7816  0.4100  0.2200
 1153SOL     OW13562   3.967   1.946   2.457  0.3076 -0.6007  0.4471
 1153SOL    HW113563   4.019   2.013   2.510 -1.4155 -0.2990  1.8091
 1153SOL    HW213564   3.961   1.861   2.508  0.2364 -0.9313 -0.1104
 1154SOL     OW13565   0.449   6.111   0.985 -0.1403  0.2554 -0.1590
 1154SOL    HW113566   0.352   6.098   1.007 -0.0564  1.9512  1.2229
 1154SOL    HW213567   0.458   6.136   0.888 -0.8829 -2.1614 -0.8920
 1155SOL     OW13568   4.223   9.069   1.740 -0.1077 -0.3429  0.2892
 1155SOL    HW113569   4.258   9.100   1.828  0.3725 -0.3041  0.0882
 1155SOL    HW213570   4.300   9.038   1.682 -0.6155 -2.5166  0.7166
 1156SOL     OW13571   0.718   6.651   2.325 -0.3503 -0.1303 -0.4146
 1156SOL    HW113572   0.778   6.640   2.246  0.6376 -0.6093  0.3870
 1156SOL    HW213573   0.735   6.577   2.391 -0.5260  0.7610  0.6472
 1157SOL     OW13574  10.283   8.475   2.833  0.1515  0.1776 -0.0159
 1157SOL    HW113575  10.217   8.414   2.878  1.9871 -1.3524  0.6705
 1157SOL    HW213576  10.330   8.425   2.760  3.8596 -0.2303  2.5395
 1158SOL     OW13577   4.190   0.409   1.334  0.2108  0.2243 -0.0760
 1158SOL    HW113578   4.171   0.505   1.354 -0.5875  0.1999 -0.7253
 1158SOL    HW213579   4.136   0.351   1.396 -0.7576  0.1742 -0.9582
 1159SOL     OW13580   3.322   6.458   0.705  0.0614 -0.5444  0.0828
 1159SOL    HW113581   3.414   6.431   0.677  0.5293  1.7451 -0.7004
 1159SOL    HW213582   3.328   6.538   0.765 -1.4408 -0.0746 -0.3817
 1160SOL     OW13583   4.474   9.806   0.672  0.2028  0.1441  0.1851
 1160SOL    HW113584   4.504   9.873   0.604 -1.8149  0.7011 -0.1783
 1160SOL    HW213585   4.422   9.852   0.743 -0.6090 -0.9404  0.3054
 1161SOL     OW13586   1.458   9.197   1.735 -0.4875  0.7520 -0.6399
 1161SOL    HW113587   1.419   9.109   1.759 -0.5393  0.4510 -1.7791
 1161SOL    HW213588   1.537   9.183   1.674 -0.6764  1.4969 -1.0664
 1162SOL     OW13589   1.450   1.158   1.320 -0.0363  0.3944  0.1365
 1162SOL    HW113590   1.522   1.219   1.289 -0.3386  0.9203  0.4549
 1162SOL    HW213591   1.382   1.210   1.372 -0.5437 -0.1251  0.0063
 1163SOL     OW13592   2.819   4.429   0.396  0.0661 -0.6783 -0.0684
 1163SOL    HW113593   2.817   4.528   0.387  0.3319 -0.7140 -0.5171
 1163SOL    HW213594   2.834   4.405   0.492 -0.1393 -0.2884  0.0637
 1164SOL     OW13595   2.794   7.633   0.318  0.1914 -0.1364 -0.0959
 1164SOL    HW113596   2.807   7.689   0.236 -0.2041 -0.4584 -0.3800
 1164SOL    HW213597   2.883   7.608   0.355  0.3779 -0.9398 -1.0768
 1165SOL     OW13598   1.901   9.400   0.566  0.0492  0.2400 -0.3034
 1165SOL    HW113599   1.981   9.415   0.625  0.1139 -0.6652 -0.1383
 1165SOL    HW213600   1.927   9.340   0.490  0.1365  1.9664 -1.6550
 1166SOL     OW13601   9.685   3.468   1.948 -0.1859  0.5842 -0.3427
 1166SOL    HW113602   9.688   3.495   2.045  0.9912 -2.9812  0.7058
 1166SOL    HW213603   9.778   3.467   1.911 -0.3872 -0.1729 -0.8527
 1167SOL     OW13604   2.649   7.755   0.773 -0.1298 -0.7746 -0.2996
 1167SOL    HW113605   2.624   7.658   0.774 -0.6550 -0.6249  0.9134
 1167SOL    HW213606   2.713   7.771   0.697 -0.1648 -2.0312 -0.6143
 1168SOL     OW13607   4.363   2.383   1.229  0.3191 -0.5514 -0.6870
 1168SOL    HW113608   4.451   2.381   1.180  0.3777 -0.3967 -0.5886
 1168SOL    HW213609   4.288   2.376   1.164  0.4342 -2.5662 -0.6418
 1169SOL     OW13610   1.533   3.542   2.561  0.0563  0.0225 -0.0834
 1169SOL    HW113611   1.477   3.534   2.479  0.4569  0.4593 -0.4039
 1169SOL    HW213612   1.630   3.545   2.535  0.1639  0.6342  0.3719
 1170SOL     OW13613   1.967   7.135   0.707  0.8040  0.7920 -0.0145
 1170SOL    HW113614   2.055   7.123   0.661  1.4416 -0.5210  1.4753
 1170SOL    HW213615   1.941   7.231   0.704  2.9286  1.4313  0.6365
 1171SOL     OW13616   1.702   9.416   2.424 -0.0213 -0.2165 -0.3524
 1171SOL    HW113617   1.625   9.477   2.443 -1.4953 -2.5534  1.4990
 1171SOL    HW213618   1.668   9.331   2.384  2.0427  0.2965 -3.3294
 1172SOL     OW13619   3.594   4.339   2.492 -0.3836  0.0839 -0.3316
 1172SOL    HW113620   3.539   4.398   2.550  2.0693  1.0106  1.1532
 1172SOL    HW213621   3.583   4.366   2.396 -1.5410  1.0192  0.0562
 1173SOL     OW13622   4.584   4.716   2.428 -0.5265  0.4273  0.9065
 1173SOL    HW113623   4.542   4.759   2.348 -1.2832 -0.0111  1.0639
 1173SOL    HW213624   4.641   4.640   2.399 -0.4280  0.5614  0.7478
 1174SOL     OW13625   1.078   3.862   0.257  0.5083 -0.2997  0.1271
 1174SOL    HW113626   1.064   3.769   0.292  0.7472 -0.3571  0.0702
 1174SOL    HW213627   1.030   3.927   0.316  0.6504 -0.4258  0.3816
 1175SOL     OW13628   2.097   4.196   0.774  0.3580  0.1680  0.2659
 1175SOL    HW113629   2.180   4.159   0.815  1.6713  1.3460 -1.3115
 1175SOL    HW213630   2.063   4.133   0.704  0.7248  0.3636 -0.0887
 1176SOL     OW13631  10.057   7.908   2.635  0.0544  0.7022 -0.7624
 1176SOL    HW113632   9.981   7.951   2.586 -0.6081  2.4671  1.6897
 1176SOL    HW213633  10.115   7.979   2.675  3.1986 -0.5945 -2.7573
 1177SOL     OW13634   1.353   2.170   1.936  0.1306 -0.8065  0.0408
 1177SOL    HW113635   1.391   2.114   1.863 -0.1153 -1.8433  0.7068
 1177SOL    HW213636   1.421   2.237   1.966 -0.6812  1.4975 -3.0303
 1178SOL     OW13637   4.165   1.398   2.473  0.0420  0.0700 -0.0836
 1178SOL    HW113638   4.071   1.430   2.473 -0.5631 -1.6672  1.1547
 1178SOL    HW213639   4.219   1.453   2.408 -2.0477  0.3587 -1.6314
 1179SOL     OW13640   9.742   8.692   0.794  0.3280  0.4129 -0.3709
 1179SOL    HW113641   9.805   8.618   0.770  1.2733 -0.3650  4.0101
 1179SOL    HW213642   9.787   8.780   0.781  0.7601  0.0422 -1.4228
 1180SOL     OW13643   9.993   6.269   0.223  0.4253 -0.1857  0.1064
 1180SOL    HW113644  10.072   6.224   0.265  0.0613 -0.2997  0.6742
 1180SOL    HW213645  10.021   6.310   0.136  1.6808  1.8786  1.4370
 1181SOL     OW13646   2.152   1.623   0.117  0.2766 -0.2645  0.1813
 1181SOL    HW113647   2.158   1.705   0.060 -0.1670 -0.9209 -0.8137
 1181SOL    HW213648   2.241   1.578   0.119  0.0407 -0.7852 -0.8130
 1182SOL     OW13649   9.957   8.867   1.097  0.0634 -0.0659 -0.1945
 1182SOL    HW113650   9.996   8.794   1.041 -0.6635 -0.7192  0.1326
 1182SOL    HW213651   9.858   8.869   1.084  0.1898  1.5422 -0.9781
 1183SOL     OW13652   1.700   1.925   0.790 -0.6254 -0.4220 -0.4632
 1183SOL    HW113653   1.733   1.969   0.706 -1.0844 -0.1386 -0.4987
 1183SOL    HW213654   1.758   1.952   0.867 -0.4158 -0.3995 -0.6307
 1184SOL     OW13655   3.693   2.173   0.078  0.4992 -0.3504 -0.1547
 1184SOL    HW113656   3.653   2.130   0.159 -2.8873  0.6510 -1.2260
 1184SOL    HW213657   3.683   2.111  -0.000 -0.2220  0.4601 -0.7130
 1185SOL     OW13658   0.772   5.499   2.235  0.3800 -0.2092  0.2115
 1185SOL    HW113659   0.803   5.531   2.145 -0.6716  0.6669  0.1557
 1185SOL    HW213660   0.728   5.410   2.225 -0.0782  0.0634 -0.1925
 1186SOL     OW13661   1.315   9.626   0.813  0.6462 -0.1092  0.3707
 1186SOL    HW113662   1.350   9.709   0.855 -0.3471 -0.0654  1.1210
 1186SOL    HW213663   1.385   9.588   0.751 -0.1594  3.1656 -2.7229
 1187SOL     OW13664   0.793   2.988   2.655 -0.4639  0.0011 -0.2723
 1187SOL    HW113665   0.854   3.034   2.591  0.6956  1.3990  1.7647
 1187SOL    HW213666   0.702   3.031   2.650 -0.9219 -1.1461 -2.2852
 1188SOL     OW13667  10.068   8.651   0.975 -0.5311 -0.0859  0.0440
 1188SOL    HW113668  10.060   8.554   0.952  0.6463 -0.1226 -0.2627
 1188SOL    HW213669  10.146   8.690   0.926  1.0447  0.2244  2.6708
 1189SOL     OW13670   2.984   5.760   0.965  0.5791  0.2679  0.4849
 1189SOL    HW113671   2.920   5.826   1.005  1.5878  0.9690  0.9832
 1189SOL    HW213672   3.026   5.800   0.883 -0.2582 -0.5265 -0.3361
 1190SOL     OW13673   3.429   9.347   1.452  0.5051  0.6178 -0.2869
 1190SOL    HW113674   3.512   9.297   1.430  0.2880  0.0761  0.0959
 1190SOL    HW213675   3.357   9.323   1.386  0.3425  0.2711  0.0159
 1191SOL     OW13676   1.747   8.316   1.380 -0.2901 -0.2651  0.0409
 1191SOL    HW113677   1.836   8.354   1.405  0.6500 -1.2955 -1.5979
 1191SOL    HW213678   1.677   8.386   1.389  0.4575  0.1897  2.6384
 1192SOL     OW13679   1.974   3.731   0.354 -0.4714  0.7737  0.0574
 1192SOL    HW113680   2.019   3.713   0.441  1.4937  1.2140 -0.8212
 1192SOL    HW213681   1.901   3.665   0.339 -1.0964  0.9388  2.1979
 1193SOL     OW13682   4.416   1.958   0.073 -0.0014  0.7787 -0.1301
 1193SOL    HW113683   4.437   1.989  -0.019  0.3069 -1.4531 -0.8494
 1193SOL    HW213684   4.332   2.000   0.105  0.2873  2.1259 -1.1367
 1194SOL     OW13685   4.702   3.558   1.468 -0.2007  0.2181 -0.0259
 1194SOL    HW113686   4.688   3.646   1.422  0.5591  0.0049 -0.6819
 1194SOL    HW213687   4.660   3.485   1.415 -0.8244  0.1856  0.5154
 1195SOL     OW13688   2.969   9.991   2.763 -0.1910  0.1030  0.3577
 1195SOL    HW113689   3.021   9.969   2.845 -1.1713  0.9523  1.2325
 1195SOL    HW213690   2.908   9.915   2.741 -0.7010  0.2877  1.0667
 1196SOL     OW13691  10.223   0.656   0.393 -0.4594  0.7584  0.5607
 1196SOL    HW113692  10.225   0.751   0.424  0.7024  1.0849 -0.4642
 1196SOL    HW213693  10.266   0.650   0.303 -2.1557 -0.4553 -0.1773
 1197SOL     OW13694   5.239   3.282   0.938 -0.2451  0.1185 -0.1804
 1197SOL    HW113695   5.337   3.260   0.930  0.2036  1.7698  0.4244
 1197SOL    HW213696   5.230   3.378   0.965 -2.0358 -0.2402  0.4819
 1198SOL     OW13697   9.800   1.145   0.605 -0.3401  0.0876 -0.3725
 1198SOL    HW113698   9.865   1.116   0.534 -0.1509  0.0092 -0.1722
 1198SOL    HW213699   9.735   1.210   0.567  0.8298  1.3838 -0.1819
 1199SOL     OW13700   0.553   0.022   2.097  0.3938 -0.0680  0.8557
 1199SOL    HW113701   0.595   0.021   2.187 -0.4403 -2.0274  1.2474
 1199SOL    HW213702   0.609  -0.033   2.034  0.8479  1.0949  0.2383
 1200SOL     OW13703   0.710   4.838   0.921  0.2655  0.3777 -0.3131
 1200SOL    HW113704   0.747   4.929   0.900  1.1308  0.2923  0.8175
 1200SOL    HW213705   0.735   4.813   1.014  1.6291 -1.8100 -1.2255
 1201SOL     OW13706   9.552   2.618   1.083  0.4842 -0.0045 -0.1145
 1201SOL    HW113707   9.497   2.535   1.091 -1.0300  1.1544  2.3350
 1201SOL    HW213708   9.630   2.602   1.023  0.2084 -3.1684  0.3214
 1202SOL     OW13709   9.859   3.975   1.266 -0.4220  0.2931 -0.2733
 1202SOL    HW113710   9.806   3.896   1.297 -0.1882  0.5697  0.8513
 1202SOL    HW213711   9.797   4.051   1.245 -0.4547  0.8274  1.6566
 1203SOL     OW13712   2.286   0.671   1.041 -0.1986 -1.2328 -0.4450
 1203SOL    HW113713   2.298   0.765   1.009 -1.6975 -0.4168  1.3119
 1203SOL    HW213714   2.365   0.616   1.013  1.6554  1.0048  0.2374
 1204SOL     OW13715   9.032   4.416   0.546  0.4434  0.0335 -0.1851
 1204SOL    HW113716   9.025   4.322   0.580  1.5064  0.2987  0.8206
 1204SOL    HW213717   8.957   4.470   0.584  0.0179 -0.3301 -0.5043
 1205SOL     OW13718   2.135   4.912   1.751  0.0246  0.1132 -0.1359
 1205SOL    HW113719   2.209   4.849   1.772 -0.1919 -0.5792 -1.4045
 1205SOL    HW213720   2.083   4.932   1.834  0.5042 -0.8544  0.4007
 1206SOL     OW13721   3.604   9.163   1.752  0.0288 -0.1894 -0.3856
 1206SOL    HW113722   3.658   9.107   1.689  1.1623 -1.5962  1.8102
 1206SOL    HW213723   3.652   9.248   1.772  0.7822 -0.8185  0.4715
 1207SOL     OW13724   1.325   3.866   1.508  0.3299 -0.1549 -0.0834
 1207SOL    HW113725   1.304   3.769   1.507  4.6483 -1.1850 -1.3749
 1207SOL    HW213726   1.381   3.888   1.588  0.9482  0.8598 -0.7684
 1208SOL     OW13727   2.774   2.511   1.144 -0.1298 -0.3118 -0.1005
 1208SOL    HW113728   2.843   2.517   1.072  1.1884  0.1506  1.1852
 1208SOL    HW213729   2.740   2.603   1.165 -1.6403 -0.5995 -1.1834
 1209SOL     OW13730   2.495   2.633   1.387  0.4262  0.3612  0.0833
 1209SOL    HW113731   2.570   2.576   1.421  0.8819  1.0503  0.2492
 1209SOL    HW213732   2.526   2.684   1.307 -0.4261 -0.7285 -0.9560
 1210SOL     OW13733   8.810   7.065   0.183  0.3821 -0.0256  0.6442
 1210SOL    HW113734   8.743   6.992   0.192 -0.0723  0.4906  1.5350
 1210SOL    HW213735   8.764   7.150   0.159  0.4575  0.7543  3.0765
 1211SOL     OW13736   4.047   4.131   2.040  0.9016  0.5140  0.5040
 1211SOL    HW113737   4.014   4.210   1.988  1.4543  0.7529  0.5126
 1211SOL    HW213738   4.137   4.151   2.078  1.7264 -0.6728 -0.7731
 1212SOL     OW13739   3.041   9.846   2.036  0.0338  0.5620 -0.1084
 1212SOL    HW113740   3.011   9.869   1.944 -0.1864 -1.3698 -0.5249
 1212SOL    HW213741   2.983   9.774   2.074  1.9017 -0.7042  0.4197
 1213SOL     OW13742   0.504   7.824   2.177 -0.3527 -0.9982 -0.1557
 1213SOL    HW113743   0.551   7.824   2.088  0.6215 -1.1592  0.3595
 1213SOL    HW213744   0.445   7.905   2.183 -2.3679 -2.2591 -1.9621
 1214SOL     OW13745   8.895   6.117   1.200 -0.3207 -0.1083  0.0844
 1214SOL    HW113746   8.928   6.121   1.294  1.7326  0.2716 -0.6371
 1214SOL    HW213747   8.828   6.190   1.185  1.6066  1.7637  0.4114
 1215SOL     OW13748   0.457   9.243   1.581 -0.0572  0.5619 -0.0287
 1215SOL    HW113749   0.442   9.144   1.573 -0.1454  0.6007 -0.3072
 1215SOL    HW213750   0.550   9.264   1.551 -0.3408  0.6862 -0.8096
 1216SOL     OW13751   2.158   7.262   2.019  0.3791  0.0745 -0.3065
 1216SOL    HW113752   2.121   7.217   2.100  4.4490  0.5021  1.9405
 1216SOL    HW213753   2.223   7.201   1.974  0.3281  0.9455 -1.5684
 1217SOL     OW13754   3.755   3.544   1.972 -0.0476 -0.1854 -0.1136
 1217SOL    HW113755   3.731   3.451   2.003  0.5989 -0.3127  0.0201
 1217SOL    HW213756   3.784   3.598   2.051  0.1039 -0.0383 -0.2697
 1218SOL     OW13757   9.325   3.452   0.856  0.2746  0.2609  0.6778
 1218SOL    HW113758   9.347   3.376   0.794  0.2652 -0.3049  1.3597
 1218SOL    HW213759   9.263   3.515   0.810  1.7221  0.8228 -0.5554
 1219SOL     OW13760   0.878   7.260   0.456 -0.7652 -0.2477  0.0807
 1219SOL    HW113761   0.811   7.313   0.508 -3.2806 -2.5361 -0.6844
 1219SOL    HW213762   0.863   7.162   0.473  1.9352 -0.8320 -0.6894
 1220SOL     OW13763   3.763   5.898   0.898 -0.3371  0.2482  0.4482
 1220SOL    HW113764   3.817   5.814   0.896 -1.0122 -0.1824  0.2289
 1220SOL    HW213765   3.670   5.879   0.867 -0.5089  1.0671  0.4429
 1221SOL     OW13766   9.426   2.673   2.159  0.0381  0.3436  0.1219
 1221SOL    HW113767   9.511   2.726   2.153 -1.0313  2.3043  1.7239
 1221SOL    HW213768   9.432   2.594   2.098  1.8622  2.0308 -1.9889
 1222SOL     OW13769   2.965   7.876   1.690  0.0571 -0.2476 -0.3993
 1222SOL    HW113770   3.012   7.789   1.703 -0.8732 -0.5825  0.8887
 1222SOL    HW213771   2.868   7.865   1.715  0.0454  1.2808  0.2768
 1223SOL     OW13772   1.628   0.286   0.971 -0.0536  0.3782 -0.0669
 1223SOL    HW113773   1.701   0.297   1.038  0.1108 -1.9917  0.1832
 1223SOL    HW213774   1.580   0.373   0.960  2.2787  1.7619  0.3528
 1224SOL     OW13775   3.244   8.775   1.930  0.5754 -0.4104  0.1825
 1224SOL    HW113776   3.302   8.722   1.992 -2.0412 -0.3845  2.7431
 1224SOL    HW213777   3.242   8.871   1.960 -2.3518 -0.8058  1.3325
 1225SOL     OW13778   3.606   8.847   1.485 -0.1940  0.2827 -0.5990
 1225SOL    HW113779   3.579   8.751   1.480 -0.5411  0.3780 -0.5506
 1225SOL    HW213780   3.540   8.903   1.436  2.0613  0.1030 -4.0662
 1226SOL     OW13781   1.611   5.469   1.731 -0.4542 -0.2142  0.1328
 1226SOL    HW113782   1.602   5.379   1.772 -0.4765 -0.1577  0.2547
 1226SOL    HW213783   1.702   5.479   1.690  0.6104  0.7447  2.6553
 1227SOL     OW13784   3.461   0.660   1.326 -0.3890 -0.2080 -0.1747
 1227SOL    HW113785   3.545   0.630   1.372 -0.3848 -0.3288 -0.2622
 1227SOL    HW213786   3.382   0.638   1.384 -0.4186 -0.7586 -0.4227
 1228SOL     OW13787   9.555   6.871   2.675 -0.2557 -0.2754  0.4514
 1228SOL    HW113788   9.500   6.888   2.757  0.1057  1.1825  0.4106
 1228SOL    HW213789   9.557   6.773   2.655 -2.4028 -0.3981  0.7628
 1229SOL     OW13790   9.719   7.950   1.485 -0.2474 -0.4671  0.3498
 1229SOL    HW113791   9.631   7.913   1.456 -0.2895  0.7710 -1.1509
 1229SOL    HW213792   9.717   7.968   1.583 -1.8163 -0.0475  0.2566
 1230SOL     OW13793   1.903   1.024   2.237  0.3998  0.5471  0.4509
 1230SOL    HW113794   1.805   1.047   2.236  0.3191  0.1751 -0.8443
 1230SOL    HW213795   1.950   1.085   2.300 -0.7996  0.1892  1.7317
 1231SOL     OW13796   9.538   5.060   1.969 -1.0226 -0.1224  0.6777
 1231SOL    HW113797   9.566   5.009   2.049  0.4048  2.5040  1.9160
 1231SOL    HW213798   9.448   5.102   1.985 -0.7342  0.4094  0.9172
 1232SOL     OW13799   2.387   6.579   0.474  0.2717 -0.6559  0.2707
 1232SOL    HW113800   2.450   6.648   0.436 -0.4693  0.1144  0.4290
 1232SOL    HW213801   2.314   6.625   0.524 -1.2474 -1.4963 -1.1641
 1233SOL     OW13802   3.815   2.999   1.003 -0.4926 -0.5192 -0.5377
 1233SOL    HW113803   3.886   3.061   0.970  0.3052  0.0227  2.1193
 1233SOL    HW213804   3.857   2.917   1.041 -1.3705 -0.8243 -0.2140
 1234SOL     OW13805   2.641   2.290   1.952  0.6081 -0.4302 -0.3156
 1234SOL    HW113806   2.654   2.377   1.904 -0.2490 -0.4679 -0.6108
 1234SOL    HW213807   2.640   2.307   2.051  0.1983 -0.0695 -0.3783
 1235SOL     OW13808   3.361   3.572   1.967 -0.4985  0.0239 -0.0437
 1235SOL    HW113809   3.290   3.637   1.993 -0.3906 -0.0573  0.4556
 1235SOL    HW213810   3.325   3.511   1.896 -1.4230 -0.9492  1.2361
 1236SOL     OW13811   9.656   5.440   0.229  0.5140  0.1175  0.1715
 1236SOL    HW113812   9.583   5.475   0.169  1.7222 -0.5028 -1.7007
 1236SOL    HW213813   9.630   5.350   0.263 -0.8776  1.1278  1.8898
 1237SOL     OW13814   3.746   4.511   2.676 -0.6191  0.7582 -0.3514
 1237SOL    HW113815   3.709   4.418   2.680 -0.4965  0.7695  1.2946
 1237SOL    HW213816   3.838   4.508   2.638 -1.0702  0.3586 -1.4507
 1238SOL     OW13817   1.357   6.312   1.429  0.0082  0.2280 -0.6658
 1238SOL    HW113818   1.352   6.401   1.384 -0.4522  0.8084  0.4978
 1238SOL    HW213819   1.448   6.300   1.468 -0.3122  0.7526  0.2716
 1239SOL     OW13820   3.877   1.442   0.226 -0.1069 -0.3496 -0.5374
 1239SOL    HW113821   3.976   1.458   0.230 -0.3501  0.9232  0.6344
 1239SOL    HW213822   3.829   1.514   0.277 -1.6665 -0.7230 -1.4461
 1240SOL     OW13823   9.875   2.133   2.513  0.5529 -0.0707 -0.4086
 1240SOL    HW113824   9.867   2.079   2.597 -2.8978 -0.5733 -0.9850
 1240SOL    HW213825   9.905   2.074   2.438  0.2420 -0.3886 -0.2804
 1241SOL     OW13826   8.829   7.218   1.923  0.1376  0.3024 -0.0609
 1241SOL    HW113827   8.893   7.203   1.999 -0.9614  2.0809  1.2615
 1241SOL    HW213828   8.875   7.198   1.837  1.8442 -0.4401  0.9849
 1242SOL     OW13829   0.381   3.878   1.480 -0.4398 -0.0360 -0.0851
 1242SOL    HW113830   0.442   3.900   1.556 -0.2746  0.6066 -0.3967
 1242SOL    HW213831   0.286   3.897   1.508 -0.4296 -0.3186  0.1427
 1243SOL     OW13832   9.685   8.188   0.261  0.2098 -0.1752  0.6024
 1243SOL    HW113833   9.637   8.189   0.173 -0.8953 -1.4294  1.1714
 1243SOL    HW213834   9.743   8.269   0.268  1.2623 -0.6665 -1.7975
 1244SOL     OW13835   8.900   2.371   2.307  0.3777  0.0498  0.0929
 1244SOL    HW113836   8.842   2.446   2.337 -0.5151 -1.3058  1.8372
 1244SOL    HW213837   8.975   2.359   2.372 -0.3875 -1.5723  0.7100
 1245SOL     OW13838  10.115   5.605   0.921 -0.4184  0.4053 -0.4027
 1245SOL    HW113839  10.136   5.703   0.911 -0.2537  0.3684 -0.4276
 1245SOL    HW213840  10.042   5.580   0.858 -0.8957  0.6504  0.0451
 1246SOL     OW13841   0.768   6.219   1.717  0.4623  0.0108 -0.2343
 1246SOL    HW113842   0.726   6.236   1.628 -1.2968  0.4522  0.6564
 1246SOL    HW213843   0.706   6.165   1.774  0.9000  1.0609  1.2760
 1247SOL     OW13844   9.666   2.506   2.369  0.4593  0.3638  0.4009
 1247SOL    HW113845   9.694   2.476   2.460  0.9981 -0.1841  0.0552
 1247SOL    HW213846   9.569   2.486   2.356  0.3394  0.6028  0.9189
 1248SOL     OW13847   0.487   4.057   0.857  0.0910 -0.3585 -0.3800
 1248SOL    HW113848   0.474   4.039   0.759 -1.8610 -2.1527  0.1752
 1248SOL    HW213849   0.419   4.005   0.909  0.5652  1.2754  1.8872
 1249SOL     OW13850   0.695   0.269   0.423  0.4653  0.6678 -0.0787
 1249SOL    HW113851   0.653   0.297   0.509  0.1743  2.9605 -0.9269
 1249SOL    HW213852   0.699   0.169   0.418 -2.8545  0.4212  1.0178
 1250SOL     OW13853   0.796   3.068   1.024  0.1859  0.3839 -0.3302
 1250SOL    HW113854   0.751   3.152   0.994 -2.1287  0.1085  2.1646
 1250SOL    HW213855   0.731   2.992   1.017  0.9474 -0.4248  1.2854
 1251SOL     OW13856   1.541   4.737   2.314 -0.3527  0.2905  0.0898
 1251SOL    HW113857   1.520   4.827   2.275  1.8182  1.0683  0.6214
 1251SOL    HW213858   1.554   4.671   2.240 -0.5114  0.7531 -0.3553
 1252SOL     OW13859   2.648   4.288   0.577 -0.6697  0.1482  0.7976
 1252SOL    HW113860   2.663   4.319   0.483 -0.3742 -0.1457  0.7483
 1252SOL    HW213861   2.730   4.305   0.631  0.0989 -2.0945  0.3608
 1253SOL     OW13862   3.860   1.865   0.199  0.1090  0.1275  0.3723
 1253SOL    HW113863   3.780   1.924   0.214 -0.0131 -0.1976  0.9979
 1253SOL    HW213864   3.834   1.770   0.211  0.9629  0.1134  2.2067
 1254SOL     OW13865   2.637   7.610   1.856 -0.5176  0.0076  0.1685
 1254SOL    HW113866   2.672   7.702   1.837 -0.3018  0.1172  1.1004
 1254SOL    HW213867   2.637   7.557   1.771  0.5443  0.4742 -0.1349
 1255SOL     OW13868   1.260   7.710   1.996 -0.1125  0.1111  0.5051
 1255SOL    HW113869   1.197   7.751   2.062 -0.3804 -0.8235  0.8420
 1255SOL    HW213870   1.221   7.714   1.904 -0.5297 -0.2062  0.6715
 1256SOL     OW13871   9.637   0.698   0.402 -0.2438  0.1461 -0.3298
 1256SOL    HW113872   9.731   0.675   0.377  0.5311  1.8605  0.9250
 1256SOL    HW213873   9.637   0.775   0.466 -2.2958 -2.1435  2.6076
 1257SOL     OW13874   3.656   9.620   1.789 -0.4809  0.3022 -0.3489
 1257SOL    HW113875   3.695   9.642   1.699 -2.3015  0.1565 -1.1896
 1257SOL    HW213876   3.564   9.582   1.777 -0.0656 -1.3397  1.4935
 1258SOL     OW13877   1.320   7.833   2.461  0.2976  0.0036 -0.6322
 1258SOL    HW113878   1.390   7.830   2.532 -2.0381 -2.7886  1.6319
 1258SOL    HW213879   1.341   7.765   2.390 -1.0176 -2.0984  0.9583
 1259SOL     OW13880   1.991   3.371   2.647  0.2546 -0.5891  0.8118
 1259SOL    HW113881   1.954   3.285   2.680 -0.6130 -0.2274  0.8079
 1259SOL    HW213882   1.986   3.440   2.720  0.0538 -0.2896  0.5192
 1260SOL     OW13883   8.963   2.744   0.574 -0.1247  0.2167  0.4095
 1260SOL    HW113884   9.037   2.678   0.573  1.0656  1.5136  1.2161
 1260SOL    HW213885   8.930   2.759   0.480 -0.3780 -1.4717  0.2245
 1261SOL     OW13886   1.229   2.775   2.796 -0.3805  0.3277 -0.0512
 1261SOL    HW113887   1.178   2.690   2.785 -1.8400  1.2381 -0.4337
 1261SOL    HW213888   1.292   2.787   2.720  1.0620 -1.2435  0.8759
 1262SOL     OW13889   1.621   1.127   0.627 -0.0233  0.3709  0.2978
 1262SOL    HW113890   1.571   1.051   0.585  2.4539 -1.3475  0.3849
 1262SOL    HW213891   1.600   1.130   0.725 -0.0942 -0.2449  0.3048
 1263SOL     OW13892   9.168   0.563   2.384 -0.0790  0.3858 -0.2084
 1263SOL    HW113893   9.094   0.544   2.449  0.3204 -0.5413 -0.0261
 1263SOL    HW213894   9.214   0.647   2.411  0.9677 -0.7114  1.5163
 1264SOL     OW13895   3.200   3.582   2.732 -0.6108  0.1272  0.1868
 1264SOL    HW113896   3.235   3.505   2.786 -1.4757  0.8942  1.8721
 1264SOL    HW213897   3.112   3.558   2.692 -1.4836  0.6655  1.7542
 1265SOL     OW13898   1.341   7.098   1.157  0.2189  0.1882 -0.1228
 1265SOL    HW113899   1.401   7.172   1.188 -1.7407  2.5122 -1.7667
 1265SOL    HW213900   1.247   7.130   1.154 -0.5890 -2.2043 -1.4668
 1266SOL     OW13901   0.903   8.065   1.530 -0.0309  0.2016  0.7986
 1266SOL    HW113902   0.949   8.047   1.618 -1.8191 -1.7957  1.3627
 1266SOL    HW213903   0.852   7.984   1.502  0.9215  0.6250 -2.3775
 1267SOL     OW13904   2.385   6.238   2.743 -0.7461  0.1450  0.2642
 1267SOL    HW113905   2.467   6.191   2.775 -1.6563 -0.8658  1.1852
 1267SOL    HW213906   2.391   6.252   2.644 -0.0973 -1.2400  0.0921
 1268SOL     OW13907   1.652   7.275   2.332  0.4498 -0.4235 -0.5241
 1268SOL    HW113908   1.608   7.361   2.305  0.4074 -0.0633  0.6612
 1268SOL    HW213909   1.609   7.199   2.285 -0.5473  0.0635 -0.4024
 1269SOL     OW13910   1.190   4.248   0.502 -0.2499 -0.0446 -0.3208
 1269SOL    HW113911   1.220   4.230   0.409  1.2032 -0.0999  0.1531
 1269SOL    HW213912   1.096   4.284   0.500 -1.2020 -2.4876 -1.6101
 1270SOL     OW13913   9.986   5.461   2.396 -0.4914  0.4466  0.6614
 1270SOL    HW113914   9.903   5.513   2.379 -1.0375 -0.3944  0.7377
 1270SOL    HW213915  10.040   5.455   2.312 -0.6318  0.7781  0.5495
 1271SOL     OW13916   3.049   2.001   0.101 -0.4810 -0.4599  0.1981
 1271SOL    HW113917   3.071   1.933   0.031  1.8346  0.5080 -0.0442
 1271SOL    HW213918   3.132   2.028   0.148 -1.5997  1.1714  1.2629
 1272SOL     OW13919   3.189   3.553   0.510  0.3074 -0.1362  0.1826
 1272SOL    HW113920   3.199   3.632   0.450 -0.9424 -0.6460 -0.7360
 1272SOL    HW213921   3.179   3.583   0.605 -0.0367  0.8049 -0.1500
 1273SOL     OW13922   2.174   5.000   2.154  0.6980 -0.6563 -0.5184
 1273SOL    HW113923   2.136   4.954   2.234 -2.0806  1.2041 -0.6749
 1273SOL    HW213924   2.273   5.011   2.164  0.5407 -1.4562  2.1245
 1274SOL     OW13925   2.095   8.231   1.318  0.1471  0.3838 -0.1919
 1274SOL    HW113926   2.089   8.272   1.409 -0.5054  1.8164 -0.8604
 1274SOL    HW213927   2.030   8.276   1.257  0.7380 -0.4106 -1.4301
 1275SOL     OW13928   1.348   1.137   2.368  0.4222 -0.1958  0.5369
 1275SOL    HW113929   1.335   1.112   2.464 -0.8011 -0.1537  0.3883
 1275SOL    HW213930   1.401   1.221   2.362 -1.0213  0.7851  1.2381
 1276SOL     OW13931   0.539   1.711   1.752  0.6054  0.2267  0.0032
 1276SOL    HW113932   0.465   1.665   1.703 -1.4815  1.0143  2.3117
 1276SOL    HW213933   0.549   1.804   1.717  1.5535 -0.3935 -1.3721
 1277SOL     OW13934   8.944   8.174   1.481 -0.8904  0.1965 -0.0582
 1277SOL    HW113935   8.999   8.214   1.408 -1.9206 -1.1201 -1.5982
 1277SOL    HW213936   8.947   8.234   1.561  1.1799  1.0991 -0.7668
 1278SOL     OW13937   2.051   4.428   1.333 -0.1159 -0.1521  0.3049
 1278SOL    HW113938   2.009   4.371   1.404  0.2568  0.6339  1.1615
 1278SOL    HW213939   2.136   4.385   1.303 -0.9176 -1.1450 -0.6016
 1279SOL     OW13940   2.443   4.887   1.492 -0.1362 -0.1090  0.1334
 1279SOL    HW113941   2.427   4.984   1.512 -0.4496  0.1168 -1.1679
 1279SOL    HW213942   2.530   4.877   1.444  0.2464 -0.5641  0.9109
 1280SOL     OW13943   3.629   4.275   2.777 -0.0969  0.0391  0.2915
 1280SOL    HW113944   3.552   4.301   2.836 -0.3984  0.4860 -0.2928
 1280SOL    HW213945   3.594   4.235   2.693  0.3087  0.3123 -0.0072
 1281SOL     OW13946   1.054   2.267   0.209  0.1348 -0.3419 -0.4289
 1281SOL    HW113947   1.031   2.345   0.266 -1.4139 -1.5759  0.6751
 1281SOL    HW213948   1.145   2.233   0.233 -0.8282 -1.3637  1.9272
 1282SOL     OW13949   3.006   4.425   2.758  0.3870  0.2449  0.0771
 1282SOL    HW113950   3.036   4.519   2.778  2.8422 -0.4613 -0.1740
 1282SOL    HW213951   3.002   4.411   2.659  1.3465 -0.3374  0.1245
 1283SOL     OW13952   4.132   9.230   1.490  0.3144  0.0690 -0.0594
 1283SOL    HW113953   4.097   9.136   1.493 -0.0291  0.1628 -1.1394
 1283SOL    HW213954   4.193   9.244   1.568 -1.5292 -0.3042  1.5040
 1284SOL     OW13955   0.613   7.011   1.240 -0.4385  0.3214  0.4377
 1284SOL    HW113956   0.635   6.989   1.145 -1.6555 -1.8390  0.6352
 1284SOL    HW213957   0.521   7.049   1.244 -1.2558 -1.6834  1.0026
 1285SOL     OW13958   3.023   5.288   0.309 -0.4288 -0.0968 -0.2678
 1285SOL    HW113959   2.947   5.298   0.244  2.2662 -1.0310 -3.7097
 1285SOL    HW213960   3.082   5.368   0.304  0.2536 -0.5506  0.4591
 1286SOL     OW13961   2.689   5.862   2.426 -0.1852 -0.2323 -0.8983
 1286SOL    HW113962   2.779   5.824   2.450 -0.9083 -1.0128  0.6091
 1286SOL    HW213963   2.687   5.882   2.328  2.0008  0.7692 -0.7807
 1287SOL     OW13964   1.563   7.051   2.078 -0.2642 -0.5597 -0.2606
 1287SOL    HW113965   1.488   7.112   2.104  0.3554  0.4758 -0.8780
 1287SOL    HW213966   1.564   7.041   1.979  1.1459  0.3839 -0.3494
 1288SOL     OW13967   4.016   1.045   0.255  0.3732 -0.1690  0.3283
 1288SOL    HW113968   4.099   1.067   0.306  1.0326 -0.5086 -0.5887
 1288SOL    HW213969   4.040   0.992   0.173 -0.6816  0.3099 -0.2966
 1289SOL     OW13970   9.939   4.979   2.740 -0.0040 -0.0668 -0.1690
 1289SOL    HW113971   9.871   4.910   2.767  1.1874 -0.9576  0.6088
 1289SOL    HW213972  10.016   4.933   2.696  1.0682  0.7073  0.8776
 1290SOL     OW13973  10.206   5.358   1.433 -0.1722 -0.3686  0.0687
 1290SOL    HW113974  10.169   5.442   1.393  1.2131  0.1564 -0.1302
 1290SOL    HW213975  10.266   5.313   1.367 -1.0522 -1.6228  0.1041
 1291SOL     OW13976   4.374   4.953   0.956 -0.4118  0.1724  0.7422
 1291SOL    HW113977   4.451   4.903   0.997  0.7393  0.0620 -1.4581
 1291SOL    HW213978   4.404   5.046   0.935 -0.9482  0.1970  0.0886
 1292SOL     OW13979   9.620   4.239   2.442  0.2296  0.1090 -0.6968
 1292SOL    HW113980   9.665   4.211   2.527 -2.4422  1.5971  1.2452
 1292SOL    HW213981   9.690   4.271   2.377  2.3120 -1.1448  0.8416
 1293SOL     OW13982   1.990   3.770   1.707  1.0899 -0.0479 -0.0162
 1293SOL    HW113983   2.017   3.865   1.725 -0.2866  0.5033 -0.7832
 1293SOL    HW213984   2.001   3.717   1.791  1.3536  0.9146  0.5766
 1294SOL     OW13985   2.499   9.260   0.258 -0.0532  0.3523 -0.0754
 1294SOL    HW113986   2.433   9.266   0.183 -0.6674 -0.3637  0.4133
 1294SOL    HW213987   2.466   9.313   0.336 -0.3923 -0.6006  0.4261
 1295SOL     OW13988   1.747   6.145   1.696 -0.4281 -0.2476 -0.1502
 1295SOL    HW113989   1.680   6.158   1.623 -1.0881 -0.9937  0.3121
 1295SOL    HW213990   1.798   6.230   1.710 -3.6895  1.5266  1.8388
 1296SOL     OW13991   9.418   8.474   1.195 -0.3242 -0.1245 -0.1599
 1296SOL    HW113992   9.352   8.492   1.121 -1.4297  0.7613  0.9998
 1296SOL    HW213993   9.446   8.561   1.236  0.5422 -0.5817  0.2271
 1297SOL     OW13994   9.865   9.194   1.863  0.2586  0.2040  0.0481
 1297SOL    HW113995   9.955   9.175   1.824 -0.3354  0.0541 -1.2981
 1297SOL    HW213996   9.852   9.140   1.946 -0.1377 -2.8623 -1.9221
 1298SOL     OW13997   1.492   8.189   0.193  0.1045  0.1743 -0.6246
 1298SOL    HW113998   1.543   8.103   0.187 -0.8049 -0.2449 -2.5418
 1298SOL    HW213999   1.555   8.266   0.189  0.9532 -0.3862  1.4068
 1299SOL     OW14000   3.641   5.714   2.514  0.3000  0.1360  0.1200
 1299SOL    HW114001   3.680   5.626   2.540  0.5786 -0.0677 -0.9878
 1299SOL    HW214002   3.580   5.703   2.436 -1.8859  0.4816  1.7103
 1300SOL     OW14003  10.197   9.548   0.350 -0.0027 -0.3678 -0.1471
 1300SOL    HW114004  10.170   9.623   0.411 -0.0840 -1.5548  1.2983
 1300SOL    HW214005  10.295   9.531   0.361  0.4721  0.9628 -2.0947
 1301SOL     OW14006   9.662   6.562   1.070 -0.3457 -0.8418 -0.3715
 1301SOL    HW114007   9.686   6.500   0.995  0.3238 -1.1544  0.1060
 1301SOL    HW214008   9.580   6.529   1.116 -0.4669 -0.9189 -0.6426
 1302SOL     OW14009  10.246   9.428   1.929 -0.4929 -0.4982  0.5954
 1302SOL    HW114010  10.180   9.451   1.858 -0.4874  0.2564  0.8271
 1302SOL    HW214011  10.304   9.352   1.898 -1.2592 -0.9556  0.2685
 1303SOL     OW14012   1.985   0.166   2.038 -0.6601 -0.3653  0.4215
 1303SOL    HW114013   2.023   0.208   2.121 -1.4202  1.2105 -0.0247
 1303SOL    HW214014   1.911   0.223   2.003 -0.2061 -0.9294 -1.4727
 1304SOL     OW14015   2.676   3.424   1.252 -0.1307  0.3229 -0.7322
 1304SOL    HW114016   2.687   3.505   1.193  1.0004  0.1328 -0.8027
 1304SOL    HW214017   2.594   3.435   1.308 -0.8373  0.8224 -1.8434
 1305SOL     OW14018   2.284   7.318   1.384  0.0837 -0.0153  0.1764
 1305SOL    HW114019   2.309   7.274   1.470 -0.7857  1.4142  1.1769
 1305SOL    HW214020   2.185   7.315   1.372  0.2021 -0.2709 -0.8145
 1306SOL     OW14021   3.277   9.829   2.533  0.6593 -0.1619  0.0881
 1306SOL    HW114022   3.242   9.833   2.626 -0.5856 -0.8181 -0.3294
 1306SOL    HW214023   3.201   9.814   2.470  1.5385 -0.1471 -0.9933
 1307SOL     OW14024   3.201   4.290   2.475 -0.0161  0.1968  0.8750
 1307SOL    HW114025   3.273   4.224   2.452 -0.5329 -0.4157  1.0145
 1307SOL    HW214026   3.122   4.241   2.512 -0.8735  0.7876 -0.1901
 1308SOL     OW14027   2.028   0.950   1.983 -0.3506 -0.0323 -0.2305
 1308SOL    HW114028   2.112   1.002   1.963 -1.5032  1.2099 -1.9531
 1308SOL    HW214029   1.990   0.981   2.069  1.5956 -1.4542  1.1939
 1309SOL     OW14030   1.385   6.860   2.414 -0.3146 -0.0873 -0.3627
 1309SOL    HW114031   1.367   6.946   2.462 -1.6348  0.1079 -1.1994
 1309SOL    HW214032   1.446   6.877   2.337  1.6660 -0.3706  1.1141
 1310SOL     OW14033   2.865   1.134   1.128 -0.5240 -0.3381  0.0733
 1310SOL    HW114034   2.955   1.107   1.162 -1.0839  0.1470  2.0333
 1310SOL    HW214035   2.856   1.107   1.032  1.8788  0.0482 -0.2987
 1311SOL     OW14036   2.247   1.547   2.447 -0.1885 -0.4528  0.0077
 1311SOL    HW114037   2.329   1.599   2.422 -0.5674 -0.3091 -0.9979
 1311SOL    HW214038   2.272   1.452   2.464  0.0988 -0.5710 -1.0021
 1312SOL     OW14039   0.733   9.686   2.401  0.3202 -0.4266  0.0853
 1312SOL    HW114040   0.744   9.614   2.470  0.7811 -2.1814 -1.7589
 1312SOL    HW214041   0.676   9.652   2.326 -0.0373  1.3890 -0.4823
 1313SOL     OW14042   0.464   4.873   2.358  0.1055  0.5600 -0.5072
 1313SOL    HW114043   0.386   4.901   2.302 -0.2693  0.8247  0.1386
 1313SOL    HW214044   0.438   4.794   2.413  0.5748  0.0989 -0.9382
 1314SOL     OW14045   9.783   6.394   0.348  0.1954 -0.0019  0.2100
 1314SOL    HW114046   9.724   6.441   0.282  0.9781  2.0375  0.9353
 1314SOL    HW214047   9.861   6.354   0.301 -0.3693 -0.4159 -0.3846
 1315SOL     OW14048   9.331   4.465   2.637 -0.4990 -0.0925 -0.7028
 1315SOL    HW114049   9.302   4.375   2.670 -1.9995  0.7869  0.4023
 1315SOL    HW214050   9.281   4.487   2.554  0.2574 -0.4858 -1.2758
 1316SOL     OW14051   9.449   7.687   1.150 -0.0130  0.2236 -0.0803
 1316SOL    HW114052   9.526   7.737   1.110 -0.1193  2.0191  1.8501
 1316SOL    HW214053   9.364   7.734   1.126 -0.2071  0.2803  0.6875
 1317SOL     OW14054   0.638   2.864   0.322  0.0058 -0.0483 -0.2810
 1317SOL    HW114055   0.572   2.861   0.247  1.2536  2.4006 -1.5584
 1317SOL    HW214056   0.706   2.792   0.309 -1.0494 -1.0608 -0.2574
 1318SOL     OW14057   9.574   0.697   0.108 -0.0192  0.4661 -0.6458
 1318SOL    HW114058   9.579   0.677   0.206 -1.3675  0.6099 -0.5492
 1318SOL    HW214059   9.502   0.643   0.066 -0.2089  1.2583 -1.3504
 1319SOL     OW14060   2.536   5.925   0.880 -0.0483  0.4164  0.5946
 1319SOL    HW114061   2.566   5.897   0.971  1.5554  1.6615  0.4709
 1319SOL    HW214062   2.570   6.017   0.861 -1.1591  0.5274 -0.9031
 1320SOL     OW14063   0.439   3.939   0.616  0.3976  0.5239 -0.1529
 1320SOL    HW114064   0.357   3.891   0.586  0.9225  0.2940 -1.2688
 1320SOL    HW214065   0.518   3.878   0.609  0.2204 -0.2993  3.9968
 1321SOL     OW14066   0.639   9.789   0.403  0.2232 -0.0755 -0.1760
 1321SOL    HW114067   0.659   9.753   0.494  0.6969  1.4084  0.3247
 1321SOL    HW214068   0.672   9.883   0.397  0.5860 -0.3084 -2.0373
 1322SOL     OW14069   3.836   1.162   0.676  0.0218  0.6942  0.2708
 1322SOL    HW114070   3.768   1.233   0.695 -0.2869  0.3993  0.2532
 1322SOL    HW214071   3.868   1.172   0.581 -2.2257 -1.0561 -0.7119
 1323SOL     OW14072   9.332   7.786   2.286  0.2050  0.1691  0.3511
 1323SOL    HW114073   9.264   7.842   2.333 -0.0586 -0.5614  0.8504
 1323SOL    HW214074   9.294   7.749   2.202 -0.3540 -1.0570  1.1337
 1324SOL     OW14075   1.784   0.330   1.996  0.2408 -0.6395  0.1012
 1324SOL    HW114076   1.729   0.401   2.041  0.6124 -1.5311  2.0061
 1324SOL    HW214077   1.725   0.254   1.970  0.1437 -0.4333 -0.2889
 1325SOL     OW14078   4.263   9.625   2.359 -0.2828  0.5966  0.1182
 1325SOL    HW114079   4.212   9.609   2.274 -0.5805 -0.4745  0.4826
 1325SOL    HW214080   4.333   9.554   2.369 -0.8703  0.1588  1.2304
 1326SOL     OW14081   2.796   4.026   0.930 -0.5053 -0.2825  0.2543
 1326SOL    HW114082   2.842   4.017   1.018 -0.5810  0.6138  0.3960
 1326SOL    HW214083   2.863   4.044   0.858 -0.7103  2.1950  0.6453
 1327SOL     OW14084   3.414   1.887   0.904  0.5296  0.1027  0.1347
 1327SOL    HW114085   3.482   1.948   0.946 -0.5222  1.5054 -0.1461
 1327SOL    HW214086   3.423   1.795   0.942  4.5222 -0.5051 -1.9481
 1328SOL     OW14087   3.085   7.616   2.769  0.5163  0.0595 -0.1992
 1328SOL    HW114088   3.009   7.657   2.819  1.0275 -0.2565  0.8463
 1328SOL    HW214089   3.054   7.590   2.677 -0.4589  0.5189 -0.0051
 1329SOL     OW14090   2.096   7.441   0.403 -0.4218  0.1971  0.0404
 1329SOL    HW114091   2.000   7.418   0.391 -0.2108 -0.6111 -0.1255
 1329SOL    HW214092   2.153   7.378   0.350  0.1004  2.1592 -1.7896
 1330SOL     OW14093   3.160   1.066   0.408  0.1808  0.3802 -0.2113
 1330SOL    HW114094   3.110   0.980   0.407 -0.8001  0.9463 -0.0257
 1330SOL    HW214095   3.259   1.047   0.411 -0.0199 -0.7288 -0.4318
 1331SOL     OW14096   1.518   6.252   0.767  0.0638 -0.8558  0.0137
 1331SOL    HW114097   1.426   6.216   0.780 -1.2258  1.6720 -1.6808
 1331SOL    HW214098   1.551   6.292   0.853 -0.8575 -0.8353  0.3630
 1332SOL     OW14099   2.150   0.687   0.443  0.0665  0.1552 -0.8625
 1332SOL    HW114100   2.088   0.689   0.521 -0.1628  1.2349 -1.0563
 1332SOL    HW214101   2.108   0.635   0.368 -0.0262 -0.2536 -0.5282
 1333SOL     OW14102   3.537   5.095   1.737 -0.0976  0.2802  0.0579
 1333SOL    HW114103   3.620   5.051   1.771  0.3307  0.3546 -0.8702
 1333SOL    HW214104   3.548   5.194   1.744 -0.1157  0.2897 -0.0617
 1334SOL     OW14105  10.323   4.348   0.877 -0.2860  0.3598  0.0373
 1334SOL    HW114106  10.233   4.318   0.908 -0.2864  0.3725  0.0512
 1334SOL    HW214107  10.394   4.305   0.934 -0.2492 -0.2939 -0.4947
 1335SOL     OW14108   4.703   3.116   1.824 -0.4508  0.2121  0.0851
 1335SOL    HW114109   4.738   3.022   1.821 -1.1579 -0.0492 -0.1778
 1335SOL    HW214110   4.669   3.136   1.915  0.5031  0.5154  0.3805
 1336SOL     OW14111   9.797   9.138   0.308  0.4908  0.0904  0.2478
 1336SOL    HW114112   9.879   9.081   0.302 -1.2426 -2.4161 -0.2368
 1336SOL    HW214113   9.798   9.188   0.394  1.6617 -1.3209  1.0845
 1337SOL     OW14114   0.719   7.520   1.202  0.1504 -0.0509  0.0002
 1337SOL    HW114115   0.796   7.468   1.239  0.0194 -0.3472 -0.1386
 1337SOL    HW214116   0.656   7.545   1.276  0.5077  0.4095  0.1489
 1338SOL     OW14117   3.183   8.488   2.339  0.4158 -0.7179  0.2806
 1338SOL    HW114118   3.268   8.538   2.355  0.8332 -0.8287 -1.4549
 1338SOL    HW214119   3.132   8.480   2.425  0.2807  2.7774  0.6240
 1339SOL     OW14120   2.504   6.472   0.834  0.1583  0.1744  1.0112
 1339SOL    HW114121   2.451   6.396   0.871  0.3513  0.8605  2.7082
 1339SOL    HW214122   2.530   6.451   0.739 -1.4630 -1.0101  0.8008
 1340SOL     OW14123   1.528   8.416   0.986 -1.2367  0.2934 -0.5906
 1340SOL    HW114124   1.562   8.377   1.072  0.5675  1.0753 -0.9421
 1340SOL    HW214125   1.530   8.346   0.915  1.1121  0.7271 -0.9857
 1341SOL     OW14126   2.279   3.239   1.211  0.1932  0.2157 -0.6312
 1341SOL    HW114127   2.213   3.164   1.211  0.6807 -0.2200 -0.0925
 1341SOL    HW214128   2.368   3.205   1.180 -0.1463  1.0960 -2.6549
 1342SOL     OW14129   1.934   7.381   2.265  0.6260  0.0073 -0.2914
 1342SOL    HW114130   1.837   7.370   2.287  0.5565  0.2023 -0.4943
 1342SOL    HW214131   1.969   7.296   2.225  0.6173 -0.1673  0.0716
 1343SOL     OW14132   0.720   3.627   2.503  0.3675  0.5213 -0.3310
 1343SOL    HW114133   0.636   3.680   2.500  0.1554  0.2360  0.4263
 1343SOL    HW214134   0.736   3.585   2.414 -0.0083  1.0144 -0.6299
 1344SOL     OW14135   1.164   9.822   0.645 -0.2259 -0.3691  0.0524
 1344SOL    HW114136   1.194   9.737   0.689 -0.3244 -0.0707  0.7120
 1344SOL    HW214137   1.243   9.883   0.634 -0.2531 -0.3251  0.0986
 1345SOL     OW14138   9.267   5.752   0.103  0.4108  0.2724 -0.0082
 1345SOL    HW114139   9.245   5.672   0.159  1.0138 -0.2912 -0.5696
 1345SOL    HW214140   9.284   5.831   0.162  0.3019 -0.1370  0.5686
 1346SOL     OW14141   9.181   7.954   2.469 -0.4610  0.1044 -0.2240
 1346SOL    HW114142   9.180   8.036   2.526  0.4073 -1.1485  1.6489
 1346SOL    HW214143   9.214   7.877   2.523 -1.4319 -1.5243 -1.9088
 1347SOL     OW14144   2.580   1.995   0.919  0.1250 -0.2551  0.3890
 1347SOL    HW114145   2.573   1.974   0.821  1.8148 -1.2451  0.4642
 1347SOL    HW214146   2.590   2.094   0.931 -0.6509 -0.0724 -0.3964
 1348SOL     OW14147   1.843   3.083   1.069 -0.6493  0.4365 -0.2194
 1348SOL    HW114148   1.818   3.000   1.020 -0.4509  0.2440  0.0037
 1348SOL    HW214149   1.762   3.124   1.110 -0.8970  0.8895 -1.1618
 1349SOL     OW14150   3.475   5.620   2.317 -0.1794 -0.3140  0.3510
 1349SOL    HW114151   3.390   5.609   2.266  0.1658 -1.0372 -0.0744
 1349SOL    HW214152   3.505   5.531   2.352 -0.5665  0.2087  2.0630
 1350SOL     OW14153   2.767   9.353   2.081 -0.2724 -0.2627  0.4467
 1350SOL    HW114154   2.831   9.338   2.005  0.7705 -1.2729  1.4967
 1350SOL    HW214155   2.676   9.370   2.045  0.4171  0.3330 -1.0617
 1351SOL     OW14156   3.643   1.008   0.099 -0.1365  0.0430  0.2445
 1351SOL    HW114157   3.574   1.024   0.029  1.0330 -0.3176 -1.0261
 1351SOL    HW214158   3.730   1.047   0.070 -0.0778  1.5829  2.3825
 1352SOL     OW14159   2.216   2.755   2.308  0.1928  1.1295 -0.6007
 1352SOL    HW114160   2.308   2.730   2.336 -0.6683  2.1744  3.5376
 1352SOL    HW214161   2.212   2.853   2.289  0.2441  0.8342 -2.1494
 1353SOL     OW14162   3.896   2.235   2.104 -0.6296 -0.2500 -0.7678
 1353SOL    HW114163   3.796   2.231   2.099 -0.7180  1.8293 -0.9769
 1353SOL    HW214164   3.925   2.324   2.139  1.1582 -0.9264 -0.4424
 1354SOL     OW14165   2.160   7.385   0.712  0.9774  0.6033  0.0569
 1354SOL    HW114166   2.077   7.407   0.764  0.6520  1.7270 -0.9203
 1354SOL    HW214167   2.181   7.460   0.650  0.5136 -1.3432 -2.5268
 1355SOL     OW14168   3.044   3.887   2.595 -0.6101 -0.3266  0.0920
 1355SOL    HW114169   3.006   3.828   2.523  1.1723 -1.5893  0.1481
 1355SOL    HW214170   3.008   3.859   2.684 -0.2514 -0.9431  0.0479
 1356SOL     OW14171   1.941   9.181   0.983  0.1105  0.4856  0.1921
 1356SOL    HW114172   1.935   9.165   1.082 -0.7439  0.7534  0.1812
 1356SOL    HW214173   1.871   9.129   0.936 -0.4369  1.5061 -0.1452
 1357SOL     OW14174   4.370   9.267   0.218  0.0751 -0.3618 -0.1255
 1357SOL    HW114175   4.370   9.256   0.318  2.0878  0.0485 -0.0460
 1357SOL    HW214176   4.308   9.341   0.192  0.1321  0.0507  0.8929
 1358SOL     OW14177   1.455   1.513   0.571 -0.1196 -0.3043  0.8122
 1358SOL    HW114178   1.418   1.518   0.663 -0.6439  0.1882  0.5748
 1358SOL    HW214179   1.527   1.582   0.559 -1.0210  0.5764  0.4156
 1359SOL     OW14180   2.100   1.955   1.374  0.4161  0.2453  0.3116
 1359SOL    HW114181   2.057   1.870   1.406  0.9931  0.0669  0.6241
 1359SOL    HW214182   2.198   1.951   1.392  0.7632  0.1397 -1.4918
 1360SOL     OW14183   4.124   1.399   1.605  0.2241 -0.4312 -0.0774
 1360SOL    HW114184   4.125   1.481   1.663  0.3003 -0.1356 -0.4925
 1360SOL    HW214185   4.084   1.323   1.655 -0.4139  0.0205  0.0956
 1361SOL     OW14186   2.331   3.495   1.107  0.5961  0.2119 -0.6496
 1361SOL    HW114187   2.291   3.425   1.166  1.1482  0.2719 -0.2106
 1361SOL    HW214188   2.335   3.582   1.156 -0.4776  0.6560 -1.3362
 1362SOL     OW14189   0.471   0.986   0.764  0.3679 -0.3652  0.2963
 1362SOL    HW114190   0.494   1.005   0.669  0.7816  0.9571  0.6532
 1362SOL    HW214191   0.540   0.925   0.803  0.1079 -1.0407 -0.2962
 1363SOL     OW14192   1.718   9.236   0.353  0.5619 -0.2238  0.1742
 1363SOL    HW114193   1.653   9.240   0.430  1.6554  4.0349  1.0283
 1363SOL    HW214194   1.809   9.213   0.388  0.2915 -2.3531 -0.4759
 1364SOL     OW14195   3.254   0.623   0.140 -0.1392 -0.2828 -0.8615
 1364SOL    HW114196   3.200   0.544   0.112  0.1498 -1.1623  0.9667
 1364SOL    HW214197   3.192   0.697   0.167 -0.4987 -1.2238  1.0451
 1365SOL     OW14198   0.633   6.263   2.069  0.3214 -0.4827  0.4255
 1365SOL    HW114199   0.569   6.207   2.016  1.5504 -1.6278  0.1391
 1365SOL    HW214200   0.643   6.353   2.025  0.1480 -0.8724 -0.4168
 1366SOL     OW14201   2.917   9.636   2.121  0.2070 -0.4473 -0.0944
 1366SOL    HW114202   2.868   9.616   2.206  0.5033 -1.4178 -0.1490
 1366SOL    HW214203   2.945   9.550   2.078  2.1990  0.0853  0.0885
 1367SOL     OW14204  10.137   3.506   2.384 -0.1479  0.0637  0.7044
 1367SOL    HW114205  10.132   3.430   2.450 -2.3272  1.1192  1.8044
 1367SOL    HW214206  10.064   3.496   2.316  1.3102 -0.3271 -0.8308
 1368SOL     OW14207   0.691   9.753   0.126  0.0031 -0.3928  0.6569
 1368SOL    HW114208   0.687   9.734   0.225 -0.2380 -0.9319  0.5460
 1368SOL    HW214209   0.785   9.744   0.094  0.1654  0.2816  0.9343
 1369SOL     OW14210   1.246   6.719   1.841 -0.4197  0.0446 -0.3587
 1369SOL    HW114211   1.205   6.703   1.751  0.8067  0.2340 -0.9530
 1369SOL    HW214212   1.207   6.802   1.880 -0.7656  0.1043 -0.8189
 1370SOL     OW14213   4.158   9.243   1.075 -0.0550 -0.0811 -0.2454
 1370SOL    HW114214   4.118   9.282   0.992  0.9409  1.1522 -0.1422
 1370SOL    HW214215   4.147   9.143   1.072 -1.4645  0.0764 -1.0943
 1371SOL     OW14216   2.475   7.798   1.060  0.0024  0.0437  0.4478
 1371SOL    HW114217   2.469   7.817   1.158  1.4771  1.9682  0.1850
 1371SOL    HW214218   2.561   7.834   1.023 -0.2372 -1.2105 -1.4400
 1372SOL     OW14219   4.325   1.643   1.553 -0.1705  0.5109 -0.4785
 1372SOL    HW114220   4.358   1.649   1.647 -0.6459  0.1959 -0.2896
 1372SOL    HW214221   4.229   1.670   1.549 -0.8166 -1.6899 -0.4807
 1373SOL     OW14222   0.721   4.108   2.278  0.2617  0.5588 -0.3658
 1373SOL    HW114223   0.773   4.146   2.202  0.5542 -1.6016 -1.2661
 1373SOL    HW214224   0.766   4.132   2.364  0.8662  1.5747 -0.9566
 1374SOL     OW14225   3.576   3.799   2.688 -0.2685 -0.2021 -0.1476
 1374SOL    HW114226   3.484   3.792   2.650  0.3511  1.3773 -2.0496
 1374SOL    HW214227   3.639   3.828   2.616  1.2402  1.3190  1.7313
 1375SOL     OW14228   2.766   2.340   1.651 -0.7238 -0.2342 -0.3602
 1375SOL    HW114229   2.740   2.257   1.602 -0.3238 -1.7398  1.8827
 1375SOL    HW214230   2.690   2.369   1.709  0.1137 -0.6699  0.9763
 1376SOL     OW14231   2.815   1.877   1.490 -0.0620 -0.0419 -0.6454
 1376SOL    HW114232   2.796   1.816   1.567 -1.8467  1.7753  0.4126
 1376SOL    HW214233   2.877   1.950   1.520  0.2137 -0.0255 -1.2526
 1377SOL     OW14234   1.286   0.298   1.602 -0.5764  0.0222  0.3260
 1377SOL    HW114235   1.270   0.285   1.700  1.7731 -0.7472  0.6365
 1377SOL    HW214236   1.323   0.389   1.586  0.2667 -0.3183  0.3167
 1378SOL     OW14237   0.899   3.341   0.440 -0.0991  0.0034 -0.3089
 1378SOL    HW114238   0.811   3.347   0.488  2.2369 -0.0273  4.1810
 1378SOL    HW214239   0.925   3.245   0.430 -0.7731 -0.0159 -2.1768
 1379SOL     OW14240   1.806   1.320   2.432  0.3717  0.1161 -0.4389
 1379SOL    HW114241   1.710   1.300   2.452 -0.1863  1.4960 -1.6121
 1379SOL    HW214242   1.817   1.331   2.333  1.7970 -0.2716 -0.3282
 1380SOL     OW14243   2.397   8.552   2.089  0.8019 -0.0810 -0.0706
 1380SOL    HW114244   2.416   8.644   2.124  1.9117 -0.0554 -0.7323
 1380SOL    HW214245   2.302   8.548   2.056  0.4518  0.5430  0.8490
 1381SOL     OW14246   2.261   0.769   0.734  0.0467  0.3883  0.0357
 1381SOL    HW114247   2.335   0.704   0.748  1.0004  1.1214 -1.4459
 1381SOL    HW214248   2.180   0.721   0.700  0.1584 -0.2698  0.6825
 1382SOL     OW14249   2.784   9.396   2.719  0.0846  0.0189 -0.1437
 1382SOL    HW114250   2.752   9.307   2.751  0.6464  0.0357  0.4802
 1382SOL    HW214251   2.884   9.399   2.726  0.1494  0.3284 -1.1181
 1383SOL     OW14252  10.219   2.356   0.710 -0.1399  0.4110  0.2608
 1383SOL    HW114253  10.183   2.262   0.717  2.0541 -0.4234  0.8203
 1383SOL    HW214254  10.314   2.352   0.678  0.2743  2.3948  1.2200
 1384SOL     OW14255   2.260   1.458   0.713  0.2463 -0.3699 -0.6090
 1384SOL    HW114256   2.354   1.438   0.739  0.2403 -2.6644 -2.2039
 1384SOL    HW214257   2.199   1.389   0.751 -0.5670  0.0925 -1.0450
 1385SOL     OW14258   1.617   9.277   1.116  0.6214  0.1016  0.3896
 1385SOL    HW114259   1.578   9.369   1.109  0.6382 -0.0283 -1.5813
 1385SOL    HW214260   1.572   9.216   1.051  1.5335 -0.9674  0.7321
 1386SOL     OW14261   1.727   2.042   0.535  0.0770 -0.6086 -0.4405
 1386SOL    HW114262   1.631   2.014   0.537 -0.0856 -0.0529 -0.0840
 1386SOL    HW214263   1.735   2.128   0.485 -0.1324  1.1727  2.4347
 1387SOL     OW14264   2.327   9.527   0.925 -0.0835  0.3266 -0.0220
 1387SOL    HW114265   2.421   9.555   0.907  0.0400 -0.7992 -1.1935
 1387SOL    HW214266   2.315   9.510   1.023  0.5741  1.7210  0.3107
 1388SOL     OW14267   2.759   7.739   1.094  0.9760  0.1004  0.3165
 1388SOL    HW114268   2.763   7.774   1.000  0.5999  0.3590  0.3967
 1388SOL    HW214269   2.727   7.644   1.092 -0.0502  0.4341  0.2544
 1389SOL     OW14270   1.248   0.141   2.621 -0.0513 -0.0250 -0.4843
 1389SOL    HW114271   1.293   0.135   2.532  0.9639  0.4007 -0.0192
 1389SOL    HW214272   1.316   0.168   2.690 -0.4281 -2.1302  0.7369
 1390SOL     OW14273   0.824   5.179   1.715 -0.1138 -0.3543  0.1030
 1390SOL    HW114274   0.866   5.096   1.679 -0.1334 -0.4116  0.2109
 1390SOL    HW214275   0.895   5.248   1.731  0.0392 -0.6992  0.9606
 1391SOL     OW14276   2.090   9.450   0.085 -0.0187  0.2113  0.2772
 1391SOL    HW114277   2.172   9.395   0.070 -0.2949 -0.0623 -0.2547
 1391SOL    HW214278   2.104   9.510   0.164  0.8537  0.4807 -0.0713
 1392SOL     OW14279   2.796   3.644   2.142  0.0564 -0.0117  0.0399
 1392SOL    HW114280   2.794   3.739   2.172 -0.4823 -0.2614  0.8309
 1392SOL    HW214281   2.844   3.637   2.055  0.7833  0.8742  0.3647
 1393SOL     OW14282   2.537   7.240   0.464 -0.0244 -0.1000  0.3036
 1393SOL    HW114283   2.480   7.210   0.540  0.0720 -2.1005 -0.3753
 1393SOL    HW214284   2.534   7.171   0.391  1.5561  0.7864 -0.6328
 1394SOL     OW14285   1.309   2.255   2.724  0.3056 -0.3169 -0.3950
 1394SOL    HW114286   1.279   2.338   2.771  1.7736  0.0504 -0.0907
 1394SOL    HW214287   1.234   2.220   2.668  0.2967  2.3217 -2.0971
 1395SOL     OW14288   9.441   0.474   2.440 -0.2853 -0.1059  0.2277
 1395SOL    HW114289   9.347   0.447   2.419  0.3035 -1.8240 -0.2263
 1395SOL    HW214290   9.494   0.478   2.355 -0.1369  1.6657  0.3814
 1396SOL     OW14291   3.965   4.502   2.538 -0.0891 -0.2238 -0.4254
 1396SOL    HW114292   4.030   4.525   2.610 -0.7003 -0.3722  0.1749
 1396SOL    HW214293   3.955   4.403   2.532 -1.1126 -0.1643  0.2470
 1397SOL     OW14294   3.003   4.939   0.793  0.3319 -0.5083 -0.4663
 1397SOL    HW114295   3.094   4.898   0.797  0.4346 -0.4308 -1.9033
 1397SOL    HW214296   3.010   5.038   0.793  0.1832 -0.4871  0.5442
 1398SOL     OW14297   3.312   1.385   2.563  0.0838  0.6381  0.3225
 1398SOL    HW114298   3.230   1.405   2.616 -0.4128  0.9911 -0.5551
 1398SOL    HW214299   3.288   1.324   2.487  1.0116 -0.8389  1.1957
 1399SOL     OW14300   3.659   4.738   0.603 -0.4206  0.5939 -0.1968
 1399SOL    HW114301   3.697   4.829   0.620 -0.2210  0.6573 -0.9633
 1399SOL    HW214302   3.733   4.671   0.602 -0.6592  0.2963  1.2020
 1400SOL     OW14303   9.542   7.613   2.353  0.6872 -0.4363  0.0181
 1400SOL    HW114304   9.470   7.674   2.321 -0.0516 -0.9765  0.6253
 1400SOL    HW214305   9.525   7.520   2.320  1.0907 -0.5672  0.1714
 1401SOL     OW14306   3.655   7.612   1.560  0.6752 -0.5922  0.0566
 1401SOL    HW114307   3.715   7.544   1.603 -0.3535 -1.9476 -0.5818
 1401SOL    HW214308   3.603   7.660   1.631 -1.1372 -2.9318  0.3952
 1402SOL     OW14309   2.609   8.383   2.164 -0.3984 -0.3835  0.0783
 1402SOL    HW114310   2.523   8.433   2.171  1.0090  1.8560  2.2585
 1402SOL    HW214311   2.635   8.347   2.254  1.9460  0.7436 -0.1081
 1403SOL     OW14312   3.099   0.648   2.135 -0.0400  0.8312 -0.1950
 1403SOL    HW114313   3.031   0.591   2.181  0.5578 -0.4217 -0.8389
 1403SOL    HW214314   3.167   0.589   2.090  0.5121  2.0528 -0.9810
 1404SOL     OW14315   2.808   0.119   2.582 -0.0048 -0.5125 -0.0448
 1404SOL    HW114316   2.869   0.180   2.531 -0.5349 -0.8507 -1.1090
 1404SOL    HW214317   2.858   0.078   2.658  0.4507  0.9838  0.4804
 1405SOL     OW14318   0.949   3.917   2.772 -0.3254  0.3222 -0.7665
 1405SOL    HW114319   0.853   3.891   2.781 -0.2848  0.6887  0.8742
 1405SOL    HW214320   0.997   3.897   2.858  0.6896  1.6636 -1.0100
 1406SOL     OW14321   2.667   4.917   2.473 -0.2892  0.2591  0.0396
 1406SOL    HW114322   2.681   4.840   2.535 -0.2346  1.3302  1.3793
 1406SOL    HW214323   2.579   4.907   2.427  0.4803 -1.4753 -1.0947
 1407SOL     OW14324   4.592   0.536   1.178 -0.2461 -0.2592  0.3847
 1407SOL    HW114325   4.574   0.612   1.240  2.8902  1.5629 -0.8112
 1407SOL    HW214326   4.542   0.551   1.093  0.6577  0.7197  0.0057
 1408SOL     OW14327   2.504   6.745   0.726  0.4483  0.1867 -0.1455
 1408SOL    HW114328   2.488   6.654   0.767  0.1224 -0.4295 -1.6248
 1408SOL    HW214329   2.602   6.759   0.713  0.4944  0.0023 -0.0055
 1409SOL     OW14330   3.726   2.437   0.152 -0.1845  0.5397 -0.2785
 1409SOL    HW114331   3.661   2.489   0.208  2.4203  0.0263  3.3526
 1409SOL    HW214332   3.699   2.341   0.151  0.2596  0.4119  0.7697
 1410SOL     OW14333   0.878   4.894   2.328  0.5214  0.1128  0.1900
 1410SOL    HW114334   0.865   4.804   2.287  1.4092 -0.0167  0.1941
 1410SOL    HW214335   0.975   4.918   2.327  0.5125  0.2975  1.8071
 1411SOL     OW14336   4.685   4.191   0.981 -0.0931 -0.0677  0.2807
 1411SOL    HW114337   4.655   4.244   0.902  1.2357  0.3971  0.0875
 1411SOL    HW214338   4.609   4.183   1.045 -1.8449 -2.2179 -1.9582
 1412SOL     OW14339   1.188   5.797   0.805  0.5111 -0.8198  0.5565
 1412SOL    HW114340   1.096   5.757   0.796  0.1998  0.0781 -0.4420
 1412SOL    HW214341   1.191   5.857   0.885 -0.7418  1.5711 -1.0851
 1413SOL     OW14342   4.713   2.253   0.554 -0.3789  0.3683 -0.1330
 1413SOL    HW114343   4.650   2.300   0.616 -0.0565  0.2919  0.2549
 1413SOL    HW214344   4.751   2.319   0.488 -0.3640  0.5415  0.0491
 1414SOL     OW14345   9.127   3.055   2.308 -0.0479 -0.1953 -0.6603
 1414SOL    HW114346   9.208   3.114   2.313 -0.7662  0.7856 -0.3162
 1414SOL    HW214347   9.132   2.985   2.379  1.0303 -0.8321 -1.3525
 1415SOL     OW14348   1.039   9.805   2.456  0.1520  0.7308  0.2795
 1415SOL    HW114349   1.022   9.709   2.477 -0.2399  1.1065  1.8052
 1415SOL    HW214350   1.133   9.816   2.423  0.2717 -0.1475  0.3267
 1416SOL     OW14351   3.218   2.013   2.469  0.0792  0.4562  0.1835
 1416SOL    HW114352   3.270   1.980   2.391 -0.8177  0.5661 -0.4718
 1416SOL    HW214353   3.136   1.956   2.481 -0.6427  1.4500  0.0185
 1417SOL     OW14354   4.875   3.185   1.633  0.2208 -0.8975  0.2855
 1417SOL    HW114355   4.822   3.180   1.548 -2.0119  1.6447  1.4277
 1417SOL    HW214356   4.822   3.145   1.707  1.5530 -1.8116  0.7524
 1418SOL     OW14357   3.886   9.495   2.734 -0.2164 -0.4371  0.2773
 1418SOL    HW114358   3.834   9.567   2.689  1.7859  0.4648 -0.6995
 1418SOL    HW214359   3.966   9.473   2.678  1.5517 -0.3169  2.6853
 1419SOL     OW14360   3.658   9.905   2.744  0.5268  0.2761 -0.6954
 1419SOL    HW114361   3.743   9.956   2.754  1.0620 -1.1066  2.2237
 1419SOL    HW214362   3.583   9.970   2.726  1.7442  1.7443 -0.5751
 1420SOL     OW14363   9.325   4.854   2.182 -0.3918 -0.1263 -0.0708
 1420SOL    HW114364   9.339   4.806   2.096  0.4982 -2.9271  1.5754
 1420SOL    HW214365   9.409   4.903   2.208 -0.2543 -0.3213 -0.1520
 1421SOL     OW14366  10.038   1.981   0.357 -0.1526 -0.0317  0.1682
 1421SOL    HW114367   9.944   1.966   0.326  0.4752  0.2686 -1.9777
 1421SOL    HW214368  10.081   1.893   0.378 -1.2853 -0.0805  2.3238
 1422SOL     OW14369   9.919   2.347   0.221  0.3979  0.3337  0.5907
 1422SOL    HW114370   9.992   2.367   0.156  0.2531  3.1032  1.1898
 1422SOL    HW214371   9.861   2.428   0.231  0.8195  0.2414  4.6348
 1423SOL     OW14372   2.024   8.294   1.044 -0.1679  0.2235 -0.5714
 1423SOL    HW114373   1.943   8.347   1.020 -0.3601 -0.8578 -2.3378
 1423SOL    HW214374   2.102   8.356   1.056 -0.7766  1.0562 -0.9143
 1424SOL     OW14375   8.745   7.033   2.398  0.1691 -0.5198 -0.1615
 1424SOL    HW114376   8.748   7.027   2.498  0.8210  0.1871 -0.1312
 1424SOL    HW214377   8.676   7.100   2.370 -1.0289 -1.7708 -0.2335
 1425SOL     OW14378   0.839   8.234   1.799 -0.3013 -0.1131  0.3442
 1425SOL    HW114379   0.848   8.175   1.879  0.5938  1.6006  1.5331
 1425SOL    HW214380   0.924   8.283   1.783 -0.5147 -0.3298 -1.5977
 1426SOL     OW14381   9.628   9.916   2.642  0.0852 -0.0134  0.8871
 1426SOL    HW114382   9.654   9.821   2.656  0.2202 -0.0484  0.4075
 1426SOL    HW214383   9.605   9.958   2.730 -1.9011 -1.0257  0.8707
 1427SOL     OW14384   1.015   2.832   2.377 -0.0652  0.2450  0.3127
 1427SOL    HW114385   1.068   2.764   2.428 -0.2975 -0.0412  0.1692
 1427SOL    HW214386   0.998   2.799   2.285 -1.5481 -0.2035  0.7242
 1428SOL     OW14387   2.831   9.750   2.710  0.2183 -0.4372 -0.3671
 1428SOL    HW114388   2.857   9.664   2.667 -1.2833 -1.0110 -0.1492
 1428SOL    HW214389   2.776   9.732   2.791 -0.5006  0.7399 -0.5774
 1429SOL     OW14390   1.163   0.321   1.027 -0.0654  0.3138 -0.0444
 1429SOL    HW114391   1.102   0.374   0.967  0.6021 -0.2804 -1.2728
 1429SOL    HW214392   1.220   0.383   1.080 -1.0109  0.8594  0.3466
 1430SOL     OW14393   2.873   0.512   1.287  0.3848 -0.5699 -0.5641
 1430SOL    HW114394   2.900   0.591   1.231 -1.9013  2.2863  2.1271
 1430SOL    HW214395   2.942   0.495   1.357 -0.1146  0.5318  0.2286
 1431SOL     OW14396   9.253   6.847   1.245  0.2128  0.0653 -0.0149
 1431SOL    HW114397   9.332   6.832   1.303  1.1117 -1.4838 -1.5952
 1431SOL    HW214398   9.282   6.886   1.158 -0.8267 -0.0249 -0.4118
 1432SOL     OW14399   2.110   6.818   0.350 -0.2356  0.2193  0.5315
 1432SOL    HW114400   2.021   6.786   0.317 -0.7746  3.3732 -1.3290
 1432SOL    HW214401   2.183   6.779   0.294 -0.6504 -0.0811  0.2018
 1433SOL     OW14402   2.075   4.596   2.629  1.1607 -0.0076  0.5926
 1433SOL    HW114403   2.046   4.507   2.593  0.2270  0.0799  1.1355
 1433SOL    HW214404   2.070   4.595   2.728  0.2264  0.9617  0.5634
 1434SOL     OW14405   0.962   2.154   1.174  0.2343 -0.1414  0.8986
 1434SOL    HW114406   1.062   2.160   1.163  0.1270 -0.0131 -0.0259
 1434SOL    HW214407   0.925   2.097   1.101 -0.4807  0.5516  0.7284
 1435SOL     OW14408   3.924   1.011   1.459  0.3685  0.2499 -0.0550
 1435SOL    HW114409   3.914   0.960   1.373  2.3505  0.0571 -0.1833
 1435SOL    HW214410   3.923   0.947   1.536 -0.8916  0.3799  0.0578
 1436SOL     OW14411   2.688   0.360   0.205 -0.3908 -0.3161 -0.6409
 1436SOL    HW114412   2.694   0.264   0.177 -0.4267 -1.0036  1.6304
 1436SOL    HW214413   2.770   0.409   0.175 -0.6444 -0.8843 -2.3334
 1437SOL     OW14414   9.761   4.474   1.634  0.0238  0.1619  0.0933
 1437SOL    HW114415   9.839   4.533   1.612 -0.5394  0.3028 -1.5588
 1437SOL    HW214416   9.717   4.508   1.718  0.4182  1.4054 -0.1898
 1438SOL     OW14417   1.980   3.359   1.858  0.0922 -0.4382  0.1036
 1438SOL    HW114418   1.937   3.330   1.944 -1.3422  0.8141 -0.1681
 1438SOL    HW214419   1.930   3.318   1.781  0.1571  0.0267 -0.1860
 1439SOL     OW14420   9.437   9.098   1.358 -0.1653 -0.4085  0.2405
 1439SOL    HW114421   9.529   9.105   1.319 -0.5430 -0.9027 -0.7746
 1439SOL    HW214422   9.440   9.121   1.455  0.9427  0.0684  0.1083
 1440SOL     OW14423   2.393   2.003   1.528  0.1142 -0.5627  0.1893
 1440SOL    HW114424   2.417   1.921   1.476  0.4448 -0.9312  0.9190
 1440SOL    HW214425   2.408   2.084   1.471  0.2815 -0.9729 -0.3553
 1441SOL     OW14426   9.614   8.225   2.744 -0.4166 -0.3456 -0.4887
 1441SOL    HW114427   9.633   8.289   2.670 -1.1378 -1.3484 -1.5518
 1441SOL    HW214428   9.565   8.146   2.708 -1.3862 -0.5307  1.1795
 1442SOL     OW14429   3.499   3.922   1.679 -0.3398 -0.0606 -0.2486
 1442SOL    HW114430   3.473   3.878   1.593  2.4301 -0.1630 -1.0785
 1442SOL    HW214431   3.483   3.860   1.755  3.0166 -2.4460 -1.3584
 1443SOL     OW14432   1.804   7.444   0.078  0.2558 -0.0911 -0.1355
 1443SOL    HW114433   1.877   7.512   0.081  1.6212 -1.5487  0.1410
 1443SOL    HW214434   1.821   7.380   0.002 -0.1974 -1.0284  0.5410
 1444SOL     OW14435   1.511   4.956   2.118 -0.1968 -0.5555  0.0279
 1444SOL    HW114436   1.536   4.919   2.029  2.5829 -0.4571  0.7403
 1444SOL    HW214437   1.562   5.040   2.135 -2.2091  0.5313  0.8767
 1445SOL     OW14438   3.306   1.719   0.597  0.1401 -0.1681 -0.0186
 1445SOL    HW114439   3.273   1.813   0.602  1.0133  0.2449 -1.5608
 1445SOL    HW214440   3.315   1.681   0.689 -0.6140  1.1204  0.5882
 1446SOL     OW14441   1.557   2.313   2.297  0.2013  0.0155 -0.2966
 1446SOL    HW114442   1.587   2.255   2.221 -1.0706  0.7748 -1.4112
 1446SOL    HW214443   1.560   2.261   2.382  3.1389 -0.3899 -0.5961
 1447SOL     OW14444   2.934   8.558   0.448  0.2879  0.1429  0.0450
 1447SOL    HW114445   2.961   8.587   0.356  0.1981 -2.4408 -0.8460
 1447SOL    HW214446   2.843   8.594   0.468  0.2519  0.6225 -0.9396
 1448SOL     OW14447   3.855   9.005   2.171 -0.1816 -0.1220  0.6027
 1448SOL    HW114448   3.841   9.003   2.270  0.3911  2.1277  0.7560
 1448SOL    HW214449   3.769   9.029   2.126 -0.1739 -0.0388  0.6314
 1449SOL     OW14450   1.252   5.207   0.407 -0.0919 -0.1841  0.3847
 1449SOL    HW114451   1.347   5.182   0.393  0.0024  0.5409 -0.3047
 1449SOL    HW214452   1.246   5.301   0.442 -0.5543 -0.2268  0.4337
 1450SOL     OW14453   4.590   8.797   2.215 -0.7036 -0.3687 -0.1147
 1450SOL    HW114454   4.672   8.747   2.242 -0.6440  0.6120  1.6741
 1450SOL    HW214455   4.539   8.745   2.147  1.4800 -0.9123 -1.3690
 1451SOL     OW14456   1.359   6.538   0.780  0.1976  0.8764  0.2008
 1451SOL    HW114457   1.394   6.561   0.870 -0.1971 -0.2099  0.6416
 1451SOL    HW214458   1.433   6.544   0.713  0.7125  0.7795  0.7545
 1452SOL     OW14459   1.152   3.696   2.217  0.1911  0.5422 -0.2994
 1452SOL    HW114460   1.082   3.637   2.178 -1.0079  2.3837 -1.0131
 1452SOL    HW214461   1.196   3.749   2.145  1.1053  0.6953  0.3514
 1453SOL     OW14462   3.467   8.147   0.721 -0.0740 -0.0250  0.2615
 1453SOL    HW114463   3.389   8.209   0.721  0.5761  0.8777  2.9625
 1453SOL    HW214464   3.546   8.193   0.761  0.4976 -2.4803  2.0859
 1454SOL     OW14465  10.316   0.183   0.899  0.0292  0.1227 -0.1021
 1454SOL    HW114466  10.286   0.090   0.878  0.7297 -0.5134  1.6179
 1454SOL    HW214467  10.277   0.246   0.832 -1.9590 -1.1679 -0.2107
 1455SOL     OW14468   2.501   3.122   0.435  0.5512 -0.5117 -0.2069
 1455SOL    HW114469   2.476   3.183   0.509  0.1693  0.9756 -1.5457
 1455SOL    HW214470   2.419   3.078   0.398  0.7106 -1.0553  0.0837
 1456SOL     OW14471   1.021   9.867   2.067  0.1079  0.1151  0.4441
 1456SOL    HW114472   0.993   9.777   2.102  0.8665  0.2699  1.4470
 1456SOL    HW214473   1.069   9.855   1.979 -0.6457 -0.3751  0.0943
 1457SOL     OW14474   4.568   0.016   0.531 -0.6116  0.0518 -0.5693
 1457SOL    HW114475   4.645   0.031   0.468  1.1065 -1.0813  1.1724
 1457SOL    HW214476   4.553   0.097   0.586 -2.6885  1.3684 -2.9541
 1458SOL     OW14477   2.285   5.826   2.158  0.3286  0.2430  0.0122
 1458SOL    HW114478   2.186   5.837   2.169  0.0888  1.2479 -2.7588
 1458SOL    HW214479   2.327   5.808   2.247 -2.2782  0.2814  1.2882
 1459SOL     OW14480   4.648   2.707   1.501 -0.1499 -0.2107  0.8888
 1459SOL    HW114481   4.633   2.616   1.463 -1.1924 -0.3248  1.5648
 1459SOL    HW214482   4.632   2.776   1.431 -1.4530 -0.4504  0.9411
 1460SOL     OW14483   0.836   1.172   1.269 -0.4371  0.5103 -0.3013
 1460SOL    HW114484   0.788   1.172   1.357 -0.7708 -2.3103 -0.4433
 1460SOL    HW214485   0.787   1.230   1.204 -2.6365 -0.8220  0.1235
 1461SOL     OW14486   3.565   3.720   1.861 -0.3973  0.1913  0.2515
 1461SOL    HW114487   3.647   3.669   1.833 -0.3123 -0.0537  0.9368
 1461SOL    HW214488   3.501   3.658   1.906  1.0903  1.2284  4.0359
 1462SOL     OW14489   1.289   8.224   1.842  0.2411  0.7805 -0.4752
 1462SOL    HW114490   1.388   8.214   1.851  0.0847  0.0261  0.5385
 1462SOL    HW214491   1.251   8.143   1.797 -0.1087  0.3023  0.6651
 1463SOL     OW14492   1.461   3.165   2.726 -0.2461 -0.1277  0.0796
 1463SOL    HW114493   1.532   3.097   2.745 -0.8147 -0.4289  1.1214
 1463SOL    HW214494   1.475   3.246   2.783 -0.6941 -0.1556  0.2322
 1464SOL     OW14495  10.247   6.225   2.359 -0.2437 -0.5424  0.5466
 1464SOL    HW114496  10.211   6.315   2.383  0.1957  0.4766 -2.3905
 1464SOL    HW214497  10.343   6.232   2.333  0.6481 -2.3852  3.1249
 1465SOL     OW14498   0.409   3.133   1.006  0.0158  0.2607 -0.3531
 1465SOL    HW114499   0.485   3.069   0.993 -1.3927 -1.0820 -2.4093
 1465SOL    HW214500   0.353   3.102   1.083 -0.8679 -1.2481 -1.5676
 1466SOL     OW14501   1.810   5.081   0.294  0.1068 -0.6996 -0.1099
 1466SOL    HW114502   1.713   5.073   0.270  0.0473 -0.8109  0.1678
 1466SOL    HW214503   1.818   5.129   0.381  0.3004 -0.7736 -0.0882
 1467SOL     OW14504   1.853   8.713   0.958  0.0863 -0.1821 -0.0568
 1467SOL    HW114505   1.885   8.789   0.900  0.7439 -0.3126  0.1315
 1467SOL    HW214506   1.908   8.710   1.041  0.9774 -1.7014 -0.6756
 1468SOL     OW14507   2.824   1.973   1.092 -0.5419 -0.0004  0.1546
 1468SOL    HW114508   2.752   1.927   1.040  1.5484 -1.6118 -1.3786
 1468SOL    HW214509   2.812   2.072   1.085 -1.3180 -0.2205 -1.9067
 1469SOL     OW14510   2.517   4.180   2.532 -0.5708 -0.1966 -0.1425
 1469SOL    HW114511   2.476   4.269   2.514 -1.7446 -0.5507  0.7259
 1469SOL    HW214512   2.518   4.126   2.448  0.1513  0.6237 -0.6746
 1470SOL     OW14513   9.221   3.371   1.124  0.5089  0.0287  0.3086
 1470SOL    HW114514   9.253   3.282   1.091  1.5482  0.0703  1.1545
 1470SOL    HW214515   9.283   3.443   1.092 -0.3781  0.4665 -0.4512
 1471SOL     OW14516   1.825   9.803   1.275  0.4359 -0.0695 -0.1824
 1471SOL    HW114517   1.798   9.875   1.339  0.3233 -1.4049  1.2952
 1471SOL    HW214518   1.802   9.714   1.314  1.2524 -0.9389 -1.6682
 1472SOL     OW14519   9.324   0.751   2.507 -0.4485 -0.0813  0.0246
 1472SOL    HW114520   9.316   0.847   2.531 -0.3798  0.4844 -2.0618
 1472SOL    HW214521   9.396   0.740   2.439  0.7159 -1.8594  1.5017
 1473SOL     OW14522   9.457   8.228   1.333  0.3943 -0.2693 -0.3472
 1473SOL    HW114523   9.424   8.311   1.287  1.7391 -1.3084 -3.3356
 1473SOL    HW214524   9.380   8.166   1.349 -0.2461  0.5216 -0.3419
 1474SOL     OW14525   2.351   8.097   2.135 -0.8091  0.9955  0.2917
 1474SOL    HW114526   2.378   8.106   2.231  1.1776 -2.1342  0.1123
 1474SOL    HW214527   2.300   8.012   2.122  0.7953  0.2786 -1.7354
 1475SOL     OW14528   0.441   0.577   0.552  0.0825  0.5203  0.1091
 1475SOL    HW114529   0.352   0.601   0.515  0.1472 -0.7680 -0.9362
 1475SOL    HW214530   0.452   0.477   0.551  0.2397  0.4739  3.2772
 1476SOL     OW14531   9.003   6.659   0.499  0.4732 -0.4114 -0.1431
 1476SOL    HW114532   8.919   6.609   0.522  0.9293 -0.7163  0.9183
 1476SOL    HW214533   9.004   6.679   0.401 -0.7742 -0.5151 -0.1900
 1477SOL     OW14534   8.908   5.007   2.540  0.1091  0.1432 -0.4688
 1477SOL    HW114535   8.923   5.005   2.638 -0.5963 -0.5957 -0.3667
 1477SOL    HW214536   8.862   5.093   2.515  2.0404  1.2084 -0.4357
 1478SOL     OW14537   2.461   2.185   1.327 -0.0070  0.7211 -0.2706
 1478SOL    HW114538   2.539   2.179   1.389 -0.5312 -0.9399  0.2374
 1478SOL    HW214539   2.452   2.280   1.295  2.3946  0.8729 -0.5975
 1479SOL     OW14540   9.264   3.132   1.026 -0.4825  0.1931  0.4058
 1479SOL    HW114541   9.223   3.095   0.943  0.2560  0.8432 -0.2570
 1479SOL    HW214542   9.361   3.148   1.011 -0.1946 -0.3367  1.6247
 1480SOL     OW14543   9.645   4.614   1.415  0.5709 -0.1390  0.3095
 1480SOL    HW114544   9.717   4.677   1.385  1.7237 -1.0035  1.2210
 1480SOL    HW214545   9.683   4.547   1.478 -1.0483 -0.6088  0.8192
 1481SOL     OW14546   4.137   9.497   2.152  0.2090  0.8695  0.0983
 1481SOL    HW114547   4.113   9.512   2.056 -0.0238  1.9025  0.3165
 1481SOL    HW214548   4.179   9.407   2.162  1.4971  1.3177 -1.1912
 1482SOL     OW14549   0.975   6.463   1.296  0.4430  0.0989 -0.0321
 1482SOL    HW114550   0.956   6.555   1.330  0.5650 -0.2554  1.0073
 1482SOL    HW214551   0.898   6.430   1.242 -1.0370 -0.5062  2.4135
 1483SOL     OW14552  10.215   6.517   0.891 -0.0994  0.4760 -0.2989
 1483SOL    HW114553  10.210   6.420   0.868  0.3837  0.5231 -0.6034
 1483SOL    HW214554  10.132   6.544   0.940  0.3514 -0.4064  0.9787
 1484SOL     OW14555   9.463   0.111   1.305  0.2928 -0.1771 -0.0162
 1484SOL    HW114556   9.450   0.146   1.212  3.1394  2.1252  0.3505
 1484SOL    HW214557   9.424   0.175   1.371 -0.5514 -1.1457  0.4332
 1485SOL     OW14558   3.498   4.196   1.340  0.3558 -1.4118  0.0732
 1485SOL    HW114559   3.466   4.180   1.247  1.1796 -3.1582  0.0726
 1485SOL    HW214560   3.593   4.164   1.349  0.5598 -0.5182  1.2943
 1486SOL     OW14561   3.222   4.171   2.063 -0.2770  0.4078 -0.1435
 1486SOL    HW114562   3.203   4.238   2.135  1.8757 -0.1568  1.0112
 1486SOL    HW214563   3.247   4.220   1.979 -0.7578  1.0750  0.0980
 1487SOL     OW14564   3.310   5.513   0.083 -0.3185 -0.1734 -1.0162
 1487SOL    HW114565   3.313   5.419   0.048  1.7094 -0.7247  0.4910
 1487SOL    HW214566   3.310   5.577   0.007  3.2298 -1.3312 -2.1108
 1488SOL     OW14567   1.974   2.275   2.686 -0.1347  0.3557  0.2311
 1488SOL    HW114568   1.968   2.354   2.625  0.5070  0.3321  0.1331
 1488SOL    HW214569   2.049   2.288   2.750  0.9962 -0.8634 -0.8046
 1489SOL     OW14570   3.134   8.102   0.170  0.7264  0.0515 -0.3368
 1489SOL    HW114571   3.204   8.168   0.143 -1.9878  2.6279 -1.4565
 1489SOL    HW214572   3.137   8.089   0.269  1.8125  1.2798 -0.1957
 1490SOL     OW14573   1.799   0.869   1.132 -0.0439  0.2368 -0.5302
 1490SOL    HW114574   1.885   0.831   1.167  0.6967  1.9235 -0.4834
 1490SOL    HW214575   1.734   0.795   1.118  1.1251 -0.9738  0.2550
 1491SOL     OW14576   2.740   7.029   0.143 -0.4229  0.1820 -0.2229
 1491SOL    HW114577   2.816   7.071   0.193 -0.5491  1.2656 -0.9161
 1491SOL    HW214578   2.765   6.936   0.117 -0.6384 -0.6840  2.4873
 1492SOL     OW14579   2.121   6.408   0.992  0.0414 -0.6061 -0.2200
 1492SOL    HW114580   2.046   6.390   0.928  0.3882  0.1204 -0.8277
 1492SOL    HW214581   2.201   6.355   0.966  1.0627  1.7478 -2.0086
 1493SOL     OW14582   9.608   3.589   2.207 -0.2619  0.4566 -0.3869
 1493SOL    HW114583   9.520   3.576   2.161 -0.1798 -0.9171 -0.1793
 1493SOL    HW214584   9.592   3.611   2.303 -0.3743 -0.6314 -0.1500
 1494SOL     OW14585   1.031   6.151   2.777  0.0580 -0.3861  0.0832
 1494SOL    HW114586   1.008   6.095   2.856 -2.1993  2.0614  1.2338
 1494SOL    HW214587   1.081   6.232   2.806 -0.7766  0.5332 -0.9923
 1495SOL     OW14588   9.868   2.644   2.657  0.0054 -0.1759 -0.2740
 1495SOL    HW114589   9.832   2.555   2.687 -0.7718  1.2565  3.3160
 1495SOL    HW214590   9.966   2.647   2.675 -0.0990 -0.0638  0.2967
 1496SOL     OW14591   3.159   4.952   1.712 -0.1308 -0.0589 -0.0325
 1496SOL    HW114592   3.078   4.935   1.656 -0.5152 -0.6535  0.7125
 1496SOL    HW214593   3.201   4.865   1.737  0.4059  0.2324  0.0791
 1497SOL     OW14594   9.462   2.498   1.457  1.0339 -0.2755 -0.3536
 1497SOL    HW114595   9.511   2.439   1.393 -0.7419 -0.7121 -1.3258
 1497SOL    HW214596   9.364   2.496   1.437  0.5634  0.3781  1.7359
 1498SOL     OW14597   3.376   8.590   2.056  0.4497  0.5888 -0.0675
 1498SOL    HW114598   3.318   8.512   2.031  2.6882 -0.7637 -1.1476
 1498SOL    HW214599   3.382   8.596   2.156 -2.0051  1.1226  0.0856
 1499SOL     OW14600   4.102   8.442   1.025 -0.0121 -0.1106  0.1087
 1499SOL    HW114601   4.064   8.365   1.075  0.0281  0.1603  0.5582
 1499SOL    HW214602   4.135   8.511   1.090  0.9457 -0.2001 -0.2681
 1500SOL     OW14603   2.932   0.519   2.295  0.4850 -0.0503 -0.0471
 1500SOL    HW114604   2.841   0.510   2.254 -0.1828  0.4123  1.2787
 1500SOL    HW214605   2.945   0.445   2.361  1.1976 -0.2915 -0.4585
 1501SOL     OW14606   3.764   3.997   0.731  0.0960  0.4281 -0.3373
 1501SOL    HW114607   3.814   3.947   0.661 -0.1522 -0.8656  0.3747
 1501SOL    HW214608   3.825   4.020   0.806  0.1472  0.9413 -0.5375
 1502SOL     OW14609   9.602   9.300   0.127  0.0909 -0.0016  0.1306
 1502SOL    HW114610   9.598   9.291   0.028 -2.2531 -3.1205  0.4481
 1502SOL    HW214611   9.682   9.252   0.162 -0.2809 -0.7776 -0.0779
 1503SOL     OW14612  10.186   3.456   1.071  1.0341  0.1792 -0.1960
 1503SOL    HW114613  10.100   3.500   1.048 -0.0408  0.0048  3.2375
 1503SOL    HW214614  10.258   3.525   1.079  0.0951  0.9357  1.8543
 1504SOL     OW14615   9.563   7.464   1.825 -0.3328 -0.5239 -0.2729
 1504SOL    HW114616   9.567   7.454   1.726 -0.1443  1.4209 -0.4696
 1504SOL    HW214617   9.632   7.405   1.867  0.3276 -0.5340 -1.3470
 1505SOL     OW14618   3.462   2.668   2.248 -0.0288 -0.7858  0.2745
 1505SOL    HW114619   3.469   2.742   2.181 -0.5897  0.6789  1.7849
 1505SOL    HW214620   3.375   2.620   2.236 -0.8411  0.4937  0.9558
 1506SOL     OW14621   2.634   6.493   1.078  0.6114  0.3030 -0.2957
 1506SOL    HW114622   2.584   6.487   0.991 -0.5123 -0.5047  0.3961
 1506SOL    HW214623   2.595   6.565   1.134  0.0948 -0.4477  0.3203
 1507SOL     OW14624   8.538   2.834   0.692  0.1104  0.7305  0.0568
 1507SOL    HW114625   8.492   2.747   0.709 -0.4725  0.7760 -1.2892
 1507SOL    HW214626   8.470   2.905   0.674  0.6159  1.3106  0.3928
 1508SOL     OW14627   3.500   0.050   1.447  0.1566 -0.1558  0.1954
 1508SOL    HW114628   3.498  -0.033   1.392  1.3207 -0.3464  0.4240
 1508SOL    HW214629   3.532   0.029   1.539 -1.8244  0.1558  0.9836
 1509SOL     OW14630   3.032   0.555   0.825 -0.5207  0.7042  0.2414
 1509SOL    HW114631   3.072   0.464   0.811 -0.0769  1.3486 -3.0785
 1509SOL    HW214632   2.934   0.551   0.807 -0.5468  0.8618  0.3462
 1510SOL     OW14633   3.237   6.068   2.272 -0.3976 -0.4366 -0.0624
 1510SOL    HW114634   3.287   6.154   2.282 -0.8367 -0.4221  2.2730
 1510SOL    HW214635   3.174   6.076   2.195  1.2641  0.4745 -1.3790
 1511SOL     OW14636   2.411   6.472   0.099  0.5281 -0.3410  0.3216
 1511SOL    HW114637   2.397   6.455   0.197 -1.5626 -1.8536 -0.2109
 1511SOL    HW214638   2.386   6.390   0.048  0.9875  0.6699 -1.5370
 1512SOL     OW14639   0.994   7.496   0.337 -0.2327 -0.1075  0.4775
 1512SOL    HW114640   0.943   7.410   0.330  0.5859 -0.7942  2.4938
 1512SOL    HW214641   0.951   7.555   0.405  0.7547 -0.0432  1.0502
 1513SOL     OW14642   9.238   3.694   1.539 -0.3562 -0.2284  0.7969
 1513SOL    HW114643   9.335   3.681   1.517 -0.9688  0.9755 -3.0714
 1513SOL    HW214644   9.197   3.607   1.563  1.3402 -0.9979  0.9892
 1514SOL     OW14645  10.187   4.409   2.263  0.0986 -0.4252 -1.0195
 1514SOL    HW114646  10.159   4.468   2.339  0.4233 -0.9658 -0.4777
 1514SOL    HW214647  10.105   4.377   2.214 -0.2804 -2.1682  0.6832
 1515SOL     OW14648   9.638   4.120   1.104 -0.4383  0.3441 -0.6579
 1515SOL    HW114649   9.718   4.173   1.077  0.1748  0.4398  1.2101
 1515SOL    HW214650   9.563   4.182   1.127  0.1903  0.4276  1.2600
 1516SOL     OW14651   9.497   3.298   2.139  0.7505  0.2101  0.4402
 1516SOL    HW114652   9.399   3.311   2.126  0.7305  0.8179  1.1560
 1516SOL    HW214653   9.544   3.307   2.052  0.3017  1.1847  0.2933
 1517SOL     OW14654  10.137   7.742   0.803  0.2747  0.0227  0.0102
 1517SOL    HW114655  10.158   7.825   0.751 -0.4533  0.0475 -0.2615
 1517SOL    HW214656  10.140   7.662   0.743 -0.0244 -0.0157  0.0406
 1518SOL     OW14657   0.959   7.765   1.945  0.6678  0.1486  0.1868
 1518SOL    HW114658   0.972   7.675   1.985  1.1049  0.1270 -0.0040
 1518SOL    HW214659   0.951   7.833   2.018  1.5744  0.1263  0.3138
 1519SOL     OW14660   3.808   1.413   2.623 -0.6808  0.1107 -0.1288
 1519SOL    HW114661   3.713   1.440   2.638  0.4290  3.4329  1.5790
 1519SOL    HW214662   3.831   1.338   2.684 -1.1081  2.0257  2.4713
 1520SOL     OW14663   3.211   3.978   1.006  0.1835  0.3225  0.1739
 1520SOL    HW114664   3.165   3.972   0.918 -1.9096 -0.4185  1.2623
 1520SOL    HW214665   3.174   3.907   1.067  3.5679 -1.0249  0.7766
 1521SOL     OW14666   3.003   0.284   2.451 -0.5446 -0.6465 -0.2741
 1521SOL    HW114667   3.040   0.296   2.543 -1.5514 -0.5441  0.1291
 1521SOL    HW214668   3.076   0.257   2.388  0.5434  1.2748  0.1325
 1522SOL     OW14669   2.659   5.090   2.133  0.4775  0.1103  0.3437
 1522SOL    HW114670   2.746   5.139   2.140 -0.3405  1.7717 -0.7529
 1522SOL    HW214671   2.631   5.086   2.037 -2.2094  2.4225  0.9749
 1523SOL     OW14672   2.365   8.467   1.322 -0.0233 -0.4930  0.5459
 1523SOL    HW114673   2.435   8.482   1.252 -0.3049  1.5291  0.6836
 1523SOL    HW214674   2.396   8.395   1.384  1.0650 -0.9844 -0.5300
 1524SOL     OW14675  10.115   9.110   1.760  0.0028  0.2739  0.2409
 1524SOL    HW114676  10.187   9.136   1.824 -0.1276  0.4521  0.3166
 1524SOL    HW214677  10.134   9.019   1.724 -0.3194 -0.1547  1.1267
 1525SOL     OW14678   1.961   6.267   0.787  0.1695  0.1152  0.0874
 1525SOL    HW114679   1.986   6.267   0.690 -1.1581 -0.9904 -0.2723
 1525SOL    HW214680   1.942   6.174   0.817  1.3339  0.3579  1.6293
 1526SOL     OW14681   2.382   6.450   1.994 -0.9475  0.4477 -0.3029
 1526SOL    HW114682   2.373   6.355   2.023 -2.3387  0.5036 -0.5046
 1526SOL    HW214683   2.424   6.453   1.903  0.2910  0.1046  0.2489
 1527SOL     OW14684   3.918   4.573   2.261  0.1786  0.0127  0.1178
 1527SOL    HW114685   3.887   4.552   2.354  1.5140 -1.0761  0.3448
 1527SOL    HW214686   4.018   4.581   2.261  0.0539  1.6606 -0.9200
 1528SOL     OW14687   2.342   1.050   0.756  0.3078  0.0814  0.0117
 1528SOL    HW114688   2.278   1.126   0.766 -0.5337 -0.1959 -3.0221
 1528SOL    HW214689   2.292   0.966   0.732  1.7122 -0.3108 -1.6238
 1529SOL     OW14690   3.684   9.905   1.968  0.4666 -0.2014  0.2064
 1529SOL    HW114691   3.740   9.985   1.950  0.8532 -0.2768  1.0568
 1529SOL    HW214692   3.708   9.832   1.904  0.0121  0.3955 -0.6639
 1530SOL     OW14693   2.823   8.672   2.629  0.0409  0.3792  0.2602
 1530SOL    HW114694   2.808   8.771   2.626  1.2587  0.5244 -2.1162
 1530SOL    HW214695   2.743   8.625   2.590 -0.9217  0.3642  2.2173
 1531SOL     OW14696  10.113   6.858   0.991  0.4120 -0.2515  0.2603
 1531SOL    HW114697  10.050   6.925   1.031 -0.6486 -0.5203 -0.9105
 1531SOL    HW214698  10.192   6.905   0.952 -0.5389  0.3610 -0.9395
 1532SOL     OW14699   1.467   1.930   0.939  0.3194 -0.1327 -0.6145
 1532SOL    HW114700   1.544   1.889   0.891  0.1475 -0.5767 -0.5126
 1532SOL    HW214701   1.492   2.022   0.970  1.4081 -0.9426  0.9507
 1533SOL     OW14702   9.454   3.252   0.717  0.6588  0.1275  0.5810
 1533SOL    HW114703   9.446   3.248   0.618 -1.2081 -0.7989  0.7478
 1533SOL    HW214704   9.473   3.161   0.753 -0.9044  0.0544  1.2431
 1534SOL     OW14705   2.691   0.435   1.487 -0.5287 -0.2244 -0.1642
 1534SOL    HW114706   2.730   0.457   1.397  0.9987  0.5636  0.6838
 1534SOL    HW214707   2.750   0.367   1.532 -0.4606  0.5370  0.8841
 1535SOL     OW14708   1.446   7.190   2.776  0.1366 -0.0042  0.4399
 1535SOL    HW114709   1.377   7.144   2.719  0.1930  0.1619  0.2362
 1535SOL    HW214710   1.537   7.157   2.750  0.1448 -0.0933  0.5870
 1536SOL     OW14711   2.024   3.626   1.958  0.1833 -0.4477 -0.2120
 1536SOL    HW114712   1.995   3.535   1.929  1.4037 -0.6757 -0.7483
 1536SOL    HW214713   2.121   3.625   1.980  0.2426  0.7616 -0.3531
 1537SOL     OW14714   3.983   5.843   0.472  0.2045  0.5601 -0.1879
 1537SOL    HW114715   3.900   5.888   0.505  1.1532  1.3354  1.2151
 1537SOL    HW214716   3.990   5.752   0.515  0.2207  0.6069 -0.0892
 1538SOL     OW14717   0.966   5.347   0.443 -0.4421  0.3393 -0.2753
 1538SOL    HW114718   1.002   5.310   0.357 -0.6377  2.0067 -1.0895
 1538SOL    HW214719   0.890   5.290   0.474 -0.2842 -0.3589 -1.1325
 1539SOL     OW14720   3.346   3.396   0.105 -0.0972 -0.0146  0.3256
 1539SOL    HW114721   3.366   3.344   0.022 -0.4307 -2.9299  1.9999
 1539SOL    HW214722   3.432   3.421   0.150  0.0431  0.1463 -0.0248
 1540SOL     OW14723   9.555   6.017   0.686  0.0942  0.0748  0.0961
 1540SOL    HW114724   9.610   6.036   0.605 -0.3047  1.4154  0.1241
 1540SOL    HW214725   9.485   6.088   0.696 -0.7482 -0.8492  0.8361
 1541SOL     OW14726   8.874   7.584   1.040  0.4449 -0.0044  0.3305
 1541SOL    HW114727   8.956   7.596   1.095  0.4258  0.2686  0.3038
 1541SOL    HW214728   8.812   7.521   1.086 -0.4368  1.7577  1.6088
 1542SOL     OW14729   8.722   6.349   1.144 -0.1206 -0.5740  0.2879
 1542SOL    HW114730   8.815   6.384   1.136 -0.5357  0.1255 -1.7458
 1542SOL    HW214731   8.656   6.424   1.137 -0.9852 -1.5599 -3.1320
 1543SOL     OW14732   9.188   4.216   1.495  0.0153 -0.9475  0.5921
 1543SOL    HW114733   9.204   4.309   1.463  0.6952 -1.3102 -0.1496
 1543SOL    HW214734   9.239   4.201   1.580 -0.0595 -0.6638  0.6876
 1544SOL     OW14735   9.684   9.145   1.277 -0.0179  0.2063 -0.1355
 1544SOL    HW114736   9.746   9.214   1.240 -0.8528  1.4191  0.6536
 1544SOL    HW214737   9.731   9.057   1.284  1.2006  0.8000 -0.7371
 1545SOL     OW14738   0.653   6.353   1.478  0.2153  0.0397 -0.3162
 1545SOL    HW114739   0.664   6.357   1.379 -1.0810  0.9780 -0.4253
 1545SOL    HW214740   0.654   6.445   1.516  0.5424 -0.3078  0.5350
 1546SOL     OW14741   4.164   1.119   0.660 -0.1726  0.1331 -0.0402
 1546SOL    HW114742   4.164   1.218   0.651  1.4593  0.0742 -0.7203
 1546SOL    HW214743   4.117   1.094   0.745  0.0004  1.5139  0.4776
 1547SOL     OW14744   4.639   3.116   0.400  0.6211 -0.0299 -0.1376
 1547SOL    HW114745   4.553   3.132   0.353 -0.7530 -4.4149  0.7053
 1547SOL    HW214746   4.636   3.159   0.491 -1.6627 -2.1456  0.8344
 1548SOL     OW14747   9.458   9.138   1.624 -0.1231 -0.0534 -0.1663
 1548SOL    HW114748   9.484   9.042   1.626 -0.7179 -0.2456 -1.0924
 1548SOL    HW214749   9.539   9.195   1.633  0.3844 -0.6457 -0.8701
 1549SOL     OW14750   2.536   9.047   2.753 -0.0449  0.2805 -0.6315
 1549SOL    HW114751   2.585   9.009   2.831 -0.1698 -1.0991 -1.2140
 1549SOL    HW214752   2.584   9.022   2.668 -1.0673 -0.0185 -1.1281
 1550SOL     OW14753   2.968   6.548   2.649 -0.1884  0.2227 -0.1572
 1550SOL    HW114754   3.022   6.467   2.623  0.2358  0.6071 -0.4699
 1550SOL    HW214755   2.931   6.591   2.567  0.6023  1.0521 -0.0797
 1551SOL     OW14756   3.219   0.448   1.223  0.1302 -0.3618 -0.1575
 1551SOL    HW114757   3.160   0.516   1.178 -0.4470 -1.7381 -1.5211
 1551SOL    HW214758   3.310   0.453   1.183 -0.5554 -2.0350 -2.0043
 1552SOL     OW14759   0.608   9.459   1.300  0.2215 -0.4804  0.4536
 1552SOL    HW114760   0.640   9.384   1.358  0.1401 -0.4289  0.5640
 1552SOL    HW214761   0.518   9.437   1.264  0.5619 -0.8172 -0.2031
 1553SOL     OW14762   0.706   0.413   1.688  0.5486  0.0996 -0.5989
 1553SOL    HW114763   0.675   0.330   1.733  0.7993 -0.4840 -1.4842
 1553SOL    HW214764   0.733   0.392   1.594 -0.0513  1.3093 -1.0567
 1554SOL     OW14765   9.338   1.022   2.598 -0.3734  0.5733 -0.3742
 1554SOL    HW114766   9.276   1.021   2.676 -0.9984 -0.2804 -0.8672
 1554SOL    HW214767   9.411   0.955   2.612 -1.1075 -0.3802 -0.9945
 1555SOL     OW14768   9.347   8.223   0.617  0.4202  0.2545 -0.3066
 1555SOL    HW114769   9.413   8.160   0.575 -0.5353 -0.4800 -0.7203
 1555SOL    HW214770   9.360   8.315   0.579  1.3067  0.1473 -0.2753
 1556SOL     OW14771   2.564   4.832   1.757 -0.2200  0.5217  0.2362
 1556SOL    HW114772   2.558   4.837   1.657  2.9274 -0.4415 -0.0509
 1556SOL    HW214773   2.481   4.790   1.793 -0.4637 -1.1963 -2.1953
 1557SOL     OW14774   2.148   4.712   1.061 -0.5755  0.6117 -0.4053
 1557SOL    HW114775   2.094   4.657   1.125 -0.0828  0.5822 -0.0033
 1557SOL    HW214776   2.240   4.725   1.099  0.5583 -1.5673 -2.2552
 1558SOL     OW14777   3.150   4.461   1.539 -0.2980  0.5375 -0.0091
 1558SOL    HW114778   3.232   4.465   1.481 -0.2795  0.8385  0.0376
 1558SOL    HW214779   3.174   4.482   1.633 -0.3977  0.4425  0.0381
 1559SOL     OW14780   3.080   6.295   0.136  0.3404  0.5357  0.1443
 1559SOL    HW114781   3.037   6.384   0.121  2.0781  1.6531  1.5662
 1559SOL    HW214782   3.015   6.222   0.116 -1.4358  2.1429 -0.0225
 1560SOL     OW14783   4.412   2.005   2.573 -0.6950 -0.0031  0.1441
 1560SOL    HW114784   4.439   2.090   2.528  0.9888 -0.3582  0.4581
 1560SOL    HW214785   4.352   1.953   2.512  2.0887 -0.7831 -2.0310
 1561SOL     OW14786   4.497   3.022   2.304 -0.5955  0.5426  0.1860
 1561SOL    HW114787   4.496   2.985   2.396  0.4411 -1.5928 -0.6211
 1561SOL    HW214788   4.585   3.002   2.261 -0.8596  1.9946 -1.0778
 1562SOL     OW14789   0.766   7.711   1.013 -0.2239  0.1842 -0.3865
 1562SOL    HW114790   0.719   7.677   0.932 -1.3354  1.2470 -0.2149
 1562SOL    HW214791   0.755   7.646   1.088 -0.0809 -0.3175 -0.8052
 1563SOL     OW14792   2.338   9.388   1.174 -0.8431  0.3199  0.0352
 1563SOL    HW114793   2.428   9.347   1.157  0.3386  2.1537  1.6599
 1563SOL    HW214794   2.305   9.360   1.264 -2.1418 -0.7080 -0.7386
 1564SOL     OW14795   1.914   7.422   0.815 -0.5036 -0.0852 -0.4975
 1564SOL    HW114796   1.951   7.459   0.901 -1.7942  2.8254 -1.1476
 1564SOL    HW214797   1.818   7.446   0.807  0.0151  1.1560 -3.5608
 1565SOL     OW14798   3.836   0.562   1.217  0.7197  0.0468 -0.1769
 1565SOL    HW114799   3.758   0.580   1.157  0.0403  1.5414  1.1293
 1565SOL    HW214800   3.835   0.466   1.245 -1.4440  0.3635  0.9225
 1566SOL     OW14801   0.752   6.675   2.664 -0.2159  0.5790  0.1044
 1566SOL    HW114802   0.667   6.705   2.620 -0.5015 -0.0041  0.2621
 1566SOL    HW214803   0.815   6.753   2.671 -0.4820  0.8641 -0.6050
 1567SOL     OW14804   9.297   1.112   2.003  0.4554  0.3275 -0.5302
 1567SOL    HW114805   9.340   1.182   1.944  0.5275  0.6653 -0.0826
 1567SOL    HW214806   9.267   1.155   2.088  0.9742 -0.2983 -0.0317
 1568SOL     OW14807   2.646   2.752   1.186 -0.2735  0.5175 -0.4312
 1568SOL    HW114808   2.572   2.787   1.128  0.1220  1.2881 -0.4809
 1568SOL    HW214809   2.723   2.816   1.184  0.3148 -0.1730 -0.2103
 1569SOL     OW14810   3.238   0.257   2.304 -0.6398 -0.3675  0.5085
 1569SOL    HW114811   3.223   0.242   2.206  2.4790  1.8993 -0.4000
 1569SOL    HW214812   3.273   0.172   2.346  1.4402 -0.3780 -1.1384
 1570SOL     OW14813  10.120   9.408   1.272 -0.0253 -0.2201  0.3466
 1570SOL    HW114814  10.129   9.321   1.321  2.0072  0.2481  0.8429
 1570SOL    HW214815  10.100   9.481   1.336  0.9817  0.1195  0.2782
 1571SOL     OW14816   0.560   1.978   0.510 -0.0628  0.1889 -0.0544
 1571SOL    HW114817   0.509   1.920   0.445 -0.5784  2.4218 -1.7134
 1571SOL    HW214818   0.654   1.988   0.479 -0.3407  1.3568 -0.5436
 1572SOL     OW14819   3.620   5.263   0.255  0.0909  0.2104 -0.5392
 1572SOL    HW114820   3.667   5.189   0.205 -0.7595 -0.4031 -0.4545
 1572SOL    HW214821   3.607   5.235   0.350  0.7012  0.9122 -0.2517
 1573SOL     OW14822   0.492   9.638   2.251 -0.3056  0.4813  0.0471
 1573SOL    HW114823   0.449   9.554   2.284  0.3880  0.1137  0.0282
 1573SOL    HW214824   0.532   9.622   2.161  0.2049  0.7128  0.2325
 1574SOL     OW14825   0.904   1.474   1.831 -0.4577 -0.3582 -0.5771
 1574SOL    HW114826   0.958   1.472   1.915 -1.6505 -1.0560  0.1823
 1574SOL    HW214827   0.875   1.567   1.812 -1.0694 -0.3505  0.3648
 1575SOL     OW14828   1.817   5.976   0.627  0.0307  0.3892 -0.1278
 1575SOL    HW114829   1.795   6.071   0.604  0.6761  0.7731  0.8162
 1575SOL    HW214830   1.887   5.975   0.698  0.5164 -0.8022 -0.6235
 1576SOL     OW14831   9.950   7.672   0.377 -0.0257  0.2152 -0.6235
 1576SOL    HW114832   9.923   7.669   0.280 -1.5207  1.0183 -0.2516
 1576SOL    HW214833   9.944   7.766   0.410 -1.2532 -0.3068  0.7083
 1577SOL     OW14834   3.269   2.939   1.521  0.2659 -0.3108 -0.2341
 1577SOL    HW114835   3.281   2.881   1.602  2.0587 -0.8127 -0.8376
 1577SOL    HW214836   3.210   2.892   1.455 -0.2863 -0.3852  0.3113
 1578SOL     OW14837   0.693   1.134   1.483 -0.1303 -0.4826 -0.6320
 1578SOL    HW114838   0.728   1.093   1.567 -0.0649 -0.1181 -0.4802
 1578SOL    HW214839   0.610   1.187   1.503 -0.3327 -0.7148 -0.8614
 1579SOL     OW14840   8.375   6.974   2.548  0.1769  0.1535  0.1379
 1579SOL    HW114841   8.328   7.051   2.590  1.9428  0.4562  1.6206
 1579SOL    HW214842   8.318   6.892   2.556 -0.9787  0.9445  0.0469
 1580SOL     OW14843   2.108   6.481   1.393 -0.1455  0.0394 -0.0670
 1580SOL    HW114844   2.180   6.463   1.326  0.4204  3.3115 -0.4141
 1580SOL    HW214845   2.099   6.401   1.454  3.0337 -0.8655 -0.6637
 1581SOL     OW14846   5.186   3.521   1.008 -0.1887  0.1266 -0.0505
 1581SOL    HW114847   5.204   3.568   0.922 -0.4848 -2.3314 -1.4916
 1581SOL    HW214848   5.087   3.518   1.025 -0.1212  0.8024  0.5179
 1582SOL     OW14849   3.648   3.720   0.224 -0.0212 -0.0937 -0.1207
 1582SOL    HW114850   3.651   3.755   0.130  0.6579 -0.6271 -0.3029
 1582SOL    HW214851   3.715   3.768   0.280  1.0421 -1.2078 -0.4151
 1583SOL     OW14852   9.833   7.600   1.743 -0.2806  0.5603 -0.2397
 1583SOL    HW114853   9.804   7.582   1.649  0.1854 -0.4873 -0.1877
 1583SOL    HW214854   9.763   7.655   1.789 -0.7446  0.6548 -1.0422
 1584SOL     OW14855   0.454   6.208   1.672 -0.0170  0.2706 -0.3915
 1584SOL    HW114856   0.389   6.254   1.733  0.3063 -0.3136  0.4091
 1584SOL    HW214857   0.510   6.276   1.626 -0.1300  0.7159  0.1176
 1585SOL     OW14858   2.982   3.503   2.628  0.2760 -0.0678 -0.3475
 1585SOL    HW114859   2.893   3.532   2.663  0.9551  1.3747  0.2060
 1585SOL    HW214860   2.975   3.486   2.530 -1.2141 -2.4573  0.1085
 1586SOL     OW14861   9.971   2.445   2.281  0.1998  0.4004  0.4834
 1586SOL    HW114862   9.898   2.513   2.277 -0.9556 -0.7715  1.3850
 1586SOL    HW214863   9.962   2.382   2.204 -0.1100 -0.1194  0.9455
 1587SOL     OW14864   2.090   6.832   2.689 -0.3860  0.3174  0.0069
 1587SOL    HW114865   2.086   6.734   2.674  1.7921 -0.0247  1.3616
 1587SOL    HW214866   2.024   6.858   2.760  0.0774 -0.4186  0.7240
 1588SOL     OW14867   0.941   4.447   0.911 -0.3017 -0.1288 -0.1727
 1588SOL    HW114868   0.858   4.475   0.862 -0.8638  2.0112  1.8987
 1588SOL    HW214869   1.021   4.481   0.862 -0.7586 -0.0498 -0.8727
 1589SOL     OW14870   8.744   3.200   0.438 -0.0119 -0.0781  0.0124
 1589SOL    HW114871   8.731   3.102   0.420 -0.5517 -0.6266  3.1023
 1589SOL    HW214872   8.841   3.220   0.446  0.1126 -0.2881 -0.8827
 1590SOL     OW14873   1.766   2.726   2.633  0.0254 -0.4916  0.8563
 1590SOL    HW114874   1.796   2.809   2.586 -1.0577 -0.6285 -0.0915
 1590SOL    HW214875   1.843   2.663   2.643  0.4773 -0.0606  0.1196
 1591SOL     OW14876   9.945   0.886   2.423  0.0733  0.0603  0.2079
 1591SOL    HW114877   9.890   0.963   2.390 -1.7106 -0.8523  1.0093
 1591SOL    HW214878  10.005   0.854   2.349 -0.3885  1.1389 -0.6452
 1592SOL     OW14879   1.786   1.222   1.512 -0.1297  0.2525 -0.2130
 1592SOL    HW114880   1.728   1.140   1.518  0.6299 -0.2325  0.5593
 1592SOL    HW214881   1.732   1.303   1.534 -0.1303 -0.3647  2.1657
 1593SOL     OW14882   0.935   6.667   0.672  0.6093  0.6835 -0.3651
 1593SOL    HW114883   1.027   6.701   0.650  0.2090  1.5338 -0.7757
 1593SOL    HW214884   0.942   6.591   0.737  1.7174 -0.5732 -1.9131
 1594SOL     OW14885   1.657   9.543   2.799 -0.1329  0.4722  0.2455
 1594SOL    HW114886   1.594   9.583   2.865  0.0758  0.0510  0.7038
 1594SOL    HW214887   1.698   9.460   2.837  2.0096  1.6795  0.6693
 1595SOL     OW14888   4.994   3.287   1.226  0.5813  0.2566  0.4268
 1595SOL    HW114889   5.065   3.331   1.281  0.1977  0.8540  0.4483
 1595SOL    HW214890   5.030   3.203   1.187  1.8023  1.3343 -0.8223
 1596SOL     OW14891   2.918   3.750   2.397  0.3237  0.4394  0.3161
 1596SOL    HW114892   2.950   3.809   2.322  0.2978 -0.0406 -0.0782
 1596SOL    HW214893   2.943   3.655   2.377 -0.1857  0.2341  0.6462
 1597SOL     OW14894   3.507   9.398   1.183  0.1423 -0.1863 -0.7748
 1597SOL    HW114895   3.554   9.310   1.187 -0.1831 -0.3494 -0.5138
 1597SOL    HW214896   3.414   9.385   1.150 -1.1397 -0.4563  2.7383
 1598SOL     OW14897   0.952   4.406   1.184  0.0486  0.5797  0.7122
 1598SOL    HW114898   0.962   4.405   1.084  0.0275  0.1749  0.7154
 1598SOL    HW214899   0.990   4.491   1.220 -1.2563  1.4064  0.2075
 1599SOL     OW14900   9.851   9.599   2.339 -0.6333  0.7960 -0.5388
 1599SOL    HW114901   9.831   9.696   2.354 -3.0585  0.3020 -0.3894
 1599SOL    HW214902   9.811   9.570   2.252  1.1857  0.2269 -1.1998
 1600SOL     OW14903   2.292   6.684   1.447 -0.0993 -0.1128  0.0852
 1600SOL    HW114904   2.284   6.781   1.468 -0.4290 -0.4140  1.3990
 1600SOL    HW214905   2.201   6.646   1.428 -0.1912 -0.5341  1.3132
 1601SOL     OW14906   0.557   1.102   1.909  0.1017  0.2244  0.2763
 1601SOL    HW114907   0.577   1.005   1.926  0.2347  0.2526  0.2824
 1601SOL    HW214908   0.641   1.149   1.882  0.3881  0.6843  1.8777
 1602SOL     OW14909   2.140   2.936   1.379 -0.5233  0.3851 -0.3452
 1602SOL    HW114910   2.072   2.868   1.350 -2.2555  2.1164 -0.4364
 1602SOL    HW214911   2.101   2.992   1.453 -0.1680  3.0450 -2.1243
 1603SOL     OW14912   2.314   8.018   0.313 -0.6943  0.2933  0.0474
 1603SOL    HW114913   2.301   8.108   0.356  0.6370  0.3786  0.3195
 1603SOL    HW214914   2.363   7.958   0.377 -0.8349 -0.3560 -0.4536
 1604SOL     OW14915   0.924   2.457   2.577  0.3949 -0.4954 -0.0755
 1604SOL    HW114916   0.846   2.476   2.517  0.8247 -1.0148 -0.8111
 1604SOL    HW214917   0.947   2.360   2.571  1.5197 -0.2176 -0.3806
 1605SOL     OW14918   1.681   8.256   1.138  0.2984  0.4873  0.6705
 1605SOL    HW114919   1.716   8.249   1.231  0.9164  0.9651  0.4792
 1605SOL    HW214920   1.747   8.306   1.082  0.0033  0.0577 -0.0593
 1606SOL     OW14921   9.432   2.541   0.277  0.1354 -0.0714  0.0679
 1606SOL    HW114922   9.345   2.584   0.256  1.0459  1.6919 -0.1480
 1606SOL    HW214923   9.431   2.509   0.372  0.2374  2.4503  0.9583
 1607SOL     OW14924   2.880   5.254   1.835 -0.0012 -0.4347  0.0712
 1607SOL    HW114925   2.862   5.185   1.906 -0.8368  0.4190  0.7030
 1607SOL    HW214926   2.967   5.233   1.790  0.8011 -0.7265  1.6969
 1608SOL     OW14927   2.907   1.605   2.124  0.2455 -0.2178  0.2204
 1608SOL    HW114928   2.982   1.660   2.087 -0.5268  0.1366 -0.8261
 1608SOL    HW214929   2.823   1.660   2.127 -0.7604 -1.5760 -1.7055
 1609SOL     OW14930   9.674   5.754   0.429 -0.3010 -0.3755 -0.2215
 1609SOL    HW114931   9.697   5.766   0.526 -2.5558 -1.4963  0.4775
 1609SOL    HW214932   9.575   5.762   0.416  0.0433  0.6117 -2.5842
 1610SOL     OW14933   2.080   5.656   1.516  0.9792 -0.7737 -0.0916
 1610SOL    HW114934   2.027   5.683   1.596  2.6818 -0.5385  0.9807
 1610SOL    HW214935   2.032   5.582   1.468 -0.6572 -0.0689  0.4371
 1611SOL     OW14936   9.747   4.145   2.679 -0.5157 -0.1904 -0.1874
 1611SOL    HW114937   9.715   4.112   2.768 -1.8383  0.0053 -0.5732
 1611SOL    HW214938   9.769   4.067   2.621  1.0963 -0.3109  0.5652
 1612SOL     OW14939   4.083   1.377   2.798  0.5257  0.3560 -0.3446
 1612SOL    HW114940   4.127   1.311   2.738  1.3813  0.6556 -0.0499
 1612SOL    HW214941   4.016   1.430   2.746  0.2074 -0.3858 -0.6968
 1613SOL     OW14942   1.167   7.942   1.406  0.7954  0.4033  0.2917
 1613SOL    HW114943   1.106   7.863   1.400  0.6151  0.5405  0.3085
 1613SOL    HW214944   1.124   8.020   1.361  0.4016  0.8469  1.4394
 1614SOL     OW14945   5.001   3.804   1.980  0.4563  0.3126  0.5120
 1614SOL    HW114946   5.054   3.725   2.011  0.3039 -0.2044 -0.5008
 1614SOL    HW214947   4.905   3.777   1.969 -0.0469  1.2590  2.3951
 1615SOL     OW14948   9.631   6.144   2.115  0.2146 -0.2730  0.1847
 1615SOL    HW114949   9.608   6.241   2.101 -2.2313 -1.3124 -3.7037
 1615SOL    HW214950   9.717   6.124   2.068 -0.0586 -0.3109 -0.3053
 1616SOL     OW14951   3.417   0.282   1.776  0.0207 -0.1543  0.2197
 1616SOL    HW114952   3.400   0.293   1.678 -0.6970 -1.2679  0.2119
 1616SOL    HW214953   3.439   0.371   1.816  0.8119  0.2225 -1.0418
 1617SOL     OW14954   2.175   4.937   0.895 -0.3804  0.1248 -0.2629
 1617SOL    HW114955   2.173   4.856   0.955 -0.0162  0.5059  0.2697
 1617SOL    HW214956   2.097   4.996   0.917  0.2514  0.7096  0.4761
 1618SOL     OW14957   3.057   6.013   2.581 -0.4853  0.0126  0.2495
 1618SOL    HW114958   2.999   5.939   2.545  0.0377  0.6915 -2.0730
 1618SOL    HW214959   3.019   6.046   2.667 -2.7347 -0.5332 -0.5006
 1619SOL     OW14960   1.489   5.745   0.465  0.7072  0.4741  0.5985
 1619SOL    HW114961   1.450   5.817   0.523  0.8390 -0.1501  1.4629
 1619SOL    HW214962   1.478   5.657   0.510 -0.5314 -0.2120 -1.0054
 1620SOL     OW14963  10.121   6.264   1.578  0.0615  0.1985 -0.2764
 1620SOL    HW114964  10.105   6.170   1.549 -0.4434  0.6160 -1.3830
 1620SOL    HW214965  10.203   6.299   1.534  0.3385  0.2221  0.2606
 1621SOL     OW14966   1.053   7.258   1.828  0.4553 -0.4188  0.0458
 1621SOL    HW114967   1.113   7.310   1.888  1.7020  0.0242 -1.5531
 1621SOL    HW214968   1.001   7.320   1.769 -0.4218 -0.8717  0.3155
 1622SOL     OW14969   9.227   7.304   1.710 -0.5566 -0.2206  0.0568
 1622SOL    HW114970   9.236   7.239   1.785  1.9957  1.7801  1.5907
 1622SOL    HW214971   9.309   7.300   1.652  0.8662  3.3993  1.7069
 1623SOL     OW14972  10.222   7.956   1.836 -0.4792  0.9281 -0.4305
 1623SOL    HW114973  10.284   7.880   1.853  0.2490  1.8931  1.3491
 1623SOL    HW214974  10.180   7.946   1.746  3.0331  0.8080 -2.1266
 1624SOL     OW14975   9.680   0.895   0.623  0.2751  0.4667 -0.0244
 1624SOL    HW114976   9.749   0.968   0.627  0.0928  0.6639 -0.3964
 1624SOL    HW214977   9.601   0.921   0.678  0.4405  0.3006  0.2933
 1625SOL     OW14978   2.177   1.688   0.924  0.1797 -0.0653 -0.3399
 1625SOL    HW114979   2.228   1.644   0.850  1.2424  0.8038 -0.1533
 1625SOL    HW214980   2.142   1.776   0.891  0.4043  0.1883  0.0976
 1626SOL     OW14981   3.261   7.830   0.087 -0.3119  0.2071  0.1718
 1626SOL    HW114982   3.210   7.746   0.073  0.7570 -0.2105 -1.3288
 1626SOL    HW214983   3.199   7.908   0.089 -1.0991 -0.4103 -0.4448
 1627SOL     OW14984   2.711   2.527   2.356  0.4185  0.1072  0.4649
 1627SOL    HW114985   2.699   2.520   2.455  0.7888  0.7840  0.5654
 1627SOL    HW214986   2.738   2.621   2.333  1.8106 -0.4145 -0.1206
 1628SOL     OW14987   2.596   2.189   0.616  0.0289 -0.3605  0.0285
 1628SOL    HW114988   2.501   2.220   0.609  0.5137  2.2308  3.5002
 1628SOL    HW214989   2.599   2.091   0.632 -2.1548 -0.3209  0.7778
 1629SOL     OW14990   3.349   7.531   2.761  0.1936 -0.0539  0.1416
 1629SOL    HW114991   3.375   7.577   2.676 -1.1420  0.7489  0.1573
 1629SOL    HW214992   3.255   7.555   2.784 -0.3054 -2.2739  0.5056
 1630SOL     OW14993   4.395   9.154   2.229 -0.1664  0.0051 -0.5610
 1630SOL    HW114994   4.352   9.143   2.319  2.0656  0.9761  0.6720
 1630SOL    HW214995   4.385   9.249   2.199  0.1494 -0.0230 -0.7582
 1631SOL     OW14996  10.248   4.772   1.436  0.3797  0.2441 -0.4831
 1631SOL    HW114997  10.272   4.773   1.339 -0.7965 -0.0177 -0.7857
 1631SOL    HW214998  10.203   4.858   1.461 -0.1566 -0.0542 -0.3973
 1632SOL     OW14999   3.403   5.016   2.531 -1.0745  0.5256  0.4666
 1632SOL    HW115000   3.473   4.981   2.593 -0.9881  1.0598  0.6775
 1632SOL    HW215001   3.313   5.004   2.572 -1.2417 -1.5517 -0.4596
 1633SOL     OW15002   3.010   2.309   1.744  0.7888 -0.0625  0.1423
 1633SOL    HW115003   2.914   2.339   1.741  0.9939  0.5987  0.1852
 1633SOL    HW215004   3.036   2.289   1.838  1.2445  1.5678  0.3784
 1634SOL     OW15005   0.519   7.197   1.895  0.4226  0.4707 -0.1164
 1634SOL    HW115006   0.494   7.105   1.863  1.0827  0.6188 -1.0709
 1634SOL    HW215007   0.613   7.195   1.929  0.3965  0.7693 -0.0317
 1635SOL     OW15008   0.816   0.009   0.407 -0.5101 -0.2920  0.2095
 1635SOL    HW115009   0.896   0.002   0.347 -0.6049 -1.1523  0.1752
 1635SOL    HW215010   0.839  -0.027   0.497 -0.6840  0.0050  0.3727
 1636SOL     OW15011   9.562   9.942   0.155 -0.1036  0.2963  0.5617
 1636SOL    HW115012   9.472   9.982   0.176 -0.1332 -0.0012  1.0160
 1636SOL    HW215013   9.634  10.005   0.185 -0.1603  1.2792 -1.2993
 1637SOL     OW15014   3.211   3.778   0.347 -0.1081 -0.0324  0.1131
 1637SOL    HW115015   3.228   3.794   0.250  2.5993 -1.8390  0.2541
 1637SOL    HW215016   3.206   3.866   0.395 -1.2609  0.8604 -1.5851
 1638SOL     OW15017   1.567   7.804   1.074  0.0742  0.0372 -0.1313
 1638SOL    HW115018   1.507   7.879   1.045 -0.7269 -0.3938  0.3794
 1638SOL    HW215019   1.655   7.841   1.103 -0.0353  0.7087 -0.6479
 1639SOL     OW15020   9.520   8.405   0.168  0.0831 -0.9083 -0.7428
 1639SOL    HW115021   9.529   8.337   0.095  1.4331 -0.2801 -1.1630
 1639SOL    HW215022   9.457   8.370   0.238 -0.4266 -1.9364 -1.7016
 1640SOL     OW15023   0.986   1.882   1.910  0.4653  0.2224 -0.4024
 1640SOL    HW115024   0.913   1.826   1.870  0.2830  0.9854 -1.1627
 1640SOL    HW215025   1.040   1.923   1.837  1.2908  0.1354  0.1618
 1641SOL     OW15026   2.807   8.325   1.751  0.6793 -0.6888 -0.4107
 1641SOL    HW115027   2.902   8.332   1.784  0.8812 -1.2928 -0.8723
 1641SOL    HW215028   2.745   8.326   1.830  0.9509  1.5564 -0.1745
 1642SOL     OW15029   2.012   4.648   1.641  0.1552  0.1078  0.2109
 1642SOL    HW115030   1.961   4.720   1.689 -1.1227 -0.7364  0.1661
 1642SOL    HW215031   2.072   4.690   1.573  1.3910  1.2722  1.9724
 1643SOL     OW15032   0.788   6.491   0.303  0.1096  0.3495  0.0091
 1643SOL    HW115033   0.862   6.452   0.357  1.5403 -0.4029 -2.4061
 1643SOL    HW215034   0.702   6.484   0.354  0.9605 -2.6444  1.1734
 1644SOL     OW15035   2.329   7.908   1.777  0.0000  0.0023 -0.3301
 1644SOL    HW115036   2.397   7.844   1.742 -1.2700 -0.5536 -1.7960
 1644SOL    HW215037   2.375   7.983   1.824  1.6350 -0.1750 -1.6308
 1645SOL     OW15038   3.270   3.238   1.453 -0.0973 -0.3852  0.0181
 1645SOL    HW115039   3.298   3.148   1.487  1.0334 -0.4152 -0.9378
 1645SOL    HW215040   3.231   3.228   1.361  0.8845  0.1904 -0.4752
 1646SOL     OW15041   0.481   0.699   1.012  0.0915  0.0685  0.5774
 1646SOL    HW115042   0.524   0.760   1.078 -0.3585  0.8199  0.1757
 1646SOL    HW215043   0.405   0.650   1.057  2.3679 -2.5208  1.7610
 1647SOL     OW15044   3.214   2.748   0.624 -0.5805  0.4290  0.3269
 1647SOL    HW115045   3.187   2.844   0.636 -1.3816  0.1455  0.7872
 1647SOL    HW215046   3.300   2.745   0.573 -1.5754  1.3379 -1.4695
 1648SOL     OW15047   2.120   1.653   1.766  0.5415  0.4037 -0.5978
 1648SOL    HW115048   2.033   1.682   1.726  0.7358  2.6088  0.4843
 1648SOL    HW215049   2.106   1.567   1.816 -0.3684 -0.7478 -2.7445
 1649SOL     OW15050   4.141   5.392   1.973  0.3169 -0.3939 -0.4023
 1649SOL    HW115051   4.053   5.425   1.938  0.4071  0.2551 -0.0270
 1649SOL    HW215052   4.127   5.352   2.064  0.2844 -0.9830 -0.6638
 1650SOL     OW15053   9.819   5.625   2.746 -0.1802 -0.7598  0.2226
 1650SOL    HW115054   9.740   5.566   2.766 -2.3119  1.7323 -0.6255
 1650SOL    HW215055   9.850   5.668   2.831 -1.3577  0.1758  0.2054
 1651SOL     OW15056   9.335   1.948   0.219 -0.3252  0.7391  0.0684
 1651SOL    HW115057   9.259   1.939   0.155 -0.6228 -0.9966  0.6438
 1651SOL    HW215058   9.361   1.858   0.253  0.2484  1.5610  1.8936
 1652SOL     OW15059   3.241   0.056   1.805  0.1790  0.4643  0.1112
 1652SOL    HW115060   3.283  -0.034   1.793  1.3727  0.5259  3.1420
 1652SOL    HW215061   3.308   0.127   1.782 -0.3097  0.5934 -0.9445
 1653SOL     OW15062   1.589   0.474   2.328  0.1306  0.0762  0.3961
 1653SOL    HW115063   1.510   0.503   2.381 -0.9659  0.4474 -1.3841
 1653SOL    HW215064   1.622   0.386   2.363 -1.8303 -0.6862  0.4302
 1654SOL     OW15065   3.758   4.739   2.125  0.6799  0.7950  0.1745
 1654SOL    HW115066   3.766   4.728   2.026 -0.9934 -0.4509  0.1645
 1654SOL    HW215067   3.832   4.690   2.171  0.9903  0.7148 -0.4128
 1655SOL     OW15068   4.493   4.717   1.053  0.2684 -0.1332  0.1748
 1655SOL    HW115069   4.442   4.728   1.138 -1.6320 -0.8158 -0.8337
 1655SOL    HW215070   4.428   4.707   0.977  1.8942 -2.1843 -1.0027
 1656SOL     OW15071   9.494   5.499   0.774 -0.0751  0.1853  0.0642
 1656SOL    HW115072   9.563   5.517   0.845 -1.2034 -1.7362  1.6964
 1656SOL    HW215073   9.458   5.586   0.740  1.4825  1.1583  0.8572
 1657SOL     OW15074   2.483   1.751   0.138 -0.1543 -0.3336  0.1232
 1657SOL    HW115075   2.475   1.843   0.101 -0.7386 -0.3871  0.1068
 1657SOL    HW215076   2.570   1.711   0.110  0.6094  0.6332  1.0824
 1658SOL     OW15077  10.242   8.725   2.693 -1.0464  0.2966 -0.1841
 1658SOL    HW115078  10.325   8.737   2.639 -0.1358 -0.4025  1.0152
 1658SOL    HW215079  10.262   8.665   2.771 -3.0155 -1.0260 -0.6515
 1659SOL     OW15080   9.778   3.249   2.198 -0.3316 -0.2694 -0.2672
 1659SOL    HW115081   9.685   3.273   2.169 -0.3146  0.7092  0.4536
 1659SOL    HW215082   9.812   3.173   2.143 -1.2583 -0.1071 -1.0742
 1660SOL     OW15083   9.298   5.699   2.388  0.2108  0.0411  0.4344
 1660SOL    HW115084   9.199   5.694   2.374 -0.2033 -0.4365  3.2312
 1660SOL    HW215085   9.343   5.725   2.302 -2.4964  2.1676 -0.4013
 1661SOL     OW15086   0.863   8.521   1.057  0.3548  0.2331  0.4543
 1661SOL    HW115087   0.813   8.471   1.128  1.0066  1.8051  2.0780
 1661SOL    HW215088   0.958   8.491   1.057  0.8556  1.7163  1.7426
 1662SOL     OW15089   3.683   9.353   2.463 -0.0228  0.1205  0.5630
 1662SOL    HW115090   3.602   9.409   2.446  0.6046  0.9764  0.2917
 1662SOL    HW215091   3.760   9.390   2.409  0.0904 -1.7777 -0.6024
 1663SOL     OW15092   1.874   0.006   1.755 -0.1691 -0.2526  0.3392
 1663SOL    HW115093   1.891  -0.084   1.716  1.1845  0.5208 -0.9012
 1663SOL    HW215094   1.897   0.076   1.688 -2.1427  1.0108  0.9290
 1664SOL     OW15095   2.972   1.144   2.542 -0.5065 -0.1792 -0.4052
 1664SOL    HW115096   3.010   1.213   2.480 -2.1181 -1.0570 -2.4348
 1664SOL    HW215097   2.903   1.187   2.601 -0.0386  0.3549 -0.2394
 1665SOL     OW15098   2.996   1.840   1.278  0.2626 -0.1479  0.1910
 1665SOL    HW115099   2.954   1.820   1.366 -0.9375 -2.7946 -0.9191
 1665SOL    HW215100   2.927   1.879   1.217  0.8935  0.9420  0.1584
 1666SOL     OW15101   3.160   9.596   1.767 -0.0276  0.6655  0.1983
 1666SOL    HW115102   3.130   9.535   1.841 -1.4089  0.0266 -0.8614
 1666SOL    HW215103   3.149   9.550   1.679 -2.1807  2.8030 -0.7310
 1667SOL     OW15104   2.216   7.728   2.344 -0.7088 -0.2339 -1.1306
 1667SOL    HW115105   2.248   7.634   2.334 -0.9735 -0.5033  0.4533
 1667SOL    HW215106   2.293   7.786   2.369 -0.8038 -0.2704 -0.7547
 1668SOL     OW15107   1.609   4.626   1.905  0.4208  0.2611 -0.2009
 1668SOL    HW115108   1.614   4.560   1.829  1.1802  1.7546 -1.4767
 1668SOL    HW215109   1.609   4.576   1.992  0.1796 -1.4588 -1.1558
 1669SOL     OW15110   2.930   0.118   1.389  0.2959  0.0903 -0.4710
 1669SOL    HW115111   2.899   0.154   1.477  2.3735  0.3190  0.1924
 1669SOL    HW215112   2.887   0.169   1.315  0.9805  2.0508  0.4404
 1670SOL     OW15113   4.684   2.494   1.915 -0.7687  0.2635 -0.4561
 1670SOL    HW115114   4.701   2.412   1.860 -0.4429  1.4101 -2.0987
 1670SOL    HW215115   4.598   2.536   1.886 -1.5323 -0.1296  1.1851
 1671SOL     OW15116   0.355   4.687   2.546  0.2325  0.8343  0.2477
 1671SOL    HW115117   0.267   4.645   2.566  0.4432 -0.5482 -1.6097
 1671SOL    HW215118   0.427   4.618   2.552  0.6833  1.0724 -1.9769
 1672SOL     OW15119   9.848   0.335   2.191  0.1966  0.1050  0.3757
 1672SOL    HW115120   9.866   0.395   2.113  2.0636  0.1133  0.7772
 1672SOL    HW215121   9.755   0.350   2.224 -0.8797 -0.4366 -2.2941
 1673SOL     OW15122   9.748   2.057   2.077 -0.1231  0.4545  0.3616
 1673SOL    HW115123   9.847   2.047   2.079  0.0917  2.5729  2.2786
 1673SOL    HW215124   9.720   2.131   2.139 -2.9510 -0.5788  0.4189
 1674SOL     OW15125   1.800   9.788   2.270  0.2715 -0.1524  0.1666
 1674SOL    HW115126   1.866   9.715   2.287  0.0283 -0.4128  0.0010
 1674SOL    HW215127   1.780   9.793   2.172  0.1608  0.0245  0.1975
 1675SOL     OW15128   3.775   8.502   1.392 -0.0383 -0.3906 -0.0685
 1675SOL    HW115129   3.683   8.500   1.431 -0.4218  0.3586 -0.8954
 1675SOL    HW215130   3.770   8.541   1.300  0.6372 -3.4577 -1.4616
 1676SOL     OW15131  10.114   8.575   2.174 -0.4878  0.3183  0.1750
 1676SOL    HW115132  10.063   8.495   2.205 -1.3752  0.8979  0.2279
 1676SOL    HW215133  10.144   8.629   2.253 -0.0801  0.1552  0.1322
 1677SOL     OW15134   4.081   8.825   0.787  0.1927 -0.3087  0.1184
 1677SOL    HW115135   4.047   8.839   0.694 -0.5810  0.1231  0.4558
 1677SOL    HW215136   4.161   8.766   0.785 -0.8312 -1.7116 -0.6652
 1678SOL     OW15137   3.583   8.798   2.812 -0.1332  0.2052 -0.1789
 1678SOL    HW115138   3.658   8.776   2.874 -0.1636  0.0245 -0.2031
 1678SOL    HW215139   3.591   8.741   2.730  0.0742  0.6493 -0.4724
 1679SOL     OW15140   3.845   0.494   2.334 -0.1630  0.1717 -0.0362
 1679SOL    HW115141   3.765   0.446   2.299  0.6099  0.0302 -1.6727
 1679SOL    HW215142   3.891   0.437   2.402 -0.7026 -0.3221 -0.0853
 1680SOL     OW15143  10.335   5.700   0.191 -0.1349 -0.2045  0.6033
 1680SOL    HW115144  10.401   5.662   0.255  1.4407 -0.5539 -1.1739
 1680SOL    HW215145  10.256   5.735   0.241  1.2784 -0.0014  2.7527
 1681SOL     OW15146   9.194   5.563   0.873  0.5489  0.1162  0.4498
 1681SOL    HW115147   9.164   5.590   0.964  2.5723 -0.1731  1.2242
 1681SOL    HW215148   9.285   5.599   0.855  0.4627 -0.4254 -1.1891
 1682SOL     OW15149   8.781   6.729   2.719  0.1464  0.4256  1.0251
 1682SOL    HW115150   8.796   6.645   2.666 -0.9431 -0.4898  2.1527
 1682SOL    HW215151   8.868   6.776   2.730  0.6317 -0.0992 -0.3677
 1683SOL     OW15152   3.324   8.611   0.606 -0.8006  0.6767 -0.3273
 1683SOL    HW115153   3.349   8.598   0.702 -1.7590 -1.9951 -0.3844
 1683SOL    HW215154   3.241   8.559   0.585 -0.7375  1.3818 -2.5601
 1684SOL     OW15155   1.803   4.928   2.287 -0.5368  0.0390 -0.1820
 1684SOL    HW115156   1.804   4.964   2.194 -0.5982 -0.9167 -0.5581
 1684SOL    HW215157   1.730   4.860   2.296 -0.8984  0.5515  0.7230
 1685SOL     OW15158   2.917   9.042   1.017  0.2472  0.2397 -0.9890
 1685SOL    HW115159   2.819   9.041   1.039  0.6031  0.4882  0.6365
 1685SOL    HW215160   2.942   9.132   0.981 -0.0221  0.3161 -0.9902
 1686SOL     OW15161   1.265   9.474   1.042 -0.0498 -0.1189 -0.7574
 1686SOL    HW115162   1.271   9.512   1.134  2.2566 -1.7940 -0.1632
 1686SOL    HW215163   1.290   9.544   0.975  0.0070  0.6030  0.0134
 1687SOL     OW15164   9.770   6.848   0.841  0.1853 -0.7632  0.1512
 1687SOL    HW115165   9.687   6.859   0.896  0.8319 -0.0436  1.0016
 1687SOL    HW215166   9.746   6.812   0.751 -0.9759 -1.2036  0.6277
 1688SOL     OW15167   1.173   9.410   0.594  0.0896 -0.1342  0.5495
 1688SOL    HW115168   1.104   9.457   0.539 -0.4634  0.8218  2.0120
 1688SOL    HW215169   1.250   9.473   0.610 -0.3690  0.0826  1.9903
 1689SOL     OW15170   9.134   2.985   0.224  0.3719  0.2907 -0.1633
 1689SOL    HW115171   9.129   2.899   0.174  0.8268  0.0758  0.1508
 1689SOL    HW215172   9.230   3.010   0.236  0.2458  0.7028 -0.0210
 1690SOL     OW15173   3.152   1.161   0.854 -0.0531  0.0641  0.1302
 1690SOL    HW115174   3.193   1.100   0.922  3.9233  1.6413 -0.7434
 1690SOL    HW215175   3.149   1.254   0.890 -0.5664  0.4008 -0.7703
 1691SOL     OW15176   4.068   3.025   0.848 -0.4832 -0.3700 -0.2327
 1691SOL    HW115177   4.033   3.076   0.770 -1.5504 -0.4236  0.2102
 1691SOL    HW215178   4.116   2.943   0.816 -0.6222 -0.2127 -0.8433
 1692SOL     OW15179  10.211   9.750   0.932  0.4032  0.1961 -0.3904
 1692SOL    HW115180  10.287   9.805   0.967 -0.2316  0.4089  0.6866
 1692SOL    HW215181  10.194   9.674   0.994  0.4841 -0.5206 -1.2381
 1693SOL     OW15182   2.993   8.335   0.922 -0.0482 -0.2046  0.1953
 1693SOL    HW115183   2.917   8.356   0.860  0.1792  1.7382  0.5183
 1693SOL    HW215184   2.967   8.260   0.983 -0.9141 -0.9763 -1.0998
 1694SOL     OW15185   9.090   0.614   2.680 -0.5148  0.4066 -0.5538
 1694SOL    HW115186   9.015   0.626   2.744 -0.5229 -0.3452 -0.4157
 1694SOL    HW215187   9.177   0.616   2.730 -0.3718  2.3477 -0.8486
 1695SOL     OW15188   9.761   9.671   2.680  0.2059 -0.4725  0.3031
 1695SOL    HW115189   9.756   9.589   2.624  0.5824 -1.0320  1.0870
 1695SOL    HW215190   9.856   9.700   2.688 -0.1271  1.5176 -2.0785
 1696SOL     OW15191   9.886   0.591   0.331 -0.1244 -0.0120  0.4041
 1696SOL    HW115192   9.850   0.664   0.272 -2.8054 -1.5269  0.0719
 1696SOL    HW215193   9.918   0.516   0.274 -2.9215 -1.5762  0.7661
 1697SOL     OW15194   2.628   3.266   0.236 -0.1750 -0.0590 -0.6160
 1697SOL    HW115195   2.651   3.353   0.279 -1.7690  0.5069 -0.8932
 1697SOL    HW215196   2.562   3.217   0.293  0.0464 -0.6935 -0.9007
 1698SOL     OW15197   4.095   4.274   1.194 -0.2681  0.4459 -0.2676
 1698SOL    HW115198   4.011   4.319   1.162 -0.8938 -0.1397  0.5210
 1698SOL    HW215199   4.123   4.205   1.127  0.5214  1.7887 -1.3305
 1699SOL     OW15200   9.785   5.663   1.614  0.4214  0.3467  0.1008
 1699SOL    HW115201   9.729   5.689   1.693  0.7479 -0.5269  0.6205
 1699SOL    HW215202   9.866   5.721   1.610  1.1231 -0.5457  1.2336
 1700SOL     OW15203   9.149   8.124   1.898  0.6592 -0.6895 -0.1213
 1700SOL    HW115204   9.115   8.095   1.987  1.1970  0.9860  0.6434
 1700SOL    HW215205   9.222   8.191   1.910  0.8817 -0.6049 -1.8144
 1701SOL     OW15206   1.989   0.844   0.093  0.5000  0.0796  0.4303
 1701SOL    HW115207   1.939   0.914   0.042 -0.4876 -0.0260  1.2412
 1701SOL    HW215208   2.056   0.888   0.153  0.6776  0.2733  0.0889
 1702SOL     OW15209   4.214   3.036   1.797 -0.4226 -0.1217  0.4196
 1702SOL    HW115210   4.303   3.069   1.767 -1.1695  1.3577 -0.1982
 1702SOL    HW215211   4.156   3.113   1.824 -2.0843 -0.9126 -0.7492
 1703SOL     OW15212   3.368   4.434   1.374 -0.1310  0.0027  0.3439
 1703SOL    HW115213   3.348   4.460   1.279 -2.0466 -0.1464  0.6837
 1703SOL    HW215214   3.426   4.352   1.374  1.0690  0.8250 -0.6881
 1704SOL     OW15215   9.783   2.583   0.925  1.1097  0.0664  0.0915
 1704SOL    HW115216   9.725   2.604   0.846  1.3879  1.8103  0.3253
 1704SOL    HW215217   9.872   2.550   0.893  0.5466 -1.1205 -0.2844
 1705SOL     OW15218   2.294   7.078   1.864 -0.5862  0.4106 -0.5123
 1705SOL    HW115219   2.338   7.019   1.932  0.2244 -1.2943 -2.4920
 1705SOL    HW215220   2.221   7.028   1.818 -1.5203  1.7522 -0.5387
 1706SOL     OW15221   2.033   8.876   2.562 -0.4688  0.0525 -0.0146
 1706SOL    HW115222   1.979   8.912   2.485 -0.0009  0.5519 -0.1147
 1706SOL    HW215223   1.998   8.915   2.647 -2.8871 -2.7421  0.3511
 1707SOL     OW15224   3.532   1.415   2.732 -0.3876  0.0134 -0.0951
 1707SOL    HW115225   3.506   1.404   2.828  1.1526 -1.3942  0.1785
 1707SOL    HW215226   3.450   1.431   2.677 -1.1407  2.5805  1.6555
 1708SOL     OW15227   9.334   8.806   1.305  0.1579  0.4032 -0.3738
 1708SOL    HW115228   9.353   8.888   1.360  0.2504  0.4962 -0.5386
 1708SOL    HW215229   9.387   8.812   1.220 -2.0436  1.5833 -1.7223
 1709SOL     OW15230   9.561   6.902   1.032  0.8910 -0.3616  0.2803
 1709SOL    HW115231   9.586   6.974   1.096 -0.5644 -0.0160  0.4685
 1709SOL    HW215232   9.587   6.813   1.071  1.0892 -0.0684  0.8268
 1710SOL     OW15233   8.383   3.033   0.637  0.4470  0.1692  0.0452
 1710SOL    HW115234   8.461   3.096   0.639  0.4033  0.2204  0.1238
 1710SOL    HW215235   8.300   3.084   0.616  0.0864  0.4624  2.1141
 1711SOL     OW15236   0.780   4.622   2.599  0.1742  0.3058  0.4526
 1711SOL    HW115237   0.859   4.682   2.588  0.9109 -0.6485  0.5629
 1711SOL    HW215238   0.738   4.639   2.688  2.4280 -1.7544  1.9575
 1712SOL     OW15239   0.475   4.168   2.359  0.6798  0.1274  0.4615
 1712SOL    HW115240   0.493   4.216   2.445 -0.1672  0.8464  0.2434
 1712SOL    HW215241   0.562   4.137   2.320  1.1971  1.0158  0.8726
 1713SOL     OW15242   9.146   3.876   1.021 -0.0987 -0.2280  0.3796
 1713SOL    HW115243   9.239   3.897   0.991  0.1406  0.2239  1.4273
 1713SOL    HW215244   9.143   3.873   1.121 -1.2816  0.0743  0.3591
 1714SOL     OW15245   3.984   5.321   0.521 -0.1702  0.2180  0.3410
 1714SOL    HW115246   3.906   5.384   0.518 -1.1488 -1.0265 -1.4320
 1714SOL    HW215247   4.061   5.361   0.470 -0.1490  0.7935  0.8185
 1715SOL     OW15248   0.552   0.382   1.219  0.3596 -0.5403 -0.0618
 1715SOL    HW115249   0.467   0.408   1.173  0.1970 -1.5573 -0.3467
 1715SOL    HW215250   0.628   0.389   1.154  0.2932 -0.9014 -0.1822
 1716SOL     OW15251   1.706   8.994   0.215 -0.0300 -0.4446  0.0875
 1716SOL    HW115252   1.730   9.085   0.248  1.7657 -0.5840 -0.8149
 1716SOL    HW215253   1.695   8.933   0.294  1.0355  0.0037  0.5961
 1717SOL     OW15254  10.070   9.294   0.799  0.3508  0.3335 -0.3912
 1717SOL    HW115255   9.991   9.356   0.797 -0.2509 -0.2737  2.0732
 1717SOL    HW215256  10.048   9.215   0.856  2.4049 -0.3468 -0.5170
 1718SOL     OW15257   1.378   0.089   1.458  0.1698 -0.0002 -0.2702
 1718SOL    HW115258   1.344   0.149   1.530 -0.1051 -1.2787  0.6819
 1718SOL    HW215259   1.308   0.078   1.388  0.2251  0.7990 -0.4520
 1719SOL     OW15260   1.404   5.792   2.604  0.1241  0.2651 -0.1568
 1719SOL    HW115261   1.424   5.796   2.702 -0.3424  0.2418 -0.0572
 1719SOL    HW215262   1.367   5.702   2.581 -0.0313  0.3664 -0.3044
 1720SOL     OW15263   3.501   5.528   0.262  0.2524  0.1744  0.1482
 1720SOL    HW115264   3.519   5.430   0.254  0.2315  0.0230  1.7747
 1720SOL    HW215265   3.444   5.558   0.186 -1.0093 -1.3858  0.4539
 1721SOL     OW15266   1.740   6.060   1.015  0.1567 -0.6258  0.1153
 1721SOL    HW115267   1.689   5.976   0.995  1.4912 -1.3155 -0.4968
 1721SOL    HW215268   1.684   6.140   0.992 -0.7188 -1.3611 -0.3351
 1722SOL     OW15269   3.028   7.688   2.119 -0.1538 -0.1102  0.0477
 1722SOL    HW115270   2.967   7.759   2.084  1.1466  0.8892 -0.2305
 1722SOL    HW215271   2.974   7.616   2.163 -1.6097  0.0315 -1.4886
 1723SOL     OW15272   0.849   5.918   1.777 -0.1355 -0.1453 -0.5213
 1723SOL    HW115273   0.913   5.978   1.730 -1.0329  0.1602 -1.3761
 1723SOL    HW215274   0.818   5.961   1.862  0.6377 -0.2101 -0.2073
 1724SOL     OW15275   2.624   1.325   1.126  0.2960  0.5020  0.3542
 1724SOL    HW115276   2.706   1.307   1.179 -0.5617  0.5704  1.7240
 1724SOL    HW215277   2.627   1.273   1.041  1.4229 -0.0434  0.7240
 1725SOL     OW15278   2.111   7.571   1.814 -0.2762  0.3351 -0.6571
 1725SOL    HW115279   2.193   7.515   1.798  0.6925  1.8636 -1.1849
 1725SOL    HW215280   2.055   7.528   1.884  1.1138 -0.6226 -0.0941
 1726SOL     OW15281   1.133   4.477   0.705  0.0060  0.2643  0.1348
 1726SOL    HW115282   1.062   4.444   0.643 -1.5793 -0.1452  2.1498
 1726SOL    HW215283   1.195   4.401   0.728  0.5088  0.3818 -0.7901
 1727SOL     OW15284   1.670   0.327   0.707  0.3831 -0.0917  0.2173
 1727SOL    HW115285   1.663   0.295   0.801  1.7671 -3.1384 -0.6344
 1727SOL    HW215286   1.763   0.361   0.690 -0.1782  1.4686  0.2489
 1728SOL     OW15287   1.294   9.145   0.512 -0.0104  0.0401 -0.1363
 1728SOL    HW115288   1.244   9.223   0.550  0.0549  0.3507 -0.6768
 1728SOL    HW215289   1.275   9.139   0.414 -0.3949 -0.9137 -0.0042
 1729SOL     OW15290  10.077   2.670   0.287 -0.2550 -0.0604  0.1780
 1729SOL    HW115291  10.156   2.652   0.345  1.6833 -0.6395 -2.5502
 1729SOL    HW215292  10.072   2.600   0.215 -0.6644  2.4662 -2.3402
 1730SOL     OW15293   2.880   0.943   2.335 -0.4477 -0.5069  0.0627
 1730SOL    HW115294   2.956   0.929   2.272  0.2778 -2.5390  1.3552
 1730SOL    HW215295   2.911   0.998   2.413 -0.1524 -1.6927  0.8013
 1731SOL     OW15296   0.376   2.397   0.135 -0.1657 -0.0278  0.0619
 1731SOL    HW115297   0.448   2.466   0.145 -1.1252  1.0070 -0.0472
 1731SOL    HW215298   0.366   2.347   0.222 -0.5808  1.0858  0.6631
 1732SOL     OW15299   1.779   8.449   2.551 -0.6777 -0.4512 -0.3185
 1732SOL    HW115300   1.850   8.440   2.481 -1.9102 -0.0152 -1.6594
 1732SOL    HW215301   1.800   8.527   2.610  0.7640 -1.2730  0.2815
 1733SOL     OW15302   4.471   1.143   2.016  0.4198  0.2487  0.2317
 1733SOL    HW115303   4.478   1.235   1.980  3.2606  0.4508  1.1917
 1733SOL    HW215304   4.455   1.078   1.941 -1.8727  1.5254 -0.4041
 1734SOL     OW15305   3.577   5.939   0.330  0.1688 -0.2234 -0.1095
 1734SOL    HW115306   3.629   5.919   0.247 -0.6593 -0.7474 -0.5103
 1734SOL    HW215307   3.504   5.870   0.341  0.5892 -0.4539  1.3133
 1735SOL     OW15308  10.309   0.974   0.323 -0.3870 -0.2623 -0.3700
 1735SOL    HW115309  10.392   1.029   0.335 -0.4186 -0.3696  0.3134
 1735SOL    HW215310  10.276   0.985   0.229  0.5613 -0.4463 -0.7270
 1736SOL     OW15311   3.379   4.503   2.611 -0.3226  0.3934 -0.2438
 1736SOL    HW115312   3.309   4.471   2.547 -1.5274  1.6234  0.4332
 1736SOL    HW215313   3.336   4.554   2.685  1.2011  0.2398  0.7758
 1737SOL     OW15314   3.936   2.647   2.778 -0.3542  0.1933 -0.5559
 1737SOL    HW115315   3.855   2.651   2.721  0.1263 -0.6982 -1.3063
 1737SOL    HW215316   3.954   2.552   2.805  1.6915  0.0663 -2.2319
 1738SOL     OW15317   2.258   9.820   1.046 -0.2389  0.2045  0.1918
 1738SOL    HW115318   2.198   9.743   1.066  0.2834  0.3245  2.2739
 1738SOL    HW215319   2.237   9.896   1.107  0.8558  0.8737 -0.2434
 1739SOL     OW15320   2.873   7.281   1.686 -0.4095 -0.3846  0.1357
 1739SOL    HW115321   2.876   7.337   1.769 -0.1654 -1.5759  0.9459
 1739SOL    HW215322   2.893   7.338   1.606  3.5804 -0.0297  1.2904
 1740SOL     OW15323   4.782   2.093   0.303 -0.3460 -0.0900 -0.2388
 1740SOL    HW115324   4.848   2.040   0.355  0.2546  1.0370  0.1733
 1740SOL    HW215325   4.781   2.187   0.337 -0.0688  0.6156 -2.1127
 1741SOL     OW15326   2.658   5.558   0.755 -0.3906 -0.0039 -0.0501
 1741SOL    HW115327   2.692   5.652   0.754 -0.3911 -0.0083 -1.0315
 1741SOL    HW215328   2.719   5.501   0.700 -0.1037 -0.6832  0.9611
 1742SOL     OW15329   2.548   3.275   2.726  0.5404 -0.3442  0.5466
 1742SOL    HW115330   2.502   3.359   2.698  2.0105  0.3003  0.0482
 1742SOL    HW215331   2.575   3.282   2.822  0.3756 -0.3778  0.5954
 1743SOL     OW15332   1.249   7.359   2.014 -0.1805 -0.1050 -0.5947
 1743SOL    HW115333   1.307   7.298   2.068 -0.5599  1.2346  1.3704
 1743SOL    HW215334   1.307   7.414   1.953  0.5242  0.4165  0.5326
 1744SOL     OW15335   9.714   7.785   2.159 -0.9777  0.0302  0.0545
 1744SOL    HW115336   9.654   7.753   2.233  0.9699 -0.5635  1.4119
 1744SOL    HW215337   9.691   7.737   2.074 -3.6172  1.1366  0.0933
 1745SOL     OW15338   9.839   0.796   0.149  0.1855 -0.4586 -0.1918
 1745SOL    HW115339   9.863   0.869   0.085  2.0268 -1.0663 -0.2435
 1745SOL    HW215340   9.752   0.756   0.123  0.7754 -0.5122 -2.1778
 1746SOL     OW15341   9.453   4.514   1.665 -0.0365  0.0002 -0.6059
 1746SOL    HW115342   9.477   4.420   1.641 -1.5667 -0.1504 -1.6972
 1746SOL    HW215343   9.503   4.578   1.606 -0.4779 -0.2188 -1.2291
 1747SOL     OW15344   3.549   8.285   0.305 -0.3380 -0.0077 -0.5326
 1747SOL    HW115345   3.641   8.294   0.267  0.4677 -3.3215  0.4426
 1747SOL    HW215346   3.552   8.301   0.404 -0.2173 -2.9187 -0.0174
 1748SOL     OW15347   1.545   9.538   1.158  0.3487 -0.5699  0.0367
 1748SOL    HW115348   1.536   9.579   1.068 -0.5783  0.0398  0.3991
 1748SOL    HW215349   1.520   9.605   1.228  0.8226 -1.1100  0.7385
 1749SOL     OW15350   8.987   5.639   0.441  0.1573  0.0631  0.0758
 1749SOL    HW115351   8.927   5.559   0.442  0.8743 -0.4684  0.8978
 1749SOL    HW215352   8.935   5.719   0.410 -0.2829 -0.9380 -1.8527
 1750SOL     OW15353   3.258   6.705   2.364 -0.0625  0.4486  0.1319
 1750SOL    HW115354   3.244   6.793   2.410 -1.2305  0.2599  0.1569
 1750SOL    HW215355   3.270   6.720   2.266 -1.3408  0.5749 -0.0223
 1751SOL     OW15356   0.981   9.307   0.828  0.3022 -0.0469 -0.2417
 1751SOL    HW115357   1.029   9.346   0.750 -0.1810  0.6869 -0.1785
 1751SOL    HW215358   0.916   9.374   0.864 -0.3005 -0.7911  0.0706
 1752SOL     OW15359   9.807   4.635   2.486  0.3007 -0.7591 -0.1023
 1752SOL    HW115360   9.827   4.727   2.519 -1.6466 -0.0660 -0.7647
 1752SOL    HW215361   9.711   4.630   2.458  0.8123 -2.5121 -1.6525
 1753SOL     OW15362   9.373   8.511   0.577 -0.4448 -0.2838 -0.0008
 1753SOL    HW115363   9.427   8.496   0.660  1.0194 -1.1515 -1.0931
 1753SOL    HW215364   9.346   8.607   0.572  2.2079  0.4799 -0.1449
 1754SOL     OW15365   1.660   2.117   1.223 -0.2717 -0.2772  0.2550
 1754SOL    HW115366   1.687   2.205   1.262  0.6309 -0.5047  0.1574
 1754SOL    HW215367   1.721   2.094   1.148  0.2622 -1.5710  1.0719
 1755SOL     OW15368   0.710   6.101   1.062 -0.2244 -0.1819  0.7098
 1755SOL    HW115369   0.756   6.121   0.976 -1.3057  3.4563  0.8979
 1755SOL    HW215370   0.621   6.059   1.044 -0.2314  0.1122  0.0701
 1756SOL     OW15371  10.201   2.645   2.631  0.2858  0.0449 -0.5469
 1756SOL    HW115372  10.190   2.644   2.531  2.1919  1.0585 -0.7985
 1756SOL    HW215373  10.226   2.737   2.660  3.1932 -1.0188  0.4577
 1757SOL     OW15374   1.340   8.119   0.411  0.6663 -0.1363  0.1015
 1757SOL    HW115375   1.295   8.034   0.384  1.1574 -0.3347 -0.0979
 1757SOL    HW215376   1.401   8.149   0.338  0.1715  0.6129  0.0003
 1758SOL     OW15377   2.576   1.435   0.426 -0.0966 -0.1025 -0.3755
 1758SOL    HW115378   2.618   1.383   0.501 -0.6552 -0.0575 -0.0299
 1758SOL    HW215379   2.639   1.436   0.348  0.4744 -0.1815  0.0751
 1759SOL     OW15380   2.322   8.906   2.567 -0.2635 -0.3352 -0.2418
 1759SOL    HW115381   2.230   8.937   2.542  0.3622  1.6913 -0.1415
 1759SOL    HW215382   2.358   8.965   2.640  1.1431 -1.0752 -0.3235
 1760SOL     OW15383   0.975   1.670   0.422  0.3928 -0.9597  0.1388
 1760SOL    HW115384   0.929   1.699   0.338  1.5511 -2.0234 -0.8941
 1760SOL    HW215385   0.911   1.672   0.498 -0.4448  0.9119 -0.5778
 1761SOL     OW15386   2.941   0.800   1.772  0.1024 -0.4410  0.0840
 1761SOL    HW115387   2.911   0.705   1.780 -0.7517 -0.3003 -1.3478
 1761SOL    HW215388   2.891   0.845   1.699  1.4891  0.7332 -0.1714
 1762SOL     OW15389   2.257   4.622   2.414 -0.3225  0.2065 -0.1741
 1762SOL    HW115390   2.185   4.636   2.482 -0.0398 -0.5206  0.2841
 1762SOL    HW215391   2.340   4.590   2.459 -0.4602 -1.3344 -0.9930
 1763SOL     OW15392   1.567   0.538   0.831 -0.2495  0.3405  0.1296
 1763SOL    HW115393   1.576   0.463   0.765 -1.3037  0.0989  0.2619
 1763SOL    HW215394   1.564   0.625   0.782 -1.8271  0.1112 -0.2086
 1764SOL     OW15395  10.238   4.181   1.281  0.2180  0.2188 -0.4384
 1764SOL    HW115396  10.174   4.211   1.210 -0.7902 -1.1351 -0.1275
 1764SOL    HW215397  10.329   4.168   1.241  0.1509  1.5311 -1.0242
 1765SOL     OW15398   1.810   8.082   2.701 -0.2343  0.0972  0.0879
 1765SOL    HW115399   1.888   8.126   2.746 -0.7008 -0.3254  1.3281
 1765SOL    HW215400   1.751   8.152   2.661  0.6095  0.4397 -0.5623
 1766SOL     OW15401   4.185   9.457   0.129  0.1826 -0.1573  0.0515
 1766SOL    HW115402   4.153   9.551   0.119  0.4588  0.2165  2.4220
 1766SOL    HW215403   4.107   9.394   0.131 -0.0415  0.0919 -0.6805
 1767SOL     OW15404   2.703   0.466   2.162 -0.1995  0.1722 -0.3939
 1767SOL    HW115405   2.640   0.439   2.235  0.2560 -1.1542 -0.4669
 1767SOL    HW215406   2.723   0.386   2.105 -0.8882  1.2902 -2.2404
 1768SOL     OW15407   0.664   5.889   2.118  0.1648 -0.2262  0.2285
 1768SOL    HW115408   0.679   5.827   2.195 -0.7350 -0.5082  0.1865
 1768SOL    HW215409   0.575   5.869   2.076 -0.2077  1.1978  0.3115
 1769SOL     OW15410   4.527   4.083   1.364 -0.6858 -0.2698 -0.7581
 1769SOL    HW115411   4.450   4.019   1.368 -0.4388 -0.5307 -0.0754
 1769SOL    HW215412   4.613   4.032   1.367 -0.4856  0.1064  0.2017
 1770SOL     OW15413   1.574   1.725   2.551  0.2720  0.8048  0.4049
 1770SOL    HW115414   1.569   1.704   2.648 -0.4095 -1.8689 -0.1755
 1770SOL    HW215415   1.670   1.736   2.524  0.3861  3.4156  1.7045
 1771SOL     OW15416   9.720   1.478   1.961 -0.1993  0.3066 -0.7680
 1771SOL    HW115417   9.706   1.570   1.996  2.2573 -0.0081  1.2371
 1771SOL    HW215418   9.818   1.461   1.950 -0.6893 -1.4847 -2.8033
 1772SOL     OW15419   3.571   1.200   2.566 -0.1903  0.0185  0.1013
 1772SOL    HW115420   3.496   1.140   2.593 -1.9262  1.8915 -0.3728
 1772SOL    HW215421   3.560   1.288   2.612 -0.0258  1.3412 -2.3145
 1773SOL     OW15422   4.402   3.065   1.442  0.0450 -0.0098  0.4976
 1773SOL    HW115423   4.391   2.972   1.408  0.5555 -0.5598  1.7904
 1773SOL    HW215424   4.387   3.130   1.368 -1.4559 -1.0744 -0.1665
 1774SOL     OW15425   0.767   0.502   0.804 -0.0602  0.1582  0.4261
 1774SOL    HW115426   0.757   0.595   0.769 -1.4579  0.0697  0.5912
 1774SOL    HW215427   0.683   0.474   0.850  0.7270 -0.8074  1.2883
 1775SOL     OW15428   1.115   9.884   1.809  0.1970 -0.6064 -0.5437
 1775SOL    HW115429   1.167   9.801   1.790  1.0231 -0.1230 -0.4795
 1775SOL    HW215430   1.092   9.929   1.723  0.9313 -0.2066 -0.5382
 1776SOL     OW15431   8.938   6.280   0.858 -0.0646 -0.1305 -0.4661
 1776SOL    HW115432   8.954   6.184   0.879 -1.4966 -0.2065  0.3644
 1776SOL    HW215433   8.963   6.336   0.937 -0.8234  0.0213 -0.3289
 1777SOL     OW15434   1.958   2.683   0.254 -0.1004 -0.3044  0.2237
 1777SOL    HW115435   1.996   2.731   0.175 -0.6302 -0.6427 -0.2376
 1777SOL    HW215436   2.013   2.704   0.335 -0.3244  1.0737  0.0267
 1778SOL     OW15437   9.442   0.246   2.261 -0.2654  0.1702  0.1102
 1778SOL    HW115438   9.478   0.189   2.334 -0.3534 -0.1553 -0.0986
 1778SOL    HW215439   9.463   0.342   2.280  0.8916 -0.0318 -0.1168
 1779SOL     OW15440   3.007   9.823   2.417 -0.0908  0.4569  0.3792
 1779SOL    HW115441   2.948   9.751   2.454 -0.3471  0.9724  0.9742
 1779SOL    HW215442   2.956   9.878   2.351  0.6364 -1.0496 -1.4745
 1780SOL     OW15443   2.791   1.180   2.784  0.0950 -0.1558  0.3600
 1780SOL    HW115444   2.853   1.196   2.861  0.4631 -3.3020  0.7722
 1780SOL    HW215445   2.774   1.082   2.774 -1.1324  0.2953 -2.6547
 1781SOL     OW15446   2.042   8.632   1.751  0.1444  0.0269 -0.1974
 1781SOL    HW115447   2.111   8.607   1.683  0.2021 -0.1903 -0.0626
 1781SOL    HW215448   2.029   8.731   1.752  0.6323  0.0912 -0.0584
 1782SOL     OW15449   1.081   4.129   2.316 -0.2672 -0.2055  0.8224
 1782SOL    HW115450   1.167   4.131   2.367 -0.1750 -0.4829  0.6777
 1782SOL    HW215451   1.012   4.080   2.369 -0.9700  1.9148  1.9258
 1783SOL     OW15452   9.540   2.308   0.908  0.3323 -0.0764 -0.4065
 1783SOL    HW115453   9.629   2.293   0.953 -0.3740 -0.7351  0.7939
 1783SOL    HW215454   9.468   2.306   0.977 -0.5157  1.5958 -1.2260
 1784SOL     OW15455   0.614   4.491   1.081 -0.2206 -0.1410  0.1572
 1784SOL    HW115456   0.568   4.490   1.170  0.5777 -1.5504  0.5707
 1784SOL    HW215457   0.616   4.398   1.044 -0.7050  0.4706 -1.4259
 1785SOL     OW15458   1.556   0.434   1.809 -0.0873  0.4720 -0.0683
 1785SOL    HW115459   1.608   0.509   1.851 -1.1234 -0.0752  2.2708
 1785SOL    HW215460   1.486   0.402   1.873 -1.0464 -1.1028 -1.8523
 1786SOL     OW15461   4.468   0.357   2.301 -0.0902  0.2130  0.2387
 1786SOL    HW115462   4.438   0.422   2.231 -0.0442 -0.9687 -0.8977
 1786SOL    HW215463   4.454   0.397   2.391 -0.3814  1.6656 -0.4249
 1787SOL     OW15464   2.801   6.438   1.718  0.1795 -0.5923  0.3669
 1787SOL    HW115465   2.814   6.345   1.751 -0.2611 -0.7786  0.0249
 1787SOL    HW215466   2.715   6.443   1.667 -0.3756  0.2548  1.3669
 1788SOL     OW15467   3.236   5.587   2.180  0.1952 -0.2574  0.4270
 1788SOL    HW115468   3.187   5.642   2.113  0.9560 -0.5357 -0.3522
 1788SOL    HW215469   3.195   5.496   2.184  1.9477 -1.1867 -1.7634
 1789SOL     OW15470   8.514   7.239   2.409  0.1345 -0.0677 -0.2352
 1789SOL    HW115471   8.435   7.192   2.449  0.6982  0.4093  1.4704
 1789SOL    HW215472   8.509   7.233   2.309 -0.4589 -2.6450 -0.0877
 1790SOL     OW15473   4.277   4.482   1.134 -0.2426  0.1713  0.7084
 1790SOL    HW115474   4.371   4.503   1.160  0.1798 -0.5798 -0.1826
 1790SOL    HW215475   4.246   4.400   1.182 -0.1350 -0.0855  0.3451
 1791SOL     OW15476   1.205   2.248   2.193  0.4011  0.1286 -0.3754
 1791SOL    HW115477   1.121   2.194   2.183 -0.2683  1.2696 -1.0973
 1791SOL    HW215478   1.267   2.228   2.117  0.1219  0.4237 -0.6832
 1792SOL     OW15479   0.853   1.335   2.311 -0.1672  0.0536  0.0118
 1792SOL    HW115480   0.783   1.270   2.340  0.8322 -0.8349  0.4601
 1792SOL    HW215481   0.927   1.337   2.378 -0.2630  1.7938  0.1031
 1793SOL     OW15482   1.051   6.379   0.377  0.2996  0.1529  0.1158
 1793SOL    HW115483   1.101   6.376   0.290  0.8093  1.4536  0.3507
 1793SOL    HW215484   1.116   6.372   0.452 -0.0122  0.4924  0.4154
 1794SOL     OW15485   0.964   6.729   0.233 -0.2043 -0.5204  0.4343
 1794SOL    HW115486   0.894   6.683   0.288  0.2615 -0.9790  0.6501
 1794SOL    HW215487   1.021   6.785   0.294 -0.4712 -0.0362  0.2394
 1795SOL     OW15488   1.333   7.188   2.215 -0.3490 -0.0221  0.0897
 1795SOL    HW115489   1.304   7.249   2.288  0.3525 -0.0896  0.4231
 1795SOL    HW215490   1.288   7.099   2.227 -2.1786  0.7427 -0.9905
 1796SOL     OW15491   4.819   0.487   1.321 -0.0239  0.3384  0.6584
 1796SOL    HW115492   4.773   0.525   1.241  0.6248 -0.1814  0.0285
 1796SOL    HW215493   4.754   0.480   1.397 -1.3262 -1.5432 -0.5855
 1797SOL     OW15494   0.831   2.410   1.212 -0.0681  0.0700  0.2147
 1797SOL    HW115495   0.869   2.319   1.223  0.6678  0.2841 -0.5266
 1797SOL    HW215496   0.735   2.403   1.185 -0.0329 -0.4848  0.2312
 1798SOL     OW15497  10.327   8.844   1.829  0.5181  0.1092  0.2918
 1798SOL    HW115498  10.325   8.801   1.920  1.1617  0.3339  0.4188
 1798SOL    HW215499  10.243   8.822   1.780 -0.1056  0.4758  1.1764
 1799SOL     OW15500   4.570   2.612   2.830 -0.5726  0.3227 -0.0222
 1799SOL    HW115501   4.634   2.537   2.847 -0.2396  0.4176 -0.8281
 1799SOL    HW215502   4.617   2.699   2.846 -0.2717  0.4121 -1.3300
 1800SOL     OW15503   1.560   5.119   1.363 -0.5306 -0.5572 -0.2429
 1800SOL    HW115504   1.593   5.211   1.382  1.8267 -0.7467 -3.0450
 1800SOL    HW215505   1.618   5.076   1.294 -2.0753 -3.8626  0.3944
 1801SOL     OW15506   1.454   4.460   0.142  0.4557 -0.2408 -0.3406
 1801SOL    HW115507   1.386   4.425   0.078  0.1652 -0.1721 -0.0722
 1801SOL    HW215508   1.453   4.560   0.139 -1.8993 -0.1375  2.1723
 1802SOL     OW15509   2.120   3.585   0.875  0.0560 -0.0750 -0.1455
 1802SOL    HW115510   2.149   3.536   0.956 -1.1115 -0.8086 -0.1581
 1802SOL    HW215511   2.152   3.537   0.793  0.5171  0.2109 -0.1354
 1803SOL     OW15512   2.860   9.535   2.514 -0.1797  0.3532  0.3328
 1803SOL    HW115513   2.923   9.484   2.455 -1.1897 -0.1963 -0.2837
 1803SOL    HW215514   2.812   9.470   2.574 -0.7691  0.6836  0.2169
 1804SOL     OW15515   1.278   8.936   0.678  0.1588 -0.2402 -0.3640
 1804SOL    HW115516   1.260   9.021   0.628  0.0315  0.5379  0.9994
 1804SOL    HW215517   1.198   8.913   0.733  0.4558 -0.8886 -0.2106
 1805SOL     OW15518   4.400   1.056   2.280  0.1859  0.6245 -0.6953
 1805SOL    HW115519   4.395   1.126   2.351  1.3040 -0.3860  0.3909
 1805SOL    HW215520   4.410   1.100   2.190 -0.4481  1.8775 -0.1581
 1806SOL     OW15521   2.471   1.685   0.391  0.5633  0.7425 -0.1294
 1806SOL    HW115522   2.505   1.593   0.373 -0.3939  0.7065 -1.8900
 1806SOL    HW215523   2.449   1.730   0.305 -1.0218  1.8374  0.8092
 1807SOL     OW15524  10.304   1.414   0.557  0.5562  0.5569 -0.1507
 1807SOL    HW115525  10.283   1.354   0.634  0.5948  1.4806  0.5849
 1807SOL    HW215526  10.335   1.503   0.591 -0.3967  1.3180 -1.2185
 1808SOL     OW15527   3.404   6.043   0.746 -0.0547  0.4772  0.1536
 1808SOL    HW115528   3.321   6.041   0.802  0.8266  0.5794  1.4820
 1808SOL    HW215529   3.472   6.101   0.789  0.9106 -0.0332 -0.6621
 1809SOL     OW15530   9.194   3.737   2.765 -0.4919 -0.3476  0.4049
 1809SOL    HW115531   9.139   3.820   2.759 -0.5548 -0.3433  0.9440
 1809SOL    HW215532   9.236   3.717   2.677  1.1148  1.3379  0.7778
 1810SOL     OW15533   4.222   0.471   0.107  0.3065 -0.0697 -0.3846
 1810SOL    HW115534   4.140   0.497   0.158  0.5122  2.0757 -1.0860
 1810SOL    HW215535   4.267   0.395   0.153 -0.7297  0.3647  1.3917
 1811SOL     OW15536   2.670   8.661   0.853  0.2008 -0.3590  0.2450
 1811SOL    HW115537   2.676   8.561   0.843  1.8334 -0.3692  1.0889
 1811SOL    HW215538   2.756   8.702   0.824  0.3551  0.6102  2.0026
 1812SOL     OW15539   4.387   2.832   1.316 -0.5247  0.3322  0.3271
 1812SOL    HW115540   4.452   2.812   1.243 -0.9039 -0.8557  0.2926
 1812SOL    HW215541   4.349   2.746   1.350 -0.5631  0.9001  1.7296
 1813SOL     OW15542  10.039   3.234   2.816  0.8701  0.3347  0.4868
 1813SOL    HW115543  10.117   3.294   2.833  1.5163 -0.5025  0.5571
 1813SOL    HW215544  10.023   3.176   2.896 -1.7772  2.6015  1.6694
 1814SOL     OW15545   4.394   9.456   0.845  0.1606 -0.2773  0.1679
 1814SOL    HW115546   4.493   9.448   0.844  0.1827 -0.9734  2.8993
 1814SOL    HW215547   4.353   9.365   0.846 -0.5387  0.0031 -0.9731
 1815SOL     OW15548   2.065   3.784   2.507  0.0556 -0.4158 -0.2820
 1815SOL    HW115549   1.966   3.794   2.518  0.0366 -1.0015  0.0833
 1815SOL    HW215550   2.109   3.873   2.522 -0.3228 -0.3763  0.6295
 1816SOL     OW15551   3.562   0.572   0.524  0.0982 -0.1007 -0.1001
 1816SOL    HW115552   3.520   0.630   0.454  1.4176 -0.7204 -1.4381
 1816SOL    HW215553   3.641   0.618   0.564  0.4084 -0.4699 -0.2835
 1817SOL     OW15554   3.794   3.692   2.197  0.0819 -0.3679 -0.2053
 1817SOL    HW115555   3.862   3.763   2.210 -1.1263  0.5022  1.6590
 1817SOL    HW215556   3.708   3.732   2.167  0.3273 -1.4451 -2.4603
 1818SOL     OW15557   1.566   9.929   1.690  0.3132  0.0644  0.1562
 1818SOL    HW115558   1.637   9.860   1.674  1.6654  1.5371 -0.2939
 1818SOL    HW215559   1.535   9.965   1.602 -1.0018 -0.5657  0.3532
 1819SOL     OW15560   4.137   0.548   2.626  0.1439  0.2233  0.2930
 1819SOL    HW115561   4.043   0.577   2.647 -0.1400 -0.3817 -0.1245
 1819SOL    HW215562   4.184   0.522   2.710  0.2193  1.3490  0.6111
 1820SOL     OW15563   3.554   6.188   0.904 -0.7718  0.1549  0.0686
 1820SOL    HW115564   3.506   6.203   0.990 -0.3029  0.8013  0.2241
 1820SOL    HW215565   3.597   6.274   0.875  2.3182 -0.9628  1.1602
 1821SOL     OW15566  10.006   4.817   1.040  0.1896  0.0990  0.2405
 1821SOL    HW115567  10.043   4.769   0.961  0.1509 -1.2799  1.0511
 1821SOL    HW215568   9.906   4.813   1.038  0.1915 -0.0416  0.4276
 1822SOL     OW15569   9.517   0.948   0.919 -0.1518  0.7979  0.0437
 1822SOL    HW115570   9.613   0.921   0.908  0.3092  2.0459  0.9571
 1822SOL    HW215571   9.478   0.902   0.999 -0.4758 -0.1172 -0.6325
 1823SOL     OW15572   0.890   0.739   1.562 -0.0887  0.2918 -0.1123
 1823SOL    HW115573   0.845   0.733   1.651  1.6106  0.4833  0.7828
 1823SOL    HW215574   0.943   0.656   1.546 -1.2998 -0.2411 -1.4786
 1824SOL     OW15575   2.637   8.555   1.580  0.0395  0.2068  0.4915
 1824SOL    HW115576   2.691   8.637   1.599 -2.9307  2.5347 -0.7706
 1824SOL    HW215577   2.662   8.519   1.490  0.3242  0.5795  0.4211
 1825SOL     OW15578   2.517   8.390   2.807  0.1921 -0.0153  0.7691
 1825SOL    HW115579   2.561   8.308   2.842  0.4058 -0.0264  0.4782
 1825SOL    HW215580   2.572   8.428   2.732 -0.8640 -0.6568 -0.3369
 1826SOL     OW15581   4.218   5.402   0.354 -0.8413  0.6517 -0.6569
 1826SOL    HW115582   4.237   5.310   0.320 -2.2041  0.5095 -1.0741
 1826SOL    HW215583   4.281   5.423   0.429  0.1308 -0.2360 -1.2088
 1827SOL     OW15584  10.327   7.349   0.688 -0.2784 -0.5033 -0.1540
 1827SOL    HW115585  10.306   7.319   0.595 -0.2789 -0.5300 -0.1454
 1827SOL    HW215586  10.312   7.447   0.697 -0.1549 -0.4787 -0.2175
 1828SOL     OW15587   4.131   1.284   2.176  0.1371 -0.5227  0.2602
 1828SOL    HW115588   4.188   1.253   2.252 -1.7916 -1.1085  1.5188
 1828SOL    HW215589   4.051   1.225   2.169 -1.6888  1.8838  0.2663
 1829SOL     OW15590   3.372   6.862   1.250  0.4957  0.2291  0.1270
 1829SOL    HW115591   3.469   6.856   1.274  0.5378 -0.2158 -0.1363
 1829SOL    HW215592   3.321   6.905   1.324  1.0514  1.3872 -0.1547
 1830SOL     OW15593   3.875   8.874   1.142 -0.0839 -0.3630 -0.1201
 1830SOL    HW115594   3.828   8.788   1.121  0.2410 -0.7037  0.4975
 1830SOL    HW215595   3.845   8.906   1.232 -2.2094  1.5829 -1.4856
 1831SOL     OW15596   4.823   9.302   0.627  0.0984 -0.0983  0.1973
 1831SOL    HW115597   4.902   9.288   0.687  0.9764 -0.6509 -1.0773
 1831SOL    HW215598   4.795   9.215   0.587  0.4736  0.4994 -1.3866
 1832SOL     OW15599   3.844   3.376   0.269  0.2053  0.0780 -0.5074
 1832SOL    HW115600   3.921   3.342   0.215  0.9461  0.9958 -0.0554
 1832SOL    HW215601   3.874   3.388   0.364 -1.2562 -2.1606  0.2841
 1833SOL     OW15602   4.269   8.890   2.093  0.3788  0.5656 -0.3211
 1833SOL    HW115603   4.347   8.850   2.046  2.0194  2.3623  0.8041
 1833SOL    HW215604   4.287   8.986   2.113 -2.0826  0.9981  0.0705
 1834SOL     OW15605   9.429   5.761   0.721  0.0995 -0.1373  0.0599
 1834SOL    HW115606   9.360   5.760   0.648 -0.4382 -1.9643  0.5782
 1834SOL    HW215607   9.483   5.845   0.713 -0.7115  0.2579 -1.7249
 1835SOL     OW15608  10.185   4.874   2.660 -0.0423 -0.0874  0.6365
 1835SOL    HW115609  10.260   4.836   2.606 -0.0197 -0.5657  1.0065
 1835SOL    HW215610  10.172   4.970   2.636  0.8961  0.0850  0.8021
 1836SOL     OW15611   1.692   5.463   1.249  0.6273  0.0533  0.3810
 1836SOL    HW115612   1.663   5.470   1.345  1.0987  1.2803  0.4521
 1836SOL    HW215613   1.620   5.498   1.190 -0.0460 -1.5877  0.2154
 1837SOL     OW15614   1.063   8.588   0.143  0.2225 -0.0394 -0.4440
 1837SOL    HW115615   0.995   8.517   0.128 -0.0977  0.3973 -1.0718
 1837SOL    HW215616   1.032   8.674   0.102 -0.1413  0.8894  1.6682
 1838SOL     OW15617   9.720   0.429   1.406  0.0754 -0.0184  0.0525
 1838SOL    HW115618   9.758   0.411   1.315  0.4362  0.8854  0.0182
 1838SOL    HW215619   9.762   0.368   1.472 -1.6082 -2.0488 -0.6906
 1839SOL     OW15620   1.353   2.883   1.348 -0.5196  0.0740 -0.0193
 1839SOL    HW115621   1.305   2.910   1.265 -0.5542  0.7515  0.2179
 1839SOL    HW215622   1.373   2.785   1.345 -1.2558 -0.0674 -0.4559
 1840SOL     OW15623   1.826   7.813   2.752  0.0255  0.4711 -0.2546
 1840SOL    HW115624   1.908   7.770   2.790  0.1005  0.1863 -0.7274
 1840SOL    HW215625   1.848   7.908   2.726  0.2797  0.3193 -0.6084
 1841SOL     OW15626   0.844   6.501   1.831  0.4747 -0.4327 -0.2107
 1841SOL    HW115627   0.749   6.506   1.864  0.3372 -0.2435 -0.6263
 1841SOL    HW215628   0.863   6.409   1.797  1.5486 -1.5125  3.1386
 1842SOL     OW15629   2.201   5.416   1.180 -0.3405  0.0670  0.2191
 1842SOL    HW115630   2.110   5.445   1.208 -1.3025 -2.6970  0.0854
 1842SOL    HW215631   2.201   5.395   1.082  0.5959  0.5211  0.1057
 1843SOL     OW15632   1.929   6.887   1.516  0.5037 -0.1737  0.3809
 1843SOL    HW115633   2.026   6.909   1.526  0.4942  0.1229 -0.1798
 1843SOL    HW215634   1.874   6.962   1.554  0.4656  1.0088 -1.9353
 1844SOL     OW15635   9.594   9.747   0.589 -0.0939  0.1778 -0.1447
 1844SOL    HW115636   9.679   9.799   0.602  0.2260 -1.1564  3.6453
 1844SOL    HW215637   9.611   9.671   0.525  1.6648 -0.2751  0.8330
 1845SOL     OW15638   9.720   0.159   1.954 -0.4929  0.3916  0.5712
 1845SOL    HW115639   9.754   0.211   1.876 -0.2786 -0.5799  0.0050
 1845SOL    HW215640   9.772   0.183   2.036 -1.3791  2.1452  0.6203
 1846SOL     OW15641   9.685   1.662   0.186  0.3209  0.2396 -0.4944
 1846SOL    HW115642   9.747   1.662   0.264 -0.0183  2.2110 -0.2044
 1846SOL    HW215643   9.737   1.676   0.102  0.3041  1.9130 -0.2491
 1847SOL     OW15644   8.907   3.914   0.866  0.0049 -0.4250  0.2596
 1847SOL    HW115645   8.992   3.880   0.906  0.8529 -0.6829 -1.7015
 1847SOL    HW215646   8.831   3.856   0.895  0.6399 -0.7843  1.2219
 1848SOL     OW15647   3.203   1.531   1.719 -0.8384 -0.4646 -0.1289
 1848SOL    HW115648   3.215   1.434   1.700  0.4060 -0.3274 -0.0951
 1848SOL    HW215649   3.106   1.554   1.716 -1.1083 -1.6261 -0.5288
 1849SOL     OW15650   8.969   6.475   1.141 -0.7584 -0.2344  0.0501
 1849SOL    HW115651   8.976   6.527   1.226  0.3803 -1.2491  0.6080
 1849SOL    HW215652   9.027   6.517   1.071  2.1220 -2.0873  1.2309
 1850SOL     OW15653   4.373   2.549   0.543  0.0900 -0.0196  0.9056
 1850SOL    HW115654   4.336   2.474   0.488  0.3774 -0.4586  1.3049
 1850SOL    HW215655   4.307   2.624   0.547  0.1987  0.1596 -0.3180
 1851SOL     OW15656   1.118   8.301   0.254 -0.4637  0.5418 -0.1807
 1851SOL    HW115657   1.064   8.313   0.171 -0.0251  2.7419 -0.1766
 1851SOL    HW215658   1.182   8.225   0.241 -1.7443 -0.4084 -1.1144
 1852SOL     OW15659   4.535   2.464   2.567 -0.1207 -0.2503 -0.4448
 1852SOL    HW115660   4.448   2.503   2.538  0.0271 -0.6614 -1.4829
 1852SOL    HW215661   4.564   2.506   2.653 -0.8075  0.6669 -0.6525
 1853SOL     OW15662  10.330   4.611   0.484  0.1437  0.0949 -0.5966
 1853SOL    HW115663  10.370   4.592   0.574  1.8278  0.1937 -1.3026
 1853SOL    HW215664  10.397   4.589   0.413 -1.6222 -1.1806 -1.8971
 1854SOL     OW15665   1.125   5.178   0.847 -0.1728 -0.5974  0.2116
 1854SOL    HW115666   1.126   5.112   0.772 -1.1724 -0.4439  0.0566
 1854SOL    HW215667   1.172   5.261   0.819  0.1962 -0.8558  0.0539
 1855SOL     OW15668  10.044   8.973   1.365 -0.3205  0.8337 -0.1586
 1855SOL    HW115669  10.058   8.966   1.266 -1.0593 -0.4210 -0.1968
 1855SOL    HW215670  10.122   9.019   1.407 -0.9034  3.1987 -1.5626
 1856SOL     OW15671   2.908   1.950   1.834 -0.2249  0.0484 -0.3947
 1856SOL    HW115672   2.953   1.941   1.923  0.2508 -0.1407 -0.6519
 1856SOL    HW215673   2.832   2.015   1.841 -0.8531 -0.7577  0.4099
 1857SOL     OW15674   0.806   0.437   2.713 -0.1615 -0.0358 -0.0838
 1857SOL    HW115675   0.752   0.497   2.772  1.7410 -0.7520  2.5044
 1857SOL    HW215676   0.828   0.353   2.763  1.5004 -0.6882 -1.8351
 1858SOL     OW15677   9.839   8.944   0.753 -0.3201 -0.0093 -0.3678
 1858SOL    HW115678   9.889   8.995   0.823  0.1690  0.1769 -0.8424
 1858SOL    HW215679   9.818   9.005   0.676  0.6678 -0.6051 -1.1405
 1859SOL     OW15680   4.395   4.280   0.916  0.0484  0.0255  0.2808
 1859SOL    HW115681   4.425   4.272   0.821  0.8780 -0.3543  0.5726
 1859SOL    HW215682   4.298   4.306   0.918  0.0740  0.2124 -0.6642
 1860SOL     OW15683   9.275   9.195   0.846 -0.1902  0.0589  0.2006
 1860SOL    HW115684   9.270   9.293   0.864  0.7952  0.3726 -1.0932
 1860SOL    HW215685   9.285   9.180   0.748  0.3220 -1.3024  0.4463
 1861SOL     OW15686   9.548   3.253   1.055  0.1937 -0.3917 -0.1478
 1861SOL    HW115687   9.578   3.239   0.961  0.4415  0.4333 -0.1935
 1861SOL    HW215688   9.534   3.351   1.072  0.9931 -0.4515  0.9178
 1862SOL     OW15689   2.650   2.561   1.845  0.4169 -0.7350 -0.6916
 1862SOL    HW115690   2.580   2.611   1.794  1.4655 -0.4977 -1.9448
 1862SOL    HW215691   2.740   2.591   1.815  1.0850  0.1706  2.0978
 1863SOL     OW15692   3.546   4.280   0.833 -0.1034  0.0059 -0.1774
 1863SOL    HW115693   3.546   4.377   0.808  0.2108  0.6469  2.1044
 1863SOL    HW215694   3.511   4.225   0.757 -1.5615  2.0432 -1.0304
 1864SOL     OW15695   2.231   2.720   2.797 -0.4481 -0.0159  0.3873
 1864SOL    HW115696   2.290   2.702   2.875 -0.5483 -0.6064  0.3235
 1864SOL    HW215697   2.181   2.806   2.812 -0.7790 -0.3434  1.1490
 1865SOL     OW15698   9.263   6.533   0.095  0.3002  0.3364  0.2384
 1865SOL    HW115699   9.255   6.488   0.006 -1.2199 -0.4733  0.7665
 1865SOL    HW215700   9.299   6.625   0.083 -0.1504  0.3318 -1.2425
 1866SOL     OW15701   9.375   2.517   0.787  0.0919 -0.0962  0.3947
 1866SOL    HW115702   9.411   2.432   0.826 -1.6042 -0.6471  0.7806
 1866SOL    HW215703   9.346   2.577   0.861 -0.4420  0.0538  0.0600
 1867SOL     OW15704   1.114   6.985   0.711  0.3090  0.0424 -0.0409
 1867SOL    HW115705   1.190   7.010   0.652  1.5905 -0.6251  1.3031
 1867SOL    HW215706   1.106   7.051   0.786  0.5940 -0.8016  0.7359
 1868SOL     OW15707   1.020   2.077   2.799 -0.2688 -0.1995 -0.1194
 1868SOL    HW115708   1.058   1.997   2.845  0.1799 -0.6652 -1.3062
 1868SOL    HW215709   1.035   2.158   2.856  0.9548 -0.6552  0.2095
 1869SOL     OW15710   0.372   8.072   0.215 -0.0516 -0.5813  0.1664
 1869SOL    HW115711   0.437   8.025   0.275 -0.7145 -1.4695  0.1902
 1869SOL    HW215712   0.303   8.118   0.271 -1.5979 -2.7295  0.0799
 1870SOL     OW15713   0.573   6.484   0.477 -0.1579 -0.5388 -0.0755
 1870SOL    HW115714   0.502   6.513   0.541 -0.0486  0.1872 -0.2682
 1870SOL    HW215715   0.600   6.390   0.497 -0.3803 -0.4407  0.7163
 1871SOL     OW15716   2.890   3.968   1.927  0.3541  0.3477  0.1222
 1871SOL    HW115717   2.931   3.964   2.018  0.5620 -0.9517 -0.0164
 1871SOL    HW215718   2.961   3.954   1.858  0.0403  0.3588 -0.2028
 1872SOL     OW15719   3.286   8.767   1.428 -0.1046  0.1605  0.5694
 1872SOL    HW115720   3.238   8.705   1.366  0.0470  0.5718  0.0375
 1872SOL    HW215721   3.302   8.854   1.382  0.2441  0.3772  1.0993
 1873SOL     OW15722   1.840   5.006   1.700  0.5668 -0.7172  0.7154
 1873SOL    HW115723   1.787   4.957   1.631 -1.1204  1.4126  0.4435
 1873SOL    HW215724   1.914   5.056   1.656 -0.8557  1.1060  0.3026
 1874SOL     OW15725   4.001   9.905   1.809  0.3648  0.4969 -0.3002
 1874SOL    HW115726   4.066   9.875   1.878  0.1211  1.2867  0.2765
 1874SOL    HW215727   4.015  10.002   1.789 -0.9736  0.8090  0.2103
 1875SOL     OW15728   0.342   6.299   2.657 -0.1859  0.3330  0.0452
 1875SOL    HW115729   0.359   6.384   2.607 -0.5094  0.2640 -0.1857
 1875SOL    HW215730   0.320   6.226   2.592 -0.1515  0.1328  0.2594
 1876SOL     OW15731   9.506   5.560   2.809 -0.2541 -0.1168 -0.1528
 1876SOL    HW115732   9.486   5.654   2.780 -0.1090  0.0090  0.1486
 1876SOL    HW215733   9.449   5.497   2.757 -0.2732  0.1302 -0.4372
 1877SOL     OW15734   1.638   5.366   2.633  0.3405 -0.2376  0.3835
 1877SOL    HW115735   1.714   5.370   2.697  1.3578 -0.5669 -0.7886
 1877SOL    HW215736   1.641   5.445   2.572 -1.0777  0.4948  1.2231
 1878SOL     OW15737   9.669   3.409   2.698  0.5560  0.3398 -0.2299
 1878SOL    HW115738   9.635   3.437   2.608  2.1730  0.2204 -0.8936
 1878SOL    HW215739   9.710   3.318   2.692  1.3000  0.6179  0.4665
 1879SOL     OW15740   1.432   8.927   1.802  0.0900  0.4511 -0.2901
 1879SOL    HW115741   1.450   8.862   1.729 -1.8287  0.1536 -0.5242
 1879SOL    HW215742   1.506   8.923   1.869  1.5546  0.2992 -1.8979
 1880SOL     OW15743   2.562   6.689   1.266 -0.4718  0.1173 -0.3357
 1880SOL    HW115744   2.555   6.784   1.295 -1.2220 -0.1758  0.4721
 1880SOL    HW215745   2.470   6.651   1.252 -0.2533 -0.9575  0.9561
 1881SOL     OW15746   0.766   2.409   0.779  0.3057 -0.2828  0.4504
 1881SOL    HW115747   0.717   2.330   0.743  1.8866 -1.7285  1.4376
 1881SOL    HW215748   0.846   2.428   0.721  1.0541 -0.6456  1.3610
 1882SOL     OW15749   2.649   8.039   1.032  0.2023  0.3187  0.6140
 1882SOL    HW115750   2.579   8.058   1.100 -1.1047  1.4491 -1.0014
 1882SOL    HW215751   2.608   8.041   0.941  1.8411 -1.4993 -0.1979
 1883SOL     OW15752   4.640   8.875   0.363  0.8353  0.5741  0.2599
 1883SOL    HW115753   4.541   8.883   0.374  0.6620 -0.3045 -0.6313
 1883SOL    HW215754   4.679   8.824   0.439  0.3044 -1.0639 -0.5569
 1884SOL     OW15755   1.235   3.141   0.366  0.5180 -0.2045 -0.3206
 1884SOL    HW115756   1.234   3.241   0.367 -0.5835 -0.2054  0.0002
 1884SOL    HW215757   1.153   3.107   0.412  0.4062 -1.2493 -1.2826
 1885SOL     OW15758   2.461   4.831   0.447 -0.0693 -0.8702  0.7416
 1885SOL    HW115759   2.548   4.875   0.429 -0.2339 -0.1405  1.6812
 1885SOL    HW215760   2.433   4.850   0.541 -1.2191 -1.1240  0.4580
 1886SOL     OW15761   9.687   7.084   1.199  0.0762  0.2859  0.2939
 1886SOL    HW115762   9.785   7.080   1.180  0.0734  1.4955  0.0214
 1886SOL    HW215763   9.670   7.143   1.278 -0.1955 -2.2239  2.1718
 1887SOL     OW15764   3.975   3.859   1.265  0.1581  0.2100  0.3741
 1887SOL    HW115765   4.020   3.809   1.191 -2.3313 -0.6615 -0.6164
 1887SOL    HW215766   3.892   3.902   1.230  0.5879  2.4377  1.9615
 1888SOL     OW15767   2.031   7.234   1.007 -0.1109  0.7713 -0.1874
 1888SOL    HW115768   2.072   7.222   0.916 -1.4903 -0.5292 -0.6646
 1888SOL    HW215769   1.947   7.180   1.013  0.0383  0.7276  1.9193
 1889SOL     OW15770   3.941   3.099   2.429 -0.0883 -0.1582 -0.4337
 1889SOL    HW115771   4.027   3.123   2.386  0.5741 -1.5141  0.0914
 1889SOL    HW215772   3.945   3.004   2.460  0.0748  1.1916  4.0662
 1890SOL     OW15773   1.617   3.766   0.291  0.6465  1.0235  0.6274
 1890SOL    HW115774   1.621   3.864   0.311  2.6939  1.1326 -0.1742
 1890SOL    HW215775   1.634   3.714   0.375  0.3574  1.3756  0.9034
 1891SOL     OW15776   3.939   5.510   2.380  0.3276  0.0964  0.3085
 1891SOL    HW115777   3.958   5.607   2.366 -2.2131  0.2363 -2.5514
 1891SOL    HW215778   3.878   5.499   2.459 -0.2724  0.9147 -0.0387
 1892SOL     OW15779   4.523   4.912   0.343 -0.6530  0.6198 -1.0931
 1892SOL    HW115780   4.424   4.915   0.356 -0.4559 -2.2026  1.5328
 1892SOL    HW215781   4.568   4.956   0.421  0.2168 -0.7439 -0.8183
 1893SOL     OW15782   2.094   2.674   1.306  0.0399 -0.3669 -0.1914
 1893SOL    HW115783   2.188   2.701   1.324 -0.5676  1.5447  0.2574
 1893SOL    HW215784   2.078   2.582   1.340  0.8837  0.4970  2.6462
 1894SOL     OW15785   0.599   1.696   2.037  0.4538 -0.1403  0.3980
 1894SOL    HW115786   0.622   1.674   1.942  1.1305  1.7744  0.0858
 1894SOL    HW215787   0.609   1.615   2.094 -1.6011 -1.7457 -1.4394
 1895SOL     OW15788   3.135   7.919   1.035  0.0279 -0.6374 -0.3268
 1895SOL    HW115789   3.099   7.844   0.980  0.4665 -1.8992  1.0749
 1895SOL    HW215790   3.225   7.893   1.070  1.0515  1.3274 -1.4369
 1896SOL     OW15791   4.224   9.817   2.004  0.1774 -0.3775  0.2686
 1896SOL    HW115792   4.256   9.904   2.043  0.8037 -0.7585  0.6304
 1896SOL    HW215793   4.153   9.778   2.062 -1.1083  0.5762 -0.6477
 1897SOL     OW15794   4.163   0.513   0.665  0.3390 -0.4341 -0.7176
 1897SOL    HW115795   4.137   0.430   0.714 -1.2208  1.2460  1.4093
 1897SOL    HW215796   4.262   0.526   0.670  0.4396 -1.4740  0.0547
 1898SOL     OW15797   0.921   0.577   0.266  0.1460 -0.0759 -0.6436
 1898SOL    HW115798   0.830   0.606   0.298 -0.5936  0.7244 -3.3283
 1898SOL    HW215799   0.924   0.478   0.258  0.4405 -0.3145  2.0992
 1899SOL     OW15800   2.573   5.067   0.767 -0.4745  0.2707 -0.6965
 1899SOL    HW115801   2.664   5.087   0.731  0.4102 -0.6268  1.0001
 1899SOL    HW215802   2.547   4.974   0.743  0.0154 -0.2482  0.7450
 1900SOL     OW15803   4.343   3.971   0.725  0.2541 -0.1841 -0.2547
 1900SOL    HW115804   4.247   3.995   0.706  0.7900  2.1416 -0.2057
 1900SOL    HW215805   4.354   3.872   0.720 -1.7022 -0.3361 -2.4285
 1901SOL     OW15806  10.171   2.109   1.217  0.0089  0.1552  0.1883
 1901SOL    HW115807  10.263   2.129   1.183 -0.9948 -0.6274 -3.2068
 1901SOL    HW215808  10.108   2.181   1.187 -0.6192  0.3618  1.9505
 1902SOL     OW15809   9.215   7.281   1.140 -0.1445 -0.0113  0.5332
 1902SOL    HW115810   9.314   7.266   1.135 -0.0633  0.6709  0.0389
 1902SOL    HW215811   9.186   7.341   1.066 -1.3756 -2.4901 -1.0732
 1903SOL     OW15812  10.049   0.792   1.894 -0.2135  0.2163  0.4076
 1903SOL    HW115813  10.134   0.788   1.841 -0.7426  1.0452 -0.5073
 1903SOL    HW215814   9.979   0.838   1.841 -1.4455 -1.0711  0.8940
 1904SOL     OW15815   0.693   7.280   1.395  0.8746 -0.0687 -0.0351
 1904SOL    HW115816   0.619   7.347   1.404  0.9832  0.1248 -0.5522
 1904SOL    HW215817   0.656   7.194   1.362  0.9777  0.2325 -0.9499
 1905SOL     OW15818   0.499   4.164   1.599  0.6032 -0.0151  0.2064
 1905SOL    HW115819   0.560   4.167   1.519  2.7864  2.0882  1.8660
 1905SOL    HW215820   0.448   4.250   1.604  0.8657  0.0799  1.3344
 1906SOL     OW15821   3.754   2.383   2.522 -0.1774 -0.2048  0.5480
 1906SOL    HW115822   3.734   2.474   2.486 -0.0434 -1.7630 -3.6831
 1906SOL    HW215823   3.845   2.354   2.494  0.0970 -1.3802  2.5194
 1907SOL     OW15824   0.757   9.503   2.584 -0.4590  0.1359 -0.6156
 1907SOL    HW115825   0.785   9.413   2.616 -0.6087  0.3276  0.0839
 1907SOL    HW215826   0.676   9.533   2.636 -0.9570  0.2807 -1.4758
 1908SOL     OW15827   9.278   2.804   0.776 -0.2583 -0.3960  0.2339
 1908SOL    HW115828   9.284   2.745   0.695  0.8240  1.7899 -1.3418
 1908SOL    HW215829   9.200   2.866   0.766 -0.0015  0.0108  0.7674
 1909SOL     OW15830   0.583   8.781   1.456 -0.2078  0.0234 -0.2090
 1909SOL    HW115831   0.530   8.721   1.396 -0.4720  1.8514 -1.8697
 1909SOL    HW215832   0.674   8.743   1.469 -0.6406 -1.1592 -0.5558
 1910SOL     OW15833   4.337   5.176   0.279 -0.1342 -0.0178 -0.3842
 1910SOL    HW115834   4.396   5.110   0.327  1.6422  1.0217 -1.1131
 1910SOL    HW215835   4.306   5.135   0.193  0.8665  0.0367 -0.7799
 1911SOL     OW15836   2.070   7.848   1.880  0.5230 -0.0016 -0.5325
 1911SOL    HW115837   2.067   7.752   1.855  1.0967  0.1839 -1.3407
 1911SOL    HW215838   2.161   7.885   1.862  0.0447  0.9276 -1.1439
 1912SOL     OW15839   3.847   4.787   1.819 -0.0038 -0.0278 -0.1726
 1912SOL    HW115840   3.883   4.776   1.727  0.1150 -1.0611 -0.0175
 1912SOL    HW215841   3.800   4.703   1.846 -0.3054  0.3814  0.5900
 1913SOL     OW15842   2.524   8.770   2.170  0.0728 -0.1460 -0.6126
 1913SOL    HW115843   2.578   8.772   2.085  0.1792 -0.1618 -0.5460
 1913SOL    HW215844   2.578   8.811   2.244 -0.1331  0.1297 -0.6165
 1914SOL     OW15845   2.733   5.566   0.336 -0.0910  0.4582 -0.0528
 1914SOL    HW115846   2.749   5.495   0.403 -2.3047 -0.4448 -0.4321
 1914SOL    HW215847   2.718   5.654   0.382 -1.1304 -0.0651  0.6169
 1915SOL     OW15848   1.907   0.427   0.678  0.4018 -0.2520 -0.3361
 1915SOL    HW115849   1.946   0.411   0.768  0.0152 -0.7667 -0.2578
 1915SOL    HW215850   1.922   0.522   0.651  0.0361  0.0407  0.5050
 1916SOL     OW15851   1.874   8.367   1.762 -0.2638  0.1893 -0.3968
 1916SOL    HW115852   1.837   8.360   1.854  0.4966  0.5061 -0.0622
 1916SOL    HW215853   1.971   8.342   1.763 -0.1468  0.6016 -1.0320
 1917SOL     OW15854   3.165   0.714   2.409  0.0946 -0.4805 -0.5435
 1917SOL    HW115855   3.133   0.713   2.314  1.6740 -0.7617 -1.0870
 1917SOL    HW215856   3.093   0.752   2.467 -1.5944 -1.9822 -1.5785
 1918SOL     OW15857   1.117   2.014   1.726 -0.5682 -0.1522 -0.6934
 1918SOL    HW115858   1.109   2.098   1.780 -1.2705 -0.3018 -0.5619
 1918SOL    HW215859   1.210   2.006   1.690 -0.1122 -0.0261  0.4557
 1919SOL     OW15860   3.142   2.904   2.260 -0.1143  0.5329 -0.0537
 1919SOL    HW115861   3.236   2.910   2.226 -0.2917 -0.9785 -0.8882
 1919SOL    HW215862   3.131   2.819   2.311 -1.1211  0.5124 -0.2910
 1920SOL     OW15863   3.746   4.070   1.393 -0.4758  1.1352 -0.5985
 1920SOL    HW115864   3.716   4.074   1.488  0.1562 -0.3520 -0.3198
 1920SOL    HW215865   3.846   4.077   1.390 -0.3116 -1.0627 -0.9648
 1921SOL     OW15866   1.791   2.991   1.928  0.0208 -0.4906 -0.2014
 1921SOL    HW115867   1.743   2.927   1.989  0.0535  0.1515  0.5081
 1921SOL    HW215868   1.800   2.950   1.837 -1.2726 -0.9032 -0.1612
 1922SOL     OW15869   1.490   0.322   1.347 -0.7263 -0.2304  0.0500
 1922SOL    HW115870   1.438   0.261   1.408  0.9457 -0.8191  0.9465
 1922SOL    HW215871   1.587   0.316   1.371 -0.4331  2.0561 -0.5254
 1923SOL     OW15872   1.442   2.526   2.685  0.0263 -0.0748  0.6372
 1923SOL    HW115873   1.441   2.428   2.702  0.3989 -0.1629  0.1641
 1923SOL    HW215874   1.500   2.546   2.605 -0.7612  0.4341  0.1768
 1924SOL     OW15875   2.437   5.328   1.285  0.3655 -0.1858  0.5134
 1924SOL    HW115876   2.505   5.293   1.221  1.3653  1.6360  0.5432
 1924SOL    HW215877   2.361   5.368   1.233  0.1602 -0.6185  0.4778
 1925SOL     OW15878  10.099   4.202   1.512 -0.1375 -0.1651 -0.0257
 1925SOL    HW115879  10.028   4.272   1.504  2.4647  2.5844  0.0626
 1925SOL    HW215880  10.138   4.185   1.421  0.9708  0.3962  0.3423
 1926SOL     OW15881   8.927   4.881   2.816 -0.5882 -0.4352  0.3008
 1926SOL    HW115882   8.995   4.851   2.884  0.6803 -1.1195 -1.2531
 1926SOL    HW215883   8.858   4.810   2.804 -1.0146 -0.1692  1.1125
 1927SOL     OW15884   1.450   3.968   1.894 -0.4044  0.2436  0.6239
 1927SOL    HW115885   1.550   3.960   1.894 -0.4816 -0.8932  1.6216
 1927SOL    HW215886   1.423   4.055   1.853  1.0686  1.3066  1.8672
 1928SOL     OW15887   1.547   9.725   2.353  0.0444  0.0221  0.3266
 1928SOL    HW115888   1.645   9.743   2.355  0.0977 -0.3379  1.2691
 1928SOL    HW215889   1.523   9.681   2.267  0.4579  1.4991 -0.5651
 1929SOL     OW15890   8.636   2.977   0.322  0.1091 -0.1569  0.0953
 1929SOL    HW115891   8.550   3.011   0.362  0.5700 -0.4546  1.3649
 1929SOL    HW215892   8.636   2.995   0.224 -1.4598 -0.2573  0.0623
 1930SOL     OW15893   0.883   4.885   1.682 -0.3180  0.0123  0.2500
 1930SOL    HW115894   0.952   4.839   1.738  1.0130  1.3424 -0.2546
 1930SOL    HW215895   0.800   4.899   1.736  0.3818 -0.1517  1.3858
 1931SOL     OW15896   0.520   0.176   1.391  0.6863 -0.2352  0.0394
 1931SOL    HW115897   0.467   0.213   1.467 -0.3943 -1.6642  0.0196
 1931SOL    HW215898   0.525   0.243   1.317 -0.6328  0.1408  0.2770
 1932SOL     OW15899   1.114   3.923   0.792 -0.3877  0.0328 -0.3669
 1932SOL    HW115900   1.048   3.996   0.813 -0.5245 -0.4760  1.0259
 1932SOL    HW215901   1.158   3.943   0.705 -2.4543  0.3401 -1.3917
 1933SOL     OW15902   2.468   3.241   0.674 -0.0509  0.2238 -0.0754
 1933SOL    HW115903   2.524   3.324   0.678 -0.5340  0.5211  0.8180
 1933SOL    HW215904   2.522   3.162   0.702 -0.4370  0.7123  2.1167
 1934SOL     OW15905   3.165   4.246   0.870  0.0297  0.1974  0.2050
 1934SOL    HW115906   3.156   4.158   0.824  1.8887  0.9449 -1.6466
 1934SOL    HW215907   3.100   4.250   0.946  2.1702 -4.1199  2.4740
 1935SOL     OW15908   4.511   0.701   1.365  0.0001  0.8142  0.9176
 1935SOL    HW115909   4.540   0.619   1.415  2.1194  2.5988  2.7132
 1935SOL    HW215910   4.531   0.782   1.420 -0.3230  2.6635 -1.6232
 1936SOL     OW15911   2.092   0.375   0.884 -0.3230 -0.1235  0.2380
 1936SOL    HW115912   2.139   0.425   0.956 -0.6083  1.6595 -0.7903
 1936SOL    HW215913   2.150   0.373   0.802 -0.8741 -0.3367 -0.1464
 1937SOL     OW15914   2.068   2.115   2.154 -0.0323  0.3736  0.1944
 1937SOL    HW115915   2.076   2.179   2.231 -0.8603 -0.5850  1.0987
 1937SOL    HW215916   2.148   2.123   2.094  2.1062 -0.9693  2.7684
 1938SOL     OW15917   0.524   3.926   1.763 -0.2377 -0.0122  0.0865
 1938SOL    HW115918   0.488   3.941   1.855  1.0374  0.9632  0.4468
 1938SOL    HW215919   0.521   4.012   1.712 -0.9387 -0.5498 -0.7835
 1939SOL     OW15920   3.018   6.782   1.434 -0.1590  0.4399 -0.6340
 1939SOL    HW115921   3.093   6.770   1.368  1.8815 -0.9989  1.8739
 1939SOL    HW215922   3.022   6.874   1.472  0.7168  0.1802 -0.0793
 1940SOL     OW15923   4.168   4.567   2.305 -0.1898 -0.0658 -0.3197
 1940SOL    HW115924   4.252   4.614   2.331 -0.8381  1.4137 -0.8239
 1940SOL    HW215925   4.140   4.505   2.378  1.0229 -0.1394  0.0883
 1941SOL     OW15926   1.440   6.691   0.992  0.5713  0.2429  0.2886
 1941SOL    HW115927   1.387   6.728   1.068  1.1519  0.9380  0.3710
 1941SOL    HW215928   1.533   6.671   1.023  0.5041 -0.4764  0.0230
 1942SOL     OW15929   1.505   2.222   0.879  0.5890  0.1549  0.2455
 1942SOL    HW115930   1.412   2.200   0.850  1.2398  0.0310 -1.8932
 1942SOL    HW215931   1.504   2.257   0.973 -1.6529  0.5648  0.0990
 1943SOL     OW15932   3.892   1.761   0.558 -0.1281 -0.4230  0.1722
 1943SOL    HW115933   3.889   1.861   0.556  0.4640 -0.4148 -0.5190
 1943SOL    HW215934   3.956   1.732   0.630  1.4998 -0.2539 -1.1568
 1944SOL     OW15935   1.097   7.066   2.658  0.3267  0.1106  0.4363
 1944SOL    HW115936   1.018   7.005   2.655 -0.4201  1.1027 -0.5871
 1944SOL    HW215937   1.089   7.127   2.736  0.1082  0.1758  0.3632
 1945SOL     OW15938   2.119   6.162   1.810 -0.2329  0.8795 -0.2481
 1945SOL    HW115939   2.217   6.163   1.788  0.0309  2.3111  0.8999
 1945SOL    HW215940   2.099   6.083   1.869  0.2058  0.4943 -0.6129
 1946SOL     OW15941  10.163   2.503   1.404  0.6353  0.2592  0.3662
 1946SOL    HW115942  10.107   2.571   1.357  1.7931  0.1312 -1.2308
 1946SOL    HW215943  10.137   2.499   1.501 -0.4096  1.9374  0.1662
 1947SOL     OW15944   2.747   4.642   2.604  0.3522  0.0325  0.3414
 1947SOL    HW115945   2.740   4.601   2.695 -0.1219  0.2225  0.3939
 1947SOL    HW215946   2.827   4.605   2.557  0.0648 -0.7798  0.4730
 1948SOL     OW15947   4.512   1.301   0.647  0.7791  0.6504  0.2538
 1948SOL    HW115948   4.588   1.327   0.588  0.8891  0.5587  0.3558
 1948SOL    HW215949   4.491   1.204   0.634  0.8633  0.6081  0.4335
 1949SOL     OW15950  10.083   3.674   0.664 -0.2557 -0.4051 -0.1614
 1949SOL    HW115951  10.153   3.725   0.614  0.5454 -1.3866 -0.0716
 1949SOL    HW215952  10.004   3.658   0.605  0.1120 -0.3609 -0.6656
 1950SOL     OW15953   9.508   3.551   0.156 -0.5726  0.4361  0.1011
 1950SOL    HW115954   9.531   3.472   0.098 -1.9286 -0.3495  0.6065
 1950SOL    HW215955   9.586   3.614   0.158  0.7972 -1.2136  0.2315
 1951SOL     OW15956   2.879   9.033   1.821 -0.5318  0.6121 -0.0556
 1951SOL    HW115957   2.799   8.998   1.869  0.7179 -1.2738  0.7043
 1951SOL    HW215958   2.863   9.028   1.722 -1.5906  0.8613  0.0975
 1952SOL     OW15959   4.062   9.475   2.502  0.0650  0.6531  0.6072
 1952SOL    HW115960   4.138   9.526   2.461 -0.1127  0.4747  0.0457
 1952SOL    HW215961   4.074   9.377   2.485 -0.1104  0.5940  0.8176
 1953SOL     OW15962   9.559   2.231   1.319 -0.2833 -0.5552 -0.9390
 1953SOL    HW115963   9.530   2.162   1.385 -1.5713  1.0757  0.2460
 1953SOL    HW215964   9.659   2.233   1.315 -0.2065 -1.4042  0.1797
 1954SOL     OW15965   0.953   2.808   2.764 -0.2730  0.3645 -0.4394
 1954SOL    HW115966   1.051   2.814   2.782 -0.0641 -1.3775 -0.8480
 1954SOL    HW215967   0.924   2.885   2.707  1.1285  0.1971 -1.3962
 1955SOL     OW15968   4.751   3.912   0.306  0.5319 -0.4077  0.0685
 1955SOL    HW115969   4.824   3.889   0.370  1.1115  1.2115  0.0041
 1955SOL    HW215970   4.766   3.864   0.220  2.5238  1.2456 -0.5568
 1956SOL     OW15971   1.306   5.625   1.450 -0.2633 -0.3823 -0.4444
 1956SOL    HW115972   1.281   5.656   1.542  0.4477 -2.4475  0.4593
 1956SOL    HW215973   1.290   5.527   1.442  0.8495 -0.4448 -2.1434
 1957SOL     OW15974   2.908   4.339   1.830 -0.6560 -0.3625  0.0312
 1957SOL    HW115975   2.872   4.430   1.806  0.9097 -0.4018 -2.6452
 1957SOL    HW215976   2.874   4.272   1.765  2.2284 -0.8138 -1.0589
 1958SOL     OW15977   1.449   6.447   2.606  0.5111  0.0884 -0.4127
 1958SOL    HW115978   1.375   6.389   2.574 -1.4880  1.9049  0.7293
 1958SOL    HW215979   1.458   6.438   2.705  0.5734  1.2408 -0.3012
 1959SOL     OW15980   3.539   2.355   2.719  0.3011  0.3456 -0.3801
 1959SOL    HW115981   3.606   2.301   2.769  2.5532  3.9500  0.7140
 1959SOL    HW215982   3.586   2.410   2.649 -1.7124  1.6847 -0.7380
 1960SOL     OW15983   0.523   2.227   1.841  0.0828  0.5892 -0.5683
 1960SOL    HW115984   0.609   2.275   1.857  0.8508 -0.6542 -0.9056
 1960SOL    HW215985   0.468   2.228   1.924  0.5331  1.1650 -0.2748
 1961SOL     OW15986   1.061   9.758   0.384 -0.4133  0.3693 -0.0149
 1961SOL    HW115987   1.051   9.849   0.343  0.6466  0.0557 -1.0025
 1961SOL    HW215988   1.082   9.768   0.481 -1.6703  1.1463  0.1941
 1962SOL     OW15989   9.192   6.159   2.780  0.1269 -0.4912 -0.3069
 1962SOL    HW115990   9.196   6.109   2.694  0.5060  1.1572 -1.2709
 1962SOL    HW215991   9.285   6.179   2.812 -0.0272 -0.1401 -0.0773
 1963SOL     OW15992   2.445   1.737   1.004  0.1353  0.3135 -0.0530
 1963SOL    HW115993   2.452   1.830   1.039 -1.8533 -0.5313  2.7271
 1963SOL    HW215994   2.359   1.727   0.953  0.5116  0.0880 -0.6496
 1964SOL     OW15995   3.955   5.742   1.251 -0.1206  0.1537  0.0653
 1964SOL    HW115996   3.898   5.821   1.227 -2.0937 -0.9184  1.2145
 1964SOL    HW215997   3.904   5.658   1.238  1.5450 -0.8948  0.1335
 1965SOL     OW15998   3.169   5.716   0.535  0.2488  0.0514  0.0292
 1965SOL    HW115999   3.109   5.783   0.492 -0.5517 -0.8729 -0.3039
 1965SOL    HW216000   3.264   5.740   0.515 -0.1022 -0.5401 -2.5922
 1966SOL     OW16001   0.522   7.793   2.747  0.3962  0.6670 -0.4976
 1966SOL    HW116002   0.557   7.797   2.841  0.8503  2.3941 -0.7118
 1966SOL    HW216003   0.564   7.866   2.693 -1.2714  0.8734 -1.5585
 1967SOL     OW16004   3.801   0.301   1.302  0.2519  0.3923  0.3033
 1967SOL    HW116005   3.836   0.227   1.245  2.2606  0.3558  1.5053
 1967SOL    HW216006   3.704   0.285   1.322  0.5900 -1.8265  0.3767
 1968SOL     OW16007  10.086   6.688   2.234 -0.2918 -0.0910 -0.2825
 1968SOL    HW116008  10.020   6.645   2.173  1.8656  0.8759 -3.5007
 1968SOL    HW216009  10.049   6.775   2.268 -0.8465  0.2467 -1.7158
 1969SOL     OW16010   9.951   5.005   0.757  0.0281  0.3580  0.0223
 1969SOL    HW116011  10.032   5.027   0.812 -1.0148 -1.3848  2.3511
 1969SOL    HW216012   9.946   5.066   0.679  1.9659  2.4592  1.4785
 1970SOL     OW16013   3.348   5.836   0.085 -0.1739  0.2302  0.6667
 1970SOL    HW116014   3.303   5.848  -0.004 -0.4358 -0.9468  0.6320
 1970SOL    HW216015   3.445   5.819   0.070 -0.1094  0.6382  0.6307
 1971SOL     OW16016   9.373   5.389   2.640  0.3090  0.0422 -0.3563
 1971SOL    HW116017   9.305   5.315   2.633  0.0851  0.1430  0.6785
 1971SOL    HW216018   9.405   5.413   2.549  0.6748 -1.6075 -0.6773
 1972SOL     OW16019   9.507   1.040   1.189 -0.0277  0.6433  0.1634
 1972SOL    HW116020   9.536   1.128   1.227  0.1406  0.6804 -0.0485
 1972SOL    HW216021   9.474   1.054   1.096 -0.1488  0.5065  0.1867
 1973SOL     OW16022   2.635   8.505   2.549  0.0490 -0.0395  0.5891
 1973SOL    HW116023   2.674   8.440   2.484 -0.0918 -1.2079  1.6586
 1973SOL    HW216024   2.544   8.533   2.519  0.7051  0.8068 -0.6374
 1974SOL     OW16025   2.633   5.888   2.168 -0.1814  0.6479 -0.5358
 1974SOL    HW116026   2.603   5.814   2.107  0.4836  0.5961 -0.8068
 1974SOL    HW216027   2.668   5.964   2.113  0.5512  0.5418 -0.2143
 1975SOL     OW16028   9.355   1.613   2.356  0.2742 -0.3327 -0.1740
 1975SOL    HW116029   9.341   1.521   2.319  1.6327 -0.3847 -0.5866
 1975SOL    HW216030   9.405   1.607   2.442  0.2266  0.0253 -0.1211
 1976SOL     OW16031   0.350   3.249   1.930 -0.1329  0.2040 -0.9935
 1976SOL    HW116032   0.426   3.199   1.972  1.0813  2.5122 -0.3219
 1976SOL    HW216033   0.307   3.192   1.860  0.5858 -2.0892  0.3678
 1977SOL     OW16034   1.945   8.623   2.135  0.0206  0.1266 -0.4266
 1977SOL    HW116035   1.891   8.640   2.052 -0.4759 -1.6803 -0.4947
 1977SOL    HW216036   1.896   8.660   2.214 -1.2325 -1.3082 -0.5160
 1978SOL     OW16037   0.535   8.275   0.383 -0.2200  0.4950  0.1644
 1978SOL    HW116038   0.546   8.375   0.376 -0.9624  0.5090 -0.9937
 1978SOL    HW216039   0.449   8.255   0.430  0.3354  0.3910  1.1500
 1979SOL     OW16040   1.975   9.081   1.482  0.4146  0.4786 -0.1345
 1979SOL    HW116041   1.914   9.147   1.438  1.1330  1.4913  0.3886
 1979SOL    HW216042   2.055   9.066   1.423  0.1256 -0.1319 -0.3768
 1980SOL     OW16043   9.872   5.760   0.226  0.2885 -0.9776  0.2422
 1980SOL    HW116044   9.878   5.858   0.210  2.4184 -0.8956  1.3353
 1980SOL    HW216045   9.811   5.742   0.303 -0.1451 -0.5162  0.0084
 1981SOL     OW16046   2.753   9.933   0.252 -0.3051  0.1150  0.2409
 1981SOL    HW116047   2.706  10.002   0.196  0.7608 -0.1281 -0.9595
 1981SOL    HW216048   2.823   9.978   0.307  0.8495 -0.0864 -1.0441
 1982SOL     OW16049   3.247   2.334   0.120  0.2833  0.4689 -0.1219
 1982SOL    HW116050   3.175   2.334   0.051 -0.0688  2.4263  0.2366
 1982SOL    HW216051   3.308   2.412   0.105  2.4917 -1.2593 -0.5571
 1983SOL     OW16052   3.286   2.335   1.713 -0.2715 -0.4460  0.0011
 1983SOL    HW116053   3.335   2.263   1.761 -0.9136 -1.7691 -1.3018
 1983SOL    HW216054   3.188   2.317   1.716 -0.2640 -1.0533 -2.5672
 1984SOL     OW16055   9.524   7.634   2.715  0.3452  1.0606  0.1434
 1984SOL    HW116056   9.552   7.625   2.810  1.9615 -1.6397 -0.5156
 1984SOL    HW216057   9.602   7.664   2.660 -0.7967  3.4417 -0.2394
 1985SOL     OW16058   3.760   1.563   1.476  0.5580 -0.0688 -0.4383
 1985SOL    HW116059   3.827   1.496   1.447 -0.8992 -1.9672  0.4809
 1985SOL    HW216060   3.709   1.596   1.396  1.3869  0.0995 -0.9062
 1986SOL     OW16061   2.868   3.825   0.686 -0.0919  0.1569 -0.1800
 1986SOL    HW116062   2.891   3.794   0.594  0.2741  1.8423 -0.6779
 1986SOL    HW216063   2.769   3.840   0.693 -0.2471 -0.9290  0.0115
 1987SOL     OW16064   4.019   0.359   0.995 -0.1626 -0.3167 -0.3195
 1987SOL    HW116065   4.002   0.296   1.071 -1.3267  0.2439 -0.1081
 1987SOL    HW216066   4.108   0.404   1.009  0.3434 -1.3621 -0.1032
 1988SOL     OW16067   2.102   3.711   0.589  0.1752 -0.3868  0.9219
 1988SOL    HW116068   2.159   3.793   0.601  0.2825 -0.1587 -1.0411
 1988SOL    HW216069   2.114   3.651   0.668  0.4994  1.2472  2.1484
 1989SOL     OW16070   2.980   5.232   0.820  0.2154  0.3463 -0.4042
 1989SOL    HW116071   2.891   5.202   0.856  0.6494 -0.9218 -0.3619
 1989SOL    HW216072   3.003   5.321   0.858 -0.0189 -0.3084  1.3341
 1990SOL     OW16073  10.112   9.176   2.293 -0.6627  0.2147 -0.3232
 1990SOL    HW116074  10.153   9.259   2.256 -2.6939  2.1693  1.6315
 1990SOL    HW216075  10.040   9.144   2.231  0.2247 -0.1737 -1.1549
 1991SOL     OW16076  10.264   3.035   1.232 -0.4305 -0.1486 -0.1090
 1991SOL    HW116077  10.191   2.969   1.252 -1.2232  0.4036 -1.1415
 1991SOL    HW216078  10.237   3.126   1.264  0.9266 -0.4183  1.8844
 1992SOL     OW16079   0.645   5.778   0.798  0.1032  0.6044  0.0881
 1992SOL    HW116080   0.626   5.722   0.879 -0.8231  0.7508 -0.0226
 1992SOL    HW216081   0.670   5.719   0.722  2.6825  0.5601  0.9277
 1993SOL     OW16082   3.903   2.290   1.557  0.0801  0.7323 -0.5389
 1993SOL    HW116083   3.962   2.297   1.637 -0.1491 -0.8510 -0.2105
 1993SOL    HW216084   3.859   2.200   1.556 -0.3760  0.9574 -2.1198
 1994SOL     OW16085   3.539   1.282   2.251 -0.2320  0.2044 -0.4173
 1994SOL    HW116086   3.608   1.313   2.316 -0.3452  0.6326 -0.4950
 1994SOL    HW216087   3.505   1.192   2.278 -1.1773  0.9212  0.8227
 1995SOL     OW16088   2.166   7.908   2.113  0.0936  0.3409 -0.1796
 1995SOL    HW116089   2.120   7.897   2.025  2.5082  2.6546 -1.8457
 1995SOL    HW216090   2.176   7.820   2.158  0.5754 -1.2021 -3.1923
 1996SOL     OW16091   3.001   9.324   0.378  0.1185 -0.1263 -0.2158
 1996SOL    HW116092   3.074   9.392   0.383 -0.9212  1.0403 -0.5905
 1996SOL    HW216093   2.918   9.367   0.341 -0.9762 -1.2357  0.8852
 1997SOL     OW16094   3.117   0.253   0.733 -0.0380 -0.3278  0.0883
 1997SOL    HW116095   3.044   0.289   0.675 -0.7952  1.1952  1.9499
 1997SOL    HW216096   3.195   0.226   0.676 -1.2877 -0.1477 -1.7323
 1998SOL     OW16097   0.610   7.810   1.925  0.2496 -0.1504  0.3390
 1998SOL    HW116098   0.706   7.807   1.951  0.3705 -0.5883 -0.1352
 1998SOL    HW216099   0.599   7.866   1.843  0.6775 -3.2204 -1.9009
 1999SOL     OW16100   2.015   8.885   0.250  0.1751  0.2814 -0.4160
 1999SOL    HW116101   2.042   8.809   0.191 -1.4506 -0.3249 -0.4081
 1999SOL    HW216102   2.082   8.958   0.243  1.6886 -1.0912 -0.5364
 2000SOL     OW16103   5.748   3.352   1.053  0.0935 -0.2930  0.0254
 2000SOL    HW116104   5.733   3.448   1.033  0.2747 -0.2579  0.0578
 2000SOL    HW216105   5.664   3.312   1.091 -0.1859 -0.3093 -0.6041
 2001SOL     OW16106   9.204   2.538   1.352  0.3543  0.2891  0.2517
 2001SOL    HW116107   9.110   2.520   1.324  0.0870 -0.1427  1.3902
 2001SOL    HW216108   9.241   2.613   1.298 -0.9506  1.0829  0.4334
 2002SOL     OW16109   2.948   2.653   0.597  0.2859 -0.0908 -0.4753
 2002SOL    HW116110   3.046   2.675   0.600 -0.0400  1.9154 -2.7148
 2002SOL    HW216111   2.899   2.706   0.666  0.7494 -0.9366  0.5053
 2003SOL     OW16112   9.412   6.489   2.315  0.1477 -0.1073  0.3050
 2003SOL    HW116113   9.472   6.569   2.315 -0.7495  0.5675  0.8880
 2003SOL    HW216114   9.316   6.518   2.314 -0.2080 -1.1520  1.7654
 2004SOL     OW16115   4.344   4.789   1.310  0.1235  0.4348 -0.5519
 2004SOL    HW116116   4.254   4.809   1.348 -0.5192 -2.0396 -0.6970
 2004SOL    HW216117   4.400   4.741   1.378  2.1008  3.7266  0.2480
 2005SOL     OW16118   3.753   3.635   1.284  0.4354 -0.2333 -0.2765
 2005SOL    HW116119   3.742   3.725   1.241  0.5154  0.6237  1.4351
 2005SOL    HW216120   3.729   3.642   1.381  4.2130 -1.1549  0.7858
 2006SOL     OW16121   1.900   1.603   2.748  0.2231  0.2884  0.4612
 2006SOL    HW116122   1.979   1.582   2.805  0.5868  1.0589  0.2540
 2006SOL    HW216123   1.924   1.676   2.683 -1.0806  1.5698  1.3944
 2007SOL     OW16124   4.301   1.789   0.328  0.0154  0.8027  0.0002
 2007SOL    HW116125   4.341   1.739   0.251  0.0695 -0.0752  0.5854
 2007SOL    HW216126   4.237   1.858   0.294 -0.3470  0.0730 -0.8155
 2008SOL     OW16127   2.955   1.242   0.243  0.3578 -0.2333 -0.5385
 2008SOL    HW116128   3.030   1.239   0.176 -0.5980  0.5412 -1.6672
 2008SOL    HW216129   2.973   1.177   0.316  1.8636 -0.4602 -1.0900
 2009SOL     OW16130   9.693   7.544   1.513  0.1637 -0.6101  0.4537
 2009SOL    HW116131   9.627   7.609   1.551  0.9318 -0.4159  1.4843
 2009SOL    HW216132   9.653   7.499   1.433 -1.0952 -0.2758  0.8807
 2010SOL     OW16133   2.649   5.121   2.649 -0.4802 -0.4124  0.2271
 2010SOL    HW116134   2.588   5.093   2.724  1.4999 -2.3372  1.1553
 2010SOL    HW216135   2.657   5.047   2.583 -0.3427  0.4184 -0.7048
 2011SOL     OW16136   9.628   4.051   0.130  0.1770  0.2342 -0.0411
 2011SOL    HW116137   9.548   3.991   0.118  1.8433 -2.3632  1.4617
 2011SOL    HW216138   9.624   4.093   0.221  0.8091 -0.3279  0.2441
 2012SOL     OW16139   9.180   6.971   2.141 -0.5919  0.2799 -0.1520
 2012SOL    HW116140   9.233   7.032   2.199 -0.8818  0.5128 -0.1281
 2012SOL    HW216141   9.189   6.877   2.174 -0.9112  0.4382  0.3849
 2013SOL     OW16142   0.999   3.078   2.502 -0.3520 -0.4263  0.6474
 2013SOL    HW116143   1.083   3.087   2.555  0.0755 -0.8070  0.0353
 2013SOL    HW216144   0.995   2.987   2.461  0.2604  0.5018 -1.5561
 2014SOL     OW16145   4.507   9.634   2.763  0.2784  0.0935  0.1316
 2014SOL    HW116146   4.575   9.666   2.697  0.4154  0.5816  0.5084
 2014SOL    HW216147   4.553   9.588   2.839  0.1414 -0.1760  0.0532
 2015SOL     OW16148   9.669   6.700   2.298 -0.1262  0.2323  0.0690
 2015SOL    HW116149   9.651   6.783   2.245  2.2750  1.0295  0.4313
 2015SOL    HW216150   9.735   6.644   2.249  1.0899  0.3279  1.5723
 2016SOL     OW16151  10.112   5.410   2.156  0.0215 -0.4150 -0.1953
 2016SOL    HW116152  10.082   5.438   2.065 -0.3034 -2.0916 -0.6142
 2016SOL    HW216153  10.149   5.317   2.153  1.0303 -0.0865  1.1807
 2017SOL     OW16154   9.742   0.128   0.223  0.2077 -0.3169 -0.7245
 2017SOL    HW116155   9.803   0.086   0.156 -2.1225 -1.7940 -1.9549
 2017SOL    HW216156   9.710   0.216   0.187  0.1033 -0.4294 -0.9082
 2018SOL     OW16157   9.824   3.960   0.415  0.1117  0.4435 -0.2828
 2018SOL    HW116158   9.727   3.982   0.412  0.1819  0.8245  0.1243
 2018SOL    HW216159   9.877   4.038   0.380  0.1730 -0.4692 -2.2426
 2019SOL     OW16160   0.376   9.056   2.664  0.1393 -0.4274 -0.2981
 2019SOL    HW116161   0.358   9.027   2.570 -1.0503  0.0593 -0.2297
 2019SOL    HW216162   0.312   9.128   2.689 -0.1137 -1.1450  1.1752
 2020SOL     OW16163   2.335   3.099   0.138  0.3813  0.9786 -0.3428
 2020SOL    HW116164   2.308   3.171   0.074  0.8395  0.9988 -0.5120
 2020SOL    HW216165   2.411   3.047   0.100 -0.0021  0.3562 -0.2538
 2021SOL     OW16166   0.698   6.010   1.337 -0.2662 -0.4362 -0.2355
 2021SOL    HW116167   0.613   6.037   1.382  1.5821  2.3044  1.7993
 2021SOL    HW216168   0.708   6.061   1.251 -0.1811  0.0031  0.0364
 2022SOL     OW16169   1.461   4.752   2.693 -0.3072  0.6567 -0.3391
 2022SOL    HW116170   1.528   4.805   2.642  1.6003  0.1110  1.5152
 2022SOL    HW216171   1.465   4.777   2.790 -1.2489 -0.9286  0.1365
 2023SOL     OW16172   2.491   9.933   1.011  0.1894 -0.6246  0.7722
 2023SOL    HW116173   2.497  10.007   1.078 -1.6716  2.5381 -2.3618
 2023SOL    HW216174   2.401   9.891   1.017  0.0101 -0.3176  0.2719
 2024SOL     OW16175   3.353   8.179   1.711 -0.3194 -0.0200  0.2799
 2024SOL    HW116176   3.422   8.187   1.783  0.5341 -1.4325 -0.3450
 2024SOL    HW216177   3.392   8.209   1.624 -0.2289 -1.5445 -0.2214
 2025SOL     OW16178  10.035   1.347   0.842 -0.7621  0.0208  0.2303
 2025SOL    HW116179  10.015   1.276   0.910 -1.0693 -1.2344 -1.1436
 2025SOL    HW216180  10.129   1.336   0.809 -1.7046 -1.6021 -2.0929
 2026SOL     OW16181   0.358   7.729   1.861  0.0878  0.7049 -0.2813
 2026SOL    HW116182   0.306   7.662   1.915  1.5012 -0.4263 -0.2874
 2026SOL    HW216183   0.449   7.739   1.900 -0.5130  3.5943  0.4618
 2027SOL     OW16184   2.740   7.288   1.295  0.3538 -0.3021 -0.0576
 2027SOL    HW116185   2.677   7.257   1.224  0.4570  1.1729 -0.8111
 2027SOL    HW216186   2.721   7.383   1.318 -0.1151 -0.9584  2.3995
 2028SOL     OW16187   2.011   1.690   2.508  0.4630 -0.2991 -0.6298
 2028SOL    HW116188   2.087   1.633   2.480  1.7099  0.8884  0.2562
 2028SOL    HW216189   2.029   1.785   2.482 -0.7508 -0.0209 -0.4938
 2029SOL     OW16190   2.481   5.219   0.984  0.2660 -0.3284 -0.1370
 2029SOL    HW116191   2.418   5.296   0.971 -0.7764 -1.0515  0.5553
 2029SOL    HW216192   2.509   5.183   0.895  1.2872  1.2590 -0.4818
 2030SOL     OW16193   3.812   5.499   1.574 -0.2850 -0.1475  0.1160
 2030SOL    HW116194   3.714   5.484   1.559 -0.5951  1.3007  0.6968
 2030SOL    HW216195   3.841   5.583   1.530  0.5139 -0.0940  0.7158
 2031SOL     OW16196   3.297   6.906   0.971  0.1242  0.0984  0.5157
 2031SOL    HW116197   3.245   6.991   0.980 -0.2499 -0.0901  0.1691
 2031SOL    HW216198   3.343   6.886   1.057  0.1273  0.5992  0.6289
 2032SOL     OW16199   9.496   7.842   1.417  0.2301 -0.4478  0.5035
 2032SOL    HW116200   9.484   7.768   1.351  0.3684  0.5835 -0.7008
 2032SOL    HW216201   9.411   7.894   1.425  0.3792 -0.2370  0.7307
 2033SOL     OW16202   8.799   7.368   0.333  0.0537 -0.3579 -0.4921
 2033SOL    HW116203   8.784   7.419   0.248 -0.9264  0.7823  0.3280
 2033SOL    HW216204   8.885   7.397   0.374  0.3666 -0.6629 -0.9366
 2034SOL     OW16205  10.116   5.980   2.379  0.0517  0.3989 -0.1866
 2034SOL    HW116206  10.165   6.067   2.388 -0.5545  0.5767  1.5938
 2034SOL    HW216207  10.119   5.931   2.466 -1.0236 -0.5990 -0.6982
 2035SOL     OW16208   9.929   1.396   1.130  0.4304  0.0844  0.2371
 2035SOL    HW116209   9.892   1.305   1.148  2.3996 -0.8767 -0.4132
 2035SOL    HW216210   9.898   1.459   1.201 -0.5841 -1.1973  0.9511
 2036SOL     OW16211   8.890   2.789   0.320  0.1447  0.5718 -0.5423
 2036SOL    HW116212   8.822   2.861   0.327 -1.2244 -0.5606 -1.9153
 2036SOL    HW216213   8.875   2.736   0.237  0.6827 -1.7299  0.7753
 2037SOL     OW16214   4.256   1.887   2.380 -0.1328 -0.0405  0.1796
 2037SOL    HW116215   4.157   1.896   2.385 -0.1721 -0.1887 -0.3892
 2037SOL    HW216216   4.280   1.800   2.338  0.2445 -0.3352  0.9824
 2038SOL     OW16217   0.388   7.074   2.776 -0.6389 -0.0277 -0.1561
 2038SOL    HW116218   0.307   7.075   2.834 -1.0631  1.0443 -0.7584
 2038SOL    HW216219   0.454   7.007   2.812 -2.3657 -1.9463 -0.4822
 2039SOL     OW16220   3.050   8.352   2.147 -0.1576 -0.0714  0.6672
 2039SOL    HW116221   2.971   8.412   2.137 -0.6498 -0.6455  1.0300
 2039SOL    HW216222   3.105   8.382   2.225  0.1957  0.5605  0.1777
 2040SOL     OW16223   9.087   7.418   0.912 -0.5803  0.2642 -0.2853
 2040SOL    HW116224   9.056   7.332   0.870 -0.7565  0.1706  0.0324
 2040SOL    HW216225   9.018   7.450   0.977 -0.2532  0.3436  0.0249
 2041SOL     OW16226   0.511   6.072   1.895 -0.0869  0.1542 -0.3481
 2041SOL    HW116227   0.492   6.122   1.810 -1.1006  0.0175 -0.2113
 2041SOL    HW216228   0.434   6.012   1.916 -0.2598  0.8818  1.1671
 2042SOL     OW16229   0.352   3.370   2.657 -0.1708 -0.2615  0.2945
 2042SOL    HW116230   0.267   3.358   2.605 -1.6141  2.8252  1.8695
 2042SOL    HW216231   0.331   3.394   2.752  2.4461  1.0327  0.6026
 2043SOL     OW16232  10.328   7.023   0.535  0.5529  0.4417  0.0511
 2043SOL    HW116233  10.235   6.993   0.556  0.6534 -0.2381 -0.4827
 2043SOL    HW216234  10.368   6.964   0.466  1.0038  1.3892 -0.5121
 2044SOL     OW16235   2.058   8.018   0.989  0.4832 -1.1259 -0.0699
 2044SOL    HW116236   1.985   7.966   1.033  0.1912 -1.1937 -0.6412
 2044SOL    HW216237   2.040   8.116   1.001 -1.0608 -1.0862 -2.4077
 2045SOL     OW16238   8.263   6.714   2.529  0.4579 -0.2712 -0.3248
 2045SOL    HW116239   8.284   6.690   2.434  2.2832  1.2448 -0.3334
 2045SOL    HW216240   8.195   6.651   2.565 -1.7865  0.3829 -3.2781
 2046SOL     OW16241   9.407   2.392   1.160 -0.1313  0.7969  0.6504
 2046SOL    HW116242   9.456   2.321   1.209 -1.4115  0.7826  1.9434
 2046SOL    HW216243   9.319   2.409   1.204 -1.1543  1.0628 -1.3984
 2047SOL     OW16244   3.615   5.016   2.803  0.0276  0.1984  0.3594
 2047SOL    HW116245   3.542   4.949   2.816  0.4284 -0.2415  0.3403
 2047SOL    HW216246   3.696   4.989   2.856  1.2848 -0.9945 -2.0672
 2048SOL     OW16247   3.812   1.013   1.820 -0.2267 -0.3329 -0.0696
 2048SOL    HW116248   3.868   0.942   1.862 -0.5256  1.0403  2.7754
 2048SOL    HW216249   3.715   0.992   1.835 -0.3467  0.0791 -0.2550
 2049SOL     OW16250   0.653   7.512   1.717 -0.3464  0.6079  0.0342
 2049SOL    HW116251   0.633   7.509   1.619 -0.3097  0.8991  0.0175
 2049SOL    HW216252   0.568   7.501   1.769 -0.3642  0.4440 -0.0303
 2050SOL     OW16253   9.319   6.234   2.201  0.7740  0.0130  0.3209
 2050SOL    HW116254   9.307   6.152   2.257  1.0357 -0.2718 -0.0381
 2050SOL    HW216255   9.358   6.307   2.257 -1.4600  0.5767  1.2035
 2051SOL     OW16256   4.059   9.621   1.687  0.2087 -0.7342  0.5915
 2051SOL    HW116257   3.977   9.678   1.682 -0.0191 -1.2083 -1.6532
 2051SOL    HW216258   4.136   9.669   1.645  0.9976 -0.4373  2.3678
 2052SOL     OW16259   2.979   3.257   2.751 -0.4968 -0.4108  0.4375
 2052SOL    HW116260   2.992   3.340   2.696  0.8640 -0.6429  0.3876
 2052SOL    HW216261   3.034   3.264   2.834 -3.0266  0.2080  2.1125
 2053SOL     OW16262   0.785   2.390   0.076 -0.1641 -0.1216 -0.5053
 2053SOL    HW116263   0.739   2.470   0.113  2.0361  0.7487  0.3899
 2053SOL    HW216264   0.799   2.401  -0.022 -0.0584  0.4652 -0.4200
 2054SOL     OW16265  10.324   9.386   0.849 -0.1737  0.0310  0.0747
 2054SOL    HW116266  10.228   9.364   0.833 -0.2161  0.5213 -0.3589
 2054SOL    HW216267  10.370   9.307   0.889 -0.7925 -0.1518  0.4324
 2055SOL     OW16268   3.432   1.394   0.250  0.1071  0.1092 -0.3263
 2055SOL    HW116269   3.429   1.485   0.290  0.0214  0.4648 -1.1396
 2055SOL    HW216270   3.502   1.339   0.296  1.6340  1.2563 -1.2433
 2056SOL     OW16271   4.428   3.468   0.399  0.2956  0.3848 -0.4067
 2056SOL    HW116272   4.338   3.497   0.369 -0.3983 -0.9227  0.3594
 2056SOL    HW216273   4.459   3.390   0.344  1.0111  0.8832 -0.7295
 2057SOL     OW16274   9.638   2.677   0.718  0.8796 -0.1694 -0.2263
 2057SOL    HW116275   9.666   2.760   0.669 -0.2223  0.0779 -0.4508
 2057SOL    HW216276   9.569   2.628   0.663 -0.6030  0.2794  1.1966
 2058SOL     OW16277   3.031   7.343   0.114  0.4831  0.1835 -0.1128
 2058SOL    HW116278   3.125   7.332   0.082  0.5688 -1.0937  0.5313
 2058SOL    HW216279   2.990   7.423   0.071  0.8284 -1.0190 -2.7902
 2059SOL     OW16280   1.467   5.310   2.288  0.4211  0.0903  0.1682
 2059SOL    HW116281   1.551   5.267   2.323 -0.3337 -0.9810  0.6648
 2059SOL    HW216282   1.444   5.388   2.346  0.8602  0.1528  0.2620
 2060SOL     OW16283   9.938   3.453   1.885  0.2871 -0.0309  0.7304
 2060SOL    HW116284  10.000   3.484   1.957  0.1965  1.0449  0.3549
 2060SOL    HW216285   9.990   3.427   1.805  0.3659 -0.8585  1.0527
 2061SOL     OW16286   1.621   1.043   2.225  0.7579  0.7840  0.4154
 2061SOL    HW116287   1.550   1.082   2.284  0.7753 -0.1030  1.0313
 2061SOL    HW216288   1.614   1.084   2.134  1.5636  3.1310  1.3747
 2062SOL     OW16289   9.919   4.950   2.443  0.0804  0.0303 -0.1237
 2062SOL    HW116290   9.893   4.960   2.539  2.5229  1.5045  0.4175
 2062SOL    HW216291   9.934   5.040   2.402 -2.4158 -0.5039 -2.3530
 2063SOL     OW16292   2.180   6.669   2.292  0.2588 -0.5518  0.7752
 2063SOL    HW116293   2.175   6.744   2.358  0.6144 -2.1249  2.6114
 2063SOL    HW216294   2.099   6.670   2.234  0.8600  2.0283 -0.1033
 2064SOL     OW16295   3.567   3.427   1.342  0.7082 -0.3440  0.3671
 2064SOL    HW116296   3.634   3.500   1.329  1.0985 -0.3931  1.9168
 2064SOL    HW216297   3.600   3.343   1.299  0.4065  0.3141 -1.1454
 2065SOL     OW16298   9.235   4.648   2.350  0.1040  0.1015 -0.2587
 2065SOL    HW116299   9.169   4.580   2.319 -0.5256  0.2439  0.7672
 2065SOL    HW216300   9.257   4.710   2.274  1.7068 -2.0249 -1.5760
 2066SOL     OW16301   1.886   7.829   1.110  0.1488  0.2321  0.3235
 2066SOL    HW116302   1.879   7.731   1.094  1.5935  0.3838 -1.4299
 2066SOL    HW216303   1.963   7.847   1.172  1.5122  0.4092 -1.3799
 2067SOL     OW16304   2.536   8.344   1.840 -0.4923  0.0581 -0.0984
 2067SOL    HW116305   2.536   8.405   1.919 -0.1957  0.4814 -0.4174
 2067SOL    HW216306   2.531   8.399   1.756 -1.7605 -0.4276 -0.3489
 2068SOL     OW16307   8.981   7.381   2.274 -0.6286 -0.3291 -0.1132
 2068SOL    HW116308   8.929   7.437   2.338  0.2274  0.9721 -0.5475
 2068SOL    HW216309   8.930   7.297   2.254 -1.6949  0.0680  0.9018
 2069SOL     OW16310   9.655   9.511   1.170  0.0024  0.0659 -0.1772
 2069SOL    HW116311   9.692   9.596   1.132  2.3901 -0.3307  1.1471
 2069SOL    HW216312   9.586   9.532   1.239 -0.2452  0.8892 -0.6708
 2070SOL     OW16313   1.292   1.873   1.504 -0.3115 -0.5623  0.2335
 2070SOL    HW116314   1.323   1.810   1.575 -1.3299  0.8517  1.9649
 2070SOL    HW216315   1.241   1.822   1.434 -0.8429 -1.7035  1.4396
 2071SOL     OW16316   1.682   5.186   1.829 -0.1879  0.0277 -0.0091
 2071SOL    HW116317   1.740   5.142   1.760 -0.1323  0.0625  0.0149
 2071SOL    HW216318   1.739   5.218   1.905 -0.5544 -2.5567  1.4262
 2072SOL     OW16319   2.572   2.922   0.232 -0.5428  0.2681  0.1100
 2072SOL    HW116320   2.605   2.981   0.305 -0.1507  0.0126  0.1393
 2072SOL    HW216321   2.637   2.923   0.156 -0.0550 -0.8908  0.5125
 2073SOL     OW16322   3.558   2.178   1.243  0.5881 -0.2999 -0.0526
 2073SOL    HW116323   3.484   2.162   1.308 -0.7106 -1.0508 -1.6785
 2073SOL    HW216324   3.636   2.119   1.265 -0.0470 -0.9368  0.4969
 2074SOL     OW16325   3.350   5.412   0.560 -0.1518 -0.1066 -0.0362
 2074SOL    HW116326   3.406   5.332   0.541  1.3838  0.7400  0.8271
 2074SOL    HW216327   3.310   5.447   0.475 -1.5243 -2.2513 -0.3180
 2075SOL     OW16328   5.017   3.295   0.764  0.3861  0.1856 -0.1675
 2075SOL    HW116329   4.966   3.219   0.804 -0.4487  0.7331 -0.1802
 2075SOL    HW216330   5.107   3.301   0.807 -0.7526  1.2094  2.1740
 2076SOL     OW16331   0.841   7.700   2.489 -0.1174  0.0294  0.1714
 2076SOL    HW116332   0.814   7.613   2.447 -0.5246 -0.4193  1.3597
 2076SOL    HW216333   0.761   7.761   2.493  0.3040  0.7114 -1.2275
 2077SOL     OW16334   2.843   3.232   1.591  0.3787 -0.1296  0.1289
 2077SOL    HW116335   2.894   3.146   1.593  2.8557  1.3208  2.9137
 2077SOL    HW216336   2.882   3.293   1.522  0.0636 -0.3904 -0.2804
 2078SOL     OW16337   0.737   8.256   0.560  0.4401  0.0202 -0.0914
 2078SOL    HW116338   0.650   8.255   0.512  0.9829 -1.3748 -1.0804
 2078SOL    HW216339   0.807   8.297   0.502  0.6385  0.3222  0.3543
 2079SOL     OW16340   0.583   3.846   1.293 -0.2676 -0.0751 -0.0443
 2079SOL    HW116341   0.503   3.855   1.353  0.7844  0.9205  1.2492
 2079SOL    HW216342   0.651   3.787   1.337  1.0189  1.6256  0.3427
 2080SOL     OW16343   9.471   2.122   2.422  0.3979 -0.5977 -0.1225
 2080SOL    HW116344   9.430   2.114   2.513 -1.9573  0.9631 -1.0016
 2080SOL    HW216345   9.470   2.033   2.377 -0.3865 -0.9291  0.5457
 2081SOL     OW16346   1.112   5.372   0.148 -0.0306 -0.0563 -0.5425
 2081SOL    HW116347   1.184   5.317   0.108  0.2147  0.9065 -1.4450
 2081SOL    HW216348   1.023   5.337   0.119  0.0609 -1.2501  0.5812
 2082SOL     OW16349   3.288   6.772   2.102 -0.2999  0.6480 -0.4888
 2082SOL    HW116350   3.212   6.738   2.048  0.6868  0.9638 -2.1035
 2082SOL    HW216351   3.317   6.861   2.067  0.6290  0.6726  0.3051
 2083SOL     OW16352   3.290   2.095   0.212  0.0578 -0.2851  0.0717
 2083SOL    HW116353   3.277   2.187   0.174 -0.0699 -0.4225 -0.2192
 2083SOL    HW216354   3.299   2.101   0.312  0.7843  0.1176 -0.0167
 2084SOL     OW16355   2.942   5.076   2.052  0.3117  0.3972 -0.3245
 2084SOL    HW116356   2.930   5.014   1.975  1.4954  0.0722 -0.2645
 2084SOL    HW216357   3.004   5.034   2.119 -0.1280  0.9816  0.4582
 2085SOL     OW16358  10.308   0.522   1.094 -0.2628  0.3232  0.2962
 2085SOL    HW116359  10.217   0.503   1.058 -0.1219 -0.7291  0.4892
 2085SOL    HW216360  10.304   0.531   1.194 -0.1522  0.2409  0.3088
 2086SOL     OW16361   0.440   0.184   2.513  0.4965  0.4026 -0.4219
 2086SOL    HW116362   0.536   0.159   2.498  0.8152  0.0994  1.8790
 2086SOL    HW216363   0.410   0.246   2.441  3.1112  2.2172 -0.0458
 2087SOL     OW16364   3.248   3.340   2.274  0.2877 -0.3012  0.5193
 2087SOL    HW116365   3.289   3.395   2.346  0.1405  2.0310 -1.1323
 2087SOL    HW216366   3.315   3.324   2.202  0.2057 -1.9756  0.7902
 2088SOL     OW16367   0.536   9.319   0.490 -0.1587  0.3171 -0.0193
 2088SOL    HW116368   0.605   9.247   0.501  1.2884  1.4950 -1.2150
 2088SOL    HW216369   0.449   9.277   0.463  0.4407 -1.0554  0.1340
 2089SOL     OW16370   9.258   5.752   0.511 -0.1926 -0.3036 -0.0542
 2089SOL    HW116371   9.306   5.673   0.472  0.1741  0.9427 -2.1990
 2089SOL    HW216372   9.160   5.741   0.498 -0.0447  0.3618 -1.8975
 2090SOL     OW16373   2.771   1.152   1.932  0.1069 -0.2521  0.1284
 2090SOL    HW116374   2.737   1.112   1.847 -1.3485  0.1352  0.5111
 2090SOL    HW216375   2.865   1.182   1.919  0.2714 -1.2057 -1.0121
 2091SOL     OW16376   9.712   9.920   1.295  0.1832  0.1160  0.5503
 2091SOL    HW116377   9.765  10.004   1.284  1.8452 -0.7936  1.3308
 2091SOL    HW216378   9.615   9.941   1.301  0.4777  1.8566 -0.6080
 2092SOL     OW16379   1.722   9.695   1.608  0.3914 -0.8061 -0.2211
 2092SOL    HW116380   1.703   9.603   1.574 -2.4649 -0.5164  0.3853
 2092SOL    HW216381   1.819   9.704   1.630  0.6582 -3.7553 -0.0228
 2093SOL     OW16382   4.417   9.403   2.141 -0.8110 -0.1293 -0.6139
 2093SOL    HW116383   4.396   9.488   2.093 -0.0236  0.7355  0.5340
 2093SOL    HW216384   4.516   9.393   2.151 -0.9736  0.5926  2.2973
 2094SOL     OW16385   1.425   6.758   0.298 -0.6507 -0.0545 -0.1600
 2094SOL    HW116386   1.437   6.663   0.328  1.0859  0.4814  0.8746
 2094SOL    HW216387   1.332   6.788   0.319 -0.7136 -1.0066  0.9758
 2095SOL     OW16388   1.558   8.993   1.478 -0.1767  0.3179  0.0072
 2095SOL    HW116389   1.516   9.068   1.427 -0.8445  0.5381  0.8650
 2095SOL    HW216390   1.492   8.919   1.488 -0.1235  0.3654  0.7321
 2096SOL     OW16391   4.189   5.103   1.501  0.0625  0.5071 -0.0039
 2096SOL    HW116392   4.096   5.125   1.471  0.4997  0.4962 -1.3583
 2096SOL    HW216393   4.195   5.114   1.601 -0.9249  2.1586 -0.1178
 2097SOL     OW16394   1.545   8.646   0.795 -0.3617 -0.0683 -0.2861
 2097SOL    HW116395   1.445   8.654   0.790 -0.3486  0.0909 -0.2718
 2097SOL    HW216396   1.570   8.549   0.799 -0.3845 -0.2659 -3.5231
 2098SOL     OW16397   4.726   9.312   2.185  0.3163  0.4196  0.2951
 2098SOL    HW116398   4.723   9.217   2.155 -1.0816  0.7441 -0.6557
 2098SOL    HW216399   4.821   9.340   2.199  0.7374 -1.0929  0.5142
 2099SOL     OW16400   1.976   8.423   1.495 -0.4395 -0.1294  0.1723
 2099SOL    HW116401   2.017   8.514   1.490 -0.9431  0.0121 -1.8687
 2099SOL    HW216402   1.966   8.396   1.590  0.3535  1.6646  0.7823
 2100SOL     OW16403  10.142   9.803   1.403  0.1465 -0.2508 -1.0985
 2100SOL    HW116404  10.233   9.764   1.391  0.1483 -0.2750 -1.0126
 2100SOL    HW216405  10.129   9.878   1.338  0.0335 -0.5885 -1.4650
 2101SOL     OW16406   0.737   8.466   2.455  0.2223 -0.1797 -0.0274
 2101SOL    HW116407   0.834   8.447   2.470  0.3029 -0.7773 -1.2044
 2101SOL    HW216408   0.728   8.543   2.392  0.0021 -2.1362 -2.4958
 2102SOL     OW16409   2.868   8.820   1.392 -0.1075  0.0503 -0.2109
 2102SOL    HW116410   2.883   8.906   1.442 -1.7011  0.8080 -1.0304
 2102SOL    HW216411   2.926   8.749   1.432  1.5674  1.5949  0.1965
 2103SOL     OW16412   2.011   1.125   0.433  0.2029  0.5965  0.0661
 2103SOL    HW116413   2.074   1.073   0.375  0.0150 -0.3886  0.7342
 2103SOL    HW216414   2.064   1.192   0.487  0.4666  0.9641 -0.6343
 2104SOL     OW16415   9.721   9.443   2.514  0.3932 -0.1377 -0.0019
 2104SOL    HW116416   9.787   9.485   2.452  0.4571  0.4438  0.4635
 2104SOL    HW216417   9.632   9.488   2.503  0.0658 -0.9077 -0.6165
 2105SOL     OW16418   2.525   1.908   0.668  0.1656 -0.6567 -0.0321
 2105SOL    HW116419   2.439   1.892   0.621 -0.2354 -0.9023  0.7924
 2105SOL    HW216420   2.581   1.825   0.666 -0.7582 -1.3399  1.8167
 2106SOL     OW16421  10.138   7.364   2.138 -0.1847  0.6268 -0.1177
 2106SOL    HW116422  10.092   7.391   2.053  0.1240  3.4136  0.5668
 2106SOL    HW216423  10.080   7.386   2.216  0.2512 -0.3861  0.5072
 2107SOL     OW16424   1.517   7.815   0.446  0.2624  0.5756 -0.1041
 2107SOL    HW116425   1.423   7.816   0.411 -0.0797  2.4485  0.8223
 2107SOL    HW216426   1.575   7.762   0.384 -1.4620 -0.9109 -0.5024
 2108SOL     OW16427   3.640   2.382   1.561 -0.1071  0.5112  0.8073
 2108SOL    HW116428   3.589   2.297   1.575  1.0142 -0.2136  0.5868
 2108SOL    HW216429   3.735   2.360   1.539  0.4860  1.8446  1.9767
 2109SOL     OW16430   9.022   3.249   0.467  0.3392 -0.0082 -0.4762
 2109SOL    HW116431   9.060   3.160   0.490  0.0114 -0.3687 -1.3198
 2109SOL    HW216432   9.092   3.304   0.420  0.4662  0.0933 -0.1709
 2110SOL     OW16433   2.259   5.841   1.851  0.2584  0.0255  0.0040
 2110SOL    HW116434   2.165   5.876   1.855  0.7466  1.5154 -1.0344
 2110SOL    HW216435   2.285   5.808   1.942 -0.7259  1.0624  0.6905
 2111SOL     OW16436   2.434   4.054   2.052 -0.3856 -0.0287 -0.2055
 2111SOL    HW116437   2.430   4.141   2.003 -0.8207 -0.1338 -0.3668
 2111SOL    HW216438   2.529   4.024   2.061 -0.2094  0.6263  0.1456
 2112SOL     OW16439  10.294   2.645   1.186  0.1683 -0.2823  0.6282
 2112SOL    HW116440  10.388   2.648   1.222  0.2527  0.4705  0.3623
 2112SOL    HW216441  10.283   2.563   1.129  1.0346  0.2360 -0.3154
 2113SOL     OW16442   2.699   3.047   0.735 -0.1742 -0.2337  0.0633
 2113SOL    HW116443   2.761   3.094   0.672 -1.5629  0.2632 -0.9635
 2113SOL    HW216444   2.705   3.089   0.825  0.9366 -0.1642 -0.0278
 2114SOL     OW16445   0.497   8.875   0.498  0.1280 -0.1575  0.1858
 2114SOL    HW116446   0.571   8.808   0.488  1.0363  0.9560 -0.6537
 2114SOL    HW216447   0.456   8.892   0.408  0.9194  1.5533  0.1331
 2115SOL     OW16448   2.140   4.527   0.850 -0.3884 -0.2307 -0.1620
 2115SOL    HW116449   2.142   4.603   0.914 -2.1938 -0.5738  0.3473
 2115SOL    HW216450   2.046   4.493   0.842  0.0490 -1.0944 -1.9258
 2116SOL     OW16451   5.036   4.035   1.789 -0.3160 -0.1972  0.5585
 2116SOL    HW116452   5.068   4.103   1.855  2.7111  0.6556 -1.6956
 2116SOL    HW216453   4.990   3.961   1.838  0.2309  1.2768  3.4438
 2117SOL     OW16454   4.806   1.548   2.572 -0.3281 -0.2248  0.0352
 2117SOL    HW116455   4.740   1.622   2.556  0.4283  0.7578  1.3820
 2117SOL    HW216456   4.774   1.465   2.525 -2.9037  0.0289  1.2119
 2118SOL     OW16457   0.404   2.439   2.646  0.1645  0.1642  0.3513
 2118SOL    HW116458   0.314   2.480   2.634  0.7482  1.3067 -0.2160
 2118SOL    HW216459   0.415   2.409   2.741 -1.0847 -0.6610  0.2458
 2119SOL     OW16460   1.890   4.413   1.716  0.2445 -0.0628  0.1287
 2119SOL    HW116461   1.919   4.504   1.686  0.2079  0.0287  0.3697
 2119SOL    HW216462   1.791   4.413   1.729 -0.1266 -0.8370 -2.3402
 2120SOL     OW16463   2.276   2.271   0.958 -0.0478  0.0038 -0.2987
 2120SOL    HW116464   2.368   2.230   0.959  0.5169  1.2480  1.0495
 2120SOL    HW216465   2.284   2.369   0.941 -1.1419  0.1150 -0.1735
 2121SOL     OW16466   1.520   6.187   2.493  0.1211 -0.4474 -0.7106
 2121SOL    HW116467   1.437   6.173   2.547 -0.1969 -0.5379 -1.2167
 2121SOL    HW216468   1.578   6.106   2.500  0.5133 -0.0853  0.2427
 2122SOL     OW16469   3.411   2.552   0.074 -0.7366 -0.6387  0.4875
 2122SOL    HW116470   3.369   2.594  -0.007 -2.3691 -2.6894  0.2439
 2122SOL    HW216471   3.475   2.481   0.045  1.2754  0.9262  0.9381
 2123SOL     OW16472   2.958   5.153   2.790  0.3111  0.5012  0.3348
 2123SOL    HW116473   2.871   5.107   2.776  1.2776 -2.4467  3.3783
 2123SOL    HW216474   2.942   5.249   2.812 -2.0751  0.2174 -0.0443
 2124SOL     OW16475   0.985   8.842   2.800 -0.0796  0.2805  0.2283
 2124SOL    HW116476   0.985   8.940   2.785 -2.0298  0.2590  0.0156
 2124SOL    HW216477   0.907   8.801   2.753 -0.0404 -1.1955  1.4096
 2125SOL     OW16478   3.452   6.100   1.642 -0.4593  0.1225  0.3334
 2125SOL    HW116479   3.400   6.014   1.643 -1.4142  0.6996  0.2184
 2125SOL    HW216480   3.549   6.079   1.655 -0.7949 -0.8951  1.2969
 2126SOL     OW16481   1.715   2.946   2.198 -0.1697 -0.0111 -0.3152
 2126SOL    HW116482   1.808   2.978   2.213 -0.6592  1.3894 -0.2020
 2126SOL    HW216483   1.651   3.023   2.207 -1.2935 -0.8685 -0.8211
 2127SOL     OW16484  10.332   6.987   0.870 -0.2406 -0.0066 -0.5837
 2127SOL    HW116485  10.321   7.087   0.866  0.1166 -0.0047 -1.5988
 2127SOL    HW216486  10.429   6.964   0.860 -0.3226 -0.4594 -0.3411
 2128SOL     OW16487   2.106   3.511   1.458 -0.2317 -0.6226  0.1221
 2128SOL    HW116488   2.205   3.493   1.462 -0.5420 -2.3662  0.2047
 2128SOL    HW216489   2.071   3.526   1.551 -0.0936 -0.2169  0.1116
 2129SOL     OW16490   1.233   3.846   2.001  0.2475  0.1589 -0.6631
 2129SOL    HW116491   1.199   3.782   1.932  1.5084 -0.4657 -0.7212
 2129SOL    HW216492   1.317   3.889   1.968 -0.3439  1.5166 -0.4272
 2130SOL     OW16493   1.104   9.244   1.083 -0.5860 -0.1013 -0.2808
 2130SOL    HW116494   1.168   9.321   1.075 -1.4218  0.8447  1.8284
 2130SOL    HW216495   1.046   9.242   1.002 -0.9611  1.8821 -0.0866
 2131SOL     OW16496   2.784   8.932   2.645  0.5891 -0.0251 -0.2709
 2131SOL    HW116497   2.850   8.947   2.718  0.7834 -1.0283 -0.2304
 2131SOL    HW216498   2.811   8.983   2.564  1.3374 -0.3010 -0.2023
 2132SOL     OW16499   1.062   7.862   2.564  0.0207 -0.2838 -0.2860
 2132SOL    HW116500   1.011   7.791   2.516  0.4494 -1.6287  1.1998
 2132SOL    HW216501   1.159   7.853   2.545  0.0443  0.1304 -0.3737
 2133SOL     OW16502   4.352   0.278   0.260  0.1999  0.4130 -0.4489
 2133SOL    HW116503   4.340   0.211   0.334  0.8147 -0.6505 -1.2935
 2133SOL    HW216504   4.421   0.345   0.286  2.4528 -1.5745 -1.1330
 2134SOL     OW16505   4.869   2.106   1.382 -0.2849  0.5301 -0.6599
 2134SOL    HW116506   4.935   2.129   1.454 -0.0270 -0.3840 -0.5885
 2134SOL    HW216507   4.776   2.117   1.417 -0.2156 -3.0798  0.9496
 2135SOL     OW16508   3.244   1.974   0.702 -0.2783  0.0688  0.3520
 2135SOL    HW116509   3.153   1.954   0.738  0.1348 -1.4704  0.5602
 2135SOL    HW216510   3.313   1.944   0.767  0.3760  2.5948  0.8789
 2136SOL     OW16511   2.866   7.773   0.094 -0.5818 -0.3172  0.2814
 2136SOL    HW116512   2.875   7.873   0.099 -1.4586 -0.2217 -0.0076
 2136SOL    HW216513   2.805   7.749   0.018 -0.6513 -1.0597  0.5710
 2137SOL     OW16514  10.159   3.609   1.615 -0.2354 -0.2258 -0.6452
 2137SOL    HW116515  10.251   3.593   1.650 -0.7146 -1.1225  0.2363
 2137SOL    HW216516  10.134   3.704   1.628 -0.1866 -0.4162  0.9355
 2138SOL     OW16517   2.983   2.636   2.122 -0.2230 -0.2932 -0.4541
 2138SOL    HW116518   2.930   2.710   2.163 -1.4395 -1.4004 -0.0308
 2138SOL    HW216519   2.931   2.551   2.125  1.7019 -1.4812  0.3120
 2139SOL     OW16520   3.505   1.234   0.806 -0.4549 -0.0879 -0.0840
 2139SOL    HW116521   3.545   1.174   0.876 -0.0854  0.2677  0.0093
 2139SOL    HW216522   3.574   1.297   0.773 -0.8971  0.4226 -0.0391
 2140SOL     OW16523   3.090   8.120   0.436  0.0901 -0.0145 -0.3283
 2140SOL    HW116524   3.080   8.220   0.434 -0.9643 -0.1172 -0.4188
 2140SOL    HW216525   3.181   8.096   0.472  0.4566  0.9766 -0.5794
 2141SOL     OW16526   1.263   4.761   1.404 -0.4100  0.1589 -0.5295
 2141SOL    HW116527   1.292   4.793   1.314  0.7403 -1.0183 -0.5892
 2141SOL    HW216528   1.272   4.835   1.471  1.3676  0.2302 -0.8371
 2142SOL     OW16529   9.668   1.509   1.038  0.3467 -0.2968  0.6768
 2142SOL    HW116530   9.617   1.496   0.953 -0.1909 -0.8853  1.0924
 2142SOL    HW216531   9.747   1.448   1.039  0.1462 -0.5554  0.7642
 2143SOL     OW16532   3.925   1.582   1.172  0.4535  0.2568  0.2763
 2143SOL    HW116533   4.004   1.638   1.195 -0.7867  2.2030 -0.1311
 2143SOL    HW216534   3.954   1.487   1.161  2.5019  0.7286  1.3943
 2144SOL     OW16535   3.275   1.338   1.251 -0.7727 -0.1749 -0.4810
 2144SOL    HW116536   3.212   1.413   1.269 -1.0075  0.2879 -3.1274
 2144SOL    HW216537   3.361   1.354   1.300 -1.1075  1.3905 -0.3926
 2145SOL     OW16538   4.341   5.684   0.957 -0.2236 -0.3677  0.7381
 2145SOL    HW116539   4.266   5.738   0.996 -0.3382  0.7638 -1.0187
 2145SOL    HW216540   4.425   5.701   1.010 -0.3713  1.1588  0.4912
 2146SOL     OW16541   2.379   6.702   2.112  0.2945 -0.4314 -0.2094
 2146SOL    HW116542   2.369   6.617   2.061 -0.6031 -1.4629  1.6500
 2146SOL    HW216543   2.325   6.698   2.196  1.0775  1.5663  0.4355
 2147SOL     OW16544   1.466   4.489   0.874  0.1705 -0.4864 -0.5047
 2147SOL    HW116545   1.402   4.543   0.929  1.6934  1.4665 -0.5828
 2147SOL    HW216546   1.420   4.407   0.839 -1.4499 -0.5775  1.7846
 2148SOL     OW16547   1.938   2.309   1.963 -0.1969 -0.0638  0.0400
 2148SOL    HW116548   1.863   2.376   1.960 -0.1412  0.0328  0.7182
 2148SOL    HW216549   1.914   2.235   2.026  0.2896 -0.0147  0.2823
 2149SOL     OW16550   1.355   7.663   2.264 -0.1361  0.1727  0.5418
 2149SOL    HW116551   1.323   7.572   2.291 -3.6418  1.2862  0.4454
 2149SOL    HW216552   1.338   7.677   2.167  3.8794 -0.3682 -0.3440
 2150SOL     OW16553   1.550   7.006   1.802  0.9046  0.1193 -0.2284
 2150SOL    HW116554   1.623   7.047   1.748 -0.4492  2.0443 -0.6380
 2150SOL    HW216555   1.462   7.029   1.762 -0.0137 -0.5634  1.3556
 2151SOL     OW16556   2.121   9.905   1.943  0.5930  0.2122  0.2574
 2151SOL    HW116557   2.052   9.974   1.962 -0.7711 -1.7224  2.5455
 2151SOL    HW216558   2.180   9.893   2.022  2.4616  0.5685 -1.0442
 2152SOL     OW16559   8.931   3.126   0.125  0.4419  0.0914 -0.5356
 2152SOL    HW116560   9.006   3.079   0.171  0.2730  1.4204  1.1456
 2152SOL    HW216561   8.953   3.223   0.117 -0.8154  0.3710 -0.6129
 2153SOL     OW16562   9.083   5.865   1.782 -0.6179 -0.3942 -0.1831
 2153SOL    HW116563   9.057   5.882   1.877  0.8262  1.3401 -0.0543
 2153SOL    HW216564   9.176   5.829   1.779 -0.5197 -0.0853 -0.9505
 2154SOL     OW16565   9.650   9.288   0.915 -0.6349  0.5967  0.0579
 2154SOL    HW116566   9.704   9.284   0.998 -0.9110  3.2747  0.4146
 2154SOL    HW216567   9.634   9.384   0.890 -1.5938 -0.1615 -2.3878
 2155SOL     OW16568   9.720   9.785   1.526  0.0302 -0.1458 -0.0088
 2155SOL    HW116569   9.787   9.831   1.584 -0.3505 -0.3253  0.5725
 2155SOL    HW216570   9.731   9.817   1.431  1.2685 -0.5660 -0.0121
 2156SOL     OW16571   0.812   8.428   0.096 -0.4171 -0.0012  0.2535
 2156SOL    HW116572   0.753   8.353   0.125  1.2424 -1.1532  0.7742
 2156SOL    HW216573   0.875   8.396   0.026 -0.6326  1.2919 -0.5512
 2157SOL     OW16574  10.126   7.519   0.651  0.0306  0.5983 -0.6916
 2157SOL    HW116575  10.176   7.531   0.566 -1.3173  1.6324 -1.3713
 2157SOL    HW216576  10.041   7.469   0.633 -0.2480  0.7920  0.0522
 2158SOL     OW16577   1.232   8.988   1.951  0.0999 -0.2632 -0.4144
 2158SOL    HW116578   1.239   9.083   1.984  1.6539 -1.1410  1.9387
 2158SOL    HW216579   1.309   8.968   1.891  0.4398 -0.3728  0.0497
 2159SOL     OW16580   1.319   4.451   2.681 -0.1918  0.5475  0.4281
 2159SOL    HW116581   1.271   4.537   2.661  0.3105  0.4162 -1.4228
 2159SOL    HW216582   1.394   4.439   2.617  0.3897 -0.7764  1.3440
 2160SOL     OW16583   3.781   4.528   0.965  0.1033 -0.5648  0.3948
 2160SOL    HW116584   3.731   4.556   0.883  0.2966 -1.3690 -0.0030
 2160SOL    HW216585   3.740   4.571   1.045  0.3490  0.7867 -0.1951
 2161SOL     OW16586   0.594   4.701   0.382 -0.1208 -0.0433  0.0383
 2161SOL    HW116587   0.531   4.756   0.327  1.6466  0.3790 -1.6586
 2161SOL    HW216588   0.593   4.607   0.349 -0.4185 -0.2053  0.5082
 2162SOL     OW16589   8.966   6.111   0.205 -0.0052  0.1283 -0.1704
 2162SOL    HW116590   9.048   6.137   0.257  0.3820 -1.8834  0.2743
 2162SOL    HW216591   8.994   6.062   0.122 -0.7870 -2.8344  1.2618
 2163SOL     OW16592   1.510   0.834   0.634 -0.3610 -0.5677  0.1419
 2163SOL    HW116593   1.433   0.812   0.575 -0.0986 -0.3634 -0.2801
 2163SOL    HW216594   1.479   0.896   0.707 -0.8105 -1.2840  0.5713
 2164SOL     OW16595   0.600   1.573   0.999  0.0094  0.1753 -0.0523
 2164SOL    HW116596   0.553   1.659   1.018  0.5043  0.3463  0.4049
 2164SOL    HW216597   0.677   1.590   0.937  0.8391  0.2612  0.9893
 2165SOL     OW16598   9.858   0.371   1.811 -0.2288 -0.5027 -1.0007
 2165SOL    HW116599   9.842   0.451   1.869 -1.3612 -2.4582  1.4634
 2165SOL    HW216600   9.948   0.332   1.831  0.4183  0.2519 -2.3641
 2166SOL     OW16601   1.623   2.136   0.153 -0.6022  0.8979  0.0213
 2166SOL    HW116602   1.654   2.174   0.067  1.9558 -0.9032  0.0698
 2166SOL    HW216603   1.544   2.077   0.137 -0.1085  0.5304 -1.1011
 2167SOL     OW16604   0.715   4.353   1.499 -0.3721  0.0095  0.3502
 2167SOL    HW116605   0.784   4.297   1.545 -1.2655  0.6605  2.5153
 2167SOL    HW216606   0.749   4.378   1.408  1.1561 -1.7903  0.3759
 2168SOL     OW16607   1.958   4.676   0.128 -0.0616  0.2182  0.4571
 2168SOL    HW116608   1.875   4.631   0.095  2.3113 -2.0635 -2.7522
 2168SOL    HW216609   2.013   4.611   0.180  0.8281  0.9865  0.4900
 2169SOL     OW16610   4.088   9.242   0.621  0.1476 -0.3983  0.0708
 2169SOL    HW116611   4.028   9.207   0.549 -0.3598 -0.9625  0.7570
 2169SOL    HW216612   4.036   9.301   0.682  0.5969  0.1427 -0.0701
 2170SOL     OW16613   1.067   9.160   2.616 -0.7179 -0.0237  0.2132
 2170SOL    HW116614   1.146   9.102   2.635 -0.9506 -0.0608  1.0591
 2170SOL    HW216615   1.061   9.176   2.517 -2.2992 -3.7606 -0.3540
 2171SOL     OW16616   0.745   3.087   0.192 -0.0656  0.3928  0.1925
 2171SOL    HW116617   0.662   3.112   0.143  0.6432  0.8102 -0.8178
 2171SOL    HW216618   0.729   3.006   0.247 -1.6699  1.5543  1.4776
 2172SOL     OW16619   3.976   5.695   0.934 -0.3827  0.2709 -0.1502
 2172SOL    HW116620   4.003   5.611   0.981 -2.8888  0.1221  1.0667
 2172SOL    HW216621   4.022   5.773   0.977  0.1680 -0.2472  0.2070
 2173SOL     OW16622   3.648   4.760   2.563  0.7665  0.1225  0.3674
 2173SOL    HW116623   3.669   4.700   2.641 -0.3733 -0.6336  0.1035
 2173SOL    HW216624   3.622   4.704   2.484  1.9868  0.8779 -0.5880
 2174SOL     OW16625   1.372   6.128   1.930 -0.4312  0.2373  0.0346
 2174SOL    HW116626   1.291   6.087   1.888 -0.2916  1.0317 -1.0441
 2174SOL    HW216627   1.346   6.181   2.011 -1.0351  0.7617 -0.5003
 2175SOL     OW16628   3.185   8.839   2.517 -0.2831  0.6580 -0.5752
 2175SOL    HW116629   3.209   8.930   2.482  0.9427  0.7231  0.4136
 2175SOL    HW216630   3.126   8.849   2.597  2.2619  0.6956  1.3642
 2176SOL     OW16631   2.064   1.402   1.884 -0.2494  0.2515  0.2512
 2176SOL    HW116632   2.113   1.321   1.917  1.8801  0.8558 -1.2687
 2176SOL    HW216633   2.001   1.375   1.811  2.4425  0.2434 -2.1793
 2177SOL     OW16634  10.088   8.334   2.393 -0.2354  0.5981  0.4765
 2177SOL    HW116635  10.029   8.371   2.466 -1.0163  0.3620 -0.0231
 2177SOL    HW216636  10.074   8.235   2.386 -1.7914  0.9258 -1.4196
 2178SOL     OW16637   1.214   7.308   0.777 -0.0484  0.4515  0.0612
 2178SOL    HW116638   1.117   7.326   0.761  0.3869  2.2677 -0.5815
 2178SOL    HW216639   1.268   7.339   0.699  1.1666  0.4723  0.8896
 2179SOL     OW16640   1.241   7.832   0.412  0.5528 -0.1419 -0.2675
 2179SOL    HW116641   1.256   7.738   0.383 -0.1392 -0.4123  0.2585
 2179SOL    HW216642   1.171   7.835   0.483  0.1237  0.8326 -0.7240
 2180SOL     OW16643   3.230   7.614   1.653  0.2353  0.2819  0.0802
 2180SOL    HW116644   3.170   7.602   1.731  0.6247  2.7737  0.8269
 2180SOL    HW216645   3.178   7.603   1.568 -1.0750  1.4266  0.7166
 2181SOL     OW16646   4.306   0.730   2.511  0.3236 -0.1187  0.5793
 2181SOL    HW116647   4.300   0.753   2.414 -2.6362  1.7534  1.1097
 2181SOL    HW216648   4.251   0.649   2.530 -1.2404  1.0211  1.0601
 2182SOL     OW16649   3.790   3.166   1.473  0.0579  0.2100 -0.6629
 2182SOL    HW116650   3.700   3.133   1.502  0.4385  1.3829  1.9384
 2182SOL    HW216651   3.780   3.226   1.394 -1.4049  0.1561 -0.5228
 2183SOL     OW16652   1.255   0.329   2.270  0.5631  0.7078 -0.5790
 2183SOL    HW116653   1.159   0.329   2.241  0.6286 -0.4541 -0.8468
 2183SOL    HW216654   1.274   0.411   2.324 -0.8179  0.5088  0.2434
 2184SOL     OW16655   2.977   1.897   0.886 -0.1168  0.8157 -0.9109
 2184SOL    HW116656   2.934   1.954   0.955  2.5635  2.8043 -0.7683
 2184SOL    HW216657   2.955   1.801   0.902 -1.1985  1.4327  1.4609
 2185SOL     OW16658   9.710   1.832   2.438 -0.3100 -0.3718 -0.5738
 2185SOL    HW116659   9.738   1.752   2.385 -0.2317  0.9447 -2.5948
 2185SOL    HW216660   9.787   1.895   2.447 -0.1402 -0.8931  1.7241
 2186SOL     OW16661   1.533   4.521   2.150 -0.5081 -0.4837 -0.1942
 2186SOL    HW116662   1.450   4.511   2.096 -0.3959  0.0377 -0.4667
 2186SOL    HW216663   1.537   4.448   2.218 -0.0491 -1.8874 -1.6754
 2187SOL     OW16664   2.952   8.575   1.446  0.5902  0.2158 -0.0217
 2187SOL    HW116665   2.893   8.517   1.390  1.2998 -0.1578 -0.3855
 2187SOL    HW216666   2.963   8.534   1.537  0.7414  0.0052 -0.1362
 2188SOL     OW16667   3.756   9.992   1.151 -0.4582 -0.0630 -0.2054
 2188SOL    HW116668   3.688   9.972   1.221  0.5179 -0.2053  0.7121
 2188SOL    HW216669   3.718   9.971   1.061 -0.9458 -2.0334  0.4328
 2189SOL     OW16670   2.361   1.253   1.211  0.5808 -0.2067  0.7901
 2189SOL    HW116671   2.453   1.274   1.179  0.8459 -0.5674  1.2996
 2189SOL    HW216672   2.363   1.240   1.310 -0.2478  1.0463  0.9839
 2190SOL     OW16673   2.421   1.772   1.365  0.5092 -0.0118  0.0665
 2190SOL    HW116674   2.490   1.702   1.384  0.2261  0.1948  1.9309
 2190SOL    HW216675   2.392   1.765   1.270  0.0376 -2.8372  0.3802
 2191SOL     OW16676  10.217   4.704   0.121  0.2292  0.6476 -0.0835
 2191SOL    HW116677  10.215   4.772   0.048 -1.5516 -0.4275 -1.0945
 2191SOL    HW216678  10.129   4.703   0.169  0.5509 -0.2872  0.5176
 2192SOL     OW16679   4.227   1.966   1.111 -0.5636 -0.0819  0.0919
 2192SOL    HW116680   4.264   1.891   1.166  3.1726  1.6461  0.0424
 2192SOL    HW216681   4.146   2.004   1.157 -0.5567 -2.0136  1.7480
 2193SOL     OW16682   2.037   8.160   0.103 -0.2672  0.3738 -0.3582
 2193SOL    HW116683   2.090   8.083   0.068  1.3042  0.9040  0.7851
 2193SOL    HW216684   2.049   8.166   0.202 -2.8740  0.2243  0.0210
 2194SOL     OW16685   4.186   2.634   2.096 -0.1594 -0.4453 -0.5888
 2194SOL    HW116686   4.127   2.577   2.039  0.3681 -0.0759 -1.5071
 2194SOL    HW216687   4.231   2.703   2.040 -0.8818  0.9673  0.5360
 2195SOL     OW16688   3.166   1.276   2.373 -0.1620  0.0543  0.3273
 2195SOL    HW116689   3.201   1.184   2.357  2.4142  0.7821  1.5667
 2195SOL    HW216690   3.129   1.312   2.287  1.0652 -1.1986 -0.7594
 2196SOL     OW16691   1.717   6.733   1.232 -0.3276 -0.0609  0.7549
 2196SOL    HW116692   1.795   6.690   1.279  0.4961  3.5829  2.9692
 2196SOL    HW216693   1.742   6.753   1.137  1.2755  0.4731  1.2584
 2197SOL     OW16694   2.470   5.791   1.677 -0.1349 -0.0199 -0.3961
 2197SOL    HW116695   2.449   5.754   1.586 -1.4690 -0.8388  0.2259
 2197SOL    HW216696   2.385   5.803   1.728  0.4912  1.6404  0.3010
 2198SOL     OW16697   0.738   1.787   0.836 -0.0100 -0.6498 -0.3623
 2198SOL    HW116698   0.816   1.750   0.885 -0.6744 -1.6531 -0.0565
 2198SOL    HW216699   0.767   1.819   0.746  1.0783  0.5459  0.3842
 2199SOL     OW16700   2.922   0.330   0.558  0.6232 -0.3668 -0.1727
 2199SOL    HW116701   2.965   0.377   0.481  1.3685 -1.7384 -0.6121
 2199SOL    HW216702   2.830   0.367   0.573  0.0688 -0.7771 -2.3975
 2200SOL     OW16703   1.049   0.745   0.500 -0.1271 -0.2681 -0.5294
 2200SOL    HW116704   1.088   0.701   0.581 -0.7287  0.8574  0.3992
 2200SOL    HW216705   1.005   0.677   0.442 -0.1534 -1.0164  0.3651
 2201SOL     OW16706  10.175   6.095   1.058 -0.4958  0.0930  0.4621
 2201SOL    HW116707  10.220   6.089   1.147 -1.9206  0.4657  1.2349
 2201SOL    HW216708  10.076   6.104   1.072 -1.0222 -2.5113 -1.2077
 2202SOL     OW16709   9.237   2.341   1.544 -0.5220  0.4867  0.0861
 2202SOL    HW116710   9.219   2.389   1.630 -0.2935  2.0023 -0.6909
 2202SOL    HW216711   9.197   2.394   1.468 -2.8242 -2.0267 -0.5237
 2203SOL     OW16712   1.822   0.927   0.554 -0.3418 -0.4447 -0.2931
 2203SOL    HW116713   1.731   0.964   0.575 -0.4622  0.9150 -3.0426
 2203SOL    HW216714   1.879   0.998   0.514  1.9815 -1.2993  1.3889
 2204SOL     OW16715   3.116   3.296   0.230  0.2198 -0.1625  0.3239
 2204SOL    HW116716   3.084   3.315   0.323 -0.2081 -0.4735  0.2370
 2204SOL    HW216717   3.207   3.336   0.219 -0.1682  0.8110  0.5353
 2205SOL     OW16718   0.581   2.397   1.104 -0.3417 -0.2754  0.1006
 2205SOL    HW116719   0.527   2.429   1.182  2.1897 -1.0580  2.2510
 2205SOL    HW216720   0.577   2.466   1.032 -1.4609  1.2090  1.5106
 2206SOL     OW16721   9.269   3.657   0.246  0.1328  0.2664 -0.8107
 2206SOL    HW116722   9.364   3.633   0.228  0.0288  0.2079 -1.2820
 2206SOL    HW216723   9.226   3.690   0.162 -0.5331 -0.6393 -0.8376
 2207SOL     OW16724   4.943   3.889   0.482  0.2291 -0.4413  0.6560
 2207SOL    HW116725   4.974   3.820   0.547  0.3383  1.2968  2.5108
 2207SOL    HW216726   4.942   3.978   0.527 -0.7669  0.6271 -1.4316
 2208SOL     OW16727   9.492   7.251   1.069 -0.5891  0.3300  0.5570
 2208SOL    HW116728   9.581   7.206   1.066 -1.0703 -0.6759  1.0213
 2208SOL    HW216729   9.461   7.271   0.976  0.2186  0.8846  0.4064
 2209SOL     OW16730   3.269   9.370   2.408  0.1543 -0.0721 -0.1356
 2209SOL    HW116731   3.310   9.442   2.463 -1.7351  1.4500 -0.6823
 2209SOL    HW216732   3.292   9.385   2.312  1.4328 -1.3635 -0.0525
 2210SOL     OW16733   1.341   0.089   0.983 -0.1908  0.2793  0.1038
 2210SOL    HW116734   1.416   0.085   1.049 -0.4735  1.0202  0.4652
 2210SOL    HW216735   1.294   0.177   0.990  0.1743  0.6298 -1.5100
 2211SOL     OW16736   1.224   2.656   2.461 -0.3281 -0.1401  0.3302
 2211SOL    HW116737   1.289   2.725   2.493  1.7421 -0.5336 -2.8773
 2211SOL    HW216738   1.271   2.569   2.446 -1.5358 -0.4099 -2.1777
 2212SOL     OW16739   0.379   8.221   0.627  0.1009 -0.2598 -0.5331
 2212SOL    HW116740   0.461   8.173   0.657  0.3840  0.8537  0.5134
 2212SOL    HW216741   0.384   8.317   0.655 -1.9170 -0.3562  0.2844
 2213SOL     OW16742  10.082   4.824   0.593 -0.3283  0.1129 -0.0296
 2213SOL    HW116743  10.041   4.864   0.676  0.3210  0.1146  0.2891
 2213SOL    HW216744  10.016   4.831   0.518 -1.2886 -0.7651  0.7162
 2214SOL     OW16745   4.371   4.482   1.705 -0.5138 -0.1297 -0.2689
 2214SOL    HW116746   4.286   4.522   1.738  1.0357  2.1261  1.0591
 2214SOL    HW216747   4.392   4.517   1.614 -1.4118 -1.3669 -0.9799
 2215SOL     OW16748   0.363   2.177   2.078 -0.1216  0.0919  0.2303
 2215SOL    HW116749   0.374   2.253   2.143  0.4541 -0.6280  0.9827
 2215SOL    HW216750   0.412   2.097   2.112 -0.8973 -0.6820 -0.4663
 2216SOL     OW16751   4.393   4.935   0.659  0.2169  0.0608  0.1234
 2216SOL    HW116752   4.383   5.031   0.687  2.3531  0.5358 -0.6329
 2216SOL    HW216753   4.401   4.877   0.740  1.1619  0.8125  0.5903
 2217SOL     OW16754   2.404   5.652   2.385  0.5463  0.2607 -0.4107
 2217SOL    HW116755   2.412   5.638   2.484  0.9838  1.3966 -0.2804
 2217SOL    HW216756   2.476   5.601   2.338 -0.2911 -1.1176 -0.2208
 2218SOL     OW16757   3.638   1.999   0.292  0.2912 -0.2912 -0.2968
 2218SOL    HW116758   3.557   1.947   0.265 -0.7645  1.1685  0.0370
 2218SOL    HW216759   3.651   1.992   0.391 -0.5315  1.0278 -0.0863
 2219SOL     OW16760   0.915   1.025   1.961  0.4105 -0.2545  0.1784
 2219SOL    HW116761   0.968   1.097   2.006 -0.2119 -0.1379  0.7211
 2219SOL    HW216762   0.976   0.971   1.903  1.1803 -0.2475  0.9582
 2220SOL     OW16763   9.440   8.951   0.119  0.0350  0.2645 -0.1783
 2220SOL    HW116764   9.385   8.918   0.196 -0.5230  1.1389 -0.1945
 2220SOL    HW216765   9.388   9.021   0.069  1.1428  1.0518 -0.2297
 2221SOL     OW16766   2.700   4.670   1.314 -0.5382  0.0449  0.4118
 2221SOL    HW116767   2.726   4.587   1.266  0.1744 -0.7931  2.1761
 2221SOL    HW216768   2.711   4.749   1.254 -2.6823 -1.2607 -1.7883
 2222SOL     OW16769   9.367   8.190   2.192 -0.0991 -0.4119  0.0528
 2222SOL    HW116770   9.306   8.111   2.191  2.1488 -2.1955 -1.2263
 2222SOL    HW216771   9.365   8.235   2.103  0.9902 -0.9552 -0.2622
 2223SOL     OW16772   8.983   3.676   0.606 -0.4727 -0.4086  0.1672
 2223SOL    HW116773   8.949   3.768   0.582  0.8610 -0.3520 -1.6322
 2223SOL    HW216774   8.921   3.607   0.570 -1.2945 -0.2290  1.2206
 2224SOL     OW16775   2.305   9.681   1.350 -0.0407  0.4606 -0.0910
 2224SOL    HW116776   2.233   9.615   1.370 -0.0867  0.8821  1.1756
 2224SOL    HW216777   2.286   9.724   1.261 -1.0080  0.1200 -0.0613
 2225SOL     OW16778   2.883   2.535   0.906 -0.5433  0.1641  0.0990
 2225SOL    HW116779   2.887   2.634   0.891  0.9355 -0.0708 -1.2527
 2225SOL    HW216780   2.792   2.502   0.881 -0.0520  0.7360 -2.6576
 2226SOL     OW16781   9.607   0.349   0.181  0.0611  0.3866  0.6916
 2226SOL    HW116782   9.596   0.358   0.082  1.9358  0.7312  0.5034
 2226SOL    HW216783   9.545   0.412   0.227 -1.5816 -0.5241 -0.2372
 2227SOL     OW16784   2.542   9.753   2.093 -0.0034 -0.1970  0.9010
 2227SOL    HW116785   2.592   9.738   2.178 -0.0130 -0.5899  0.8402
 2227SOL    HW216786   2.606   9.759   2.017  0.1959  2.8343  1.2729
 2228SOL     OW16787   1.428   9.455   1.834 -0.3797  0.1719  0.3294
 2228SOL    HW116788   1.446   9.472   1.931 -1.6386 -1.3986  0.8677
 2228SOL    HW216789   1.433   9.357   1.816  0.9872  0.5510 -1.4515
 2229SOL     OW16790   2.337   5.949   2.807  0.1771  0.5427 -0.1067
 2229SOL    HW116791   2.333   5.904   2.718  0.9281 -0.2699  0.2646
 2229SOL    HW216792   2.395   5.896   2.868  0.5348  1.6799  0.5419
 2230SOL     OW16793   2.989   6.380   2.276 -0.2885 -0.0816 -0.0515
 2230SOL    HW116794   3.056   6.369   2.350 -0.7954  3.3815  1.0106
 2230SOL    HW216795   3.037   6.383   2.188  0.8674  1.3320  0.6154
 2231SOL     OW16796   3.476   7.918   1.458 -0.2570  0.4058  0.3003
 2231SOL    HW116797   3.389   7.966   1.454 -0.0265  0.8005  0.0883
 2231SOL    HW216798   3.540   7.957   1.392 -0.0893 -0.2281  0.0787
 2232SOL     OW16799   1.333   2.006   0.709 -0.2917 -0.3807 -0.1439
 2232SOL    HW116800   1.374   1.976   0.795  0.7350 -2.3848 -1.3028
 2232SOL    HW216801   1.404   2.011   0.639 -0.9536  2.1262 -0.6808
 2233SOL     OW16802   9.377   5.485   0.410 -0.0912 -0.1020 -0.7391
 2233SOL    HW116803   9.427   5.422   0.469  0.0440  0.5089 -0.1967
 2233SOL    HW216804   9.416   5.484   0.318 -0.3767 -1.1450 -0.8508
 2234SOL     OW16805   4.253   9.415   1.710  0.4167  0.1979 -0.3364
 2234SOL    HW116806   4.334   9.422   1.652  0.0330  1.3955 -0.7453
 2234SOL    HW216807   4.232   9.505   1.749 -1.0965  0.0560 -0.7870
 2235SOL     OW16808   1.072   0.444   2.541  0.5961 -0.6028  0.7320
 2235SOL    HW116809   1.051   0.452   2.638 -0.2645  0.0203  0.4995
 2235SOL    HW216810   0.987   0.439   2.489  1.0439 -0.1820 -0.0526
 2236SOL     OW16811   9.812   0.513   2.504 -0.5723 -0.1543 -0.6049
 2236SOL    HW116812   9.893   0.458   2.482 -0.5450 -0.1798 -0.4341
 2236SOL    HW216813   9.773   0.482   2.590  0.8566  1.6911  0.7307
 2237SOL     OW16814   2.542   4.033   1.678 -0.6049 -0.5391 -0.2862
 2237SOL    HW116815   2.471   3.976   1.719 -0.4898 -0.8347 -0.4960
 2237SOL    HW216816   2.513   4.062   1.587  0.2359 -2.0221 -1.0508
 2238SOL     OW16817   1.292   5.347   1.509  0.3201  0.0358  0.4082
 2238SOL    HW116818   1.318   5.318   1.601  0.6345 -0.4259  0.1730
 2238SOL    HW216819   1.212   5.295   1.478  1.5603 -1.4105 -0.4581
 2239SOL     OW16820   2.697   0.133   1.682  0.2280  0.4873  0.3082
 2239SOL    HW116821   2.701   0.073   1.762 -1.3962  0.6852  0.5686
 2239SOL    HW216822   2.625   0.100   1.620  0.1309  1.4862 -0.1217
 2240SOL     OW16823   3.638   8.857   0.319  0.2927  0.0567  0.3070
 2240SOL    HW116824   3.667   8.895   0.407 -1.1656 -0.2408  0.9381
 2240SOL    HW216825   3.629   8.930   0.252  1.2790  0.3038  0.4368
 2241SOL     OW16826   1.096   6.876   0.414 -0.9837 -0.5589 -0.3607
 2241SOL    HW116827   1.148   6.817   0.476  1.0054  1.5699  0.0389
 2241SOL    HW216828   1.121   6.971   0.429 -0.7873  0.0625 -4.1432
 2242SOL     OW16829   1.425   4.915   0.635 -0.1989  0.4834  0.7444
 2242SOL    HW116830   1.350   4.965   0.679 -1.3217 -0.6040  0.1087
 2242SOL    HW216831   1.487   4.879   0.704 -1.7863 -0.9706  1.4474
 2243SOL     OW16832   2.532   3.473   0.928 -0.6018  0.0396  0.1397
 2243SOL    HW116833   2.608   3.501   0.987 -0.3004 -0.8802  0.2095
 2243SOL    HW216834   2.448   3.468   0.982 -0.6256  0.6416  0.1596
 2244SOL     OW16835   2.427   5.595   2.670 -0.3022 -0.1717 -0.3158
 2244SOL    HW116836   2.366   5.564   2.742  0.3161 -1.8407 -0.4930
 2244SOL    HW216837   2.518   5.609   2.707 -0.1422 -0.3642 -0.6415
 2245SOL     OW16838   1.227   7.155   0.408  0.2426 -0.3498 -0.0021
 2245SOL    HW116839   1.238   7.246   0.449  1.5361  0.6772 -2.5397
 2245SOL    HW216840   1.315   7.121   0.377 -0.5882 -1.4009 -1.2792
 2246SOL     OW16841   4.758   9.042   0.535 -0.0127 -0.1061  0.0931
 2246SOL    HW116842   4.744   8.980   0.613 -1.3373 -0.5720 -0.5079
 2246SOL    HW216843   4.739   8.992   0.450  2.4096  0.0966 -0.6012
 2247SOL     OW16844   3.632   0.975   2.100  0.0749 -0.1764 -0.5169
 2247SOL    HW116845   3.604   0.937   2.012 -0.2185 -1.0658 -0.0591
 2247SOL    HW216846   3.605   0.911   2.173  1.4848 -0.0775  0.1042
 2248SOL     OW16847   1.183   1.731   1.305  0.0615  0.0266  0.4300
 2248SOL    HW116848   1.191   1.657   1.237 -0.8422  0.4252 -0.1225
 2248SOL    HW216849   1.103   1.713   1.362  1.8684 -1.2969  2.6299
 2249SOL     OW16850   3.273   6.962   1.827 -0.2428 -0.3086  0.2673
 2249SOL    HW116851   3.185   7.006   1.840 -0.5330 -0.9837  0.6056
 2249SOL    HW216852   3.260   6.865   1.805  0.4124 -0.4374  0.4110
 2250SOL     OW16853   0.337   4.460   2.795  0.0601  0.2680  0.1635
 2250SOL    HW116854   0.437   4.461   2.785 -0.1429 -0.5067 -2.2503
 2250SOL    HW216855   0.308   4.541   2.845  2.1003 -0.7391  3.1269
 2251SOL     OW16856   1.934   7.964   1.534  0.1162 -0.0486 -0.1969
 2251SOL    HW116857   1.890   8.046   1.494  0.8550  0.2069 -0.4985
 2251SOL    HW216858   1.870   7.887   1.530  0.3039 -0.1323 -2.2778
 2252SOL     OW16859   9.721   7.568   0.893  0.1994 -0.0787  0.0875
 2252SOL    HW116860   9.632   7.613   0.902  0.8272  1.4895 -1.3164
 2252SOL    HW216861   9.710   7.470   0.908 -1.6934  0.1519  0.3698
 2253SOL     OW16862   0.936   5.116   1.256  0.3861  0.4458  0.0727
 2253SOL    HW116863   0.961   5.129   1.351  0.2064  1.7027 -0.0351
 2253SOL    HW216864   0.928   5.206   1.211  0.9778 -0.1398 -1.2515
 2254SOL     OW16865   3.987   9.091   0.169  0.3915 -0.3120 -0.3062
 2254SOL    HW116866   4.030   9.120   0.084 -0.9311  1.3633 -0.4114
 2254SOL    HW216867   3.888   9.093   0.159  0.2294 -0.3357  1.2014
 2255SOL     OW16868   1.560   7.849   1.891 -0.0863  0.1307  0.9057
 2255SOL    HW116869   1.505   7.915   1.941 -0.8163 -0.0599  0.3586
 2255SOL    HW216870   1.653   7.885   1.879  0.1517  0.0896  2.5511
 2256SOL     OW16871   1.775   2.814   0.948  0.3587  0.0818 -0.1374
 2256SOL    HW116872   1.781   2.743   0.877  0.6321 -0.1311  0.0967
 2256SOL    HW216873   1.781   2.771   1.038 -0.8589  0.2574  0.0354
 2257SOL     OW16874   0.401   7.427   1.894  0.1194  0.6671 -0.4557
 2257SOL    HW116875   0.417   7.329   1.882  1.5062  1.0220 -1.8108
 2257SOL    HW216876   0.376   7.446   1.989  0.8817 -0.8706  0.0695
 2258SOL     OW16877   0.748   2.121   2.732  0.1869 -0.2266  0.3295
 2258SOL    HW116878   0.686   2.111   2.809  0.7942  1.1826  1.0282
 2258SOL    HW216879   0.839   2.089   2.759 -0.3708 -3.0694 -0.9474
 2259SOL     OW16880   2.780   0.108   0.469 -0.2312 -0.0703  0.0754
 2259SOL    HW116881   2.824   0.027   0.508  1.1556  0.8816  0.5321
 2259SOL    HW216882   2.849   0.178   0.452 -1.0058  0.0295 -2.8972
 2260SOL     OW16883   9.727   4.822   1.093  0.2543 -0.7868  0.1916
 2260SOL    HW116884   9.634   4.789   1.076  0.1281 -0.2443 -0.2083
 2260SOL    HW216885   9.745   4.825   1.191 -0.2172 -0.7180  0.2752
 2261SOL     OW16886   2.805   3.651   0.199 -0.3672  0.3676 -0.0522
 2261SOL    HW116887   2.789   3.618   0.106  1.2617 -1.8386  0.4055
 2261SOL    HW216888   2.769   3.585   0.265  1.4018  0.3154  0.8914
 2262SOL     OW16889   1.397   2.634   1.324 -0.0749 -0.0515  0.5548
 2262SOL    HW116890   1.422   2.551   1.274 -2.2244 -1.1983  1.2956
 2262SOL    HW216891   1.373   2.610   1.418 -2.7461  1.0837  0.2070
 2263SOL     OW16892   0.710   8.638   0.446  0.2039 -0.1051  0.2518
 2263SOL    HW116893   0.805   8.626   0.419 -0.1903 -4.1475  0.2682
 2263SOL    HW216894   0.653   8.649   0.363  0.5707  1.6509  0.2143
 2264SOL     OW16895   4.669   9.367   1.127 -0.1313  0.0354  0.1716
 2264SOL    HW116896   4.692   9.297   1.060 -2.6310 -0.3199 -0.3512
 2264SOL    HW216897   4.709   9.454   1.099 -1.6026  0.0142 -2.0766
 2265SOL     OW16898   2.535   2.730   2.020 -0.0503  0.0982  0.4957
 2265SOL    HW116899   2.451   2.678   2.036 -0.6330  0.5262 -1.0183
 2265SOL    HW216900   2.598   2.675   1.966 -0.0048  0.3647  0.2785
 2266SOL     OW16901   3.926   3.066   0.269  0.3700  0.2442 -0.2100
 2266SOL    HW116902   3.905   2.970   0.250  0.6630  0.2133 -0.3715
 2266SOL    HW216903   3.852   3.105   0.325  2.0694 -1.1414  3.1788
 2267SOL     OW16904   0.421   5.625   1.760 -0.4463  0.4301  0.1979
 2267SOL    HW116905   0.480   5.687   1.708  1.1412 -0.3878  0.9881
 2267SOL    HW216906   0.414   5.657   1.854  1.4292 -1.2652  0.9425
 2268SOL     OW16907  10.179   6.477   2.404 -0.2740  0.4564 -0.1076
 2268SOL    HW116908  10.175   6.545   2.331 -1.5674  2.2296  1.5680
 2268SOL    HW216909  10.207   6.522   2.489 -0.2917 -1.2824  0.8287
 2269SOL     OW16910   2.838   7.211   0.560 -0.4721  0.2962 -0.1406
 2269SOL    HW116911   2.738   7.198   0.560 -0.3152 -0.9591  0.4450
 2269SOL    HW216912   2.872   7.206   0.466 -1.1924  2.6257 -0.5460
 2270SOL     OW16913   2.600   1.830   2.628  0.5544  1.1220 -0.3418
 2270SOL    HW116914   2.636   1.923   2.638  2.8968  0.2499 -0.4420
 2270SOL    HW216915   2.646   1.769   2.692 -1.0828  0.0308 -0.1571
 2271SOL     OW16916   2.762   5.169   0.962  0.2672 -0.1086  0.3053
 2271SOL    HW116917   2.714   5.240   1.014  0.6655  0.5613 -0.2350
 2271SOL    HW216918   2.695   5.115   0.911 -0.1316 -0.8028  1.5348
 2272SOL     OW16919   2.292   6.541   1.120  0.1362 -0.4243 -0.3906
 2272SOL    HW116920   2.297   6.631   1.076  1.4930  0.5308  1.6627
 2272SOL    HW216921   2.210   6.493   1.088  1.5110 -0.1894 -4.7051
 2273SOL     OW16922   3.291   5.823   2.411 -0.1089 -0.0213  0.1759
 2273SOL    HW116923   3.266   5.910   2.368 -0.1300 -0.1571 -0.0859
 2273SOL    HW216924   3.381   5.794   2.377 -1.2504 -1.4077 -1.7163
 2274SOL     OW16925   2.097   5.167   0.556 -0.1715 -0.1294  0.2470
 2274SOL    HW116926   2.149   5.084   0.536 -1.0922 -0.4450 -0.8777
 2274SOL    HW216927   2.000   5.145   0.565 -0.1488  0.4801  2.2003
 2275SOL     OW16928   3.406   0.587   1.046 -0.3080  0.5643  0.3322
 2275SOL    HW116929   3.420   0.603   1.144 -0.3402  0.5580  0.3382
 2275SOL    HW216930   3.494   0.585   0.999 -0.1715 -1.2806  0.6443
 2276SOL     OW16931   1.969   4.380   2.517  0.2983  0.3217  0.2311
 2276SOL    HW116932   1.956   4.302   2.579  1.0009 -0.7073 -0.9045
 2276SOL    HW216933   1.887   4.393   2.462  0.3609  0.0792  0.0797
 2277SOL     OW16934   1.608   4.245   0.278  0.7834  0.5230  0.0287
 2277SOL    HW116935   1.573   4.270   0.368  0.9416  0.2531  0.1662
 2277SOL    HW216936   1.552   4.287   0.207  1.2227  1.5173  0.2574
 2278SOL     OW16937   3.188   5.504   0.352  0.4510 -0.1458  0.3291
 2278SOL    HW116938   3.227   5.527   0.262 -0.2251 -1.1244 -0.2304
 2278SOL    HW216939   3.148   5.585   0.393 -0.1976  0.0821 -0.7440
 2279SOL     OW16940   2.721   3.344   1.810 -0.0268 -0.4488  0.5055
 2279SOL    HW116941   2.739   3.297   1.723  1.3673  2.1955 -0.7084
 2279SOL    HW216942   2.806   3.351   1.862 -0.8749 -2.0723  2.1616
 2280SOL     OW16943   0.539   3.166   2.710 -0.5812 -0.1436  0.1683
 2280SOL    HW116944   0.483   3.103   2.656 -0.3284 -0.1818 -0.0531
 2280SOL    HW216945   0.500   3.258   2.704  0.1791  0.1094 -1.1620
 2281SOL     OW16946  10.061   9.472   1.728 -0.2591  0.0115 -0.3956
 2281SOL    HW116947  10.030   9.560   1.692 -1.9539 -0.4243 -0.0479
 2281SOL    HW216948  10.028   9.398   1.669  0.3039 -0.4664 -0.1279
 2282SOL     OW16949   1.550   8.537   1.364 -0.3527  0.1985 -0.3213
 2282SOL    HW116950   1.460   8.513   1.399 -0.7841 -0.5735 -1.9017
 2282SOL    HW216951   1.540   8.579   1.273  0.8173  0.9781 -0.1067
 2283SOL     OW16952   0.454   6.839   2.556  0.2211  0.1761 -0.5001
 2283SOL    HW116953   0.511   6.913   2.592 -0.4119  0.3543  0.1588
 2283SOL    HW216954   0.392   6.876   2.487 -0.1978  0.2864 -0.0630
 2284SOL     OW16955   4.641   9.053   2.167 -0.6242 -0.6021  0.3213
 2284SOL    HW116956   4.551   9.097   2.169 -0.1957  0.3557 -0.9825
 2284SOL    HW216957   4.630   8.955   2.185 -1.9169 -0.4842  0.2535
 2285SOL     OW16958   1.466   0.283   0.376 -0.4754 -0.2037  0.5281
 2285SOL    HW116959   1.448   0.325   0.287 -1.4710 -2.3791 -0.3479
 2285SOL    HW216960   1.558   0.305   0.406  0.0885  0.0398 -1.3592
 2286SOL     OW16961   9.551   5.086   0.870  0.1361  0.0535  0.3722
 2286SOL    HW116962   9.628   5.033   0.835  0.3909  0.7040 -0.0497
 2286SOL    HW216963   9.468   5.060   0.819 -0.3865 -2.2666  2.3051
 2287SOL     OW16964   2.011   1.773   2.149  0.7459 -0.4556 -0.5182
 2287SOL    HW116965   2.029   1.818   2.237 -0.0481 -1.9519  0.4214
 2287SOL    HW216966   2.058   1.823   2.076  0.5697  1.4123  0.6106
 2288SOL     OW16967   4.545   0.208   0.736  0.3576  0.3767 -0.3826
 2288SOL    HW116968   4.446   0.211   0.722  0.4890  1.7291 -1.0787
 2288SOL    HW216969   4.567   0.141   0.807 -1.0753  0.3838  0.0710
 2289SOL     OW16970   1.496   7.550   1.464  0.3338 -0.0121  0.5961
 2289SOL    HW116971   1.518   7.486   1.538  0.1669 -0.7957 -0.0279
 2289SOL    HW216972   1.403   7.583   1.475  1.0438  1.5879  1.9843
 2290SOL     OW16973   2.513   7.708   0.173  0.1539 -0.2754  0.1367
 2290SOL    HW116974   2.432   7.676   0.223  1.3939 -0.8958  1.7935
 2290SOL    HW216975   2.574   7.631   0.155  0.9046  0.3691 -0.1245
 2291SOL     OW16976   9.080   8.285   0.726  0.5912  0.3391  0.4392
 2291SOL    HW116977   9.042   8.196   0.752  0.8407  0.7629  2.3788
 2291SOL    HW216978   9.174   8.273   0.694  0.1007 -0.2691 -0.8048
 2292SOL     OW16979   2.968   6.943   0.657 -0.1643  0.3893  0.6237
 2292SOL    HW116980   2.976   7.040   0.633 -1.1216  0.3789  0.2372
 2292SOL    HW216981   3.046   6.893   0.619  0.9675  1.1993  1.8589
 2293SOL     OW16982   9.956   7.414   1.916 -0.1222 -0.1448  0.0073
 2293SOL    HW116983   9.873   7.357   1.912 -0.5180  0.5021 -1.2355
 2293SOL    HW216984   9.941   7.498   1.864  0.5295  1.0248  1.6525
 2294SOL     OW16985   3.049   6.542   0.265 -0.1644  0.3708  0.3263
 2294SOL    HW116986   3.044   6.596   0.181 -1.0893  1.3568  1.0100
 2294SOL    HW216987   3.021   6.598   0.343 -1.5814 -1.2056  0.9959
 2295SOL     OW16988   1.790   7.318   1.545 -0.0153 -0.9005  0.3350
 2295SOL    HW116989   1.865   7.358   1.598  0.9349 -0.1150 -1.5715
 2295SOL    HW216990   1.703   7.340   1.589  0.6863  0.7694  0.9291
 2296SOL     OW16991   1.102   5.911   1.050 -0.1654 -0.4400 -0.5210
 2296SOL    HW116992   1.033   5.984   1.049  0.2158 -0.0171  1.3211
 2296SOL    HW216993   1.064   5.831   1.098 -0.2806 -1.1553 -1.7875
 2297SOL     OW16994   9.211   7.501   2.228 -0.1298 -0.2738  0.1792
 2297SOL    HW116995   9.260   7.457   2.153 -2.3761 -0.4023 -1.2678
 2297SOL    HW216996   9.123   7.456   2.243  0.1665 -0.0878  2.7507
 2298SOL     OW16997   4.160   3.519   0.361  0.5928 -0.0585 -0.1817
 2298SOL    HW116998   4.126   3.575   0.286  0.0016 -0.7073 -0.4029
 2298SOL    HW216999   4.083   3.486   0.416  0.8439 -1.5122 -0.6683
 2299SOL     OW17000   4.189   4.015   0.411 -0.1527 -0.0871 -0.0824
 2299SOL    HW117001   4.177   4.041   0.315 -0.1855  1.2139  0.2655
 2299SOL    HW217002   4.256   3.941   0.417 -0.2165 -0.2396 -1.1178
 2300SOL     OW17003   1.228   1.269   1.121  0.2681 -0.0422  0.3014
 2300SOL    HW117004   1.208   1.365   1.144 -0.0220 -0.3154  1.2452
 2300SOL    HW217005   1.326   1.259   1.105 -0.0165  0.8907 -2.2512
 2301SOL     OW17006  10.057   1.420   0.388  0.3259 -0.4746 -0.9518
 2301SOL    HW117007   9.984   1.432   0.455  0.3537  2.4829 -1.4242
 2301SOL    HW217008  10.142   1.396   0.436  0.4629  2.0659  0.1628
 2302SOL     OW17009   2.668   1.070   0.356  0.7110  0.4447 -0.3348
 2302SOL    HW117010   2.594   1.104   0.298 -0.4493 -0.0889  0.7960
 2302SOL    HW217011   2.631   1.003   0.421  2.1374  0.3908  0.4397
 2303SOL     OW17012   0.641   3.279   0.967  0.6218  0.0761 -0.1801
 2303SOL    HW117013   0.544   3.259   0.985  0.4502  0.5221 -0.5676
 2303SOL    HW217014   0.647   3.353   0.899  1.2363 -0.0254 -0.2382
 2304SOL     OW17015   1.862   4.005   1.296  0.3624  0.0035  0.0437
 2304SOL    HW117016   1.766   4.026   1.316 -0.1833 -0.3964 -1.9868
 2304SOL    HW217017   1.894   3.934   1.358 -1.0838 -0.8036 -0.1080
 2305SOL     OW17018   3.736   3.637   0.587 -0.4761  0.5874 -0.0017
 2305SOL    HW117019   3.752   3.677   0.677 -1.8062  1.1588 -0.0128
 2305SOL    HW217020   3.638   3.633   0.569 -0.3580 -2.2793 -0.1805
 2306SOL     OW17021   0.534   8.781   2.157 -0.2512 -0.2446 -0.2231
 2306SOL    HW117022   0.532   8.881   2.149 -1.3800 -0.3245 -1.0288
 2306SOL    HW217023   0.563   8.742   2.070  2.5417 -0.5427  0.8039
 2307SOL     OW17024   1.684   3.399   2.249  0.1538  0.3344  0.2354
 2307SOL    HW117025   1.726   3.340   2.180 -0.4578  0.3599 -0.1602
 2307SOL    HW217026   1.651   3.342   2.325 -0.2682  0.1849 -0.0589
 2308SOL     OW17027   1.318   8.495   1.487  0.0415 -0.2385 -0.0806
 2308SOL    HW117028   1.238   8.549   1.462 -0.5828 -0.7559  0.7771
 2308SOL    HW217029   1.297   8.397   1.480  0.6407 -0.3786 -0.0037
 2309SOL     OW17030   3.255   1.016   2.354 -1.0348  0.0809 -0.6437
 2309SOL    HW117031   3.319   0.947   2.389 -0.2973  1.2946  0.4747
 2309SOL    HW217032   3.210   0.981   2.272 -1.1136 -1.9499  0.2233
 2310SOL     OW17033   9.894   0.573   1.996  0.2207  0.0770  0.2715
 2310SOL    HW117034   9.846   0.604   2.077 -1.3926  0.3014 -0.7605
 2310SOL    HW217035   9.951   0.647   1.960  1.1717 -0.1140  1.3357
 2311SOL     OW17036   1.307   4.150   0.249 -0.0799  0.5708  0.1123
 2311SOL    HW117037   1.329   4.055   0.274 -0.5970  0.9067  1.9133
 2311SOL    HW217038   1.226   4.150   0.189 -0.3368 -0.0958  0.4453
 2312SOL     OW17039   2.752   5.829   0.735  0.0940  0.2947  0.2265
 2312SOL    HW117040   2.689   5.889   0.784  0.8545  1.7875 -0.6031
 2312SOL    HW217041   2.845   5.864   0.742  0.7635 -1.5861  0.9426
 2313SOL     OW17042   9.225   1.529   1.954  0.0726  0.5811 -0.1667
 2313SOL    HW117043   9.140   1.525   2.007  0.2685  0.5097  0.1440
 2313SOL    HW217044   9.299   1.485   2.005  0.5470  1.5895  0.0392
 2314SOL     OW17045   9.829   1.546   1.343  0.2608  0.0706 -0.2453
 2314SOL    HW117046   9.875   1.634   1.356  0.2352 -0.1939  1.6814
 2314SOL    HW217047   9.740   1.548   1.388  0.5331 -1.1576  0.3451
 2315SOL     OW17048   3.019   4.002   2.166 -0.1845  0.1283  0.8890
 2315SOL    HW117049   2.963   4.058   2.227  2.1188  0.9834  2.2837
 2315SOL    HW217050   3.084   4.061   2.118  0.0453 -0.9363 -0.1285
 2316SOL     OW17051  10.247   9.165   1.387  0.6334 -0.0165  0.7085
 2316SOL    HW117052  10.311   9.121   1.324  1.5263 -0.2576  1.7643
 2316SOL    HW217053  10.290   9.174   1.477 -0.8384 -0.2361  1.4482
 2317SOL     OW17054   9.251   7.576   1.814 -0.4567  0.2223  0.1961
 2317SOL    HW117055   9.325   7.598   1.750 -2.4095  0.4772 -2.0679
 2317SOL    HW217056   9.248   7.477   1.828 -0.5431  0.0680 -0.8263
 2318SOL     OW17057   0.805   1.716   1.755 -0.0311  0.4071  0.0865
 2318SOL    HW117058   0.842   1.763   1.675  0.5853  1.3827  0.9318
 2318SOL    HW217059   0.708   1.696   1.740  0.4949 -1.0111 -1.6213
 2319SOL     OW17060   4.804   4.593   0.662  0.4411 -0.1243 -0.1273
 2319SOL    HW117061   4.737   4.591   0.737  0.0681 -0.6503 -0.4717
 2319SOL    HW217062   4.826   4.688   0.640  0.7895  0.0286  0.8630
 2320SOL     OW17063   0.950   6.595   2.114  0.1664  0.0369  0.0098
 2320SOL    HW117064   0.921   6.520   2.055  1.1959 -0.4181  0.0746
 2320SOL    HW217065   1.048   6.588   2.132 -0.0530  0.3779  1.4704
 2321SOL     OW17066   9.981   6.945   2.343  0.7782 -0.4309 -0.1889
 2321SOL    HW117067   9.904   6.957   2.281 -0.6865 -1.2880  1.4517
 2321SOL    HW217068  10.011   7.034   2.377 -0.7936 -0.2494  0.7407
 2322SOL     OW17069   1.042   9.294   1.365 -0.8153  0.2824  0.5748
 2322SOL    HW117070   0.999   9.384   1.353 -0.1041  0.3825 -1.3208
 2322SOL    HW217071   1.019   9.236   1.287  2.2197  0.2372 -0.3551
 2323SOL     OW17072   0.863   6.852   2.457  0.3421  0.3653 -0.7808
 2323SOL    HW117073   0.826   6.819   2.371  1.8179  0.8686 -1.6272
 2323SOL    HW217074   0.952   6.810   2.474  0.7637  1.4360 -0.2845
 2324SOL     OW17075  10.115   8.068   1.206 -0.6376  0.6156  0.1646
 2324SOL    HW117076  10.102   7.993   1.141  0.2406  0.9366 -0.3840
 2324SOL    HW217077  10.052   8.057   1.283 -0.5390 -0.6562  0.0676
 2325SOL     OW17078   3.452   2.852   2.037  0.1246  0.2327 -0.0808
 2325SOL    HW117079   3.375   2.905   2.003  0.7376  0.6914 -0.7589
 2325SOL    HW217080   3.494   2.800   1.963 -0.0124 -0.6411  0.4359
 2326SOL     OW17081   9.620   0.097   0.690 -0.1999  0.3708 -0.0700
 2326SOL    HW117082   9.660   0.175   0.738  0.7144 -1.0874  1.5991
 2326SOL    HW217083   9.692   0.032   0.666 -1.0066 -0.1624 -1.0706
 2327SOL     OW17084   0.341   9.755   1.678 -0.1427 -0.3473 -0.3557
 2327SOL    HW117085   0.322   9.709   1.591 -1.5371  0.2757 -0.3910
 2327SOL    HW217086   0.378   9.688   1.743 -1.3434 -1.3419 -0.6689
 2328SOL     OW17087   1.860   8.593   0.132  0.3332 -0.1607  0.4755
 2328SOL    HW117088   1.914   8.525   0.083 -0.1617  0.2654 -0.6777
 2328SOL    HW217089   1.921   8.660   0.175  0.7740 -0.6194  0.5605
 2329SOL     OW17090   2.102   3.653   2.259  0.3830  0.6041  0.6486
 2329SOL    HW117091   2.022   3.644   2.319 -1.3142 -1.4217 -1.8058
 2329SOL    HW217092   2.117   3.750   2.238  0.2437  1.2294  3.2637
 2330SOL     OW17093   1.738   4.597   2.486  0.1087 -0.0991 -0.2725
 2330SOL    HW117094   1.678   4.669   2.451 -0.0369 -0.3909 -0.6252
 2330SOL    HW217095   1.828   4.604   2.441 -0.2823 -0.8731 -1.1797
 2331SOL     OW17096   2.210   3.680   0.196 -0.0929 -0.7100 -0.5167
 2331SOL    HW117097   2.191   3.584   0.178  0.2721 -1.1509  1.3359
 2331SOL    HW217098   2.136   3.719   0.251  0.6670 -0.4572  0.3474
 2332SOL     OW17099   9.911   3.494   2.226  0.2305  0.5427 -0.3695
 2332SOL    HW117100   9.844   3.563   2.203 -1.3776 -0.4762  1.1451
 2332SOL    HW217101   9.870   3.403   2.217  0.8621 -0.0328  2.2151
 2333SOL     OW17102   9.512   5.669   1.372 -0.0624 -0.3516  0.1825
 2333SOL    HW117103   9.609   5.646   1.363 -0.0193 -0.7603  1.5486
 2333SOL    HW217104   9.457   5.585   1.366 -0.1043 -0.5179  2.4355
 2334SOL     OW17105   1.577   6.870   0.496  0.1231  0.0163 -0.2088
 2334SOL    HW117106   1.518   6.826   0.429  0.6344  0.6060 -1.0522
 2334SOL    HW217107   1.522   6.928   0.556 -0.2290  0.1075 -0.6179
 2335SOL     OW17108   9.112   5.342   2.200  0.6584  0.2588 -0.6572
 2335SOL    HW117109   9.151   5.268   2.255 -0.8198 -0.0742 -0.0467
 2335SOL    HW217110   9.054   5.399   2.257  0.9640  1.2869 -1.3607
 2336SOL     OW17111  10.025   6.968   0.627 -0.5906  0.4936 -0.0670
 2336SOL    HW117112   9.996   7.023   0.705  1.0248 -0.0146  0.9153
 2336SOL    HW217113  10.040   6.874   0.657 -0.7513  0.1138 -1.1711
 2337SOL     OW17114   0.739   4.753   1.175  0.3955  0.1161  0.2717
 2337SOL    HW117115   0.702   4.669   1.134 -1.3943  1.2929 -0.5786
 2337SOL    HW217116   0.743   4.742   1.274 -2.1883 -0.0969  0.3955
 2338SOL     OW17117   4.378   3.714   2.037 -0.0789  0.9997  0.0887
 2338SOL    HW117118   4.430   3.779   1.981  0.7612  0.2124 -0.0554
 2338SOL    HW217119   4.296   3.686   1.987 -1.2256  3.0382  0.7370
 2339SOL     OW17120  10.023   1.464   2.577  0.3674 -0.0102  0.9408
 2339SOL    HW117121  10.095   1.404   2.542 -1.3155 -1.4079 -0.2264
 2339SOL    HW217122  10.012   1.449   2.675 -1.0874 -2.7852  0.3874
 2340SOL     OW17123  10.172   0.855   1.292  0.2644 -0.3055 -0.6564
 2340SOL    HW117124  10.150   0.887   1.200  1.0400  0.2280 -0.6631
 2340SOL    HW217125  10.100   0.793   1.324 -0.0166 -0.4842 -1.6140
 2341SOL     OW17126   0.646   1.972   2.532  0.3018 -0.4546  0.4755
 2341SOL    HW117127   0.683   1.879   2.530 -0.9540 -0.9548  0.2892
 2341SOL    HW217128   0.667   2.014   2.621  2.2340 -0.3381 -0.0091
 2342SOL     OW17129   1.693   2.320   2.728 -0.1118  0.3967 -0.2268
 2342SOL    HW117130   1.790   2.303   2.709 -0.2173  1.3538 -1.7173
 2342SOL    HW217131   1.685   2.396   2.793  0.2031 -1.7785  2.4409
 2343SOL     OW17132  10.136   1.718   0.405 -0.1781  0.4910 -0.2458
 2343SOL    HW117133  10.075   1.651   0.362 -0.2875  0.1733  0.3910
 2343SOL    HW217134  10.108   1.731   0.500  0.5834  0.5495 -0.0282
 2344SOL     OW17135   1.002   5.966   2.561  0.0500 -0.0241  0.2513
 2344SOL    HW117136   0.993   6.032   2.636  2.0749  0.2849  0.2553
 2344SOL    HW217137   1.089   5.979   2.515 -0.3863 -1.4070 -1.0330
 2345SOL     OW17138   9.605   3.016   0.119 -0.1736 -0.1943  0.0075
 2345SOL    HW117139   9.615   3.096   0.060  0.3510  0.2891  0.7449
 2345SOL    HW217140   9.614   2.933   0.064 -0.4513  0.2537 -0.7157
 2346SOL     OW17141   9.565   0.865   2.677  0.6069 -0.5542 -0.2914
 2346SOL    HW117142   9.556   0.806   2.757 -0.4742  0.3747  0.3024
 2346SOL    HW217143   9.602   0.813   2.600  2.6709 -1.2095  1.1001
 2347SOL     OW17144   8.496   6.884   2.091  0.4174  0.1226 -0.1613
 2347SOL    HW117145   8.461   6.810   2.033 -0.4087  0.5653 -0.2253
 2347SOL    HW217146   8.493   6.855   2.187  0.5257 -0.0986 -0.2242
 2348SOL     OW17147   9.874   9.335   1.095 -0.2035 -0.0958 -0.4926
 2348SOL    HW117148   9.971   9.359   1.101 -0.2610 -0.0585  0.3419
 2348SOL    HW217149   9.819   9.414   1.121 -0.4000 -0.9840  1.9305
 2349SOL     OW17150   0.342   7.899   0.502 -0.3843 -0.0945 -0.0368
 2349SOL    HW117151   0.305   7.830   0.440 -0.7990  0.5803 -0.5465
 2349SOL    HW217152   0.270   7.962   0.529  0.0567  0.3199  0.1904
 2350SOL     OW17153   4.172   9.827   0.764  0.3745  0.5022  0.0589
 2350SOL    HW117154   4.140   9.783   0.680  2.0223  0.8220 -0.7639
 2350SOL    HW217155   4.200   9.757   0.829  0.3163  0.2798 -0.1539
 2351SOL     OW17156   0.662   7.914   2.488  0.3565  0.0200 -0.1060
 2351SOL    HW117157   0.696   7.943   2.399  0.4599  1.8011  0.4916
 2351SOL    HW217158   0.564   7.898   2.484  0.5146 -0.8006 -0.7542
 2352SOL     OW17159   4.234   5.867   0.337  0.5912  0.2280  0.1771
 2352SOL    HW117160   4.230   5.789   0.275  0.0686  1.2356 -1.0879
 2352SOL    HW217161   4.150   5.871   0.391  0.5955 -0.0419  0.2061
 2353SOL     OW17162   9.926   7.057   1.092 -0.6693 -0.1538 -0.0940
 2353SOL    HW117163  10.006   7.115   1.105  1.0640 -2.3460 -0.5692
 2353SOL    HW217164   9.881   7.080   1.006  0.1062  0.3720 -0.3613
 2354SOL     OW17165   3.727   3.229   0.689 -0.1455 -0.4738  0.3699
 2354SOL    HW117166   3.636   3.248   0.727 -0.7229 -1.8465 -0.3085
 2354SOL    HW217167   3.718   3.196   0.595  1.1098  0.1265  0.0276
 2355SOL     OW17168  10.266   1.412   2.416  0.1597 -0.2447  0.0050
 2355SOL    HW117169  10.353   1.405   2.465 -0.5891 -0.6787  1.2904
 2355SOL    HW217170  10.281   1.398   2.318  1.6124  0.2124  0.1601
 2356SOL     OW17171   2.809   7.482   2.204 -1.0591  0.2203 -0.6397
 2356SOL    HW117172   2.832   7.409   2.269  0.6146  2.6655  1.5932
 2356SOL    HW217173   2.722   7.460   2.159 -0.2581 -3.4611 -0.5225
 2357SOL     OW17174   3.823   9.644   0.977 -0.5516 -0.3216 -0.0430
 2357SOL    HW117175   3.784   9.734   0.961  0.6225 -0.0493 -1.6398
 2357SOL    HW217176   3.784   9.604   1.059 -1.5057  1.4027  0.3657
 2358SOL     OW17177   0.581   7.650   0.781 -0.1559  0.0695  1.2347
 2358SOL    HW117178   0.566   7.742   0.747  1.3360 -0.0620  0.1961
 2358SOL    HW217179   0.496   7.615   0.821 -0.8741  1.6680  1.1408
 2359SOL     OW17180   2.316   0.858   1.517 -0.3487 -0.1494 -0.0893
 2359SOL    HW117181   2.354   0.834   1.428  3.2053  1.1310  1.0034
 2359SOL    HW217182   2.295   0.775   1.568  1.3497 -0.9254 -0.6147
 2360SOL     OW17183   9.735   6.286   2.739 -0.2033  0.4039 -0.0193
 2360SOL    HW117184   9.773   6.194   2.731 -0.7889  0.2620 -1.3303
 2360SOL    HW217185   9.721   6.324   2.648 -2.9236  0.5519  0.4270
 2361SOL     OW17186   9.396   7.285   0.813 -0.3224 -0.0176 -0.4321
 2361SOL    HW117187   9.322   7.220   0.834 -1.1784  1.3702  0.9274
 2361SOL    HW217188   9.356   7.369   0.776  0.5027  1.1424  1.2810
 2362SOL     OW17189   9.947   8.791   2.048  0.0398  0.0616 -0.1014
 2362SOL    HW117190   9.877   8.726   2.080 -0.9694  1.2420  0.1191
 2362SOL    HW217191  10.037   8.762   2.081 -0.3586 -1.4035 -0.2775
 2363SOL     OW17192   2.390   5.016   1.127  0.0880 -0.7421  0.4781
 2363SOL    HW117193   2.299   5.037   1.163  0.8782  0.0414  2.1127
 2363SOL    HW217194   2.426   5.096   1.078  0.7266 -0.2792  1.6620
 2364SOL     OW17195   0.988   9.485   0.407 -0.3762 -0.1102 -0.2820
 2364SOL    HW117196   0.970   9.427   0.327 -2.9182 -0.3328  0.4026
 2364SOL    HW217197   0.993   9.581   0.378 -0.3639 -0.2696 -0.8217
 2365SOL     OW17198   9.764   2.372   2.618  0.3653  0.1096 -0.8011
 2365SOL    HW117199   9.690   2.348   2.680 -1.4651  0.7470 -2.6862
 2365SOL    HW217200   9.808   2.289   2.584  0.9658 -0.2538  0.7955
 2366SOL     OW17201   2.864   2.252   1.241  0.0955 -0.0358  0.6205
 2366SOL    HW117202   2.957   2.239   1.209  0.4082  1.2641  0.9725
 2366SOL    HW217203   2.827   2.336   1.202 -0.1594  0.5928  2.1984
 2367SOL     OW17204   9.547   0.442   1.932  0.1335 -0.3321  0.3393
 2367SOL    HW117205   9.497   0.356   1.939  0.8196 -0.7111  0.6282
 2367SOL    HW217206   9.562   0.464   1.835  1.6889 -1.5684  0.2686
 2368SOL     OW17207   2.303   3.678   2.027  0.5715 -0.0034 -0.2739
 2368SOL    HW117208   2.273   3.731   2.106  0.7258 -0.9956  0.4623
 2368SOL    HW217209   2.387   3.628   2.049 -0.3447 -1.6923 -0.4541
 2369SOL     OW17210   1.821   2.056   1.018  0.5760  0.3618 -0.1033
 2369SOL    HW117211   1.830   2.136   0.958 -0.5042 -0.2161 -1.0308
 2369SOL    HW217212   1.906   2.003   1.015  1.0143  1.0424 -0.0798
 2370SOL     OW17213   1.835   6.716   0.302  0.0669 -1.0491 -0.1679
 2370SOL    HW117214   1.830   6.737   0.399 -0.5698 -0.7968 -0.2529
 2370SOL    HW217215   1.743   6.716   0.263  0.3205 -1.1241 -0.7769
 2371SOL     OW17216   9.808   1.113   1.154 -0.5788  0.4006  0.0283
 2371SOL    HW117217   9.807   1.048   1.230  1.7538 -0.2840 -0.4890
 2371SOL    HW217218   9.715   1.143   1.134 -1.5875 -2.1287  0.8265
 2372SOL     OW17219   9.267   7.774   2.010  0.0715  0.1871 -0.3991
 2372SOL    HW117220   9.333   7.834   1.964  0.9736 -1.3525 -1.1688
 2372SOL    HW217221   9.232   7.708   1.944 -2.6243  1.2943 -0.1057
 2373SOL     OW17222   3.879   3.178   1.750 -0.2813  0.0079 -0.3149
 2373SOL    HW117223   3.869   3.174   1.651 -0.8237 -0.8353 -0.2303
 2373SOL    HW217224   3.966   3.223   1.772  0.5634 -1.1502 -1.2004
 2374SOL     OW17225   9.963   1.369   2.313 -0.4468  0.1689 -1.0353
 2374SOL    HW117226   9.972   1.413   2.403 -0.1932  0.8579 -1.3995
 2374SOL    HW217227  10.045   1.387   2.259  0.9526 -3.1515 -0.1547
 2375SOL     OW17228   2.114   5.701   0.276  0.0066 -0.0324  0.5765
 2375SOL    HW117229   2.075   5.685   0.367  0.6921  2.1785  1.3028
 2375SOL    HW217230   2.051   5.756   0.222  0.9726  1.4165  0.8784
 2376SOL     OW17231   0.609   4.854   2.116  0.2955 -0.4292 -0.7110
 2376SOL    HW117232   0.704   4.832   2.092  0.5287  0.8116 -0.9379
 2376SOL    HW217233   0.606   4.897   2.206 -0.0449 -0.3157 -0.7750
 2377SOL     OW17234   1.008   5.719   2.687  0.2510 -0.0534 -0.3118
 2377SOL    HW117235   0.939   5.695   2.619  1.1996  2.4638 -2.2507
 2377SOL    HW217236   1.028   5.817   2.681  1.5455 -0.0969  2.5155
 2378SOL     OW17237   1.340   5.456   2.079  0.1410 -0.1560 -0.0187
 2378SOL    HW117238   1.402   5.393   2.124  2.0394 -0.4573 -2.9135
 2378SOL    HW217239   1.246   5.422   2.085  0.6679 -1.3699  1.5448
 2379SOL     OW17240   1.861   0.699   2.527 -0.4593 -0.8527 -0.1515
 2379SOL    HW117241   1.934   0.763   2.502 -0.1104 -1.7929 -1.6285
 2379SOL    HW217242   1.772   0.738   2.502 -0.1332 -1.6689 -2.7525
 2380SOL     OW17243   1.513   2.671   0.152 -0.5093  0.2311  0.4127
 2380SOL    HW117244   1.439   2.710   0.207 -0.1687  0.5160  0.6708
 2380SOL    HW217245   1.474   2.618   0.077 -0.9776  0.7575  0.2804
 2381SOL     OW17246   1.073   0.001   0.273  0.2312 -0.0838 -0.2982
 2381SOL    HW117247   1.055   0.062   0.195 -1.4140 -1.1379 -0.7681
 2381SOL    HW217248   1.171  -0.003   0.290  0.5774  0.5299 -2.0261
 2382SOL     OW17249   4.483   1.122   0.928  0.0255  0.5819 -0.6368
 2382SOL    HW117250   4.576   1.093   0.951 -1.5358 -3.2478  1.2513
 2382SOL    HW217251   4.464   1.100   0.832  0.4375 -0.4524 -0.4892
 2383SOL     OW17252   3.042   1.796   2.495 -0.2277  0.4936  0.1314
 2383SOL    HW117253   3.076   1.718   2.442  0.8584  0.4464  0.8706
 2383SOL    HW217254   2.949   1.819   2.466 -0.1133 -0.3314 -0.9024
 2384SOL     OW17255   2.359   4.125   1.468  0.4066 -0.2923 -0.4639
 2384SOL    HW117256   2.377   4.170   1.381 -0.5142 -0.1500 -0.5890
 2384SOL    HW217257   2.305   4.186   1.527  0.7677 -0.5016  0.0860
 2385SOL     OW17258   3.838   9.031   2.482 -0.2019 -0.5041  0.0978
 2385SOL    HW117259   3.739   9.041   2.497 -0.0523  2.2377 -0.5077
 2385SOL    HW217260   3.888   9.074   2.557  0.5201 -0.0970 -0.6071
 2386SOL     OW17261   1.859   1.391   1.098 -0.2588  0.3665 -0.5964
 2386SOL    HW117262   1.821   1.346   1.017  1.6361 -0.1995 -1.2123
 2386SOL    HW217263   1.942   1.343   1.126 -1.3046  0.0876  2.1751
 2387SOL     OW17264   2.307   9.800   1.595 -0.3488  0.3690 -1.0173
 2387SOL    HW117265   2.340   9.754   1.677 -2.9276 -0.2806 -0.3170
 2387SOL    HW217266   2.285   9.732   1.525 -2.0446  0.6399 -0.7726
 2388SOL     OW17267   4.181   3.727   2.520  0.1440 -0.2505  0.2488
 2388SOL    HW117268   4.188   3.823   2.496  1.0696 -0.4892 -0.4695
 2388SOL    HW217269   4.085   3.698   2.517 -0.3089  1.0063  1.9332
 2389SOL     OW17270   9.797   2.906   2.618 -0.3024  0.2508  0.6663
 2389SOL    HW117271   9.838   2.820   2.649  0.1032  0.6796  1.3346
 2389SOL    HW217272   9.756   2.893   2.528 -0.7006 -0.7854  0.9853
 2390SOL     OW17273   2.402   5.156   0.541  0.3693  0.3955 -0.3810
 2390SOL    HW117274   2.384   5.130   0.636  0.7590  1.1242 -0.0995
 2390SOL    HW217275   2.316   5.167   0.492  0.2100 -1.6651 -0.5733
 2391SOL     OW17276   2.669   1.687   0.611  0.1072 -0.4490  0.2643
 2391SOL    HW117277   2.742   1.646   0.555 -0.5637 -2.4437  0.7999
 2391SOL    HW217278   2.602   1.617   0.633 -0.0203  0.4889  2.9614
 2392SOL     OW17279   1.374   5.175   1.732 -0.1406  0.5806  0.1077
 2392SOL    HW117280   1.450   5.145   1.789  0.6788  0.0450 -1.2408
 2392SOL    HW217281   1.287   5.154   1.777  0.4574 -1.6878  0.2173
 2393SOL     OW17282   3.358   5.322   1.978 -0.1387  0.5734 -0.3818
 2393SOL    HW117283   3.349   5.222   1.982  0.3760  0.5948  4.6575
 2393SOL    HW217284   3.270   5.364   1.997 -0.0274  1.0867 -0.9869
 2394SOL     OW17285   3.271   4.012   0.546 -0.0359 -0.2250  0.4216
 2394SOL    HW117286   3.247   4.108   0.532 -0.0303 -0.4279 -1.0560
 2394SOL    HW217287   3.365   4.006   0.579  0.0290  0.2761  0.3320
 2395SOL     OW17288   2.621   4.580   1.552 -0.3453 -0.1153  0.5719
 2395SOL    HW117289   2.523   4.572   1.535 -0.7013  0.7197  2.1752
 2395SOL    HW217290   2.668   4.600   1.466 -1.9479  2.6194  0.2879
 2396SOL     OW17291   3.948   4.071   0.952 -0.3605 -0.0494 -0.2251
 2396SOL    HW117292   3.919   4.164   0.975 -0.7162 -0.0120 -0.8247
 2396SOL    HW217293   4.048   4.068   0.948 -0.2375 -0.2557  2.1487
 2397SOL     OW17294   3.499   2.789   2.525 -0.0976  0.2171 -0.5712
 2397SOL    HW117295   3.514   2.719   2.455  2.2824  1.6318 -1.5374
 2397SOL    HW217296   3.510   2.879   2.484  0.0202  1.0910  1.3643
 2398SOL     OW17297   3.874   1.227   0.405 -0.2496 -0.1734  0.1597
 2398SOL    HW117298   3.911   1.161   0.340 -1.2770  0.4704 -1.1009
 2398SOL    HW217299   3.920   1.315   0.394 -1.4895  0.3746 -0.7913
 2399SOL     OW17300   1.349   0.493   1.170 -0.3479  0.2158  0.6406
 2399SOL    HW117301   1.403   0.418   1.207 -1.3106 -0.3976  0.8008
 2399SOL    HW217302   1.295   0.535   1.243  0.2548  1.1185  0.5705
 2400SOL     OW17303   1.191   6.646   1.573  0.1459  0.5436 -0.1321
 2400SOL    HW117304   1.241   6.561   1.553 -0.3355 -0.1291  1.4119
 2400SOL    HW217305   1.094   6.625   1.583  0.0452  1.2519  0.3788
 2401SOL     OW17306  10.172   2.467   1.669  0.0902 -0.2517 -0.2740
 2401SOL    HW117307  10.192   2.380   1.624 -1.4801  0.4013 -2.3163
 2401SOL    HW217308  10.081   2.464   1.710  0.1340  0.3308 -0.1284
 2402SOL     OW17309   4.866   3.039   2.461 -0.0521  0.1971 -0.2384
 2402SOL    HW117310   4.874   3.112   2.393  0.7425  1.5433  1.2524
 2402SOL    HW217311   4.905   2.955   2.425  2.3092  1.4346 -0.6878
 2403SOL     OW17312   4.673   9.637   2.337 -0.0249  0.4449  0.0392
 2403SOL    HW117313   4.615   9.558   2.356  0.9417 -0.6237 -1.2531
 2403SOL    HW217314   4.740   9.612   2.267  1.4123  1.9109  0.8604
 2404SOL     OW17315   1.314   2.388   2.431  0.0358 -0.0221  0.0499
 2404SOL    HW117316   1.262   2.350   2.355 -0.3408 -2.2556  1.3525
 2404SOL    HW217317   1.412   2.372   2.416 -0.0423 -0.5246  0.0514
 2405SOL     OW17318   3.233   2.490   1.248  0.2727  0.1177 -0.4607
 2405SOL    HW117319   3.184   2.408   1.217  1.5821 -0.3666 -1.3080
 2405SOL    HW217320   3.329   2.467   1.264  0.5268  1.3623 -0.1481
 2406SOL     OW17321   9.458   8.014   2.620 -0.2489 -0.2909  0.1770
 2406SOL    HW117322   9.481   7.993   2.525 -0.1237 -0.1621  0.1781
 2406SOL    HW217323   9.399   7.942   2.657  2.0126 -1.8426  0.8867
 2407SOL     OW17324   2.831   3.095   0.220  0.9540  0.5195 -0.1388
 2407SOL    HW117325   2.754   3.157   0.210 -0.2732 -1.1568 -1.2525
 2407SOL    HW217326   2.878   3.084   0.132  2.2254  1.2158  0.4365
 2408SOL     OW17327   2.757   5.551   1.805  0.3856  0.1706  0.5407
 2408SOL    HW117328   2.772   5.465   1.854 -0.7556 -0.6526 -0.5039
 2408SOL    HW217329   2.774   5.536   1.707 -2.2580  0.4608 -0.0001
 2409SOL     OW17330   2.745   2.535   1.454  0.0884  0.1290 -0.1158
 2409SOL    HW117331   2.778   2.507   1.363 -2.5041  0.4678 -1.2057
 2409SOL    HW217332   2.764   2.463   1.520  0.1529 -1.0204 -1.3675
 2410SOL     OW17333   1.867   1.922   2.792  0.3165  0.2900 -0.5077
 2410SOL    HW117334   1.859   2.011   2.837 -1.1219 -0.1406  0.1238
 2410SOL    HW217335   1.828   1.851   2.851  1.7296 -0.8040 -0.8731
 2411SOL     OW17336   9.942   5.933   0.845 -0.5209 -0.6324 -0.2031
 2411SOL    HW117337  10.040   5.921   0.855 -0.4965  0.7386  1.6099
 2411SOL    HW217338   9.916   5.930   0.748  1.4755  0.2804 -0.7777
 2412SOL     OW17339   9.056   3.614   0.866 -0.1959  0.4513 -0.3932
 2412SOL    HW117340   9.030   3.621   0.769 -2.2154  1.5231  0.1869
 2412SOL    HW217341   9.085   3.703   0.899  2.3600 -0.3114 -0.4758
 2413SOL     OW17342   2.026   8.880   0.814 -0.1461  0.0721  0.1054
 2413SOL    HW117343   2.076   8.857   0.898 -0.6282  0.6785  0.5605
 2413SOL    HW217344   2.057   8.821   0.739  0.1582 -0.5886  0.7540
 2414SOL     OW17345   4.805   1.824   1.391  0.2049  0.7254  0.2254
 2414SOL    HW117346   4.831   1.921   1.391  4.3810 -0.3171 -0.3957
 2414SOL    HW217347   4.769   1.800   1.301  0.5832  1.3700 -0.1088
 2415SOL     OW17348  10.119   1.712   0.689 -0.3727 -0.0857  0.0329
 2415SOL    HW117349  10.205   1.662   0.678 -0.2254  0.1953 -0.0892
 2415SOL    HW217350  10.083   1.695   0.781 -0.5965 -0.8436 -0.1926
 2416SOL     OW17351   0.599   8.783   1.872 -0.0130 -0.0164  0.0779
 2416SOL    HW117352   0.511   8.805   1.831  0.3985 -0.4120 -1.0477
 2416SOL    HW217353   0.606   8.684   1.885  0.3426 -0.0066 -0.0286
 2417SOL     OW17354   0.407   0.990   1.396  0.6918 -0.2207 -0.1789
 2417SOL    HW117355   0.310   0.971   1.380  1.3945 -1.8595 -2.7428
 2417SOL    HW217356   0.426   1.085   1.371 -0.2451  0.1229  0.3720
 2418SOL     OW17357   2.868   7.376   1.932 -0.1283 -0.9335 -0.3535
 2418SOL    HW117358   2.945   7.315   1.916 -0.0624 -0.8308 -0.4232
 2418SOL    HW217359   2.864   7.399   2.029 -1.3438 -2.6661  0.0473
 2419SOL     OW17360   1.509   5.929   1.670 -0.4766 -0.1157  0.1052
 2419SOL    HW117361   1.430   5.980   1.636 -0.5611 -0.2199  0.1464
 2419SOL    HW217362   1.541   5.970   1.756  0.0823  0.4895 -0.3879
 2420SOL     OW17363   0.374   5.263   2.574  0.5357  0.1056  0.7357
 2420SOL    HW117364   0.411   5.261   2.667  2.0081  0.7540  0.1887
 2420SOL    HW217365   0.383   5.355   2.536 -0.5228 -0.0334  0.1360
 2421SOL     OW17366   3.410   4.475   0.338  0.1260  0.2299  0.0881
 2421SOL    HW117367   3.458   4.563   0.331  0.5152  0.0762  0.8731
 2421SOL    HW217368   3.475   4.403   0.359 -0.3749 -0.0606  0.6587
 2422SOL     OW17369   3.969   3.058   1.319 -0.0301  0.0331  0.5464
 2422SOL    HW117370   3.909   3.101   1.387 -0.3834  1.9473 -0.9162
 2422SOL    HW217371   4.020   3.129   1.271  0.0134 -1.2682 -1.3719
 2423SOL     OW17372   9.875   5.850   2.367 -0.0413 -0.1708  0.5034
 2423SOL    HW117373   9.968   5.879   2.391 -0.4951  0.9581  0.9191
 2423SOL    HW217374   9.831   5.810   2.447 -0.5858  1.0719  0.8363
 2424SOL     OW17375   9.758   1.095   2.381 -0.7662 -0.2527  0.7118
 2424SOL    HW117376   9.667   1.074   2.347 -0.4297  1.0985 -1.0938
 2424SOL    HW217377   9.805   1.155   2.316  0.9733  0.0254  2.1855
 2425SOL     OW17378   1.287   8.517   0.337 -0.9821 -0.5244 -0.2559
 2425SOL    HW117379   1.329   8.585   0.277 -0.6838 -0.5503 -0.0778
 2425SOL    HW217380   1.220   8.463   0.285 -0.2089 -1.0224 -0.7401
 2426SOL     OW17381   3.073   6.037   1.401 -0.3523 -0.4240 -0.2785
 2426SOL    HW117382   2.986   6.067   1.439  0.0691 -1.6471  1.7242
 2426SOL    HW217383   3.097   5.948   1.441  1.9584  0.0532 -0.5741
 2427SOL     OW17384   2.430   0.619   2.757 -0.5732  0.1240 -0.1443
 2427SOL    HW117385   2.484   0.654   2.834 -1.8834 -2.3993  2.0081
 2427SOL    HW217386   2.335   0.650   2.766 -0.5521  0.4880 -1.1834
 2428SOL     OW17387   1.342   0.564   2.825 -0.4744 -0.4509 -0.2334
 2428SOL    HW117388   1.259   0.615   2.805  0.5708  0.7146 -1.6664
 2428SOL    HW217389   1.319   0.484   2.880 -2.5961 -0.3602 -0.9407
 2429SOL     OW17390  10.239   2.541   0.468  0.0821 -0.2326 -0.5920
 2429SOL    HW117391  10.161   2.485   0.495 -0.7263  1.6499  1.1241
 2429SOL    HW217392  10.323   2.501   0.503 -0.5041 -0.2612  0.7968
 2430SOL     OW17393   0.531   1.960   1.656 -0.3996  0.1206  0.5568
 2430SOL    HW117394   0.493   1.967   1.564  2.3364 -1.0663 -0.7083
 2430SOL    HW217395   0.560   2.050   1.687  2.2473 -0.0154 -1.3607
 2431SOL     OW17396   1.753   2.650   0.724 -0.5190  0.4950 -0.3801
 2431SOL    HW117397   1.679   2.589   0.696  1.4372 -1.6248 -1.1228
 2431SOL    HW217398   1.795   2.690   0.642  0.8518 -0.4154 -0.1377
 2432SOL     OW17399   0.674   5.865   0.220 -0.5893  0.3229 -0.7129
 2432SOL    HW117400   0.623   5.825   0.144 -0.8658  0.9706 -0.8699
 2432SOL    HW217401   0.612   5.921   0.276 -0.0559  1.1016 -0.8926
 2433SOL     OW17402   2.394   2.448   0.153  0.0888  0.3887  0.4205
 2433SOL    HW117403   2.452   2.410   0.081  0.3875  2.1988 -0.3122
 2433SOL    HW217404   2.404   2.547   0.156 -1.2165  0.5048  1.8335
 2434SOL     OW17405   0.450   2.387   0.552 -0.5023  0.5567  0.4782
 2434SOL    HW117406   0.546   2.407   0.571 -0.4443  0.5914  0.1563
 2434SOL    HW217407   0.442   2.348   0.460 -0.5837 -1.1708  1.2047
 2435SOL     OW17408   3.958   1.184   1.675  0.0480 -0.3143 -0.5848
 2435SOL    HW117409   3.910   1.113   1.727 -1.0646  0.1095 -1.0237
 2435SOL    HW217410   3.959   1.160   1.578 -0.0252  0.0994 -0.6881
 2436SOL     OW17411   4.620   4.653   0.409  0.2885 -0.3884 -0.6211
 2436SOL    HW117412   4.591   4.745   0.436 -0.6455 -0.5725 -0.9925
 2436SOL    HW217413   4.708   4.658   0.362  1.4938  0.0431  1.6000
 2437SOL     OW17414   4.082   4.047   0.141  0.6144 -0.4372  0.8540
 2437SOL    HW117415   4.167   4.075   0.097  0.2871  0.5601  0.8276
 2437SOL    HW217416   4.007   4.105   0.108 -0.0166 -1.1021  1.1074
 2438SOL     OW17417   2.297   8.883   0.952  0.1006 -0.0632 -0.6843
 2438SOL    HW117418   2.261   8.974   0.971 -0.6227 -0.2668 -1.0598
 2438SOL    HW217419   2.309   8.872   0.853 -1.2547 -0.9147 -0.7639
 2439SOL     OW17420   3.379   0.038   2.394 -0.0097  0.3063 -0.0989
 2439SOL    HW117421   3.443  -0.006   2.330 -1.9936  0.2370 -2.1225
 2439SOL    HW217422   3.338  -0.031   2.453  0.3320  0.0885 -0.1157
 2440SOL     OW17423   3.729   4.544   1.896  0.4222 -0.1484 -0.3475
 2440SOL    HW117424   3.786   4.504   1.968 -0.4872  0.7570  0.9032
 2440SOL    HW217425   3.648   4.487   1.882  0.2421  0.0551 -0.1412
 2441SOL     OW17426   3.567   8.616   2.577  0.2036  0.0105 -0.4216
 2441SOL    HW117427   3.467   8.616   2.581  0.2069 -0.8967 -0.3073
 2441SOL    HW217428   3.600   8.534   2.531  0.9351 -0.3806  0.7613
 2442SOL     OW17429   4.409   8.634   0.488  0.0552  0.4096  0.0858
 2442SOL    HW117430   4.384   8.725   0.456 -1.5320 -0.0685 -0.0809
 2442SOL    HW217431   4.381   8.566   0.420 -1.9107 -0.4840  1.7384
 2443SOL     OW17432   9.509   4.273   1.913 -0.4007  0.3744  0.1964
 2443SOL    HW117433   9.552   4.184   1.900  1.1689  1.4263 -1.9316
 2443SOL    HW217434   9.442   4.289   1.840 -0.5811  1.0101  0.4997
 2444SOL     OW17435   1.883   9.489   0.982 -0.0054  0.0382  0.5836
 2444SOL    HW117436   1.804   9.517   0.927  0.9598 -0.8516 -1.2990
 2444SOL    HW217437   1.881   9.390   0.996  1.7070 -0.2672 -1.0537
 2445SOL     OW17438   3.701   2.599   2.382  0.5479 -0.4216 -0.2245
 2445SOL    HW117439   3.617   2.614   2.330  0.9408  0.7653 -0.5181
 2445SOL    HW217440   3.780   2.618   2.324  1.0004  0.0313  0.5463
 2446SOL     OW17441   1.315   9.872   2.413  0.5243  0.0053 -0.3104
 2446SOL    HW117442   1.342   9.968   2.421 -0.1745  0.2997 -1.3936
 2446SOL    HW217443   1.393   9.818   2.384  0.2676  0.6813 -2.3518
 2447SOL     OW17444  10.252   7.777   2.774 -0.1204 -0.5518 -0.1705
 2447SOL    HW117445  10.198   7.850   2.733 -0.3290  0.2844  1.5305
 2447SOL    HW217446  10.349   7.803   2.774 -0.2324 -0.0805  0.7596
 2448SOL     OW17447   4.383   1.241   2.470  0.3068 -0.1378 -0.1794
 2448SOL    HW117448   4.463   1.299   2.456  0.9181 -0.5963  1.3145
 2448SOL    HW217449   4.303   1.298   2.486  0.7588  0.3040  0.5208
 2449SOL     OW17450   9.922   8.379   0.405 -0.1302  0.4825  0.4187
 2449SOL    HW117451   9.975   8.425   0.334 -1.1045  0.2212 -0.4927
 2449SOL    HW217452   9.853   8.441   0.441 -0.4537  0.2225  0.2564
 2450SOL     OW17453   2.270   9.263   1.381 -0.6932 -0.2596 -0.2892
 2450SOL    HW117454   2.354   9.261   1.436  0.5513  1.0543 -2.0876
 2450SOL    HW217455   2.251   9.171   1.346  0.2581 -0.4800 -0.2462
 2451SOL     OW17456   3.527   8.610   0.377  0.1363 -0.7259 -0.5260
 2451SOL    HW117457   3.511   8.594   0.475 -2.1034 -0.4805 -0.8253
 2451SOL    HW217458   3.587   8.689   0.366  0.5776 -0.8728  0.6421
 2452SOL     OW17459   2.277   9.827   2.155  0.1304  0.4413  0.1225
 2452SOL    HW117460   2.368   9.810   2.118 -0.0501 -0.5581  0.1237
 2452SOL    HW217461   2.260   9.767   2.233 -1.4578 -1.1797 -1.4135
 2453SOL     OW17462   1.948   4.027   2.265  0.3615 -0.1513 -0.2277
 2453SOL    HW117463   1.852   4.027   2.295  0.5148  1.3302  0.2922
 2453SOL    HW217464   1.964   4.104   2.204  0.8773 -1.2464 -1.4901
 2454SOL     OW17465   0.942   1.880   1.569  0.3911 -0.0474  0.1810
 2454SOL    HW117466   1.002   1.923   1.637 -0.9886 -1.6658  2.5285
 2454SOL    HW217467   0.907   1.949   1.507  1.2891  1.5885  1.4430
 2455SOL     OW17468   4.199   2.724   2.762  0.5592 -0.0304  0.0733
 2455SOL    HW117469   4.104   2.696   2.768  0.3494  1.0238  2.0352
 2455SOL    HW217470   4.248   2.695   2.844  1.4885  1.0298 -0.0857
 2456SOL     OW17471   1.809   7.954   1.920 -0.4905  0.0350 -0.0357
 2456SOL    HW117472   1.890   7.905   1.888 -1.1182  0.1806 -1.9068
 2456SOL    HW217473   1.823   7.983   2.014 -0.0653 -3.6585  1.1212
 2457SOL     OW17474   9.468   1.846   2.279  0.1677  0.4422  0.4977
 2457SOL    HW117475   9.558   1.850   2.324 -0.3173 -0.0719  1.5140
 2457SOL    HW217476   9.421   1.762   2.304 -0.1585  0.1871 -0.9078
 2458SOL     OW17477   0.394   5.366   1.191 -0.5948  0.6373 -0.0864
 2458SOL    HW117478   0.411   5.383   1.094 -1.2700  0.9536 -0.1460
 2458SOL    HW217479   0.482   5.364   1.240 -0.2971  1.0690 -0.6004
 2459SOL     OW17480   9.365   0.852   2.045 -0.1067  0.5837 -0.5703
 2459SOL    HW117481   9.320   0.922   1.989 -0.8017  0.8755  0.3401
 2459SOL    HW217482   9.299   0.781   2.069 -0.1260  1.0487  0.8352
 2460SOL     OW17483   3.780   0.604   2.043  0.4382 -0.4111 -0.2934
 2460SOL    HW117484   3.696   0.597   2.097 -0.0207  0.4624 -0.8703
 2460SOL    HW217485   3.845   0.534   2.072  0.0043 -0.2648  1.0438
 2461SOL     OW17486   2.240   3.925   0.653  0.5872  1.1643  0.4850
 2461SOL    HW117487   2.163   3.979   0.619  0.4814  0.9216  0.3411
 2461SOL    HW217488   2.325   3.976   0.641  0.6887  0.6113 -1.1721
 2462SOL     OW17489   0.563   4.951   1.489  0.0269 -0.0292 -0.2976
 2462SOL    HW117490   0.533   4.957   1.584  0.3479  0.4266 -0.2219
 2462SOL    HW217491   0.610   4.864   1.474 -0.8458 -0.5102 -0.2809
 2463SOL     OW17492   1.769   7.087   0.457 -0.3511  0.2910 -0.8842
 2463SOL    HW117493   1.715   7.002   0.456  0.5239 -0.2696 -0.9471
 2463SOL    HW217494   1.843   7.079   0.524 -0.0609  0.8768 -1.1284
 2464SOL     OW17495   4.699   3.810   2.180 -0.3026  0.0513  0.0315
 2464SOL    HW117496   4.737   3.808   2.088  0.8138 -2.2017  0.5015
 2464SOL    HW217497   4.600   3.819   2.175 -0.3054 -0.6319 -1.4297
 2465SOL     OW17498   2.677   9.725   2.365 -0.0994 -0.0028  0.3533
 2465SOL    HW117499   2.641   9.809   2.404  1.4075  1.1000 -0.5793
 2465SOL    HW217500   2.733   9.678   2.433 -0.3876  0.0866  0.6553
 2466SOL     OW17501   3.781   3.961   1.874 -0.0147  0.3107 -0.6469
 2466SOL    HW117502   3.717   3.884   1.872 -1.1984  1.2770 -0.3989
 2466SOL    HW217503   3.774   4.011   1.787 -1.2692  1.7589  0.2684
 2467SOL     OW17504   4.248   1.152   1.783 -0.0792  0.1234  0.4577
 2467SOL    HW117505   4.241   1.213   1.862  0.7448 -2.1311  2.3373
 2467SOL    HW217506   4.158   1.138   1.743 -0.1252  3.4742 -0.7576
 2468SOL     OW17507   1.689   1.018   1.755 -0.4748  0.2002  0.2448
 2468SOL    HW117508   1.746   0.937   1.771  0.7467  0.9448 -0.2368
 2468SOL    HW217509   1.655   1.016   1.661  0.5209  0.8143 -0.1437
 2469SOL     OW17510   9.600   9.548   0.801 -0.6785  0.4902 -0.4023
 2469SOL    HW117511   9.596   9.580   0.707  0.8408  1.8792 -0.0179
 2469SOL    HW217512   9.574   9.622   0.863 -0.2654  0.0272  0.3365
 2470SOL     OW17513   1.461   0.735   2.038 -0.4206  0.2882  0.5277
 2470SOL    HW117514   1.460   0.832   2.014 -1.0495  0.3049  0.6306
 2470SOL    HW217515   1.399   0.718   2.115 -2.0956 -0.5915 -0.9706
 2471SOL     OW17516   9.037   7.402   0.469 -0.0498  0.5954  0.0978
 2471SOL    HW117517   9.062   7.431   0.561  0.1569  2.4872 -0.5332
 2471SOL    HW217518   9.116   7.358   0.425  0.3016  1.0096  0.3092
 2472SOL     OW17519  10.332   9.183   0.349  0.2292 -0.2746  0.4567
 2472SOL    HW117520  10.243   9.225   0.334  1.6615  2.0542 -1.9250
 2472SOL    HW217521  10.325   9.084   0.335 -1.3687  0.2217 -2.8096
 2473SOL     OW17522   3.952   3.460   0.532  0.1690 -0.6840 -0.0361
 2473SOL    HW117523   3.879   3.525   0.552  1.4003  0.4925  0.7731
 2473SOL    HW217524   3.964   3.399   0.611  0.2654 -0.6751 -0.0439
 2474SOL     OW17525   9.503   8.001   2.342 -0.3418  0.2166  0.2663
 2474SOL    HW117526   9.466   8.080   2.294  0.7068  0.8326  0.4764
 2474SOL    HW217527   9.469   7.917   2.299 -1.0309  0.7669 -0.2744
 2475SOL     OW17528   3.394   3.346   0.871 -0.5701  0.1266 -0.4479
 2475SOL    HW117529   3.451   3.289   0.930  1.7774 -0.4705 -3.1538
 2475SOL    HW217530   3.400   3.312   0.777 -1.0993  3.3260 -1.6946
 2476SOL     OW17531  10.298   4.961   0.510  0.2579  0.3216 -0.0439
 2476SOL    HW117532  10.383   4.933   0.554  0.3905 -0.5376 -0.8351
 2476SOL    HW217533  10.225   4.898   0.535  0.6398 -0.9994 -2.1227
 2477SOL     OW17534   4.134   9.669   1.305 -0.2863 -0.6168 -0.0338
 2477SOL    HW117535   4.197   9.600   1.341 -1.6238 -1.2951  1.0573
 2477SOL    HW217536   4.084   9.631   1.227  0.7052 -0.0428 -0.9663
 2478SOL     OW17537  10.270   2.025   0.830  0.0085  0.1466  0.0565
 2478SOL    HW117538  10.306   1.941   0.790 -0.7275  0.6490 -1.7427
 2478SOL    HW217539  10.342   2.094   0.834  1.0003 -1.0091  2.9133
 2479SOL     OW17540   9.703   7.272   1.964  0.1966 -0.2074  0.1556
 2479SOL    HW117541   9.739   7.277   2.057  0.9488  0.2172 -0.1536
 2479SOL    HW217542   9.689   7.177   1.938 -1.8361 -0.2830  1.3937
 2480SOL     OW17543   9.882   3.554   1.580 -0.1206 -0.2573 -0.0378
 2480SOL    HW117544   9.977   3.583   1.570 -0.5078  0.7741 -0.7261
 2480SOL    HW217545   9.874   3.457   1.555  0.9554 -0.6828  1.1928
 2481SOL     OW17546  10.265   3.351   0.165 -0.2076 -0.1946  0.4381
 2481SOL    HW117547  10.287   3.253   0.163 -1.5603 -0.4947 -0.8379
 2481SOL    HW217548  10.314   3.395   0.240  1.1128 -1.6830  0.4614
 2482SOL     OW17549   0.697   5.285   2.577 -0.0165  0.3349 -0.5131
 2482SOL    HW117550   0.672   5.218   2.507 -0.9223 -1.5881  1.5910
 2482SOL    HW217551   0.614   5.333   2.607  0.2330  0.5109 -0.1098
 2483SOL     OW17552   8.879   4.173   1.476 -0.0119 -0.2301 -0.3532
 2483SOL    HW117553   8.976   4.162   1.498  0.4979  1.3099 -1.6782
 2483SOL    HW217554   8.866   4.161   1.378 -1.0117  0.5280 -0.3196
 2484SOL     OW17555   3.849   0.165   0.724 -0.3195  0.0053  0.2711
 2484SOL    HW117556   3.919   0.205   0.665 -0.1614  0.7110  0.9285
 2484SOL    HW217557   3.892   0.120   0.802 -0.5936  0.3644  0.6303
 2485SOL     OW17558   3.168   4.259   0.500 -0.5666 -0.1001 -0.1125
 2485SOL    HW117559   3.139   4.347   0.537  2.8716  1.4073 -0.8422
 2485SOL    HW217560   3.151   4.258   0.401  0.1619  0.0879 -0.2426
 2486SOL     OW17561   1.712   3.206   0.326  0.0375  0.2597  0.5226
 2486SOL    HW117562   1.654   3.242   0.400 -1.0217 -1.7934  0.7215
 2486SOL    HW217563   1.768   3.280   0.289 -2.0581  2.1131  0.9307
 2487SOL     OW17564   2.221   3.060   0.386 -0.1445  0.1466  0.2192
 2487SOL    HW117565   2.248   3.056   0.290 -0.2058  2.4582  0.0756
 2487SOL    HW217566   2.124   3.081   0.393 -0.9334 -3.3037  0.7993
 2488SOL     OW17567   3.161   8.410   0.483  0.2183 -0.0470  0.3755
 2488SOL    HW117568   3.207   8.435   0.398  1.3171 -0.2995  0.8909
 2488SOL    HW217569   3.074   8.459   0.489  0.5971  0.7402 -0.4189
 2489SOL     OW17570   3.771   3.903   2.529  0.2175  0.0600  0.5989
 2489SOL    HW117571   3.730   3.924   2.440  0.5706  1.6828  0.8055
 2489SOL    HW217572   3.828   3.821   2.520 -0.4891 -0.3273 -0.4477
 2490SOL     OW17573   1.215   6.184   0.853 -0.2146 -0.2047  0.2883
 2490SOL    HW117574   1.162   6.266   0.871 -0.2061 -0.3629  1.0539
 2490SOL    HW217575   1.246   6.144   0.940 -0.2089 -1.0055 -0.0751
 2491SOL     OW17576   1.208   3.348   1.240  0.0662  0.4106 -0.2840
 2491SOL    HW117577   1.171   3.279   1.178  0.5890  1.5177 -1.8732
 2491SOL    HW217578   1.274   3.305   1.302  0.6410 -0.4519 -1.4766
 2492SOL     OW17579   3.939   1.358   1.401 -0.4159 -0.2969 -0.1514
 2492SOL    HW117580   4.002   1.398   1.336 -0.8759 -2.2843 -1.8714
 2492SOL    HW217581   3.987   1.339   1.487  0.4346  1.3952 -0.2278
 2493SOL     OW17582   1.801   7.012   2.180  0.2879 -0.4363  0.2426
 2493SOL    HW117583   1.796   6.913   2.168  0.0500 -0.2405 -1.2874
 2493SOL    HW217584   1.712   7.053   2.161 -0.1615 -0.1034  2.8041
 2494SOL     OW17585   0.800   4.889   2.828 -0.4557 -0.0751 -0.0870
 2494SOL    HW117586   0.853   4.849   2.903  0.3118  0.5648 -0.2849
 2494SOL    HW217587   0.720   4.831   2.810 -1.7769  0.8484  2.5691
 2495SOL     OW17588   0.373   0.496   0.139  0.2049  0.2226  0.1387
 2495SOL    HW117589   0.464   0.456   0.148  0.3017 -0.0135 -1.6697
 2495SOL    HW217590   0.304   0.431   0.172  0.2954 -1.8409 -3.5387
 2496SOL     OW17591   4.221   3.299   0.590 -0.1412  0.3495  0.4966
 2496SOL    HW117592   4.142   3.238   0.592  0.6382 -0.7264 -0.9896
 2496SOL    HW217593   4.224   3.348   0.504  0.7643  0.4495  0.5750
 2497SOL     OW17594   3.087   8.073   1.829 -0.5188  0.1859 -0.4290
 2497SOL    HW117595   3.038   8.000   1.781 -1.5318  1.3833 -1.2445
 2497SOL    HW217596   3.173   8.093   1.781 -0.9130  0.4888 -1.0147
 2498SOL     OW17597   9.779   6.152   0.875  0.0506  0.3170 -0.0528
 2498SOL    HW117598   9.849   6.084   0.895 -0.0934  0.4808  1.0170
 2498SOL    HW217599   9.721   6.120   0.800  0.4543 -0.4017 -0.0550
 2499SOL     OW17600  10.275   1.663   2.735  0.4263  0.4228 -0.1372
 2499SOL    HW117601  10.294   1.569   2.762 -0.5153  0.9373  2.4946
 2499SOL    HW217602  10.359   1.717   2.740 -0.0002  0.8540  3.4546
 2500SOL     OW17603   9.262   6.060   1.370  0.6680 -0.5031  0.0168
 2500SOL    HW117604   9.332   6.001   1.410  1.0211 -0.1380 -0.0570
 2500SOL    HW217605   9.173   6.017   1.380  0.9344 -1.0899 -0.1157
 2501SOL     OW17606   9.394   3.054   0.299  0.0285 -0.1666 -0.1857
 2501SOL    HW117607   9.473   3.057   0.237  0.5487  1.9168  0.5529
 2501SOL    HW217608   9.392   3.137   0.355 -1.5012 -1.1641  1.2868
 2502SOL     OW17609   0.738   1.460   1.567  0.0494  0.4002 -0.1413
 2502SOL    HW117610   0.655   1.408   1.548 -0.4512  0.6355  1.4202
 2502SOL    HW217611   0.772   1.438   1.658 -0.1168  2.7479  0.5196
 2503SOL     OW17612   9.278   3.273   1.436 -0.6663 -0.1185  0.7069
 2503SOL    HW117613   9.321   3.188   1.407 -2.1941 -0.8947  0.6818
 2503SOL    HW217614   9.252   3.327   1.355  0.0963  0.2683  0.7195
 2504SOL     OW17615   2.281   4.309   2.465 -0.0603  0.3098 -0.2801
 2504SOL    HW117616   2.229   4.347   2.388  0.0968 -0.4578 -0.7719
 2504SOL    HW217617   2.287   4.377   2.538  0.4838  1.3474 -1.2667
 2505SOL     OW17618   9.374   5.445   1.393  0.9041 -0.3102 -0.0983
 2505SOL    HW117619   9.325   5.374   1.342 -0.6374  1.3903 -1.0293
 2505SOL    HW217620   9.386   5.415   1.488  2.0097 -2.6336 -0.9321
 2506SOL     OW17621   1.616   8.454   0.193  0.2838  0.7087  0.2990
 2506SOL    HW117622   1.703   8.502   0.183  0.1302  0.4199 -3.0182
 2506SOL    HW217623   1.541   8.521   0.196  0.3832  0.8549 -0.2960
 2507SOL     OW17624   9.584   1.309   1.200  0.0886 -0.6993  0.5945
 2507SOL    HW117625   9.594   1.387   1.138 -2.6533 -0.6691  0.1190
 2507SOL    HW217626   9.615   1.334   1.291 -0.0559  0.6963  0.2646
 2508SOL     OW17627   1.194   3.592   1.553 -0.5220  0.5384 -0.2322
 2508SOL    HW117628   1.182   3.594   1.453 -3.1990 -0.1585  0.0358
 2508SOL    HW217629   1.194   3.497   1.584  1.4033  0.7108  0.3426
 2509SOL     OW17630   2.256   8.445   2.690  0.2941  0.8723 -0.1116
 2509SOL    HW117631   2.192   8.396   2.749 -0.2774  2.5987  0.7166
 2509SOL    HW217632   2.345   8.449   2.735  0.0770  1.4739  0.2578
 2510SOL     OW17633   1.925   4.183   1.856 -0.0727 -0.0572  0.2141
 2510SOL    HW117634   2.003   4.122   1.846  0.0244  0.0772  0.1579
 2510SOL    HW217635   1.942   4.269   1.808 -0.3108 -0.0799  0.0840
 2511SOL     OW17636   9.764   0.829   0.984 -0.4409 -0.1193 -0.3554
 2511SOL    HW117637   9.820   0.911   0.971 -0.7978  0.1495 -0.1992
 2511SOL    HW217638   9.824   0.748   0.988 -0.2628 -0.1836 -3.1703
 2512SOL     OW17639   1.313   8.205   1.520 -0.1555  0.0447 -0.1924
 2512SOL    HW117640   1.355   8.165   1.438 -1.1673 -0.1614 -0.6239
 2512SOL    HW217641   1.342   8.153   1.600 -0.4681 -0.8020 -0.6091
 2513SOL     OW17642   0.943   0.051   2.246  0.3418 -0.0566  0.5927
 2513SOL    HW117643   0.989   0.019   2.329  1.4078 -0.6967 -0.2387
 2513SOL    HW217644   0.972  -0.004   2.168  0.6399  1.6281 -0.5147
 2514SOL     OW17645   4.733   2.538   2.363  0.2176  0.1942 -0.0477
 2514SOL    HW117646   4.685   2.517   2.277  2.4805 -1.1203 -1.0194
 2514SOL    HW217647   4.670   2.523   2.440 -1.3148 -0.3112 -1.3493
 2515SOL     OW17648   1.489   1.893   1.237  0.3198 -0.2567 -0.3551
 2515SOL    HW117649   1.394   1.922   1.234  0.3651  0.0397  0.9203
 2515SOL    HW217650   1.547   1.970   1.263  0.7783 -0.7370  0.0626
 2516SOL     OW17651   9.940   7.760   0.088  0.6845  0.1502  0.0223
 2516SOL    HW117652   9.978   7.849   0.116  1.4140 -0.0137 -0.4213
 2516SOL    HW217653   9.959   7.746  -0.009  1.5728 -0.9997  0.3552
 2517SOL     OW17654   1.577   9.675   0.402  0.7366  0.3232  0.5866
 2517SOL    HW117655   1.566   9.682   0.303 -0.7414  4.2286  0.9240
 2517SOL    HW217656   1.674   9.669   0.424  1.3028  2.7309 -1.0134
 2518SOL     OW17657   9.476   6.304   0.128  0.1983  0.1152  0.3780
 2518SOL    HW117658   9.438   6.396   0.137  0.3977  0.1191  1.2074
 2518SOL    HW217659   9.550   6.305   0.061  1.5219  0.9817  1.8047
 2519SOL     OW17660   2.674   4.512   0.090 -0.2938  0.4099 -0.5398
 2519SOL    HW117661   2.739   4.494   0.164 -1.4215  1.9352  0.8561
 2519SOL    HW217662   2.584   4.477   0.115 -0.4038 -0.1869 -1.7364
 2520SOL     OW17663  10.028   0.911   2.681 -0.1368 -0.1889 -0.4215
 2520SOL    HW117664  10.026   0.819   2.718  1.1521 -0.1658 -0.2447
 2520SOL    HW217665  10.030   0.907   2.581  1.1401 -0.4121 -0.4044
 2521SOL     OW17666   0.760   6.211   2.678 -0.2326 -0.5817  0.2327
 2521SOL    HW117667   0.827   6.158   2.730  2.0174 -0.0816 -2.0425
 2521SOL    HW217668   0.727   6.287   2.734 -2.5064 -3.4775  3.0574
 2522SOL     OW17669   9.857   6.072   1.962  0.5167  0.5385 -0.5120
 2522SOL    HW117670   9.907   6.016   2.028  1.0354 -0.5766 -1.8369
 2522SOL    HW217671   9.921   6.125   1.908  0.1037  1.2093 -0.3530
 2523SOL     OW17672   2.991   4.848   0.194  0.5265  0.5453  0.4313
 2523SOL    HW117673   3.060   4.918   0.214 -0.4154  1.1462  1.6524
 2523SOL    HW217674   3.020   4.761   0.233  1.4829  0.3573 -0.6888
 2524SOL     OW17675   1.362   1.122   2.672  0.3486  0.9996  0.6911
 2524SOL    HW117676   1.398   1.049   2.730 -0.7209 -0.5327 -0.5058
 2524SOL    HW217677   1.430   1.194   2.662  2.1826 -0.7258  0.3916
 2525SOL     OW17678   4.643   3.527   1.107  0.0593 -0.0773 -0.1085
 2525SOL    HW117679   4.602   3.618   1.118 -2.3315 -0.6260 -3.5276
 2525SOL    HW217680   4.622   3.471   1.187  0.8205  2.0667  1.6458
 2526SOL     OW17681   2.296   0.213   0.409  0.0296  0.1468  0.1828
 2526SOL    HW117682   2.312   0.242   0.314  0.4544  0.4811  0.3543
 2526SOL    HW217683   2.351   0.133   0.429 -1.1840 -0.8259 -0.3069
 2527SOL     OW17684  10.263   3.894   1.037  0.0343  0.4202 -0.1910
 2527SOL    HW117685  10.209   3.918   1.118 -0.4437 -0.3868 -0.2706
 2527SOL    HW217686  10.295   3.800   1.044 -0.4601  0.1690 -1.1857
 2528SOL     OW17687   1.483   1.359   2.663 -0.0116 -0.7081 -0.2118
 2528SOL    HW117688   1.396   1.366   2.712 -1.3729  1.1077 -2.7559
 2528SOL    HW217689   1.537   1.441   2.679 -0.1867 -0.3923 -1.2107
 2529SOL     OW17690   9.621   8.389   2.545 -0.0285  0.3711 -0.1559
 2529SOL    HW117691   9.596   8.483   2.569  0.5078  0.4128  0.2377
 2529SOL    HW217692   9.602   8.373   2.448 -1.8873  0.3042  0.1930
 2530SOL     OW17693   2.362   3.795   0.901  0.6382 -0.5658  1.1420
 2530SOL    HW117694   2.307   3.776   0.982 -2.3255 -2.7159 -1.2297
 2530SOL    HW217695   2.304   3.838   0.831  2.4356 -1.1411 -0.7521
 2531SOL     OW17696   9.273   2.171   1.939 -0.2261 -0.1246  0.0357
 2531SOL    HW117697   9.350   2.131   1.990 -0.7115 -0.8491  0.2045
 2531SOL    HW217698   9.201   2.197   2.003  1.1014  3.4266  0.2290
 2532SOL     OW17699   8.871   3.090   1.467 -0.6942 -0.0338 -0.3237
 2532SOL    HW117700   8.877   3.001   1.420  0.1894 -0.0359 -0.2228
 2532SOL    HW217701   8.855   3.162   1.400  2.0561  0.1530 -0.8566
 2533SOL     OW17702   3.825   5.860   0.183 -0.2627  0.1500 -0.0886
 2533SOL    HW117703   3.877   5.917   0.246 -1.1890  0.5399  0.3137
 2533SOL    HW217704   3.816   5.768   0.221 -0.2615  0.2061  0.0477
 2534SOL     OW17705   1.340   6.067   2.778  0.3566  0.6104  0.3360
 2534SOL    HW117706   1.253   6.042   2.735  0.5193  1.7464 -0.6794
 2534SOL    HW217707   1.385   5.985   2.812 -1.3740  0.0704  1.3766
 2535SOL     OW17708   4.442   1.040   0.665  0.6497 -0.1076  0.1886
 2535SOL    HW117709   4.347   1.058   0.641  0.9356  1.0485 -0.0873
 2535SOL    HW217710   4.464   0.944   0.646 -0.1904 -0.1389 -0.6246
 2536SOL     OW17711   2.407   3.666   0.418  0.0543  0.1027  0.0787
 2536SOL    HW117712   2.411   3.757   0.460 -0.1490 -0.5882  1.6160
 2536SOL    HW217713   2.321   3.656   0.368  0.0740  0.7548 -0.0941
 2537SOL     OW17714   0.447   7.338   2.193 -0.2270 -0.3397 -0.4467
 2537SOL    HW117715   0.377   7.326   2.123 -0.3120 -1.1261 -0.2250
 2537SOL    HW217716   0.414   7.301   2.280  0.3009 -0.3410 -0.2467
 2538SOL     OW17717   5.351   3.891   0.377 -0.5236  0.5313 -0.3108
 2538SOL    HW117718   5.336   3.807   0.429 -1.4822  0.9445  0.1025
 2538SOL    HW217719   5.286   3.896   0.301 -1.0843  1.3233  0.2120
 2539SOL     OW17720   0.454   6.146   0.102  0.1370  0.1163 -0.1716
 2539SOL    HW117721   0.545   6.121   0.067 -0.1472 -1.4688  0.1801
 2539SOL    HW217722   0.416   6.219   0.045  0.9008 -0.4231 -1.4052
 2540SOL     OW17723   9.425   4.431   2.157 -0.6166  0.4304 -0.5255
 2540SOL    HW117724   9.343   4.476   2.122 -0.1680  1.9816  0.3398
 2540SOL    HW217725   9.468   4.378   2.084 -1.4459  1.0015 -1.4397
 2541SOL     OW17726   3.503   9.582   0.195  0.1118 -0.2882  0.3305
 2541SOL    HW117727   3.444   9.626   0.262  0.8016  0.4188  0.4783
 2541SOL    HW217728   3.449   9.518   0.140 -1.1374  1.6025 -0.6590
 2542SOL     OW17729   2.570   2.646   0.076  0.1455  0.5704 -0.5554
 2542SOL    HW117730   2.487   2.691   0.110 -0.2068  0.4796 -1.2793
 2542SOL    HW217731   2.649   2.705   0.094 -0.1609  0.9456 -0.4275
 2543SOL     OW17732   2.359   4.371   2.740 -0.3115  0.6826 -0.0681
 2543SOL    HW117733   2.400   4.356   2.830 -1.5851 -3.7314 -0.0800
 2543SOL    HW217734   2.259   4.377   2.750 -0.3666  1.6044 -1.0633
 2544SOL     OW17735   1.814   8.963   2.728 -0.1744  0.1337  0.1315
 2544SOL    HW117736   1.808   9.055   2.689 -0.4047 -0.1037 -0.4076
 2544SOL    HW217737   1.811   8.968   2.828  1.4804  0.8368  0.1622
 2545SOL     OW17738   3.586   9.240   2.218 -0.1657  0.2372  0.0983
 2545SOL    HW117739   3.598   9.326   2.167  0.5081 -0.7010 -1.3752
 2545SOL    HW217740   3.649   9.238   2.296  0.0883  0.9217 -0.0890
 2546SOL     OW17741   1.806   2.950   1.646 -0.6301 -0.3720  0.0845
 2546SOL    HW117742   1.834   2.920   1.555 -1.2564 -0.2614 -0.1488
 2546SOL    HW217743   1.707   2.938   1.656 -0.5834 -0.2678  0.7052
 2547SOL     OW17744   1.707   9.541   1.897  0.0588 -0.1914 -0.6578
 2547SOL    HW117745   1.615   9.547   1.858 -1.0744 -0.1101  1.9863
 2547SOL    HW217746   1.743   9.634   1.911  0.0867 -0.2084 -0.6179
 2548SOL     OW17747   3.692   2.068   1.586  0.4926 -0.1620  0.3848
 2548SOL    HW117748   3.713   1.975   1.617  0.2122  0.2785  1.8994
 2548SOL    HW217749   3.601   2.070   1.544  0.9644 -0.7990 -0.6990
 2549SOL     OW17750   2.036   0.789   2.328  0.5765  0.5047 -0.0378
 2549SOL    HW117751   1.993   0.705   2.297 -0.0707  0.1065  1.8452
 2549SOL    HW217752   1.984   0.868   2.294 -0.2485  0.0815  0.2323
 2550SOL     OW17753   3.331   6.474   2.493 -0.0900 -0.1380  0.2571
 2550SOL    HW117754   3.373   6.487   2.583  1.0244 -0.6741 -0.1760
 2550SOL    HW217755   3.320   6.562   2.448  0.5762  0.0087  0.3793
 2551SOL     OW17756   1.631   5.580   0.221  0.3201  0.3048  0.2918
 2551SOL    HW117757   1.531   5.591   0.226  0.2354 -1.0385  2.1061
 2551SOL    HW217758   1.674   5.670   0.223 -0.7952  0.8235  1.9831
 2552SOL     OW17759   2.032   2.041   0.569  0.2665 -0.2460 -0.1824
 2552SOL    HW117760   2.045   2.072   0.663 -0.0685 -0.0256 -0.2090
 2552SOL    HW217761   1.939   2.061   0.539  0.1459 -0.9923 -0.3098
 2553SOL     OW17762   3.392   0.182   0.663 -0.6196  0.0031  0.0749
 2553SOL    HW117763   3.440   0.095   0.651  0.7087  0.4434  2.0560
 2553SOL    HW217764   3.423   0.246   0.592 -0.7149 -0.7401 -0.6560
 2554SOL     OW17765   4.143   2.690   0.544 -0.5722  0.2773 -0.0646
 2554SOL    HW117766   4.070   2.628   0.513 -1.3049  0.3240  1.5116
 2554SOL    HW217767   4.140   2.774   0.490 -1.1779 -0.0379 -0.5406
 2555SOL     OW17768   2.733   3.185   0.962 -0.6776 -0.3553  0.5031
 2555SOL    HW117769   2.811   3.246   0.953  0.3606 -1.3888  2.2159
 2555SOL    HW217770   2.672   3.218   1.034 -1.0297 -0.3718  0.2147
 2556SOL     OW17771   0.448   2.867   0.112 -0.4910  1.1730  0.0989
 2556SOL    HW117772   0.523   2.825   0.061  0.2099  1.9986  0.4130
 2556SOL    HW217773   0.365   2.867   0.057 -0.1964  0.4451 -0.3460
 2557SOL     OW17774   0.750   4.159   0.452  0.1083 -0.1567  0.0054
 2557SOL    HW117775   0.675   4.099   0.426  0.5823 -0.2099 -1.2953
 2557SOL    HW217776   0.795   4.193   0.369  0.5397  1.1015  0.7470
 2558SOL     OW17777   3.149   2.435   0.561 -0.1715  0.0567 -0.3899
 2558SOL    HW117778   3.103   2.353   0.594 -0.8665  0.6366  0.1044
 2558SOL    HW217779   3.083   2.509   0.553  0.8422  1.1874  1.2693
 2559SOL     OW17780   1.871   9.018   0.589 -0.3197 -0.0976 -0.4588
 2559SOL    HW117781   1.809   8.960   0.536 -1.7349 -0.0038  1.0597
 2559SOL    HW217782   1.865   8.994   0.686  1.6299  0.2914 -0.2260
 2560SOL     OW17783   2.643   3.871   2.609  0.0836  0.1257  0.0330
 2560SOL    HW117784   2.604   3.843   2.522 -0.7638  0.5582  0.2585
 2560SOL    HW217785   2.583   3.841   2.683 -0.0338  1.1438  0.3651
 2561SOL     OW17786   1.162   5.168   1.895 -0.6164  0.3204 -0.2410
 2561SOL    HW117787   1.124   5.075   1.891 -1.4366  0.6392 -0.0115
 2561SOL    HW217788   1.188   5.189   1.989 -0.6342  0.4009 -0.2539
 2562SOL     OW17789   9.944   1.100   0.370 -0.1363  0.5873  0.0124
 2562SOL    HW117790   9.971   1.184   0.322  0.4891 -0.1470 -0.9473
 2562SOL    HW217791   9.893   1.041   0.307 -2.8905  1.3830  1.4221
 2563SOL     OW17792   1.502   2.572   0.975 -0.5171  0.3350 -0.1486
 2563SOL    HW117793   1.465   2.660   1.004  0.5698  0.2942  1.4292
 2563SOL    HW217794   1.478   2.503   1.044 -0.3872 -0.3670 -0.8115
 2564SOL     OW17795   9.909   3.163   0.298 -0.1118  0.6716 -0.2815
 2564SOL    HW117796   9.982   3.124   0.355  1.3591  2.6433 -0.7356
 2564SOL    HW217797   9.841   3.207   0.357 -2.4398 -3.4497  0.3185
 2565SOL     OW17798   3.669   0.618   1.500  0.2023 -0.0303  0.0719
 2565SOL    HW117799   3.670   0.671   1.585  1.7915 -0.6524  0.4702
 2565SOL    HW217800   3.761   0.582   1.483 -0.1881 -0.2102 -1.7273
 2566SOL     OW17801   1.446   5.624   1.884  0.2351 -0.2905 -0.1994
 2566SOL    HW117802   1.506   5.574   1.821  1.1059 -0.4110  0.7172
 2566SOL    HW217803   1.407   5.561   1.951  0.0432 -0.0032 -0.0371
 2567SOL     OW17804   1.673   8.811   0.398 -0.0032 -0.3848  0.3904
 2567SOL    HW117805   1.749   8.746   0.393  0.6083  0.2316  1.3432
 2567SOL    HW217806   1.647   8.824   0.493 -0.9037 -0.1214  0.1107
 2568SOL     OW17807   2.628   6.579   2.175  0.4988  0.4863 -0.1458
 2568SOL    HW117808   2.546   6.607   2.126  0.6925  1.4885  0.0818
 2568SOL    HW217809   2.611   6.585   2.274  0.8988  0.8696 -0.0980
 2569SOL     OW17810   3.300   9.038   0.353 -0.4990  0.5377 -0.2040
 2569SOL    HW117811   3.281   8.943   0.378  0.4264  0.7858  1.5566
 2569SOL    HW217812   3.324   9.044   0.256  0.2054 -1.1390 -0.1398
 2570SOL     OW17813   1.264   7.558   0.346 -0.0810 -0.1975  0.4022
 2570SOL    HW117814   1.297   7.546   0.252  1.5671 -0.7978  1.0376
 2570SOL    HW217815   1.166   7.539   0.350 -0.1547 -0.2061 -1.1831
 2571SOL     OW17816   9.899   7.911   0.481  0.3411 -0.5542 -0.0410
 2571SOL    HW117817   9.843   7.840   0.525 -0.6420 -0.4353 -1.0837
 2571SOL    HW217818   9.874   8.000   0.518  1.0429 -0.6549  0.7133
 2572SOL     OW17819   3.216   9.856   1.194  0.5153 -0.6065 -0.2317
 2572SOL    HW117820   3.285   9.919   1.158 -1.2129  1.2094 -0.5065
 2572SOL    HW217821   3.129   9.872   1.147 -1.0377 -0.2469  2.6030
 2573SOL     OW17822   1.630   1.655   1.358  0.7127  0.6665 -0.8420
 2573SOL    HW117823   1.729   1.673   1.355  0.6861  0.5928 -2.2330
 2573SOL    HW217824   1.583   1.714   1.293 -0.0893  0.1875 -0.7035
 2574SOL     OW17825   3.521   8.629   1.756 -0.1329  0.6640  0.2870
 2574SOL    HW117826   3.440   8.633   1.815 -0.2255  1.2840  0.1215
 2574SOL    HW217827   3.564   8.719   1.752  0.7833  0.2441  0.6660
 2575SOL     OW17828   0.427   5.221   0.491 -0.1474  0.0902 -0.4070
 2575SOL    HW117829   0.487   5.197   0.415 -0.4655 -0.0426 -0.6170
 2575SOL    HW217830   0.348   5.160   0.491  0.4684 -0.7376  0.7755
 2576SOL     OW17831   2.408   1.322   1.861 -0.2723  0.1104  0.1867
 2576SOL    HW117832   2.390   1.419   1.845  0.4233  0.1592 -0.3057
 2576SOL    HW217833   2.504   1.302   1.844 -0.3365 -0.6004  0.6198
 2577SOL     OW17834   1.670   3.742   1.294 -0.0920  0.0564 -0.6473
 2577SOL    HW117835   1.648   3.688   1.376 -0.6215  1.0598 -0.1178
 2577SOL    HW217836   1.761   3.717   1.262  0.6635  0.5853  1.0277
 2578SOL     OW17837   3.261   8.928   1.655 -0.1017 -0.7216  0.1053
 2578SOL    HW117838   3.253   8.854   1.588 -2.2192 -0.9770  0.6094
 2578SOL    HW217839   3.275   8.888   1.746  0.5816 -0.4316  0.1318
 2579SOL     OW17840  10.120   5.759   0.331 -0.2170  0.4141  0.3417
 2579SOL    HW117841  10.032   5.725   0.299  0.8942 -1.0693 -1.2886
 2579SOL    HW217842  10.110   5.852   0.366 -2.5518 -0.0232  0.8985
 2580SOL     OW17843   2.265   6.312   2.230 -0.4915  0.2072 -0.5750
 2580SOL    HW117844   2.326   6.234   2.215 -0.3286 -0.0563  1.3472
 2580SOL    HW217845   2.276   6.345   2.323 -0.4538  2.6434 -1.4128
 2581SOL     OW17846   9.180   4.608   0.139  0.6832 -0.4218 -0.2050
 2581SOL    HW117847   9.213   4.611   0.234  0.8049  1.1900 -0.2946
 2581SOL    HW217848   9.250   4.566   0.081  0.8587 -0.8447  0.3041
 2582SOL     OW17849   0.711   6.879   1.755  0.3564 -0.3883  0.4314
 2582SOL    HW117850   0.618   6.863   1.789  0.3042 -0.2898  0.3342
 2582SOL    HW217851   0.716   6.970   1.714  0.6329 -0.1809  0.9155
 2583SOL     OW17852   9.659   5.727   1.852  0.3489  0.1704  0.2503
 2583SOL    HW117853   9.657   5.821   1.818 -1.6679  0.4200  0.9699
 2583SOL    HW217854   9.685   5.726   1.948 -0.3660  0.0788  0.4500
 2584SOL     OW17855   3.382   7.687   2.540  0.3828 -0.4484  0.1370
 2584SOL    HW117856   3.399   7.773   2.587  1.0840 -0.4531 -0.1082
 2584SOL    HW217857   3.316   7.702   2.466 -1.7937 -0.6994  1.9544
 2585SOL     OW17858   4.649   3.773   1.327 -0.0800 -0.1946  0.1476
 2585SOL    HW117859   4.585   3.765   1.251 -0.7243  0.9638  0.5460
 2585SOL    HW217860   4.722   3.838   1.303 -0.9633  1.1261  0.9465
 2586SOL     OW17861   3.206   5.666   2.624  0.2012 -0.2492 -0.3231
 2586SOL    HW117862   3.230   5.576   2.589 -2.0226 -0.3774 -1.6479
 2586SOL    HW217863   3.242   5.737   2.564  1.4332 -0.2707  0.3860
 2587SOL     OW17864  10.063   8.946   0.193 -0.1478 -0.3615  0.3183
 2587SOL    HW117865  10.001   8.884   0.240  0.7319 -1.6155 -0.1243
 2587SOL    HW217866  10.024   8.972   0.104 -1.0061  0.5977  0.9616
 2588SOL     OW17867  10.246   1.416   1.208  0.5719  0.0621 -0.3093
 2588SOL    HW117868  10.169   1.403   1.270 -0.2556 -0.8847 -1.4986
 2588SOL    HW217869  10.241   1.507   1.167 -0.5272 -0.3916 -1.1931
 2589SOL     OW17870   2.648   6.163   0.789  0.3902  0.1474  0.2168
 2589SOL    HW117871   2.602   6.239   0.744  0.0274 -0.6787 -0.8039
 2589SOL    HW217872   2.746   6.166   0.768  0.3583  0.2695  0.0854
 2590SOL     OW17873   2.445   3.560   2.686  0.9339 -0.2842 -0.2308
 2590SOL    HW117874   2.379   3.575   2.612  0.7609  0.0223 -0.0197
 2590SOL    HW217875   2.452   3.644   2.741  1.7237 -0.2183 -0.4287
 2591SOL     OW17876   9.999   3.030   0.815  0.2110 -0.1531 -0.2750
 2591SOL    HW117877  10.064   3.096   0.852 -1.7650  1.2843  0.7250
 2591SOL    HW217878   9.996   2.949   0.873  0.6466  0.0486  0.0263
 2592SOL     OW17879   1.427   2.335   1.127  0.1200 -0.8237 -0.4179
 2592SOL    HW117880   1.450   2.325   1.224  0.1364 -2.2462 -0.5594
 2592SOL    HW217881   1.328   2.346   1.117  0.0499 -1.3256 -0.2852
 2593SOL     OW17882   2.420   0.559   0.742 -0.6967 -0.8137 -0.4305
 2593SOL    HW117883   2.376   0.481   0.697  0.1174 -1.1669 -0.6258
 2593SOL    HW217884   2.440   0.537   0.837 -1.7096 -0.3493 -0.1129
 2594SOL     OW17885   2.444   8.569   0.261  0.3199 -0.1199  0.3305
 2594SOL    HW117886   2.365   8.525   0.303  1.2220 -2.4130 -0.2951
 2594SOL    HW217887   2.471   8.518   0.179  1.5980  1.4361 -0.2463
 2595SOL     OW17888   2.796   8.154   1.322 -0.8128 -0.8812  0.2148
 2595SOL    HW117889   2.797   8.106   1.235  1.6754  0.0060 -0.2942
 2595SOL    HW217890   2.862   8.112   1.384 -0.0481  0.5916  0.4430
 2596SOL     OW17891   8.875   7.315   1.150 -0.0920 -0.1587 -0.3872
 2596SOL    HW117892   8.873   7.338   1.248  0.8232 -0.1673 -0.3665
 2596SOL    HW217893   8.844   7.221   1.138  3.8185 -1.6335  0.3462
 2597SOL     OW17894   1.067   0.847   2.152 -0.2827 -0.1504  0.6006
 2597SOL    HW117895   1.047   0.803   2.240  1.0035 -0.7619  0.6046
 2597SOL    HW217896   1.150   0.902   2.161  1.4333 -2.3821 -0.9047
 2598SOL     OW17897   9.082   3.169   1.650  0.4308  0.4556  0.3912
 2598SOL    HW117898   9.036   3.187   1.563 -1.3252 -2.5298  0.6471
 2598SOL    HW217899   9.059   3.241   1.715 -3.6566 -0.7748  0.4120
 2599SOL     OW17900   0.794   2.340   1.854  0.0256 -0.6149  0.3173
 2599SOL    HW117901   0.887   2.320   1.886  0.2514  0.0967  0.1013
 2599SOL    HW217902   0.743   2.386   1.927 -0.4660 -1.8679  0.7804
 2600SOL     OW17903   4.711   3.976   1.730  0.3497 -0.0583 -0.0322
 2600SOL    HW117904   4.655   4.055   1.703  0.6909 -0.0139 -0.6230
 2600SOL    HW217905   4.779   3.959   1.659 -0.8924 -1.9978 -0.8053
 2601SOL     OW17906   9.901   2.454   1.709 -0.5790 -0.2732 -0.0001
 2601SOL    HW117907   9.843   2.521   1.662 -1.1429  1.3058  2.8217
 2601SOL    HW217908   9.845   2.402   1.774  0.4995 -1.2636  0.1518
 2602SOL     OW17909   4.515   4.216   0.677 -0.5746  0.6708 -0.4482
 2602SOL    HW117910   4.482   4.125   0.652  1.6615 -0.3440  0.2098
 2602SOL    HW217911   4.516   4.273   0.595 -0.9588 -0.2021 -1.0775
 2603SOL     OW17912   1.596   8.258   2.647 -0.4165 -0.1514  0.0718
 2603SOL    HW117913   1.658   8.331   2.617  0.3979 -0.8845 -0.0802
 2603SOL    HW217914   1.508   8.297   2.672 -1.5116  0.4022 -4.3006
 2604SOL     OW17915   0.340   9.653   0.680  0.0846  0.5498 -0.0697
 2604SOL    HW117916   0.280   9.696   0.748  0.2563 -0.0414  0.4651
 2604SOL    HW217917   0.354   9.557   0.705 -0.0232  0.2690 -1.0615
 2605SOL     OW17918   9.430   4.204   2.715 -0.2018  0.3925 -0.2755
 2605SOL    HW117919   9.492   4.140   2.762 -0.8839 -1.0403 -1.2889
 2605SOL    HW217920   9.484   4.270   2.664  0.5437  1.5147  1.8941
 2606SOL     OW17921   0.393   8.584   2.292  0.0087 -0.0602  0.1135
 2606SOL    HW117922   0.367   8.504   2.238 -0.0640  0.8719 -1.2550
 2606SOL    HW217923   0.457   8.640   2.240 -0.7393  1.3057  0.6518
 2607SOL     OW17924   2.013   7.253   1.347  0.0347 -0.1514 -0.6533
 2607SOL    HW117925   2.005   7.221   1.253 -0.8455 -1.2528 -0.2262
 2607SOL    HW217926   1.922   7.270   1.385  0.3688  0.0875  0.0621
 2608SOL     OW17927   2.468   4.748   2.072 -0.1759  0.0253 -0.2740
 2608SOL    HW117928   2.449   4.658   2.111 -1.5426  1.4836  2.5373
 2608SOL    HW217929   2.563   4.774   2.091  0.4250 -1.0932 -1.6903
 2609SOL     OW17930   9.831   4.313   2.226  0.2707  0.0584  0.2661
 2609SOL    HW117931   9.825   4.256   2.144 -0.1555  0.4106  0.0502
 2609SOL    HW217932   9.887   4.267   2.295 -0.2756 -0.7326  0.1875
 2610SOL     OW17933   1.412   4.733   0.210 -0.6387  0.2549 -1.2497
 2610SOL    HW117934   1.459   4.816   0.241  0.5072 -0.6308 -0.5531
 2610SOL    HW217935   1.367   4.689   0.287 -1.8154  0.5766 -1.7427
 2611SOL     OW17936   3.944   0.341   1.528  0.3919 -0.0330  0.3690
 2611SOL    HW117937   3.877   0.350   1.454  2.3730 -0.0928 -1.4465
 2611SOL    HW217938   3.988   0.251   1.523  0.8185  0.1071  1.4010
 2612SOL     OW17939   4.164   3.385   2.420  0.7800  0.4617 -0.1091
 2612SOL    HW117940   4.256   3.346   2.420  0.7226  0.3191 -0.8331
 2612SOL    HW217941   4.158   3.454   2.348  0.2045  0.1942 -0.3202
 2613SOL     OW17942   9.638   9.525   0.398  0.7378 -0.5165 -0.1127
 2613SOL    HW117943   9.578   9.459   0.353 -0.5986 -0.1815  1.1659
 2613SOL    HW217944   9.645   9.607   0.342  1.0230 -1.0440 -0.8659
 2614SOL     OW17945   3.429   3.223   2.665 -0.0365  0.7197 -0.2204
 2614SOL    HW117946   3.510   3.273   2.635  0.0971  0.8080  0.2933
 2614SOL    HW217947   3.387   3.177   2.586  0.2103  1.1071 -0.5756
 2615SOL     OW17948   2.308   2.171   0.526 -0.1740  0.6640  0.2850
 2615SOL    HW117949   2.299   2.087   0.474  0.0070  0.6874  0.2156
 2615SOL    HW217950   2.247   2.168   0.605  0.1391  0.2908  0.5150
 2616SOL     OW17951   9.918   2.831   0.993 -0.0252 -0.0053 -0.0198
 2616SOL    HW117952   9.861   2.756   0.960  0.3702  0.1876 -1.1636
 2616SOL    HW217953   9.864   2.889   1.054 -0.3119 -1.2495  0.9382
 2617SOL     OW17954   0.464   8.811   0.091  0.1650 -0.2720  0.3252
 2617SOL    HW117955   0.558   8.816   0.125 -0.1921 -1.9454  1.5883
 2617SOL    HW217956   0.434   8.903   0.064  1.6444  0.5217  1.2996
 2618SOL     OW17957   9.790   4.378   0.836  0.0588  0.4633 -0.6321
 2618SOL    HW117958   9.768   4.441   0.762 -0.4110 -1.7108 -2.3877
 2618SOL    HW217959   9.844   4.302   0.801 -1.3819 -1.3543  0.9430
 2619SOL     OW17960   3.123   4.608   0.273 -0.1127 -0.0905 -0.3634
 2619SOL    HW117961   3.050   4.542   0.292 -0.0753 -0.5746 -1.8148
 2619SOL    HW217962   3.212   4.568   0.296 -0.3513  0.8497  2.3148
 2620SOL     OW17963   3.736   2.512   2.042 -0.0844 -0.5292 -0.1531
 2620SOL    HW117964   3.725   2.506   1.943 -0.5114  1.4888 -0.2410
 2620SOL    HW217965   3.647   2.498   2.087  0.1177 -1.4961 -0.0410
 2621SOL     OW17966   1.989   5.587   1.241 -0.0974 -0.1812  0.1437
 2621SOL    HW117967   1.995   5.677   1.197 -0.2777 -0.8322 -1.2308
 2621SOL    HW217968   1.894   5.570   1.267  0.0981  0.4443  1.3476
 2622SOL     OW17969   1.935   3.624   2.743  0.2458 -0.3944 -0.3882
 2622SOL    HW117970   1.983   3.676   2.673  1.1297 -0.1592  0.3741
 2622SOL    HW217971   1.855   3.675   2.773  1.3850  0.7951  0.7145
 2623SOL     OW17972   2.929   8.089   1.082  0.2580 -0.2859  0.6002
 2623SOL    HW117973   3.005   8.027   1.065 -0.8039 -1.0810 -1.4273
 2623SOL    HW217974   2.843   8.037   1.084 -0.4376  0.8546  0.8312
 2624SOL     OW17975   2.277   0.149   1.497 -0.6543 -0.5358  0.1234
 2624SOL    HW117976   2.281   0.133   1.596  0.3644 -0.0004  0.1814
 2624SOL    HW217977   2.331   0.231   1.475 -2.4194  0.4461 -0.6393
 2625SOL     OW17978   3.393   5.036   1.518  0.1948 -0.3502 -0.5417
 2625SOL    HW117979   3.303   5.007   1.550 -0.3487  0.8169 -0.9703
 2625SOL    HW217980   3.450   5.061   1.596 -0.0972 -0.4213 -0.3062
 2626SOL     OW17981   3.396   8.673   2.339  0.1915  0.4077 -0.4463
 2626SOL    HW117982   3.494   8.678   2.358  0.3760  1.2210 -1.5641
 2626SOL    HW217983   3.348   8.743   2.393  0.3579  0.7303 -0.7134
 2627SOL     OW17984   2.323   2.566   2.095  0.1994 -0.0269  0.2795
 2627SOL    HW117985   2.250   2.596   2.157 -0.0320  0.5572 -0.2731
 2627SOL    HW217986   2.284   2.510   2.022  0.3255  0.1498  0.0754
 2628SOL     OW17987   3.602   3.418   2.603  0.4681 -0.2412  0.3774
 2628SOL    HW117988   3.661   3.434   2.524 -1.6745  1.6162 -0.9008
 2628SOL    HW217989   3.632   3.474   2.680  0.6941  0.3048 -0.1080
 2629SOL     OW17990   9.634   4.019   1.994  0.2141 -0.4476  0.1844
 2629SOL    HW117991   9.572   4.039   2.070 -2.2843 -0.8630 -1.6890
 2629SOL    HW217992   9.667   3.925   2.002  0.3708 -0.3224  1.0370
 2630SOL     OW17993  10.201   5.872   0.889 -0.4487  0.4482  0.2774
 2630SOL    HW117994  10.286   5.895   0.842  0.9648 -1.7323  1.6818
 2630SOL    HW217995  10.201   5.913   0.980 -0.4101 -0.4335  0.6814
 2631SOL     OW17996   0.462   2.386   1.591 -0.5674 -0.3172 -0.1041
 2631SOL    HW117997   0.487   2.329   1.669  1.9713  0.5784 -0.2134
 2631SOL    HW217998   0.391   2.451   1.618 -1.4243 -1.5967  0.7834
 2632SOL     OW17999   2.036   4.046   0.549 -0.1119 -0.0413 -0.2482
 2632SOL    HW118000   2.019   4.101   0.468 -1.3912  0.9186  0.6481
 2632SOL    HW218001   1.950   4.015   0.588  0.3268  1.2300  1.8856
 2633SOL     OW18002   4.721   3.791   2.792  0.6145  0.0690  0.1506
 2633SOL    HW118003   4.732   3.700   2.752  1.5342  0.0736  0.3965
 2633SOL    HW218004   4.773   3.857   2.738 -0.8133  0.6167 -0.5927
 2634SOL     OW18005   4.584   2.754   1.126 -0.1593  0.1532 -0.2023
 2634SOL    HW118006   4.587   2.693   1.047  0.8285  2.5570 -2.0861
 2634SOL    HW218007   4.675   2.763   1.166 -0.5186 -0.5008  0.7807
 2635SOL     OW18008   3.528   3.732   2.179  0.4269 -0.2395 -0.0282
 2635SOL    HW118009   3.495   3.677   2.103 -0.7811  0.3108  0.0951
 2635SOL    HW218010   3.483   3.703   2.263 -0.0466  0.7810  0.0750
 2636SOL     OW18011   2.473   6.360   1.742 -0.1840  0.2513  0.3051
 2636SOL    HW118012   2.485   6.420   1.663  0.3449  2.0065  1.6892
 2636SOL    HW218013   2.410   6.285   1.719 -1.6727  1.9199 -1.1266
 2637SOL     OW18014   9.522   7.354   2.263 -0.6076 -0.6602  0.3397
 2637SOL    HW118015   9.459   7.284   2.296 -0.0606 -1.0710  0.5259
 2637SOL    HW218016   9.615   7.316   2.259 -0.4970 -0.2968 -0.6832
 2638SOL     OW18017   3.068   5.488   1.654 -0.1934  0.0023  0.0368
 2638SOL    HW118018   3.013   5.502   1.571 -1.7509 -0.1208  1.0214
 2638SOL    HW218019   3.069   5.391   1.678  0.2601  0.0356  0.1468
 2639SOL     OW18020   1.463   2.061   1.729  0.5774 -0.4316  0.3469
 2639SOL    HW118021   1.520   2.119   1.671  1.0220 -0.8265  0.3929
 2639SOL    HW218022   1.499   1.968   1.730  0.6804 -0.3827  1.4052
 2640SOL     OW18023   2.724   6.263   1.196 -0.1626  0.0742 -0.0781
 2640SOL    HW118024   2.824   6.257   1.198 -0.1823 -0.5927 -0.8618
 2640SOL    HW218025   2.696   6.329   1.126 -0.2259  1.8965  1.6176
 2641SOL     OW18026   8.998   8.036   0.786  0.5896 -0.2772 -0.0251
 2641SOL    HW118027   8.903   8.011   0.764  0.1499  0.4382  1.0425
 2641SOL    HW218028   9.040   7.963   0.839  1.2128 -1.3864 -1.9771
 2642SOL     OW18029   1.286   4.285   0.864 -0.1792 -0.0671  0.3607
 2642SOL    HW118030   1.286   4.290   0.964 -1.2096 -0.3901  0.3813
 2642SOL    HW218031   1.298   4.189   0.836  0.7468  0.1013  0.1655
 2643SOL     OW18032   3.927   3.628   2.545  0.6554  0.2006  0.1079
 2643SOL    HW118033   3.889   3.595   2.631 -1.1489 -1.4776 -1.2978
 2643SOL    HW218034   3.874   3.592   2.469  2.5475  1.2341 -1.7500
 2644SOL     OW18035   3.209   8.191   1.472 -0.4891 -0.2236 -0.0857
 2644SOL    HW118036   3.262   8.158   1.550 -1.1717  2.3411  1.5087
 2644SOL    HW218037   3.122   8.141   1.468 -0.0522 -1.0235  0.2238
 2645SOL     OW18038   2.933   5.016   2.426 -0.0448  0.1721  0.5001
 2645SOL    HW118039   2.847   4.967   2.443 -0.2558  0.7724  1.1541
 2645SOL    HW218040   2.916   5.115   2.429  0.6515  0.2910  0.5161
 2646SOL     OW18041   1.502   1.879   0.493  0.2842 -0.0683  0.4141
 2646SOL    HW118042   1.575   1.821   0.528  0.3432 -0.9676 -1.1374
 2646SOL    HW218043   1.416   1.828   0.492  0.0026  0.3999  0.5758
 2647SOL     OW18044   2.229   4.489   1.721  0.0630 -0.0688  0.3119
 2647SOL    HW118045   2.303   4.502   1.655  1.5989 -0.8042  1.8333
 2647SOL    HW218046   2.151   4.546   1.696  1.1381  0.7101 -1.3448
 2648SOL     OW18047   0.626   5.632   0.378  0.4283 -0.0849  0.0721
 2648SOL    HW118048   0.654   5.709   0.321 -0.5901  0.6359  0.5282
 2648SOL    HW218049   0.646   5.546   0.331  1.3767  0.4588 -0.5295
 2649SOL     OW18050   0.747   2.713   2.424 -0.4918 -0.3943  0.1391
 2649SOL    HW118051   0.829   2.770   2.422 -1.0041  0.3492 -2.9277
 2649SOL    HW218052   0.764   2.627   2.376 -1.4653 -0.2607 -0.4714
 2650SOL     OW18053   2.108   6.089   2.748 -0.0710 -0.6936  0.0907
 2650SOL    HW118054   2.051   6.007   2.745 -0.1264 -0.6295 -2.2506
 2650SOL    HW218055   2.197   6.067   2.787 -0.4972 -1.5949  0.5616
 2651SOL     OW18056   9.695   7.985   0.791 -0.1196 -0.0811 -0.2794
 2651SOL    HW118057   9.623   7.933   0.745  0.6250 -0.8356 -0.6315
 2651SOL    HW218058   9.777   7.928   0.798 -0.0754  0.1697  1.6094
 2652SOL     OW18059   3.221   6.694   0.810  0.1274 -0.2055  0.2831
 2652SOL    HW118060   3.268   6.769   0.857  0.6174 -1.5430  1.9820
 2652SOL    HW218061   3.131   6.680   0.852  1.3305 -2.6648  2.1870
 2653SOL     OW18062  10.186   8.191   0.384  0.5545 -0.2186 -0.1189
 2653SOL    HW118063  10.109   8.135   0.355  0.5938 -0.0866 -0.4785
 2653SOL    HW218064  10.161   8.241   0.467 -0.0737  0.5476 -0.7610
 2654SOL     OW18065   1.054   0.685   2.373  0.0901 -0.0386  0.0603
 2654SOL    HW118066   1.071   0.725   2.463  1.9182 -0.3927 -0.0991
 2654SOL    HW218067   1.003   0.599   2.384 -0.2953  0.2751  0.7116
 2655SOL     OW18068   2.406   2.342   2.639  0.3112 -0.3935  0.4518
 2655SOL    HW118069   2.368   2.254   2.667 -0.2820 -0.8801 -1.7292
 2655SOL    HW218070   2.481   2.326   2.575  0.6223  0.6773  0.5455
 2656SOL     OW18071   2.881   8.523   2.831 -0.0270 -0.0183  0.6565
 2656SOL    HW118072   2.868   8.573   2.745  0.1084 -0.4952  0.3561
 2656SOL    HW218073   2.867   8.425   2.815  0.0129 -0.1089  1.1751
 2657SOL     OW18074   4.054   1.750   2.204  0.0021 -0.9105 -0.0690
 2657SOL    HW118075   4.020   1.698   2.126  0.9089 -0.5467 -0.7188
 2657SOL    HW218076   3.994   1.736   2.282 -0.0970 -2.4561 -0.4019
 2658SOL     OW18077   0.758   0.817   2.159 -0.0610  0.3986 -0.9082
 2658SOL    HW118078   0.677   0.821   2.101 -0.2743  1.2804 -0.5529
 2658SOL    HW218079   0.838   0.851   2.108  0.3381 -1.5916 -1.6631
 2659SOL     OW18080   1.649   0.660   1.067  0.2739 -0.0254  0.1426
 2659SOL    HW118081   1.611   0.616   1.148  0.2113  1.9267  1.2027
 2659SOL    HW218082   1.619   0.611   0.985 -2.3936 -0.0661  1.0938
 2660SOL     OW18083   5.330   3.330   1.384  0.1971  0.0203 -0.0693
 2660SOL    HW118084   5.374   3.295   1.467 -0.9425 -1.5805 -0.1263
 2660SOL    HW218085   5.268   3.404   1.409  0.4668  0.0917  0.4056
 2661SOL     OW18086   2.275   3.598   2.485  0.2179  0.2078  0.0556
 2661SOL    HW118087   2.293   3.585   2.388 -0.4979  1.1716 -0.2020
 2661SOL    HW218088   2.201   3.663   2.498 -0.1112 -0.3816  1.2375
 2662SOL     OW18089   1.008   7.714   1.358 -0.3136  0.1400  0.2822
 2662SOL    HW118090   1.004   7.615   1.364  1.3707  0.1230  1.5148
 2662SOL    HW218091   1.025   7.742   1.264  0.3828 -0.7914  0.1276
 2663SOL     OW18092   4.453   0.457   0.424 -0.6269  0.4463 -0.3058
 2663SOL    HW118093   4.376   0.498   0.375 -1.7098  2.6043  3.0201
 2663SOL    HW218094   4.524   0.527   0.437  0.4787 -0.6377 -0.4951
 2664SOL     OW18095  10.222   3.822   0.497 -0.3471  0.4491  0.0674
 2664SOL    HW118096  10.196   3.916   0.478  0.0428  0.7858  1.1276
 2664SOL    HW218097  10.204   3.765   0.417 -0.9238  1.3526 -0.4547
 2665SOL     OW18098   4.186   3.580   2.221  0.1594 -0.1326  0.1456
 2665SOL    HW118099   4.122   3.648   2.185  0.6886  0.0871 -0.3981
 2665SOL    HW218100   4.280   3.615   2.212  0.3981 -0.7106  0.3635
 2666SOL     OW18101   1.741   1.249   0.880  0.4768 -0.2692  0.2440
 2666SOL    HW118102   1.766   1.276   0.787  0.4088 -0.4301  0.1785
 2666SOL    HW218103   1.790   1.165   0.903 -0.9221 -1.2451 -0.3161
 2667SOL     OW18104   3.747   1.533   0.926  0.5052  0.5221  0.4644
 2667SOL    HW118105   3.731   1.437   0.949 -1.8827  1.3831  2.6055
 2667SOL    HW218106   3.840   1.559   0.954  0.3952 -0.5690  1.8690
 2668SOL     OW18107  10.100   4.311   2.820 -0.5190 -0.4124  0.2837
 2668SOL    HW118108  10.028   4.379   2.807 -0.7129 -0.6326  0.1880
 2668SOL    HW218109  10.188   4.352   2.798 -0.4867  0.2015  1.5484
 2669SOL     OW18110   2.830   8.188   2.061 -0.6050  0.1155 -0.3925
 2669SOL    HW118111   2.914   8.231   2.091  0.4892 -1.9784 -0.3283
 2669SOL    HW218112   2.755   8.254   2.062  0.1883  1.0422  3.2585
 2670SOL     OW18113   1.175   7.841   2.824 -0.2050  0.3487  0.6691
 2670SOL    HW118114   1.107   7.818   2.894 -0.0104  0.5841  0.9415
 2670SOL    HW218115   1.130   7.849   2.735 -0.2470 -1.1417  0.5593
 2671SOL     OW18116   1.213   9.639   1.763 -0.2462 -0.0439  0.0955
 2671SOL    HW118117   1.295   9.590   1.794 -0.6820  0.2846  1.8164
 2671SOL    HW218118   1.205   9.631   1.664  2.4018  0.7720 -0.2036
 2672SOL     OW18119   0.624   0.854   1.198 -0.4316  0.9612 -0.4355
 2672SOL    HW118120   0.716   0.841   1.233 -1.2035  0.3307  1.4512
 2672SOL    HW218121   0.580   0.930   1.247 -0.6369  1.8096 -1.9008
 2673SOL     OW18122   1.554   7.715   0.717  0.3520 -0.8591  0.3437
 2673SOL    HW118123   1.469   7.720   0.770 -0.1264 -0.6248 -0.4297
 2673SOL    HW218124   1.534   7.738   0.621  1.5953  0.9827  0.5025
 2674SOL     OW18125   2.080   6.129   2.284 -1.2898 -0.3038 -0.6382
 2674SOL    HW118126   2.131   6.210   2.257  0.3437 -1.9451 -2.7014
 2674SOL    HW218127   2.130   6.079   2.354 -1.3432 -0.5251 -0.7554
 2675SOL     OW18128   4.612   4.619   0.838 -0.0637  0.3848 -0.4145
 2675SOL    HW118129   4.527   4.641   0.789  0.3924  0.1244 -1.3469
 2675SOL    HW218130   4.604   4.645   0.934 -1.0512  0.7320 -0.5904
 2676SOL     OW18131  10.295   3.748   2.348  0.1505  0.5085  0.2224
 2676SOL    HW118132  10.228   3.676   2.365  0.9064 -0.3280 -0.3004
 2676SOL    HW218133  10.373   3.710   2.299  0.1728  1.8673 -0.8265
 2677SOL     OW18134   3.982   0.785   1.631 -0.1374  0.3978  0.1701
 2677SOL    HW118135   3.996   0.732   1.547  0.5452  1.6083 -0.4977
 2677SOL    HW218136   4.057   0.768   1.695 -0.6899 -0.5738  0.5663
 2678SOL     OW18137   3.265   5.715   1.383  0.7511 -0.3584 -0.0896
 2678SOL    HW118138   3.263   5.739   1.286  0.4516  0.2600  0.0670
 2678SOL    HW218139   3.190   5.760   1.430  1.5949  0.3021  0.6455
 2679SOL     OW18140  10.281   4.173   2.119  0.7891  0.5638 -0.4403
 2679SOL    HW118141  10.216   4.240   2.084 -0.7571 -0.2710  0.7685
 2679SOL    HW218142  10.335   4.214   2.193  0.2366  0.6495 -0.0846
 2680SOL     OW18143   9.506   0.027   2.417  0.8717 -0.0235 -0.4597
 2680SOL    HW118144   9.516  -0.037   2.341  0.6184 -0.9782  0.2989
 2680SOL    HW218145   9.560  -0.005   2.495 -0.0450  0.1553  0.2538
 2681SOL     OW18146   4.313   2.888   2.008  0.2760  0.6220 -0.6801
 2681SOL    HW118147   4.298   2.955   1.934  0.0283  0.5368 -0.7093
 2681SOL    HW218148   4.401   2.906   2.052  0.2767  0.8801 -0.7822
 2682SOL     OW18149   2.439   5.930   2.554  0.6795  0.4842 -0.3044
 2682SOL    HW118150   2.478   6.018   2.583  0.3961 -0.0453  1.7394
 2682SOL    HW218151   2.502   5.885   2.490  0.9809  2.0115 -1.1006
 2683SOL     OW18152   9.908   9.914   2.218 -0.1685 -0.3686  0.6510
 2683SOL    HW118153   9.867   9.893   2.129 -1.8330  0.3442  1.2211
 2683SOL    HW218154  10.006   9.929   2.207 -0.2087 -1.1277 -0.9234
 2684SOL     OW18155   8.793   7.065   1.046 -0.6541 -0.2845 -0.0010
 2684SOL    HW118156   8.857   6.989   1.056  0.3434  0.5388 -0.0474
 2684SOL    HW218157   8.699   7.030   1.045 -0.1995 -1.5187 -0.1195
 2685SOL     OW18158   9.808   5.301   0.578 -0.3487  0.0998  0.5484
 2685SOL    HW118159   9.883   5.241   0.549  0.3251  1.0640  0.2900
 2685SOL    HW218160   9.806   5.383   0.521 -2.7252 -0.7261 -0.5982
 2686SOL     OW18161   0.840   5.772   1.121 -0.0979 -0.4158  0.2583
 2686SOL    HW118162   0.791   5.691   1.151 -1.5922 -0.2410 -1.6229
 2686SOL    HW218163   0.803   5.853   1.168 -1.6823 -0.2841 -1.1422
 2687SOL     OW18164   1.130   8.736   0.499 -0.7347 -0.6526  0.2056
 2687SOL    HW118165   1.195   8.784   0.558  0.0411 -2.0505  0.5127
 2687SOL    HW218166   1.153   8.639   0.496 -2.8168 -1.1657  0.2833
 2688SOL     OW18167   9.464   3.036   2.241 -0.1937 -0.0735  0.2252
 2688SOL    HW118168   9.382   2.978   2.236 -0.9164  0.7099  2.5419
 2688SOL    HW218169   9.446   3.122   2.193 -0.7184  0.0770  0.6878
 2689SOL     OW18170   1.461   9.195   1.327  0.1597  0.0328  0.1580
 2689SOL    HW118171   1.415   9.270   1.373  0.5151  1.0049 -1.0267
 2689SOL    HW218172   1.529   9.232   1.263  0.5518 -1.3054 -0.2234
 2690SOL     OW18173   3.318   5.248   2.761  0.1033 -0.1569 -0.2441
 2690SOL    HW118174   3.251   5.188   2.806 -0.1484 -0.4298 -0.9740
 2690SOL    HW218175   3.407   5.204   2.762 -0.0613 -0.5168 -0.6892
 2691SOL     OW18176   3.238   0.626   0.465  0.3463 -0.4513 -0.4405
 2691SOL    HW118177   3.264   0.606   0.559 -2.1662 -0.1233  0.3869
 2691SOL    HW218178   3.298   0.696   0.427  1.4085 -0.6199  0.9148
 2692SOL     OW18179   1.683   1.189   1.986  0.1015 -0.4674  0.7992
 2692SOL    HW118180   1.614   1.258   1.965  0.4746 -0.8530 -1.8780
 2692SOL    HW218181   1.701   1.133   1.905 -0.4764 -4.0098  3.0013
 2693SOL     OW18182   1.758   6.396   2.591 -0.1253 -0.0790 -0.3116
 2693SOL    HW118183   1.830   6.328   2.599  0.6438  1.0476  2.9016
 2693SOL    HW218184   1.669   6.351   2.601  0.3265 -0.8256  0.4365
 2694SOL     OW18185   1.422   3.170   1.884  0.0144 -0.7210  0.1949
 2694SOL    HW118186   1.347   3.236   1.891  0.1952 -0.3195 -1.6160
 2694SOL    HW218187   1.387   3.078   1.901 -0.9404 -0.5626 -0.8827
 2695SOL     OW18188   0.917   4.197   1.606  0.5384 -0.5751 -0.3303
 2695SOL    HW118189   0.932   4.215   1.703  0.6191 -0.1749 -0.4156
 2695SOL    HW218190   0.959   4.111   1.580 -0.4860 -1.2628  0.2561
 2696SOL     OW18191   9.604   1.429   0.771  0.4937 -0.3230  0.5409
 2696SOL    HW118192   9.595   1.378   0.686  0.3788 -0.5406  0.6826
 2696SOL    HW218193   9.632   1.523   0.751 -0.7300 -0.0325  0.1810
 2697SOL     OW18194   9.869   9.498   0.734 -0.0561  0.0866  0.5602
 2697SOL    HW118195   9.858   9.493   0.634 -0.6565  0.9406  0.5782
 2697SOL    HW218196   9.779   9.496   0.778  0.2413 -0.9905  1.1251
 2698SOL     OW18197   1.317   8.056   0.735 -0.1882  0.3543 -0.3199
 2698SOL    HW118198   1.231   8.107   0.740 -0.6227 -0.4883  1.0877
 2698SOL    HW218199   1.308   7.981   0.670 -1.5459 -1.5941  2.0337
 2699SOL     OW18200   0.430   1.624   1.399  0.1527  0.4391  0.3158
 2699SOL    HW118201   0.518   1.629   1.351 -0.6921  0.6248 -1.2105
 2699SOL    HW218202   0.356   1.639   1.335 -1.0538 -0.5634  1.4559
 2700SOL     OW18203   9.666   1.325   1.482 -0.2782 -0.3221 -0.0428
 2700SOL    HW118204   9.631   1.419   1.478  2.0741  0.5603 -0.3654
 2700SOL    HW218205   9.676   1.297   1.577  1.3996  0.6702  0.0777
 2701SOL     OW18206  10.315   8.325   2.598 -0.6536  0.4152  0.5730
 2701SOL    HW118207  10.264   8.395   2.548 -0.3328 -0.5643 -1.1700
 2701SOL    HW218208  10.393   8.294   2.543  0.7508  0.5711  2.4386
 2702SOL     OW18209   8.830   5.894   0.411 -0.2401  0.3095 -0.3918
 2702SOL    HW118210   8.839   5.953   0.331 -0.0481 -0.0154 -0.6132
 2702SOL    HW218211   8.754   5.926   0.467  0.5660  1.4432  0.0750
 2703SOL     OW18212   9.460   5.007   1.110 -0.2804 -0.0610  0.0322
 2703SOL    HW118213   9.495   5.029   1.019 -0.0368 -0.3561  0.0538
 2703SOL    HW218214   9.465   4.908   1.125  0.7027  0.0994  0.7874
 2704SOL     OW18215   3.011   2.077   1.575  0.4469 -0.5635  0.1616
 2704SOL    HW118216   3.011   2.032   1.664  0.0800 -0.1288  0.3885
 2704SOL    HW218217   3.005   2.176   1.589  0.7251 -0.4780 -0.3381
 2705SOL     OW18218  10.131   7.847   2.186 -0.4743 -0.5321 -0.0741
 2705SOL    HW118219  10.223   7.885   2.196 -1.3471  2.2312 -1.8830
 2705SOL    HW218220  10.132   7.777   2.114  0.4943 -1.6859  1.0230
 2706SOL     OW18221   2.936   3.743   0.425 -0.3818  0.2939 -0.5604
 2706SOL    HW118222   2.870   3.750   0.349 -0.6864 -0.7691 -0.4068
 2706SOL    HW218223   3.027   3.769   0.392 -0.9803  2.4301 -0.6034
 2707SOL     OW18224   0.849   4.891   0.627 -0.0875 -1.3037  0.6094
 2707SOL    HW118225   0.927   4.833   0.601  2.6967  2.4595  0.2040
 2707SOL    HW218226   0.870   4.937   0.713  0.1416  3.1323 -1.6690
 2708SOL     OW18227   0.462   1.274   1.336  0.5116 -0.5593 -0.3217
 2708SOL    HW118228   0.388   1.298   1.273  1.7063  0.1514 -1.5006
 2708SOL    HW218229   0.549   1.311   1.300  1.3242 -0.7884  1.3707
 2709SOL     OW18230   1.133   9.166   2.364  0.1025  0.7711 -0.1673
 2709SOL    HW118231   1.218   9.208   2.398 -0.5960  0.2051  2.3978
 2709SOL    HW218232   1.154   9.078   2.322  0.8289  0.7676  0.1850
 2710SOL     OW18233   2.373   4.022   2.700 -0.0427 -0.2479  0.4715
 2710SOL    HW118234   2.295   3.996   2.643 -1.1140 -0.1286  1.8473
 2710SOL    HW218235   2.428   4.090   2.651 -0.4767 -0.7438 -0.7437
 2711SOL     OW18236  10.263   0.726   2.218 -0.4566 -0.1612  0.2186
 2711SOL    HW118237  10.200   0.795   2.182 -0.2924  0.1983  0.6198
 2711SOL    HW218238  10.309   0.680   2.141  0.5556  1.2189 -0.0200
 2712SOL     OW18239   9.310   4.702   0.835  0.1658 -0.3635 -0.1305
 2712SOL    HW118240   9.257   4.787   0.836 -1.0756 -1.1386  0.8373
 2712SOL    HW218241   9.290   4.651   0.751  0.8697  0.2714 -0.6857
 2713SOL     OW18242   2.785   9.125   2.207  0.4996 -0.3631 -0.2097
 2713SOL    HW118243   2.782   9.221   2.179  2.6648 -0.6562 -1.6354
 2713SOL    HW218244   2.745   9.069   2.134  1.4050 -0.7075 -0.4553
 2714SOL     OW18245   1.951   9.083   2.363  0.7740  0.4111 -0.2873
 2714SOL    HW118246   1.875   9.106   2.424  0.5676  0.4121 -0.5427
 2714SOL    HW218247   1.953   9.148   2.287  1.2738  0.6500 -0.0684
 2715SOL     OW18248   0.639   0.141   0.901 -0.2639  0.3361  0.0655
 2715SOL    HW118249   0.566   0.194   0.943  0.5049  1.0334  0.5344
 2715SOL    HW218250   0.605   0.099   0.817 -1.2744  0.4401  0.4134
 2716SOL     OW18251  10.129   3.931   1.269 -0.1864  0.5598 -0.1529
 2716SOL    HW118252  10.030   3.939   1.282 -0.2437  3.8842 -2.0459
 2716SOL    HW218253  10.172   4.020   1.286  2.2821 -0.4046 -1.0428
 2717SOL     OW18254   4.412   9.009   1.562 -0.1553 -0.4493 -0.3408
 2717SOL    HW118255   4.510   8.992   1.568 -0.3481 -1.0985  1.1577
 2717SOL    HW218256   4.380   8.992   1.469  1.2305  0.2027 -0.9417
 2718SOL     OW18257   2.223   5.237   2.805  0.4482  0.3762  0.1286
 2718SOL    HW118258   2.253   5.142   2.817 -2.8717 -1.3927 -3.9314
 2718SOL    HW218259   2.138   5.251   2.856  0.6895  0.9891  0.3554
 2719SOL     OW18260   9.914   6.204   2.399  0.1524  0.1526 -0.0456
 2719SOL    HW118261   9.952   6.194   2.491  0.5377 -0.1593 -0.2386
 2719SOL    HW218262   9.909   6.114   2.355 -2.4753 -0.0930  0.6288
 2720SOL     OW18263   9.492   4.741   0.142  0.0092 -0.3996 -0.3900
 2720SOL    HW118264   9.434   4.820   0.122  0.1992 -0.0677  0.3525
 2720SOL    HW218265   9.465   4.701   0.230  0.6039 -0.5156 -0.2553
 2721SOL     OW18266   3.523   2.468   1.314 -0.5100  0.6450  0.0695
 2721SOL    HW118267   3.547   2.384   1.265 -1.0086  0.0647  0.8004
 2721SOL    HW218268   3.532   2.452   1.413 -0.4742  1.4951  0.2048
 2722SOL     OW18269   2.952   7.485   2.564 -0.1044  0.2035 -0.1252
 2722SOL    HW118270   2.898   7.556   2.520  0.8647  0.8474 -0.2945
 2722SOL    HW218271   3.006   7.436   2.495  0.9777  0.8339  0.2524
 2723SOL     OW18272   2.382   8.131   1.192  0.0139 -0.0050  0.0338
 2723SOL    HW118273   2.293   8.097   1.160 -0.2258  0.0717  0.6141
 2723SOL    HW218274   2.370   8.176   1.280  0.5755  0.3099 -0.0494
 2724SOL     OW18275   2.663   7.462   0.147 -0.0017  0.1187 -0.5412
 2724SOL    HW118276   2.708   7.403   0.080  0.3774  1.7425 -1.7469
 2724SOL    HW218277   2.731   7.499   0.209  0.1254  1.2758 -1.3532
 2725SOL     OW18278   0.437   5.997   1.497 -0.8002 -0.3901 -0.1574
 2725SOL    HW118279   0.456   5.909   1.540 -1.0823 -0.7503 -0.7647
 2725SOL    HW218280   0.453   6.071   1.563 -1.4696 -0.9528  0.6359
 2726SOL     OW18281   1.888   4.843   2.632  0.0915 -0.1103 -0.0141
 2726SOL    HW118282   1.939   4.757   2.642 -2.0489 -1.2591  1.3958
 2726SOL    HW218283   1.901   4.899   2.714  2.8105  1.7014 -1.6073
 2727SOL     OW18284  10.212   1.786   1.588 -0.2373 -0.2245  0.3033
 2727SOL    HW118285  10.256   1.854   1.530 -1.9777  0.8726  0.2249
 2727SOL    HW218286  10.270   1.704   1.594  0.8406  0.3816 -1.4231
 2728SOL     OW18287   9.701   8.672   2.113 -0.7093 -0.4930 -0.1698
 2728SOL    HW118288   9.668   8.759   2.074  0.0881 -0.2147 -0.2318
 2728SOL    HW218289   9.623   8.618   2.144 -1.1417  0.7694  0.9894
 2729SOL     OW18290   4.129   1.610   1.767  0.4216  0.0461 -0.1941
 2729SOL    HW118291   4.047   1.624   1.823  0.4007 -1.5510  0.1975
 2729SOL    HW218292   4.200   1.676   1.794  0.3162 -0.5361  1.5210
 2730SOL     OW18293   9.248   3.851   1.781  0.2863  0.3892 -0.3194
 2730SOL    HW118294   9.224   3.805   1.696 -0.3012 -0.5267  0.3329
 2730SOL    HW218295   9.348   3.854   1.790  0.3380 -1.2388 -0.1289
 2731SOL     OW18296   9.572   0.496   2.194  0.0802  0.1278 -0.1249
 2731SOL    HW118297   9.611   0.588   2.202 -0.7267  0.6236 -1.6291
 2731SOL    HW218298   9.568   0.470   2.097  1.0365 -1.8252  0.3347
 2732SOL     OW18299   2.066   5.359   2.585  0.6463 -0.0839 -0.9089
 2732SOL    HW118300   2.135   5.351   2.657  0.5712 -0.4546 -0.8782
 2732SOL    HW218301   2.094   5.430   2.520  0.9971 -0.1498 -0.8311
 2733SOL     OW18302   1.999   9.936   2.464 -0.3311  0.6242 -0.1059
 2733SOL    HW118303   1.921   9.963   2.408 -0.1840 -1.3887 -1.3389
 2733SOL    HW218304   2.000   9.836   2.473  1.2874  0.7322  1.1132
 2734SOL     OW18305   9.864   4.230   0.209 -0.2338  0.3340 -0.1971
 2734SOL    HW118306   9.799   4.196   0.141 -1.2071  0.5280  0.6212
 2734SOL    HW218307   9.953   4.242   0.167 -0.5102 -0.8026 -1.1117
 2735SOL     OW18308   1.188   0.167   1.857  0.3891  0.1918 -0.3507
 2735SOL    HW118309   1.115   0.232   1.835 -1.0507 -0.8992  1.0649
 2735SOL    HW218310   1.153   0.074   1.848  1.6155 -0.3500  0.3763
 2736SOL     OW18311   3.331   3.713   2.361  0.3026 -0.0025 -0.1657
 2736SOL    HW118312   3.309   3.790   2.421 -1.1787  0.1236 -0.8419
 2736SOL    HW218313   3.326   3.627   2.414 -0.0661  0.1875  0.1098
 2737SOL     OW18314   1.641   7.976   0.150  0.3196 -0.1410 -0.5591
 2737SOL    HW118315   1.685   8.001   0.064  0.8711 -0.3809 -0.3518
 2737SOL    HW218316   1.656   7.879   0.169 -1.0137 -0.4200 -0.8924
 2738SOL     OW18317   1.875   1.316   2.165  0.3596  0.1933 -0.1675
 2738SOL    HW118318   1.950   1.259   2.199  0.7875  1.1822  0.5518
 2738SOL    HW218319   1.819   1.262   2.102  1.8692 -0.4476 -0.9995
 2739SOL     OW18320   3.465   4.198   1.654  0.7245  0.3722 -0.2706
 2739SOL    HW118321   3.451   4.221   1.557  2.4459 -0.0588 -0.6397
 2739SOL    HW218322   3.466   4.099   1.665 -1.6235  0.4205  0.5412
 2740SOL     OW18323   4.310   0.786   2.256 -0.1179  0.0838  0.2658
 2740SOL    HW118324   4.337   0.882   2.245  1.9541 -0.6668 -1.5307
 2740SOL    HW218325   4.211   0.778   2.244 -0.0594  1.7185 -1.6123
 2741SOL     OW18326   2.991   1.285   1.856 -0.1024 -0.0001  0.1713
 2741SOL    HW118327   2.954   1.376   1.876 -2.5692 -1.3491  1.8095
 2741SOL    HW218328   2.977   1.265   1.759 -0.4226  0.9333  0.0150
 2742SOL     OW18329   0.378   2.354   1.322 -0.0953  0.2999 -0.1080
 2742SOL    HW118330   0.425   2.331   1.407 -0.5559  0.5605  0.2176
 2742SOL    HW218331   0.295   2.407   1.343 -1.2079 -1.2242 -0.5861
 2743SOL     OW18332   4.021   9.576   0.664  0.0994 -0.0367 -0.1220
 2743SOL    HW118333   4.103   9.538   0.706 -0.6077 -1.3843  0.0556
 2743SOL    HW218334   3.975   9.637   0.729  0.9832  0.7794 -0.2469
 2744SOL     OW18335   0.739   9.324   2.174 -0.1214  0.6020 -0.2389
 2744SOL    HW118336   0.833   9.348   2.196  0.1052 -0.3858 -0.0819
 2744SOL    HW218337   0.677   9.363   2.242  0.3883 -0.6460  0.9751
 2745SOL     OW18338   9.892   1.487   0.625 -0.0581 -0.5121 -0.3891
 2745SOL    HW118339   9.917   1.415   0.690 -0.9912 -1.1143 -0.6789
 2745SOL    HW218340   9.829   1.551   0.669 -2.1123 -1.9187 -1.2061
 2746SOL     OW18341  10.179   3.219   0.896  0.0678 -0.0098  0.2578
 2746SOL    HW118342  10.272   3.186   0.913  1.0088  1.1935 -2.2139
 2746SOL    HW218343  10.168   3.310   0.934  0.0453  0.0228  0.1738
 2747SOL     OW18344   2.789   7.833   0.547  0.4203  0.2946  0.3296
 2747SOL    HW118345   2.888   7.837   0.562  0.4818  0.1699 -0.0468
 2747SOL    HW218346   2.769   7.856   0.452  0.0225  1.1770  0.6214
 2748SOL     OW18347   1.322   0.797   1.688 -0.2282  0.0298 -0.3041
 2748SOL    HW118348   1.349   0.704   1.667  0.3494  0.3720 -1.1092
 2748SOL    HW218349   1.245   0.823   1.629  1.0344  0.7999 -1.6680
 2749SOL     OW18350   1.261   7.672   1.490 -0.1129  0.2384  0.0365
 2749SOL    HW118351   1.240   7.710   1.580 -1.7777  0.7078 -0.5449
 2749SOL    HW218352   1.193   7.702   1.423  1.8750  1.0505 -1.7052
 2750SOL     OW18353   4.660   3.016   1.105 -0.3082 -0.1704 -0.1821
 2750SOL    HW118354   4.615   2.927   1.108  0.2658 -0.5758 -2.2919
 2750SOL    HW218355   4.599   3.082   1.061 -0.4929  0.3307  0.8226
 2751SOL     OW18356   2.075   0.282   2.276 -0.2161 -0.8070 -0.5722
 2751SOL    HW118357   2.024   0.333   2.345  0.7540 -2.4704  1.4434
 2751SOL    HW218358   2.161   0.249   2.316  0.7646 -1.0723 -2.8404
 2752SOL     OW18359   3.182   9.114   2.463  0.4012 -0.4794 -0.7777
 2752SOL    HW118360   3.214   9.208   2.447 -1.7558  0.6692  1.4073
 2752SOL    HW218361   3.103   9.095   2.405 -0.6935 -0.0689  0.5575
 2753SOL     OW18362   4.531   3.448   2.034  0.5544  0.1975  0.2630
 2753SOL    HW118363   4.511   3.539   2.071 -0.2351 -1.0392  3.0258
 2753SOL    HW218364   4.587   3.457   1.952  0.7292  3.1646  0.6443
 2754SOL     OW18365   2.978   6.231   1.166  0.0742  0.1975  0.0845
 2754SOL    HW118366   3.049   6.183   1.218  0.3494 -3.2910 -3.2860
 2754SOL    HW218367   3.021   6.292   1.099 -0.0674 -0.5902 -0.7469
 2755SOL     OW18368   9.961   4.622   1.446  0.7567  0.4683 -0.0652
 2755SOL    HW118369   9.936   4.672   1.529  0.8218 -1.5218  1.1963
 2755SOL    HW218370  10.053   4.649   1.418  0.7175  1.1922  0.4774
 2756SOL     OW18371   4.419   2.971   0.644  0.2688  0.1693  0.8521
 2756SOL    HW118372   4.397   2.923   0.559  2.4235  0.1565  0.2725
 2756SOL    HW218373   4.452   3.063   0.622 -2.2274  1.3408  1.8640
 2757SOL     OW18374   9.116   4.615   1.847  0.0822  0.6313 -0.3843
 2757SOL    HW118375   9.208   4.608   1.809  0.6814 -1.5988  1.3310
 2757SOL    HW218376   9.062   4.536   1.818 -0.3570  0.4176  0.9601
 2758SOL     OW18377   2.735   4.212   0.230 -0.2296 -0.0337 -0.1423
 2758SOL    HW118378   2.780   4.273   0.295 -1.6882  0.7394  0.1779
 2758SOL    HW218379   2.795   4.136   0.208  1.2832  1.0681  0.1222
 2759SOL     OW18380   2.900   3.006   2.673  0.0028 -0.4777  0.3131
 2759SOL    HW118381   2.856   2.996   2.583 -1.4021 -1.9139  1.1304
 2759SOL    HW218382   2.919   3.103   2.690 -1.4196  0.0056 -0.7403
 2760SOL     OW18383   1.218   4.023   1.220  0.4941  0.1866  0.2174
 2760SOL    HW118384   1.127   4.002   1.256 -0.1384 -0.8476 -1.8967
 2760SOL    HW218385   1.286   3.965   1.263 -0.0761 -0.1531  0.6565
 2761SOL     OW18386   9.580   3.763   2.713  0.3498  0.3464 -0.0091
 2761SOL    HW118387   9.488   3.768   2.753 -0.1206 -2.4085 -0.6430
 2761SOL    HW218388   9.647   3.741   2.784  0.0948 -0.4651 -0.0101
 2762SOL     OW18389   1.629   4.152   2.609 -0.3305  0.2343 -0.3095
 2762SOL    HW118390   1.661   4.116   2.521  0.2061  0.1016 -0.0586
 2762SOL    HW218391   1.589   4.078   2.663 -1.5931  0.5029 -0.8517
 2763SOL     OW18392   2.333   5.728   1.453  0.1298  0.0497  0.1253
 2763SOL    HW118393   2.238   5.719   1.482  0.1667  0.9806  0.5600
 2763SOL    HW218394   2.342   5.700   1.357  0.0220 -3.1569  0.9988
 2764SOL     OW18395   2.609   9.958   2.491 -0.1263 -0.2895  0.3662
 2764SOL    HW118396   2.571  10.030   2.433  1.8755 -0.1654 -0.8389
 2764SOL    HW218397   2.681   9.996   2.549  1.6410 -1.4959 -1.0040
 2765SOL     OW18398   3.307   2.160   0.473  0.3777  0.1445 -0.0875
 2765SOL    HW118399   3.338   2.212   0.553  1.2500 -0.6686  0.1081
 2765SOL    HW218400   3.269   2.073   0.502  1.6127 -0.5843 -0.6156
 2766SOL     OW18401   9.135   7.655   0.082 -0.3963 -0.1726 -0.1245
 2766SOL    HW118402   9.051   7.702   0.107 -0.2585 -0.0360  0.0786
 2766SOL    HW218403   9.116   7.557   0.071 -0.5841 -0.1406 -0.0854
 2767SOL     OW18404  10.007   2.358   1.172  0.8309 -0.3494 -0.3758
 2767SOL    HW118405  10.093   2.406   1.189  0.5559 -0.3656  1.1169
 2767SOL    HW218406   9.935   2.396   1.230 -0.0973 -0.5589 -1.3667
 2768SOL     OW18407   4.209   3.617   1.862  0.0921  0.0716  0.0040
 2768SOL    HW118408   4.111   3.629   1.844 -0.1817 -0.9558  0.7798
 2768SOL    HW218409   4.245   3.547   1.801  0.6016  1.2348 -1.0588
 2769SOL     OW18410   2.902   7.280   1.057  0.7187  0.2041 -0.4253
 2769SOL    HW118411   2.856   7.281   1.145  2.3294  0.2462  0.4300
 2769SOL    HW218412   2.835   7.263   0.984 -1.1577  3.2136  0.4862
 2770SOL     OW18413   2.460   2.813   0.975  0.3241  0.1569  0.7213
 2770SOL    HW118414   2.485   2.848   0.885  0.8574 -1.8492  0.0704
 2770SOL    HW218415   2.384   2.867   1.012  0.6739  1.5401 -0.5464
 2771SOL     OW18416   0.785   8.979   1.863  0.6592 -0.0557  0.2932
 2771SOL    HW118417   0.825   8.965   1.953 -1.5566  2.4781  1.7352
 2771SOL    HW218418   0.716   8.908   1.845  0.5856 -0.1317  0.8851
 2772SOL     OW18419   3.741   1.377   1.928  0.4498 -0.2083  0.1770
 2772SOL    HW118420   3.781   1.314   1.993 -0.1304 -1.6514 -0.8384
 2772SOL    HW218421   3.761   1.347   1.835  0.5466  1.3507 -0.3356
 2773SOL     OW18422   9.378   5.882   1.958  0.0575  0.2244 -0.7228
 2773SOL    HW118423   9.357   5.833   1.873 -0.1550  0.8756 -1.0483
 2773SOL    HW218424   9.436   5.960   1.937  1.6512 -0.7421 -0.0072
 2774SOL     OW18425   9.871   1.956   2.712 -0.7203 -0.0555 -0.0589
 2774SOL    HW118426   9.823   1.871   2.690  0.0311 -1.0950  2.1613
 2774SOL    HW218427   9.967   1.936   2.728 -0.8786  0.8814  2.2696
 2775SOL     OW18428   0.917   7.324   0.789 -0.2870  0.0947 -0.2511
 2775SOL    HW118429   0.905   7.382   0.709 -0.3103 -0.5951 -0.7495
 2775SOL    HW218430   0.827   7.301   0.827 -0.2750  0.4421 -0.0122
 2776SOL     OW18431   8.957   3.462   1.140 -0.4603 -0.2571  0.2320
 2776SOL    HW118432   9.044   3.415   1.129  0.7575  1.9437  0.2617
 2776SOL    HW218433   8.949   3.534   1.071 -2.6134 -0.9560 -0.2798
 2777SOL     OW18434   2.132   5.593   2.431 -0.3464 -0.4984 -0.3738
 2777SOL    HW118435   2.065   5.629   2.497 -1.0448  1.5106 -2.1051
 2777SOL    HW218436   2.212   5.653   2.429  0.5658 -1.6913  0.1131
 2778SOL     OW18437   1.590   7.526   2.173  0.2775  0.0844  0.9015
 2778SOL    HW118438   1.655   7.597   2.146 -0.3624  0.6228  0.7473
 2778SOL    HW218439   1.540   7.556   2.254  0.1439 -0.2761  0.9516
 2779SOL     OW18440   0.523   3.019   1.477  0.1911 -0.5457  0.4064
 2779SOL    HW118441   0.489   3.023   1.383 -0.2064 -1.3873  0.5017
 2779SOL    HW218442   0.502   2.929   1.515 -0.6968  0.1947  1.6960
 2780SOL     OW18443   4.316   5.521   0.629 -0.2511  0.0226  0.2551
 2780SOL    HW118444   4.320   5.621   0.636 -0.6317  0.1418 -1.0363
 2780SOL    HW218445   4.268   5.484   0.708 -0.9536  0.9471  0.2708
 2781SOL     OW18446   0.646   6.114   2.430 -0.3847  0.0967  0.4329
 2781SOL    HW118447   0.593   6.182   2.379 -0.2281  0.4990  0.8032
 2781SOL    HW218448   0.665   6.149   2.522  1.2917  0.3509  0.0180
 2782SOL     OW18449   0.565   2.942   1.840  0.2196  0.5014 -0.1991
 2782SOL    HW118450   0.504   2.972   1.767 -0.1005  0.5481  0.0869
 2782SOL    HW218451   0.522   2.958   1.929  0.3286 -0.1733 -0.0189
 2783SOL     OW18452   3.507   1.859   1.223  0.2990 -0.0440 -0.5157
 2783SOL    HW118453   3.532   1.770   1.261 -0.2998 -0.5450 -1.2658
 2783SOL    HW218454   3.420   1.850   1.174 -0.1077  1.1109 -0.0055
 2784SOL     OW18455   2.720   5.914   1.663 -0.0646 -0.4122  0.2061
 2784SOL    HW118456   2.634   5.872   1.691  0.0143  0.1108  1.2987
 2784SOL    HW218457   2.795   5.874   1.716 -0.0454  1.3874  1.6145
 2785SOL     OW18458   3.212   2.082   1.353  0.6683  0.3826 -0.1177
 2785SOL    HW118459   3.120   2.079   1.392 -0.0040 -0.2216 -1.7193
 2785SOL    HW218460   3.236   1.991   1.318  3.4658 -0.5565  3.8241
 2786SOL     OW18461   1.979   2.655   1.071 -0.7023 -0.0453 -0.1690
 2786SOL    HW118462   2.023   2.657   1.161 -1.6262 -1.6256  0.3271
 2786SOL    HW218463   2.023   2.723   1.012 -0.2244  1.1622  1.5220
 2787SOL     OW18464   3.148   0.185   2.720  0.0925  0.0511  0.4239
 2787SOL    HW118465   3.077   0.114   2.719  0.0355  0.1013  0.6688
 2787SOL    HW218466   3.238   0.142   2.725  0.0623 -0.0083  0.4725
 2788SOL     OW18467   9.427   0.195   1.646  0.1825 -0.2617 -0.1669
 2788SOL    HW118468   9.465   0.284   1.622  1.1936 -0.5083  0.4891
 2788SOL    HW218469   9.374   0.202   1.730 -0.5883 -0.0837 -0.6556
 2789SOL     OW18470   3.250   9.384   1.079 -0.3482  0.1551 -0.0740
 2789SOL    HW118471   3.257   9.331   0.994 -0.6085  0.1108 -0.0661
 2789SOL    HW218472   3.162   9.431   1.083 -0.3851  0.0621  0.2264
 2790SOL     OW18473   3.669   0.642   0.939 -0.4026 -0.3223  0.7335
 2790SOL    HW118474   3.700   0.563   0.887 -0.4159 -0.8011  1.4587
 2790SOL    HW218475   3.713   0.725   0.903 -0.4849 -0.6388 -0.1029
 2791SOL     OW18476   3.066   0.437   2.810  0.9589 -0.1845  0.1248
 2791SOL    HW118477   3.095   0.348   2.776  3.0855  0.8434 -0.8518
 2791SOL    HW218478   3.003   0.479   2.744 -0.4332 -1.1505  0.8201
 2792SOL     OW18479   4.635   2.595   0.400  0.4270  0.1242 -0.6154
 2792SOL    HW118480   4.558   2.599   0.464  2.0135 -1.2440  1.4148
 2792SOL    HW218481   4.661   2.688   0.374  2.7493  1.0532  4.4184
 2793SOL     OW18482  10.309   6.995   2.304  0.1058  0.3804 -0.6357
 2793SOL    HW118483  10.235   7.023   2.242  1.2618  1.0108 -1.7462
 2793SOL    HW218484  10.320   7.063   2.376  0.1964  0.7351 -0.9831
 2794SOL     OW18485   9.955   9.116   0.945 -0.0008 -0.1981 -0.2669
 2794SOL    HW118486   9.973   9.034   1.000 -0.3059 -0.5242 -0.6566
 2794SOL    HW218487   9.919   9.189   1.004  1.7305  0.1704  0.3642
 2795SOL     OW18488   3.982   2.072   1.223  0.2853 -0.2926  0.5734
 2795SOL    HW118489   3.899   2.023   1.249  0.0428 -0.6670 -0.8420
 2795SOL    HW218490   3.963   2.132   1.146  1.5304 -1.0624 -0.3557
 2796SOL     OW18491   9.702   8.915   0.151 -0.2824  0.1524  0.1810
 2796SOL    HW118492   9.605   8.924   0.126 -0.3865  0.6613  0.7497
 2796SOL    HW218493   9.733   9.000   0.193  0.6762  0.3331 -0.8698
 2797SOL     OW18494   3.184   4.394   1.875  0.0388  0.1437  0.0326
 2797SOL    HW118495   3.216   4.477   1.922 -0.8875 -1.2460  3.2862
 2797SOL    HW218496   3.087   4.402   1.856 -0.0936 -0.2755  0.5312
 2798SOL     OW18497   4.085   1.078   2.386  0.7144 -0.2507 -0.0120
 2798SOL    HW118498   4.013   1.147   2.399  1.9511  1.3065 -1.3228
 2798SOL    HW218499   4.135   1.067   2.472 -0.0172 -0.1436  0.4405
 2799SOL     OW18500   9.961   0.416   0.120 -0.4195  0.4925  0.3621
 2799SOL    HW118501  10.034   0.368   0.168  1.1396  2.2494 -0.1799
 2799SOL    HW218502   9.920   0.355   0.052  0.8111 -0.4032  0.4017
 2800SOL     OW18503   2.799   9.468   0.277  0.1313 -0.2801  0.3773
 2800SOL    HW118504   2.760   9.388   0.231 -0.3779 -0.1992  0.6620
 2800SOL    HW218505   2.797   9.546   0.214 -0.0136 -0.3153  0.3360
 2801SOL     OW18506   4.005   1.017   0.846 -0.0201  0.5215 -0.1537
 2801SOL    HW118507   3.935   1.064   0.793 -0.2920 -0.3213 -0.5425
 2801SOL    HW218508   3.964   0.976   0.928 -0.1938 -0.8900 -0.9313
 2802SOL     OW18509   1.275   6.045   1.597 -0.5894  0.4322  0.2006
 2802SOL    HW118510   1.176   6.045   1.593 -0.5964 -1.6546 -0.7294
 2802SOL    HW218511   1.309   6.139   1.600 -2.5620  1.1766 -0.1488
 2803SOL     OW18512   9.840   6.533   0.072  0.0626 -0.5427  0.1878
 2803SOL    HW118513   9.823   6.444   0.031  1.0236 -0.5965 -0.0996
 2803SOL    HW218514   9.903   6.585   0.014  1.1436 -0.4790  1.4042
 2804SOL     OW18515   1.061   8.134   0.763  0.0914  0.4822 -0.1120
 2804SOL    HW118516   0.985   8.199   0.771  1.1567  1.5273  1.9904
 2804SOL    HW218517   1.061   8.094   0.672 -1.6335  2.1485 -0.8772
 2805SOL     OW18518   9.708   8.160   1.217 -0.0613 -0.4201  0.2347
 2805SOL    HW118519   9.726   8.070   1.257  1.9688  0.4163  1.2766
 2805SOL    HW218520   9.637   8.207   1.270 -0.7700 -1.2111 -0.0158
 2806SOL     OW18521   3.716   9.643   1.432  0.1505 -0.2649  0.3460
 2806SOL    HW118522   3.622   9.627   1.461  0.3568 -0.9053  0.6831
 2806SOL    HW218523   3.769   9.680   1.508  0.3247 -0.5059  0.3427
 2807SOL     OW18524   3.635   0.028   0.617 -0.3994  0.0441 -0.1415
 2807SOL    HW118525   3.699   0.092   0.659 -0.9853  1.3776 -1.2566
 2807SOL    HW218526   3.686  -0.045   0.572  0.3992  1.7893 -2.1327
 2808SOL     OW18527   3.084   7.890   0.686  0.1848  0.0802 -0.2276
 2808SOL    HW118528   3.030   7.974   0.683  1.1040  0.9204  3.5428
 2808SOL    HW218529   3.168   7.902   0.633  0.9391  2.0798  1.3573
 2809SOL     OW18530   0.548   4.351   0.339  0.0408 -0.1763 -0.3229
 2809SOL    HW118531   0.626   4.297   0.371  0.0083  0.2574  0.5083
 2809SOL    HW218532   0.468   4.330   0.397 -0.5466 -0.8506 -1.3566
 2810SOL     OW18533   9.759   3.310   0.456 -0.3405 -0.4910 -0.0090
 2810SOL    HW118534   9.816   3.336   0.534  0.3605 -0.2722 -0.5836
 2810SOL    HW218535   9.689   3.245   0.485 -0.7697  0.4129  1.0213
 2811SOL     OW18536   4.296   1.242   1.084  0.2818  0.1906 -0.2095
 2811SOL    HW118537   4.363   1.296   1.135  0.5264 -0.6690  0.3935
 2811SOL    HW218538   4.341   1.201   1.004  0.4965 -0.4183  0.2169
 2812SOL     OW18539   1.401   8.117   1.115  0.2448  0.1500  0.4099
 2812SOL    HW118540   1.444   8.167   1.040 -1.6038  0.0588 -0.7514
 2812SOL    HW218541   1.464   8.111   1.192  1.5965  1.6328 -0.5514
 2813SOL     OW18542   9.000   6.430   1.872  0.1388  0.0735 -0.2290
 2813SOL    HW118543   8.951   6.397   1.953  0.1112  0.6417 -0.0128
 2813SOL    HW218544   9.049   6.353   1.829 -2.0631 -0.7758 -1.2648
 2814SOL     OW18545   2.462   1.172   1.458  0.0131 -0.3787 -0.1922
 2814SOL    HW118546   2.538   1.133   1.511  0.9424  0.5524 -0.8083
 2814SOL    HW218547   2.378   1.166   1.511  0.4483 -1.7385  0.3708
 2815SOL     OW18548   2.444   9.950   0.628 -0.1319 -0.1754 -0.7384
 2815SOL    HW118549   2.498   9.886   0.574 -0.7326 -0.9264 -0.4571
 2815SOL    HW218550   2.379   9.900   0.685 -1.1031  0.6987 -1.0381
 2816SOL     OW18551   1.853   7.936   0.790 -0.1467  0.6331 -0.0241
 2816SOL    HW118552   1.799   7.873   0.846  0.0908  0.1159 -0.3758
 2816SOL    HW218553   1.938   7.957   0.838 -0.6218  1.3985  0.5020
 2817SOL     OW18554   1.501   9.141   0.099  0.0415  0.0083 -0.7374
 2817SOL    HW118555   1.532   9.170   0.008  0.4009  3.2761  0.3670
 2817SOL    HW218556   1.574   9.093   0.146  0.7116  0.5430 -1.2293
 2818SOL     OW18557   1.995   7.978   2.334  0.5254  0.7298  0.0649
 2818SOL    HW118558   2.072   7.925   2.297  1.1925  2.2654 -0.8197
 2818SOL    HW218559   1.910   7.929   2.318  1.2920 -0.8666  0.7978
 2819SOL     OW18560   4.542   3.337   1.289 -0.3832  0.4307  0.1915
 2819SOL    HW118561   4.461   3.302   1.242 -1.0658 -0.0298  1.6902
 2819SOL    HW218562   4.588   3.263   1.336  0.9952  0.6746 -0.7515
 2820SOL     OW18563   9.965   0.100   1.200  0.4101 -0.9351 -0.0857
 2820SOL    HW118564   9.969   0.027   1.132  0.0012 -1.7476  0.7686
 2820SOL    HW218565  10.031   0.172   1.175 -0.8796 -0.4627 -2.2107
 2821SOL     OW18566   0.995   5.163   2.250  0.0742  0.6587  0.1168
 2821SOL    HW118567   1.039   5.146   2.338 -1.8580  0.5581  1.0810
 2821SOL    HW218568   1.043   5.112   2.179 -0.6199 -2.2949  1.6954
 2822SOL     OW18569   1.318   8.566   1.130 -0.0632  0.0077 -0.3396
 2822SOL    HW118570   1.264   8.639   1.088  0.3667  1.0503  0.8840
 2822SOL    HW218571   1.412   8.569   1.094 -0.4215 -0.8915 -1.3880
 2823SOL     OW18572   1.115   5.150   2.480  0.0297  0.1554  0.1162
 2823SOL    HW118573   1.166   5.069   2.510  1.1857  0.3009 -1.4428
 2823SOL    HW218574   1.025   5.150   2.524  0.4552 -1.3639  1.0307
 2824SOL     OW18575   2.783   6.821   1.725  0.1118 -0.1531 -0.2805
 2824SOL    HW118576   2.779   6.760   1.646  0.0681 -0.9777  0.3474
 2824SOL    HW218577   2.774   6.767   1.809 -0.6310  0.7938  0.2585
 2825SOL     OW18578   1.154   5.017   0.616 -0.1032  0.0263 -0.7159
 2825SOL    HW118579   1.139   4.932   0.567  2.0874  1.8013 -4.6728
 2825SOL    HW218580   1.158   5.093   0.551 -1.1882  3.0836  2.6143
 2826SOL     OW18581   3.724   0.205   2.118 -0.9076 -0.0643 -0.0222
 2826SOL    HW118582   3.628   0.181   2.104 -0.7816 -0.0252 -0.9936
 2826SOL    HW218583   3.748   0.191   2.214 -1.4224 -1.7139 -0.1130
 2827SOL     OW18584   9.862   3.421   0.687  0.3313 -0.4083  0.2567
 2827SOL    HW118585   9.791   3.366   0.731  1.6650 -1.8662  0.6622
 2827SOL    HW218586   9.912   3.473   0.755  0.4489 -0.3412  0.1209
 2828SOL     OW18587   2.012   0.240   0.480  0.0063 -0.1688  0.2228
 2828SOL    HW118588   2.104   0.243   0.440 -0.0612  0.4060  0.1163
 2828SOL    HW218589   2.000   0.317   0.542 -0.3217 -0.3786  0.4189
 2829SOL     OW18590   2.395   2.910   1.760 -0.2039  0.4959  0.3522
 2829SOL    HW118591   2.336   2.989   1.775  0.0264  0.3807  1.8758
 2829SOL    HW218592   2.370   2.867   1.673 -1.4870  1.2258  0.3462
 2830SOL     OW18593   1.965   4.951   0.118 -0.1292  0.0951  0.5953
 2830SOL    HW118594   1.961   4.851   0.118 -1.6190  0.1113 -2.4248
 2830SOL    HW218595   1.897   4.987   0.183 -0.0973 -0.8338  1.1458
 2831SOL     OW18596   0.800   8.649   0.715 -0.0467  0.2533 -0.2265
 2831SOL    HW118597   0.880   8.592   0.695  0.0134  0.2202  0.1002
 2831SOL    HW218598   0.741   8.653   0.635  1.1269  1.6790 -1.0587
 2832SOL     OW18599   0.780   1.737   1.198 -0.3275 -0.6549 -0.1795
 2832SOL    HW118600   0.820   1.673   1.263  1.6193  1.2248  0.5234
 2832SOL    HW218601   0.826   1.727   1.110  0.2667  0.0774  0.0501
 2833SOL     OW18602   3.033   2.181   0.393 -0.0485 -0.1659  0.0024
 2833SOL    HW118603   3.122   2.225   0.383  0.1099 -0.1930  1.2170
 2833SOL    HW218604   3.046   2.084   0.412 -0.3530 -0.2976 -0.4589
 2834SOL     OW18605   2.367   6.990   0.638 -0.6908  0.0200  0.8676
 2834SOL    HW118606   2.388   6.894   0.656  1.6686  0.0012 -1.7091
 2834SOL    HW218607   2.270   6.999   0.614 -0.8124 -1.7836  0.6253
 2835SOL     OW18608   8.882   5.268   2.623  0.2230  0.0657 -0.2371
 2835SOL    HW118609   8.920   5.215   2.699 -3.0286 -1.1741  0.5711
 2835SOL    HW218610   8.824   5.341   2.659 -0.8688 -0.1601 -1.5316
 2836SOL     OW18611   1.812   2.767   0.499  0.1247 -0.1677  0.3628
 2836SOL    HW118612   1.737   2.833   0.494 -1.3532 -1.6706  2.0859
 2836SOL    HW218613   1.841   2.743   0.406 -1.9026  0.0177 -0.3489
 2837SOL     OW18614   1.176   6.351   0.105  0.0187 -0.0241  0.0554
 2837SOL    HW118615   1.189   6.450   0.097  1.1487 -0.0345  1.4858
 2837SOL    HW218616   1.265   6.306   0.117 -0.5456 -1.1297  0.1932
 2838SOL     OW18617   1.730   5.731   0.576  0.0482  0.9766 -0.0367
 2838SOL    HW118618   1.766   5.818   0.610  0.1141  1.2395 -0.7644
 2838SOL    HW218619   1.661   5.748   0.506  1.0285  0.4347 -1.1497
 2839SOL     OW18620   4.597   2.848   2.067  0.0547  0.0831  0.3666
 2839SOL    HW118621   4.679   2.799   2.095  0.8939  0.8930 -0.6153
 2839SOL    HW218622   4.567   2.815   1.977  0.4525  1.1468 -0.1622
 2840SOL     OW18623   9.551   1.272   2.084 -0.8003 -0.2406  0.1280
 2840SOL    HW118624   9.633   1.326   2.103  0.5310 -1.9124 -0.7004
 2840SOL    HW218625   9.521   1.288   1.990 -1.4257  0.3464  0.4204
 2841SOL     OW18626   0.846   8.631   1.401  0.5342 -0.2957  0.2786
 2841SOL    HW118627   0.837   8.716   1.348  0.4066 -1.0232 -0.8698
 2841SOL    HW218628   0.943   8.614   1.418  0.4542  1.4146  2.7154
 2842SOL     OW18629   2.787   6.115   2.040  0.3205 -0.4981  0.9198
 2842SOL    HW118630   2.733   6.175   2.099  0.2128  0.0173  0.2966
 2842SOL    HW218631   2.783   6.148   1.946  1.1576 -0.8558  0.7562
 2843SOL     OW18632   2.516   8.070   1.909 -0.4132  0.2321  0.5095
 2843SOL    HW118633   2.480   8.093   1.999 -1.6585  0.1027  0.0473
 2843SOL    HW218634   2.532   8.154   1.857 -0.6554  0.2586  0.4786
 2844SOL     OW18635   4.114   8.718   1.725  0.4251 -0.0748  0.5524
 2844SOL    HW118636   4.015   8.713   1.712  0.5002 -0.4095  0.0993
 2844SOL    HW218637   4.133   8.737   1.821 -0.1085  1.6596  0.3229
 2845SOL     OW18638   1.882   9.269   2.170  0.0614  0.3004  0.5428
 2845SOL    HW118639   1.837   9.271   2.080  2.2077  0.6347 -0.5639
 2845SOL    HW218640   1.915   9.360   2.193  1.8180 -0.2879  0.4445
 2846SOL     OW18641   4.474   1.418   1.868 -0.0271  0.2755  0.2602
 2846SOL    HW118642   4.513   1.444   1.780  1.3252  0.3120  0.8519
 2846SOL    HW218643   4.375   1.430   1.866 -0.1646 -0.9306 -1.6691
 2847SOL     OW18644   3.594   8.145   1.300  0.1085 -0.4613 -0.3355
 2847SOL    HW118645   3.692   8.128   1.309  0.3083  0.6028 -0.4400
 2847SOL    HW218646   3.561   8.106   1.215  0.8349  0.8511 -1.2357
 2848SOL     OW18647   9.417   2.143   0.412 -0.0093 -0.0338  0.4819
 2848SOL    HW118648   9.393   2.067   0.351  1.5988  0.5020 -0.8631
 2848SOL    HW218649   9.407   2.230   0.363 -1.1033  0.5807  1.7668
 2849SOL     OW18650   3.651   1.057   0.372 -0.3184  0.2271  0.5277
 2849SOL    HW118651   3.737   1.106   0.386 -0.1995  0.1429  0.1228
 2849SOL    HW218652   3.648   1.023   0.278 -0.1636 -0.9935  0.9548
 2850SOL     OW18653   1.750   1.142   0.151  0.3564 -0.3655 -0.0167
 2850SOL    HW118654   1.783   1.153   0.244 -2.2314  1.9831  0.6807
 2850SOL    HW218655   1.747   1.232   0.106 -2.3631 -0.8956 -0.9587
 2851SOL     OW18656   3.956   8.989   1.870  0.0052  0.1591 -0.5696
 2851SOL    HW118657   4.046   9.010   1.831 -0.2404 -0.1866 -1.3204
 2851SOL    HW218658   3.958   9.007   1.969  1.1220 -0.5912 -0.4513
 2852SOL     OW18659   1.565   9.161   0.563  0.2426  0.0309 -0.5714
 2852SOL    HW118660   1.596   9.067   0.571 -2.5746 -0.7706  1.6431
 2852SOL    HW218661   1.467   9.162   0.542  0.3364  2.4666 -1.0584
 2853SOL     OW18662   3.929   9.945   2.413 -0.0381 -0.2207  0.1082
 2853SOL    HW118663   3.869   9.865   2.410 -0.6135  0.2216 -0.2520
 2853SOL    HW218664   4.003   9.929   2.478 -0.9101 -0.5194  1.0346
 2854SOL     OW18665   2.512   0.007   1.499 -0.4873  0.0345 -0.1246
 2854SOL    HW118666   2.521  -0.093   1.504 -0.3349  0.1600  2.5575
 2854SOL    HW218667   2.423   0.035   1.535  0.1039  0.9722  0.6398
 2855SOL     OW18668   9.161   6.978   1.525  0.2088 -0.0657 -0.2838
 2855SOL    HW118669   9.142   7.055   1.465 -0.9822 -1.0003 -1.1184
 2855SOL    HW218670   9.235   6.923   1.487 -1.4969 -1.4677 -1.6942
 2856SOL     OW18671   2.668   6.266   0.270  0.0783 -0.6311  0.2279
 2856SOL    HW118672   2.592   6.321   0.303 -0.2324 -0.1161 -1.3087
 2856SOL    HW218673   2.671   6.179   0.319 -1.4713 -0.6327  0.3254
 2857SOL     OW18674   0.379   1.610   0.732 -0.2337 -0.0895 -0.1245
 2857SOL    HW118675   0.416   1.702   0.747  0.6412 -0.4541  0.0222
 2857SOL    HW218676   0.388   1.557   0.817 -2.8710  0.4019  0.4890
 2858SOL     OW18677   1.258   8.118   2.798  0.3394  0.3399 -0.1045
 2858SOL    HW118678   1.237   8.020   2.801  0.9692  0.1662 -0.9939
 2858SOL    HW218679   1.349   8.133   2.838 -0.3636  0.7532  1.3673
 2859SOL     OW18680   0.961   4.156   1.301  0.2294 -0.6397  0.6882
 2859SOL    HW118681   0.945   4.244   1.256  1.5795 -1.0178 -0.5641
 2859SOL    HW218682   0.957   4.168   1.401 -0.1586  0.7260  0.5118
 2860SOL     OW18683   1.639   4.454   1.666  0.1091 -0.8977 -0.2857
 2860SOL    HW118684   1.589   4.375   1.631  1.3565 -1.5679 -0.6000
 2860SOL    HW218685   1.639   4.526   1.596  1.0393 -1.5448 -0.9648
 2861SOL     OW18686   1.754   1.772   0.270 -0.2194 -0.0254  0.0622
 2861SOL    HW118687   1.670   1.727   0.240 -1.2265  2.7448 -1.5367
 2861SOL    HW218688   1.732   1.846   0.334  1.1614 -0.3485  0.9376
 2862SOL     OW18689   3.488   5.174   0.505  0.0857 -0.2182 -0.3198
 2862SOL    HW118690   3.575   5.135   0.534 -0.9398 -0.7532  2.2163
 2862SOL    HW218691   3.419   5.101   0.500 -0.7533  0.5450 -0.0582
 2863SOL     OW18692   4.334   2.280   2.704  0.4480  0.4481  0.1538
 2863SOL    HW118693   4.379   2.304   2.618  1.5459 -0.0580  0.5830
 2863SOL    HW218694   4.236   2.303   2.698  0.4613  0.1468 -1.3283
 2864SOL     OW18695   4.789   2.374   0.335  0.4744  0.3998 -0.6173
 2864SOL    HW118696   4.729   2.453   0.348  1.2166  0.9327 -0.3496
 2864SOL    HW218697   4.840   2.385   0.250 -0.0063 -0.1845 -0.9830
 2865SOL     OW18698   1.859   6.253   0.258 -0.1094  0.1210 -0.0932
 2865SOL    HW118699   1.797   6.328   0.236  1.5070  1.7875  0.8677
 2865SOL    HW218700   1.921   6.238   0.180 -0.4024 -0.1806 -0.2674
 2866SOL     OW18701   3.007   3.397   1.885  0.7504 -0.2402  0.7061
 2866SOL    HW118702   3.031   3.493   1.889  0.5802 -0.1773  0.2641
 2866SOL    HW218703   3.052   3.354   1.806  1.8365 -0.8087  1.6201
 2867SOL     OW18704   2.431   6.365   0.356  0.3533  0.1505 -0.0359
 2867SOL    HW118705   2.414   6.446   0.413  1.2538 -0.8092  1.6384
 2867SOL    HW218706   2.347   6.311   0.350  0.4144 -0.0541  0.8922
 2868SOL     OW18707  10.078   6.613   0.238  0.4481 -0.8049 -0.0000
 2868SOL    HW118708  10.044   6.702   0.269 -0.8081 -1.0193 -0.7458
 2868SOL    HW218709  10.004   6.546   0.241  1.1285 -1.5908 -0.4456
 2869SOL     OW18710   2.312   9.283   2.784 -0.1033 -0.1370  0.3325
 2869SOL    HW118711   2.240   9.242   2.728 -1.9224  1.9331  1.0372
 2869SOL    HW218712   2.357   9.356   2.732 -0.1227  0.1409  0.7020
 2870SOL     OW18713   0.560   7.107   0.664 -0.2207 -0.1846  0.1762
 2870SOL    HW118714   0.470   7.078   0.632 -0.8932  0.8083  1.1518
 2870SOL    HW218715   0.628   7.039   0.636 -1.0781 -0.3406 -1.6270
 2871SOL     OW18716   9.539   2.099   0.106 -0.1213 -0.0498  0.0481
 2871SOL    HW118717   9.633   2.091   0.140 -0.4899 -0.5074  0.9855
 2871SOL    HW218718   9.482   2.029   0.149 -1.3422  1.5381  1.0675
 2872SOL     OW18719   3.530   2.142   0.969  0.2195  0.1190  0.1006
 2872SOL    HW118720   3.519   2.159   1.067 -3.5939  1.4180 -0.4860
 2872SOL    HW218721   3.614   2.186   0.937  0.6156  1.1431  2.4347
 2873SOL     OW18722   3.159   8.581   1.262 -0.3093  0.3194 -0.3205
 2873SOL    HW118723   3.086   8.568   1.329  1.1151 -1.9438  0.9035
 2873SOL    HW218724   3.204   8.493   1.246  2.2591  1.6897 -0.8832
 2874SOL     OW18725   2.984   5.772   2.424 -0.2466  0.1160  0.2846
 2874SOL    HW118726   2.989   5.676   2.452 -0.9884 -0.4044 -1.3523
 2874SOL    HW218727   3.072   5.799   2.384  0.0289  0.1792  0.9277
 2875SOL     OW18728   8.648   6.964   2.669 -0.2073 -0.0226 -0.2507
 2875SOL    HW118729   8.560   6.948   2.624  0.3467  0.5668 -1.5715
 2875SOL    HW218730   8.688   6.877   2.696 -0.2132 -0.4480 -1.5774
 2876SOL     OW18731   9.388   4.005   0.583  0.5067 -0.0184 -0.3935
 2876SOL    HW118732   9.334   3.929   0.548 -0.1478 -0.5660  1.6962
 2876SOL    HW218733   9.432   3.978   0.669  0.6533  1.7901  0.1269
 2877SOL     OW18734   9.752   1.290   1.737 -0.0459  0.6374 -0.1316
 2877SOL    HW118735   9.844   1.251   1.749  0.7503  1.7414 -2.4250
 2877SOL    HW218736   9.734   1.355   1.811  0.9135  0.2088  0.4911
 2878SOL     OW18737   8.999   6.319   2.647 -0.0013  0.2137 -0.4656
 2878SOL    HW118738   9.049   6.259   2.710 -2.0310  0.3260  1.3009
 2878SOL    HW218739   9.009   6.285   2.554  0.3375 -1.8446  0.3004
 2879SOL     OW18740   0.486   3.221   1.637 -0.1706  0.1337 -0.1413
 2879SOL    HW118741   0.414   3.278   1.598  0.1065  0.7769  0.2825
 2879SOL    HW218742   0.502   3.142   1.578 -0.8288  0.2849 -0.5274
 2880SOL     OW18743   4.024   5.429   1.070  0.5404  0.2460 -0.2720
 2880SOL    HW118744   3.938   5.431   1.120  1.0656  0.6324  0.6391
 2880SOL    HW218745   4.080   5.352   1.103 -0.3633 -1.3896 -2.4307
 2881SOL     OW18746   1.044   9.538   2.553 -0.2819  0.0580  0.1063
 2881SOL    HW118747   1.095   9.548   2.639 -0.9573  1.4980  0.3585
 2881SOL    HW218748   0.946   9.538   2.573 -0.4271 -0.4374 -0.5944
 2882SOL     OW18749   9.542   0.452   1.634  0.3234 -0.8277  0.1478
 2882SOL    HW118750   9.505   0.545   1.625  0.8449 -0.4088  2.0548
 2882SOL    HW218751   9.618   0.441   1.570  1.9061  0.9448  1.6409
 2883SOL     OW18752   3.515   0.315   1.227  0.9413 -0.8021  0.5982
 2883SOL    HW118753   3.473   0.247   1.287 -1.7486 -0.6660 -1.0184
 2883SOL    HW218754   3.483   0.300   1.133  1.3857  1.8348 -0.0091
 2884SOL     OW18755   2.236   0.040   2.330 -0.5055 -0.4474 -0.0778
 2884SOL    HW118756   2.147   0.017   2.370 -1.5713  0.6620 -1.7272
 2884SOL    HW218757   2.251  -0.016   2.249 -0.3325  0.3245 -0.5869
 2885SOL     OW18758   3.080   5.198   1.671 -0.2041  0.0610  0.5572
 2885SOL    HW118759   3.043   5.180   1.579  1.6855  0.0418 -0.2198
 2885SOL    HW218760   3.113   5.113   1.710 -1.5061 -0.0264  1.5074
 2886SOL     OW18761  10.306   3.379   1.500 -0.5443 -0.0048 -0.5013
 2886SOL    HW118762  10.270   3.330   1.420 -1.0321  3.5120 -2.5474
 2886SOL    HW218763  10.234   3.434   1.541  0.1427 -0.4489  1.3217
 2887SOL     OW18764   4.092   8.991   1.021  0.1027  0.3428  0.4222
 2887SOL    HW118765   4.024   8.936   1.070  1.2041  0.0515  1.6559
 2887SOL    HW218766   4.097   8.960   0.926  2.5619 -3.5947  1.6704
 2888SOL     OW18767   0.897   5.521   1.989 -0.3716 -0.7582  0.4934
 2888SOL    HW118768   0.831   5.491   1.920 -0.5615 -1.6775  1.0590
 2888SOL    HW218769   0.956   5.592   1.950 -1.9234  0.3482  0.1050
 2889SOL     OW18770   1.502   8.221   0.821  0.3532  0.1465 -0.2302
 2889SOL    HW118771   1.591   8.200   0.779 -0.7260 -2.6076 -1.2948
 2889SOL    HW218772   1.433   8.161   0.782 -1.5207  0.5255  2.4061
 2890SOL     OW18773   0.869   9.037   1.601  0.4143  0.1502  0.5595
 2890SOL    HW118774   0.957   9.082   1.617 -0.2415  1.7597 -0.3251
 2890SOL    HW218775   0.814   9.040   1.685  0.6965  0.2675  0.7414
 2891SOL     OW18776   1.484   9.520   2.565  0.4782 -0.2129  0.0197
 2891SOL    HW118777   1.562   9.536   2.625  0.9049  1.0404 -0.8663
 2891SOL    HW218778   1.428   9.603   2.559 -1.0306 -1.1513  0.7875
 2892SOL     OW18779   2.763   6.312   2.550  0.0093 -0.6108  0.2030
 2892SOL    HW118780   2.863   6.303   2.540  0.4335  0.6739  2.9924
 2892SOL    HW218781   2.729   6.240   2.610 -0.5414 -0.1828  0.4089
 2893SOL     OW18782   4.223   4.081   1.039 -0.1840 -0.3163 -0.0850
 2893SOL    HW118783   4.242   3.985   1.056  0.1812 -0.4321 -1.1360
 2893SOL    HW218784   4.309   4.131   1.027 -0.3787  0.1011  0.2218
 2894SOL     OW18785   9.743   7.958   2.570 -0.4930 -0.1445  0.2369
 2894SOL    HW118786   9.744   7.863   2.537  0.2642 -0.5112  1.2982
 2894SOL    HW218787   9.664   7.970   2.630 -1.4734  0.3347 -1.1123
 2895SOL     OW18788   3.533   0.204   2.554 -0.2349  0.1461  0.0185
 2895SOL    HW118789   3.496   0.187   2.645 -0.0106 -2.6028 -0.3599
 2895SOL    HW218790   3.488   0.144   2.487  0.2541  1.4675 -1.5380
 2896SOL     OW18791   1.437   8.011   1.380  0.4110 -0.7096 -0.6142
 2896SOL    HW118792   1.459   7.975   1.470  1.1391 -0.4106 -0.6660
 2896SOL    HW218793   1.347   7.979   1.352 -1.1977  1.7373  1.5721
 2897SOL     OW18794   3.546   3.055   1.458 -0.0378  0.5071 -0.1629
 2897SOL    HW118795   3.549   3.027   1.362  0.7943  0.7969 -0.2235
 2897SOL    HW218796   3.459   3.025   1.498  0.2915 -1.0393 -0.5649
 2898SOL     OW18797   0.810   3.110   1.992 -0.3248  0.4109 -0.6048
 2898SOL    HW118798   0.903   3.087   2.017  0.1600  1.0562 -1.7624
 2898SOL    HW218799   0.810   3.161   1.906 -1.7511  0.2917 -0.6952
 2899SOL     OW18800   0.689   9.665   2.049  0.2885 -0.3399  0.3325
 2899SOL    HW118801   0.766   9.639   2.107  2.2842  1.0113 -1.6138
 2899SOL    HW218802   0.707   9.755   2.009 -2.3646  0.0385 -0.0744
 2900SOL     OW18803   1.499   2.343   1.388 -0.1545  0.6930 -0.2247
 2900SOL    HW118804   1.560   2.279   1.435 -0.0461  0.7147 -0.3369
 2900SOL    HW218805   1.440   2.388   1.456 -0.8302 -0.1648 -0.2388
 2901SOL     OW18806   2.694   3.677   1.119 -0.6429 -0.0903 -0.6133
 2901SOL    HW118807   2.637   3.757   1.138 -1.8743 -1.2997  0.9128
 2901SOL    HW218808   2.787   3.695   1.151 -0.6626  1.0922 -1.1796
 2902SOL     OW18809   9.204   7.502   1.497  0.5298  0.0022 -0.0070
 2902SOL    HW118810   9.213   7.412   1.452  1.7979  0.5916 -0.9769
 2902SOL    HW218811   9.209   7.490   1.596  1.5361 -0.9235 -0.1546
 2903SOL     OW18812   1.271   5.702   1.713  0.0581 -0.0204 -0.2293
 2903SOL    HW118813   1.327   5.781   1.688  1.1122 -0.8736 -0.5646
 2903SOL    HW218814   1.301   5.666   1.801 -1.9125  1.3329  1.0391
 2904SOL     OW18815   9.786   3.727   1.394  0.5499  0.0166 -0.2320
 2904SOL    HW118816   9.857   3.703   1.329 -0.6736 -1.5307 -1.0232
 2904SOL    HW218817   9.802   3.680   1.481  1.5356  1.1775  0.2351
 2905SOL     OW18818   9.993   3.666   1.226  0.5787 -0.4236  0.4075
 2905SOL    HW118819  10.053   3.740   1.258  1.0254 -1.8745  3.1079
 2905SOL    HW218820   9.947   3.694   1.142  1.3351  2.6053  0.9514
 2906SOL     OW18821   3.796   5.047   1.814  0.3223  0.0164  0.2675
 2906SOL    HW118822   3.803   4.948   1.814 -0.4920 -0.0547 -0.7649
 2906SOL    HW218823   3.880   5.087   1.851  1.2888 -1.0152 -0.7814
 2907SOL     OW18824   3.501   1.735   2.173 -0.2033 -0.1598  0.6551
 2907SOL    HW118825   3.506   1.666   2.101  0.1842 -0.0542  0.5822
 2907SOL    HW218826   3.553   1.816   2.146 -0.6336  0.1521  0.7525
 2908SOL     OW18827   0.621   7.507   2.766  0.3635  0.2100 -0.7641
 2908SOL    HW118828   0.586   7.596   2.737 -1.4956 -0.4937 -0.7161
 2908SOL    HW218829   0.659   7.459   2.687 -0.3826  0.2427 -1.1386
 2909SOL     OW18830   9.287   3.718   2.493  0.4354 -0.0245  0.7022
 2909SOL    HW118831   9.381   3.706   2.461  0.1783  1.8954 -0.8955
 2909SOL    HW218832   9.263   3.815   2.488 -1.6497 -0.5036  1.0445
 2910SOL     OW18833   4.480   1.969   1.764 -0.1919  0.3842  0.3344
 2910SOL    HW118834   4.563   1.942   1.717  1.1060  1.8737  1.7128
 2910SOL    HW218835   4.406   1.980   1.697  0.9485 -0.0580 -1.0173
 2911SOL     OW18836   9.235   7.826   1.070 -0.0473  0.2183 -0.0491
 2911SOL    HW118837   9.290   7.905   1.095  1.9230  0.0594 -3.5028
 2911SOL    HW218838   9.173   7.850   0.995 -1.4095 -0.8054  0.7225
 2912SOL     OW18839   1.091   1.084   2.648 -0.3287 -0.6437 -0.2852
 2912SOL    HW118840   1.188   1.101   2.660 -0.3319 -0.8009 -0.0269
 2912SOL    HW218841   1.050   1.158   2.595  0.0130 -0.7895 -0.7626
 2913SOL     OW18842   2.337   8.082   2.586 -0.2091  0.1605 -0.0833
 2913SOL    HW118843   2.321   8.048   2.678 -0.0256  1.4075  0.4125
 2913SOL    HW218844   2.250   8.103   2.542 -0.2268  1.1165  0.3993
 2914SOL     OW18845   1.615   1.555   0.874 -0.2492 -0.0725  0.0572
 2914SOL    HW118846   1.625   1.488   0.799 -1.1754  0.1730 -0.2914
 2914SOL    HW218847   1.706   1.589   0.900  0.2197 -1.3027  0.0937
 2915SOL     OW18848   1.775   6.474   0.097 -0.0252  0.2962  0.0809
 2915SOL    HW118849   1.759   6.434   0.006  0.7265 -0.1694  0.1450
 2915SOL    HW218850   1.718   6.555   0.108 -1.4610 -0.6582 -0.1259
 2916SOL     OW18851   3.447   1.063   0.575 -0.1580 -0.0939 -0.2228
 2916SOL    HW118852   3.459   1.112   0.661 -0.2206 -0.0467 -0.2410
 2916SOL    HW218853   3.522   1.086   0.513 -1.3935  1.7573 -1.0764
 2917SOL     OW18854   9.664   7.840   1.036  0.0722 -0.0901  0.3911
 2917SOL    HW118855   9.758   7.818   1.064  0.1721 -0.3820 -0.1600
 2917SOL    HW218856   9.665   7.875   0.942 -0.1397  1.8735  1.1119
 2918SOL     OW18857   2.444   0.175   2.403 -0.0159  0.7867  0.4102
 2918SOL    HW118858   2.360   0.139   2.362  0.3734  0.8868 -0.4628
 2918SOL    HW218859   2.448   0.274   2.390  1.3947  0.4897 -1.6616
 2919SOL     OW18860   2.195   3.207   0.745  0.2282  0.0358 -0.2405
 2919SOL    HW118861   2.162   3.208   0.839  1.3608  1.3990  0.1772
 2919SOL    HW218862   2.295   3.201   0.745  0.2370  0.0232 -1.3492
 2920SOL     OW18863   4.634   3.394   0.867  0.2047  0.1456  0.2143
 2920SOL    HW118864   4.626   3.390   0.967 -0.4035 -1.5026  0.1249
 2920SOL    HW218865   4.690   3.472   0.841  0.4921  0.5093  1.8617
 2921SOL     OW18866   2.292   8.381   0.758  0.0868 -0.1344  0.2487
 2921SOL    HW118867   2.212   8.393   0.817 -1.2953 -0.1012 -1.5792
 2921SOL    HW218868   2.319   8.469   0.720 -1.3421 -0.6219 -2.0457
 2922SOL     OW18869   3.457   8.157   2.289  0.2448  0.1566  0.7247
 2922SOL    HW118870   3.514   8.104   2.226  0.4642 -1.7671  2.5142
 2922SOL    HW218871   3.362   8.127   2.279  0.1537  0.4579  0.6955
 2923SOL     OW18872   4.527   3.807   1.072 -0.4647 -0.0696 -0.1788
 2923SOL    HW118873   4.580   3.831   0.991  0.4628 -0.1200  0.4045
 2923SOL    HW218874   4.430   3.805   1.049 -0.1249 -1.3078 -1.5777
 2924SOL     OW18875   3.467   0.183   2.027 -0.1112  0.3784  0.1292
 2924SOL    HW118876   3.374   0.156   2.053 -1.0192  2.5611 -0.7243
 2924SOL    HW218877   3.469   0.207   1.930  1.8244 -1.5416 -0.3672
 2925SOL     OW18878   2.502   9.325   2.301 -0.6855  0.8167 -0.4356
 2925SOL    HW118879   2.531   9.275   2.382 -2.0990  1.8479  0.7365
 2925SOL    HW218880   2.567   9.399   2.283 -1.3432  1.7224  0.8471
 2926SOL     OW18881   1.805   8.431   0.966 -0.2718 -0.1676  0.0527
 2926SOL    HW118882   1.837   8.520   0.934  2.0370 -0.8745  0.3675
 2926SOL    HW218883   1.705   8.430   0.964 -0.3168  2.1426 -0.7179
 2927SOL     OW18884   1.202   6.250   2.514 -0.2128  0.0729 -0.2846
 2927SOL    HW118885   1.226   6.186   2.442 -0.7220 -0.7323  0.2571
 2927SOL    HW218886   1.110   6.229   2.549 -0.0893  0.6296  0.4047
 2928SOL     OW18887   3.192   2.204   0.902 -0.0338  0.5058 -0.5705
 2928SOL    HW118888   3.107   2.223   0.853 -0.2661 -1.3380 -0.9354
 2928SOL    HW218889   3.254   2.152   0.843  0.8248  0.7246  0.1290
 2929SOL     OW18890   2.884   7.499   0.898  0.1469 -0.1886 -0.3520
 2929SOL    HW118891   2.923   7.437   0.967  0.9542  1.9056  1.1180
 2929SOL    HW218892   2.784   7.497   0.904  0.2243  0.5503  1.4133
 2930SOL     OW18893   4.037   2.496   1.933 -0.1709  0.2598  0.1566
 2930SOL    HW118894   4.089   2.445   1.865  0.7212  1.1665  0.1472
 2930SOL    HW218895   3.939   2.483   1.916  0.0349 -2.0461  0.6468
 2931SOL     OW18896   9.977   8.014   0.261 -0.3177  0.0587  0.2143
 2931SOL    HW118897   9.930   8.099   0.237  0.8483  0.2795 -1.3208
 2931SOL    HW218898   9.926   7.968   0.334 -0.4604  2.5422  1.7631
 2932SOL     OW18899   2.803   0.258   1.178 -0.7534 -0.0195 -0.0825
 2932SOL    HW118900   2.764   0.266   1.087 -1.7247 -0.7939  0.2558
 2932SOL    HW218901   2.821   0.350   1.214  1.7322  0.2460 -1.9143
 2933SOL     OW18902   9.679   1.173   2.656  0.1406 -0.1628  0.0150
 2933SOL    HW118903   9.687   1.148   2.560  0.3638  2.7977 -0.8035
 2933SOL    HW218904   9.583   1.176   2.682 -0.0554  1.4599 -0.8388
 2934SOL     OW18905   1.776   7.038   1.311  0.7024 -0.8483 -0.4466
 2934SOL    HW118906   1.848   6.981   1.351 -0.6821 -0.9759  1.9451
 2934SOL    HW218907   1.690   7.024   1.361 -0.6071  0.4872 -2.2461
 2935SOL     OW18908   9.705   4.546   2.166 -0.3296 -0.2169 -0.1568
 2935SOL    HW118909   9.620   4.548   2.219  1.1537  0.0201  2.2801
 2935SOL    HW218910   9.753   4.460   2.184  0.0548 -0.2703 -1.3906
 2936SOL     OW18911   1.843   1.723   1.744 -0.4870 -0.2674 -0.1100
 2936SOL    HW118912   1.782   1.674   1.682 -0.0520  0.3521 -1.0429
 2936SOL    HW218913   1.841   1.680   1.835 -2.2533 -0.2734 -0.1522
 2937SOL     OW18914   2.525   0.837   1.982  0.5164 -0.3696  0.2168
 2937SOL    HW118915   2.522   0.745   1.943 -0.3049 -0.2633  0.0107
 2937SOL    HW218916   2.492   0.903   1.914  2.6432  0.2869 -0.2013
 2938SOL     OW18917  10.252   2.491   0.953 -0.1185 -0.3542  0.7222
 2938SOL    HW118918  10.272   2.589   0.943  3.1401 -0.9877  0.5445
 2938SOL    HW218919  10.233   2.452   0.863 -1.4888  0.0796  0.7987
 2939SOL     OW18920   9.568   0.361   2.661 -0.0119 -0.1390  0.2529
 2939SOL    HW118921   9.511   0.284   2.686 -0.2287  0.2732  1.0349
 2939SOL    HW218922   9.541   0.395   2.571 -0.2163 -0.6812  0.1123
 2940SOL     OW18923   0.706   5.590   0.617 -0.2056  0.3611  0.1920
 2940SOL    HW118924   0.676   5.585   0.521 -0.0246 -0.9837  0.2048
 2940SOL    HW218925   0.719   5.498   0.653  4.4993  0.7937 -0.0178
 2941SOL     OW18926   3.730   1.981   1.300  0.5105 -0.1308  0.2293
 2941SOL    HW118927   3.719   1.979   1.399 -1.6429  1.3205  0.0595
 2941SOL    HW218928   3.656   1.928   1.257 -0.6331  2.1330 -0.6837
 2942SOL     OW18929   3.647   1.621   1.235  0.6399 -0.0077  0.1044
 2942SOL    HW118930   3.576   1.635   1.165  1.2186  1.0659 -0.2813
 2942SOL    HW218931   3.737   1.625   1.192  0.9559 -0.8654  0.6800
 2943SOL     OW18932   3.113   3.543   1.562 -0.2219  0.3633 -0.4217
 2943SOL    HW118933   3.052   3.617   1.535  0.8814  0.9407 -1.3771
 2943SOL    HW218934   3.076   3.456   1.529  1.3535  1.0839 -4.4406
 2944SOL     OW18935   0.440   6.602   0.114  0.1942 -0.0918 -0.1045
 2944SOL    HW118936   0.442   6.572   0.209  3.8472  1.3500  0.3592
 2944SOL    HW218937   0.507   6.550   0.061 -0.1738  0.7023 -1.3609
 2945SOL     OW18938   2.434   6.831   1.012  0.7512 -0.5851  0.4960
 2945SOL    HW118939   2.417   6.910   1.070 -1.4251 -1.8532  1.6719
 2945SOL    HW218940   2.517   6.846   0.958 -0.3648  3.0139 -0.3250
 2946SOL     OW18941   2.782   1.801   2.404 -0.1896  0.4168 -0.0762
 2946SOL    HW118942   2.705   1.787   2.467 -0.8137  1.2281 -0.6472
 2946SOL    HW218943   2.748   1.797   2.310  0.9362 -2.0272 -0.4148
 2947SOL     OW18944   0.810   6.885   2.822 -0.1031  0.1413 -0.1236
 2947SOL    HW118945   0.871   6.824   2.873 -1.0038 -0.3971  0.3346
 2947SOL    HW218946   0.807   6.975   2.866 -0.3317 -0.1073  0.3684
 2948SOL     OW18947   9.947   4.284   0.458  0.4542 -0.9521  0.2790
 2948SOL    HW118948   9.927   4.265   0.362  1.3168  0.0940 -0.1089
 2948SOL    HW218949   9.957   4.382   0.472 -2.4146 -0.8325  1.9829
 2949SOL     OW18950   2.435   7.844   0.500 -0.1342  0.2138  0.6885
 2949SOL    HW118951   2.528   7.848   0.536 -0.2683 -1.8095  1.3217
 2949SOL    HW218952   2.416   7.751   0.469 -1.4977  0.9369 -0.6497
 2950SOL     OW18953   0.356   4.226   0.582  0.0229  0.0823 -0.3984
 2950SOL    HW118954   0.401   4.137   0.596 -1.1565 -0.4893 -0.1220
 2950SOL    HW218955   0.365   4.281   0.664 -0.2890 -0.2739 -0.1187
 2951SOL     OW18956   3.923   2.704   2.234 -0.7250  0.2215  0.1532
 2951SOL    HW118957   3.926   2.774   2.162 -1.7613  0.1246  0.0053
 2951SOL    HW218958   3.973   2.623   2.204  0.7613  1.0016  0.4524
 2952SOL     OW18959   9.955   6.848   1.380  0.1481  0.5482  0.1629
 2952SOL    HW118960   9.936   6.782   1.453 -4.8349  3.3078  1.5401
 2952SOL    HW218961   9.925   6.810   1.293  1.3454 -0.6598  0.2437
 2953SOL     OW18962   9.733   4.900   0.840  0.1418  0.2891  0.3002
 2953SOL    HW118963   9.727   4.893   0.939  2.0003 -1.0011  0.3353
 2953SOL    HW218964   9.821   4.940   0.814  1.4883 -3.3159 -0.9548
 2954SOL     OW18965   4.039   5.156   1.846 -0.0567  0.6890 -0.2295
 2954SOL    HW118966   4.073   5.238   1.892  0.2706  0.4021  0.0498
 2954SOL    HW218967   4.108   5.121   1.783  0.6545 -0.5629  1.2050
 2955SOL     OW18968   9.712   4.809   2.711 -0.3618  0.8817 -0.0455
 2955SOL    HW118969   9.646   4.854   2.651  0.4411  0.2459 -1.4381
 2955SOL    HW218970   9.664   4.747   2.774 -1.0080 -0.5396 -1.8988
 2956SOL     OW18971   1.820   5.181   0.552  0.5123  0.2116 -0.4106
 2956SOL    HW118972   1.798   5.098   0.603 -1.6083 -0.1020 -1.7881
 2956SOL    HW218973   1.772   5.259   0.593 -1.6791 -0.1394 -2.2043
 2957SOL     OW18974   1.910   4.619   1.215 -0.2490 -0.1650  0.3301
 2957SOL    HW118975   1.855   4.584   1.139 -1.3944 -1.6639  1.8086
 2957SOL    HW218976   1.946   4.542   1.268  1.3091  0.8477  0.7619
 2958SOL     OW18977   0.969   4.179   0.849 -0.0024 -0.6999  0.4835
 2958SOL    HW118978   0.926   4.156   0.936 -3.7188  2.2820 -0.4397
 2958SOL    HW218979   1.016   4.267   0.856 -1.5212  0.2399 -0.8751
 2959SOL     OW18980   2.300   6.730   0.169  0.1863  0.6209  0.3723
 2959SOL    HW118981   2.317   6.638   0.132  1.0456  0.7258  0.4821
 2959SOL    HW218982   2.361   6.795   0.124  0.3791  0.9481  1.0881
 2960SOL     OW18983   1.016   5.676   1.793 -0.2779 -0.1732  0.4990
 2960SOL    HW118984   1.103   5.682   1.744 -0.1194 -0.7850  0.7105
 2960SOL    HW218985   0.968   5.763   1.784  0.5501  0.3180  0.7543
 2961SOL     OW18986   3.497   8.087   1.055  0.0139 -0.6574 -0.0488
 2961SOL    HW118987   3.542   8.135   0.980  2.6219 -0.6551  1.4729
 2961SOL    HW218988   3.406   8.127   1.069 -0.7284 -0.9601 -3.4388
 2962SOL     OW18989   9.650   9.536   1.654  0.5285 -0.5751  0.4473
 2962SOL    HW118990   9.658   9.437   1.643 -0.5018 -0.4139 -2.0858
 2962SOL    HW218991   9.698   9.582   1.580  1.5537  0.8660  1.9593
 2963SOL     OW18992   2.237   0.519   1.339  0.3604  0.1362  0.9094
 2963SOL    HW118993   2.325   0.496   1.380  0.6395 -0.4018  0.0104
 2963SOL    HW218994   2.165   0.460   1.376  0.5889 -0.2526  0.7321
 2964SOL     OW18995   2.198   6.808   0.880  0.1761  0.2647  0.1267
 2964SOL    HW118996   2.283   6.825   0.930 -0.5540 -0.3157  1.6130
 2964SOL    HW218997   2.217   6.797   0.783  1.6388  1.3794  0.2841
 2965SOL     OW18998   9.334   3.799   2.199  0.1746 -0.6276  0.0487
 2965SOL    HW118999   9.374   3.752   2.120 -0.5026 -0.4189 -0.4178
 2965SOL    HW219000   9.389   3.879   2.222  0.0705 -0.3888 -0.5444
 2966SOL     OW19001   4.336   3.173   1.182 -0.2306  0.2632 -0.0613
 2966SOL    HW119002   4.241   3.205   1.175 -0.3348  0.1207  0.6239
 2966SOL    HW219003   4.373   3.158   1.090 -0.8082  0.5010 -0.3387
 2967SOL     OW19004   2.430   8.971   0.447 -0.4157 -0.4929 -0.2947
 2967SOL    HW119005   2.377   8.942   0.367 -4.1160 -0.9284  2.1908
 2967SOL    HW219006   2.513   8.916   0.454 -0.4329 -1.0024 -3.3158
 2968SOL     OW19007  10.205   8.095   2.759 -0.1060  0.0296 -0.1035
 2968SOL    HW119008  10.256   8.082   2.843 -0.2026 -0.6360 -0.1437
 2968SOL    HW219009  10.245   8.170   2.706 -1.1869  1.7037  1.4093
 2969SOL     OW19010   2.472   4.047   0.587  0.4911 -0.1238 -0.0722
 2969SOL    HW119011   2.523   3.978   0.638  0.2383 -0.2867 -0.0379
 2969SOL    HW219012   2.532   4.125   0.567 -0.0478  1.0088  2.5716
 2970SOL     OW19013   1.418   0.913   1.373 -0.0686  0.4840 -0.2049
 2970SOL    HW119014   1.322   0.893   1.393 -0.5907  0.6158 -2.4201
 2970SOL    HW219015   1.427   1.007   1.340  0.6553  0.1374 -1.0236
 2971SOL     OW19016   2.671   2.074   1.828  0.0087  0.4978 -0.3064
 2971SOL    HW119017   2.644   2.150   1.887  0.8144  0.5220  0.0388
 2971SOL    HW219018   2.590   2.036   1.783 -0.3634  1.7526 -0.7157
 2972SOL     OW19019   3.861   9.184   0.410 -0.0692  0.7163 -0.7466
 2972SOL    HW119020   3.842   9.281   0.428  0.2991  1.0517 -2.1312
 2972SOL    HW219021   3.921   9.176   0.330 -0.3272 -0.6735 -0.8094
 2973SOL     OW19022   9.752   5.809   2.132  0.0224  0.3446 -0.0397
 2973SOL    HW119023   9.666   5.859   2.137 -0.7300 -0.8837 -0.4296
 2973SOL    HW219024   9.806   5.826   2.214 -0.8996  0.5905  0.5258
 2974SOL     OW19025   3.759   3.251   1.975 -0.7961  1.1393  1.0877
 2974SOL    HW119026   3.804   3.225   1.890  0.6112  0.9470  1.8837
 2974SOL    HW219027   3.819   3.231   2.052 -1.4650  2.6776  2.0294
 2975SOL     OW19028  10.035   0.607   1.325 -0.0172  0.0433 -0.1593
 2975SOL    HW119029  10.036   0.515   1.365 -1.6751 -0.3750 -1.0745
 2975SOL    HW219030   9.964   0.662   1.369  0.4195  0.6420 -0.1910
 2976SOL     OW19031   4.077   3.908   1.823  0.2707  0.5391 -0.1096
 2976SOL    HW119032   4.040   3.964   1.896  0.7369  0.7810 -0.0562
 2976SOL    HW219033   4.027   3.821   1.818  0.8695  0.1072  1.1319
 2977SOL     OW19034   2.290   5.999   0.359 -0.5211  0.3999  0.0006
 2977SOL    HW119035   2.365   5.941   0.326 -1.1657 -1.1164  1.1295
 2977SOL    HW219036   2.282   6.080   0.301  1.3762  0.1105 -0.6967
 2978SOL     OW19037   1.313   6.892   1.572  0.2635 -0.8295  0.3941
 2978SOL    HW119038   1.261   6.806   1.570  0.8393 -1.1774  0.4785
 2978SOL    HW219039   1.399   6.879   1.523 -0.8913  0.4942 -2.1244
 2979SOL     OW19040   3.146   1.151   2.793 -0.3777 -0.0519  0.1044
 2979SOL    HW119041   3.204   1.227   2.822 -1.3196  0.4931  0.5795
 2979SOL    HW219042   3.091   1.179   2.714  0.4798 -0.7831 -0.7744
 2980SOL     OW19043   0.584   9.995   0.680  0.1122 -0.6009  0.5148
 2980SOL    HW119044   0.514   9.941   0.633  0.0103 -0.3437  0.3744
 2980SOL    HW219045   0.673   9.949   0.670  0.2129 -0.1900 -0.5299
 2981SOL     OW19046   1.213   8.917   2.237 -0.6910  0.1181  0.7500
 2981SOL    HW119047   1.209   8.959   2.146  0.6976  0.4819  0.8327
 2981SOL    HW219048   1.162   8.832   2.237  0.2900 -0.4980 -0.7295
 2982SOL     OW19049   3.603   1.928   0.556 -0.3943 -0.3715  0.3822
 2982SOL    HW119050   3.564   1.839   0.579 -1.9210  0.2781  0.3394
 2982SOL    HW219051   3.581   1.994   0.627  0.0403  0.1792  0.0097
 2983SOL     OW19052   2.365   2.734   0.257 -0.1523 -0.1291  0.5809
 2983SOL    HW119053   2.287   2.741   0.319 -0.4092 -0.0511  0.2494
 2983SOL    HW219054   2.428   2.809   0.274 -0.8693  0.6415 -0.1576
 2984SOL     OW19055   1.053   8.275   2.740  0.0412  0.1151 -0.1976
 2984SOL    HW119056   1.000   8.191   2.729 -1.6875  0.9372  1.4381
 2984SOL    HW219057   1.149   8.252   2.754 -0.5598 -1.6864  1.2693
 2985SOL     OW19058   4.437   3.141   0.206  0.0543 -0.1986  0.2189
 2985SOL    HW119059   4.361   3.205   0.195 -0.2480 -0.4769  0.6488
 2985SOL    HW219060   4.485   3.130   0.119 -1.2767 -1.1158 -0.4203
 2986SOL     OW19061   1.038   2.530   0.292 -0.0881 -0.2512 -0.0345
 2986SOL    HW119062   1.119   2.582   0.319  0.3259 -1.7309  1.6442
 2986SOL    HW219063   1.045   2.504   0.196  1.1382  0.1517 -0.0633
 2987SOL     OW19064   3.404   4.769   1.757  0.1068  0.1205 -0.2931
 2987SOL    HW119065   3.436   4.682   1.720 -2.1120 -1.3610  1.1705
 2987SOL    HW219066   3.426   4.774   1.854  1.4846  1.8308 -0.6776
 2988SOL     OW19067   3.273   4.787   0.789 -0.2857  0.3918  0.0852
 2988SOL    HW119068   3.260   4.694   0.821  2.3363 -0.4457 -1.1125
 2988SOL    HW219069   3.355   4.826   0.831 -0.2430  1.4389 -0.9264
 2989SOL     OW19070   9.633   8.851   2.372  1.1247 -0.6590 -0.4546
 2989SOL    HW119071   9.668   8.857   2.465 -0.4335 -0.3115  0.1178
 2989SOL    HW219072   9.575   8.770   2.362 -0.7628  0.6572 -0.4038
 2990SOL     OW19073   9.664   4.530   1.884  0.1085  0.0308 -0.4736
 2990SOL    HW119074   9.601   4.452   1.883 -0.7833  0.7006  1.3152
 2990SOL    HW219075   9.695   4.547   1.978  0.4532  1.7148 -0.8727
 2991SOL     OW19076   2.418   5.772   0.269  0.3645  0.0786  0.3164
 2991SOL    HW119077   2.471   5.705   0.321 -0.7699 -0.5090  0.7311
 2991SOL    HW219078   2.320   5.756   0.284  0.0299  0.2728 -1.5150
 2992SOL     OW19079   2.250   3.292   2.731 -0.2617 -0.3648 -0.1107
 2992SOL    HW119080   2.316   3.271   2.658 -0.9435 -1.9274 -0.2980
 2992SOL    HW219081   2.166   3.328   2.691  0.2596  1.0989  0.0897
 2993SOL     OW19082   8.991   4.367   1.776  0.2804  0.2905  0.0200
 2993SOL    HW119083   8.940   4.410   1.702  0.9646  1.7367  0.3815
 2993SOL    HW219084   8.931   4.304   1.826 -0.9943  1.5254  0.0802
 2994SOL     OW19085   1.437   0.989   1.877  0.1191  0.6768 -0.2438
 2994SOL    HW119086   1.521   1.011   1.828  1.0080 -0.2782  0.8369
 2994SOL    HW219087   1.370   0.951   1.813  1.7499 -1.8674 -0.4948
 2995SOL     OW19088   2.073   6.478   2.061 -0.0591 -0.3113 -0.0127
 2995SOL    HW119089   2.031   6.438   1.979  1.2983  0.2324 -0.9781
 2995SOL    HW219090   2.143   6.416   2.096  1.1204  0.5989 -0.7402
 2996SOL     OW19091   9.379   5.680   2.126  0.3569 -0.1782  0.2365
 2996SOL    HW119092   9.390   5.585   2.097  3.5788  0.6537 -1.4733
 2996SOL    HW219093   9.397   5.741   2.048 -0.1155  1.8910  1.6943
 2997SOL     OW19094   2.122   9.410   1.684 -0.3374  0.0858 -0.2891
 2997SOL    HW119095   2.119   9.310   1.684  0.1632  0.0089  2.9026
 2997SOL    HW219096   2.124   9.444   1.590  0.2496 -2.9117 -1.4041
 2998SOL     OW19097   1.206   8.845   0.227 -0.0506 -0.5535 -0.5939
 2998SOL    HW119098   1.176   8.806   0.139 -0.1026  3.1288 -2.3242
 2998SOL    HW219099   1.142   8.819   0.299 -1.2947 -1.7695 -2.1080
 2999SOL     OW19100   2.125   1.963   1.075  0.3033 -0.3422 -0.0165
 2999SOL    HW119101   2.100   1.959   1.172 -0.8118  0.6079 -0.2538
 2999SOL    HW219102   2.224   1.972   1.066  0.4315 -0.7026  1.0242
 3000SOL     OW19103   3.696   9.078   0.164  0.7211  0.3672  0.0335
 3000SOL    HW119104   3.684   9.108   0.070  2.1347  2.4031  0.4738
 3000SOL    HW219105   3.635   9.129   0.224  0.3736 -0.3758  0.3272
 3001SOL     OW19106   9.523   0.228   0.450  0.2829 -0.6938 -0.2167
 3001SOL    HW119107   9.531   0.149   0.512 -0.2097  0.1348  0.9282
 3001SOL    HW219108   9.605   0.234   0.394  0.9032 -1.2660  0.6090
 3002SOL     OW19109   3.279   2.517   1.933  0.0312 -0.4841  0.0041
 3002SOL    HW119110   3.352   2.585   1.936 -1.6240  1.4150 -1.1245
 3002SOL    HW219111   3.271   2.481   1.840 -1.4035  0.4267 -0.2482
 3003SOL     OW19112   0.555   8.270   2.451 -0.0106  0.0970  1.2904
 3003SOL    HW119113   0.606   8.351   2.422 -1.3879  0.6439  0.2908
 3003SOL    HW219114   0.572   8.195   2.386 -0.0368  0.1032  1.2761
 3004SOL     OW19115   4.479   2.489   2.200  0.7140  0.3808  0.2668
 3004SOL    HW119116   4.515   2.485   2.107  0.6017 -0.2941  0.2522
 3004SOL    HW219117   4.389   2.531   2.199 -0.9755 -3.0529 -0.4480
 3005SOL     OW19118   9.624   7.704   1.919 -0.1198  0.1356  0.6759
 3005SOL    HW119119   9.570   7.778   1.877 -1.2680  0.5621  2.8147
 3005SOL    HW219120   9.584   7.616   1.895  1.0788  0.1861 -1.6467
 3006SOL     OW19121   1.814   2.255   0.855  0.3406  0.5312 -0.5553
 3006SOL    HW119122   1.762   2.319   0.799  0.9520  0.3038 -1.4039
 3006SOL    HW219123   1.854   2.302   0.933 -1.8985  0.5179  0.6076
 3007SOL     OW19124   9.066   3.583   1.969 -0.0020 -0.1430 -0.0827
 3007SOL    HW119125   9.138   3.625   1.913  1.2403 -1.5887  0.3812
 3007SOL    HW219126   9.077   3.612   2.064  1.6782 -2.4311  0.4915
 3008SOL     OW19127   9.415   3.946   1.078  1.1065  0.2496 -0.3832
 3008SOL    HW119128   9.365   3.908   1.155 -0.4946  0.1606 -1.4580
 3008SOL    HW219129   9.493   3.999   1.113  0.3908  0.2380  1.2912
 3009SOL     OW19130   3.364   0.279   1.501 -0.1775  0.9220  0.5393
 3009SOL    HW119131   3.389   0.334   1.422 -3.1725 -1.3550 -2.1493
 3009SOL    HW219132   3.398   0.186   1.490  0.4508  0.8737  2.5707
 3010SOL     OW19133   9.900   9.858   1.930  0.0325  0.3785  0.4134
 3010SOL    HW119134   9.984   9.803   1.920 -0.7466 -0.5802 -1.0887
 3010SOL    HW219135   9.823   9.807   1.891 -0.8547  2.2207 -0.2562
 3011SOL     OW19136   4.015   0.294   0.540  0.0082 -0.3052  0.1547
 3011SOL    HW119137   3.983   0.246   0.458  1.2958 -1.1618  0.1568
 3011SOL    HW219138   4.043   0.387   0.515 -0.9644 -0.0717 -0.1153
 3012SOL     OW19139   8.827   2.699   1.987  0.1177 -0.6994 -0.0386
 3012SOL    HW119140   8.783   2.787   1.966  0.8854  0.2459  2.1707
 3012SOL    HW219141   8.904   2.685   1.924 -1.8017 -1.2426 -2.3570
 3013SOL     OW19142   0.781   8.697   2.684  0.3774 -0.1283 -0.3658
 3013SOL    HW119143   0.688   8.675   2.655  0.5426 -0.7511 -0.4391
 3013SOL    HW219144   0.845   8.633   2.641  0.7703 -0.1476  0.2351
 3014SOL     OW19145   4.022   4.115   1.393 -0.1495  0.0436  0.2336
 3014SOL    HW119146   4.071   4.031   1.370 -0.3141  0.2460 -0.8982
 3014SOL    HW219147   4.028   4.179   1.316 -1.9314  0.1915  0.1926
 3015SOL     OW19148   0.682   6.430   2.817 -0.3825 -0.0216  0.3312
 3015SOL    HW119149   0.719   6.514   2.777  0.2372 -0.4470  0.0087
 3015SOL    HW219150   0.722   6.417   2.908  1.2411 -1.1451 -0.5254
 3016SOL     OW19151   2.914   6.230   0.419 -1.0148 -0.1239 -0.4159
 3016SOL    HW119152   2.862   6.280   0.351 -0.9677 -0.5705 -0.7819
 3016SOL    HW219153   3.011   6.233   0.396 -0.7488  1.6439  0.8612
 3017SOL     OW19154  10.225   9.345   2.692 -0.1803  0.0431  0.4298
 3017SOL    HW119155  10.264   9.398   2.616 -0.9316 -0.9861 -0.7059
 3017SOL    HW219156  10.158   9.280   2.655  0.4894 -1.4493  1.8337
 3018SOL     OW19157   3.743   2.021   2.309 -0.1767 -0.1711  0.0470
 3018SOL    HW119158   3.688   2.067   2.378  0.8247 -0.8018  1.2729
 3018SOL    HW219159   3.825   1.982   2.351 -0.0932 -1.5094 -1.2864
 3019SOL     OW19160   9.173   6.413   1.415  0.7821 -0.3370  0.1045
 3019SOL    HW119161   9.127   6.502   1.407 -4.4093 -2.7298  0.7164
 3019SOL    HW219162   9.190   6.376   1.324  0.8621  0.2896 -0.1371
 3020SOL     OW19163   2.782   4.578   1.768 -0.6601  0.4327  0.6309
 3020SOL    HW119164   2.723   4.600   1.691 -1.8402 -1.4672  0.9449
 3020SOL    HW219165   2.803   4.661   1.820 -1.7651  1.3616 -0.3882
 3021SOL     OW19166   2.667   3.941   2.198  0.1073 -0.3402 -0.0684
 3021SOL    HW119167   2.630   3.884   2.271  0.5091  0.0619  0.4504
 3021SOL    HW219168   2.737   4.002   2.235 -0.3035  0.4775 -0.6221
 3022SOL     OW19169   1.616   9.181   2.288  0.2036 -0.8814  0.1352
 3022SOL    HW119170   1.551   9.109   2.263 -1.7579  1.3861 -1.4113
 3022SOL    HW219171   1.702   9.166   2.240 -0.1944 -2.1637 -0.2082
 3023SOL     OW19172   9.852   8.883   1.782 -0.0098 -0.1604 -0.2918
 3023SOL    HW119173   9.753   8.894   1.770 -0.6297 -0.6009  3.6520
 3023SOL    HW219174   9.871   8.855   1.876  3.8785 -0.4015 -1.0684
 3024SOL     OW19175   4.970   3.695   0.666  0.6360 -0.2839  0.1354
 3024SOL    HW119176   4.982   3.602   0.630  0.4701 -0.2577  0.0123
 3024SOL    HW219177   4.878   3.705   0.702  0.6070 -0.1246  0.0218
 3025SOL     OW19178   4.627   4.757   0.123  0.0032  0.1820 -0.2069
 3025SOL    HW119179   4.583   4.784   0.209 -0.9617 -0.3278 -0.5321
 3025SOL    HW219180   4.626   4.834   0.059 -4.1370 -0.9642 -1.6998
 3026SOL     OW19181  10.115   3.951   0.815  0.0910  0.0001 -0.0187
 3026SOL    HW119182  10.116   3.858   0.778  0.1755  0.1071 -0.2905
 3026SOL    HW219183  10.176   3.957   0.894 -1.5985 -0.7340  1.3815
 3027SOL     OW19184   2.039   9.476   2.218  0.1671 -0.0417 -0.5833
 3027SOL    HW119185   2.072   9.475   2.124  0.8544 -1.2182 -0.3457
 3027SOL    HW219186   2.111   9.443   2.279 -1.0535 -1.6084  0.0702
 3028SOL     OW19187   3.029   2.032   2.096 -0.2512 -0.5597  0.0301
 3028SOL    HW119188   3.082   2.116   2.084  0.5493 -0.9523  0.7935
 3028SOL    HW219189   3.053   1.989   2.183  0.4935 -2.3971 -1.0470
 3029SOL     OW19190   2.148   1.860   2.747  0.5015  0.6086  0.3419
 3029SOL    HW119191   2.189   1.924   2.682  0.3212 -1.7337 -2.1605
 3029SOL    HW219192   2.061   1.897   2.780 -0.1511  1.1687 -1.9345
 3030SOL     OW19193   4.781   4.359   0.509  0.4141  0.1025  0.0343
 3030SOL    HW119194   4.687   4.382   0.481  0.4411  1.3755  0.9734
 3030SOL    HW219195   4.816   4.430   0.569  1.3065 -1.3233  1.2266
 3031SOL     OW19196   3.833   1.233   2.416 -0.1107 -0.2426  0.9604
 3031SOL    HW119197   3.752   1.175   2.430  1.0294 -1.7569  1.3901
 3031SOL    HW219198   3.837   1.303   2.487 -2.0811  1.0796 -0.1796
 3032SOL     OW19199   2.278   8.717   1.234  0.0002  0.7271  0.2107
 3032SOL    HW119200   2.313   8.735   1.143  4.2864  1.8386  1.9657
 3032SOL    HW219201   2.310   8.627   1.265 -0.8152  0.6610  0.8904
 3033SOL     OW19202   1.823   0.397   1.144 -0.3516  0.5521  0.1733
 3033SOL    HW119203   1.870   0.375   1.229  0.3317 -0.9472 -0.5786
 3033SOL    HW219204   1.858   0.484   1.109  1.6925 -0.3920 -0.2208
 3034SOL     OW19205   9.615   8.091   1.966  0.8923  0.1354  0.4197
 3034SOL    HW119206   9.627   8.190   1.957  0.1755  0.1380 -0.5591
 3034SOL    HW219207   9.648   8.061   2.056 -2.2089  1.7695  2.1465
 3035SOL     OW19208   2.125   1.235   2.269  0.5667 -0.1450 -0.3876
 3035SOL    HW119209   2.131   1.328   2.235 -0.0287  0.1113  0.1902
 3035SOL    HW219210   2.171   1.229   2.358  0.1093 -0.2622 -0.1550
 3036SOL     OW19211   2.569   1.453   2.482  0.5575  0.2241 -0.2230
 3036SOL    HW119212   2.537   1.386   2.414 -0.5782  2.0184 -1.5017
 3036SOL    HW219213   2.554   1.545   2.447  0.9186  1.1777  2.0621
 3037SOL     OW19214  10.032   9.773   2.681 -0.0850 -0.0542 -0.3821
 3037SOL    HW119215  10.100   9.803   2.615  0.9660  0.0429  0.7273
 3037SOL    HW219216  10.074   9.710   2.747 -0.8901  0.5184  0.7127
 3038SOL     OW19217   1.458   2.345   0.464  0.5926 -0.1330 -0.4286
 3038SOL    HW119218   1.485   2.386   0.551 -1.3962  1.2741 -0.4496
 3038SOL    HW219219   1.540   2.315   0.415  1.7725 -0.4475  1.6622
 3039SOL     OW19220   4.618   2.378   1.121 -0.5526 -0.6245  0.7426
 3039SOL    HW119221   4.584   2.301   1.069 -1.9926 -1.1278  2.3765
 3039SOL    HW219222   4.716   2.388   1.106 -0.4079 -2.5804  0.2954
 3040SOL     OW19223   9.491   2.489   0.556  0.1124  0.1004 -0.1320
 3040SOL    HW119224   9.450   2.495   0.647 -2.2824 -0.3058 -1.1559
 3040SOL    HW219225   9.586   2.459   0.564 -0.2964 -0.6479  2.1886
 3041SOL     OW19226  10.327   8.926   0.277  0.2002 -0.5058 -0.7740
 3041SOL    HW119227  10.228   8.912   0.269  0.1800  0.0294 -1.6047
 3041SOL    HW219228  10.375   8.864   0.215  0.4355 -1.3892  0.2840
 3042SOL     OW19229   2.464   1.695   2.384 -0.7879  0.1465 -0.1682
 3042SOL    HW119230   2.433   1.789   2.397 -1.7535 -0.0901 -0.6537
 3042SOL    HW219231   2.420   1.657   2.302 -2.2026 -1.4811  1.3194
 3043SOL     OW19232   1.068   0.426   1.785 -0.5111  0.3937 -0.3387
 3043SOL    HW119233   0.993   0.445   1.848 -0.1415  1.2840 -0.1625
 3043SOL    HW219234   1.148   0.480   1.811  0.4224 -1.0749 -0.1004
 3044SOL     OW19235   1.444   1.661   1.095  0.0322 -0.3855  0.4931
 3044SOL    HW119236   1.500   1.633   1.017 -0.9872  1.3172 -0.9032
 3044SOL    HW219237   1.467   1.756   1.119 -1.0528 -0.2431  0.9822
 3045SOL     OW19238   3.972   3.895   0.533  0.3988 -0.1864 -0.7859
 3045SOL    HW119239   3.933   3.841   0.459  0.6364 -0.9919 -0.3373
 3045SOL    HW219240   4.053   3.943   0.501 -0.9557  1.5175 -1.7317
 3046SOL     OW19241   2.296   2.418   0.404  0.2236 -0.3579  0.3071
 3046SOL    HW119242   2.322   2.430   0.309 -1.8216 -2.0990 -0.5220
 3046SOL    HW219243   2.323   2.327   0.435  2.5587  0.8459  2.0177
 3047SOL     OW19244   8.615   6.656   0.387 -0.2303  0.0545  0.1917
 3047SOL    HW119245   8.612   6.749   0.425 -0.5683  0.5867 -1.1285
 3047SOL    HW219246   8.532   6.606   0.415 -0.6908  0.5906 -0.2125
 3048SOL     OW19247   4.586   0.766   0.346 -0.0449  0.2423  0.0626
 3048SOL    HW119248   4.544   0.853   0.320  0.7292  1.1309  1.6631
 3048SOL    HW219249   4.601   0.710   0.265 -2.6081  0.6544 -0.7490
 3049SOL     OW19250   8.917   4.326   2.177  0.3405  0.1971 -0.5037
 3049SOL    HW119251   8.991   4.392   2.168  0.3218  0.0947 -1.4576
 3049SOL    HW219252   8.886   4.298   2.086 -0.2662 -0.4324 -0.1086
 3050SOL     OW19253  10.035   9.140   2.598  0.2334  0.3081  0.2732
 3050SOL    HW119254  10.047   9.041   2.602  0.2557  0.2959 -0.0447
 3050SOL    HW219255  10.032   9.170   2.502 -1.5418  0.4013  0.3395
 3051SOL     OW19256   2.292   7.019   2.774 -0.1950 -0.7422  0.2756
 3051SOL    HW119257   2.344   7.062   2.701 -0.6703  0.6187  0.7176
 3051SOL    HW219258   2.257   6.931   2.743  1.1142 -0.9966 -0.5172
 3052SOL     OW19259   9.523   2.370   2.822 -0.0615 -0.4876  0.2816
 3052SOL    HW119260   9.523   2.271   2.837 -2.2258 -0.5164  0.1948
 3052SOL    HW219261   9.485   2.416   2.902  1.7092  0.3556  0.6664
 3053SOL     OW19262   9.282   7.807   0.718 -0.1592 -0.5746  0.5231
 3053SOL    HW119263   9.302   7.891   0.767  0.1640 -1.0540  1.2186
 3053SOL    HW219264   9.205   7.822   0.656 -0.8132 -0.0583  1.4511
 3054SOL     OW19265  10.124   2.457   0.075  0.0352  0.2547  0.6785
 3054SOL    HW119266  10.218   2.432   0.096 -0.4820 -1.6828  0.7166
 3054SOL    HW219267  10.124   2.538   0.016  1.6645  1.3512  2.1411
 3055SOL     OW19268   2.680   2.078   2.731  0.3093 -0.5097  0.0444
 3055SOL    HW119269   2.590   2.090   2.772 -0.5912 -1.2509 -1.6740
 3055SOL    HW219270   2.750   2.086   2.801 -1.1773 -1.5397  1.6736
 3056SOL     OW19271   2.566   7.928   1.552 -0.1709 -0.1515  0.0505
 3056SOL    HW119272   2.576   8.027   1.541  0.6781 -0.5543 -3.1209
 3056SOL    HW219273   2.502   7.893   1.483  0.1587 -1.9329  0.6294
 3057SOL     OW19274   4.213   1.404   0.578  0.3615  0.2875 -0.8800
 3057SOL    HW119275   4.284   1.455   0.625  0.9151 -2.5611  1.4898
 3057SOL    HW219276   4.195   1.446   0.489  1.9843  3.5173  0.2520
 3058SOL     OW19277   9.256   7.317   0.328  0.4729 -0.7338 -0.3820
 3058SOL    HW119278   9.301   7.401   0.298 -1.7578  0.9578  0.9005
 3058SOL    HW219279   9.320   7.263   0.384  1.6989  0.3852 -0.6782
 3059SOL     OW19280   2.574   7.164   1.075  0.4878  0.2385  0.0288
 3059SOL    HW119281   2.506   7.236   1.065  0.3266 -0.0908 -1.3307
 3059SOL    HW219282   2.621   7.149   0.988  1.1162 -0.7089  0.5140
 3060SOL     OW19283   9.996   4.428   1.253  0.2485  0.1355 -0.3295
 3060SOL    HW119284   9.954   4.496   1.314  0.8680  0.5227 -0.3216
 3060SOL    HW219285  10.095   4.442   1.252  0.6677 -2.3623  1.6523
 3061SOL     OW19286   4.025   5.057   1.215 -0.1118 -0.3955  0.0313
 3061SOL    HW119287   4.080   5.136   1.239  0.4388 -0.9956  0.7679
 3061SOL    HW219288   4.055   5.021   1.126  0.6463 -0.6791  0.4001
 3062SOL     OW19289   3.551   9.702   0.720 -0.7873 -0.0077 -0.5241
 3062SOL    HW119290   3.497   9.686   0.802  1.4854 -1.5098  0.7386
 3062SOL    HW219291   3.630   9.759   0.743  0.4310 -1.2984 -1.4155
 3063SOL     OW19292   2.221   2.411   1.891 -0.2764 -0.0536 -0.1933
 3063SOL    HW119293   2.242   2.423   1.794  0.6005 -2.2393 -0.3097
 3063SOL    HW219294   2.123   2.396   1.903  0.0122 -2.7767 -1.0819
 3064SOL     OW19295   1.676   0.054   1.928  0.2934 -0.2609  0.2484
 3064SOL    HW119296   1.596   0.034   1.872 -0.3666 -0.0065  1.1069
 3064SOL    HW219297   1.758   0.048   1.871 -0.3997  0.3350 -0.8287
 3065SOL     OW19298   5.111   4.178   0.191 -0.2247  0.6319 -0.5407
 3065SOL    HW119299   5.186   4.210   0.250 -0.9832 -1.0874  1.4281
 3065SOL    HW219300   5.149   4.122   0.118  0.3855 -1.0887  1.0420
 3066SOL     OW19301   4.205   1.474   1.341 -0.7136 -0.4474 -0.4020
 3066SOL    HW119302   4.174   1.479   1.436  0.4448 -0.2343 -0.0336
 3066SOL    HW219303   4.270   1.398   1.331 -0.7132 -0.3718 -0.9944
 3067SOL     OW19304   1.045   8.704   2.244  0.4449  0.0637  0.1319
 3067SOL    HW119305   1.098   8.630   2.202  1.2257  1.0341 -0.6429
 3067SOL    HW219306   0.948   8.690   2.225  0.3383 -2.1014  2.1452
 3068SOL     OW19307   1.016   0.821   2.621  0.2447  0.4992 -0.1222
 3068SOL    HW119308   1.039   0.766   2.701 -1.4853 -0.2407 -0.1126
 3068SOL    HW219309   1.050   0.914   2.634  0.8389  0.1299  1.0403
 3069SOL     OW19310   3.608   4.263   0.354  0.2776  0.0649 -0.1294
 3069SOL    HW119311   3.707   4.253   0.359  0.3030  0.6761  0.8015
 3069SOL    HW219312   3.566   4.216   0.433 -0.2520 -1.1766 -1.1307
 3070SOL     OW19313   1.230   3.422   0.440 -0.2044 -0.5731  0.2768
 3070SOL    HW119314   1.252   3.516   0.466  1.0660 -1.5746  2.9666
 3070SOL    HW219315   1.137   3.401   0.469 -0.0712 -0.5275  0.7373
 3071SOL     OW19316   9.745   4.988   0.225  0.1159  0.2347 -0.3305
 3071SOL    HW119317   9.714   4.956   0.135  0.0598 -1.1511  0.1711
 3071SOL    HW219318   9.687   5.064   0.255 -0.6447 -0.1127 -0.9124
 3072SOL     OW19319   2.445   5.326   2.512  0.0194  0.4204  0.3912
 3072SOL    HW119320   2.457   5.403   2.575 -1.5148  1.2267 -0.2793
 3072SOL    HW219321   2.415   5.246   2.563 -0.4864  0.8589  0.7874
 3073SOL     OW19322  10.025   7.660   2.417  0.3759  0.3125 -0.0613
 3073SOL    HW119323  10.067   7.665   2.508  0.7552 -0.9910 -0.1572
 3073SOL    HW219324  10.071   7.725   2.356  0.2438  1.0593  0.6118
 3074SOL     OW19325   2.120   2.061   0.314  0.3421  0.2031  0.1448
 3074SOL    HW119326   2.092   2.054   0.409  1.4627 -1.2514  0.3703
 3074SOL    HW219327   2.198   2.001   0.296  2.8423  3.4757 -0.6790
 3075SOL     OW19328   1.092   1.107   1.356  0.1542 -0.3887 -0.1396
 3075SOL    HW119329   1.140   1.130   1.271 -1.7652 -2.7646 -1.9184
 3075SOL    HW219330   1.002   1.150   1.356 -0.4646 -1.6510 -0.0525
 3076SOL     OW19331  10.152   7.325   1.754  0.1147  0.4937  0.2742
 3076SOL    HW119332  10.074   7.345   1.814  1.0951  2.2281  1.0121
 3076SOL    HW219333  10.224   7.393   1.770  0.7162  0.4950 -2.3118
 3077SOL     OW19334   2.358   2.092   2.764  0.6418  0.0990  0.3910
 3077SOL    HW119335   2.407   2.105   2.850  0.9221  0.2910  0.2039
 3077SOL    HW219336   2.259   2.100   2.780  0.7896  2.7315  0.2613
 3078SOL     OW19337   2.657   7.472   1.621  0.2569 -0.1666  0.2914
 3078SOL    HW119338   2.684   7.376   1.617  1.3384  0.1981 -2.7780
 3078SOL    HW219339   2.638   7.504   1.528 -1.3076  2.2647  1.4137
 3079SOL     OW19340   2.321   4.728   1.842 -0.2941 -0.6298  0.5136
 3079SOL    HW119341   2.320   4.632   1.815  0.1653 -0.7328  0.8751
 3079SOL    HW219342   2.366   4.738   1.931  0.5247  0.0423  0.0267
 3080SOL     OW19343   3.638   8.280   0.883  0.4914 -0.2797  0.2096
 3080SOL    HW119344   3.736   8.282   0.864  0.5373 -0.0915  0.4673
 3080SOL    HW219345   3.608   8.370   0.913  0.4661 -0.6410  1.2824
 3081SOL     OW19346   4.101   8.737   2.409  0.0814  0.7936 -0.9905
 3081SOL    HW119347   4.017   8.722   2.460  0.4764  2.3062  0.1494
 3081SOL    HW219348   4.084   8.725   2.311 -1.7227  2.2429 -0.8627
 3082SOL     OW19349   2.921   5.902   2.116 -0.4574 -0.1935 -0.0341
 3082SOL    HW119350   2.877   5.975   2.064 -0.7063 -0.9017 -0.8390
 3082SOL    HW219351   2.858   5.868   2.186 -0.3912  0.2625  0.2494
 3083SOL     OW19352   4.444   2.151   1.012 -0.0634 -0.4852  0.6708
 3083SOL    HW119353   4.413   2.155   0.917 -2.1024  1.3510  1.3640
 3083SOL    HW219354   4.371   2.114   1.070  0.1840  0.8509  1.8721
 3084SOL     OW19355   9.737   8.003   1.749  0.0301  0.3386 -0.0868
 3084SOL    HW119356   9.833   8.031   1.744 -0.1595  1.1649  0.7628
 3084SOL    HW219357   9.698   8.033   1.835 -1.5619  1.7858 -1.2802
 3085SOL     OW19358  10.280   5.188   2.163  0.2693  0.4871 -0.0324
 3085SOL    HW119359  10.349   5.218   2.099  0.2093 -0.8329 -0.7426
 3085SOL    HW219360  10.275   5.088   2.162 -0.8631  0.5212  0.8266
 3086SOL     OW19361   4.875   3.289   2.326  0.3442  0.0681 -0.3392
 3086SOL    HW119362   4.822   3.349   2.385  2.3940  1.4150  0.1759
 3086SOL    HW219363   4.864   3.318   2.231  0.3732  0.5047 -0.2092
 3087SOL     OW19364   0.810   2.015   1.379  0.1843  0.3455 -0.2987
 3087SOL    HW119365   0.872   2.079   1.334  2.2638 -0.6979  1.0175
 3087SOL    HW219366   0.772   1.952   1.311  1.8585 -0.0651 -0.8696
 3088SOL     OW19367   4.189   2.760   2.369  0.5247 -0.8164 -0.2441
 3088SOL    HW119368   4.180   2.763   2.269 -0.4136  1.6587 -0.1239
 3088SOL    HW219369   4.102   2.787   2.410  1.5858  0.4735  1.2132
 3089SOL     OW19370   8.877   6.301   0.466 -0.5635 -0.2359 -0.3472
 3089SOL    HW119371   8.972   6.327   0.484 -0.3356 -0.1686 -1.6439
 3089SOL    HW219372   8.875   6.216   0.413 -1.2334 -0.2170 -0.3605
 3090SOL     OW19373   9.099   4.030   0.174  0.6656  0.3265 -0.2982
 3090SOL    HW119374   9.066   4.018   0.080 -1.8128  0.8479  0.4573
 3090SOL    HW219375   9.069   3.953   0.229  1.3347  0.4784  0.2846
 3091SOL     OW19376  10.054   5.692   2.586 -0.3303 -0.0424 -0.1966
 3091SOL    HW119377   9.974   5.678   2.644  0.7898  1.9124  1.9034
 3091SOL    HW219378  10.066   5.612   2.527 -1.8036 -1.9088  1.9134
 3092SOL     OW19379   4.012   9.993   0.890  0.0068  0.1940  0.2420
 3092SOL    HW119380   4.045  10.037   0.973 -0.9200  0.3203  0.5544
 3092SOL    HW219381   4.084   9.935   0.851  0.8629  1.1328  0.4275
 3093SOL     OW19382   3.510   0.225   0.222 -0.5428 -0.5923  0.2290
 3093SOL    HW119383   3.466   0.259   0.306 -1.6273  0.2634 -0.6675
 3093SOL    HW219384   3.593   0.278   0.205 -1.2192  0.3839 -0.1331
 3094SOL     OW19385   9.257   8.773   0.574 -0.1363  0.2988  0.1358
 3094SOL    HW119386   9.316   8.803   0.649  1.1244 -1.0708 -0.2902
 3094SOL    HW219387   9.185   8.713   0.611  1.4950 -1.7540  0.0401
 3095SOL     OW19388   9.136   7.900   1.740 -0.5787 -0.1877 -0.0083
 3095SOL    HW119389   9.193   7.835   1.789 -2.2007 -2.0121 -0.4695
 3095SOL    HW219390   9.141   7.989   1.785  0.3832 -1.0469  1.6297
 3096SOL     OW19391   3.666   2.740   0.986 -0.1983  0.1479 -0.0449
 3096SOL    HW119392   3.760   2.738   0.950  0.3283 -0.0406  1.3248
 3096SOL    HW219393   3.656   2.818   1.048 -1.4246  1.1164 -1.3971
 3097SOL     OW19394   4.418   1.315   0.176  0.2473  0.1458  0.6449
 3097SOL    HW119395   4.345   1.247   0.167  0.7807 -0.2705 -0.7379
 3097SOL    HW219396   4.497   1.274   0.220 -0.2780  0.5563  2.0085
 3098SOL     OW19397   9.293   5.151   0.532  0.0156  0.1474 -0.0907
 3098SOL    HW119398   9.262   5.135   0.625 -0.2345  1.5651  0.0853
 3098SOL    HW219399   9.386   5.190   0.534 -0.4302  1.2419 -0.3771
 3099SOL     OW19400   3.117   5.488   0.692 -0.0878  0.2768  0.1509
 3099SOL    HW119401   3.213   5.467   0.669  0.3926  0.7389  1.6647
 3099SOL    HW219402   3.094   5.579   0.658 -0.7103 -0.7141 -2.2123
 3100SOL     OW19403   9.768   8.868   2.632  0.1982 -0.0478  0.3155
 3100SOL    HW119404   9.863   8.843   2.613  0.4867 -0.0624  1.6905
 3100SOL    HW219405   9.764   8.922   2.716 -1.0306 -0.2370  0.3906
 3101SOL     OW19406   2.183   6.965   1.472  0.5649 -0.1181 -0.1484
 3101SOL    HW119407   2.194   6.964   1.373  0.2234  0.3142 -0.1873
 3101SOL    HW219408   2.215   7.052   1.509 -1.0419  0.4471 -0.0695
 3102SOL     OW19409   3.796   5.432   2.061  0.2416 -0.1168 -0.1083
 3102SOL    HW119410   3.870   5.381   2.103  0.4354  0.0569 -0.2325
 3102SOL    HW219411   3.773   5.511   2.117 -0.3700 -0.5914  0.3161
 3103SOL     OW19412   4.122   8.998   0.385  0.3163 -0.0474  0.3573
 3103SOL    HW119413   4.079   9.039   0.305  0.4741  0.2709  0.4343
 3103SOL    HW219414   4.098   9.052   0.466 -3.1602 -2.6136  1.1692
 3104SOL     OW19415   3.572   9.493   2.082  0.2097 -0.2750  0.5215
 3104SOL    HW119416   3.567   9.480   1.983 -0.2975 -0.1514  0.5320
 3104SOL    HW219417   3.646   9.556   2.104  1.4934 -1.6929  0.3461
 3105SOL     OW19418   2.894   0.041   0.923  0.1246 -0.0791  0.3284
 3105SOL    HW119419   2.967   0.046   0.854  0.2689  0.3642  0.5129
 3105SOL    HW219420   2.819  -0.015   0.888  0.5490 -0.5293  0.1326
 3106SOL     OW19421  10.136   5.136   2.575 -0.1011 -0.2275  0.4810
 3106SOL    HW119422  10.070   5.190   2.627  0.4583  0.5691  0.3715
 3106SOL    HW219423  10.224   5.182   2.575 -0.2732  0.1606 -1.7920
 3107SOL     OW19424   2.406   8.628   2.517 -0.3878 -0.7308  0.4775
 3107SOL    HW119425   2.403   8.726   2.538  0.4785 -0.3250 -1.2280
 3107SOL    HW219426   2.325   8.583   2.554 -2.8379  1.3203 -2.2612
 3108SOL     OW19427   1.997   9.855   0.083 -0.4444  0.1983 -0.4670
 3108SOL    HW119428   1.912   9.882   0.127 -0.6246 -0.9765 -0.0815
 3108SOL    HW219429   1.983   9.769   0.033  0.5494 -0.0759 -0.2835
 3109SOL     OW19430   4.128   4.566   1.788 -0.2932  0.4385  0.1136
 3109SOL    HW119431   4.067   4.634   1.749 -1.1060  0.4639  1.4095
 3109SOL    HW219432   4.150   4.591   1.883 -0.4884 -1.0093  0.5537
 3110SOL     OW19433   9.609   4.340   0.489 -0.7758 -0.1560  0.1986
 3110SOL    HW119434   9.682   4.405   0.509 -1.2434 -0.0121  1.5054
 3110SOL    HW219435   9.567   4.363   0.401 -1.0896  1.4635  0.7544
 3111SOL     OW19436  10.002   7.395   2.369  0.5484 -0.3567  0.6432
 3111SOL    HW119437  10.004   7.492   2.396  2.2992 -0.0974 -0.3473
 3111SOL    HW219438   9.996   7.338   2.451 -0.8888  0.6014  1.2186
 3112SOL     OW19439   2.705   9.697   0.164  0.2122  0.1030  0.1108
 3112SOL    HW119440   2.606   9.683   0.159  0.4153 -1.0289 -1.6801
 3112SOL    HW219441   2.725   9.789   0.196 -1.4036  0.0374  1.3683
 3113SOL     OW19442   2.936   3.418   0.465 -0.1593 -0.4698  0.1270
 3113SOL    HW119443   3.003   3.483   0.500 -0.6644 -0.7101  1.5910
 3113SOL    HW219444   2.859   3.467   0.424  0.1829 -0.1732 -0.1572
 3114SOL     OW19445   2.499   2.424   1.208  1.0317 -0.0906  0.6630
 3114SOL    HW119446   2.586   2.462   1.179  0.1551  0.6612 -1.0621
 3114SOL    HW219447   2.462   2.477   1.285  1.1589  0.8122  0.1065
 3115SOL     OW19448   3.879   0.051   2.752  0.2954  0.3272  0.2287
 3115SOL    HW119449   3.947   0.056   2.825  2.3116 -1.4611 -1.4592
 3115SOL    HW219450   3.886   0.133   2.695  1.4929 -0.1062 -0.2792
 3116SOL     OW19451   3.425   3.211   0.655 -0.4766 -0.2169 -0.3852
 3116SOL    HW119452   3.393   3.261   0.575  2.6793  1.5349 -0.6069
 3116SOL    HW219453   3.441   3.115   0.630 -1.8351 -0.2497 -1.1938
 3117SOL     OW19454   4.259   4.909   0.427 -0.0157 -0.5759  0.4028
 3117SOL    HW119455   4.229   4.815   0.411  1.2109 -0.7114 -1.1616
 3117SOL    HW219456   4.307   4.913   0.515  0.3489 -1.5174  0.2559
 3118SOL     OW19457   9.165   6.227   1.167 -0.5287 -0.0850  0.0758
 3118SOL    HW119458   9.204   6.180   1.246  0.0747 -0.6189 -0.5357
 3118SOL    HW219459   9.067   6.208   1.162 -0.3256 -1.1123 -0.0523
 3119SOL     OW19460   1.024   6.362   0.938  0.1433 -0.1436 -0.0499
 3119SOL    HW119461   0.968   6.429   0.987 -0.5661  0.0485 -1.1072
 3119SOL    HW219462   1.057   6.293   1.002  0.0102  0.6314  0.8663
 3120SOL     OW19463   9.508   9.628   2.467  0.2120 -0.6104  0.1475
 3120SOL    HW119464   9.531   9.714   2.421  0.5338 -2.1273 -2.5997
 3120SOL    HW219465   9.411   9.629   2.492 -0.4223 -0.4747 -2.2170
 3121SOL     OW19466   0.519   5.804   2.767  0.5561  0.1702 -0.0161
 3121SOL    HW119467   0.441   5.759   2.813  0.6703  1.1295  1.1338
 3121SOL    HW219468   0.489   5.841   2.679  0.2135 -1.2697 -0.5210
 3122SOL     OW19469   1.630   6.022   1.924  0.0850 -0.1107  0.4268
 3122SOL    HW119470   1.673   6.067   1.845 -1.7607 -0.6641 -0.9143
 3122SOL    HW219471   1.539   6.060   1.939 -0.2678 -1.2275  1.2071
 3123SOL     OW19472   3.803   9.235   2.687 -0.1223 -0.3127  1.0402
 3123SOL    HW119473   3.835   9.323   2.724 -0.9167 -0.3552  1.8245
 3123SOL    HW219474   3.752   9.251   2.603  2.0756 -0.2510 -0.3415
 3124SOL     OW19475   1.020   4.844   0.250 -0.7862  0.7272  0.0945
 3124SOL    HW119476   1.068   4.923   0.210  0.7454 -0.6757 -0.8971
 3124SOL    HW219477   1.051   4.832   0.345 -1.5556  1.7413  0.4789
 3125SOL     OW19478   9.827   6.770   0.234 -0.1444  0.4656  0.4098
 3125SOL    HW119479   9.775   6.837   0.181 -2.5977 -0.0595  2.0603
 3125SOL    HW219480   9.801   6.678   0.205 -1.7978  0.1637  2.7264
 3126SOL     OW19481   0.374   4.867   0.265 -0.8476 -0.1674 -0.6221
 3126SOL    HW119482   0.318   4.900   0.342 -0.0867  0.5882 -0.3857
 3126SOL    HW219483   0.322   4.799   0.213 -1.3161 -0.7959  0.6418
 3127SOL     OW19484   9.965   9.214   1.534 -0.7200 -0.5613  0.4449
 3127SOL    HW119485   9.992   9.159   1.455 -0.1712 -1.1144  1.0122
 3127SOL    HW219486  10.010   9.178   1.616 -1.0175  0.2190  0.9505
 3128SOL     OW19487  10.318   9.922   1.942  0.6054 -0.7708  0.3225
 3128SOL    HW119488  10.405   9.954   1.978 -0.0799  0.1126  1.1994
 3128SOL    HW219489  10.277   9.994   1.886  0.2609 -1.0490  0.2155
 3129SOL     OW19490   2.850   1.119   0.792 -0.2671 -0.3176 -0.4747
 3129SOL    HW119491   2.868   1.022   0.773  0.1890 -0.4377  0.5121
 3129SOL    HW219492   2.935   1.170   0.789 -0.0419 -0.4774  1.8943
 3130SOL     OW19493   9.743   3.694   0.155 -0.0676 -0.2039  0.0539
 3130SOL    HW119494   9.773   3.775   0.205  1.1674  0.3101 -1.4751
 3130SOL    HW219495   9.799   3.615   0.182  0.2857 -0.0322 -0.1774
 3131SOL     OW19496  10.298   7.523   0.441 -0.3476  0.0713  0.0869
 3131SOL    HW119497  10.371   7.460   0.414 -1.4486 -0.8062 -0.9321
 3131SOL    HW219498  10.275   7.581   0.363  0.5510  1.6494  0.9797
 3132SOL     OW19499   1.631   8.929   1.986  0.0686 -0.1192  0.0561
 3132SOL    HW119500   1.600   8.920   2.080 -0.2361 -0.1186 -0.0441
 3132SOL    HW219501   1.722   8.972   1.984 -0.4358  0.9690  0.2858
 3133SOL     OW19502   1.234   5.569   2.610  0.4743  0.1630 -0.4697
 3133SOL    HW119503   1.201   5.577   2.516 -0.7689 -0.2155 -0.0705
 3133SOL    HW219504   1.170   5.615   2.672  0.3579 -1.1312  0.3787
 3134SOL     OW19505   9.008   6.276   2.347 -0.3524  0.2171 -0.1840
 3134SOL    HW119506   9.067   6.195   2.348 -0.9936 -0.2704 -1.6111
 3134SOL    HW219507   9.041   6.340   2.278  0.7264  1.6236  1.5930
 3135SOL     OW19508   1.316   3.534   2.402  0.3243  0.4257  0.5541
 3135SOL    HW119509   1.269   3.602   2.346  1.7128  2.5833  1.9567
 3135SOL    HW219510   1.248   3.475   2.446 -0.9340  1.4452  0.0144
 3136SOL     OW19511   3.158   3.239   1.004 -0.0833  0.5611 -0.0829
 3136SOL    HW119512   3.078   3.272   0.955 -0.2854 -0.5376 -0.5069
 3136SOL    HW219513   3.241   3.262   0.953 -0.0938  1.9442  0.4941
 3137SOL     OW19514   1.992   5.258   2.232 -0.4716 -0.4103  0.2441
 3137SOL    HW119515   1.980   5.241   2.330 -1.7990 -2.2092 -0.2235
 3137SOL    HW219516   2.089   5.276   2.214 -0.2315  0.0696  1.9000
 3138SOL     OW19517   2.382   7.367   1.113  0.3978 -0.3882 -0.8903
 3138SOL    HW119518   2.305   7.418   1.073  0.1422 -0.2720 -0.2722
 3138SOL    HW219519   2.357   7.338   1.206  1.1355 -0.2588 -0.6444
 3139SOL     OW19520   3.511   7.659   1.335  0.0782  0.5656  0.1337
 3139SOL    HW119521   3.520   7.757   1.349  1.5273  0.4506  0.1083
 3139SOL    HW219522   3.574   7.610   1.396  1.2325 -0.2189 -1.6134
 3140SOL     OW19523   4.375   8.704   1.570  0.2903 -0.0650  0.0921
 3140SOL    HW119524   4.450   8.708   1.636  0.6048 -0.6633 -0.2229
 3140SOL    HW219525   4.290   8.733   1.614  0.8893  1.6147  0.1756
 3141SOL     OW19526   1.400   1.954   0.140 -0.3986 -0.8948 -0.6669
 3141SOL    HW119527   1.318   1.983   0.190 -0.1862 -1.0816 -0.2081
 3141SOL    HW219528   1.374   1.894   0.065 -0.6700 -1.0809 -0.4238
 3142SOL     OW19529   1.700   8.350   0.501 -0.0888  0.0375  0.4041
 3142SOL    HW119530   1.719   8.300   0.417  1.0824 -1.2424  1.4051
 3142SOL    HW219531   1.602   8.361   0.512 -0.3109 -1.1410 -0.3591
 3143SOL     OW19532   3.876   8.712   1.596  0.2870 -0.6672 -0.0003
 3143SOL    HW119533   3.857   8.615   1.580 -2.2127 -0.1106 -0.6556
 3143SOL    HW219534   3.799   8.753   1.646  0.4715  1.3605 -1.2907
 3144SOL     OW19535   0.894   4.275   0.246 -0.6422  0.1363 -0.5200
 3144SOL    HW119536   0.966   4.241   0.185  1.3036  0.6424  1.3961
 3144SOL    HW219537   0.909   4.372   0.264 -0.8369 -0.1348  1.1917
 3145SOL     OW19538   0.671   9.213   1.914 -0.0029  0.2373 -0.0060
 3145SOL    HW119539   0.713   9.243   2.000  0.5098  0.4914 -0.3406
 3145SOL    HW219540   0.688   9.115   1.902 -0.2410  0.1608  0.2777
 3146SOL     OW19541   0.407   4.702   2.069  0.3425  0.2307  0.6849
 3146SOL    HW119542   0.484   4.761   2.094  0.2994  0.0895  1.1684
 3146SOL    HW219543   0.415   4.615   2.119  1.7783 -1.1786 -1.8686
 3147SOL     OW19544   1.787   6.582   1.853  0.5610 -0.0592 -0.4039
 3147SOL    HW119545   1.809   6.487   1.875 -1.0939 -0.2685  0.4785
 3147SOL    HW219546   1.832   6.643   1.918  0.0343 -0.3695  0.2577
 3148SOL     OW19547   2.388   8.240   1.461  0.0400 -0.3315 -0.3086
 3148SOL    HW119548   2.475   8.237   1.509  0.2777  0.9256 -0.6552
 3148SOL    HW219549   2.323   8.178   1.506  0.1125  1.1330  1.9054
 3149SOL     OW19550   9.098   8.983   1.893 -0.2494  0.5811 -0.0609
 3149SOL    HW119551   9.175   9.047   1.893 -2.9186  3.9227  0.8736
 3149SOL    HW219552   9.023   9.021   1.839 -2.8142 -0.6219  2.5451
 3150SOL     OW19553   9.761   5.286   1.351  0.5561 -0.0449 -0.1618
 3150SOL    HW119554   9.837   5.241   1.305 -0.4592 -3.6947  1.5256
 3150SOL    HW219555   9.771   5.275   1.450 -0.9767  1.4287  0.1792
 3151SOL     OW19556   1.074   5.429   2.165  0.0323  0.3683 -0.1002
 3151SOL    HW119557   1.055   5.343   2.212 -1.0899  0.8641  0.3923
 3151SOL    HW219558   1.001   5.447   2.098  0.4128  0.7881 -0.4037
 3152SOL     OW19559   3.525   4.355   2.221  0.0980  0.0951 -0.1524
 3152SOL    HW119560   3.450   4.293   2.198  0.6121 -1.0449  1.1454
 3152SOL    HW219561   3.610   4.322   2.182  0.2656  0.3377 -0.0001
 3153SOL     OW19562   4.308   2.583   1.408 -0.4250  0.0846  0.2801
 3153SOL    HW119563   4.213   2.554   1.397  0.0717 -1.0766 -1.1456
 3153SOL    HW219564   4.369   2.513   1.369  0.9313  1.8974 -0.9307
 3154SOL     OW19565   1.458   6.285   0.088  0.2831  0.6717 -0.2758
 3154SOL    HW119566   1.512   6.262   0.169 -1.2646 -1.1393  0.3006
 3154SOL    HW219567   1.439   6.202   0.036  0.5880  1.7077 -2.0910
 3155SOL     OW19568   9.203   5.081   0.793 -0.8050 -0.2436  0.0447
 3155SOL    HW119569   9.224   5.158   0.854 -3.0909 -0.4778  1.1669
 3155SOL    HW219570   9.161   5.007   0.846  0.3563 -1.8479 -1.2307
 3156SOL     OW19571  10.070   7.366   0.886 -0.0222 -0.4409  0.5020
 3156SOL    HW119572  10.075   7.420   0.803 -0.6818 -0.4881  0.4272
 3156SOL    HW219573  10.131   7.287   0.879 -1.6864 -1.6421 -0.8341
 3157SOL     OW19574   9.446   6.504   1.201  0.5186  0.2224 -0.0411
 3157SOL    HW119575   9.425   6.411   1.233  0.2806 -0.5007 -2.2277
 3157SOL    HW219576   9.388   6.569   1.249 -0.5709 -0.9262  0.2259
 3158SOL     OW19577  10.222   2.894   2.732  0.1707 -0.9460  0.1481
 3158SOL    HW119578  10.163   2.913   2.811 -0.3462 -1.9189 -0.0022
 3158SOL    HW219579  10.181   2.934   2.650  0.1810 -0.8376  0.1953
 3159SOL     OW19580   2.564   7.533   1.385  0.6031  0.2682 -0.0924
 3159SOL    HW119581   2.582   7.630   1.402 -1.6041  0.1634  3.4594
 3159SOL    HW219582   2.465   7.518   1.380  0.9315 -1.7377 -1.1893
 3160SOL     OW19583   0.656   7.765   0.208  0.1970 -0.3965 -0.0644
 3160SOL    HW119584   0.662   7.671   0.240 -2.3091 -0.7927 -0.6870
 3160SOL    HW219585   0.634   7.826   0.285  0.6711 -0.4681  0.1287
 3161SOL     OW19586  10.138   2.136   1.860  0.2030 -0.1805 -0.1776
 3161SOL    HW119587  10.205   2.135   1.934 -0.5102 -1.3428  0.4571
 3161SOL    HW219588  10.123   2.043   1.827 -1.4695 -0.0035  0.0165
 3162SOL     OW19589   9.738   1.048   1.892  0.7931  0.0352  0.0056
 3162SOL    HW119590   9.672   0.982   1.857  1.0903 -2.2490  3.4931
 3162SOL    HW219591   9.718   1.138   1.854 -2.1174 -1.2585 -1.7453
 3163SOL     OW19592   0.826   7.953   2.201 -0.3820 -0.1488 -0.1276
 3163SOL    HW119593   0.905   7.894   2.216  0.2717  0.9605  0.8387
 3163SOL    HW219594   0.856   8.046   2.183 -1.4729  0.3652  0.6542
 3164SOL     OW19595   0.703   2.676   1.904 -0.5187  0.4258 -0.1864
 3164SOL    HW119596   0.700   2.776   1.910 -0.3389  0.3943  0.4969
 3164SOL    HW219597   0.762   2.649   1.828 -2.0045  0.8528 -1.5087
 3165SOL     OW19598   0.878   7.137   1.020  0.1920  0.0986  0.1559
 3165SOL    HW119599   0.790   7.182   1.010  0.4486  0.3400 -1.0860
 3165SOL    HW219600   0.875   7.048   0.974  0.6674  0.2098 -0.0962
 3166SOL     OW19601   3.140   4.973   2.239 -0.4103 -0.1221  0.0182
 3166SOL    HW119602   3.073   4.980   2.312 -3.2658 -1.2644 -2.3693
 3166SOL    HW219603   3.192   4.888   2.249 -0.3579  0.0364  1.0611
 3167SOL     OW19604   1.344   7.391   0.536 -0.6231 -0.2338 -0.2972
 3167SOL    HW119605   1.444   7.386   0.536 -0.6630 -1.3852 -0.7571
 3167SOL    HW219606   1.314   7.464   0.475 -0.0115  2.0711  2.0943
 3168SOL     OW19607   9.998   2.994   0.533  0.1991 -0.4946  0.0650
 3168SOL    HW119608  10.088   2.956   0.512  0.8094  0.5499  0.7219
 3168SOL    HW219609   9.997   3.029   0.627 -0.6989  0.0696 -0.1418
 3169SOL     OW19610   4.549   4.272   0.209  0.3131 -0.4510 -0.2771
 3169SOL    HW119611   4.481   4.214   0.165  0.7234 -0.5954 -0.7319
 3169SOL    HW219612   4.641   4.238   0.188  0.5412  0.0221 -0.0695
 3170SOL     OW19613   2.604   6.369   0.614 -0.4980  0.5330 -0.2015
 3170SOL    HW119614   2.699   6.392   0.631  0.0874 -0.9339 -1.3932
 3170SOL    HW219615   2.580   6.391   0.520 -0.7316 -1.0521 -0.5217
 3171SOL     OW19616   9.530   6.054   0.261 -0.4790  0.0432 -0.0491
 3171SOL    HW119617   9.441   6.010   0.273 -0.2774 -0.7920 -1.5425
 3171SOL    HW219618   9.519   6.137   0.206 -0.3772  0.1045  0.0224
 3172SOL     OW19619   0.403   4.886   0.874  0.3192  0.7572 -0.1289
 3172SOL    HW119620   0.364   4.805   0.830  0.6300 -0.7016  2.1730
 3172SOL    HW219621   0.502   4.877   0.878  0.3857  1.4462 -0.2215
 3173SOL     OW19622   1.412   9.939   0.598  0.2327 -0.1875  0.2453
 3173SOL    HW119623   1.508   9.966   0.609 -0.0848  0.9793  0.2238
 3173SOL    HW219624   1.388   9.944   0.501  0.0867 -0.2744  0.2778
 3174SOL     OW19625   8.573   3.238   0.654 -0.2040 -0.6787  0.1149
 3174SOL    HW119626   8.624   3.221   0.570  0.4274  2.9974 -0.3182
 3174SOL    HW219627   8.636   3.260   0.728 -0.9682  0.7106  0.3758
 3175SOL     OW19628   2.037   6.243   1.531 -0.1152  0.0650 -0.1280
 3175SOL    HW119629   1.985   6.181   1.473 -0.8192  0.5829 -0.0527
 3175SOL    HW219630   2.053   6.202   1.620 -0.7222  0.0598 -0.0223
 3176SOL     OW19631   9.129   6.474   2.144 -0.2276 -0.2108  0.3851
 3176SOL    HW119632   9.141   6.486   2.046  0.2511  0.7009  0.5460
 3176SOL    HW219633   9.193   6.405   2.178  3.8797  3.6210  1.0110
 3177SOL     OW19634   4.123   0.113   1.487  0.0669  0.0800  0.3495
 3177SOL    HW119635   4.086   0.030   1.446  1.5147  0.0812 -0.9825
 3177SOL    HW219636   4.211   0.093   1.531  0.5624  0.9566 -0.2256
 3178SOL     OW19637   3.440   5.066   2.271 -0.4183 -0.1594 -0.3255
 3178SOL    HW119638   3.346   5.060   2.238 -0.6740 -0.9322  0.5248
 3178SOL    HW219639   3.443   5.042   2.368  0.6208  0.0674 -0.2993
 3179SOL     OW19640   2.681   7.750   2.660 -0.4198 -0.1869  0.2607
 3179SOL    HW119641   2.599   7.707   2.625 -1.0296  0.2194  1.1661
 3179SOL    HW219642   2.759   7.725   2.603 -1.0522 -1.1147 -0.2077
 3180SOL     OW19643   3.244   9.533   0.445 -0.1922 -0.0224 -0.0084
 3180SOL    HW119644   3.281   9.625   0.455 -0.8199  0.0962  1.3199
 3180SOL    HW219645   3.312   9.466   0.477 -0.4622  0.1047  0.8657
 3181SOL     OW19646   9.014   2.668   2.610 -0.0299 -0.0000 -0.0565
 3181SOL    HW119647   8.946   2.733   2.574  1.2364  0.8446 -0.9736
 3181SOL    HW219648   9.022   2.590   2.548 -1.5501 -1.0622  1.0462
 3182SOL     OW19649   1.771   8.225   0.750 -0.0979 -0.2931 -0.5287
 3182SOL    HW119650   1.819   8.139   0.765  0.1896 -0.2252 -1.0455
 3182SOL    HW219651   1.746   8.233   0.654 -0.6524 -0.0697 -0.3711
 3183SOL     OW19652   1.188   9.523   2.092 -0.1643  0.0092  0.5334
 3183SOL    HW119653   1.118   9.481   2.034  0.3823 -0.5916  0.2991
 3183SOL    HW219654   1.147   9.555   2.177 -0.6827 -0.4927  0.4706
 3184SOL     OW19655   2.795   6.759   0.561 -0.0442 -0.3952  0.4347
 3184SOL    HW119656   2.839   6.838   0.604  2.6065 -0.5151 -1.8863
 3184SOL    HW219657   2.834   6.675   0.597  1.1905 -0.5178 -1.1487
 3185SOL     OW19658   2.741   0.759   2.496 -0.1178  0.1740  0.4298
 3185SOL    HW119659   2.646   0.781   2.473  0.0958 -1.0277 -1.6720
 3185SOL    HW219660   2.802   0.822   2.448  0.1715  1.4654  2.3969
 3186SOL     OW19661   3.046   2.689   0.263  0.2579  0.2219  0.3789
 3186SOL    HW119662   3.131   2.737   0.239  0.5664 -0.2870  0.4405
 3186SOL    HW219663   3.011   2.724   0.350  0.5657  0.2259  0.5007
 3187SOL     OW19664   1.636   2.941   0.381 -0.6552 -0.0680  0.0186
 3187SOL    HW119665   1.656   3.039   0.383 -1.2230  0.0150  2.2127
 3187SOL    HW219666   1.537   2.927   0.376 -0.5677 -0.5429 -0.4885
 3188SOL     OW19667   3.051   1.431   2.679 -0.3886 -0.5257 -0.1466
 3188SOL    HW119668   2.989   1.442   2.601 -1.5433 -0.7782  0.7080
 3188SOL    HW219669   3.025   1.496   2.750 -0.0392 -1.0383  0.4497
 3189SOL     OW19670   0.519   5.319   2.835  0.3754 -0.3405 -0.0074
 3189SOL    HW119671   0.470   5.248   2.885 -0.2325  1.4492  1.9528
 3189SOL    HW219672   0.601   5.345   2.886  0.1555  0.9626 -0.3075
 3190SOL     OW19673   4.295   0.437   1.077 -0.3235  0.0106  0.5654
 3190SOL    HW119674   4.363   0.511   1.085  0.2950 -0.2375 -1.8582
 3190SOL    HW219675   4.262   0.412   1.167  0.4172  2.3862  1.5274
 3191SOL     OW19676   3.092   4.670   2.499  0.6723  0.0850 -0.1881
 3191SOL    HW119677   3.176   4.680   2.446  1.0258 -1.1103  0.1343
 3191SOL    HW219678   3.110   4.690   2.596  0.3182  0.9774 -0.3000
 3192SOL     OW19679   2.166   2.525   1.657  0.5534 -0.4858 -0.0852
 3192SOL    HW119680   2.210   2.612   1.637 -0.0760 -0.2782 -0.5769
 3192SOL    HW219681   2.075   2.522   1.614  0.0179 -0.8437  1.0421
 3193SOL     OW19682   2.732   9.560   0.515 -0.3034  0.5522 -0.1461
 3193SOL    HW119683   2.633   9.557   0.530 -0.5657 -0.3819 -1.9397
 3193SOL    HW219684   2.751   9.561   0.417  1.4812  0.1609  0.1725
 3194SOL     OW19685   2.367   4.547   1.496  0.9652 -0.0109  0.1246
 3194SOL    HW119686   2.357   4.500   1.408  2.8179  0.8684 -0.5903
 3194SOL    HW219687   2.304   4.624   1.501  0.0089 -0.7796  0.0784
 3195SOL     OW19688   4.301   0.143   2.288  0.1508 -0.5511 -0.6295
 3195SOL    HW119689   4.379   0.201   2.312  0.1745 -0.5505 -0.7056
 3195SOL    HW219690   4.328   0.047   2.295  0.3084 -0.5478 -1.1411
 3196SOL     OW19691  10.310   1.543   1.680 -0.0113  0.0163 -0.5995
 3196SOL    HW119692  10.343   1.500   1.764  0.5710 -0.4541 -1.0638
 3196SOL    HW219693  10.353   1.499   1.601 -0.9670  0.0957 -1.1669
 3197SOL     OW19694   1.874   6.194   2.113  0.3958 -0.6101  0.5432
 3197SOL    HW119695   1.779   6.200   2.145  0.9933 -1.2637  2.5541
 3197SOL    HW219696   1.932   6.163   2.189  2.0143 -1.5252 -1.0360
 3198SOL     OW19697   9.941   9.818   0.343 -0.0390 -0.5686  0.2703
 3198SOL    HW119698   9.852   9.807   0.298 -0.5041  0.9488  0.7989
 3198SOL    HW219699   9.996   9.884   0.291  0.7951 -1.5013 -0.0553
 3199SOL     OW19700   1.189   8.791   1.013 -0.2118 -0.0312  0.1175
 3199SOL    HW119701   1.162   8.867   1.072 -3.6642 -1.4210  0.4301
 3199SOL    HW219702   1.143   8.800   0.924 -0.5096 -1.6560  0.0982
 3200SOL     OW19703   4.377   3.839   0.149 -0.2763  0.5799  0.0714
 3200SOL    HW119704   4.343   3.814   0.240 -0.3965  2.1856  0.4925
 3200SOL    HW219705   4.471   3.808   0.139 -0.6862 -0.7407  0.2536
 3201SOL     OW19706   4.326   9.953   1.092  0.3586  0.1108 -0.0309
 3201SOL    HW119707   4.344   9.955   1.190  1.1753  1.8242 -0.1942
 3201SOL    HW219708   4.304   9.859   1.063 -0.0381 -0.3687  1.7951
 3202SOL     OW19709   4.080   0.836   0.088 -0.2715  0.0902  0.3087
 3202SOL    HW119710   4.051   0.743   0.114  0.3374  0.6506  3.2088
 3202SOL    HW219711   4.177   0.835   0.062 -0.3589 -0.1358 -0.0139
 3203SOL     OW19712   9.738   2.617   1.556  0.1423 -0.4569 -0.5326
 3203SOL    HW119713   9.688   2.637   1.641 -2.6493 -1.6511 -1.8285
 3203SOL    HW219714   9.693   2.663   1.480  1.9057 -0.4093 -1.5711
 3204SOL     OW19715   1.906   6.781   0.911  0.1400  0.0229 -0.1321
 3204SOL    HW119716   1.868   6.865   0.871 -1.6634 -0.0296  1.3930
 3204SOL    HW219717   2.006   6.785   0.907  0.0898  2.1943 -0.2344
 3205SOL     OW19718   1.908   6.334   1.891 -0.4060  0.4547 -0.1258
 3205SOL    HW119719   1.902   6.294   1.982 -2.2105  1.7427  0.3381
 3205SOL    HW219720   1.983   6.290   1.840  0.6954 -0.1850  1.9961
 3206SOL     OW19721   2.894   0.289   1.616 -0.6483  0.1308 -0.1668
 3206SOL    HW119722   2.958   0.303   1.692  1.1232 -1.0180 -1.4034
 3206SOL    HW219723   2.819   0.230   1.647 -0.3973  0.3606  0.9262
 3207SOL     OW19724   2.010   6.234   0.489  0.0312 -0.4257 -0.0758
 3207SOL    HW119725   2.098   6.188   0.479  0.2564  0.0309 -0.2045
 3207SOL    HW219726   1.964   6.236   0.400 -0.1975 -0.8392  0.0321
 3208SOL     OW19727   2.714   0.484   0.748 -0.2956  0.0179  0.3614
 3208SOL    HW119728   2.639   0.457   0.688 -1.3124  2.8129  0.3146
 3208SOL    HW219729   2.703   0.580   0.775  2.6217  0.1360  1.3272
 3209SOL     OW19730   1.218   4.984   1.017 -0.6566  0.5159 -0.0184
 3209SOL    HW119731   1.184   5.076   0.996 -0.3600  0.5716 -0.2652
 3209SOL    HW219732   1.141   4.923   1.032 -0.8547  0.8101  0.1578
 3210SOL     OW19733   1.200   2.945   1.120 -0.4255  0.2965  0.3043
 3210SOL    HW119734   1.135   2.876   1.087  0.4421 -0.0592 -0.6982
 3210SOL    HW219735   1.158   3.036   1.113 -0.8279  0.0718 -0.3203
 3211SOL     OW19736   0.635   2.464   2.067  0.3376  0.3227 -0.3302
 3211SOL    HW119737   0.536   2.459   2.080  0.3894 -1.1636 -0.4147
 3211SOL    HW219738   0.656   2.543   2.010 -0.9425 -0.1382 -1.4903
 3212SOL     OW19739   3.392   9.811   1.798 -0.2876  0.1412  0.6606
 3212SOL    HW119740   3.395   9.793   1.896 -1.2547  0.2131  0.7093
 3212SOL    HW219741   3.328   9.748   1.754  0.8421 -0.5106 -0.0732
 3213SOL     OW19742   9.842   1.735   1.077  0.2516 -0.1375  0.0748
 3213SOL    HW119743   9.842   1.796   1.157 -1.1045  0.7439 -0.5793
 3213SOL    HW219744   9.768   1.668   1.086  1.0479 -0.9888  0.2714
 3214SOL     OW19745  10.123   9.097   0.569 -0.2111 -0.2984 -0.7045
 3214SOL    HW119746  10.087   9.162   0.503 -1.7224 -2.2789 -1.8927
 3214SOL    HW219747  10.102   9.128   0.662 -2.6971 -0.1065 -1.3164
 3215SOL     OW19748   1.378   6.589   1.338  0.1266 -0.2470  0.2881
 3215SOL    HW119749   1.478   6.596   1.347  0.0076  0.4233  1.1237
 3215SOL    HW219750   1.339   6.681   1.330 -0.2864 -0.5634 -1.6663
 3216SOL     OW19751   0.452   2.755   2.400 -1.0202 -0.1497 -0.1742
 3216SOL    HW119752   0.413   2.676   2.449  0.1303  1.6069  3.7970
 3216SOL    HW219753   0.551   2.743   2.391 -0.9909  0.3565 -0.5230
 3217SOL     OW19754   1.135   4.498   2.389  0.2712  0.1898 -0.4994
 3217SOL    HW119755   1.159   4.440   2.466  2.4951 -1.4879 -2.3909
 3217SOL    HW219756   1.196   4.577   2.386 -0.7332  1.0043  0.2627
 3218SOL     OW19757   3.730   8.718   0.713 -0.2725 -0.2322  0.0742
 3218SOL    HW119758   3.809   8.748   0.660 -1.5866 -1.1094 -2.4529
 3218SOL    HW219759   3.761   8.660   0.789  1.4124 -2.6338 -2.3300
 3219SOL     OW19760   3.255   9.272   0.813 -0.2669 -0.6577  0.2269
 3219SOL    HW119761   3.170   9.251   0.764 -2.0524  0.8395  2.5385
 3219SOL    HW219762   3.304   9.187   0.832  0.3790 -1.3037 -3.8059
 3220SOL     OW19763   3.069   8.680   0.211  0.2071 -0.7499 -0.7020
 3220SOL    HW119764   3.152   8.630   0.237 -0.0365 -0.5363  0.5294
 3220SOL    HW219765   3.006   8.618   0.164 -0.1434 -1.6445  0.9220
 3221SOL     OW19766   2.014   1.285   1.644 -0.0021 -0.2397 -0.7545
 3221SOL    HW119767   1.945   1.224   1.605 -1.0893  0.1739  0.4684
 3221SOL    HW219768   2.101   1.236   1.652 -0.2077 -0.8406 -2.1094
 3222SOL     OW19769   8.956   5.582   2.506 -0.1733  0.4168  0.4894
 3222SOL    HW119770   8.966   5.611   2.601 -0.9232  0.9922  0.3996
 3222SOL    HW219771   8.960   5.482   2.500  0.3158  0.4056  1.0707
 3223SOL     OW19772   1.005   2.157   2.515  0.7034 -0.2297  0.1481
 3223SOL    HW119773   1.100   2.125   2.514  1.0432  0.7264  0.7363
 3223SOL    HW219774   0.970   2.155   2.608 -0.5188 -2.4523 -0.3411
 3224SOL     OW19775   2.639   1.559   0.979  0.4416 -0.4915  0.1191
 3224SOL    HW119776   2.557   1.613   0.991 -0.4231 -1.5171 -1.1017
 3224SOL    HW219777   2.655   1.504   1.062 -1.0942 -1.6033 -0.2967
 3225SOL     OW19778   4.918   3.506   1.065 -0.0798 -0.3540 -0.7807
 3225SOL    HW119779   4.820   3.522   1.078  0.0867 -0.5390  0.8322
 3225SOL    HW219780   4.937   3.409   1.077  0.2965 -0.3228 -1.1439
 3226SOL     OW19781   8.645   7.228   2.746  0.7004 -0.2525 -0.0539
 3226SOL    HW119782   8.695   7.272   2.672 -0.4738  1.0944 -0.0720
 3226SOL    HW219783   8.633   7.131   2.725 -0.9350  0.4031 -2.3838
 3227SOL     OW19784   0.545   0.828   0.177  0.3090 -0.0077 -0.0038
 3227SOL    HW119785   0.461   0.850   0.226 -0.9204  1.0932 -2.4834
 3227SOL    HW219786   0.525   0.762   0.104  1.8878 -0.8898  0.3324
 3228SOL     OW19787   4.448   3.686   2.364 -0.1201  0.1309  0.0195
 3228SOL    HW119788   4.477   3.780   2.347  0.1462  0.0406 -0.0298
 3228SOL    HW219789   4.358   3.686   2.408 -0.2541  0.4002 -0.2515
 3229SOL     OW19790   2.132   4.534   0.321 -0.2601  0.0431  0.0835
 3229SOL    HW119791   2.099   4.506   0.411  0.3685 -1.7228 -0.2089
 3229SOL    HW219792   2.225   4.568   0.328  0.0255 -0.7055  0.0261
 3230SOL     OW19793   9.151   8.656   1.407  0.7484 -0.1314  0.1759
 3230SOL    HW119794   9.228   8.696   1.358 -1.0852  2.2866 -0.8689
 3230SOL    HW219795   9.103   8.728   1.458 -1.0943 -1.4844  0.4254
 3231SOL     OW19796   3.197   6.428   2.036  0.5674  0.1051 -0.0974
 3231SOL    HW119797   3.224   6.382   1.951 -0.4695  0.8829 -0.8643
 3231SOL    HW219798   3.187   6.526   2.019 -1.3332  0.0372  0.4993
 3232SOL     OW19799   2.567   8.739   1.880 -0.0461 -0.3963 -0.2354
 3232SOL    HW119800   2.494   8.682   1.843 -0.2044  0.0434 -0.6023
 3232SOL    HW219801   2.656   8.703   1.852 -0.0712 -1.7127  1.3222
 3233SOL     OW19802   0.856   0.852   1.297 -0.0998  0.0938  0.1728
 3233SOL    HW119803   0.881   0.841   1.394  0.7551  1.2171  0.0924
 3233SOL    HW219804   0.847   0.949   1.276  1.0380 -0.0786 -1.2060
 3234SOL     OW19805   3.095   0.319   1.789 -0.0127 -0.6962 -0.0908
 3234SOL    HW119806   3.169   0.253   1.802 -0.4469 -1.0577  0.5800
 3234SOL    HW219807   3.129   0.411   1.807 -0.0185 -0.9722  1.3615
 3235SOL     OW19808   3.924   1.608   1.930  0.2342  0.2234 -0.1499
 3235SOL    HW119809   3.878   1.695   1.917  2.0958  1.5060  1.6250
 3235SOL    HW219810   3.856   1.535   1.941 -1.3237  1.3981 -1.6919
 3236SOL     OW19811  10.279   4.631   1.669 -0.2354 -0.3649 -0.2333
 3236SOL    HW119812  10.329   4.694   1.728  0.0982 -1.1129  0.2823
 3236SOL    HW219813  10.267   4.673   1.578 -1.4557  1.1255  0.5732
 3237SOL     OW19814   4.592   3.870   2.532  0.7971 -0.1761 -0.1074
 3237SOL    HW119815   4.655   3.919   2.471  1.4409 -0.2862  0.4617
 3237SOL    HW219816   4.555   3.933   2.600  0.5360 -0.1767 -0.2514
 3238SOL     OW19817   1.577   2.443   0.732 -0.9878  0.0647 -0.2386
 3238SOL    HW119818   1.556   2.349   0.756  0.2744 -0.0757  0.3405
 3238SOL    HW219819   1.541   2.505   0.802 -2.6106  0.0840 -1.0786
 3239SOL     OW19820   9.521   6.906   2.184  0.1746  0.1611  0.2366
 3239SOL    HW119821   9.450   6.876   2.248  0.2004 -0.4329 -0.0076
 3239SOL    HW219822   9.484   6.976   2.123 -0.5367 -0.9593 -0.6285
 3240SOL     OW19823   4.169   4.652   2.050 -0.2843  1.1610 -0.5433
 3240SOL    HW119824   4.106   4.726   2.074  0.0407  1.0793  0.5914
 3240SOL    HW219825   4.183   4.593   2.130  0.2996  0.4962 -1.1319
 3241SOL     OW19826   8.837   6.768   1.346 -0.1323 -0.2803 -0.0200
 3241SOL    HW119827   8.812   6.681   1.388  0.5112  0.2788  1.5572
 3241SOL    HW219828   8.770   6.838   1.371  0.2611  0.0645  0.0888
 3242SOL     OW19829   2.546   7.510   2.110 -0.2131  0.3474 -0.2053
 3242SOL    HW119830   2.568   7.545   2.019  0.3917  0.8742  0.1376
 3242SOL    HW219831   2.451   7.532   2.132 -0.2915  0.4223 -0.6165
 3243SOL     OW19832   0.994   3.600   0.377  0.5347 -0.2810  0.4084
 3243SOL    HW119833   0.956   3.514   0.409  2.5220 -0.9882  0.9650
 3243SOL    HW219834   1.055   3.583   0.300  0.2306  0.7340 -0.0678
 3244SOL     OW19835   1.827   6.464   0.596 -0.1510 -0.5396 -0.3908
 3244SOL    HW119836   1.843   6.463   0.695 -2.0859  1.0166 -0.0307
 3244SOL    HW219837   1.896   6.522   0.552 -0.7517  0.7835  0.3674
 3245SOL     OW19838   2.825   7.687   2.445 -0.2212 -0.2579 -0.0535
 3245SOL    HW119839   2.841   7.785   2.431  2.1838 -0.4669  0.9274
 3245SOL    HW219840   2.769   7.652   2.370  0.1176  1.5695 -1.2070
 3246SOL     OW19841   3.962   2.081   2.732  0.0765  0.0289 -0.3121
 3246SOL    HW119842   3.867   2.062   2.757  0.7160 -1.9816  0.6500
 3246SOL    HW219843   4.021   2.008   2.765  2.3715  2.6368  1.5675
 3247SOL     OW19844   9.797   5.723   0.691  0.6159  0.0395  0.3081
 3247SOL    HW119845   9.789   5.777   0.775 -0.8454 -0.1850  0.3320
 3247SOL    HW219846   9.833   5.632   0.713  0.5820  0.1087  0.6539
 3248SOL     OW19847   4.221   0.348   2.114  0.0221 -0.3813  0.2664
 3248SOL    HW119848   4.122   0.335   2.118 -0.0856 -0.6833 -2.3182
 3248SOL    HW219849   4.266   0.278   2.169 -1.2344  0.7096  2.7232
 3249SOL     OW19850   1.242   3.883   2.440  0.1323  0.2306 -0.2977
 3249SOL    HW119851   1.161   3.831   2.413  1.1547 -1.1304 -0.8114
 3249SOL    HW219852   1.300   3.826   2.498  0.7219  1.2054  0.0870
 3250SOL     OW19853   3.037   1.616   1.138  0.0407  0.2389  1.1808
 3250SOL    HW119854   2.950   1.636   1.092 -0.8325 -0.4496  2.5171
 3250SOL    HW219855   3.056   1.686   1.206  1.2908  1.2071 -0.1479
 3251SOL     OW19856   1.675   0.560   2.094  0.2300  0.0491 -0.3696
 3251SOL    HW119857   1.636   0.516   2.175  0.8781  1.1880  0.5727
 3251SOL    HW219858   1.620   0.639   2.069  1.0600  0.7684  0.0572
 3252SOL     OW19859   2.959   3.712   1.243  0.0326  0.2897 -0.3759
 3252SOL    HW119860   2.962   3.653   1.323 -0.3341  2.3251  1.1947
 3252SOL    HW219861   3.044   3.703   1.191 -0.0447 -1.6035 -0.1820
 3253SOL     OW19862   3.299   9.475   2.130 -0.1287  0.0812  0.3884
 3253SOL    HW119863   3.285   9.573   2.137 -1.4685 -0.0342 -0.3985
 3253SOL    HW219864   3.394   9.456   2.108  0.0596  1.2120  0.2025
 3254SOL     OW19865   9.564   3.595   0.936  0.0622 -0.1757  0.7399
 3254SOL    HW119866   9.473   3.561   0.914 -1.3276  2.6110  1.8130
 3254SOL    HW219867   9.572   3.606   1.036  1.4684 -0.1056  0.6312
 3255SOL     OW19868   4.748   3.783   1.903  0.2129  0.0270 -0.0569
 3255SOL    HW119869   4.737   3.862   1.843 -0.4634 -0.0393 -0.0212
 3255SOL    HW219870   4.723   3.700   1.853 -0.8715  0.0253  0.4901
 3256SOL     OW19871  10.035   2.831   1.252 -0.6000  0.2483 -0.2705
 3256SOL    HW119872  10.131   2.804   1.244 -0.6121  0.3980 -0.9358
 3256SOL    HW219873   9.986   2.805   1.169 -1.5823 -1.6279  0.8742
 3257SOL     OW19874   4.202   1.563   0.972 -0.3013  0.0935  0.5327
 3257SOL    HW119875   4.144   1.494   1.016  0.6356 -1.2817 -0.3520
 3257SOL    HW219876   4.252   1.521   0.896  0.4519  1.7044  0.1222
 3258SOL     OW19877   2.689   6.191   1.791  0.0610 -0.5389  0.1801
 3258SOL    HW119878   2.673   6.123   1.720  0.0368 -0.0831 -0.2520
 3258SOL    HW219879   2.603   6.234   1.816 -0.1005 -1.4278  1.2350
 3259SOL     OW19880   1.370   2.859   2.572  0.5102  0.0729 -0.0619
 3259SOL    HW119881   1.381   2.894   2.479  3.2208 -1.3372 -0.3309
 3259SOL    HW219882   1.327   2.928   2.629 -0.1988  1.3568 -2.0997
 3260SOL     OW19883   0.994   7.124   1.359  0.1643  0.6245  0.1506
 3260SOL    HW119884   1.005   7.174   1.274  0.2798 -1.0416 -0.8507
 3260SOL    HW219885   1.043   7.169   1.433  2.2691  0.6518 -1.2509
 3261SOL     OW19886   4.139   8.576   1.266 -0.2616  0.4222 -0.1950
 3261SOL    HW119887   4.057   8.630   1.284 -0.1701  0.9193 -1.2826
 3261SOL    HW219888   4.163   8.524   1.349  0.2393  2.8176  1.2155
 3262SOL     OW19889   2.618   3.512   0.677 -0.3939  0.1484  0.0217
 3262SOL    HW119890   2.648   3.606   0.692  2.4861 -0.7848  0.4081
 3262SOL    HW219891   2.588   3.472   0.763 -1.1740  0.5455 -0.0604
 3263SOL     OW19892   9.721   2.993   1.104  0.0819  0.3213 -0.2532
 3263SOL    HW119893   9.747   3.064   1.039 -0.2973  0.0171 -0.7425
 3263SOL    HW219894   9.634   2.952   1.076  0.8726 -1.1447 -0.6409
 3264SOL     OW19895   1.203   8.155   2.098 -0.0138 -0.5383 -0.1059
 3264SOL    HW119896   1.246   8.203   2.175 -0.5662 -0.7689  0.3482
 3264SOL    HW219897   1.240   8.190   2.012  0.8730 -0.5333  0.2749
 3265SOL     OW19898  10.288   5.228   0.208  0.2002  0.5547 -0.2198
 3265SOL    HW119899  10.224   5.152   0.200  1.3614 -0.4746  0.1397
 3265SOL    HW219900  10.239   5.311   0.237 -0.7474 -0.5322  1.3359
 3266SOL     OW19901   2.931   3.366   1.351 -0.0488  0.1069 -0.6490
 3266SOL    HW119902   2.838   3.368   1.315  0.2518  2.1839 -1.4207
 3266SOL    HW219903   2.983   3.295   1.304 -1.8769 -2.7584  1.5297
 3267SOL     OW19904   2.108   4.011   1.766  0.9515 -0.4348  0.0896
 3267SOL    HW119905   2.140   4.064   1.688  0.4012  0.6021  0.5533
 3267SOL    HW219906   2.184   3.959   1.805  1.9608  1.5265  0.8162
 3268SOL     OW19907   1.117   7.706   1.739 -0.1735 -0.2252 -0.1205
 3268SOL    HW119908   1.088   7.648   1.663 -0.6941 -0.1241  0.0006
 3268SOL    HW219909   1.044   7.709   1.808  0.9287 -1.6475  1.1584
 3269SOL     OW19910   2.482   4.525   2.539 -0.2302 -0.2549 -0.1956
 3269SOL    HW119911   2.472   4.476   2.626  0.4361 -0.8851 -0.4681
 3269SOL    HW219912   2.576   4.557   2.530 -1.1516  2.9231  0.9462
 3270SOL     OW19913   1.406   7.680   0.072  0.0367  0.0486 -0.6998
 3270SOL    HW119914   1.375   7.588   0.050  1.5916 -0.5301 -0.5422
 3270SOL    HW219915   1.327   7.739   0.089 -0.9701 -1.2250 -0.8941
 3271SOL     OW19916   2.846   0.918   1.506 -0.4306  0.1282 -0.2669
 3271SOL    HW119917   2.941   0.904   1.480  0.3031 -0.7993  2.7627
 3271SOL    HW219918   2.789   0.923   1.423  2.1289  0.0456 -2.0813
 3272SOL     OW19919   3.454   6.208   2.821  0.0544 -0.5111 -0.3543
 3272SOL    HW119920   3.471   6.109   2.824  0.0708 -0.6184 -3.0375
 3272SOL    HW219921   3.357   6.225   2.808 -0.0041 -0.1534  0.5311
 3273SOL     OW19922   3.035   7.139   1.991 -0.2080 -0.0762  0.6160
 3273SOL    HW119923   2.957   7.123   2.051  0.1467 -1.6688  0.6885
 3273SOL    HW219924   3.119   7.142   2.046  0.0573 -1.0092  0.2818
 3274SOL     OW19925   0.592   8.523   1.975 -0.3294  0.2241 -0.1544
 3274SOL    HW119926   0.527   8.449   1.993  1.5619 -1.5765 -0.3639
 3274SOL    HW219927   0.685   8.488   1.991  0.5724  2.7612  0.3108
 3275SOL     OW19928   3.625   7.897   1.834 -0.1438  0.5733  0.1234
 3275SOL    HW119929   3.572   7.819   1.800 -0.1110  0.4689  0.3143
 3275SOL    HW219930   3.609   7.976   1.774 -0.2885  0.4615  0.0126
 3276SOL     OW19931   1.240   0.355   0.259  0.0463 -0.3972 -0.0871
 3276SOL    HW119932   1.248   0.357   0.358  0.1123  3.6557 -0.1009
 3276SOL    HW219933   1.145   0.339   0.234 -0.2621  0.2382  0.6577
 3277SOL     OW19934  10.255   1.722   1.191  0.3272 -0.5923 -0.2718
 3277SOL    HW119935  10.175   1.712   1.132  0.9864  0.3542 -1.3324
 3277SOL    HW219936  10.333   1.755   1.138  1.3335 -1.1591  0.8269
 3278SOL     OW19937   0.625   5.192   0.931  0.0794 -0.0470 -0.4929
 3278SOL    HW119938   0.607   5.166   1.026  0.2152 -0.7355 -0.6511
 3278SOL    HW219939   0.538   5.201   0.883  0.0719 -1.8965 -0.8677
 3279SOL     OW19940   4.114   8.328   2.547  0.1381 -0.3249  0.0805
 3279SOL    HW119941   4.191   8.265   2.536 -0.8960 -1.3833 -1.2953
 3279SOL    HW219942   4.148   8.420   2.564  1.7297 -0.6335 -1.3393
 3280SOL     OW19943  10.034   1.927   2.023 -1.0847  0.2067  0.5638
 3280SOL    HW119944  10.132   1.909   2.023 -1.8966 -4.8613  2.7844
 3280SOL    HW219945   9.993   1.890   1.939 -1.2637  1.6956 -0.0282
 3281SOL     OW19946   2.770   8.399   0.780  0.8254 -0.4057  0.5945
 3281SOL    HW119947   2.695   8.341   0.813  0.0335  0.1123 -0.2766
 3281SOL    HW219948   2.766   8.404   0.680  0.9448  1.0707  0.6529
 3282SOL     OW19949   1.920   8.716   0.449  1.0104  0.1066 -0.3009
 3282SOL    HW119950   1.952   8.782   0.379  0.0334 -1.7984 -2.6121
 3282SOL    HW219951   1.999   8.678   0.496  1.8626 -0.2979 -1.9950
 3283SOL     OW19952   1.509   1.362   2.394 -0.0172 -0.2072  0.3295
 3283SOL    HW119953   1.486   1.370   2.491 -0.3565 -0.1869  0.2502
 3283SOL    HW219954   1.514   1.453   2.353  2.4281 -0.0878  0.8428
 3284SOL     OW19955   1.974   5.637   0.510 -0.2111  0.0903 -0.3630
 3284SOL    HW119956   1.885   5.676   0.535 -0.6548 -1.2784  0.2434
 3284SOL    HW219957   2.047   5.695   0.546 -0.8667  0.4223  0.4582
 3285SOL     OW19958   3.126   2.244   1.154 -0.1345 -0.1056  0.6774
 3285SOL    HW119959   3.147   2.242   1.057 -0.0451 -0.7013  0.7066
 3285SOL    HW219960   3.199   2.197   1.205 -0.2879  0.0110  1.0096
 3286SOL     OW19961  10.275   7.590   2.093  0.4894 -1.0499  0.4852
 3286SOL    HW119962  10.350   7.632   2.144 -1.0835  1.0253  1.1626
 3286SOL    HW219963  10.241   7.511   2.143 -1.9141  1.7287  3.4918
 3287SOL     OW19964   2.098   7.816   0.339  0.2891  0.1935 -0.3844
 3287SOL    HW119965   2.111   7.794   0.436  0.1609 -0.6282 -0.5522
 3287SOL    HW219966   2.152   7.897   0.316 -1.0592  1.4623  0.8017
 3288SOL     OW19967   3.548   9.877   2.210 -0.3377  0.2167  0.0251
 3288SOL    HW119968   3.591   9.896   2.122 -1.3436  0.5573 -0.4020
 3288SOL    HW219969   3.610   9.824   2.267 -0.2760 -1.3485 -1.4707
 3289SOL     OW19970   9.879   6.720   1.149 -0.3117 -0.1090  0.6608
 3289SOL    HW119971   9.800   6.666   1.121  0.1326 -0.2886 -0.2599
 3289SOL    HW219972   9.911   6.775   1.072  0.9313 -0.6173  0.7976
 3290SOL     OW19973   2.382   4.401   0.884  0.2487 -0.1789 -0.3009
 3290SOL    HW119974   2.307   4.451   0.840 -0.8272 -0.5279  1.0822
 3290SOL    HW219975   2.348   4.312   0.915  0.9922  0.0140  1.1085
 3291SOL     OW19976   0.923   5.624   0.451 -0.2093 -0.1529  0.4272
 3291SOL    HW119977   0.935   5.525   0.454 -1.1796 -0.3101 -0.5725
 3291SOL    HW219978   0.837   5.649   0.497  0.5376  0.3271  1.5873
 3292SOL     OW19979   0.726   9.861   1.345 -0.3465  0.3521 -0.2944
 3292SOL    HW119980   0.738   9.960   1.334  1.5683 -0.0111 -1.7701
 3292SOL    HW219981   0.771   9.832   1.429  1.4804  0.3554 -1.2435
 3293SOL     OW19982   1.490   5.195   2.758 -0.1405 -0.0886  0.4282
 3293SOL    HW119983   1.569   5.249   2.730  0.5207 -1.2485  0.0147
 3293SOL    HW219984   1.406   5.239   2.727  0.5251 -0.8027 -2.5238
 3294SOL     OW19985   9.945   7.731   1.151 -0.4128 -0.2704 -0.0395
 3294SOL    HW119986  10.031   7.759   1.108 -1.2127  1.0207 -0.8392
 3294SOL    HW219987   9.953   7.738   1.250  1.0464 -2.0823 -0.0067
 3295SOL     OW19988   3.029   9.470   2.800  0.6634 -0.2975  0.1532
 3295SOL    HW119989   3.050   9.381   2.838 -0.5761 -0.2199  1.0377
 3295SOL    HW219990   2.974   9.523   2.865 -1.0163  0.0431 -1.5014
 3296SOL     OW19991  10.175   0.298   0.254  0.3205  0.2092  0.1796
 3296SOL    HW119992  10.161   0.318   0.350 -0.9453 -0.0314  0.0431
 3296SOL    HW219993  10.180   0.199   0.240  1.8880  0.2732  0.1861
 3297SOL     OW19994   9.984   3.771   2.034 -0.0734 -0.4064  0.3020
 3297SOL    HW119995   9.902   3.771   2.092 -0.5471  1.3884 -0.3219
 3297SOL    HW219996  10.050   3.837   2.071  1.4464 -2.4265  1.2603
 3298SOL     OW19997   1.766   1.934   1.389 -0.3312  0.5546  0.4799
 3298SOL    HW119998   1.825   1.858   1.362 -0.7246  0.4072  0.0311
 3298SOL    HW219999   1.748   1.992   1.309  0.9343  1.7934  1.0580
 3299SOL     OW20000   0.617   7.625   2.351  0.1283  0.6485  0.1170
 3299SOL    HW120001   0.674   7.576   2.285  0.3167  0.7075  0.2354
 3299SOL    HW220002   0.561   7.693   2.303 -0.7666 -0.2641 -0.1573
 3300SOL     OW20003  10.026   3.490   0.377  0.1909 -0.4048 -0.5538
 3300SOL    HW120004   9.974   3.450   0.302 -0.4221 -0.8909  0.1222
 3300SOL    HW220005   9.989   3.580   0.399 -0.2631 -0.6704 -0.2007
 3301SOL     OW20006   4.327   9.363   2.674  0.0760 -0.1449  0.0222
 3301SOL    HW120007   4.283   9.423   2.741  0.3339  0.1822 -0.1016
 3301SOL    HW220008   4.411   9.326   2.714 -0.3872 -0.8910  0.3148
 3302SOL     OW20009   4.839   9.840   2.444 -0.3815  0.3668  0.1251
 3302SOL    HW120010   4.797   9.866   2.531 -1.8156  2.2330 -1.0656
 3302SOL    HW220011   4.783   9.770   2.399 -0.8297  0.9881 -0.2878
 3303SOL     OW20012   3.560   3.786   0.876 -0.6038 -0.5045 -0.3553
 3303SOL    HW120013   3.552   3.801   0.777 -2.5871  0.4998 -0.0691
 3303SOL    HW220014   3.590   3.871   0.919  0.7005 -1.0691 -0.1223
 3304SOL     OW20015   2.530   0.883   0.550  0.3930 -0.3101 -0.6672
 3304SOL    HW120016   2.459   0.906   0.617 -0.2612 -0.5370 -1.2801
 3304SOL    HW220017   2.511   0.793   0.511  0.4155  0.0859 -1.6127
 3305SOL     OW20018  10.038   6.026   1.502 -0.4263 -0.1692 -0.0694
 3305SOL    HW120019   9.969   6.014   1.430  1.4995 -0.8536 -1.8467
 3305SOL    HW220020  10.019   5.964   1.578 -1.2326 -1.0350 -0.9642
 3306SOL     OW20021   1.985   7.616   2.105 -0.4769 -0.1835 -0.3116
 3306SOL    HW120022   1.945   7.702   2.139 -0.7879 -0.6324  0.4747
 3306SOL    HW220023   1.937   7.539   2.147  2.2716 -0.7632  1.9362
 3307SOL     OW20024   1.842   9.678   0.491 -0.1378 -0.0576  0.5245
 3307SOL    HW120025   1.925   9.731   0.509  1.0609 -1.4030 -0.8343
 3307SOL    HW220026   1.845   9.594   0.545  1.5057 -2.1502 -2.6514
 3308SOL     OW20027  10.328   8.988   0.694  0.7307 -0.3723 -0.3932
 3308SOL    HW120028  10.398   8.954   0.631  0.3034  0.3405 -1.2730
 3308SOL    HW220029  10.254   9.031   0.642  0.9611  1.3371  0.6304
 3309SOL     OW20030   1.507   8.723   1.610  0.2149 -0.8570 -0.2233
 3309SOL    HW120031   1.496   8.723   1.510 -0.8036  1.7817 -0.1534
 3309SOL    HW220032   1.590   8.674   1.634  0.3047 -1.8182 -2.3459
 3310SOL     OW20033   3.514   0.916   1.858  0.5182 -0.1918  0.1907
 3310SOL    HW120034   3.471   0.956   1.777  1.0821 -1.3279 -0.6783
 3310SOL    HW220035   3.447   0.859   1.906 -0.0793  1.1680  1.0488
 3311SOL     OW20036   1.964   2.362   0.396  0.2582 -0.2907  0.2775
 3311SOL    HW120037   1.937   2.458   0.395  1.2762  0.0035 -0.6773
 3311SOL    HW220038   2.064   2.356   0.395  0.1952 -1.3648 -0.1773
 3312SOL     OW20039   5.293   3.621   0.503  0.2773  0.4010  0.0441
 3312SOL    HW120040   5.353   3.566   0.562 -0.2984 -0.7511 -0.4185
 3312SOL    HW220041   5.208   3.571   0.486 -0.2981  1.4833 -0.3242
 3313SOL     OW20042   1.701   4.281   0.760  0.1910  0.0152 -0.3091
 3313SOL    HW120043   1.700   4.265   0.859  0.2090  1.0216 -0.1403
 3313SOL    HW220044   1.609   4.268   0.723 -0.1539  1.1621  0.1054
 3314SOL     OW20045   9.426   4.913   0.492 -0.3283 -0.0011 -0.4373
 3314SOL    HW120046   9.393   4.827   0.453 -0.2547 -0.9814  1.5863
 3314SOL    HW220047   9.362   4.986   0.470 -1.2696 -0.9114 -0.7774
 3315SOL     OW20048   4.392   0.559   2.124  0.6531 -0.0528 -0.0403
 3315SOL    HW120049   4.307   0.506   2.115  1.4369 -1.5539  1.1553
 3315SOL    HW220050   4.372   0.646   2.168 -0.7575  0.9574 -2.5481
 3316SOL     OW20051   1.115   9.681   1.240  0.0577 -0.0923  0.1962
 3316SOL    HW120052   1.022   9.701   1.207  0.0473  1.6929  1.2419
 3316SOL    HW220053   1.182   9.716   1.174  0.0028 -2.0528 -0.9295
 3317SOL     OW20054   0.890   0.223   0.841 -0.3204  0.5233 -0.2620
 3317SOL    HW120055   0.883   0.320   0.821 -0.3643  0.6348  0.2779
 3317SOL    HW220056   0.802   0.190   0.876  0.0799  0.5979  0.8498
 3318SOL     OW20057   2.146   6.747   0.622 -0.0642  0.4042  0.5456
 3318SOL    HW120058   2.169   6.793   0.536  1.9039  0.0220  0.8386
 3318SOL    HW220059   2.086   6.669   0.603 -2.9462  2.6476 -0.0178
 3319SOL     OW20060   0.441   8.367   1.444  0.1264  0.0345 -0.2443
 3319SOL    HW120061   0.396   8.306   1.509  1.9227 -2.0549 -0.8991
 3319SOL    HW220062   0.535   8.383   1.474  0.4653  0.3619 -1.4730
 3320SOL     OW20063   9.669   2.344   1.841  0.1316  0.2749  0.5291
 3320SOL    HW120064   9.677   2.249   1.809  1.8530  0.8378 -0.7849
 3320SOL    HW220065   9.594   2.389   1.793 -0.5152 -0.3365  0.9568
 3321SOL     OW20066   3.310   2.839   2.703  0.2027  0.4500 -0.1222
 3321SOL    HW120067   3.241   2.894   2.656  0.6511  0.4489 -0.7825
 3321SOL    HW220068   3.388   2.824   2.642  0.2669 -0.5610  0.2088
 3322SOL     OW20069   4.745   1.498   0.664 -0.4823 -0.1407  0.1525
 3322SOL    HW120070   4.723   1.595   0.654  0.9603  0.0112 -1.7950
 3322SOL    HW220071   4.802   1.486   0.745 -2.1217  0.3628  1.4251
 3323SOL     OW20072   1.880   3.370   1.573  0.1730  0.4206  0.2164
 3323SOL    HW120073   1.799   3.345   1.626 -0.7532  1.3792 -0.7408
 3323SOL    HW220074   1.883   3.469   1.561 -0.5710  0.0969 -2.9760
 3324SOL     OW20075   0.464   8.688   1.215 -0.2401 -0.2485  0.5768
 3324SOL    HW120076   0.554   8.703   1.175 -0.5559  0.3566  0.1061
 3324SOL    HW220077   0.405   8.639   1.150 -0.0300 -1.2799  1.1475
 3325SOL     OW20078   2.574   8.788   1.348 -0.1330 -0.3380  0.4813
 3325SOL    HW120079   2.568   8.748   1.257  1.1327  1.0318 -0.2214
 3325SOL    HW220080   2.670   8.798   1.374 -0.4051  1.9111  0.7597
 3326SOL     OW20081   4.139   9.167   2.738  0.1837 -0.2665  0.5723
 3326SOL    HW120082   4.195   9.246   2.713 -1.9483  1.1549  0.1513
 3326SOL    HW220083   4.147   9.096   2.668 -1.9103  1.6888 -1.7486
 3327SOL     OW20084   1.120   2.823   1.772  0.0016  0.0826  0.2983
 3327SOL    HW120085   1.145   2.842   1.677 -1.3098  2.2469  0.3627
 3327SOL    HW220086   1.083   2.730   1.778 -0.2003  0.0334 -1.3765
 3328SOL     OW20087  10.331   6.791   2.111  0.1866  0.0835  0.6261
 3328SOL    HW120088  10.363   6.866   2.168  2.3391 -2.5750  3.1001
 3328SOL    HW220089  10.233   6.777   2.126 -0.1472  2.1258  0.4167
 3329SOL     OW20090   2.420   0.747   2.488 -0.0992  0.3339  0.3507
 3329SOL    HW120091   2.398   0.682   2.561 -0.7618  0.8105  0.5818
 3329SOL    HW220092   2.374   0.834   2.506 -0.3860  0.4088 -0.7106
 3330SOL     OW20093   1.840   3.184   2.802  0.5261  0.3631  0.0448
 3330SOL    HW120094   1.780   3.111   2.834 -0.3801  0.7851 -0.6653
 3330SOL    HW220095   1.860   3.246   2.877 -0.4636  0.5830  0.1286
 3331SOL     OW20096   8.873   6.802   2.080  0.1754 -0.0735  0.1417
 3331SOL    HW120097   8.914   6.759   2.000  2.7818 -0.0526  1.4329
 3331SOL    HW220098   8.867   6.901   2.065  0.3369 -0.1063 -0.1553
 3332SOL     OW20099   2.593   7.515   0.486 -0.1803  0.4386 -0.0548
 3332SOL    HW120100   2.668   7.551   0.431 -0.3514 -0.0423 -0.6064
 3332SOL    HW220101   2.583   7.417   0.469 -0.4812  0.3595  0.5473
 3333SOL     OW20102   1.824   8.729   2.371  0.0180  0.1266 -0.0776
 3333SOL    HW120103   1.852   8.729   2.467  1.2685 -0.2795 -0.4361
 3333SOL    HW220104   1.724   8.720   2.365 -0.0979  0.5857  1.1871
 3334SOL     OW20105   2.584   5.706   1.944 -0.4935 -0.3569 -0.3198
 3334SOL    HW120106   2.550   5.760   1.868  1.2478  0.6506 -0.3993
 3334SOL    HW220107   2.658   5.646   1.912 -1.1727 -1.4622  0.1473
 3335SOL     OW20108   3.681   1.288   1.266 -0.3023  0.2686  0.0257
 3335SOL    HW120109   3.614   1.343   1.316 -0.8817 -0.8562  0.5073
 3335SOL    HW220110   3.764   1.278   1.322 -0.7571 -0.5627  0.5696
 3336SOL     OW20111   1.632   7.475   0.798  0.0006  0.4313  0.3274
 3336SOL    HW120112   1.599   7.567   0.777  0.3556  0.4112 -0.3226
 3336SOL    HW220113   1.558   7.422   0.842  0.1540  1.3822  1.7422
 3337SOL     OW20114  10.068   2.946   0.209  0.4593  0.6233 -0.7899
 3337SOL    HW120115  10.077   2.855   0.248 -0.7597  1.0616  0.5861
 3337SOL    HW220116   9.976   2.980   0.227  1.1994  2.4966 -0.4562
 3338SOL     OW20117   9.856   8.740   0.289 -0.0402 -0.2536  0.3722
 3338SOL    HW120118   9.794   8.786   0.226 -0.5824  0.2203  1.2431
 3338SOL    HW220119   9.804   8.689   0.358  0.5609 -2.2610 -0.6290
 3339SOL     OW20120  10.136   7.081   2.116 -0.1346 -0.4693  0.0679
 3339SOL    HW120121  10.153   7.070   2.018  0.8056 -2.5616  0.4354
 3339SOL    HW220122  10.153   7.176   2.142 -0.1328  0.0489 -1.7436
 3340SOL     OW20123   0.935   9.764   2.825 -0.3452 -0.5917 -0.6487
 3340SOL    HW120124   0.999   9.692   2.854  1.6445  2.0288  1.7661
 3340SOL    HW220125   0.985   9.834   2.775 -1.5355  0.9406  0.2852
 3341SOL     OW20126   9.372   1.123   2.357 -0.6139  0.0510  0.1332
 3341SOL    HW120127   9.436   1.059   2.315 -2.3405 -0.7772 -1.3167
 3341SOL    HW220128   9.355   1.096   2.452  0.6145 -0.1356  0.3093
 3342SOL     OW20129   0.738   9.514   0.551  0.0208 -0.2358 -0.7958
 3342SOL    HW120130   0.812   9.474   0.497 -0.6211  0.3674 -2.1269
 3342SOL    HW220131   0.661   9.451   0.554  0.6583 -0.9950  0.8431
 3343SOL     OW20132   1.243   2.073   2.423 -0.2288  0.9063  0.4487
 3343SOL    HW120133   1.238   2.156   2.368 -2.6902 -0.7735 -2.0089
 3343SOL    HW220134   1.292   2.002   2.373  0.3075  0.3135  1.7884
 3344SOL     OW20135   2.672   5.802   0.470  0.8037 -0.3945 -0.0505
 3344SOL    HW120136   2.719   5.846   0.546  1.6331 -0.4003 -0.5585
 3344SOL    HW220137   2.657   5.868   0.397 -2.4458  0.3466  1.1716
 3345SOL     OW20138   9.745   6.428   0.836  0.0166  0.0973  0.1363
 3345SOL    HW120139   9.759   6.329   0.839  0.8719  0.2339  0.9377
 3345SOL    HW220140   9.777   6.463   0.748  0.5433 -0.2252  0.1926
 3346SOL     OW20141   3.210   3.726   1.136  0.8186  0.2137 -0.1664
 3346SOL    HW120142   3.236   3.676   1.219 -2.8705 -2.4914 -0.5702
 3346SOL    HW220143   3.265   3.694   1.059  3.2113  1.6810  0.8740
 3347SOL     OW20144   9.887   7.252   0.322 -0.7891 -0.1912  0.2886
 3347SOL    HW120145   9.905   7.153   0.322 -0.8253 -0.1995 -0.3211
 3347SOL    HW220146   9.845   7.278   0.235 -1.0793  0.3099  0.5766
 3348SOL     OW20147   9.201   2.793   2.770 -0.1556  0.3043 -0.3605
 3348SOL    HW120148   9.284   2.769   2.721  0.1809  1.3518 -0.3221
 3348SOL    HW220149   9.123   2.743   2.731  0.5986 -1.2659  0.0993
 3349SOL     OW20150   1.649   3.205   1.199  0.0939  0.0134 -0.1874
 3349SOL    HW120151   1.631   3.253   1.112 -0.5435  0.3610  0.1292
 3349SOL    HW220152   1.571   3.218   1.260  0.1732 -0.9636  0.1155
 3350SOL     OW20153   1.072   4.767   0.507  0.0601 -0.0541  0.4418
 3350SOL    HW120154   0.996   4.705   0.526  1.7542 -2.0060  1.1030
 3350SOL    HW220155   1.158   4.715   0.509  1.5367  2.3337  1.0307
 3351SOL     OW20156   2.085   3.208   0.976  0.0298  1.0232 -0.3582
 3351SOL    HW120157   1.998   3.158   0.969  1.1563 -0.8504 -1.4529
 3351SOL    HW220158   2.077   3.278   1.047 -1.0888 -1.7846  2.3905
 3352SOL     OW20159   3.052   9.210   0.100  0.4207 -0.6779  1.2237
 3352SOL    HW120160   2.961   9.197   0.138  1.1612 -1.8483  2.6772
 3352SOL    HW220161   3.086   9.122   0.066  1.7373 -0.6355  2.3910
 3353SOL     OW20162   1.686   9.158   1.637  0.5250 -0.3367 -0.0089
 3353SOL    HW120163   1.660   9.090   1.568  1.5144 -0.2956 -0.4280
 3353SOL    HW220164   1.671   9.120   1.729  0.8331 -1.0206 -0.2418
 3354SOL     OW20165   1.509   1.377   1.635 -0.1129 -0.6259 -0.2220
 3354SOL    HW120166   1.432   1.345   1.579 -0.4248  0.9518 -0.7301
 3354SOL    HW220167   1.482   1.379   1.731 -1.3481  1.6467 -0.5778
 3355SOL     OW20168   1.157   8.733   2.507 -0.0712 -0.1831 -0.1177
 3355SOL    HW120169   1.186   8.828   2.520  0.3691 -0.2872 -0.3027
 3355SOL    HW220170   1.103   8.725   2.424 -0.0607 -0.0999 -0.1328
 3356SOL     OW20171   2.377   3.311   2.194  0.3569 -0.3481 -0.6274
 3356SOL    HW120172   2.386   3.269   2.284 -0.8496  1.6934  0.4628
 3356SOL    HW220173   2.350   3.240   2.128  0.0029 -1.6191  0.8366
 3357SOL     OW20174   2.388   7.244   0.740 -0.3029  0.5766  0.1507
 3357SOL    HW120175   2.390   7.144   0.731  0.4637  0.6084 -0.0478
 3357SOL    HW220176   2.293   7.275   0.741 -0.5367 -0.0262 -1.2482
 3358SOL     OW20177   0.875   5.841   1.460  0.0897 -0.1912  0.0385
 3358SOL    HW120178   0.820   5.902   1.402  1.7068  0.5765 -0.7330
 3358SOL    HW220179   0.922   5.896   1.529  2.3350 -0.4236 -1.2812
 3359SOL     OW20180   2.253   5.421   2.205 -0.3279  0.1239 -0.4277
 3359SOL    HW120181   2.252   5.499   2.267 -0.9759 -0.6076  0.4952
 3359SOL    HW220182   2.324   5.357   2.231  0.7563  0.7883 -1.6878
 3360SOL     OW20183   3.670   5.132   2.118  0.0118 -0.2563  0.1037
 3360SOL    HW120184   3.595   5.098   2.175 -0.9539  0.8682 -0.4706
 3360SOL    HW220185   3.638   5.146   2.024  0.0826  3.1255  0.5170
 3361SOL     OW20186   9.825   8.321   2.283 -0.4833  0.0029 -0.4357
 3361SOL    HW120187   9.891   8.273   2.341 -0.0772  2.0268  0.8088
 3361SOL    HW220188   9.868   8.340   2.194  0.2209  0.2511 -0.0527
 3362SOL     OW20189   4.256   2.979   2.611 -0.1764 -0.5127 -0.9820
 3362SOL    HW120190   4.194   2.989   2.533 -0.4109 -1.5950 -0.9314
 3362SOL    HW220191   4.227   2.903   2.668  0.3135 -0.0643 -0.1224
 3363SOL     OW20192   0.797   2.444   2.290 -0.2194  0.0977 -0.2537
 3363SOL    HW120193   0.739   2.468   2.213 -1.3449 -2.2741 -0.1939
 3363SOL    HW220194   0.792   2.345   2.306  2.2812  0.1402  1.0124
 3364SOL     OW20195  10.165   6.991   1.437 -0.0070  0.3850 -0.0659
 3364SOL    HW120196  10.100   6.931   1.391 -1.0876  0.2849  1.5832
 3364SOL    HW220197  10.118   7.072   1.472  0.6039 -0.0240  1.7684
 3365SOL     OW20198   3.613   9.207   0.719 -0.4327  0.1913 -0.1906
 3365SOL    HW120199   3.626   9.286   0.780  0.3385  0.8856 -1.2379
 3365SOL    HW220200   3.555   9.234   0.642 -2.1848 -0.9418  0.7081
 3366SOL     OW20201   3.450   4.782   0.979  0.0143 -0.0804 -0.2127
 3366SOL    HW120202   3.511   4.847   1.024  2.9838 -2.4651 -0.6667
 3366SOL    HW220203   3.398   4.732   1.048  0.1184  0.4808  0.2739
 3367SOL     OW20204   4.254   9.730   2.724  0.2769 -0.0993 -0.3932
 3367SOL    HW120205   4.252   9.741   2.625  1.3090  0.5993 -0.3460
 3367SOL    HW220206   4.345   9.696   2.751  0.4703  1.0696  0.4434
 3368SOL     OW20207   4.365   4.207   1.808 -0.2899 -0.1747 -0.5924
 3368SOL    HW120208   4.290   4.151   1.772 -2.8541  2.8456 -0.1196
 3368SOL    HW220209   4.373   4.291   1.753  3.1403 -0.6875 -0.9676
 3369SOL     OW20210   0.530   7.280   0.132  0.2694 -0.1800  0.2715
 3369SOL    HW120211   0.487   7.208   0.076  1.3885 -0.9759  0.4191
 3369SOL    HW220212   0.533   7.365   0.080  0.5410 -0.7026 -0.5844
 3370SOL     OW20213   4.453   9.514   1.287 -0.4985 -0.1525 -0.3230
 3370SOL    HW120214   4.375   9.451   1.292  1.2242 -2.2857  0.4634
 3370SOL    HW220215   4.524   9.474   1.229  1.0871  0.5270  1.0946
 3371SOL     OW20216   8.991   5.199   0.646  0.0497 -0.4223 -0.2909
 3371SOL    HW120217   9.024   5.294   0.644  0.6515 -0.6416 -1.2629
 3371SOL    HW220218   9.055   5.143   0.698  0.3129 -0.5078 -0.6974
 3372SOL     OW20219   3.888   8.410   2.430 -0.1287  0.2280 -0.3498
 3372SOL    HW120220   3.962   8.350   2.460  0.4746  1.3038  0.3452
 3372SOL    HW220221   3.921   8.468   2.355 -0.6790 -0.2262 -0.9536
 3373SOL     OW20222   0.766   4.768   1.444  0.2982 -0.5923  0.1172
 3373SOL    HW120223   0.727   4.716   1.520  0.6933  0.3828  0.9915
 3373SOL    HW220224   0.832   4.835   1.479 -0.5580  0.8398 -0.9367
 3374SOL     OW20225   4.049   4.897   2.051  0.3400 -0.0965 -0.1774
 3374SOL    HW120226   4.036   4.935   2.143  0.0231 -1.0635  0.1815
 3374SOL    HW220227   3.982   4.939   1.988  0.0079 -0.0429  0.2097
 3375SOL     OW20228   2.010   2.443   1.440 -0.0644  0.3153 -0.1397
 3375SOL    HW120229   2.049   2.351   1.440  1.4298  0.9386  1.9311
 3375SOL    HW220230   1.914   2.437   1.410  0.1796 -1.8262 -0.6189
 3376SOL     OW20231   3.001   4.461   1.298 -0.3366  0.2584 -0.1516
 3376SOL    HW120232   3.036   4.452   1.391 -0.4625  1.6755  0.0388
 3376SOL    HW220233   2.905   4.487   1.301 -0.5851 -0.5574 -0.6886
 3377SOL     OW20234   2.166   4.421   0.583  1.1440  0.5603 -0.8380
 3377SOL    HW120235   2.132   4.338   0.626 -0.3264  0.6630 -1.7675
 3377SOL    HW220236   2.179   4.491   0.654  2.9395 -0.6043  0.0259
 3378SOL     OW20237  10.143   4.088   0.489 -0.0880 -0.1491  0.3904
 3378SOL    HW120238  10.212   4.133   0.546  0.8121 -1.4311  0.3207
 3378SOL    HW220239  10.058   4.140   0.492  0.3671  0.5112  1.8365
 3379SOL     OW20240   8.935   7.589   2.448 -0.0708  0.6761  0.0507
 3379SOL    HW120241   8.999   7.562   2.520  0.3363 -1.4813 -1.0888
 3379SOL    HW220242   8.979   7.656   2.388  0.4231  0.6706  0.4050
 3380SOL     OW20243   9.786   1.702   2.669 -0.6612  0.3115 -0.3176
 3380SOL    HW120244   9.822   1.608   2.671 -1.8461 -0.1361  1.3492
 3380SOL    HW220245   9.758   1.725   2.576  0.7352 -0.5557 -0.9717
 3381SOL     OW20246   3.066   8.863   1.190  0.2787 -0.2030 -0.2357
 3381SOL    HW120247   3.007   8.903   1.119  1.4406  0.5880 -0.7629
 3381SOL    HW220248   3.010   8.835   1.268 -0.6099  2.0061 -0.0465
 3382SOL     OW20249   9.968   1.749   1.479 -0.3330 -0.1274 -0.1041
 3382SOL    HW120250  10.059   1.763   1.517 -0.8676 -0.0738  1.1857
 3382SOL    HW220251   9.902   1.807   1.527 -0.8824  0.6276 -1.7386
 3383SOL     OW20252   1.165   0.589   0.684 -0.4448  0.1767  0.5843
 3383SOL    HW120253   1.124   0.539   0.760 -1.8109 -1.2800 -1.0585
 3383SOL    HW220254   1.200   0.524   0.616  0.3795  1.4446 -0.2318
 3384SOL     OW20255   1.165   5.618   2.339 -0.5840  0.5350 -0.5216
 3384SOL    HW120256   1.109   5.699   2.319 -1.3702  0.1858  0.2125
 3384SOL    HW220257   1.136   5.543   2.279 -2.4534 -0.3015  1.3339
 3385SOL     OW20258   1.817   8.108   0.370  0.0235 -0.0787  0.0008
 3385SOL    HW120259   1.781   8.062   0.451 -0.0975  0.0759  0.0357
 3385SOL    HW220260   1.776   8.068   0.288  0.6403 -0.6764 -0.0176
 3386SOL     OW20261   3.996   9.905   1.382 -0.0773 -0.0793 -0.1657
 3386SOL    HW120262   4.049   9.829   1.343 -0.5937 -0.1348 -0.7853
 3386SOL    HW220263   3.913   9.918   1.327 -1.1447 -0.5735  1.3187
 3387SOL     OW20264   0.652   1.331   1.113  0.1296 -0.2568 -0.5778
 3387SOL    HW120265   0.646   1.416   1.060  1.2346 -0.2222 -0.6681
 3387SOL    HW220266   0.624   1.254   1.055 -2.5769  0.2206  0.0386
 3388SOL     OW20267   1.411   0.127   2.390  0.5430  0.2274  0.2565
 3388SOL    HW120268   1.483   0.081   2.338  0.6278 -0.5431  1.0349
 3388SOL    HW220269   1.345   0.168   2.328  2.1521  1.7350 -0.4865
 3389SOL     OW20270   3.407   8.301   2.620 -0.1323 -0.0005  0.1768
 3389SOL    HW120271   3.362   8.389   2.636 -0.2435  0.1766 -1.0312
 3389SOL    HW220272   3.486   8.315   2.561 -0.9486 -0.8827 -1.1603
 3390SOL     OW20273   2.292   3.579   1.686 -0.4590 -0.3487 -0.3945
 3390SOL    HW120274   2.391   3.573   1.700 -0.4866  1.0311  0.5292
 3390SOL    HW220275   2.274   3.647   1.614 -0.8429  1.5446  1.4576
 3391SOL     OW20276   3.519   0.518   1.867 -0.5840  0.4010 -0.1678
 3391SOL    HW120277   3.532   0.562   1.956  0.5839 -0.3533  0.0612
 3391SOL    HW220278   3.593   0.545   1.806 -1.2673  0.7445 -0.8414
 3392SOL     OW20279   0.817   5.878   2.389 -0.3720 -0.3756 -0.0983
 3392SOL    HW120280   0.897   5.909   2.441 -0.5648 -1.3532  0.8050
 3392SOL    HW220281   0.754   5.954   2.377  0.0636  0.0681  0.3816
 3393SOL     OW20282   9.961   1.932   1.270  0.2316 -0.0941  0.1245
 3393SOL    HW120283   9.957   1.878   1.354  0.1665 -1.1502 -0.5404
 3393SOL    HW220284  10.048   1.980   1.264 -0.0204  0.4895  1.0962
 3394SOL     OW20285   9.732   5.218   2.185 -0.1197  0.3718  0.3900
 3394SOL    HW120286   9.748   5.226   2.087  1.5405 -2.8273  0.3496
 3394SOL    HW220287   9.819   5.223   2.234 -0.9910  2.5612  1.7986
 3395SOL     OW20288   0.337   7.201   2.538  0.1091  0.5392  0.1591
 3395SOL    HW120289   0.349   7.300   2.532  1.6039  0.4067  0.7346
 3395SOL    HW220290   0.373   7.168   2.625 -3.0775 -0.1446  1.3112
 3396SOL     OW20291   0.414   9.001   1.229 -0.1524  0.5300  0.1838
 3396SOL    HW120292   0.505   9.041   1.217 -0.3991  1.8362  2.4452
 3396SOL    HW220293   0.420   8.901   1.227  1.1806  0.6230 -0.6590
 3397SOL     OW20294   3.036   3.847   1.706  0.0556  0.6730 -0.0758
 3397SOL    HW120295   2.968   3.800   1.650 -0.7190  1.8179 -0.0875
 3397SOL    HW220296   3.091   3.908   1.648  1.5385 -0.7254 -0.1885
 3398SOL     OW20297   2.076   9.516   0.751 -0.3601 -0.1227  0.5715
 3398SOL    HW120298   2.146   9.486   0.816 -1.7501 -2.9994  0.8185
 3398SOL    HW220299   1.998   9.554   0.800 -0.6714 -0.6543  0.4857
 3399SOL     OW20300   1.314   6.057   1.091  0.2497 -0.0189 -0.3797
 3399SOL    HW120301   1.236   5.997   1.078 -1.0029  1.1116  1.5786
 3399SOL    HW220302   1.375   6.019   1.161 -0.2898  0.7096  0.5045
 3400SOL     OW20303   1.622   3.190   1.528 -0.3289  0.1092  0.0378
 3400SOL    HW120304   1.705   3.163   1.480 -0.5554  0.6184 -0.6506
 3400SOL    HW220305   1.645   3.249   1.605  0.1560 -1.9514  1.4804
 3401SOL     OW20306   9.283   2.768   1.210  0.2111  0.4074 -0.1999
 3401SOL    HW120307   9.345   2.802   1.139 -0.9457  0.7270 -1.0647
 3401SOL    HW220308   9.308   2.807   1.298  0.8256  1.0536 -0.6611
 3402SOL     OW20309   4.292   0.181   0.945 -0.9610  0.2304  0.3209
 3402SOL    HW120310   4.340   0.256   0.991 -0.1755  1.1425 -1.8965
 3402SOL    HW220311   4.290   0.101   1.004  0.3736  1.2261  1.7510
 3403SOL     OW20312   4.235   1.165   0.398  0.0634  0.0234 -0.4042
 3403SOL    HW120313   4.250   1.258   0.364  0.7114  0.3060  0.6152
 3403SOL    HW220314   4.235   1.166   0.498  0.2331 -1.1020 -0.3869
 3404SOL     OW20315  10.001   5.812   1.678  0.0383 -0.0434  0.3357
 3404SOL    HW120316   9.972   5.822   1.773 -1.4790 -0.8310 -0.0307
 3404SOL    HW220317  10.065   5.735   1.670 -0.3782 -0.4212  0.6102
 3405SOL     OW20318   0.869   9.704   1.557  0.0587  0.1625  0.4747
 3405SOL    HW120319   0.793   9.718   1.621  0.6293  0.6149  1.0600
 3405SOL    HW220320   0.847   9.628   1.496 -0.4653 -0.3401  1.2716
 3406SOL     OW20321   4.358   8.669   2.401  1.0110  0.0176 -0.0232
 3406SOL    HW120322   4.397   8.753   2.439  1.0829 -0.0172 -0.0209
 3406SOL    HW220323   4.259   8.676   2.398  0.8935 -0.6363  1.7318
 3407SOL     OW20324   2.901   9.369   1.061 -0.3756 -0.6750  0.1770
 3407SOL    HW120325   2.883   9.392   1.157  0.6232 -2.0317  0.7069
 3407SOL    HW220326   2.911   9.454   1.009 -0.7650  0.0851  1.2985
 3408SOL     OW20327   0.745   0.453   1.413  0.5972  0.0705  0.8166
 3408SOL    HW120328   0.659   0.417   1.376  0.4278  0.7331  0.5610
 3408SOL    HW220329   0.802   0.485   1.337  1.1990 -0.6352  0.9603
 3409SOL     OW20330   0.613   1.464   2.225 -0.7669  0.1809 -0.2708
 3409SOL    HW120331   0.707   1.438   2.248  0.2420  2.8041 -1.1264
 3409SOL    HW220332   0.559   1.382   2.205 -0.0135 -1.7688  4.8464
 3410SOL     OW20333   0.954   3.976   0.473 -0.3570 -0.1691  0.3095
 3410SOL    HW120334   0.991   3.961   0.565 -0.6779 -0.3876  0.4022
 3410SOL    HW220335   0.877   4.040   0.478 -1.4236 -1.4591  0.4036
 3411SOL     OW20336   0.881   8.449   2.017 -0.2612  0.4500 -0.1360
 3411SOL    HW120337   0.953   8.510   2.051  1.3199 -1.0583 -0.7166
 3411SOL    HW220338   0.905   8.417   1.925 -0.8558 -1.3820  0.3255
 3412SOL     OW20339  10.036   6.867   2.602  0.0894 -0.3267 -0.1092
 3412SOL    HW120340  10.017   6.841   2.507 -0.4487 -1.6471  0.3608
 3412SOL    HW220341  10.055   6.965   2.606 -0.1618 -0.2097 -1.5437
 3413SOL     OW20342   1.040   4.592   1.379 -0.5910 -0.0451 -0.0193
 3413SOL    HW120343   0.974   4.634   1.442 -1.2576  1.7495 -1.8442
 3413SOL    HW220344   1.129   4.637   1.389 -0.2422 -0.8940  0.7938
 3414SOL     OW20345   1.561   2.578   2.199  0.2554  0.0872  0.0013
 3414SOL    HW120346   1.463   2.600   2.207  0.6178  1.6055  0.3684
 3414SOL    HW220347   1.573   2.479   2.201 -1.2485 -0.0999  0.3857
 3415SOL     OW20348   0.803   0.436   1.100 -0.3944  0.2192  0.4841
 3415SOL    HW120349   0.852   0.348   1.098 -0.1956  0.3209  0.7929
 3415SOL    HW220350   0.868   0.509   1.123 -0.6002  0.4187  0.4276
 3416SOL     OW20351   3.747   8.992   0.536  0.1606 -0.0575 -0.3944
 3416SOL    HW120352   3.779   9.074   0.490  2.3499 -0.1207  0.9781
 3416SOL    HW220353   3.710   9.016   0.626  0.1543 -0.4907 -0.2791
 3417SOL     OW20354   9.462   5.301   2.209 -0.1871 -0.6360  0.0275
 3417SOL    HW120355   9.405   5.251   2.143  0.3180 -0.9378 -0.1788
 3417SOL    HW220356   9.556   5.269   2.203  0.3410  0.9978 -0.7835
 3418SOL     OW20357   0.918   5.956   0.183  0.3708  0.0414 -0.8100
 3418SOL    HW120358   0.828   5.911   0.192  0.3265  0.3947  0.7022
 3418SOL    HW220359   0.983   5.911   0.244  1.0871  0.1316 -1.5103
 3419SOL     OW20360   0.554   1.084   0.380 -0.6487 -0.2717  0.0604
 3419SOL    HW120361   0.610   1.077   0.462 -0.2444  1.3339 -0.0492
 3419SOL    HW220362   0.607   1.057   0.300 -0.2471  0.5634  0.0407
 3420SOL     OW20363   9.655   5.034   1.728  0.4255  0.0753 -0.3453
 3420SOL    HW120364   9.624   5.057   1.820 -1.5953 -1.9126 -0.4693
 3420SOL    HW220365   9.665   4.935   1.720  2.8438  0.3926 -1.5956
 3421SOL     OW20366   0.359   6.382   1.458  0.2593  0.2291 -0.3553
 3421SOL    HW120367   0.307   6.463   1.432 -0.8393 -0.5941 -0.7482
 3421SOL    HW220368   0.411   6.348   1.379 -0.9247 -0.6632 -0.7660
 3422SOL     OW20369   4.305   9.192   0.809  0.1212  0.2962  0.0568
 3422SOL    HW120370   4.356   9.107   0.796  0.2722  0.4458 -0.3613
 3422SOL    HW220371   4.228   9.194   0.745 -0.3832  0.0889  0.6635
 3423SOL     OW20372   0.533   9.547   1.861 -0.0559 -0.1094 -0.1163
 3423SOL    HW120373   0.461   9.494   1.906  0.2704 -0.9159 -0.5305
 3423SOL    HW220374   0.595   9.584   1.929 -2.2513  2.7169  0.4568
 3424SOL     OW20375   2.238   7.629   1.480 -0.2586 -0.0474  0.2669
 3424SOL    HW120376   2.244   7.529   1.475  0.5431  0.0349 -0.4354
 3424SOL    HW220377   2.142   7.657   1.468 -0.3875 -0.6899 -0.2272
 3425SOL     OW20378   0.422   1.787   0.352  0.0775  0.0004 -0.0304
 3425SOL    HW120379   0.478   1.704   0.340 -0.9049 -0.4020 -2.0789
 3425SOL    HW220380   0.332   1.762   0.387  0.2419  0.3571  0.6509
 3426SOL     OW20381   9.865   6.503   0.601 -0.1731 -0.3583  0.4405
 3426SOL    HW120382   9.811   6.473   0.522  0.6963 -0.4292 -0.1428
 3426SOL    HW220383   9.947   6.446   0.608 -0.6161 -0.8431  1.8501
 3427SOL     OW20384   0.462   3.949   2.020 -0.1894  0.1922  0.2425
 3427SOL    HW120385   0.497   3.879   2.081  1.0175  0.7670  0.2197
 3427SOL    HW220386   0.426   4.025   2.074  0.5449  0.5396  0.2468
 3428SOL     OW20387   9.950   5.119   1.241 -0.0710 -0.7244  0.0100
 3428SOL    HW120388   9.911   5.146   1.153 -1.3233 -2.3339  0.0460
 3428SOL    HW220389  10.050   5.112   1.232 -0.1301 -0.2952 -1.1133
 3429SOL     OW20390   3.059   7.579   1.412  0.1477 -0.0940  0.4998
 3429SOL    HW120391   3.110   7.509   1.361  0.4597  0.0203  0.6508
 3429SOL    HW220392   3.028   7.650   1.349  1.3299  0.5227  0.6007
 3430SOL     OW20393   1.456   4.373   1.506  0.4506  0.4711 -0.0352
 3430SOL    HW120394   1.498   4.446   1.452 -1.1185  2.0122  0.8066
 3430SOL    HW220395   1.365   4.353   1.470  0.7616 -0.9005 -0.0943
 3431SOL     OW20396   2.143   2.707   1.890  0.3859  0.3983 -0.4785
 3431SOL    HW120397   2.185   2.797   1.896  0.3909  0.3977 -0.5073
 3431SOL    HW220398   2.212   2.636   1.908  0.3850  0.3995 -0.4697
 3432SOL     OW20399   2.962   9.909   0.545  0.3354  0.3709 -0.3331
 3432SOL    HW120400   3.055   9.932   0.516  1.0775  0.3844  2.0188
 3432SOL    HW220401   2.963   9.822   0.593 -1.1000 -0.2748 -1.4289
 3433SOL     OW20402   1.655   0.978   1.487 -0.1104 -0.0525 -0.2924
 3433SOL    HW120403   1.711   0.896   1.485 -1.2015 -0.8483  1.2498
 3433SOL    HW220404   1.576   0.967   1.425 -0.0609 -0.0196 -0.3613
 3434SOL     OW20405   0.399   3.014   2.463 -0.0991 -0.0994 -0.0838
 3434SOL    HW120406   0.299   3.022   2.463  0.0043  1.5503  1.4715
 3434SOL    HW220407   0.425   2.921   2.436 -1.9339  0.4983 -4.2804
 3435SOL     OW20408   4.758   3.168   1.349 -0.2876  0.6124 -0.3844
 3435SOL    HW120409   4.819   3.220   1.289  0.2694 -0.5084 -0.7965
 3435SOL    HW220410   4.720   3.090   1.300  0.8278 -0.8080  0.9456
 3436SOL     OW20411   3.281   8.342   1.235  0.6819  0.6413 -0.2789
 3436SOL    HW120412   3.273   8.284   1.316  1.0298 -0.6445 -1.1539
 3436SOL    HW220413   3.249   8.292   1.155 -1.0220  2.4042 -0.7338
 3437SOL     OW20414   1.985   8.395   2.753  0.5232 -0.3193  0.4812
 3437SOL    HW120415   1.939   8.381   2.665 -0.3718  1.5187  0.6382
 3437SOL    HW220416   2.004   8.306   2.795 -0.1604 -1.1789 -0.9868
 3438SOL     OW20417  10.262   1.698   2.273  0.0036 -0.6868  0.2013
 3438SOL    HW120418  10.300   1.778   2.320 -1.7546 -0.1012  0.6695
 3438SOL    HW220419  10.310   1.616   2.304  1.7129  0.1417 -0.1526
 3439SOL     OW20420   0.373   6.586   2.580  0.2461 -0.0309 -0.3861
 3439SOL    HW120421   0.415   6.670   2.546  0.7259 -0.1581 -0.1123
 3439SOL    HW220422   0.312   6.607   2.656 -1.0544  0.2917 -1.5006
 3440SOL     OW20423   1.025   8.483   0.692 -0.1164  1.0339  0.1821
 3440SOL    HW120424   0.963   8.434   0.752  0.5691 -1.7413 -1.2915
 3440SOL    HW220425   1.117   8.486   0.733  0.5048 -1.4194 -0.9420
 3441SOL     OW20426   3.964   2.356   0.286  0.1992  0.0542 -0.1520
 3441SOL    HW120427   3.882   2.379   0.234  0.9872 -0.2544 -1.5633
 3441SOL    HW220428   3.975   2.419   0.362 -0.7828  0.7454 -0.5828
 3442SOL     OW20429   2.395   2.163   2.319  0.0008  0.1037 -0.4859
 3442SOL    HW120430   2.430   2.245   2.273 -1.4636 -0.1782 -2.1637
 3442SOL    HW220431   2.297   2.175   2.337  0.1065 -0.6700  0.6464
 3443SOL     OW20432   2.418   5.390   0.719  0.4282 -0.5946 -0.1868
 3443SOL    HW120433   2.415   5.317   0.651  0.6614 -1.4214  0.6805
 3443SOL    HW220434   2.512   5.420   0.733  0.3477 -0.2172 -0.4438
 3444SOL     OW20435   2.501   8.289   0.958 -0.5330 -0.2097  0.3802
 3444SOL    HW120436   2.476   8.215   1.021  1.2025 -0.7863  0.4218
 3444SOL    HW220437   2.425   8.308   0.896 -1.0299 -1.9424  0.4483
 3445SOL     OW20438   2.249   9.764   0.746  0.1239 -0.0053 -0.1775
 3445SOL    HW120439   2.260   9.667   0.722  4.1920  0.2482  0.3418
 3445SOL    HW220440   2.249   9.773   0.845 -3.3306  0.2786 -0.1595
 3446SOL     OW20441   1.642   3.640   0.856  0.0864 -0.9722  0.6943
 3446SOL    HW120442   1.688   3.727   0.876  0.0961 -0.5854 -0.9852
 3446SOL    HW220443   1.584   3.615   0.934  0.5436  0.2287  1.4359
 3447SOL     OW20444   9.073   5.480   0.638 -0.0180  0.0819  0.3555
 3447SOL    HW120445   9.098   5.535   0.718  3.3622 -0.6798 -0.1126
 3447SOL    HW220446   9.097   5.530   0.555  1.7536 -1.4454 -0.0865
 3448SOL     OW20447   9.983   2.029   0.901  0.7482  0.5174  0.4406
 3448SOL    HW120448   9.959   1.992   0.991 -0.4572  0.4579  0.1000
 3448SOL    HW220449  10.082   2.033   0.893  0.8921 -1.1963  1.0836
 3449SOL     OW20450   2.214   1.180   1.986 -0.1602  0.3617  0.4171
 3449SOL    HW120451   2.217   1.170   2.085  1.5568 -1.1194  0.2426
 3449SOL    HW220452   2.298   1.224   1.954  0.4167 -1.3881 -0.5753
 3450SOL     OW20453   9.866   9.453   1.953  0.4671  0.4688 -0.5266
 3450SOL    HW120454   9.872   9.378   1.886 -1.6098  0.7477 -1.0611
 3450SOL    HW220455   9.901   9.537   1.912  0.6261  0.2998 -0.7389
 3451SOL     OW20456   0.717   1.072   0.590  0.1677 -0.2627  0.2132
 3451SOL    HW120457   0.799   1.051   0.537  0.1453 -0.1200  0.1188
 3451SOL    HW220458   0.737   1.063   0.688 -0.3639 -2.5360  0.1247
 3452SOL     OW20459   3.907   5.062   2.253  0.2599  0.1729  0.5544
 3452SOL    HW120460   3.877   5.028   2.343  1.9139 -0.8986  0.7076
 3452SOL    HW220461   3.826   5.089   2.200 -0.6976  1.5619  2.6378
 3453SOL     OW20462   2.009   3.112   1.549  0.5026  0.5295  0.0837
 3453SOL    HW120463   1.942   3.065   1.607  0.0109  1.0974 -0.0252
 3453SOL    HW220464   1.987   3.209   1.545 -0.4952  0.2429 -2.4371
 3454SOL     OW20465   1.797   4.816   0.997  0.2561 -0.0668  0.1392
 3454SOL    HW120466   1.721   4.763   0.958 -0.5944 -0.2071  1.9074
 3454SOL    HW220467   1.830   4.770   1.080  1.3694  0.7164  0.1384
 3455SOL     OW20468   9.503   7.037   1.888  0.0067  0.0602 -0.4901
 3455SOL    HW120469   9.509   7.053   1.790  1.4310  1.9172 -0.1319
 3455SOL    HW220470   9.431   7.093   1.927 -0.1752 -0.2439 -0.3902
 3456SOL     OW20471   0.496   1.301   1.604  0.5905  0.4166  0.7218
 3456SOL    HW120472   0.441   1.253   1.671  0.6867 -1.7022 -0.6721
 3456SOL    HW220473   0.452   1.296   1.514  3.2789 -1.8622 -0.5475
 3457SOL     OW20474   1.125   8.420   1.296  0.3891 -0.4313 -0.7736
 3457SOL    HW120475   1.186   8.487   1.255  3.2832 -2.2206  0.4743
 3457SOL    HW220476   1.109   8.345   1.232 -0.8602  0.2064 -1.2372
 3458SOL     OW20477   2.647   5.154   0.389  0.1425 -0.3638  0.2905
 3458SOL    HW120478   2.558   5.167   0.432 -0.0153 -0.6836  0.0621
 3458SOL    HW220479   2.653   5.211   0.307  0.3144 -0.0145  0.5422
 3459SOL     OW20480   0.588   0.841   1.922  0.1401 -0.0721  0.1788
 3459SOL    HW120481   0.666   0.791   1.883  0.5603 -0.1152  1.0776
 3459SOL    HW220482   0.504   0.794   1.898  0.4007 -0.1584 -0.5994
 3460SOL     OW20483   0.389   9.224   1.861  0.2668  0.8349 -0.1694
 3460SOL    HW120484   0.400   9.244   1.763  0.4495  0.4055 -0.2411
 3460SOL    HW220485   0.478   9.201   1.901  0.4067  2.3929  0.4225
 3461SOL     OW20486   9.898   9.547   0.457 -0.2587 -0.2575  0.3066
 3461SOL    HW120487   9.800   9.544   0.436 -0.2441  0.8815  0.0446
 3461SOL    HW220488   9.936   9.634   0.425  0.5581 -0.1233  1.6109
 3462SOL     OW20489   2.249   9.377   2.377 -0.2829 -0.7777 -0.4328
 3462SOL    HW120490   2.324   9.323   2.338  0.1050 -0.3375 -0.2963
 3462SOL    HW220491   2.274   9.474   2.377 -0.0762 -0.8243  1.3984
 3463SOL     OW20492   1.966   3.167   0.606 -0.2484  0.3555  0.4429
 3463SOL    HW120493   1.984   3.086   0.549 -0.3124 -0.6537  1.8292
 3463SOL    HW220494   2.040   3.177   0.673 -0.3497  1.3289  0.4079
 3464SOL     OW20495   0.878   2.654   1.626  0.5124 -0.4046 -0.1724
 3464SOL    HW120496   0.860   2.751   1.639 -0.6123 -0.8454  1.8826
 3464SOL    HW220497   0.803   2.612   1.574 -0.1812 -0.6045  0.9719
 3465SOL     OW20498   0.969   0.599   1.214 -0.4213  0.1059 -0.0404
 3465SOL    HW120499   0.924   0.687   1.231  0.0471  0.1687  0.9022
 3465SOL    HW220500   1.063   0.603   1.247 -0.4349 -0.7978  0.1279
 3466SOL     OW20501   9.928   9.980   0.967  0.0591  0.6341 -0.0048
 3466SOL    HW120502   9.981   9.997   0.883 -0.4179  3.1124  0.1618
 3466SOL    HW220503   9.897   9.884   0.968  4.6391 -0.9728 -0.0207
 3467SOL     OW20504   1.992   4.795   0.562  0.0233 -0.0577  0.1430
 3467SOL    HW120505   2.031   4.844   0.483 -1.0499 -0.8208 -0.8796
 3467SOL    HW220506   2.039   4.823   0.645  0.5054  1.5051 -0.6448
 3468SOL     OW20507   9.703   8.480   1.436  0.1011 -0.2133 -0.1866
 3468SOL    HW120508   9.713   8.557   1.374  1.4339 -0.4589 -0.2844
 3468SOL    HW220509   9.645   8.410   1.393  1.1258 -0.4395 -1.2093
 3469SOL     OW20510   3.689   4.163   2.093  0.0594 -0.2573 -0.2153
 3469SOL    HW120511   3.736   4.243   2.056  1.0857 -1.0798 -0.7222
 3469SOL    HW220512   3.706   4.084   2.034 -0.8516 -0.8796  0.3362
 3470SOL     OW20513  10.174   9.994   1.656 -0.4172  0.1081  0.2914
 3470SOL    HW120514  10.227   9.910   1.644 -1.0873 -0.4943  1.3615
 3470SOL    HW220515  10.116  10.009   1.576 -0.0686 -0.2779 -0.0360
 3471SOL     OW20516   1.272   9.127   0.240  0.7508  0.2348  0.4572
 3471SOL    HW120517   1.262   9.029   0.254 -1.7185  0.5764  1.2828
 3471SOL    HW220518   1.356   9.145   0.187  1.4339 -2.2531  0.6501
 3472SOL     OW20519   1.430   3.963   2.231 -0.0333 -0.2232  0.1261
 3472SOL    HW120520   1.341   3.947   2.274 -0.8491  0.1046 -1.4151
 3472SOL    HW220521   1.433   3.918   2.142  1.7294 -1.0919  0.6110
 3473SOL     OW20522   9.800   6.994   2.146 -0.0576 -0.8563 -0.3724
 3473SOL    HW120523   9.849   6.928   2.090  0.8112 -1.0009  0.5503
 3473SOL    HW220524   9.715   6.953   2.181  0.0810 -1.2135 -0.4586
 3474SOL     OW20525   1.678   4.011   0.375  0.0532  0.0054 -0.3412
 3474SOL    HW120526   1.643   4.100   0.345 -0.4269 -0.1474 -0.2310
 3474SOL    HW220527   1.765   3.993   0.330 -0.0208  0.3709 -0.6353
 3475SOL     OW20528   1.589   0.426   0.151  0.1839 -0.0777  0.0989
 3475SOL    HW120529   1.550   0.495   0.091  1.4397 -0.1729 -0.8399
 3475SOL    HW220530   1.666   0.465   0.201 -0.5699 -0.1287  1.3177
 3476SOL     OW20531   1.764   3.891   0.894 -0.3194 -0.2040 -0.7731
 3476SOL    HW120532   1.738   3.964   0.957  0.9594  0.6494 -1.2099
 3476SOL    HW220533   1.750   3.922   0.800  1.1778 -0.1393 -0.9864
 3477SOL     OW20534   0.909   8.823   0.366 -0.6343  0.3220 -0.4093
 3477SOL    HW120535   0.898   8.920   0.347  0.6447  0.5867  0.1933
 3477SOL    HW220536   0.963   8.810   0.449 -1.9249 -0.8915  0.2820
 3478SOL     OW20537   9.103   6.248   0.615 -0.7263 -0.4843  0.2337
 3478SOL    HW120538   9.052   6.167   0.586 -1.0283  0.3090 -1.4770
 3478SOL    HW220539   9.060   6.287   0.696 -1.3215 -1.2941  0.3123
 3479SOL     OW20540   1.188   7.982   1.684  0.0459  0.1649  0.2105
 3479SOL    HW120541   1.150   7.896   1.716 -0.1351 -0.3011 -1.2021
 3479SOL    HW220542   1.187   7.984   1.584 -0.5830  2.0869  0.2283
 3480SOL     OW20543   4.718   3.670   0.730 -0.4226 -0.0106  0.0015
 3480SOL    HW120544   4.680   3.622   0.651  0.3666  2.0039 -1.6358
 3480SOL    HW220545   4.682   3.764   0.733  2.1240  0.9906  0.1045
 3481SOL     OW20546   9.478   2.025   2.081 -0.2473  0.2276 -0.0565
 3481SOL    HW120547   9.461   1.956   2.151  1.2957  0.3625  0.4510
 3481SOL    HW220548   9.576   2.040   2.071 -0.5802  2.7418  0.2208
 3482SOL     OW20549   2.091   5.719   0.834 -0.2855 -0.6210  0.7849
 3482SOL    HW120550   2.015   5.762   0.883 -1.8592 -1.1154 -1.1261
 3482SOL    HW220551   2.085   5.743   0.737  1.9126 -0.8375  0.5787
 3483SOL     OW20552   1.089   1.542   0.831 -0.3669  0.2259  0.1024
 3483SOL    HW120553   1.041   1.520   0.746 -0.0867 -1.1597  0.2815
 3483SOL    HW220554   1.180   1.501   0.829  0.1020  1.2400  0.5583
 3484SOL     OW20555   1.363   8.271   2.288  0.1793 -0.5674 -0.2989
 3484SOL    HW120556   1.346   8.348   2.350 -0.2914 -1.2966  0.4969
 3484SOL    HW220557   1.439   8.217   2.323  2.0443  0.8444 -2.1071
 3485SOL     OW20558   1.394   5.851   1.254 -0.2255 -0.0882 -0.2734
 3485SOL    HW120559   1.352   5.815   1.337  1.8859 -0.7003  0.5879
 3485SOL    HW220560   1.447   5.778   1.210  2.6247  1.4221  0.4965
 3486SOL     OW20561   3.764   5.111   1.207 -0.1151  0.6540  0.2426
 3486SOL    HW120562   3.862   5.104   1.228  0.0989 -0.0909 -0.9525
 3486SOL    HW220563   3.714   5.137   1.290  0.8991 -0.4732  1.2251
 3487SOL     OW20564   9.211   7.106   0.573  0.0517  0.0626 -0.3868
 3487SOL    HW120565   9.177   7.110   0.667  1.2165 -1.3735  0.1150
 3487SOL    HW220566   9.137   7.077   0.513 -0.4036 -0.0981  0.2398
 3488SOL     OW20567   0.533   3.808   2.482  0.6769 -0.2027 -0.1539
 3488SOL    HW120568   0.516   3.874   2.555  1.3141  1.6075 -1.5968
 3488SOL    HW220569   0.447   3.786   2.436  0.2892 -1.2798  1.0719
 3489SOL     OW20570   1.332   7.097   2.529 -0.0170 -0.0056  0.0173
 3489SOL    HW120571   1.243   7.070   2.568 -0.3051  1.0607  0.1025
 3489SOL    HW220572   1.334   7.196   2.515  0.2700 -0.2971 -2.2261
 3490SOL     OW20573   0.770   7.486   0.604 -0.4522 -0.1154  0.6250
 3490SOL    HW120574   0.806   7.555   0.541  0.7274 -0.0346  1.3737
 3490SOL    HW220575   0.719   7.531   0.678  0.4324 -0.0265  1.1880
 3491SOL     OW20576   2.385   1.555   1.695 -0.3474  0.2641 -0.3930
 3491SOL    HW120577   2.397   1.558   1.596  0.8934  3.7600 -0.2178
 3491SOL    HW220578   2.292   1.583   1.719 -1.2714 -2.4816 -0.6090
 3492SOL     OW20579   0.495   3.512   0.366 -0.0503  0.0560  0.0202
 3492SOL    HW120580   0.483   3.426   0.416 -0.3626 -0.1550 -0.4124
 3492SOL    HW220581   0.407   3.544   0.333  0.0157  0.7583  0.5320
 3493SOL     OW20582   1.888   6.025   2.491 -0.3438 -0.2033 -0.0965
 3493SOL    HW120583   1.789   6.015   2.483 -0.2541 -0.9817 -0.3030
 3493SOL    HW220584   1.927   6.051   2.403 -0.3526 -0.0318 -0.0489
 3494SOL     OW20585   4.030   8.771   2.122  0.5266  0.2652 -0.1657
 3494SOL    HW120586   3.968   8.848   2.131  0.1412 -0.1029  0.3162
 3494SOL    HW220587   4.120   8.804   2.090 -0.7748  0.4700 -3.9197
 3495SOL     OW20588   3.978   8.750   0.286 -0.5155  0.2643 -0.0768
 3495SOL    HW120589   3.999   8.846   0.269 -0.0749  0.2613  0.4180
 3495SOL    HW220590   3.906   8.719   0.223 -2.0180  1.4322  1.0234
 3496SOL     OW20591   4.194   4.376   1.459 -0.4614  0.5569 -0.3560
 3496SOL    HW120592   4.287   4.365   1.494 -0.7682  0.3332  0.3972
 3496SOL    HW220593   4.155   4.287   1.439 -0.8224  0.6006  0.1432
 3497SOL     OW20594   2.082   6.503   0.486 -0.2114  0.2383  0.0117
 3497SOL    HW120595   2.069   6.406   0.504  1.0114 -0.0420 -0.6347
 3497SOL    HW220596   2.047   6.525   0.395  3.2943 -0.4378 -1.5696
 3498SOL     OW20597   9.413   1.692   0.312  0.0186 -0.0368  0.6529
 3498SOL    HW120598   9.511   1.688   0.292 -0.1451 -0.1688 -0.1758
 3498SOL    HW220599   9.383   1.605   0.352  0.2082 -0.0696  0.7223
 3499SOL     OW20600   2.353   9.469   0.418 -0.3563 -0.0461 -0.1506
 3499SOL    HW120601   2.409   9.482   0.500  0.2411 -0.0371 -0.5493
 3499SOL    HW220602   2.307   9.380   0.422 -0.6174  0.1134  0.3586
 3500SOL     OW20603   4.005   5.065   0.379  0.4527 -0.1783 -0.2162
 3500SOL    HW120604   4.007   5.155   0.422  1.7378 -0.1217 -0.3707
 3500SOL    HW220605   4.097   5.027   0.377 -0.1904 -1.8444  0.5523
 3501SOL     OW20606   1.023   7.758   1.086  0.3805  0.7808 -0.4828
 3501SOL    HW120607   1.082   7.833   1.057  0.9718  0.2261 -0.7189
 3501SOL    HW220608   0.933   7.770   1.046 -0.0198  2.2438  0.7724
 3502SOL     OW20609   3.957   5.738   1.519 -0.0889  0.2936 -0.5292
 3502SOL    HW120610   4.042   5.744   1.573 -0.0086 -0.3581 -0.5737
 3502SOL    HW220611   3.978   5.750   1.422  0.0257 -0.3632 -0.5882
 3503SOL     OW20612   3.071   3.154   2.259 -0.0714 -0.1861 -0.3232
 3503SOL    HW120613   3.140   3.226   2.260  0.8794 -1.0870  1.1732
 3503SOL    HW220614   3.114   3.068   2.231 -0.2810 -1.0374  1.8737
 3504SOL     OW20615   4.854   4.110   0.650  0.5298 -0.2169 -0.1829
 3504SOL    HW120616   4.884   4.120   0.745 -4.4507 -1.5474  1.6729
 3504SOL    HW220617   4.830   4.199   0.613 -0.2849 -0.0142  0.8161
 3505SOL     OW20618   3.544   4.040   0.589  0.1227  0.6236  0.5201
 3505SOL    HW120619   3.544   3.979   0.509  0.6335 -0.0784  1.0534
 3505SOL    HW220620   3.619   4.014   0.650  0.3342  1.7832  0.7572
 3506SOL     OW20621   0.631   8.230   0.138 -0.4822 -0.3265 -0.0222
 3506SOL    HW120622   0.675   8.141   0.151 -0.8857 -0.3252  1.5003
 3506SOL    HW220623   0.573   8.250   0.217 -0.3810  1.2959 -0.3410
 3507SOL     OW20624   0.693   3.836   0.077 -0.3025  0.3440  0.4528
 3507SOL    HW120625   0.717   3.909   0.142  1.1882  0.9654 -0.7390
 3507SOL    HW220626   0.692   3.748   0.124  3.5570  0.3925  0.8346
 3508SOL     OW20627   9.224   3.329   2.079 -0.0354 -0.4489  0.2331
 3508SOL    HW120628   9.160   3.255   2.056 -1.2309  0.5689  0.2323
 3508SOL    HW220629   9.203   3.364   2.170  1.0680 -0.6593  0.5778
 3509SOL     OW20630   3.103   3.247   1.672 -0.0125  0.0069  0.0494
 3509SOL    HW120631   3.160   3.246   1.590  0.2243  1.2062  0.2002
 3509SOL    HW220632   3.066   3.155   1.687 -0.2476 -0.1702 -1.5231
 3510SOL     OW20633   4.091   0.051   2.137 -0.5501 -0.2018  0.2569
 3510SOL    HW120634   4.067   0.126   2.074  0.7158  0.0069  0.0229
 3510SOL    HW220635   4.160   0.083   2.202 -0.3858 -1.0248  0.4816
 3511SOL     OW20636   4.389   9.886   2.246 -0.4182 -0.4021  0.0975
 3511SOL    HW120637   4.378   9.793   2.281 -0.0481 -0.2207  0.7164
 3511SOL    HW220638   4.485   9.913   2.255 -0.1025 -0.7423 -2.0728
 3512SOL     OW20639   2.535   8.014   0.784  0.5934 -0.3090  0.6425
 3512SOL    HW120640   2.435   8.014   0.797  0.5751  1.4028  0.4902
 3512SOL    HW220641   2.565   7.920   0.764 -1.0838 -0.7170 -0.0640
 3513SOL     OW20642   9.698   6.118   1.498  0.2061  1.0600  0.1336
 3513SOL    HW120643   9.720   6.079   1.409  1.5136 -2.0187  1.7110
 3513SOL    HW220644   9.758   6.196   1.516  0.2395  1.4183 -1.4389
 3514SOL     OW20645   1.845   9.197   1.248 -0.6139 -0.0497  0.1168
 3514SOL    HW120646   1.755   9.215   1.209 -0.3615  0.9634 -0.0187
 3514SOL    HW220647   1.854   9.100   1.270 -1.1574 -0.4250 -1.3312
 3515SOL     OW20648   3.583   0.447   2.204 -0.0820 -0.2949 -0.4663
 3515SOL    HW120649   3.497   0.480   2.243 -1.3217 -1.7832 -1.8527
 3515SOL    HW220650   3.569   0.355   2.168  1.6620  0.1196 -2.2482
 3516SOL     OW20651   2.226   5.478   0.899 -0.0169  0.0598 -0.5839
 3516SOL    HW120652   2.293   5.444   0.832  0.0674 -0.8071 -0.0612
 3516SOL    HW220653   2.188   5.565   0.866  1.5027  0.6729 -0.8000
 3517SOL     OW20654   0.942   7.695   0.132 -0.1647 -0.1218 -0.1276
 3517SOL    HW120655   0.948   7.627   0.205  0.4660  0.6815  0.5633
 3517SOL    HW220656   0.846   7.705   0.105 -0.3336 -0.8611  0.1615
 3518SOL     OW20657  10.299   8.404   1.222 -0.1518 -0.3616  0.9544
 3518SOL    HW120658  10.223   8.466   1.239  1.1160  1.4419  0.1886
 3518SOL    HW220659  10.355   8.396   1.304 -1.1356 -1.6770  1.5126
 3519SOL     OW20660   4.539   1.743   2.467  0.4404 -0.5660  0.4897
 3519SOL    HW120661   4.570   1.756   2.373 -1.9177 -0.1766 -0.2618
 3519SOL    HW220662   4.516   1.832   2.507  0.2488 -0.8494  1.0057
 3520SOL     OW20663   0.517   7.995   0.717 -0.0915  0.5449  0.4876
 3520SOL    HW120664   0.502   8.066   0.786  0.6960  0.6624  0.5404
 3520SOL    HW220665   0.441   7.996   0.651 -2.3450 -1.4698  2.9570
 3521SOL     OW20666   9.833   1.242   2.095  0.2174 -0.4510 -0.4965
 3521SOL    HW120667   9.931   1.227   2.089  0.0818 -2.8120  2.1637
 3521SOL    HW220668   9.784   1.168   2.050 -0.3636  0.4425 -1.3581
 3522SOL     OW20669   9.438   2.849   1.912  0.0780 -0.3291 -0.3759
 3522SOL    HW120670   9.400   2.839   2.004 -0.4106  0.1372 -0.5268
 3522SOL    HW220671   9.426   2.943   1.880 -1.1271 -0.8612 -1.5220
 3523SOL     OW20672   9.689   5.842   2.608  0.1568 -0.0663  0.1919
 3523SOL    HW120673   9.590   5.831   2.609  0.2901 -1.3292  1.4102
 3523SOL    HW220674   9.733   5.753   2.622  1.4304  0.6797  1.1254
 3524SOL     OW20675   9.512   4.832   2.468 -0.4046  0.0575  0.1246
 3524SOL    HW120676   9.518   4.733   2.480 -1.2947 -0.0576 -0.3379
 3524SOL    HW220677   9.420   4.863   2.490 -0.9057  0.4028 -2.2487
 3525SOL     OW20678   3.398   7.852   1.081  0.2592 -0.3011 -0.2797
 3525SOL    HW120679   3.450   7.772   1.114  1.9872  0.1042 -1.9077
 3525SOL    HW220680   3.462   7.927   1.062 -1.1269  0.7479 -0.8222
 3526SOL     OW20681   1.708   4.512   1.041  0.1890 -0.3234  0.2838
 3526SOL    HW120682   1.627   4.514   0.982 -1.3178 -1.0496  2.2621
 3526SOL    HW220683   1.758   4.427   1.026 -1.9152 -1.9787  2.2128
 3527SOL     OW20684   9.459   6.659   0.371  0.3087 -0.5532 -0.6028
 3527SOL    HW120685   9.552   6.696   0.384 -0.2008  0.2408  1.0182
 3527SOL    HW220686   9.436   6.600   0.448 -0.5854 -0.6294 -0.9220
 3528SOL     OW20687   2.259   1.348   0.478  0.3131 -0.1299 -0.3780
 3528SOL    HW120688   2.336   1.352   0.415 -0.1640  0.8324 -0.9107
 3528SOL    HW220689   2.276   1.407   0.557  0.2343 -0.1093 -0.3758
 3529SOL     OW20690   9.738   1.934   0.783  0.1165 -0.7390  0.9748
 3529SOL    HW120691   9.678   2.008   0.752  0.6820 -0.9978 -0.8252
 3529SOL    HW220692   9.816   1.973   0.833 -0.5888 -0.2662  1.7002
 3530SOL     OW20693   1.867   6.771   0.567  0.0446 -0.1513 -0.2857
 3530SOL    HW120694   1.783   6.821   0.590 -0.1981 -0.7795  0.2052
 3530SOL    HW220695   1.930   6.776   0.645  0.0248 -0.6030 -0.2410
 3531SOL     OW20696   4.547   0.217   1.137  0.2747 -0.1219 -0.1014
 3531SOL    HW120697   4.589   0.156   1.070 -0.4428  0.3711 -1.0034
 3531SOL    HW220698   4.573   0.312   1.117  0.1572  0.0172  0.3938
 3532SOL     OW20699   1.568   8.709   1.113 -0.2542 -0.0613  0.3190
 3532SOL    HW120700   1.588   8.693   1.017  1.6027  0.6333  0.5748
 3532SOL    HW220701   1.551   8.806   1.129 -0.0753 -0.0995  0.7698
 3533SOL     OW20702   9.437   7.324   1.540 -0.4600 -0.6484 -0.2982
 3533SOL    HW120703   9.431   7.391   1.466  0.2862 -0.5664 -0.2957
 3533SOL    HW220704   9.492   7.246   1.510 -1.5673 -1.3945 -0.3966
 3534SOL     OW20705   1.255   4.316   1.145 -0.3737  0.0100 -0.3743
 3534SOL    HW120706   1.218   4.228   1.176  1.4380 -0.2150  1.2625
 3534SOL    HW220707   1.248   4.383   1.219  0.8206  0.4571 -0.6574
 3535SOL     OW20708   2.510   9.482   2.684  0.0261 -0.5915 -0.6068
 3535SOL    HW120709   2.608   9.492   2.697  0.4437 -0.7818 -3.4084
 3535SOL    HW220710   2.471   9.570   2.655 -0.3173 -0.9969 -1.3862
 3536SOL     OW20711   0.837   2.696   0.216 -0.0203 -0.4117  0.5029
 3536SOL    HW120712   0.871   2.749   0.139 -1.9388  0.9296  0.5235
 3536SOL    HW220713   0.892   2.614   0.228  1.1063  0.0321 -1.4699
 3537SOL     OW20714   9.671   8.705   1.255  0.0506 -0.3215 -0.7851
 3537SOL    HW120715   9.689   8.783   1.315  0.3364 -0.9888  0.0030
 3537SOL    HW220716   9.693   8.730   1.161  0.2878  0.4999 -0.5152
 3538SOL     OW20717   9.083   8.387   1.331  0.0030  0.1008 -0.6265
 3538SOL    HW120718   9.119   8.477   1.356 -2.2581  0.6445  0.8026
 3538SOL    HW220719   9.055   8.389   1.235  2.3002  0.1300 -1.3166
 3539SOL     OW20720   2.503   5.027   0.106  0.3612  0.8726 -0.1191
 3539SOL    HW120721   2.407   5.003   0.117  0.5414  0.0015 -0.4265
 3539SOL    HW220722   2.560   4.962   0.158  0.9262 -0.1891 -2.0293
 3540SOL     OW20723   2.202   8.624   1.497  0.4360 -0.2712 -0.2876
 3540SOL    HW120724   2.219   8.687   1.421  1.5343 -1.2642 -0.8848
 3540SOL    HW220725   2.248   8.537   1.479 -2.6810 -1.9531 -0.3897
 3541SOL     OW20726   3.836   3.320   0.909 -0.0461  0.0088 -0.1650
 3541SOL    HW120727   3.807   3.294   0.817 -0.1644  1.2289 -0.4776
 3541SOL    HW220728   3.784   3.400   0.939 -1.0136 -1.2131  1.5214
 3542SOL     OW20729   3.508   0.239   0.954 -0.2796 -0.1739  0.1589
 3542SOL    HW120730   3.466   0.225   0.865 -0.1407 -0.5046  0.1428
 3542SOL    HW220731   3.594   0.288   0.943 -0.7147  0.6051  0.2033
 3543SOL     OW20732   2.043   6.295   2.596 -0.7033  1.0995 -0.9963
 3543SOL    HW120733   1.999   6.249   2.519 -1.2241 -0.1612  0.0413
 3543SOL    HW220734   2.081   6.227   2.659  0.3680  2.1337 -0.5039
 3544SOL     OW20735   2.344   0.178   0.877  0.0532  0.3072  0.2418
 3544SOL    HW120736   2.309   0.224   0.959 -0.9553 -1.6829  0.9763
 3544SOL    HW220737   2.387   0.092   0.904  0.6747  0.1419 -1.2363
 3545SOL     OW20738   4.431   3.169   1.694 -0.6144 -0.5825  0.6203
 3545SOL    HW120739   4.415   3.132   1.603 -0.5094  1.3265 -0.2012
 3545SOL    HW220740   4.528   3.167   1.715 -0.4316  0.5960 -0.0497
 3546SOL     OW20741   2.502   0.459   2.374  0.1649 -0.6808 -0.5299
 3546SOL    HW120742   2.564   0.460   2.453 -1.1424 -1.1286  0.5282
 3546SOL    HW220743   2.435   0.533   2.384  2.1926  1.6322 -3.0753
 3547SOL     OW20744   0.606   3.470   1.190 -0.1046 -0.4184 -0.0551
 3547SOL    HW120745   0.627   3.374   1.168  1.3601 -0.4212  1.2705
 3547SOL    HW220746   0.614   3.484   1.289  2.1958  1.6682 -0.5037
 3548SOL     OW20747   4.478   9.437   2.449  1.0695  0.3714  0.0290
 3548SOL    HW120748   4.420   9.425   2.529  1.9709  1.3590  0.8534
 3548SOL    HW220749   4.564   9.387   2.461 -0.4834 -3.0042 -2.1790
 3549SOL     OW20750  10.311   5.441   0.666 -0.0847 -0.4131 -0.2273
 3549SOL    HW120751  10.313   5.529   0.619 -0.1741 -0.1940  0.1722
 3549SOL    HW220752  10.350   5.371   0.607 -1.0561 -0.3165 -0.9791
 3550SOL     OW20753   0.732   9.414   1.050  0.2794 -0.5618  0.0126
 3550SOL    HW120754   0.677   9.486   1.006  0.9707  1.1403  1.8334
 3550SOL    HW220755   0.760   9.445   1.141  0.9232 -3.0164  0.6857
 3551SOL     OW20756   1.717   4.771   0.553 -0.0685 -0.1430  0.1025
 3551SOL    HW120757   1.696   4.782   0.456  1.5404  2.3553  0.0184
 3551SOL    HW220758   1.816   4.764   0.565 -0.2873 -0.9081  1.5304
 3552SOL     OW20759   9.499   5.941   2.239  0.1501  0.2544 -0.1776
 3552SOL    HW120760   9.535   6.021   2.192  2.4946 -1.1957 -0.9133
 3552SOL    HW220761   9.422   5.904   2.188  0.0474  1.1193 -0.6610
 3553SOL     OW20762   1.575   3.542   1.519 -0.0679  0.8010 -0.6369
 3553SOL    HW120763   1.592   3.598   1.600 -0.8186  0.3987 -0.1917
 3553SOL    HW220764   1.480   3.509   1.521 -0.1838  1.0663 -1.8511
 3554SOL     OW20765   1.078   8.409   1.782  0.4122  0.6754 -0.3561
 3554SOL    HW120766   1.159   8.364   1.819 -1.1838 -0.9258  1.3124
 3554SOL    HW220767   1.067   8.383   1.686 -0.0734 -1.9730  0.3764
 3555SOL     OW20768   0.628   8.492   0.884 -0.5307 -0.1543  0.2274
 3555SOL    HW120769   0.672   8.539   0.807 -1.3444  0.4135  0.1037
 3555SOL    HW220770   0.650   8.540   0.969  1.9655 -1.8777  0.6268
 3556SOL     OW20771   2.356   4.259   0.431  0.0221  0.3142  0.2013
 3556SOL    HW120772   2.330   4.329   0.497 -1.4293 -1.1624  1.2462
 3556SOL    HW220773   2.368   4.171   0.478 -1.2100 -0.8124 -1.5145
 3557SOL     OW20774   3.875   2.803   0.220  0.2757 -0.2058  0.8597
 3557SOL    HW120775   3.810   2.738   0.260  1.0246 -0.8878  0.9874
 3557SOL    HW220776   3.927   2.758   0.147  0.9972  0.1681  1.1325
 3558SOL     OW20777  10.005   5.116   0.507  0.5702 -0.2064 -0.1815
 3558SOL    HW120778   9.999   5.034   0.450 -0.4145  0.2174 -0.6947
 3558SOL    HW220779  10.099   5.151   0.505  0.4335  0.0779 -1.9411
 3559SOL     OW20780   3.491   0.494   2.567 -0.5629 -0.9125  0.2367
 3559SOL    HW120781   3.508   0.396   2.560 -1.7665 -1.0943 -0.2083
 3559SOL    HW220782   3.433   0.524   2.492  1.3795  0.5269 -0.7512
 3560SOL     OW20783   9.551   2.100   0.664 -0.1611  0.0593 -0.2504
 3560SOL    HW120784   9.528   2.167   0.734  0.0029 -0.2617  0.1166
 3560SOL    HW220785   9.501   2.120   0.580 -1.0531 -0.0876  0.2426
 3561SOL     OW20786   4.234   4.597   2.682 -0.0758 -0.0181 -0.7041
 3561SOL    HW120787   4.262   4.675   2.626  2.1238 -0.8110 -0.7595
 3561SOL    HW220788   4.281   4.601   2.771 -2.4463  0.4609  0.5608
 3562SOL     OW20789  10.056   7.236   1.514  0.2214  0.1865  0.4728
 3562SOL    HW120790  10.096   7.283   1.593 -0.2487  0.7898  0.3566
 3562SOL    HW220791  10.074   7.289   1.431  0.9365 -0.5777  0.1377
 3563SOL     OW20792   3.712   8.842   1.800 -0.1637  0.0256 -0.2311
 3563SOL    HW120793   3.638   8.887   1.849 -0.3164 -0.0318 -0.4076
 3563SOL    HW220794   3.798   8.889   1.820 -0.3448  0.4917 -0.5371
 3564SOL     OW20795   1.346   5.582   0.177  0.6687 -0.7815  0.1804
 3564SOL    HW120796   1.345   5.563   0.079  0.6138  1.0760 -0.2066
 3564SOL    HW220797   1.283   5.520   0.223  0.3688 -1.3978 -1.0200
 3565SOL     OW20798   3.084   0.426   1.460  0.4240  0.3680 -0.1503
 3565SOL    HW120799   3.034   0.361   1.518 -2.0279 -0.1557 -2.7255
 3565SOL    HW220800   3.135   0.375   1.390  2.0052  1.0620  0.4776
 3566SOL     OW20801   4.036   1.355   1.075  0.0490  0.0414  0.1342
 3566SOL    HW120802   3.958   1.317   1.025  0.3385 -0.8164  0.3327
 3566SOL    HW220803   4.108   1.286   1.082 -0.1019  0.0514  1.9788
 3567SOL     OW20804   4.855   2.897   1.666 -0.1576 -0.1711 -0.2712
 3567SOL    HW120805   4.781   2.841   1.630 -0.1181 -0.5829  0.2917
 3567SOL    HW220806   4.906   2.939   1.590 -2.0604  1.5528 -0.6350
 3568SOL     OW20807  10.062   7.132   2.564  0.3957 -0.3831 -0.6404
 3568SOL    HW120808  10.157   7.116   2.538  0.6595  0.0082  0.0785
 3568SOL    HW220809  10.059   7.173   2.655 -0.4857 -1.0538 -0.3595
 3569SOL     OW20810  10.312   1.319   0.076 -0.6122 -0.4609  0.2554
 3569SOL    HW120811  10.304   1.220   0.067  2.0520 -0.5580 -1.7660
 3569SOL    HW220812  10.353   1.341   0.164  0.8515 -1.3007 -0.2014
 3570SOL     OW20813   0.473   1.810   1.035  0.1012 -0.1699 -0.0861
 3570SOL    HW120814   0.545   1.877   1.052 -1.0334  1.3769 -1.1757
 3570SOL    HW220815   0.433   1.826   0.944 -1.0104 -1.5566  0.1344
 3571SOL     OW20816   0.587   4.733   2.785 -0.0399 -0.6251  0.5163
 3571SOL    HW120817   0.609   4.647   2.831  0.1484 -0.3250  0.9978
 3571SOL    HW220818   0.504   4.722   2.731  0.8748 -1.5637 -0.7129
 3572SOL     OW20819   0.742   9.906   1.933  0.5863  0.3236  0.3930
 3572SOL    HW120820   0.745   9.938   1.838 -1.1792  2.6570  1.0771
 3572SOL    HW220821   0.823   9.940   1.982  1.2185 -0.4161 -0.1332
 3573SOL     OW20822   2.135   9.584   0.299 -0.1822  0.8461 -0.1603
 3573SOL    HW120823   2.092   9.649   0.361 -0.1698  1.5279 -0.8512
 3573SOL    HW220824   2.226   9.560   0.333 -1.1045 -0.6111  1.3099
 3574SOL     OW20825   2.505   3.561   2.175 -0.4870  0.4486  0.2885
 3574SOL    HW120826   2.483   3.466   2.196 -1.2314  0.5784  0.0908
 3574SOL    HW220827   2.598   3.566   2.137  0.0113 -0.0554  1.4165
 3575SOL     OW20828   0.872   8.024   2.668 -0.3982  0.5349 -0.3345
 3575SOL    HW120829   0.802   8.011   2.598  0.2504 -0.7710 -0.7765
 3575SOL    HW220830   0.954   7.972   2.642  0.4613  1.4462  0.5355
 3576SOL     OW20831   8.665   6.969   1.897  0.3149  0.3169 -0.1888
 3576SOL    HW120832   8.692   7.065   1.909 -1.7328  0.8320  0.3912
 3576SOL    HW220833   8.621   6.936   1.980  0.1348 -0.8444 -0.7372
 3577SOL     OW20834   1.902   0.531   2.753  0.2563 -0.6181  0.3681
 3577SOL    HW120835   1.836   0.565   2.821 -0.4343 -0.5645 -0.3178
 3577SOL    HW220836   1.906   0.594   2.676  1.2406 -0.5409  0.4842
 3578SOL     OW20837   1.515   4.455   1.242  0.1841  0.1133 -0.0704
 3578SOL    HW120838   1.460   4.373   1.225  0.0559  0.2257 -0.1922
 3578SOL    HW220839   1.597   4.453   1.185  0.6885 -0.4289  0.6657
 3579SOL     OW20840   2.756   1.701   2.793 -0.1209  0.8476  0.0484
 3579SOL    HW120841   2.760   1.620   2.734 -1.8520  1.1978 -0.5645
 3579SOL    HW220842   2.848   1.724   2.825  0.4662 -0.9508 -0.3335
 3580SOL     OW20843   2.340   1.002   1.060  0.0410  0.1329 -0.4930
 3580SOL    HW120844   2.340   1.096   1.096  0.5551 -0.4888  1.1790
 3580SOL    HW220845   2.249   0.979   1.026 -0.3844  0.8562  0.1402
 3581SOL     OW20846   1.166   4.673   2.764  0.1873 -0.4951 -0.4337
 3581SOL    HW120847   1.200   4.690   2.856 -1.4150 -0.0043  0.0807
 3581SOL    HW220848   1.078   4.719   2.751  1.2442  0.9596 -2.8182
 3582SOL     OW20849   4.242   2.375   0.197 -0.2671  0.0401 -0.2407
 3582SOL    HW120850   4.143   2.365   0.184 -0.2676  1.2172 -1.2108
 3582SOL    HW220851   4.290   2.342   0.116  0.1717 -0.9889  0.4266
 3583SOL     OW20852   2.879   4.893   1.025 -0.0603 -0.1065  0.2310
 3583SOL    HW120853   2.925   4.900   0.937  0.1108  0.6117  0.3729
 3583SOL    HW220854   2.848   4.984   1.054  1.6589 -0.0073  1.8486
 3584SOL     OW20855   0.631   0.300   1.989 -0.0652  0.0246  0.0004
 3584SOL    HW120856   0.548   0.357   1.992 -0.3564 -0.3678 -0.4674
 3584SOL    HW220857   0.608   0.206   2.014  0.5366  0.2357  1.3889
 3585SOL     OW20858   2.666   2.929   1.656  0.1830  0.1205  0.0615
 3585SOL    HW120859   2.577   2.935   1.702  1.1296 -0.5931  2.0380
 3585SOL    HW220860   2.715   3.016   1.668 -0.5584  0.8228 -1.7572
 3586SOL     OW20861   9.863   3.446   1.156 -0.6238  0.4685  0.2558
 3586SOL    HW120862   9.870   3.443   1.056 -0.4458  1.4939  0.2293
 3586SOL    HW220863   9.918   3.522   1.190  0.1451 -0.5103  1.2211
 3587SOL     OW20864   0.814   7.172   1.949 -0.2044 -0.7861  0.5639
 3587SOL    HW120865   0.834   7.074   1.958  0.3835 -0.8063 -0.8294
 3587SOL    HW220866   0.892   7.218   1.906 -1.2207 -0.0312 -0.4991
 3588SOL     OW20867   2.831   0.549   1.766 -0.2213  0.0838 -0.2312
 3588SOL    HW120868   2.757   0.567   1.830  0.6239  1.6621  0.3248
 3588SOL    HW220869   2.792   0.526   1.676 -1.3827  0.6012  0.1260
 3589SOL     OW20870   9.897   1.063   0.876 -0.1519  0.0768 -0.0634
 3589SOL    HW120871   9.816   1.118   0.896 -0.5156 -0.4658 -0.0343
 3589SOL    HW220872   9.934   1.090   0.787  0.1800  0.9619  0.3393
 3590SOL     OW20873   2.688   1.023   1.285  0.5960  0.1260 -0.2710
 3590SOL    HW120874   2.642   1.094   1.338 -1.1521 -1.2490  0.1517
 3590SOL    HW220875   2.741   1.064   1.211 -0.5602  1.8385 -0.1713
 3591SOL     OW20876   5.293   3.447   1.776 -0.0759  0.1561  0.2204
 3591SOL    HW120877   5.286   3.546   1.762  2.1703  0.3750  0.4145
 3591SOL    HW220878   5.375   3.413   1.729 -0.3342 -1.4605  0.9234
 3592SOL     OW20879   0.460   6.906   1.865  0.3892 -0.4691  0.7064
 3592SOL    HW120880   0.446   6.816   1.906  1.5305 -0.3684  1.3153
 3592SOL    HW220881   0.371   6.948   1.847 -0.1779 -2.1868 -0.6305
 3593SOL     OW20882   2.358   8.956   2.299  0.7073 -0.0684 -0.0012
 3593SOL    HW120883   2.334   8.958   2.397  1.6471  1.1154  0.2125
 3593SOL    HW220884   2.428   8.887   2.284  0.7989 -0.0254  0.2213
 3594SOL     OW20885   4.377   2.160   0.753 -0.4840 -0.2427 -0.1841
 3594SOL    HW120886   4.404   2.150   0.657 -1.8857  1.9952 -0.8443
 3594SOL    HW220887   4.283   2.126   0.765 -0.3758 -0.3578  0.3717
 3595SOL     OW20888   9.471   2.867   0.998  0.2177  0.6150  0.4159
 3595SOL    HW120889   9.422   2.847   0.914 -1.7635  0.8101  1.4991
 3595SOL    HW220890   9.508   2.782   1.036  1.1832  0.5375 -0.6713
 3596SOL     OW20891   3.368   0.030   1.041 -0.1282  0.4006 -0.6058
 3596SOL    HW120892   3.436   0.093   1.004 -0.9083  0.0674 -2.6668
 3596SOL    HW220893   3.277   0.072   1.036 -0.2919  0.2389  0.7035
 3597SOL     OW20894   4.805   4.010   1.349  0.0426  0.1285 -0.2882
 3597SOL    HW120895   4.864   4.076   1.303 -0.4221  0.4608 -0.4155
 3597SOL    HW220896   4.852   3.974   1.430  1.0863 -0.8972 -1.3363
 3598SOL     OW20897   8.866   3.081   0.842 -0.4119 -0.4651  0.1901
 3598SOL    HW120898   8.825   3.008   0.788 -1.5499  0.1828  0.1808
 3598SOL    HW220899   8.799   3.117   0.907  0.4963 -0.2232  1.0134
 3599SOL     OW20900   1.165   3.371   2.158 -0.5117 -0.1131 -0.0796
 3599SOL    HW120901   1.082   3.428   2.161 -0.4997  0.0276 -1.8903
 3599SOL    HW220902   1.152   3.291   2.216 -1.0996  0.9700  1.3375
 3600SOL     OW20903   2.026   3.846   0.917  0.4755 -0.7824 -0.3694
 3600SOL    HW120904   2.040   3.747   0.917 -0.8458 -1.0070  2.6188
 3600SOL    HW220905   1.930   3.866   0.895 -0.1755 -0.3875  2.5883
 3601SOL     OW20906   2.058   4.082   1.085 -0.0206  0.9546 -0.8218
 3601SOL    HW120907   2.049   4.004   1.023 -0.6698  1.0275 -0.8239
 3601SOL    HW220908   2.021   4.057   1.174  3.0089  0.0654  0.2544
 3602SOL     OW20909   4.936   3.622   1.533  0.2519 -0.2094 -0.5260
 3602SOL    HW120910   4.844   3.605   1.498  0.6379 -2.4124 -0.5071
 3602SOL    HW220911   5.004   3.601   1.463  0.8251 -0.2790  0.0448
 3603SOL     OW20912   3.340   3.487   2.511  0.0551 -0.2947 -0.1766
 3603SOL    HW120913   3.293   3.521   2.592 -0.3384 -1.3901  0.0645
 3603SOL    HW220914   3.421   3.435   2.538 -1.0901 -2.2642 -0.3510
 3604SOL     OW20915   1.630   3.647   1.772 -0.6328  0.5870  0.1378
 3604SOL    HW120916   1.696   3.665   1.844 -1.0391 -0.3239  0.7469
 3604SOL    HW220917   1.538   3.641   1.811 -0.7122 -1.1508 -0.2502
 3605SOL     OW20918   3.931   3.828   0.247  0.5457 -0.0289  0.4326
 3605SOL    HW120919   3.983   3.755   0.203 -0.6517 -0.3266 -0.5369
 3605SOL    HW220920   3.970   3.917   0.223  0.3733 -0.2283 -0.6061
 3606SOL     OW20921   0.553   6.843   0.125 -0.4790  0.0625 -0.1676
 3606SOL    HW120922   0.651   6.845   0.103 -0.5283 -0.9797 -0.5024
 3606SOL    HW220923   0.518   6.751   0.112 -1.0590 -0.0458  1.9837
 3607SOL     OW20924   2.794   5.106   0.616  0.5722  0.3561 -0.1120
 3607SOL    HW120925   2.889   5.083   0.594  0.6147  0.3909  0.0331
 3607SOL    HW220926   2.739   5.105   0.533  0.9003  1.3477 -0.3457
 3608SOL     OW20927   0.430   4.590   0.748  0.9405  0.3175  0.2757
 3608SOL    HW120928   0.527   4.587   0.769  0.2505 -0.8179  3.6358
 3608SOL    HW220929   0.382   4.522   0.803 -1.8532  1.4069 -0.7258
 3609SOL     OW20930   3.785   5.499   0.544  0.4493 -0.0151 -0.2569
 3609SOL    HW120931   3.844   5.558   0.599 -0.2030  1.4340 -1.0832
 3609SOL    HW220932   3.689   5.513   0.570  0.2226 -0.1080 -1.0169
 3610SOL     OW20933   4.681   4.491   2.297 -0.4762 -0.1863  0.2458
 3610SOL    HW120934   4.591   4.460   2.327 -0.7334  1.2910  1.0615
 3610SOL    HW220935   4.693   4.470   2.200 -2.7134  1.7998 -0.5109
 3611SOL     OW20936   1.473   5.980   2.189  0.0982  0.2145 -0.4586
 3611SOL    HW120937   1.545   6.041   2.157  2.0488  0.1770  3.4435
 3611SOL    HW220938   1.487   5.889   2.149  3.1974 -0.1755  1.3038
 3612SOL     OW20939   2.127   8.636   0.605 -0.3523  0.2116  0.1166
 3612SOL    HW120940   2.222   8.632   0.635 -0.4017  2.5753  0.6273
 3612SOL    HW220941   2.074   8.565   0.652  0.7993  0.0088  1.1281
 3613SOL     OW20942   1.865   1.003   0.887 -0.5418 -0.0418  0.1445
 3613SOL    HW120943   1.819   0.977   0.802 -1.6111  0.4877  0.5524
 3613SOL    HW220944   1.844   0.936   0.958  1.9181 -1.5507 -0.4973
 3614SOL     OW20945   1.455   9.635   2.108  0.3614 -0.6273 -0.8786
 3614SOL    HW120946   1.451   9.709   2.040  0.3032 -0.2495 -0.4713
 3614SOL    HW220947   1.364   9.599   2.123  0.3296 -0.5092 -0.7855
 3615SOL     OW20948  10.062   1.446   1.449 -0.2165  0.2227  0.1848
 3615SOL    HW120949   9.962   1.444   1.437 -0.3665 -1.2427  1.4764
 3615SOL    HW220950  10.088   1.535   1.487 -1.0078  0.7090 -0.3872
 3616SOL     OW20951   4.316   8.684   0.792  0.5137  0.2242  0.1422
 3616SOL    HW120952   4.326   8.646   0.884 -1.9519 -1.5525 -0.2639
 3616SOL    HW220953   4.353   8.619   0.725 -2.2733 -0.8438 -0.4371
 3617SOL     OW20954  10.052   6.499   1.155 -0.3066  0.3311 -0.2000
 3617SOL    HW120955  10.116   6.531   1.224 -2.5112  1.9875  1.1418
 3617SOL    HW220956   9.980   6.567   1.142 -2.2751 -1.8468 -1.0292
 3618SOL     OW20957   9.455   7.120   0.447 -0.5098 -0.4994 -0.0641
 3618SOL    HW120958   9.544   7.120   0.491 -1.4049  3.3962  1.8890
 3618SOL    HW220959   9.384   7.106   0.515 -1.5528 -1.3357 -1.2919
 3619SOL     OW20960   2.720   4.925   0.253 -0.0031 -0.5418 -0.5763
 3619SOL    HW120961   2.726   5.010   0.305 -2.5388 -0.1302 -0.8876
 3619SOL    HW220962   2.803   4.913   0.198  0.7315  1.2906  0.1162
 3620SOL     OW20963  10.137   2.925   2.467 -0.2544 -0.4736  0.1120
 3620SOL    HW120964  10.129   2.833   2.427 -0.8889 -0.0840 -0.6689
 3620SOL    HW220965  10.066   2.984   2.429  0.5393  0.5181  0.1623
 3621SOL     OW20966   3.335   4.918   2.825 -0.0025  0.0619  0.0609
 3621SOL    HW120967   3.296   4.924   2.916 -0.5439 -0.7073 -0.1154
 3621SOL    HW220968   3.274   4.962   2.759 -0.1835 -0.4021 -0.0909
 3622SOL     OW20969   3.825   4.341   1.156 -0.0339 -0.1374 -0.1347
 3622SOL    HW120970   3.737   4.307   1.189 -0.3301 -1.2439 -1.9874
 3622SOL    HW220971   3.809   4.412   1.087  0.5411  0.0468 -0.0826
 3623SOL     OW20972   4.405   4.553   0.148  0.5112  0.3109 -0.3699
 3623SOL    HW120973   4.441   4.461   0.163 -1.7053 -0.4490  0.5460
 3623SOL    HW220974   4.481   4.617   0.136  2.1789 -1.0772  2.2293
 3624SOL     OW20975   9.859   7.105   0.828  0.1189  0.0238 -0.1036
 3624SOL    HW120976   9.814   7.017   0.820  0.0283  0.2681 -2.4135
 3624SOL    HW220977   9.792   7.178   0.818  0.6743  0.3735 -1.3749
 3625SOL     OW20978   9.109   7.549   0.689 -0.1818  0.3736  0.4979
 3625SOL    HW120979   9.200   7.550   0.648  0.3197  1.5072  1.6059
 3625SOL    HW220980   9.112   7.500   0.776 -0.5085  0.8420  0.7768
 3626SOL     OW20981   2.029   2.901   0.086  0.7247 -0.6897  0.1528
 3626SOL    HW120982   2.006   2.970   0.155 -0.8079 -0.8927 -0.1365
 3626SOL    HW220983   1.989   2.928  -0.002  1.0482 -1.3862 -0.2093
 3627SOL     OW20984   9.607   1.834   1.423 -0.0916 -0.1186 -0.7381
 3627SOL    HW120985   9.684   1.890   1.456  0.8166 -0.9751 -1.3843
 3627SOL    HW220986   9.527   1.892   1.411  0.7662  1.0047 -1.1480
 3628SOL     OW20987  10.093   8.380   0.924  0.1844 -0.0883  0.1483
 3628SOL    HW120988  10.055   8.358   1.014  0.5740  0.2526  0.3960
 3628SOL    HW220989  10.192   8.378   0.929  0.2251 -2.6878 -0.9086
 3629SOL     OW20990   9.423   6.853   1.446  0.2260  0.3109  0.3883
 3629SOL    HW120991   9.449   6.942   1.483 -0.5827 -0.3279  2.6052
 3629SOL    HW220992   9.471   6.781   1.496  0.2762 -0.5318 -0.8645
 3630SOL     OW20993   8.886   7.737   0.262 -0.5239  0.1083 -0.6785
 3630SOL    HW120994   8.903   7.727   0.360 -1.1104  2.6097 -0.2910
 3630SOL    HW220995   8.787   7.727   0.245 -0.3757 -0.7321 -1.0964
 3631SOL     OW20996   9.482   2.477   1.719  0.3909 -0.7280 -0.3663
 3631SOL    HW120997   9.394   2.451   1.761  1.1385 -5.4469 -1.4265
 3631SOL    HW220998   9.469   2.489   1.621  0.6029  0.1887 -0.2788
 3632SOL     OW20999   4.329   1.714   2.650  0.0178 -0.3787 -0.3625
 3632SOL    HW121000   4.397   1.690   2.580  0.6375 -1.7394  0.6899
 3632SOL    HW221001   4.347   1.807   2.683  1.3281 -0.7016 -0.1374
 3633SOL     OW21002   9.704   1.666   0.705 -0.3827 -0.6229  0.7886
 3633SOL    HW121003   9.656   1.700   0.624  0.6428 -1.0006  0.0124
 3633SOL    HW221004   9.700   1.736   0.777  0.2068  0.4394 -0.1954
 3634SOL     OW21005   4.415   2.789   0.862  0.1324  0.4986  0.1374
 3634SOL    HW121006   4.489   2.722   0.865  0.8287  1.2419 -0.0404
 3634SOL    HW221007   4.428   2.849   0.782 -0.5991  0.7031  0.1701
 3635SOL     OW21008   1.383   3.600   1.869 -0.4134 -0.1990 -0.2425
 3635SOL    HW121009   1.415   3.560   1.955 -0.5887  0.0329 -0.0664
 3635SOL    HW221010   1.288   3.630   1.881  0.0114  1.1081 -0.0888
 3636SOL     OW21011   2.999   3.146   1.993 -0.1493 -0.2548  0.3788
 3636SOL    HW121012   3.001   3.146   2.093 -1.2334 -2.8268  0.4372
 3636SOL    HW221013   2.986   3.239   1.960 -0.4648  0.5354  2.6482
 3637SOL     OW21014   9.363   6.897   2.462  0.7398  0.8505 -0.0738
 3637SOL    HW121015   9.446   6.903   2.517 -0.0803  2.1170  1.0516
 3637SOL    HW221016   9.287   6.867   2.519  0.0128  1.5819 -0.6515
 3638SOL     OW21017  10.208   9.909   2.205 -0.3592 -0.0200  0.3118
 3638SOL    HW121018  10.239   9.959   2.286  0.3188 -0.5786  0.4091
 3638SOL    HW221019  10.265   9.935   2.127  0.8838 -1.6031  0.6494
 3639SOL     OW21020   3.400   6.819   0.241  0.0573 -0.0978  0.5124
 3639SOL    HW121021   3.388   6.738   0.299 -1.4091  0.1799  0.6076
 3639SOL    HW221022   3.320   6.831   0.183  0.5701  0.8925 -0.0081
 3640SOL     OW21023   2.305   2.752   1.539 -0.0873  0.3716 -0.2569
 3640SOL    HW121024   2.277   2.838   1.497  0.1633 -0.3094 -1.8583
 3640SOL    HW221025   2.373   2.707   1.481 -0.5478 -1.1074  0.3330
 3641SOL     OW21026   1.959   8.192   2.180 -0.1732 -0.0629 -0.1148
 3641SOL    HW121027   2.021   8.186   2.101 -0.1429  0.5070 -0.1338
 3641SOL    HW221028   1.990   8.127   2.250 -0.0542 -0.3951 -0.4684
 3642SOL     OW21029   3.375   2.573   0.460 -0.6741 -0.3452 -0.1281
 3642SOL    HW121030   3.348   2.596   0.366 -0.9414 -2.4636 -0.6023
 3642SOL    HW221031   3.309   2.508   0.498 -0.8471  0.9021  1.7130
 3643SOL     OW21032   1.464   6.459   2.169  0.0236 -0.1098  0.0743
 3643SOL    HW121033   1.395   6.514   2.122  0.8120 -0.5235 -1.5976
 3643SOL    HW221034   1.468   6.486   2.266 -1.4240  0.9435 -0.1452
 3644SOL     OW21035   1.476   5.614   1.156  0.9597 -0.3036 -0.3999
 3644SOL    HW121036   1.452   5.588   1.063 -0.2947  1.4365 -0.5939
 3644SOL    HW221037   1.402   5.590   1.218  1.4449 -0.7192  0.0264
 3645SOL     OW21038   1.014   8.321   1.532  0.4167  0.1764 -0.1292
 3645SOL    HW121039   0.982   8.233   1.497  0.4734  0.0321  0.1763
 3645SOL    HW221040   1.051   8.376   1.458  0.4395 -0.0854 -0.3118
 3646SOL     OW21041   1.199   3.095   2.663  0.3556 -0.3299 -0.5921
 3646SOL    HW121042   1.139   3.104   2.742  0.0900 -1.9688 -0.5900
 3646SOL    HW221043   1.293   3.116   2.690  0.0004  0.8285 -0.2578
 3647SOL     OW21044   3.116   9.889   0.221  0.1122 -0.0292  0.1331
 3647SOL    HW121045   3.063   9.809   0.249 -0.9759  0.6587  0.0710
 3647SOL    HW221046   3.156   9.933   0.302 -1.1079  0.6229  0.3910
 3648SOL     OW21047   4.539   9.928   0.234  0.5678  0.2672  0.1692
 3648SOL    HW121048   4.544   9.829   0.221 -1.2286  0.0987  0.7117
 3648SOL    HW221049   4.547   9.950   0.331  1.0148  0.6688  0.0466
 3649SOL     OW21050   3.482   8.586   1.483 -0.0681  0.3541  0.4024
 3649SOL    HW121051   3.495   8.592   1.582 -0.9480  1.2787  0.4633
 3649SOL    HW221052   3.411   8.650   1.454 -1.0806 -1.1888 -0.5993
 3650SOL     OW21053   0.908   6.242   2.285 -0.0165  0.1886 -0.0993
 3650SOL    HW121054   0.864   6.152   2.289 -2.0280  1.1897  2.3743
 3650SOL    HW221055   0.867   6.301   2.355  3.7890  1.8920  0.8067
 3651SOL     OW21056   0.909   7.996   0.454 -0.4317  0.0489  0.3849
 3651SOL    HW121057   0.922   8.090   0.485  0.7132 -0.2334  0.7950
 3651SOL    HW221058   0.886   7.996   0.356  0.6407  0.6951  0.1249
 3652SOL     OW21059   1.428   8.362   0.537  0.1988 -0.0328 -0.9836
 3652SOL    HW121060   1.399   8.427   0.467  0.8150  1.0825 -0.2070
 3652SOL    HW221061   1.398   8.270   0.511 -2.3942  0.8126 -1.1365
 3653SOL     OW21062   2.119   1.239   0.822 -0.4175 -0.1859 -0.2709
 3653SOL    HW121063   2.122   1.186   0.907 -0.3475 -0.2131 -0.2897
 3653SOL    HW221064   2.041   1.301   0.823 -0.0637  0.2499  0.0768
 3654SOL     OW21065   1.136   5.089   0.193  0.4366  0.4838 -0.0901
 3654SOL    HW121066   1.176   5.142   0.268  1.4545 -2.5396  1.5990
 3654SOL    HW221067   1.206   5.073   0.123  0.0333  1.6449 -0.7640
 3655SOL     OW21068   9.520   9.043   0.931 -0.0511 -0.0630 -0.4900
 3655SOL    HW121069   9.604   9.085   0.896 -0.1790 -0.2109 -0.9863
 3655SOL    HW221070   9.450   9.114   0.940 -0.1927 -0.1164 -1.0967
 3656SOL     OW21071   1.762   1.263   0.435 -0.6734  0.1767 -0.4958
 3656SOL    HW121072   1.706   1.217   0.503 -0.4705  0.7389  0.0610
 3656SOL    HW221073   1.854   1.224   0.435 -0.3362  0.9299  0.3693
 3657SOL     OW21074   1.998   5.130   0.940 -0.3355  0.3964 -0.0296
 3657SOL    HW121075   1.933   5.094   0.872 -0.8455 -0.2740  0.8088
 3657SOL    HW221076   1.965   5.218   0.974  0.1273  0.9363 -0.9341
 3658SOL     OW21077   3.584   6.188   1.996  0.2171 -0.0435  0.2491
 3658SOL    HW121078   3.537   6.192   2.084 -1.3922 -1.0277 -0.5250
 3658SOL    HW221079   3.553   6.265   1.939  2.2582  1.3617  1.0045
 3659SOL     OW21080   0.516   6.606   2.154 -0.0491 -0.1465 -0.3777
 3659SOL    HW121081   0.582   6.645   2.218 -0.6086 -0.0122  0.1235
 3659SOL    HW221082   0.440   6.670   2.142 -0.2234 -0.4209 -0.7399
 3660SOL     OW21083   4.322   8.966   0.100 -1.0788 -0.1512 -0.4977
 3660SOL    HW121084   4.259   9.041   0.081 -0.9414 -0.1700 -1.0461
 3660SOL    HW221085   4.306   8.931   0.192  0.1541  1.8177  0.4957
 3661SOL     OW21086   9.479   5.885   1.536 -0.3917 -0.5072  0.2453
 3661SOL    HW121087   9.567   5.918   1.569 -0.3657  1.0391 -1.2936
 3661SOL    HW221088   9.493   5.803   1.480  0.2458  0.4586 -1.0490
 3662SOL     OW21089   2.424   4.728   1.162  0.5187 -0.2188  0.5885
 3662SOL    HW121090   2.407   4.818   1.121  1.0233 -0.3670  0.0562
 3662SOL    HW221091   2.475   4.740   1.247  3.1789 -0.1783 -0.9650
 3663SOL     OW21092   0.775   9.361   1.714  0.3012  0.2469 -0.2635
 3663SOL    HW121093   0.726   9.326   1.794  0.9885  0.0490  0.0718
 3663SOL    HW221094   0.860   9.405   1.744  0.8999 -0.4479 -0.9540
 3664SOL     OW21095   4.585   8.203   2.745 -0.5560  0.1280  0.3262
 3664SOL    HW121096   4.656   8.265   2.711 -0.5573 -0.0745 -0.0591
 3664SOL    HW221097   4.495   8.247   2.736 -0.6609 -0.3083 -0.8915
 3665SOL     OW21098   3.821   3.498   2.771 -0.1869 -0.2513  0.6586
 3665SOL    HW121099   3.807   3.480   2.869  0.6340  0.8502  0.9851
 3665SOL    HW221100   3.849   3.414   2.725  1.1931 -0.3769  1.7067
 3666SOL     OW21101   3.281   1.839   2.268 -0.0931  0.1231 -0.0105
 3666SOL    HW121102   3.364   1.791   2.240  0.2179 -0.1164  1.2637
 3666SOL    HW221103   3.205   1.774   2.272  0.3344 -0.2896  1.7426
 3667SOL     OW21104   2.651   1.878   0.350 -0.2452  0.4950 -0.5279
 3667SOL    HW121105   2.680   1.899   0.443 -0.2222  0.8975 -0.6233
 3667SOL    HW221106   2.612   1.786   0.346 -2.4140  1.3462  0.3552
 3668SOL     OW21107   3.824   9.789   1.653  0.2411  0.2354 -0.1698
 3668SOL    HW121108   3.866   9.837   1.731 -1.2064  1.6321 -0.2294
 3668SOL    HW221109   3.739   9.834   1.628 -0.2976 -1.3844 -1.3342
 3669SOL     OW21110   2.010   2.185   1.721  0.3171 -0.0394 -0.4432
 3669SOL    HW121111   1.958   2.100   1.723  0.7036 -0.3026 -1.3017
 3669SOL    HW221112   1.984   2.242   1.798 -0.3952 -0.6735 -0.2130
 3670SOL     OW21113   9.185   2.477   1.793  0.0653 -0.3444 -0.2622
 3670SOL    HW121114   9.142   2.410   1.853  0.0232  0.8658  1.0825
 3670SOL    HW221115   9.141   2.566   1.805  1.4210  0.3824 -0.5561
 3671SOL     OW21116   4.408   3.707   0.710  0.5960 -0.1621  0.3360
 3671SOL    HW121117   4.507   3.696   0.705  0.8262  0.9255  2.0330
 3671SOL    HW221118   4.367   3.627   0.752  0.7768 -0.5197 -0.1678
 3672SOL     OW21119   8.995   7.186   1.677 -0.2228  0.2646 -0.0708
 3672SOL    HW121120   9.081   7.235   1.689  0.5017 -1.2803  1.1674
 3672SOL    HW221121   9.007   7.112   1.612 -0.2223 -0.8407  1.1644
 3673SOL     OW21122   9.799   3.756   1.811 -0.4322 -0.2552 -0.1329
 3673SOL    HW121123   9.816   3.690   1.737 -1.5785  1.5035 -2.0381
 3673SOL    HW221124   9.876   3.756   1.874  0.7299 -1.6064 -1.5065
 3674SOL     OW21125   2.392   6.061   2.187 -0.3614 -0.0665 -0.2755
 3674SOL    HW121126   2.472   6.026   2.236 -1.4167 -0.4224  1.2348
 3674SOL    HW221127   2.339   5.985   2.150  1.4921  0.2482 -3.8146
 3675SOL     OW21128   2.964   3.007   1.673  0.2790  0.1068  0.6029
 3675SOL    HW121129   2.990   2.953   1.753  2.3588  0.6925  0.3441
 3675SOL    HW221130   2.944   2.945   1.597  1.2364 -0.3737  0.7305
 3676SOL     OW21131   0.525   0.883   2.517 -0.3659  0.9591 -0.0313
 3676SOL    HW121132   0.616   0.853   2.487  0.8210  2.0542  2.3697
 3676SOL    HW221133   0.459   0.811   2.499  1.0977 -0.1293 -1.1735
 3677SOL     OW21134   1.523   2.634   1.730  0.0260 -0.2721  0.0206
 3677SOL    HW121135   1.542   2.714   1.672 -1.1233 -0.0268 -0.0393
 3677SOL    HW221136   1.528   2.661   1.826 -1.2601  0.1172 -0.0014
 3678SOL     OW21137   2.549   6.541   1.528 -0.1289 -0.2171  0.3935
 3678SOL    HW121138   2.613   6.610   1.562  0.2986 -0.1798 -0.4845
 3678SOL    HW221139   2.467   6.586   1.494 -0.5120 -0.2474  1.2556
 3679SOL     OW21140   1.364   2.875   0.295  0.2429 -0.5247 -0.0154
 3679SOL    HW121141   1.318   2.944   0.351  0.4980 -0.6476  0.3490
 3679SOL    HW221142   1.311   2.858   0.212  0.4659  0.5104 -0.3669
 3680SOL     OW21143   1.377   6.855   0.764 -0.7185  0.3492 -0.4168
 3680SOL    HW121144   1.368   6.945   0.805  2.1629  0.5857 -0.2308
 3680SOL    HW221145   1.413   6.791   0.832 -0.9375 -0.4956 -1.0916
 3681SOL     OW21146   2.467   6.969   2.074 -0.1350 -0.5529 -0.1107
 3681SOL    HW121147   2.441   6.873   2.077 -0.7002 -0.3835  0.4069
 3681SOL    HW221148   2.536   6.983   2.002  0.2893 -1.4155  0.1261
 3682SOL     OW21149  10.059   0.915   2.136  0.3583  0.1265  0.0918
 3682SOL    HW121150  10.097   1.007   2.122  1.5309 -0.4123 -0.3740
 3682SOL    HW221151  10.049   0.870   2.048 -1.2502  0.1902  0.2250
 3683SOL     OW21152   0.666   5.599   1.511  0.4788  0.2369 -0.1964
 3683SOL    HW121153   0.625   5.539   1.442  0.8617 -1.1986  0.7843
 3683SOL    HW221154   0.762   5.614   1.489  0.4744  0.1895 -0.2491
 3684SOL     OW21155   8.875   4.613   2.790 -0.7755 -0.4056 -0.6639
 3684SOL    HW121156   8.973   4.618   2.770 -0.7533  1.6609 -0.2207
 3684SOL    HW221157   8.824   4.612   2.704 -0.3539 -2.2040 -0.9063
 3685SOL     OW21158   1.315   7.152   1.715 -1.0021  0.3805  0.0540
 3685SOL    HW121159   1.288   7.082   1.649  0.0805 -2.3467  2.3979
 3685SOL    HW221160   1.245   7.160   1.785 -0.9852  1.4869 -0.0457
 3686SOL     OW21161  10.117   3.939   1.603 -0.2666 -0.3065  0.2149
 3686SOL    HW121162  10.132   4.034   1.576  1.6331 -0.2123  1.5091
 3686SOL    HW221163  10.042   3.935   1.670 -0.9827  0.1443 -0.5452
 3687SOL     OW21164   2.120   8.649   2.438  0.7995  0.4846  0.8171
 3687SOL    HW121165   2.074   8.723   2.488  0.0766 -0.1124  1.0554
 3687SOL    HW221166   2.214   8.676   2.417  0.4258  1.6172  0.5640
 3688SOL     OW21167   2.585   9.596   1.657  0.4313  0.2780  0.3191
 3688SOL    HW121168   2.651   9.609   1.731 -0.1410  1.0242  0.7101
 3688SOL    HW221169   2.596   9.667   1.589  0.7797 -0.2558 -0.1832
 3689SOL     OW21170   8.996   6.893   0.090  0.6429  0.1339 -0.3146
 3689SOL    HW121171   8.914   6.940   0.123  2.4097  2.5498  0.7975
 3689SOL    HW221172   9.029   6.830   0.161  1.3850  1.3264  0.4105
 3690SOL     OW21173   2.513   1.243   2.326 -0.2044 -0.0035  0.6329
 3690SOL    HW121174   2.597   1.228   2.274 -0.7855 -0.0268 -0.3068
 3690SOL    HW221175   2.453   1.163   2.318  0.2609 -0.5674  2.4386
 3691SOL     OW21176   3.437   4.776   1.413 -0.7596 -0.3600 -0.3007
 3691SOL    HW121177   3.382   4.712   1.466 -1.9680  1.4838  0.7296
 3691SOL    HW221178   3.466   4.852   1.472  1.2502 -0.3117 -1.3135
 3692SOL     OW21179   9.458   0.511   0.355  0.1767 -0.3159  0.8575
 3692SOL    HW121180   9.415   0.461   0.431  1.9343 -0.9673  1.4472
 3692SOL    HW221181   9.516   0.584   0.391 -1.0507  1.0832  0.0432
 3693SOL     OW21182   9.840   0.057   2.452  0.0968 -0.4949 -0.0248
 3693SOL    HW121183   9.770   0.012   2.508 -0.0587 -0.6146 -0.3137
 3693SOL    HW221184   9.856   0.002   2.370  3.1320 -2.3909  1.7598
 3694SOL     OW21185   3.256   3.013   1.928  0.0615  0.0180  0.3602
 3694SOL    HW121186   3.170   3.064   1.933 -1.5512 -2.3274 -1.8520
 3694SOL    HW221187   3.317   3.059   1.864 -0.4327  0.5041  0.2282
 3695SOL     OW21188   4.392   8.425   0.308 -0.3388  0.1694 -0.3360
 3695SOL    HW121189   4.366   8.329   0.304  0.0318  0.0630 -0.2735
 3695SOL    HW221190   4.470   8.441   0.247  0.2391  0.2140  0.4005
 3696SOL     OW21191   9.789   2.412   0.600 -0.5590 -0.0212 -0.1123
 3696SOL    HW121192   9.814   2.355   0.678  0.2312  0.9229  0.3387
 3696SOL    HW221193   9.853   2.395   0.525 -0.9808 -0.5230 -0.3579
 3697SOL     OW21194   0.660   6.228   0.498 -0.2147 -0.0776 -0.0110
 3697SOL    HW121195   0.759   6.215   0.506 -0.1658 -0.2359 -0.8588
 3697SOL    HW221196   0.619   6.151   0.450 -0.9778 -0.7870  1.7184
 3698SOL     OW21197   1.152   6.625   2.835 -0.4405 -0.3735  0.1875
 3698SOL    HW121198   1.090   6.688   2.881  0.3983  0.1582  0.6082
 3698SOL    HW221199   1.219   6.678   2.782  0.7580 -0.8663  1.1765
 3699SOL     OW21200   2.544   2.248   0.993 -0.4364 -0.3476 -0.3920
 3699SOL    HW121201   2.567   2.319   0.926 -0.4133 -0.5045 -0.5523
 3699SOL    HW221202   2.501   2.290   1.073 -0.0825 -0.1093 -0.3246
 3700SOL     OW21203   1.089   9.383   1.858  0.0513 -0.2677 -0.0108
 3700SOL    HW121204   1.153   9.450   1.821 -1.0224  0.0376 -1.3304
 3700SOL    HW221205   1.088   9.302   1.799 -0.7410 -0.2856  0.0204
 3701SOL     OW21206   2.440   9.777   0.167  0.0468 -0.1586 -0.0522
 3701SOL    HW121207   2.361   9.821   0.211 -2.1684 -1.3947 -2.6595
 3701SOL    HW221208   2.437   9.794   0.068  2.9894 -0.3765 -0.2241
 3702SOL     OW21209   2.886   7.917   2.015 -0.5088  0.0076 -0.4306
 3702SOL    HW121210   2.922   8.010   2.020 -1.9347  0.5252  0.7100
 3702SOL    HW221211   2.849   7.900   1.923  0.5239  0.2651 -0.8948
 3703SOL     OW21212   2.200   3.898   2.223  0.2083 -0.3160  0.3625
 3703SOL    HW121213   2.268   3.963   2.188 -1.5903  0.5147 -1.6259
 3703SOL    HW221214   2.110   3.941   2.227 -0.7446 -2.2389  0.4486
 3704SOL     OW21215   1.359   3.898   0.267 -0.4751 -0.3527  0.0459
 3704SOL    HW121216   1.421   3.827   0.300  0.4549  0.2234 -0.4338
 3704SOL    HW221217   1.275   3.856   0.234 -1.2780 -0.9620  2.7581
 3705SOL     OW21218   4.587   9.051   2.631 -0.5313  0.2658 -0.0426
 3705SOL    HW121219   4.531   9.007   2.701 -2.3959  2.3757 -0.1533
 3705SOL    HW221220   4.614   9.142   2.662  1.7501 -0.2099 -0.5601
 3706SOL     OW21221   2.606   0.712   0.192  0.2821  0.2745  0.9829
 3706SOL    HW121222   2.539   0.663   0.248  0.0793  1.1730  1.5326
 3706SOL    HW221223   2.678   0.748   0.250  0.9906 -0.2656  0.4471
 3707SOL     OW21224   4.458   0.248   1.402  0.6072  0.4572  0.2669
 3707SOL    HW121225   4.491   0.226   1.310  0.9521  0.6551  0.3417
 3707SOL    HW221226   4.395   0.326   1.397  1.0907  0.8536  0.2677
 3708SOL     OW21227   9.120   5.505   0.209 -0.0864  0.1774 -0.3685
 3708SOL    HW121228   9.056   5.543   0.276 -0.6699  0.6132 -1.1490
 3708SOL    HW221229   9.178   5.437   0.252 -0.7902  0.0929  0.4616
 3709SOL     OW21230   0.794   2.721   1.155 -0.2068  0.1181  0.0815
 3709SOL    HW121231   0.857   2.756   1.086  0.4755 -0.5386  0.3641
 3709SOL    HW221232   0.829   2.634   1.191 -0.5090  0.5054  1.3223
 3710SOL     OW21233   1.180   6.485   2.382  0.0049  0.5264 -0.5898
 3710SOL    HW121234   1.181   6.407   2.444  0.4581  1.4725  0.6089
 3710SOL    HW221235   1.193   6.453   2.288 -1.4692 -1.0022 -0.3087
 3711SOL     OW21236   4.298   5.781   0.587 -0.1146 -0.1390 -0.3235
 3711SOL    HW121237   4.306   5.855   0.654 -0.3727  0.1979 -0.6637
 3711SOL    HW221238   4.289   5.819   0.496  2.9217 -0.6154 -0.8757
 3712SOL     OW21239   1.831   9.355   0.140 -0.1429  0.1798  0.0720
 3712SOL    HW121240   1.929   9.345   0.155 -0.2235 -0.7572 -0.0095
 3712SOL    HW221241   1.781   9.309   0.213 -0.5192 -0.3007 -0.4851
 3713SOL     OW21242   2.210   4.350   2.192  0.0233 -0.0973 -0.4244
 3713SOL    HW121243   2.114   4.323   2.194 -0.6373  2.0074 -1.7013
 3713SOL    HW221244   2.250   4.328   2.103  0.4682 -0.1836 -0.2052
 3714SOL     OW21245  10.235   0.182   1.175  0.4325 -0.7038 -0.6192
 3714SOL    HW121246  10.302   0.114   1.202  2.3315  1.4507  0.2086
 3714SOL    HW221247  10.245   0.202   1.077  1.5339  0.1838 -0.3295
 3715SOL     OW21248   3.781   0.731   0.558  0.4033  0.3337  0.1208
 3715SOL    HW121249   3.860   0.717   0.618  0.9970 -0.3872 -0.8215
 3715SOL    HW221250   3.812   0.763   0.469 -0.3741  0.0624 -0.2523
 3716SOL     OW21251   0.504   2.951   0.536  0.1931  0.0088  0.1684
 3716SOL    HW121252   0.526   3.048   0.543  0.0202  0.0007  0.7896
 3716SOL    HW221253   0.555   2.912   0.459 -0.1179  0.6979 -0.3989
 3717SOL     OW21254   2.931   6.201   0.691  0.1911 -0.6383  0.3368
 3717SOL    HW121255   2.992   6.271   0.728 -0.1157 -0.2430  0.0978
 3717SOL    HW221256   2.901   6.227   0.599  1.7419 -2.0896 -0.6293
 3718SOL     OW21257   1.364   9.293   2.448  0.3225 -0.0922 -0.0573
 3718SOL    HW121258   1.400   9.373   2.496  1.0504 -0.6812  0.3947
 3718SOL    HW221259   1.354   9.314   2.351 -2.4553  1.5533  0.5289
 3719SOL     OW21260   1.271   2.049   1.290 -0.2237 -0.0506  0.1049
 3719SOL    HW121261   1.280   1.992   1.372 -1.1538 -0.9919 -0.4321
 3719SOL    HW221262   1.259   2.145   1.317  0.9578 -0.1555  1.0264
 3720SOL     OW21263   1.110   6.761   2.464  0.1216  0.1032  0.6379
 3720SOL    HW121264   1.093   6.667   2.435  0.7745  0.3200 -0.4564
 3720SOL    HW221265   1.208   6.776   2.472  0.0327  0.8542  0.2934
 3721SOL     OW21266   2.171   0.438   2.569  0.8368  0.5329 -0.0216
 3721SOL    HW121267   2.084   0.442   2.518  0.3411 -1.6720  0.5731
 3721SOL    HW221268   2.175   0.512   2.635 -1.6868 -0.7165  1.5926
 3722SOL     OW21269   1.406   2.903   1.947  0.8768 -0.5409  0.1102
 3722SOL    HW121270   1.492   2.857   1.924  0.2059 -1.2464 -1.0748
 3722SOL    HW221271   1.335   2.835   1.962  0.2655  0.0655 -0.0174
 3723SOL     OW21272   0.776   6.417   1.114  0.1764  0.4106 -0.3946
 3723SOL    HW121273   0.766   6.449   1.020  2.1387 -0.4499 -0.9092
 3723SOL    HW221274   0.693   6.369   1.142  1.0838 -2.8796 -3.0698
 3724SOL     OW21275   2.867   1.453   2.478  0.1204  0.3030 -0.1563
 3724SOL    HW121276   2.768   1.456   2.493  0.2403 -2.6097  1.6025
 3724SOL    HW221277   2.886   1.429   2.383 -0.8905 -0.5431 -0.1470
 3725SOL     OW21278   1.682   5.883   1.304  0.0219  0.2480 -0.3410
 3725SOL    HW121279   1.594   5.920   1.274  0.8111  2.6220  0.1510
 3725SOL    HW221280   1.668   5.821   1.381 -1.1147  1.6103  0.5651
 3726SOL     OW21281   3.236   6.273   1.469  0.1315 -0.1212 -0.0428
 3726SOL    HW121282   3.145   6.231   1.464  0.0983  0.0153 -0.6981
 3726SOL    HW221283   3.306   6.201   1.470  0.0349 -0.2162 -0.0927
 3727SOL     OW21284   0.877   5.451   1.233  0.2958 -0.1138  0.2392
 3727SOL    HW121285   0.940   5.521   1.267  2.6242 -1.6423 -0.7961
 3727SOL    HW221286   0.871   5.457   1.134  2.0239 -2.5456 -0.0544
 3728SOL     OW21287   9.377   2.458   2.587 -0.4660  0.2944 -0.0276
 3728SOL    HW121288   9.445   2.434   2.657 -0.4559 -0.4110 -0.2769
 3728SOL    HW221289   9.364   2.380   2.525 -4.1228 -0.9740  2.1316
 3729SOL     OW21290   2.636   8.783   0.467  0.6482  0.2434 -0.2720
 3729SOL    HW121291   2.711   8.822   0.521  1.1080 -0.4759 -0.3848
 3729SOL    HW221292   2.673   8.742   0.384 -0.1155  1.8308 -1.4186
 3730SOL     OW21293   1.133   1.841   0.149 -0.2734  0.0531  0.1813
 3730SOL    HW121294   1.164   1.816   0.057 -0.4447  0.5328 -0.0034
 3730SOL    HW221295   1.177   1.780   0.216  0.5614  0.2951 -0.1368
 3731SOL     OW21296   2.436   1.900   2.091 -0.1564  0.7304  0.6788
 3731SOL    HW121297   2.348   1.854   2.094  0.3562 -0.5258 -2.0467
 3731SOL    HW221298   2.423   1.996   2.066 -0.6866  0.2478 -0.9640
 3732SOL     OW21299   1.308   2.785   0.730 -0.2524 -0.1112 -0.2424
 3732SOL    HW121300   1.407   2.773   0.727 -0.3288 -1.2357  1.2455
 3732SOL    HW221301   1.287   2.880   0.756  0.4206  0.0904 -0.4263
 3733SOL     OW21302   2.239   1.264   2.524 -0.4597  0.2573  0.1354
 3733SOL    HW121303   2.154   1.282   2.575  0.0868 -1.3906  1.6416
 3733SOL    HW221304   2.313   1.243   2.588  0.6091 -0.3183 -1.2665
 3734SOL     OW21305   9.076   2.986   0.510 -0.1379 -0.0246  0.6399
 3734SOL    HW121306   9.017   2.910   0.537 -3.3080  2.4596  0.9397
 3734SOL    HW221307   9.110   2.971   0.418 -0.0185 -2.1814  1.0009
 3735SOL     OW21308   4.059   2.286   0.632  0.0287  0.5088 -0.1555
 3735SOL    HW121309   3.976   2.270   0.578 -0.8016  1.1411  0.9237
 3735SOL    HW221310   4.139   2.284   0.571 -0.8330  0.5457 -1.3055
 3736SOL     OW21311   2.525   8.769   1.040 -0.2199 -0.2187  0.4385
 3736SOL    HW121312   2.590   8.736   0.971  0.3116  0.3772  0.6540
 3736SOL    HW221313   2.452   8.821   0.995  0.8279  1.2861  0.4457
 3737SOL     OW21314   9.468   1.663   2.608  0.0623  0.6027  0.0897
 3737SOL    HW121315   9.555   1.709   2.587  0.7094 -0.9536 -0.7087
 3737SOL    HW221316   9.478   1.611   2.693 -0.5206  1.5266  0.7310
 3738SOL     OW21317   9.051   2.895   1.565  0.0781  0.5808 -0.1362
 3738SOL    HW121318   9.031   2.883   1.468  0.3806  0.7669 -0.2221
 3738SOL    HW221319   9.033   2.990   1.591 -0.8357  0.3268  0.1913
 3739SOL     OW21320   4.384   8.889   0.432  0.7932  0.1426 -0.1924
 3739SOL    HW121321   4.308   8.935   0.386  1.2853  0.5938 -0.5572
 3739SOL    HW221322   4.380   8.909   0.530  0.8232  0.7106 -0.3056
 3740SOL     OW21323   4.582   0.445   1.987  0.1052 -0.2057  1.1045
 3740SOL    HW121324   4.528   0.396   1.919  0.8011  0.9220 -0.2747
 3740SOL    HW221325   4.523   0.504   2.042 -0.2058  0.2439  0.2888
 3741SOL     OW21326   2.615   5.300   0.153  0.2623 -0.4130  0.9225
 3741SOL    HW121327   2.555   5.377   0.129  0.0598 -0.4684  1.2488
 3741SOL    HW221328   2.570   5.214   0.129 -0.6137 -0.5399  2.9426
 3742SOL     OW21329   1.763   3.725   2.002  0.1492 -0.1952  0.3779
 3742SOL    HW121330   1.854   3.693   2.029  0.4943  2.2536  2.3040
 3742SOL    HW221331   1.705   3.733   2.083 -0.3899  2.4710 -0.2456
 3743SOL     OW21332   1.070   0.711   0.084  0.0922 -0.0513 -0.2351
 3743SOL    HW121333   1.041   0.634   0.141  1.4068 -0.3361  0.0752
 3743SOL    HW221334   1.064   0.796   0.138  2.0283 -0.4130  0.6048
 3744SOL     OW21335   1.859   9.321   1.899  0.5217 -0.5112 -0.0181
 3744SOL    HW121336   1.955   9.343   1.881  0.7837 -1.7910 -0.2311
 3744SOL    HW221337   1.805   9.405   1.897  1.4556  0.0871 -1.0770
 3745SOL     OW21338   4.060   4.764   0.144  0.4123 -0.5219  0.1515
 3745SOL    HW121339   4.114   4.730   0.221 -0.3832  1.1084  1.4576
 3745SOL    HW221340   3.965   4.737   0.155  0.1061  0.5939  0.2939
 3746SOL     OW21341   1.894   7.092   1.898 -0.0396 -0.6583 -0.0178
 3746SOL    HW121342   1.850   7.090   1.988  0.9978  1.3639  0.5514
 3746SOL    HW221343   1.973   7.030   1.898 -0.8894 -1.7610 -0.0113
 3747SOL     OW21344  10.245   0.763   1.692 -0.1849 -0.1518  0.0009
 3747SOL    HW121345  10.324   0.702   1.690  0.3687  0.5667 -0.1804
 3747SOL    HW221346  10.245   0.820   1.610 -0.5618  0.2722  0.2936
 3748SOL     OW21347   9.225   0.065   2.534 -0.3684 -0.1102  0.7384
 3748SOL    HW121348   9.304   0.036   2.479 -0.5318  0.4684  0.1863
 3748SOL    HW221349   9.147   0.081   2.474 -0.3694  1.1519  1.0576
 3749SOL     OW21350  10.290   0.541   1.362 -0.3362  0.1505 -0.0727
 3749SOL    HW121351  10.335   0.627   1.387 -1.3264  0.4282  0.7538
 3749SOL    HW221352  10.194   0.559   1.340 -0.1188 -0.4777 -1.6393
 3750SOL     OW21353   2.955   6.045   0.092 -0.2331  0.0637  0.0085
 3750SOL    HW121354   2.887   5.978   0.062  0.5853 -0.3550 -0.9810
 3750SOL    HW221355   3.012   6.003   0.164  2.0371 -1.3384 -2.5151
 3751SOL     OW21356   2.475   9.326   1.585 -0.1011  0.3476  0.4569
 3751SOL    HW121357   2.510   9.420   1.590  0.3642  0.1404  1.1084
 3751SOL    HW221358   2.471   9.287   1.676  0.7768 -0.6601  0.0740
 3752SOL     OW21359   1.258   5.292   2.668 -0.0192  0.9622  0.7011
 3752SOL    HW121360   1.205   5.236   2.603  0.8251  1.4145 -0.4054
 3752SOL    HW221361   1.265   5.386   2.633  0.8086  1.1074  1.2337
 3753SOL     OW21362   4.569  -0.003   0.935 -0.6526  0.4871  0.6988
 3753SOL    HW121363   4.610  -0.094   0.928 -2.5810 -0.3905  0.4833
 3753SOL    HW221364   4.499  -0.004   1.007 -0.5712  1.8388  0.7975
 3754SOL     OW21365   2.691   4.286   1.552  0.2593 -0.0948 -0.1308
 3754SOL    HW121366   2.663   4.213   1.615  0.3391 -0.7682 -0.8755
 3754SOL    HW221367   2.659   4.374   1.588  1.0160 -0.3759  1.2858
 3755SOL     OW21368   3.956   0.821   1.946  0.6712 -0.0055 -0.4496
 3755SOL    HW121369   3.904   0.740   1.973  0.0912  0.2527 -0.7850
 3755SOL    HW221370   4.053   0.805   1.964  0.1814  0.6873  3.0529
 3756SOL     OW21371   2.925   4.873   1.576  0.4200  0.6263 -0.0721
 3756SOL    HW121372   2.897   4.934   1.502  0.6976 -0.7730 -1.3415
 3756SOL    HW221373   2.913   4.778   1.548  0.6604  0.0737  1.6322
 3757SOL     OW21374   3.866   0.753   2.432  0.2954 -0.4243 -0.4509
 3757SOL    HW121375   3.917   0.833   2.401 -1.4060  0.1784 -1.7637
 3757SOL    HW221376   3.898   0.672   2.384  0.4072 -0.1430 -0.8475
 3758SOL     OW21377   1.452   0.554   1.601 -0.0092  0.5552 -0.0492
 3758SOL    HW121378   1.500   0.497   1.668 -0.4049 -0.0679 -0.2916
 3758SOL    HW221379   1.518   0.592   1.536  0.3507  1.0083  0.5851
 3759SOL     OW21380   0.600   0.733   0.774  0.4741 -0.5738  0.0521
 3759SOL    HW121381   0.572   0.710   0.867  1.5658 -2.4676 -0.0732
 3759SOL    HW221382   0.532   0.699   0.709 -0.3236  0.8092  0.1334
 3760SOL     OW21383   2.237   8.911   1.811  0.1776  0.1720  0.1269
 3760SOL    HW121384   2.204   8.886   1.902  0.4864  0.4835  0.3281
 3760SOL    HW221385   2.337   8.902   1.809  0.2171  0.6510 -0.0304
 3761SOL     OW21386  10.072   1.164   1.268 -0.3954 -0.2098 -0.6040
 3761SOL    HW121387   9.996   1.142   1.208 -0.3745 -0.3099 -0.5944
 3761SOL    HW221388  10.158   1.136   1.225 -0.3872 -0.3527 -0.4954
 3762SOL     OW21389   0.412   2.852   2.154  0.4167  0.1884 -0.1096
 3762SOL    HW121390   0.439   2.823   2.246  0.1996  0.8304  0.1566
 3762SOL    HW221391   0.425   2.951   2.145 -1.0906  0.3802 -0.2457
 3763SOL     OW21392   4.235   9.366   1.293 -0.0028 -0.0710 -0.2194
 3763SOL    HW121393   4.200   9.328   1.208  2.7950 -1.8487 -0.6262
 3763SOL    HW221394   4.182   9.330   1.370 -1.7788  0.6294 -1.0906
 3764SOL     OW21395   1.919   3.441   0.604 -0.3566  0.1494  0.2158
 3764SOL    HW121396   1.970   3.356   0.587  0.1763  0.0072  2.4475
 3764SOL    HW221397   1.984   3.516   0.617 -0.7912  0.5504  0.0468
 3765SOL     OW21398   9.657   8.239   0.938 -0.5220  0.2231 -0.1409
 3765SOL    HW121399   9.676   8.209   1.032  1.0650  0.7729 -0.2548
 3765SOL    HW221400   9.666   8.162   0.876  0.8246  0.3334 -0.1090
 3766SOL     OW21401   3.564   2.711   0.233 -0.3980  0.1834 -0.1247
 3766SOL    HW121402   3.518   2.660   0.161  0.8435 -0.5080 -0.4422
 3766SOL    HW221403   3.564   2.809   0.211 -0.8907  0.0788 -0.5776
 3767SOL     OW21404   3.099   2.757   1.900  0.0014 -0.3971  0.2760
 3767SOL    HW121405   3.065   2.711   1.982  0.1163  1.6743  1.5253
 3767SOL    HW221406   3.158   2.833   1.927  0.9222 -0.3625 -1.7704
 3768SOL     OW21407   2.417   9.713   1.826 -0.1231 -0.7022 -0.0064
 3768SOL    HW121408   2.475   9.645   1.781  1.2622  0.0823  0.5321
 3768SOL    HW221409   2.466   9.751   1.905 -0.3673  1.7508 -0.9676
 3769SOL     OW21410  10.197   1.625   2.031  0.0194  0.0502  0.1428
 3769SOL    HW121411  10.219   1.693   1.961  1.1230 -1.3412 -0.8812
 3769SOL    HW221412  10.200   1.668   2.121  0.9297  1.3077 -0.4701
 3770SOL     OW21413   9.635   7.565   0.603 -0.4104  0.0897 -0.3641
 3770SOL    HW121414   9.720   7.543   0.554  0.0209 -1.0848  0.8786
 3770SOL    HW221415   9.642   7.534   0.697 -2.1707  0.1465 -0.1988
 3771SOL     OW21416   9.828   2.076   0.188 -0.6349 -0.5102 -0.1344
 3771SOL    HW121417   9.882   2.038   0.113 -0.0679 -2.2998  1.1416
 3771SOL    HW221418   9.858   2.169   0.207  0.3182 -0.6131 -1.0715
 3772SOL     OW21419   0.567   8.223   0.859  0.3247  0.0389 -0.5410
 3772SOL    HW121420   0.603   8.316   0.851  0.4076  0.0825  0.3178
 3772SOL    HW221421   0.502   8.218   0.935  1.1977 -0.8767  0.1640
 3773SOL     OW21422   3.284   5.006   0.544 -0.3880 -0.1428  0.3019
 3773SOL    HW121423   3.268   4.933   0.610 -0.4302 -0.2961  0.1229
 3773SOL    HW221424   3.209   5.073   0.549 -0.3375 -0.0975  0.4811
 3774SOL     OW21425   9.458   7.643   0.857  0.1137  0.1870  0.0118
 3774SOL    HW121426   9.417   7.715   0.801 -2.0591 -1.6441 -0.8523
 3774SOL    HW221427   9.399   7.624   0.935  1.0478 -0.1425  0.6481
 3775SOL     OW21428   1.445   7.344   1.236 -0.0185  0.5778  0.6097
 3775SOL    HW121429   1.431   7.426   1.292  1.0738  0.1258  1.5580
 3775SOL    HW221430   1.542   7.333   1.217 -0.3823  0.7811 -1.4816
 3776SOL     OW21431   9.043   7.745   2.205 -0.0642  0.1438  0.1606
 3776SOL    HW121432   8.980   7.751   2.128  1.5406  1.0119 -1.1301
 3776SOL    HW221433   9.107   7.670   2.190  0.2486  0.3098  0.6452
 3777SOL     OW21434   9.656   1.182   0.921  0.1715 -0.4239 -0.1445
 3777SOL    HW121435   9.624   1.270   0.888  1.3166  0.4433  0.9611
 3777SOL    HW221436   9.587   1.112   0.906 -0.6580  0.6306 -1.2329
 3778SOL     OW21437   9.414   1.277   1.826  0.2175 -0.0362 -0.3969
 3778SOL    HW121438   9.354   1.353   1.801 -3.0137 -2.5452 -0.5362
 3778SOL    HW221439   9.421   1.213   1.749 -1.2337 -2.4233  1.3895
 3779SOL     OW21440   3.201   7.216   1.272 -0.2312 -0.5482 -0.1078
 3779SOL    HW121441   3.174   7.194   1.178 -0.8380  0.6016 -0.2111
 3779SOL    HW221442   3.250   7.304   1.273  0.4552 -0.9287  0.5531
 3780SOL     OW21443   2.684   1.086   1.657 -0.2625 -0.5231 -0.3755
 3780SOL    HW121444   2.707   1.170   1.607 -1.6965 -0.5102 -1.0249
 3780SOL    HW221445   2.737   1.010   1.621 -0.4729 -0.2947 -1.1797
 3781SOL     OW21446   0.355   9.522   1.516 -0.4861  0.3023  0.4450
 3781SOL    HW121447   0.261   9.489   1.528 -0.3247  0.2918  1.7101
 3781SOL    HW221448   0.418   9.444   1.517 -0.4672  0.2906 -0.5837
 3782SOL     OW21449   2.616   7.959   2.831  0.1089  0.0419 -0.7266
 3782SOL    HW121450   2.564   7.888   2.879  0.8512  0.2513  0.4054
 3782SOL    HW221451   2.663   7.918   2.752 -0.8576 -0.3660 -1.1036
 3783SOL     OW21452   0.366   8.065   1.357  0.4713  0.5220  0.2821
 3783SOL    HW121453   0.440   8.101   1.301 -0.0880  0.0562 -0.7854
 3783SOL    HW221454   0.278   8.090   1.315  0.0538 -0.0532  0.8090
 3784SOL     OW21455   9.200   7.118   0.865  0.4045 -0.2925 -0.0469
 3784SOL    HW121456   9.107   7.140   0.891  1.4588  0.8119  3.0062
 3784SOL    HW221457   9.228   7.032   0.910  0.8207 -0.6783 -1.0255
 3785SOL     OW21458   0.967   3.203   1.523 -0.4035 -0.0714 -0.1143
 3785SOL    HW121459   1.057   3.230   1.557 -0.2258 -0.9546  0.1259
 3785SOL    HW221460   0.972   3.112   1.482 -0.3697  1.3320 -3.4523
 3786SOL     OW21461   2.240   3.377   0.212  0.1876  0.3677  0.1296
 3786SOL    HW121462   2.307   3.321   0.261  1.3361  0.8469 -0.8792
 3786SOL    HW221463   2.252   3.365   0.113  0.3197  2.2237 -0.0993
 3787SOL     OW21464   3.158   3.013   0.663 -0.2336 -0.1244 -0.0157
 3787SOL    HW121465   3.177   3.099   0.615  3.1987  0.6866  2.5510
 3787SOL    HW221466   3.114   3.033   0.751  1.2151 -0.9026  0.9057
 3788SOL     OW21467   1.033   9.063   0.623 -0.1701 -0.3844 -0.2542
 3788SOL    HW121468   0.982   9.120   0.687 -0.3906 -1.3931  0.4741
 3788SOL    HW221469   1.006   9.085   0.529  0.3201  1.2587 -0.0176
 3789SOL     OW21470   3.775   0.392   0.854  0.1557 -0.3103  0.3952
 3789SOL    HW121471   3.793   0.322   0.785  1.7312  1.7213 -1.3329
 3789SOL    HW221472   3.853   0.398   0.917  1.3124  1.6875 -1.1253
 3790SOL     OW21473  10.200   0.368   0.734 -0.4554  0.1619 -0.1732
 3790SOL    HW121474  10.149   0.367   0.649 -1.5045  0.3250  0.4449
 3790SOL    HW221475  10.182   0.453   0.783  0.3809  0.2070  0.0753
 3791SOL     OW21476   2.436   0.651   0.443  0.2769  0.1314 -0.4638
 3791SOL    HW121477   2.451   0.552   0.439 -0.0517  0.1163 -1.5686
 3791SOL    HW221478   2.339   0.669   0.460  0.7122  0.2591  2.0513
 3792SOL     OW21479   0.359   7.130   1.323  0.6822 -0.2511  0.3417
 3792SOL    HW121480   0.298   7.066   1.370  1.4367 -0.6777  0.7482
 3792SOL    HW221481   0.364   7.216   1.375 -0.5354  0.2394 -0.3407
 3793SOL     OW21482   8.913   3.051   2.602  0.1888  0.1058 -0.3847
 3793SOL    HW121483   8.999   3.015   2.565 -0.4212 -0.3619 -1.3747
 3793SOL    HW221484   8.929   3.090   2.693  1.4639  0.1218 -0.6107
 3794SOL     OW21485   1.892   7.563   1.087  0.5522  0.0231 -0.2248
 3794SOL    HW121486   1.910   7.538   1.182  2.2566 -0.5239 -0.6838
 3794SOL    HW221487   1.824   7.500   1.049 -1.2293  1.1330  1.0367
 3795SOL     OW21488  10.193   6.044   0.176 -0.0300  0.0933 -0.2999
 3795SOL    HW121489  10.180   5.952   0.140  0.3266 -0.6313  1.3797
 3795SOL    HW221490  10.279   6.082   0.141 -0.2557 -0.1479 -1.1210
 3796SOL     OW21491   0.649   3.381   1.809 -0.2395  0.0912  0.5908
 3796SOL    HW121492   0.574   3.437   1.844 -0.4574  1.9010 -2.6301
 3796SOL    HW221493   0.612   3.309   1.750  0.5523  1.5906 -1.8045
 3797SOL     OW21494   3.696   5.179   2.599 -0.0361 -0.1615 -0.1143
 3797SOL    HW121495   3.663   5.142   2.686  0.5364 -0.2321  0.0719
 3797SOL    HW221496   3.727   5.103   2.541  1.6943  0.0673  0.4960
 3798SOL     OW21497   9.820   0.242   1.586 -0.5569 -0.4102 -0.1319
 3798SOL    HW121498   9.829   0.301   1.666 -0.8355 -1.3757  0.6216
 3798SOL    HW221499   9.759   0.166   1.607  0.1296 -1.2027 -0.9574
 3799SOL     OW21500   1.541   7.368   1.686  0.1396 -0.7098  0.3092
 3799SOL    HW121501   1.465   7.305   1.704  0.6328 -0.8590  1.9522
 3799SOL    HW221502   1.561   7.420   1.769  0.9659  0.2773 -0.5047
 3800SOL     OW21503   9.629   2.738   2.809  0.5471 -0.1044  0.5530
 3800SOL    HW121504   9.694   2.734   2.732  1.6240  0.4027  1.4231
 3800SOL    HW221505   9.661   2.679   2.883 -1.4826 -2.0903 -0.1053
 3801SOL     OW21506   3.600   0.005   1.685 -0.5615 -0.0566 -0.1772
 3801SOL    HW121507   3.539  -0.058   1.734 -0.6586  0.5530  0.4941
 3801SOL    HW221508   3.649   0.062   1.751  2.3611 -1.9880 -0.5933
 3802SOL     OW21509   1.772   7.326   2.568 -0.3535  0.3476  0.8304
 3802SOL    HW121510   1.727   7.324   2.478 -0.9507  1.5348  1.0882
 3802SOL    HW221511   1.869   7.347   2.556  0.2338 -2.4900  0.2494
 3803SOL     OW21512   9.662   0.048   1.649 -0.2548 -0.1514 -0.4418
 3803SOL    HW121513   9.633  -0.043   1.620 -1.1745  0.0646 -0.2440
 3803SOL    HW221514   9.581   0.105   1.662  0.1963  0.1357  1.2661
 3804SOL     OW21515   2.359   8.907   0.687  0.0228  0.1917  0.2334
 3804SOL    HW121516   2.296   8.985   0.691 -1.8900 -1.2366 -0.8916
 3804SOL    HW221517   2.412   8.912   0.603  0.7872  0.8861  0.7351
 3805SOL     OW21518   1.298   0.979   2.123 -0.2967 -0.2132  0.2218
 3805SOL    HW121519   1.350   1.007   2.043  0.0276 -0.0628  0.4807
 3805SOL    HW221520   1.353   0.995   2.205 -1.4114  1.6503  0.6489
 3806SOL     OW21521   0.496   6.305   2.320  0.2131  0.8243 -0.1550
 3806SOL    HW121522   0.533   6.393   2.351  2.0388  0.7511 -2.0517
 3806SOL    HW221523   0.517   6.292   2.223 -0.1629 -1.6339  0.0612
 3807SOL     OW21524   3.900   0.320   2.663  0.1819 -0.4039 -0.0904
 3807SOL    HW121525   3.981   0.289   2.613 -0.1158 -0.2491 -0.6648
 3807SOL    HW221526   3.894   0.419   2.660  0.7681 -0.3078  1.1949
 3808SOL     OW21527  10.256   2.863   0.473 -0.0578  0.1248  0.5973
 3808SOL    HW121528  10.248   2.768   0.505 -0.2253 -0.3409 -0.7961
 3808SOL    HW221529  10.352   2.891   0.475  0.4503 -1.2359 -2.1731
 3809SOL     OW21530   3.954   9.317   0.866 -0.9419 -0.0384  0.1308
 3809SOL    HW121531   3.930   9.237   0.921 -0.7726 -0.0873  0.1323
 3809SOL    HW221532   3.880   9.384   0.872 -0.9761 -0.0912  0.3245
 3810SOL     OW21533   9.036   5.996   0.583 -0.0390  0.5787  0.6731
 3810SOL    HW121534   9.062   5.937   0.659 -1.7729  0.6254  1.3185
 3810SOL    HW221535   8.949   5.965   0.545  1.2961 -0.0727 -1.9782
 3811SOL     OW21536   2.204   9.882   2.672 -0.1023  0.7475 -0.0859
 3811SOL    HW121537   2.178   9.954   2.608  3.1803  1.7248 -0.4190
 3811SOL    HW221538   2.123   9.853   2.723 -1.9788  2.9005 -1.6743
 3812SOL     OW21539   1.099   9.219   1.626  0.3577  0.3305  0.2453
 3812SOL    HW121540   1.178   9.162   1.603  0.6879  0.3474  1.3351
 3812SOL    HW221541   1.051   9.243   1.542  0.9389 -0.5041 -0.3429
 3813SOL     OW21542   9.187   4.833   2.625  0.2248 -0.3000 -0.2261
 3813SOL    HW121543   9.107   4.874   2.668  0.0245  0.5278 -1.3880
 3813SOL    HW221544   9.158   4.764   2.559  0.4828 -0.2149 -0.4282
 3814SOL     OW21545   9.345   9.663   1.130 -0.0805  0.4154  0.0395
 3814SOL    HW121546   9.246   9.680   1.128  0.1175  1.7797  1.3116
 3814SOL    HW221547   9.369   9.618   1.216  0.5081  0.7371  0.0447
 3815SOL     OW21548   5.467   3.282   1.628  0.6409  0.2308 -0.0535
 3815SOL    HW121549   5.561   3.252   1.615  0.7794  0.0836  1.2831
 3815SOL    HW221550   5.430   3.242   1.712 -0.4717  0.6333 -0.3427
 3816SOL     OW21551   0.665   7.326   2.591  0.6738  0.0416 -0.3724
 3816SOL    HW121552   0.657   7.382   2.508 -2.6322  1.0897  0.5525
 3816SOL    HW221553   0.684   7.231   2.565 -1.5507  0.1074 -2.4523
 3817SOL     OW21554   1.384   5.591   0.891  0.1195  0.5442 -0.0347
 3817SOL    HW121555   1.304   5.650   0.879 -1.0474 -1.1770 -1.0401
 3817SOL    HW221556   1.362   5.498   0.860  1.9455 -0.4071  1.3744
 3818SOL     OW21557   0.662   4.977   1.796  0.4132 -0.1081  0.0955
 3818SOL    HW121558   0.671   4.960   1.894 -4.1955  1.5519  0.9516
 3818SOL    HW221559   0.691   5.071   1.776 -0.5911  0.2498  0.2735
 3819SOL     OW21560   9.934   0.209   2.652 -0.6193  0.4374  0.0888
 3819SOL    HW121561  10.030   0.227   2.634 -0.6084  1.2253  0.8984
 3819SOL    HW221562   9.888   0.185   2.567  0.2773  0.1349 -0.3099
 3820SOL     OW21563   9.417   3.286   0.445 -0.0816 -0.0363 -0.5382
 3820SOL    HW121564   9.336   3.305   0.388 -1.1737  1.6244  1.4832
 3820SOL    HW221565   9.473   3.369   0.451 -0.9205  0.3805  2.2225
 3821SOL     OW21566   3.240   7.542   1.013  0.2388  0.3529 -0.1591
 3821SOL    HW121567   3.178   7.594   0.953 -0.6970 -1.0288 -0.4082
 3821SOL    HW221568   3.293   7.478   0.959 -0.4280 -0.7244  0.4309
 3822SOL     OW21569   2.826   2.819   0.099 -0.7976 -0.3565 -0.8014
 3822SOL    HW121570   2.849   2.883   0.026  0.4907 -1.5224 -1.4560
 3822SOL    HW221571   2.909   2.794   0.149 -1.8265  1.2879  1.8137
 3823SOL     OW21572   9.907   8.303   1.985  0.0042 -0.9492 -0.6363
 3823SOL    HW121573   9.934   8.210   2.008  0.4126 -0.7454 -0.2849
 3823SOL    HW221574   9.989   8.359   1.970 -0.1715  0.0773  2.0156
 3824SOL     OW21575   4.249   9.656   0.953  0.7376  0.6767  0.6590
 3824SOL    HW121576   4.322   9.598   0.916  0.7040  0.3035  1.1832
 3824SOL    HW221577   4.204   9.610   1.029 -0.8140  0.4172 -0.3999
 3825SOL     OW21578   3.772   9.540   0.225 -0.6117 -0.6535  0.0711
 3825SOL    HW121579   3.675   9.556   0.210 -0.2843  0.8646 -0.6027
 3825SOL    HW221580   3.815   9.510   0.140 -0.0770  0.9776 -0.2635
 3826SOL     OW21581   1.895   1.603   1.984 -0.1527 -0.4526 -0.3219
 3826SOL    HW121582   1.931   1.511   1.999 -1.3653 -0.9309 -0.2459
 3826SOL    HW221583   1.943   1.668   2.043  0.7720 -1.0150 -0.4426
 3827SOL     OW21584   2.447   4.502   2.183  0.7078 -0.5238 -0.3864
 3827SOL    HW121585   2.374   4.497   2.251 -1.3926  2.2560 -2.2994
 3827SOL    HW221586   2.427   4.440   2.107  0.6548 -0.2290 -0.6149
 3828SOL     OW21587   2.988   4.162   2.549  0.2882 -0.1399  0.4625
 3828SOL    HW121588   2.915   4.201   2.604 -0.7876 -0.1345 -0.9482
 3828SOL    HW221589   3.016   4.074   2.589 -0.0468  0.1625  1.3682
 3829SOL     OW21590   9.151   3.800   1.286  0.6943 -0.1774  0.0507
 3829SOL    HW121591   9.195   3.889   1.302  0.9894 -0.0609 -1.3529
 3829SOL    HW221592   9.170   3.740   1.363  0.6265  0.9279  0.9500
 3830SOL     OW21593   2.384   4.862   2.334  0.4383 -0.2168  0.0539
 3830SOL    HW121594   2.358   4.784   2.391 -0.4968 -0.0720 -0.1667
 3830SOL    HW221595   2.413   4.828   2.244  1.2019 -0.3900  0.3582
 3831SOL     OW21596   3.594   5.388   1.896 -0.0571 -0.0018  0.8736
 3831SOL    HW121597   3.657   5.412   1.969  1.4883 -1.5328  0.0877
 3831SOL    HW221598   3.507   5.358   1.935  0.8584 -1.0956  2.1225
 3832SOL     OW21599   8.785   2.835   0.764  0.1178 -0.1293 -0.3926
 3832SOL    HW121600   8.688   2.832   0.736  0.6852 -0.0107 -2.5037
 3832SOL    HW221601   8.839   2.781   0.699  1.3868 -0.7470  1.1575
 3833SOL     OW21602   2.060   2.152   0.803  0.5494  0.5153  0.3828
 3833SOL    HW121603   2.129   2.196   0.860  0.9502 -1.9476  1.8914
 3833SOL    HW221604   1.969   2.189   0.825  1.1422  2.3861 -0.2412
 3834SOL     OW21605   3.163   1.069   1.955  0.0086 -0.2969  0.2916
 3834SOL    HW121606   3.082   1.110   1.914 -0.6694 -0.9913  0.9228
 3834SOL    HW221607   3.232   1.140   1.972 -1.1081  0.5777  1.2811
 3835SOL     OW21608   4.236   3.342   2.064 -0.4216  0.6847  0.3466
 3835SOL    HW121609   4.328   3.377   2.042 -0.8303  2.3416  1.2164
 3835SOL    HW221610   4.184   3.412   2.112 -1.6836 -0.7365  1.1068
 3836SOL     OW21611   2.815   5.258   2.479  0.1550 -0.3692  0.2525
 3836SOL    HW121612   2.775   5.280   2.391 -1.6429  1.1914  1.4136
 3836SOL    HW221613   2.754   5.198   2.530  1.1148 -1.1468  0.4910
 3837SOL     OW21614  10.321   0.360   2.288 -0.2787  0.1180  0.2578
 3837SOL    HW121615  10.312   0.319   2.197  1.8757 -1.0138  0.5037
 3837SOL    HW221616  10.385   0.436   2.284 -1.5202  1.1812  0.5026
 3838SOL     OW21617   4.440   2.258   2.419  0.1510 -0.0143  0.2753
 3838SOL    HW121618   4.401   2.302   2.337  1.4554 -1.8358 -1.3688
 3838SOL    HW221619   4.498   2.323   2.467  2.5596 -0.0075 -2.4667
 3839SOL     OW21620   1.197   1.561   1.090 -0.3287 -0.0016 -0.4347
 3839SOL    HW121621   1.156   1.546   1.000  0.9803 -0.7048 -0.9278
 3839SOL    HW221622   1.289   1.600   1.079  0.1717 -0.8582  0.5597
 3840SOL     OW21623   9.360   2.369   2.274 -0.3994  0.2593 -0.3432
 3840SOL    HW121624   9.421   2.366   2.195 -0.4755  0.4980 -0.4116
 3840SOL    HW221625   9.356   2.279   2.317 -0.0544  0.2272 -0.3810
 3841SOL     OW21626  10.054   9.309   0.397  0.1320  0.6502  0.2958
 3841SOL    HW121627  10.115   9.385   0.375 -1.7770  1.6757 -1.6612
 3841SOL    HW221628   9.968   9.344   0.434 -0.9425 -0.5061 -1.0204
 3842SOL     OW21629   2.051   4.916   2.381 -0.0234 -0.5565 -0.2465
 3842SOL    HW121630   1.968   4.936   2.330 -0.6129  2.0695  1.6491
 3842SOL    HW221631   2.028   4.865   2.464  0.3760 -0.7594 -0.2575
 3843SOL     OW21632   2.594   9.305   1.162  0.1264 -0.5828  0.1560
 3843SOL    HW121633   2.652   9.378   1.126 -1.0186 -1.1643 -3.0042
 3843SOL    HW221634   2.649   9.245   1.221  1.5644  1.5531  1.0734
 3844SOL     OW21635   2.432   9.147   2.112 -0.3810 -0.1291 -0.2031
 3844SOL    HW121636   2.405   9.073   2.175 -1.1443 -0.1208 -0.5089
 3844SOL    HW221637   2.458   9.227   2.165 -3.0022  0.5675  0.1108
 3845SOL     OW21638   1.673   4.863   1.540 -0.2174 -0.3072 -0.0216
 3845SOL    HW121639   1.663   4.769   1.505 -0.7100 -0.8703  1.5796
 3845SOL    HW221640   1.587   4.913   1.527 -0.1457 -0.2698 -0.3442
 3846SOL     OW21641   1.421   9.344   2.177  0.8555  0.1167 -0.9180
 3846SOL    HW121642   1.499   9.283   2.185  1.1391  0.5647 -0.2673
 3846SOL    HW221643   1.452   9.438   2.160  0.5578  0.6235  1.1079
 3847SOL     OW21644   3.736   1.629   0.351  0.5018 -0.3743  0.3870
 3847SOL    HW121645   3.787   1.694   0.407 -0.0866  1.9854 -1.7403
 3847SOL    HW221646   3.641   1.626   0.383  0.0889  1.2100 -0.6681
 3848SOL     OW21647   4.558   3.981   0.497 -0.2450  0.0804  0.2971
 3848SOL    HW121648   4.617   4.011   0.572  0.0632  0.3223 -0.0408
 3848SOL    HW221649   4.614   3.965   0.415 -0.1453 -2.9017  0.8730
 3849SOL     OW21650   1.532   2.183   2.530  0.0917 -0.2183 -0.0906
 3849SOL    HW121651   1.449   2.165   2.583 -0.7495 -0.7522 -1.5364
 3849SOL    HW221652   1.590   2.247   2.579 -2.6044  2.5598 -0.3485
 3850SOL     OW21653   0.936   4.302   0.602 -0.1356 -0.4049  0.3198
 3850SOL    HW121654   0.857   4.289   0.542  0.0049 -0.4827  0.1533
 3850SOL    HW221655   0.915   4.266   0.693 -0.2206 -0.6050  0.2205
 3851SOL     OW21656   3.293   8.536   0.254 -0.6112 -0.0624  0.6517
 3851SOL    HW121657   3.323   8.466   0.190 -0.0751  0.3158  0.4918
 3851SOL    HW221658   3.372   8.573   0.303 -0.7407  1.3043 -0.1409
 3852SOL     OW21659   8.373   6.630   2.292 -0.1420  0.3686 -0.1086
 3852SOL    HW121660   8.444   6.559   2.292 -1.0777 -0.7387 -4.7709
 3852SOL    HW221661   8.417   6.720   2.292  1.2623 -0.2881 -1.1146
 3853SOL     OW21662   2.236   2.011   1.752 -0.4390  0.7902  0.1005
 3853SOL    HW121663   2.160   2.071   1.729 -0.3404  1.4591  1.4586
 3853SOL    HW221664   2.306   2.016   1.682 -1.3149  0.7386 -0.7862
 3854SOL     OW21665   2.849   2.775   1.527 -0.2192  0.1072  0.6397
 3854SOL    HW121666   2.816   2.685   1.496  0.8882 -0.0536 -0.1175
 3854SOL    HW221667   2.771   2.832   1.551 -0.9835 -0.7821  0.3403
 3855SOL     OW21668   1.098   3.084   2.227  0.4503 -0.0172  0.0616
 3855SOL    HW121669   1.090   3.032   2.141  2.6827 -1.2080  0.5311
 3855SOL    HW221670   1.086   3.022   2.304  2.2184  0.2899  0.6170
 3856SOL     OW21671   2.033   9.896   1.508  0.1583  0.0691  0.4335
 3856SOL    HW121672   2.018   9.865   1.414  0.5419  4.7648 -1.3026
 3856SOL    HW221673   2.121   9.862   1.540 -0.4154 -2.4195 -0.4655
 3857SOL     OW21674   4.131   9.237   2.403 -0.6576 -0.3254 -0.6721
 3857SOL    HW121675   4.143   9.149   2.449 -0.5663 -0.5878 -1.1890
 3857SOL    HW221676   4.104   9.221   2.308 -0.8102  0.2090 -0.7208
 3858SOL     OW21677   3.332   0.515   2.324 -0.0164 -0.1781  0.2602
 3858SOL    HW121678   3.254   0.569   2.356 -0.9584  0.3039 -2.7717
 3858SOL    HW221679   3.307   0.419   2.318 -0.2969 -0.0616 -0.4477
 3859SOL     OW21680   2.748   9.132   1.313  0.0394  0.0708 -0.5153
 3859SOL    HW121681   2.711   9.098   1.399 -0.4192  1.4232 -0.1824
 3859SOL    HW221682   2.730   9.064   1.241  2.2886 -2.0477  0.8290
 3860SOL     OW21683   2.328   0.122   0.097 -0.0574 -0.6009 -0.2819
 3860SOL    HW121684   2.293   0.132   0.004 -1.8056 -0.3802  0.3747
 3860SOL    HW221685   2.277   0.049   0.144  0.3549 -0.2560  0.7078
 3861SOL     OW21686   2.161   9.191   2.556 -0.7056  0.2189 -0.3108
 3861SOL    HW121687   2.200   9.247   2.483 -2.1267  0.6862 -0.7332
 3861SOL    HW221688   2.067   9.167   2.532 -0.2637 -2.0140  0.0478
 3862SOL     OW21689   0.485   0.742   1.453  0.0170 -0.5854  0.6442
 3862SOL    HW121690   0.565   0.697   1.413 -1.7251 -2.4351 -0.8606
 3862SOL    HW221691   0.486   0.838   1.429  1.1836 -0.8238 -0.3198
 3863SOL     OW21692   1.954   1.066   2.622  0.1107  0.6800  0.6666
 3863SOL    HW121693   1.966   1.161   2.651 -1.1020  0.7768  0.8662
 3863SOL    HW221694   1.857   1.045   2.614  0.3750 -0.4033  0.1325
 3864SOL     OW21695   9.803   9.911   0.635 -0.3495  0.1759  0.0041
 3864SOL    HW121696   9.857   9.927   0.552 -0.4409  1.7383  0.2238
 3864SOL    HW221697   9.859   9.863   0.703 -0.0660 -0.5118 -0.7089
 3865SOL     OW21698   1.846   5.461   2.823 -0.0372 -0.2914  0.3739
 3865SOL    HW121699   1.775   5.512   2.871  0.6205  0.5750  0.4368
 3865SOL    HW221700   1.897   5.405   2.889  0.6859  0.6844  0.6490
 3866SOL     OW21701   2.183   8.056   1.580 -0.2651  0.0808  0.5355
 3866SOL    HW121702   2.243   7.998   1.635 -1.1727 -0.7326  0.6750
 3866SOL    HW221703   2.093   8.013   1.571  0.0595 -0.1534 -2.1718
 3867SOL     OW21704   1.828   0.737   1.547  0.1473 -0.3696  0.3439
 3867SOL    HW121705   1.854   0.772   1.637 -1.4554  0.8734  0.3318
 3867SOL    HW221706   1.901   0.758   1.481  0.6336  0.0903  1.0208
 3868SOL     OW21707  10.142   2.647   2.375  0.7204  0.1093  0.3544
 3868SOL    HW121708  10.058   2.597   2.354  0.4538  0.2298  1.0994
 3868SOL    HW221709  10.199   2.654   2.293  1.9480 -3.6153  0.7858
 3869SOL     OW21710   1.528   8.650   2.259  0.1167 -0.3057 -0.7262
 3869SOL    HW121711   1.486   8.619   2.345 -0.5717  0.3419 -0.8194
 3869SOL    HW221712   1.504   8.587   2.186  1.6841 -1.5103 -0.2179
 3870SOL     OW21713   4.363   3.800   0.426 -0.0734 -0.1249 -0.0124
 3870SOL    HW121714   4.431   3.862   0.466 -0.9984  0.6359  0.3936
 3870SOL    HW221715   4.343   3.726   0.490  0.0458 -0.1068  0.0453
 3871SOL     OW21716   4.560   0.636   0.106  0.3165  0.6018 -0.6789
 3871SOL    HW121717   4.566   0.537   0.096  0.6606  0.6502 -0.9469
 3871SOL    HW221718   4.571   0.680   0.017  0.0941  0.8792 -0.5726
 3872SOL     OW21719   1.105   7.209   0.127  0.2262 -0.2323  0.4137
 3872SOL    HW121720   1.005   7.206   0.134  0.2440 -3.2525 -0.1160
 3872SOL    HW221721   1.145   7.198   0.218  0.0948  0.7450  0.5961
 3873SOL     OW21722   4.191   5.312   1.254  0.3797 -0.3921 -0.2623
 3873SOL    HW121723   4.161   5.357   1.338 -0.4533 -0.8500 -0.3121
 3873SOL    HW221724   4.287   5.334   1.237  0.6094 -0.4691  0.9188
 3874SOL     OW21725   4.951   2.821   1.931  0.0614 -0.7006  0.0282
 3874SOL    HW121726   4.886   2.768   1.985 -1.2672  2.1971  1.3668
 3874SOL    HW221727   4.916   2.830   1.837 -1.2636  0.4251  0.6122
 3875SOL     OW21728   3.942   9.822   2.097  0.5860 -0.0776 -0.1308
 3875SOL    HW121729   3.873   9.803   2.167  0.2036 -0.6599 -0.6546
 3875SOL    HW221730   3.987   9.909   2.117 -1.5205  1.1861 -0.7058
 3876SOL     OW21731   2.212   3.457   0.673 -0.6854  0.0775 -0.1654
 3876SOL    HW121732   2.279   3.491   0.607  0.3787 -1.0812  0.2881
 3876SOL    HW221733   2.226   3.359   0.686 -0.1156  0.4792  2.6065
 3877SOL     OW21734   2.924   8.814   0.841  0.2370 -0.3610 -0.4073
 3877SOL    HW121735   2.955   8.902   0.877  0.0695 -1.3352  2.2038
 3877SOL    HW221736   2.955   8.740   0.901  0.1697 -2.0823 -2.4394
 3878SOL     OW21737   2.015   1.715   0.341  0.3637 -0.4451  0.3678
 3878SOL    HW121738   2.064   1.662   0.271 -0.5942 -0.0102 -0.6464
 3878SOL    HW221739   1.927   1.744   0.305 -0.4029 -0.7160  1.9759
 3879SOL     OW21740   1.074   4.151   0.075 -0.0204  0.2704 -0.4373
 3879SOL    HW121741   1.109   4.203  -0.003 -1.0288 -1.6972 -2.2684
 3879SOL    HW221742   1.058   4.056   0.047 -1.3526 -0.2419  1.9175
 3880SOL     OW21743   4.013   4.335   1.845 -0.2451 -0.2775  0.3919
 3880SOL    HW121744   4.056   4.261   1.792  1.4380  1.0073 -0.0842
 3880SOL    HW221745   4.049   4.423   1.814 -1.8588  0.7161  1.2974
 3881SOL     OW21746   1.098   1.650   2.002  0.1905  0.3769  0.2098
 3881SOL    HW121747   1.048   1.731   1.974 -0.3422 -0.1282 -0.2938
 3881SOL    HW221748   1.195   1.660   1.977 -0.2639 -0.0625 -1.8213
 3882SOL     OW21749   3.241   6.092   0.963 -0.0089 -0.3645  0.0580
 3882SOL    HW121750   3.165   6.154   0.946 -0.4794 -1.1310 -0.6462
 3882SOL    HW221751   3.284   6.115   1.051  0.8599  2.0224 -0.9407
 3883SOL     OW21752   9.945   6.246   1.121 -0.6805  0.1867  0.1382
 3883SOL    HW121753   9.981   6.331   1.159 -0.6312 -0.1288  0.7953
 3883SOL    HW221754   9.887   6.267   1.042 -0.0870  0.7800 -0.1470
 3884SOL     OW21755   9.385   8.038   1.651  0.0220  0.1637  0.1847
 3884SOL    HW121756   9.330   8.042   1.567 -0.1869 -0.4080  0.2900
 3884SOL    HW221757   9.429   8.126   1.666  0.5497  0.0850 -0.8630
 3885SOL     OW21758   0.478   5.513   2.531  0.1832 -1.0634  0.3977
 3885SOL    HW121759   0.449   5.546   2.621  0.0066  0.5545 -0.2356
 3885SOL    HW221760   0.547   5.574   2.493 -0.6283 -1.0396 -1.0872
 3886SOL     OW21761   2.619   3.121   2.273  0.0784  0.0917 -0.2154
 3886SOL    HW121762   2.533   3.096   2.318 -0.1783 -1.2480 -1.4305
 3886SOL    HW221763   2.600   3.159   2.183  0.7944 -0.8479 -0.7714
 3887SOL     OW21764   9.558   8.883   1.710  0.4014 -0.7708 -0.0340
 3887SOL    HW121765   9.557   8.896   1.809 -0.5611 -2.1120  0.1593
 3887SOL    HW221766   9.536   8.787   1.689 -0.9252 -0.1563 -1.5950
 3888SOL     OW21767   9.591   1.457   2.785 -0.2892  0.1425 -0.2233
 3888SOL    HW121768   9.624   1.521   2.855 -0.4985  1.0345 -0.9293
 3888SOL    HW221769   9.669   1.408   2.745 -0.2586 -1.1264  1.3424
 3889SOL     OW21770   0.590   5.057   0.232  0.3868 -0.1907 -0.0380
 3889SOL    HW121771   0.658   5.047   0.160  0.3058 -1.6008  0.0566
 3889SOL    HW221772   0.522   4.983   0.224 -1.2568  1.3086 -0.2720
 3890SOL     OW21773   2.890   2.665   1.772  0.2164  0.1153 -0.1878
 3890SOL    HW121774   2.881   2.704   1.680 -1.7558  0.3237  0.0661
 3890SOL    HW221775   2.981   2.684   1.808  1.1042 -0.1778 -2.1961
 3891SOL     OW21776   4.160   2.718   0.806  0.7881 -0.0334  0.0117
 3891SOL    HW121777   4.260   2.722   0.818  0.7437  1.1931  0.0836
 3891SOL    HW221778   4.139   2.707   0.709  1.0027 -0.1968 -0.0159
 3892SOL     OW21779   3.941   9.405   1.542  0.3059 -0.1572 -0.0343
 3892SOL    HW121780   4.005   9.470   1.583  0.0658  0.6309 -0.8643
 3892SOL    HW221781   3.991   9.328   1.504  0.7522  0.3419 -0.4783
 3893SOL     OW21782   2.445   5.753   0.644 -0.1273 -0.5610 -0.5831
 3893SOL    HW121783   2.473   5.773   0.738 -0.4944 -2.1392 -0.1259
 3893SOL    HW221784   2.517   5.782   0.581  0.6829 -0.6689  0.2864
 3894SOL     OW21785   4.249   8.560   0.086  0.3142  0.2470 -0.0831
 3894SOL    HW121786   4.235   8.482   0.147  0.7255  0.1492 -0.1177
 3894SOL    HW221787   4.221   8.644   0.133  1.1664  0.2405  0.4489
 3895SOL     OW21788   3.878   2.573   0.478 -0.0109  0.1057 -0.1187
 3895SOL    HW121789   3.823   2.656   0.483  0.4838  0.3539  1.4761
 3895SOL    HW221790   3.817   2.494   0.467 -0.6406  0.4539  0.8131
 3896SOL     OW21791   9.115   7.224   1.389  0.0502 -0.3091  0.0456
 3896SOL    HW121792   9.042   7.289   1.412 -0.3658 -0.9569  0.5773
 3896SOL    HW221793   9.153   7.247   1.299 -1.2129 -0.3331 -0.5018
 3897SOL     OW21794   4.346   8.757   1.311  0.1987 -0.3513 -0.2359
 3897SOL    HW121795   4.362   8.744   1.409 -1.4031  1.5861  0.3338
 3897SOL    HW221796   4.274   8.695   1.280 -2.7415  2.2761  0.9728
 3898SOL     OW21797   3.691   9.666   2.612  0.5570  0.3512  0.2128
 3898SOL    HW121798   3.662   9.742   2.671 -0.4594 -0.6767  1.0761
 3898SOL    HW221799   3.612   9.609   2.592  1.4678 -0.9089  0.2007
 3899SOL     OW21800   9.491   1.612   1.737 -0.2441 -0.7932  0.4532
 3899SOL    HW121801   9.459   1.683   1.799 -0.0062 -0.8297  0.6158
 3899SOL    HW221802   9.484   1.523   1.781  0.0156 -0.8092  0.4607
 3900SOL     OW21803   0.563   7.765   1.295  0.0181  0.6109  0.0948
 3900SOL    HW121804   0.555   7.795   1.200  0.8569 -0.1974 -0.2364
 3900SOL    HW221805   0.503   7.821   1.353 -2.2944 -0.3856 -1.2331
 3901SOL     OW21806   9.930   1.421   0.071  0.0312  0.1309 -0.3471
 3901SOL    HW121807   9.925   1.321   0.061 -0.4367 -0.0581  1.4729
 3901SOL    HW221808   9.967   1.443   0.161 -0.7775  1.6019 -0.3567
 3902SOL     OW21809   1.340   3.997   0.966  0.7746 -0.5848  0.1009
 3902SOL    HW121810   1.259   3.959   0.920 -0.1707  2.5615 -0.9406
 3902SOL    HW221811   1.332   3.981   1.065 -0.7691 -0.9278 -0.0602
 3903SOL     OW21812  10.165   2.105   0.558 -0.5440 -0.1964  0.0122
 3903SOL    HW121813  10.126   2.070   0.472  1.2700  0.0484 -0.9276
 3903SOL    HW221814  10.176   2.030   0.623  1.9364 -1.1763 -1.4604
 3904SOL     OW21815   2.456   5.246   2.230  0.5344 -0.0371  0.1668
 3904SOL    HW121816   2.525   5.180   2.200 -0.0502 -1.0189  0.9255
 3904SOL    HW221817   2.467   5.264   2.328  0.2116  0.4050  0.1214
 3905SOL     OW21818   1.801   3.513   2.507 -0.5711 -0.1006  0.0956
 3905SOL    HW121819   1.861   3.465   2.571 -0.2739  0.4911  0.2639
 3905SOL    HW221820   1.806   3.469   2.417  0.1659 -0.0139  0.0910
 3906SOL     OW21821   0.843   8.292   0.833  0.1959 -0.2515  0.7863
 3906SOL    HW121822   0.768   8.272   0.771  0.2217  0.1533  0.6213
 3906SOL    HW221823   0.813   8.359   0.901  0.7074  0.6832  0.0969
 3907SOL     OW21824   3.003   8.601   0.997 -0.2212 -0.7407  0.3026
 3907SOL    HW121825   3.024   8.505   0.977  2.1603 -0.2029 -0.0232
 3907SOL    HW221826   3.069   8.636   1.063 -0.0776  1.0960 -0.7737
 3908SOL     OW21827   3.265   2.720   1.701 -0.6722 -0.3422  0.6383
 3908SOL    HW121828   3.239   2.661   1.624 -0.3449 -0.0708  0.3162
 3908SOL    HW221829   3.208   2.699   1.780 -2.4852  0.8629 -0.3305
 3909SOL     OW21830   4.104   2.160   2.287 -0.2437  0.3012  0.3150
 3909SOL    HW121831   4.027   2.153   2.223 -0.0677  0.8694  0.0414
 3909SOL    HW221832   4.186   2.123   2.244 -0.1668  0.5127  0.2789
 3910SOL     OW21833   4.221   3.484   0.787 -1.0714 -0.5784  0.4533
 3910SOL    HW121834   4.233   3.432   0.702 -3.1082  0.1020 -0.2935
 3910SOL    HW221835   4.159   3.435   0.848 -1.8551  0.2720  0.3511
 3911SOL     OW21836   1.707   1.700   0.583  0.4223 -0.1836  0.2852
 3911SOL    HW121837   1.754   1.765   0.643  1.2905  1.4637 -2.1294
 3911SOL    HW221838   1.759   1.615   0.580 -0.1632 -0.6735  2.6307
 3912SOL     OW21839   1.745   4.566   2.770 -0.0321 -0.4910 -0.3270
 3912SOL    HW121840   1.736   4.587   2.673 -0.2601  1.6571  0.1215
 3912SOL    HW221841   1.669   4.508   2.799  0.0349 -1.1356 -1.4297
 3913SOL     OW21842   9.572   8.096   0.487  0.0219  0.0973 -0.1388
 3913SOL    HW121843   9.571   7.999   0.511  0.4067 -0.1191 -0.9812
 3913SOL    HW221844   9.624   8.109   0.402 -0.7446  0.9378 -0.4819
 3914SOL     OW21845   0.472   6.045   0.381 -0.0986  0.6683 -0.0588
 3914SOL    HW121846   0.389   6.023   0.433 -0.8123  0.3786 -1.3156
 3914SOL    HW221847   0.447   6.093   0.297  1.1630  2.5417  0.6049
 3915SOL     OW21848   2.339   5.435   1.509 -0.9835  0.0282 -0.1295
 3915SOL    HW121849   2.378   5.398   1.425 -0.5226 -0.6346  0.3770
 3915SOL    HW221850   2.352   5.534   1.511 -1.7223  0.1666 -1.2219
 3916SOL     OW21851   2.684   5.291   1.593  0.1069  0.0662 -0.2505
 3916SOL    HW121852   2.711   5.272   1.688 -0.5414  1.5427  0.2488
 3916SOL    HW221853   2.584   5.290   1.587  0.1717 -2.6024 -1.4883
 3917SOL     OW21854   3.055   0.427   0.326 -0.2290  0.1804 -0.6071
 3917SOL    HW121855   3.113   0.489   0.378  0.6541 -0.3330 -0.9838
 3917SOL    HW221856   3.081   0.428   0.230 -0.3522 -0.6123 -0.6545
 3918SOL     OW21857   2.981   5.142   1.416 -0.7155 -0.0788 -0.1192
 3918SOL    HW121858   2.896   5.193   1.405 -0.2550  0.5568 -0.8210
 3918SOL    HW221859   3.027   5.135   1.328  0.3037  0.2040  0.3814
 3919SOL     OW21860   9.260   4.317   1.772 -0.4275  0.3345  0.5716
 3919SOL    HW121861   9.161   4.309   1.781 -0.3771  1.2943  2.2922
 3919SOL    HW221862   9.282   4.386   1.703 -0.9515  0.4118  0.4804
 3920SOL     OW21863   2.126   2.200   1.467 -0.0542  0.3505  0.2719
 3920SOL    HW121864   2.079   2.210   1.555 -2.1640 -1.2110 -0.6368
 3920SOL    HW221865   2.109   2.108   1.431 -1.7768  1.9476 -3.2049
 3921SOL     OW21866   3.261   1.139   1.436 -0.3490 -0.0551  0.0904
 3921SOL    HW121867   3.325   1.165   1.509 -1.9856  0.3799  1.4210
 3921SOL    HW221868   3.268   1.204   1.361 -1.0998  1.5863  1.3892
 3922SOL     OW21869  10.293   0.726   2.775  0.4697 -0.0232  0.3500
 3922SOL    HW121870  10.205   0.705   2.733  1.0953  0.9907 -1.5271
 3922SOL    HW221871  10.316   0.656   2.842 -0.9738 -1.1931 -0.3591
 3923SOL     OW21872   9.762   1.619   2.284  0.3969  0.0463 -0.5714
 3923SOL    HW121873   9.837   1.555   2.266  1.3292  1.2646 -1.0037
 3923SOL    HW221874   9.737   1.666   2.200  0.1472  0.7312 -0.1143
 3924SOL     OW21875   1.566   5.369   1.493  0.1113  0.4161  0.1739
 3924SOL    HW121876   1.466   5.372   1.488  0.0616 -0.3295  0.6541
 3924SOL    HW221877   1.596   5.415   1.576  0.0767 -0.6452  0.7887
 3925SOL     OW21878   2.212   0.005   1.234 -0.0901  0.2569 -0.1261
 3925SOL    HW121879   2.228   0.035   1.328  0.7497  1.8119 -0.7598
 3925SOL    HW221880   2.157   0.072   1.186  1.4283  0.6120 -1.4223
 3926SOL     OW21881   9.910   1.154   1.477 -0.1504  0.7044 -0.0247
 3926SOL    HW121882   9.991   1.159   1.418 -0.5076  0.3554 -0.5489
 3926SOL    HW221883   9.842   1.220   1.446  1.2584  3.4789  2.4971
 3927SOL     OW21884   1.124   2.182   0.947  0.5739  0.4530  0.1883
 3927SOL    HW121885   1.136   2.175   0.848 -0.4228  2.0222 -0.0589
 3927SOL    HW221886   1.144   2.094   0.990  1.9282  0.0064 -1.3105
 3928SOL     OW21887   9.088   2.292   2.101  0.0965  0.0858  0.1154
 3928SOL    HW121888   9.000   2.314   2.143 -0.0660  0.5912 -0.4887
 3928SOL    HW221889   9.159   2.348   2.143  0.0875 -0.1056  0.3906
 3929SOL     OW21890   0.545   0.413   0.919 -0.5798  0.2049  0.3562
 3929SOL    HW121891   0.457   0.373   0.891 -0.6250  1.2211 -0.9807
 3929SOL    HW221892   0.531   0.509   0.943  0.4009  0.7838 -1.2797
 3930SOL     OW21893   2.453   6.293   2.439  0.7780  0.6326  0.4731
 3930SOL    HW121894   2.458   6.392   2.431  1.1994  0.5712 -0.1366
 3930SOL    HW221895   2.527   6.252   2.385  0.1078 -0.0349  0.0523
 3931SOL     OW21896   9.848   5.523   0.430  0.2883  0.0453 -0.4824
 3931SOL    HW121897   9.813   5.489   0.342 -1.1641 -0.7366  0.3690
 3931SOL    HW221898   9.803   5.609   0.452  0.2528 -0.0289 -0.2599
 3932SOL     OW21899   3.313   3.587   1.335  0.1188 -0.2735 -0.1915
 3932SOL    HW121900   3.384   3.522   1.311  1.3587  0.5611  1.1528
 3932SOL    HW221901   3.255   3.549   1.407  2.1928  0.9272  2.1817
 3933SOL     OW21902   3.841   8.746   2.537  0.2815 -0.1486  0.2952
 3933SOL    HW121903   3.754   8.699   2.550  1.2372 -2.3037 -0.8768
 3933SOL    HW221904   3.825   8.844   2.530 -2.0821 -0.5517 -0.2736
 3934SOL     OW21905   1.838   5.427   1.593 -0.4284 -0.6676  0.1098
 3934SOL    HW121906   1.935   5.405   1.597 -0.7332 -1.9514  0.8572
 3934SOL    HW221907   1.797   5.386   1.512 -0.3236 -0.0181 -0.2739
 3935SOL     OW21908   0.920   6.182   0.547 -0.3251 -0.2532 -0.6674
 3935SOL    HW121909   0.973   6.237   0.483 -0.2593  1.4926  0.8219
 3935SOL    HW221910   0.975   6.104   0.577  0.9911  0.8869 -0.0359
 3936SOL     OW21911   0.607   8.140   1.289 -0.2250 -0.1703 -0.3095
 3936SOL    HW121912   0.689   8.147   1.346 -1.9833 -1.9380  2.5343
 3936SOL    HW221913   0.630   8.089   1.205  1.9058  0.7206 -0.3178
 3937SOL     OW21914   8.943   7.081   2.194  0.1237  0.3352  0.1251
 3937SOL    HW121915   9.024   7.024   2.182  0.3411  0.8508 -0.8909
 3937SOL    HW221916   8.892   7.049   2.275  1.9652  0.7930  1.4983
 3938SOL     OW21917   1.311   7.412   2.821  0.9005 -0.2948  0.2795
 3938SOL    HW121918   1.393   7.355   2.817  0.5229 -0.8729  0.6415
 3938SOL    HW221919   1.231   7.353   2.834  0.4995  0.3207  0.6053
 3939SOL     OW21920   9.281   6.678   1.923  0.9622  0.3688 -0.2635
 3939SOL    HW121921   9.260   6.746   1.993 -2.2436 -0.8624  0.0806
 3939SOL    HW221922   9.241   6.706   1.836  2.3148  0.4166 -0.8836
 3940SOL     OW21923   1.924   1.416   0.725 -0.4253  0.0486 -0.2762
 3940SOL    HW121924   1.930   1.448   0.630 -1.8218 -0.5402 -0.5692
 3940SOL    HW221925   1.907   1.493   0.786 -0.6211  0.2857 -0.6292
 3941SOL     OW21926   0.704   8.395   1.550  0.1333  0.5000  0.0610
 3941SOL    HW121927   0.773   8.349   1.606  0.7263  1.3232  0.0113
 3941SOL    HW221928   0.749   8.454   1.483 -0.5641 -0.5669 -1.3717
 3942SOL     OW21929   1.833   5.757   0.935 -0.2919 -0.2216  0.3666
 3942SOL    HW121930   1.739   5.782   0.909 -0.2590 -0.2243  0.2430
 3942SOL    HW221931   1.860   5.808   1.017 -0.8223 -1.0925  1.0899
 3943SOL     OW21932   0.808   1.758   0.210  0.1603  0.0300 -0.0845
 3943SOL    HW121933   0.842   1.841   0.166 -0.1306 -0.0920 -0.5488
 3943SOL    HW221934   0.710   1.749   0.194  0.3281 -0.8020 -0.6989
 3944SOL     OW21935   9.809   2.500   1.293  0.1717 -0.2095 -0.6449
 3944SOL    HW121936   9.746   2.564   1.248  2.5985  1.5883 -1.6434
 3944SOL    HW221937   9.816   2.522   1.390 -0.5031 -0.2136 -0.5952
 3945SOL     OW21938   0.708   1.772   2.283  0.3721  0.3141 -0.4207
 3945SOL    HW121939   0.794   1.720   2.282  0.1938 -0.0153  0.4560
 3945SOL    HW221940   0.659   1.757   2.197  0.7039 -0.3373 -0.5013
 3946SOL     OW21941   9.928   9.052   2.090 -0.2218 -0.7732 -0.4894
 3946SOL    HW121942   9.971   8.961   2.081 -0.6840 -0.9396 -1.0247
 3946SOL    HW221943   9.833   9.041   2.117  0.0526 -0.3998  0.6066
 3947SOL     OW21944   0.340   5.675   0.516 -0.2361 -0.4967  0.0274
 3947SOL    HW121945   0.418   5.696   0.456 -0.6505  0.4232 -0.1929
 3947SOL    HW221946   0.257   5.715   0.478 -0.8948 -1.8311  0.0527
 3948SOL     OW21947   8.718   7.507   0.088 -0.5747 -0.0361 -0.5627
 3948SOL    HW121948   8.782   7.491   0.013 -0.4902 -0.8674 -0.3218
 3948SOL    HW221949   8.624   7.507   0.053 -0.5979 -1.3646 -0.5424
 3949SOL     OW21950   0.556   1.583   2.758  0.9172 -0.3672 -0.4414
 3949SOL    HW121951   0.529   1.498   2.713  1.6840 -1.1099  0.4830
 3949SOL    HW221952   0.597   1.644   2.690 -1.0840 -0.0719 -1.4250
 3950SOL     OW21953   9.522   5.220   2.830  0.1356  0.2060  0.4722
 3950SOL    HW121954   9.617   5.247   2.814  0.1768  0.0250  0.4218
 3950SOL    HW221955   9.462   5.286   2.785  0.2413  0.1374  0.2309
 3951SOL     OW21956   3.433   5.728   0.449 -0.2636 -0.0772  0.4365
 3951SOL    HW121957   3.496   5.738   0.526 -0.6272  0.7026  0.6296
 3951SOL    HW221958   3.454   5.643   0.400 -0.9235 -1.2823  2.1973
 3952SOL     OW21959   5.439   3.522   0.705 -0.2920 -0.4538  0.1509
 3952SOL    HW121960   5.517   3.555   0.759  0.5677 -3.3737  0.7616
 3952SOL    HW221961   5.422   3.426   0.727 -2.1955 -0.6727 -2.1846
 3953SOL     OW21962   2.727   9.701   1.880  0.0430  0.0094  0.4394
 3953SOL    HW121963   2.785   9.629   1.919  0.9339  0.9895  0.9779
 3953SOL    HW221964   2.784   9.765   1.828 -0.1639  2.2266  2.7942
 3954SOL     OW21965   4.490   9.508   1.592  0.4079  0.5264 -0.3951
 3954SOL    HW121966   4.542   9.454   1.658  2.3868  1.6755 -0.9771
 3954SOL    HW221967   4.530   9.497   1.501 -1.6162 -0.1679 -1.2225
 3955SOL     OW21968   1.472   0.757   0.210  0.3618  0.2159  0.1002
 3955SOL    HW121969   1.412   0.787   0.283 -0.2256 -0.4814 -0.0863
 3955SOL    HW221970   1.439   0.670   0.173  0.2470  0.9098 -1.4602
 3956SOL     OW21971   2.637   5.952   0.226  0.3037  0.3975  0.4120
 3956SOL    HW121972   2.572   5.876   0.222  0.8660 -0.1580  1.3658
 3956SOL    HW221973   2.676   5.967   0.135 -1.2268  0.8157 -0.1912
 3957SOL     OW21974   3.068   4.530   0.638  0.2780  0.4043  0.0187
 3957SOL    HW121975   3.109   4.523   0.729  1.4102  1.2206 -0.4127
 3957SOL    HW221976   3.023   4.619   0.628 -0.8372 -0.1344  0.1738
 3958SOL     OW21977   2.246   2.583   2.559 -0.5691 -0.0282  0.1651
 3958SOL    HW121978   2.250   2.636   2.643 -1.7918  0.0300  0.1959
 3958SOL    HW221979   2.281   2.491   2.576  2.2640  0.9758 -0.0716
 3959SOL     OW21980   4.535   2.380   0.707 -0.2282  0.4546 -0.3165
 3959SOL    HW121981   4.481   2.446   0.654 -0.2406  0.1903 -0.6355
 3959SOL    HW221982   4.474   2.312   0.748  0.0303 -1.2718 -2.6589
 3960SOL     OW21983  10.251   5.977   0.501 -0.0180  0.7602 -0.2900
 3960SOL    HW121984  10.274   5.917   0.577 -0.1962 -1.1798 -1.7405
 3960SOL    HW221985  10.158   6.013   0.515 -0.1671  0.1807  0.2705
 3961SOL     OW21986   4.759   3.578   2.564  0.6364  0.6149  0.0900
 3961SOL    HW121987   4.809   3.629   2.495  0.5639  1.9418  1.0018
 3961SOL    HW221988   4.660   3.591   2.550  0.5834 -0.0723 -0.2518
 3962SOL     OW21989   0.385   9.519   2.573 -0.0491 -0.0929 -0.3049
 3962SOL    HW121990   0.421   9.534   2.665  0.9587 -0.8640 -0.5619
 3962SOL    HW221991   0.374   9.606   2.525  1.6284  0.1374 -0.2763
 3963SOL     OW21992   3.490   8.317   1.486 -0.4675 -0.0445  0.5774
 3963SOL    HW121993   3.444   8.406   1.486  0.3490  0.3847  2.3434
 3963SOL    HW221994   3.494   8.282   1.392  0.3626  2.3700 -0.3097
 3964SOL     OW21995   0.877   6.895   0.848 -0.3965 -0.0615 -0.2915
 3964SOL    HW121996   0.892   6.807   0.893  0.9698  1.5486  2.5662
 3964SOL    HW221997   0.943   6.906   0.774  1.0782 -0.4403  0.9246
 3965SOL     OW21998   3.631   3.190   0.431 -0.0101 -0.3340  0.1293
 3965SOL    HW121999   3.589   3.280   0.434 -0.2392 -0.4579  0.6767
 3965SOL    HW222000   3.562   3.121   0.407  0.2359 -0.3228 -0.6336
 3966SOL     OW22001   2.769   2.791   2.249  0.4361 -0.3420  0.0201
 3966SOL    HW122002   2.794   2.866   2.310 -1.3603 -1.5719  2.3296
 3966SOL    HW222003   2.683   2.813   2.203 -0.0817 -0.9703  0.6872
 3967SOL     OW22004   3.413   6.167   0.443 -0.4273  0.1612 -0.1495
 3967SOL    HW122005   3.419   6.135   0.538 -0.4395 -0.1887 -0.2669
 3967SOL    HW222006   3.482   6.121   0.388  1.0771  1.9840  0.1390
 3968SOL     OW22007   0.721   4.580   0.842 -0.0837 -0.2788  0.2662
 3968SOL    HW122008   0.742   4.675   0.863 -0.5431 -0.1483  0.1450
 3968SOL    HW222009   0.683   4.535   0.923  0.9042 -0.5870  0.5625
 3969SOL     OW22010   1.513   3.453   0.264 -0.7873 -0.0143 -0.6366
 3969SOL    HW122011   1.428   3.464   0.316 -0.8291  1.0230 -0.9010
 3969SOL    HW222012   1.493   3.458   0.166 -0.4453  0.1161 -0.7023
 3970SOL     OW22013   1.601   7.364   0.559 -0.6579 -0.0736  0.6629
 3970SOL    HW122014   1.639   7.413   0.637 -0.4321  2.2798 -0.8886
 3970SOL    HW222015   1.665   7.369   0.483 -1.2347 -1.6613  0.0617
 3971SOL     OW22016  10.112   0.624   0.854  0.1293 -0.0085  0.1780
 3971SOL    HW122017  10.157   0.712   0.839 -0.1523  0.0769 -0.1584
 3971SOL    HW222018  10.030   0.618   0.797  0.0957 -0.4479  0.2730
 3972SOL     OW22019   0.679   1.969   1.105 -0.0066 -0.1772  0.3357
 3972SOL    HW122020   0.737   2.032   1.053 -0.7415 -2.3301 -3.3074
 3972SOL    HW222021   0.733   1.891   1.135 -0.0328  0.0678  1.0276
 3973SOL     OW22022   9.246   4.251   0.220  0.6488  0.2757 -0.6742
 3973SOL    HW122023   9.194   4.171   0.188  0.5531  0.9276 -2.2244
 3973SOL    HW222024   9.183   4.316   0.264  0.5569 -0.0453 -0.3330
 3974SOL     OW22025   1.269   1.347   1.453  0.4406 -0.1593  0.2996
 3974SOL    HW122026   1.241   1.418   1.519 -0.0353 -0.1576  0.0915
 3974SOL    HW222027   1.189   1.311   1.406  0.8824  0.6115 -1.0698
 3975SOL     OW22028   2.587   3.827   0.758 -0.6507 -0.0716  0.1167
 3975SOL    HW122029   2.510   3.780   0.803 -0.1281 -0.7392  0.3320
 3975SOL    HW222030   2.626   3.894   0.821 -0.9859  0.1826  0.0511
 3976SOL     OW22031   3.054   4.010   0.201  0.0659  0.7702 -0.0538
 3976SOL    HW122032   2.968   3.968   0.173  0.3792 -0.2230  0.4393
 3976SOL    HW222033   3.130   3.959   0.161  0.4713  0.2752  1.3183
 3977SOL     OW22034   9.643   4.765   1.722 -0.2009  0.0104 -0.3518
 3977SOL    HW122035   9.736   4.771   1.685 -0.0299 -0.4577 -0.0036
 3977SOL    HW222036   9.635   4.683   1.779 -0.9635 -0.1950 -0.7530
 3978SOL     OW22037   9.391   6.774   0.139  0.5542 -0.8274 -0.2293
 3978SOL    HW122038   9.411   6.714   0.216 -1.5097 -0.3725  0.7215
 3978SOL    HW222039   9.396   6.870   0.170  2.6773 -0.5372 -1.4286
 3979SOL     OW22040   2.382   0.831   1.264 -0.1997 -0.1941 -0.3014
 3979SOL    HW122041   2.352   0.910   1.209  1.4000  1.7726  1.5462
 3979SOL    HW222042   2.362   0.747   1.215 -0.1740  1.4291 -3.2253
 3980SOL     OW22043   3.120   4.852   1.188 -0.3181 -0.2226  0.1098
 3980SOL    HW122044   3.192   4.914   1.220 -1.2966  0.7384  0.4708
 3980SOL    HW222045   3.052   4.903   1.137  0.2209 -1.4406 -1.8797
 3981SOL     OW22046   1.918   3.945   0.220 -0.7480 -0.2564 -0.1131
 3981SOL    HW122047   1.994   3.982   0.166 -1.9340  1.5188 -0.5917
 3981SOL    HW222048   1.950   3.865   0.272  1.0517 -0.4350 -1.4546
 3982SOL     OW22049   2.357   8.821   0.213 -0.1137  0.0595  0.0266
 3982SOL    HW122050   2.417   8.748   0.244  2.2830  2.0191  0.1214
 3982SOL    HW222051   2.267   8.783   0.190  0.8546 -2.7679  0.7588
 3983SOL     OW22052   9.665   6.703   0.625 -0.1924  0.7356  0.1925
 3983SOL    HW122053   9.578   6.654   0.630  0.3972 -0.3121  0.3953
 3983SOL    HW222054   9.740   6.638   0.634  0.6049  1.7452  0.9422
 3984SOL     OW22055   0.728   4.377   2.003 -0.3072 -0.2861  0.1583
 3984SOL    HW122056   0.803   4.366   1.938 -1.6178  1.5561 -1.7547
 3984SOL    HW222057   0.644   4.337   1.964 -0.5499 -1.5589  1.8998
 3985SOL     OW22058   4.181   3.084   2.289 -0.5740 -0.2719 -0.3386
 3985SOL    HW122059   4.172   3.166   2.233 -0.4095  0.3839  0.5836
 3985SOL    HW222060   4.278   3.067   2.308 -0.7171  0.5889  1.3010
 3986SOL     OW22061   2.001   0.379   1.419 -0.1159 -0.5732  0.5027
 3986SOL    HW122062   1.932   0.448   1.438  0.4849  0.2241 -0.1250
 3986SOL    HW222063   1.972   0.290   1.455 -2.5224 -0.7603 -1.7884
 3987SOL     OW22064   2.626   0.491   2.633 -0.2106 -0.1111  0.5080
 3987SOL    HW122065   2.535   0.529   2.649 -0.4312  0.1826 -1.3172
 3987SOL    HW222066   2.685   0.509   2.712 -1.0581  1.7282  0.7338
 3988SOL     OW22067   1.314   2.685   2.186  0.0865 -0.0498 -0.2556
 3988SOL    HW122068   1.227   2.637   2.176 -0.1618  0.7043 -2.1534
 3988SOL    HW222069   1.299   2.770   2.237 -0.1644 -0.2547  0.0126
 3989SOL     OW22070   1.958   6.720   2.108  0.4747  0.2371  0.1007
 3989SOL    HW122071   2.019   6.641   2.100  1.0908  0.7242 -0.1109
 3989SOL    HW222072   1.870   6.691   2.144  0.8847 -0.4589  0.5545
 3990SOL     OW22073   2.316   1.879   0.499  0.1297 -0.4789  0.1317
 3990SOL    HW122074   2.234   1.847   0.546  1.8554 -2.1416  2.1141
 3990SOL    HW222075   2.364   1.802   0.459  0.3678  0.5667 -1.6338
 3991SOL     OW22076   9.181   6.721   2.267 -0.0830 -0.0965  0.1616
 3991SOL    HW122077   9.165   6.656   2.193  1.8253 -0.4493  0.0388
 3991SOL    HW222078   9.172   6.676   2.355  0.7308 -0.4145  0.0843
 3992SOL     OW22079   1.166   2.306   1.320  0.3916  0.0997  0.1432
 3992SOL    HW122080   1.155   2.356   1.234 -3.3645 -0.1268  0.4033
 3992SOL    HW222081   1.161   2.371   1.396 -1.3597 -0.2775  0.3622
 3993SOL     OW22082   4.779   4.225   2.195 -0.1853 -0.3663  0.3326
 3993SOL    HW122083   4.856   4.220   2.130  0.3207 -0.0109  0.9034
 3993SOL    HW222084   4.693   4.225   2.144  0.1340 -2.2744 -0.2600
 3994SOL     OW22085   0.414   5.907   0.724  0.3138 -0.0146 -0.5467
 3994SOL    HW122086   0.406   5.819   0.678 -1.0563 -1.5121  2.3839
 3994SOL    HW222087   0.493   5.905   0.786 -1.3436 -0.2951  1.6498
 3995SOL     OW22088   0.994   8.115   1.175  0.1751 -0.2549 -0.7661
 3995SOL    HW122089   0.995   8.209   1.143 -2.8819 -0.2715 -1.0680
 3995SOL    HW222090   1.055   8.060   1.117  1.6738  1.4308 -0.8292
 3996SOL     OW22091   0.781   3.836   1.863  0.0554  0.5341  0.1233
 3996SOL    HW122092   0.788   3.908   1.932  1.0620  0.9995 -0.4491
 3996SOL    HW222093   0.709   3.859   1.798 -1.5723 -0.3992  1.5836
 3997SOL     OW22094   9.761   4.522   0.609 -0.6030  0.2470  0.2702
 3997SOL    HW122095   9.705   4.601   0.633  1.1481  0.9575  2.1076
 3997SOL    HW222096   9.851   4.552   0.579 -1.0043 -0.9096 -2.3362
 3998SOL     OW22097  10.099   5.208   1.666 -0.4771  0.1820 -0.3673
 3998SOL    HW122098  10.093   5.269   1.745  1.8018 -1.8439  1.4429
 3998SOL    HW222099  10.148   5.254   1.592  0.5713  0.8579  0.7242
 3999SOL     OW22100   2.525   3.850   1.239  0.5675  0.2683  0.4223
 3999SOL    HW122101   2.509   3.946   1.214  2.1697  0.3862 -0.2078
 3999SOL    HW222102   2.440   3.798   1.228  0.1407  1.2452 -0.9832
 4000SOL     OW22103   1.660   5.721   1.542  0.1447  0.1471  0.1881
 4000SOL    HW122104   1.727   5.682   1.605  0.1429  0.1678  0.2030
 4000SOL    HW222105   1.590   5.769   1.594  0.8006  1.2019  0.1252
 4001SOL     OW22106   9.989   2.552   0.737  0.8336  0.2582 -0.3484
 4001SOL    HW122107  10.065   2.493   0.711  0.3727 -0.3522 -0.3116
 4001SOL    HW222108   9.912   2.538   0.674  0.6085  0.5856 -0.1489
 4002SOL     OW22109   1.840   0.028   0.305  0.3434  0.2719 -0.0207
 4002SOL    HW122110   1.859   0.109   0.249  1.7063  0.8834  1.3072
 4002SOL    HW222111   1.913   0.015   0.371  0.2910 -2.2382 -0.4042
 4003SOL     OW22112   1.766   7.623   2.430 -0.3056 -0.2539 -0.1354
 4003SOL    HW122113   1.863   7.638   2.454  0.2391 -1.9717 -1.2087
 4003SOL    HW222114   1.709   7.650   2.508  1.0140  1.0070  0.4309
 4004SOL     OW22115   2.402   1.986   1.130 -1.2231 -0.1525 -0.2556
 4004SOL    HW122116   2.470   2.011   1.062 -0.0741 -2.1905  0.1161
 4004SOL    HW222117   2.408   2.048   1.208  0.0963 -0.2050 -0.3074
 4005SOL     OW22118   1.701   6.669   2.197  0.2767 -0.3503 -0.1275
 4005SOL    HW122119   1.645   6.613   2.136 -2.0830  1.1249  0.6072
 4005SOL    HW222120   1.659   6.671   2.288  1.3532  1.0827  0.3574
 4006SOL     OW22121   2.879   4.752   0.662  0.0390  0.0043  0.1194
 4006SOL    HW122122   2.818   4.693   0.714  3.5151 -2.7154  1.2749
 4006SOL    HW222123   2.908   4.829   0.719 -0.8001  0.2834  0.1789
 4007SOL     OW22124  10.150   9.679   2.367  0.2832 -0.2377  0.3660
 4007SOL    HW122125  10.167   9.755   2.304  0.2172  0.0141  0.6509
 4007SOL    HW222126  10.053   9.656   2.366  0.2087  0.0609  0.7112
 4008SOL     OW22127   3.572   4.042   0.219 -0.0019 -0.5883 -0.4662
 4008SOL    HW122128   3.576   4.046   0.119 -1.5061  0.0037 -0.5246
 4008SOL    HW222129   3.574   4.135   0.256 -0.1198 -0.7719  0.0096
 4009SOL     OW22130   9.205   6.268   0.310 -0.4718  0.3749  0.1202
 4009SOL    HW122131   9.226   6.281   0.407 -0.6295  3.7089 -0.2518
 4009SOL    HW222132   9.244   6.343   0.257 -1.1397 -0.9590 -2.3024
 4010SOL     OW22133  10.014   6.766   1.764 -0.1793  0.3508  0.0456
 4010SOL    HW122134  10.111   6.769   1.741 -0.0992 -1.0963  0.1150
 4010SOL    HW222135   9.960   6.762   1.679 -0.0145 -1.9769 -0.0000
 4011SOL     OW22136   4.477   2.113   0.467 -0.0089  0.3423 -0.0584
 4011SOL    HW122137   4.501   2.035   0.410  0.3815  0.2251  0.2686
 4011SOL    HW222138   4.561   2.157   0.501 -0.2528 -0.0995  1.1283
 4012SOL     OW22139  10.081   0.083   0.719 -0.3397  0.3817  0.0664
 4012SOL    HW122140  10.018   0.122   0.653 -2.0647 -0.4143  1.2061
 4012SOL    HW222141  10.127   0.004   0.678 -0.4852  0.6340 -0.5928
 4013SOL     OW22142   2.925   1.571   1.818  0.4037 -0.0163  0.4579
 4013SOL    HW122143   2.990   1.616   1.878 -0.0053 -0.5420  1.2990
 4013SOL    HW222144   2.850   1.634   1.797 -0.0738 -0.2240  1.4854
 4014SOL     OW22145   3.750   9.880   0.857 -0.2168 -0.2598 -0.2057
 4014SOL    HW122146   3.697   9.944   0.800 -0.5591 -0.5338 -0.1950
 4014SOL    HW222147   3.845   9.911   0.861 -0.1368 -0.3710 -1.1354
 4015SOL     OW22148   1.431   5.636   2.299 -0.3050  0.0956  0.1451
 4015SOL    HW122149   1.442   5.600   2.206 -0.1717  0.6989 -0.0749
 4015SOL    HW222150   1.334   5.652   2.316 -0.5359 -1.9695  0.8548
 4016SOL     OW22151   2.679   9.899   0.837  0.7003  0.0489  0.1874
 4016SOL    HW122152   2.631   9.947   0.764  2.4181  0.7898 -0.4796
 4016SOL    HW222153   2.618   9.890   0.916 -1.7661 -2.2349 -1.8516
 4017SOL     OW22154   3.938   0.225   0.295  0.1052 -0.2419  0.3854
 4017SOL    HW122155   4.000   0.179   0.230  0.7864  1.7989 -0.4427
 4017SOL    HW222156   3.864   0.268   0.244  0.6295  1.3431  0.9442
 4018SOL     OW22157   2.632   6.305   1.459  0.1151  0.3501 -0.1804
 4018SOL    HW122158   2.668   6.288   1.367 -1.0274 -0.9281 -0.3952
 4018SOL    HW222159   2.585   6.394   1.460  0.1402  0.3752 -0.8248
 4019SOL     OW22160   3.902   5.076   1.525 -0.7700 -0.1679  0.4719
 4019SOL    HW122161   3.821   5.110   1.477 -0.2090  1.4589  0.6435
 4019SOL    HW222162   3.889   5.088   1.624 -0.3453  0.0404  0.5022
 4020SOL     OW22163   9.427   4.783   1.947 -0.4318 -0.2381  0.2788
 4020SOL    HW122164   9.482   4.700   1.947  2.0978  1.4063 -0.0362
 4020SOL    HW222165   9.466   4.849   1.883 -2.4277  1.1995  0.5027
 4021SOL     OW22166   9.396   9.938   0.754  0.1537 -0.0266  0.1842
 4021SOL    HW122167   9.443  10.011   0.705 -0.4119 -0.4433 -1.0051
 4021SOL    HW222168   9.432   9.849   0.725 -0.2948 -0.2877  0.4077
 4022SOL     OW22169   2.835   5.457   2.218  0.4714  0.0171 -0.3034
 4022SOL    HW122170   2.882   5.483   2.302  0.7082 -0.0183 -0.4243
 4022SOL    HW222171   2.739   5.485   2.223  0.7727  1.1176 -0.5234
 4023SOL     OW22172   3.057   5.155   0.566 -0.1962  0.3260 -0.1458
 4023SOL    HW122173   3.052   5.182   0.662  1.3385 -0.9981  0.3247
 4023SOL    HW222174   3.052   5.236   0.508 -1.2433  1.1205  1.0329
 4024SOL     OW22175   1.740   8.609   1.655 -0.3000  0.0210  0.4650
 4024SOL    HW122176   1.779   8.518   1.670  1.6602  0.6183 -0.9009
 4024SOL    HW222177   1.808   8.679   1.676 -1.9575  1.2022  1.9854
 4025SOL     OW22178   2.526   1.440   0.747 -0.6698  0.2665  0.6573
 4025SOL    HW122179   2.567   1.485   0.827 -0.3393  0.5211  0.3455
 4025SOL    HW222180   2.578   1.357   0.725 -0.5764  0.3623  0.5179
 4026SOL     OW22181   4.359   4.795   2.225  0.3250 -0.0644  0.3494
 4026SOL    HW122182   4.306   4.771   2.144 -0.6609  0.2654  0.9002
 4026SOL    HW222183   4.298   4.824   2.299  1.2029 -0.4877  1.2602
 4027SOL     OW22184   3.152   8.420   1.625 -0.3718 -0.2184  0.6970
 4027SOL    HW122185   3.127   8.382   1.714  0.3079 -0.6607  0.7078
 4027SOL    HW222186   3.181   8.346   1.564  2.1034  0.3595  1.0989
 4028SOL     OW22187  10.309   8.997   2.399 -0.0811 -0.2297 -0.1918
 4028SOL    HW122188  10.385   8.999   2.334 -0.9209  0.2205 -1.1798
 4028SOL    HW222189  10.234   9.053   2.364 -0.9973 -0.9366  0.6110
 4029SOL     OW22190   0.579   2.921   1.017  0.2623  0.3666 -0.3994
 4029SOL    HW122191   0.539   2.862   0.946 -2.0703  1.4254 -0.0396
 4029SOL    HW222192   0.558   2.884   1.107 -0.6470  1.3466 -0.1890
 4030SOL     OW22193   2.616   0.108   0.074 -0.0596  0.6439 -0.2447
 4030SOL    HW122194   2.646   0.097  -0.021  2.0319 -0.0935  0.4704
 4030SOL    HW222195   2.517   0.100   0.079  0.0587 -2.3377 -1.9543
 4031SOL     OW22196   1.309   4.143   2.465 -1.1058  0.4070 -0.1682
 4031SOL    HW122197   1.362   4.170   2.545 -1.7733 -0.7890  0.7095
 4031SOL    HW222198   1.305   4.043   2.461 -1.6321  0.4687 -1.3329
 4032SOL     OW22199   1.630   3.902   1.635 -0.0553  0.2386  0.7825
 4032SOL    HW122200   1.676   3.943   1.714  0.6694  0.8075  0.0724
 4032SOL    HW222201   1.626   3.803   1.647  2.0013  0.1039  0.5305
 4033SOL     OW22202   3.128   5.021   2.615 -0.1146  0.6086  0.2495
 4033SOL    HW122203   3.081   5.032   2.702  1.4336  0.2346  1.1519
 4033SOL    HW222204   3.061   5.005   2.543 -1.2787 -1.7805  1.7969
 4034SOL     OW22205   1.744   7.785   1.513  0.4442 -0.2424 -0.3928
 4034SOL    HW122206   1.724   7.755   1.419  2.0824  2.1062 -1.5342
 4034SOL    HW222207   1.668   7.840   1.547 -0.0195 -0.8485 -0.4266
 4035SOL     OW22208   1.377   6.049   0.346  0.3905 -0.2414 -0.0686
 4035SOL    HW122209   1.446   6.121   0.348  1.0480 -0.8840  0.7027
 4035SOL    HW222210   1.417   5.965   0.309  1.0145 -1.6023  3.5522
 4036SOL     OW22211   4.599   2.590   0.883  0.1390 -0.1793 -0.1368
 4036SOL    HW122212   4.567   2.499   0.855 -2.1129  0.2145  1.0322
 4036SOL    HW222213   4.690   2.607   0.844 -0.1516 -2.2186 -1.8016
 4037SOL     OW22214   8.713   6.464   1.980  0.8284  0.3604 -0.2321
 4037SOL    HW122215   8.728   6.469   2.079 -0.3050 -1.1850  0.0299
 4037SOL    HW222216   8.694   6.555   1.944 -1.2586  0.5836  1.3823
 4038SOL     OW22217   9.389   3.911   0.146 -0.6915  0.0613 -0.6838
 4038SOL    HW122218   9.323   3.987   0.148 -0.3317  0.4351 -2.0288
 4038SOL    HW222219   9.340   3.825   0.134 -1.1048  0.0731  0.8745
 4039SOL     OW22220   0.908   4.542   0.137  0.0203 -0.0466  0.3689
 4039SOL    HW122221   0.917   4.626   0.190 -1.7948 -1.2412  2.6632
 4039SOL    HW222222   0.998   4.499   0.126  0.4580  0.3183  2.3613
 4040SOL     OW22223   9.568   6.085   1.048 -0.7325  0.0721  0.0356
 4040SOL    HW122224   9.637   6.119   0.984 -1.7602 -0.1015 -1.1925
 4040SOL    HW222225   9.593   5.993   1.078 -0.1920  0.1883 -0.0571
 4041SOL     OW22226   9.121   2.477   2.449 -0.2028  0.0138 -0.4379
 4041SOL    HW122227   9.169   2.439   2.528 -0.7288  1.2796  0.4998
 4041SOL    HW222228   9.187   2.492   2.375  0.8688  1.6232  0.8024
 4042SOL     OW22229   3.437   9.001   1.333 -0.8494 -0.3792  0.2352
 4042SOL    HW122230   3.351   9.050   1.344 -1.1265 -0.9879  0.7520
 4042SOL    HW222231   3.495   9.051   1.268 -2.4840 -1.1703 -1.8865
 4043SOL     OW22232   1.598   4.890   1.840 -0.5199 -0.6307 -0.4817
 4043SOL    HW122233   1.668   4.914   1.772 -1.5912 -1.7999 -2.0347
 4043SOL    HW222234   1.597   4.791   1.854  0.7023 -0.2883  2.3980
 4044SOL     OW22235   1.093   6.239   1.408 -0.9495 -0.0582  0.6509
 4044SOL    HW122236   1.193   6.239   1.411 -0.9936  0.9641  3.0129
 4044SOL    HW222237   1.062   6.319   1.355 -0.5330 -0.3683 -0.0718
 4045SOL     OW22238   2.216   3.133   1.752  0.2770  0.2653  0.0152
 4045SOL    HW122239   2.209   3.220   1.801  1.9686  0.8243 -0.6976
 4045SOL    HW222240   2.155   3.134   1.673 -0.8816  0.1808  0.8958
 4046SOL     OW22241   2.644   3.494   0.404  0.2277 -0.3109 -0.2433
 4046SOL    HW122242   2.555   3.526   0.370  0.9719  1.2102 -0.7527
 4046SOL    HW222243   2.647   3.505   0.504 -0.0587 -0.1327 -0.2532
 4047SOL     OW22244   4.213   5.459   0.882  0.0850  0.0233 -0.5929
 4047SOL    HW122245   4.278   5.531   0.906 -0.4092  0.4313 -0.4848
 4047SOL    HW222246   4.145   5.450   0.954 -0.6402  0.3703 -1.2251
 4048SOL     OW22247   3.090   0.926   2.161  0.0493 -0.5185 -0.0710
 4048SOL    HW122248   3.096   0.995   2.089  0.0642  1.2330  1.5831
 4048SOL    HW222249   3.076   0.836   2.119 -0.7421  0.5657 -2.2115
 4049SOL     OW22250   9.734   0.382   0.609  0.0917  0.1230 -0.5429
 4049SOL    HW122251   9.742   0.372   0.708 -0.4567  0.6920 -0.4426
 4049SOL    HW222252   9.642   0.358   0.580  0.4369 -0.6933 -1.0055
 4050SOL     OW22253   9.540   8.469   0.806  0.0193 -0.1485  0.0581
 4050SOL    HW122254   9.595   8.541   0.847  0.0751 -1.1390  1.7735
 4050SOL    HW222255   9.557   8.383   0.854 -2.8583 -0.5138  0.4822
 4051SOL     OW22256   1.574   6.819   1.461 -0.0671  0.5362  0.6359
 4051SOL    HW122257   1.594   6.782   1.552 -0.5802  0.0528  0.5569
 4051SOL    HW222258   1.635   6.776   1.394 -1.1873 -0.7828  0.4267
 4052SOL     OW22259   0.542   1.949   2.129 -0.1005 -0.1440  0.4250
 4052SOL    HW122260   0.552   1.862   2.080  0.1585  0.4694 -0.6228
 4052SOL    HW222261   0.606   1.951   2.205  0.2867 -0.6464  0.1210
 4053SOL     OW22262   2.795   8.944   0.208  0.4390  0.6603  0.1866
 4053SOL    HW122263   2.840   8.972   0.293 -1.4838  2.7126  0.6008
 4053SOL    HW222264   2.782   8.845   0.207  1.1613  0.5318  1.9578
 4054SOL     OW22265   1.602   7.663   0.236 -0.6171 -0.2164  0.1957
 4054SOL    HW122266   1.520   7.658   0.180 -1.0528 -0.8811  0.8950
 4054SOL    HW222267   1.675   7.610   0.194 -1.1390 -1.2548  0.5865
 4055SOL     OW22268   9.824   7.251   2.813 -0.0914  0.8408  0.6865
 4055SOL    HW122269   9.799   7.313   2.737  1.1830 -0.3516 -0.7330
 4055SOL    HW222270   9.818   7.156   2.782  0.0097  0.3182  2.2274
 4056SOL     OW22271   3.003   5.464   2.458 -0.4846 -0.3017 -0.1067
 4056SOL    HW122272   2.954   5.391   2.505 -1.4270 -0.7005 -1.6711
 4056SOL    HW222273   3.102   5.452   2.471 -0.6952 -1.0093  0.8699
 4057SOL     OW22274   8.650   7.603   0.812  0.1602 -0.0988  1.0809
 4057SOL    HW122275   8.695   7.519   0.781  0.7550 -0.0744  1.8693
 4057SOL    HW222276   8.703   7.644   0.886  1.5879  2.7227 -1.4068
 4058SOL     OW22277   2.863   2.463   0.133  0.0757  0.1861  0.3181
 4058SOL    HW122278   2.921   2.526   0.185  0.0609 -0.2705  0.8987
 4058SOL    HW222279   2.773   2.504   0.118  0.4044  0.7191 -0.2018
 4059SOL     OW22280   4.034   5.638   0.627 -0.3665 -0.2356  0.0796
 4059SOL    HW122281   4.029   5.638   0.727 -0.6077 -0.3236  0.0666
 4059SOL    HW222282   4.129   5.622   0.599 -0.3972 -0.7983  0.2843
 4060SOL     OW22283   2.557   7.495   0.749  0.0284  0.2669  0.4780
 4060SOL    HW122284   2.511   7.407   0.764  0.9579 -0.4777 -0.9190
 4060SOL    HW222285   2.570   7.509   0.651 -0.9116  2.3937  0.6369
 4061SOL     OW22286   9.538   6.541   1.829  0.4973 -1.0333  0.0303
 4061SOL    HW122287   9.549   6.575   1.735  1.1375 -1.9147 -0.2180
 4061SOL    HW222288   9.450   6.573   1.865  0.5425 -0.1296 -0.6223
 4062SOL     OW22289   2.989   5.955   0.735  0.7153 -0.0127 -0.0576
 4062SOL    HW122290   3.006   5.919   0.643 -2.5676  1.7267 -1.4262
 4062SOL    HW222291   2.984   6.055   0.731 -0.0549  0.0548  1.9377
 4063SOL     OW22292   0.823   3.280   2.451  0.3347  0.0679 -0.2628
 4063SOL    HW122293   0.765   3.274   2.532  2.6321  0.1631  1.4147
 4063SOL    HW222294   0.892   3.208   2.454  0.4536  0.0790 -2.1476
 4064SOL     OW22295   1.888   4.202   2.695 -0.1347  0.6678 -0.5335
 4064SOL    HW122296   1.878   4.216   2.793 -0.7694 -2.5756 -0.0694
 4064SOL    HW222297   1.797   4.188   2.654  0.3402 -1.4197 -0.9542
 4065SOL     OW22298   9.024   3.124   2.036  0.7003 -0.3911 -0.1952
 4065SOL    HW122299   9.074   3.068   1.970  0.6552  0.5939 -1.0885
 4065SOL    HW222300   9.030   3.083   2.127 -0.1826 -2.3727 -1.0104
 4066SOL     OW22301   3.093   9.989   1.595 -0.2326 -0.6624  0.6109
 4066SOL    HW122302   3.035  10.044   1.535 -0.2769  0.2895  1.4985
 4066SOL    HW222303   3.145  10.050   1.655  1.5383 -1.5010 -0.0340
 4067SOL     OW22304   3.933   5.480   1.815 -0.1349 -0.1467  0.0371
 4067SOL    HW122305   3.885   5.482   1.728 -0.9415 -2.0484  0.4049
 4067SOL    HW222306   3.868   5.462   1.889  0.1229  3.9697  1.3912
 4068SOL     OW22307   3.095   5.822   1.563 -0.3989  0.1308  0.3258
 4068SOL    HW122308   3.023   5.804   1.631 -0.4714  0.4330  0.3305
 4068SOL    HW222309   3.183   5.832   1.610 -0.2340 -0.9282  0.2582
 4069SOL     OW22310   2.155   2.745   0.437 -0.0962  0.9446 -0.6299
 4069SOL    HW122311   2.148   2.810   0.512 -0.5790 -0.0355  0.1794
 4069SOL    HW222312   2.185   2.656   0.472 -1.7098  0.0804 -1.3727
 4070SOL     OW22313   4.603   1.815   1.045  0.4561 -0.2157 -0.1022
 4070SOL    HW122314   4.516   1.768   1.032  2.1321 -3.5775  0.1734
 4070SOL    HW222315   4.610   1.892   0.981 -1.6594 -1.4434 -1.8573
 4071SOL     OW22316   2.893   1.652   0.907 -0.0269  0.1523 -0.4311
 4071SOL    HW122317   2.942   1.600   0.838 -0.3746 -0.8548  0.0634
 4071SOL    HW222318   2.796   1.628   0.905 -0.1063  0.4065  0.1341
 4072SOL     OW22319   2.161   2.312   1.189  0.0130  0.1357  0.1844
 4072SOL    HW122320   2.211   2.270   1.113  1.1976  1.2771  0.3220
 4072SOL    HW222321   2.182   2.264   1.274  0.4138  0.2518  0.1483
 4073SOL     OW22322   1.145   6.024   0.515 -0.1865  0.4076 -0.2630
 4073SOL    HW122323   1.112   5.952   0.454  0.8181 -0.6743  0.4582
 4073SOL    HW222324   1.225   6.067   0.474 -0.3514  0.6300 -0.3539
 4074SOL     OW22325   2.458   5.168   1.508  0.1882 -0.2101  0.3387
 4074SOL    HW122326   2.480   5.213   1.421 -2.5632 -0.5571 -0.5667
 4074SOL    HW222327   2.391   5.223   1.558  1.0897 -0.4703  1.8661
 4075SOL     OW22328   2.730   5.220   1.343  0.5775 -0.1334  0.3330
 4075SOL    HW122329   2.725   5.303   1.286  0.9711 -0.0676  0.3865
 4075SOL    HW222330   2.726   5.247   1.440 -0.8594 -0.3066  0.3276
 4076SOL     OW22331   4.647   9.735   0.888  0.0188 -0.6668  0.0367
 4076SOL    HW122332   4.689   9.647   0.863  0.9825  0.0034 -0.6988
 4076SOL    HW222333   4.605   9.776   0.808  0.3565 -0.0161  0.1972
 4077SOL     OW22334   2.114   4.392   2.832 -0.4888  0.3301  0.2524
 4077SOL    HW122335   2.137   4.424   2.924 -1.4063 -0.7881  0.8756
 4077SOL    HW222336   2.018   4.365   2.829 -0.0791 -1.0887 -0.6159
 4078SOL     OW22337   2.989   4.671   2.203  0.4962 -0.4064  0.0628
 4078SOL    HW122338   3.035   4.679   2.291 -1.2986 -0.2686  0.9965
 4078SOL    HW222339   2.939   4.584   2.199  0.1474 -0.1827 -0.6187
 4079SOL     OW22340   0.807   6.919   1.413  0.0848 -0.0833 -0.1510
 4079SOL    HW122341   0.712   6.943   1.393 -0.2499 -1.2181  0.0652
 4079SOL    HW222342   0.865   6.999   1.398 -1.3130  1.5568  2.6958
 4080SOL     OW22343   0.600   7.901   0.424  0.7011  0.7387 -0.3365
 4080SOL    HW122344   0.642   7.925   0.511  1.8841 -2.1246 -0.0686
 4080SOL    HW222345   0.501   7.890   0.436  0.8514  0.4359  0.6414
 4081SOL     OW22346   1.752   3.808   2.818 -0.1974  0.1422 -0.0776
 4081SOL    HW122347   1.689   3.758   2.877 -1.6809  1.0513 -0.8402
 4081SOL    HW222348   1.806   3.872   2.872  0.6167 -1.1689  0.6862
 4082SOL     OW22349   9.698   8.507   0.486  0.0174  0.3254  0.1578
 4082SOL    HW122350   9.753   8.552   0.557  0.0488 -0.0098  0.3484
 4082SOL    HW222351   9.629   8.450   0.530 -1.0365  1.4081 -0.0791
 4083SOL     OW22352   2.932   0.802   0.728 -0.2735  0.6430 -0.0937
 4083SOL    HW122353   2.984   0.727   0.769 -1.2957  0.7801  1.5264
 4083SOL    HW222354   2.834   0.786   0.742 -0.6196  1.0900 -1.8616
 4084SOL     OW22355   9.149   2.650   0.968  0.4091 -0.0062 -0.1931
 4084SOL    HW122356   9.183   2.710   0.896 -1.2266  1.5527  0.2844
 4084SOL    HW222357   9.191   2.675   1.055 -2.8752  2.8898  0.6699
 4085SOL     OW22358   4.619   3.535   1.720 -0.7346  0.1856  0.0164
 4085SOL    HW122359   4.685   3.470   1.757 -0.9629  0.1078  0.2912
 4085SOL    HW222360   4.653   3.572   1.633 -0.0075  0.6814  0.5135
 4086SOL     OW22361   4.417   8.411   2.639 -0.3407 -0.5404  0.8302
 4086SOL    HW122362   4.363   8.459   2.708 -1.1884 -0.2921  0.0087
 4086SOL    HW222363   4.372   8.420   2.550 -0.3878 -2.6445  0.6189
 4087SOL     OW22364   3.264   5.404   2.520  0.4875  0.1589 -0.0059
 4087SOL    HW122365   3.254   5.323   2.579  1.3115 -0.3551 -0.5519
 4087SOL    HW222366   3.323   5.381   2.443  0.2068  1.1122 -0.5098
 4088SOL     OW22367   1.420   7.383   0.960  0.2512 -0.3902 -0.2056
 4088SOL    HW122368   1.335   7.377   0.908 -0.3372 -0.3484  0.7265
 4088SOL    HW222369   1.400   7.374   1.058  1.0841  1.6070  0.1693
 4089SOL     OW22370   1.928   0.807   1.786  0.3836  0.5144 -0.2440
 4089SOL    HW122371   1.925   0.708   1.799 -0.3995  0.3267 -1.7372
 4089SOL    HW222372   1.972   0.850   1.865  1.5173 -1.0897  0.0147
 4090SOL     OW22373   0.573   1.130   2.636 -0.4106  0.3156  0.1838
 4090SOL    HW122374   0.514   1.055   2.603 -0.6322  1.1335 -1.3606
 4090SOL    HW222375   0.600   1.112   2.730 -1.4327 -1.1223  0.2300
 4091SOL     OW22376   1.105   2.269   1.880 -0.1482  0.4961 -0.3315
 4091SOL    HW122377   1.196   2.230   1.898 -0.9094 -1.8567 -1.3445
 4091SOL    HW222378   1.037   2.221   1.935 -0.9866  1.0949 -0.8338
 4092SOL     OW22379   2.958   2.288   0.782  0.4265 -0.3133  0.0602
 4092SOL    HW122380   2.950   2.371   0.837 -0.0737 -0.0725 -0.3626
 4092SOL    HW222381   2.909   2.302   0.696  1.9824 -0.3519 -0.8370
 4093SOL     OW22382   4.010   0.660   1.399 -0.3536 -0.1259 -0.3957
 4093SOL    HW122383   3.954   0.630   1.322 -0.2961  0.9508 -0.8789
 4093SOL    HW222384   4.097   0.697   1.364  0.2476 -0.8818  0.2782
 4094SOL     OW22385   2.217   6.980   1.193 -0.2673 -0.2817  0.2007
 4094SOL    HW122386   2.194   7.076   1.174  0.3480 -0.2372 -0.3356
 4094SOL    HW222387   2.186   6.923   1.117 -0.4459 -0.4840  0.4253
 4095SOL     OW22388   0.636   2.182   0.685  0.0364 -0.3966 -0.2267
 4095SOL    HW122389   0.596   2.122   0.615 -0.2498 -1.5770  0.9328
 4095SOL    HW222390   0.564   2.210   0.749  0.7643 -1.3511  1.0307
 4096SOL     OW22391   2.361   5.644   1.179  0.3343 -0.7794  0.0685
 4096SOL    HW122392   2.334   5.710   1.109  1.3294 -0.2026  0.2070
 4096SOL    HW222393   2.298   5.567   1.179  0.4486 -0.8964 -1.6301
 4097SOL     OW22394   4.100   2.976   0.466  0.3775 -0.3761 -0.4764
 4097SOL    HW122395   4.200   2.976   0.454  0.2295 -1.2358 -1.6681
 4097SOL    HW222396   4.056   3.008   0.383 -0.2719  2.1970  0.8100
 4098SOL     OW22397   3.203   0.811   1.809 -0.8198 -0.1639  0.3139
 4098SOL    HW122398   3.234   0.899   1.845  0.9202 -0.1755 -1.1152
 4098SOL    HW222399   3.104   0.816   1.791 -0.7710  1.4433  0.3972
 4099SOL     OW22400  10.319   6.330   0.461 -0.0670 -0.7455  0.1843
 4099SOL    HW122401  10.306   6.427   0.444  1.2285 -0.1852  2.1283
 4099SOL    HW222402  10.413   6.304   0.439  0.6446 -0.7278  2.9563
 4100SOL     OW22403   9.890   5.490   0.802  0.1091 -0.2008 -0.1538
 4100SOL    HW122404   9.818   5.486   0.871  0.4618 -1.7251  0.1496
 4100SOL    HW222405   9.873   5.421   0.732  2.2040 -1.8178  0.8727
 4101SOL     OW22406   1.603   1.387   1.265  0.8378  0.2564 -0.8464
 4101SOL    HW122407   1.579   1.474   1.307  0.7655  0.0318 -0.4234
 4101SOL    HW222408   1.698   1.389   1.235  1.0146  0.2679 -0.2893
 4102SOL     OW22409   9.876   6.510   2.132  0.2233  0.2021  0.4223
 4102SOL    HW122410   9.804   6.457   2.088  0.1158  1.6129 -1.1535
 4102SOL    HW222411   9.888   6.478   2.226 -1.7970 -0.6779  0.4093
 4103SOL     OW22412   4.563   8.989   1.856 -0.1420  0.3127  0.4085
 4103SOL    HW122413   4.495   9.063   1.859  1.6622  2.0738 -0.9947
 4103SOL    HW222414   4.653   9.024   1.881  0.7928 -1.3616 -0.4886
 4104SOL     OW22415   8.823   6.893   0.549 -0.3674  0.2417 -0.3272
 4104SOL    HW122416   8.899   6.830   0.533  1.3953  1.2673  3.4628
 4104SOL    HW222417   8.856   6.987   0.546 -1.0976  0.6512  2.9149
 4105SOL     OW22418  10.317   7.607   1.594  0.1119 -0.4683  0.6762
 4105SOL    HW122419  10.280   7.630   1.683  1.2631 -0.3803  1.1461
 4105SOL    HW222420  10.345   7.691   1.547 -1.4171 -0.4247 -0.1993
 4106SOL     OW22421   4.540   3.251   0.617  0.0944 -0.0725  0.4443
 4106SOL    HW122422   4.574   3.300   0.697  0.0514 -1.0869  1.0941
 4106SOL    HW222423   4.445   3.277   0.600  0.2726  0.5460  0.3967
 4107SOL     OW22424   0.424   7.847   1.519  0.0619  0.0008  0.4859
 4107SOL    HW122425   0.416   7.929   1.462  0.9951  0.3552  0.8510
 4107SOL    HW222426   0.483   7.867   1.598  1.7815 -1.5109 -0.3796
 4108SOL     OW22427   3.227   2.784   1.256  0.1426  0.4999  0.0003
 4108SOL    HW122428   3.318   2.820   1.275  0.1632  0.5165 -0.1292
 4108SOL    HW222429   3.233   2.685   1.243  0.3145  0.6525 -1.1146
 4109SOL     OW22430   1.545   0.639   1.348 -0.1093  0.1275 -0.4804
 4109SOL    HW122431   1.519   0.730   1.316  0.7383 -0.0038 -1.5594
 4109SOL    HW222432   1.463   0.589   1.375 -0.7029  0.7496 -1.0977
 4110SOL     OW22433   1.194   7.315   1.381 -0.0663 -0.0012  0.4450
 4110SOL    HW122434   1.227   7.298   1.289  1.2972 -1.7650  1.2421
 4110SOL    HW222435   1.260   7.281   1.448 -0.8088  1.6792  2.0902
 4111SOL     OW22436   2.033   0.830   1.405 -0.0901 -0.0308 -0.2382
 4111SOL    HW122437   2.051   0.928   1.392  0.0930 -0.0099  0.1901
 4111SOL    HW222438   2.118   0.784   1.431 -0.1376 -0.3354 -0.6239
 4112SOL     OW22439   9.244   8.053   1.420  0.3336  0.2805  0.3687
 4112SOL    HW122440   9.161   8.107   1.432  0.6705  0.8503  0.1594
 4112SOL    HW222441   9.222   7.955   1.430 -0.5027  0.3786 -0.4699
 4113SOL     OW22442   9.660   7.031   0.279  0.0402  0.3951  0.6312
 4113SOL    HW122443   9.634   7.062   0.187  2.1064  1.1611  0.2822
 4113SOL    HW222444   9.584   7.049   0.342 -0.6294  1.7794 -0.5174
 4114SOL     OW22445   0.686   3.597   0.202 -0.5759  0.0016 -0.4100
 4114SOL    HW122446   0.766   3.588   0.261  0.6757  5.0528 -1.1435
 4114SOL    HW222447   0.605   3.560   0.249  1.0946  0.3450  2.8137
 4115SOL     OW22448   2.767   5.958   1.280 -0.1530  0.9283  0.7497
 4115SOL    HW122449   2.816   5.967   1.193 -1.3439  0.3992  0.0146
 4115SOL    HW222450   2.813   6.012   1.350  2.6608 -1.1450  0.5763
 4116SOL     OW22451  10.066   8.591   1.540 -0.3442  0.0252 -0.0513
 4116SOL    HW122452  10.013   8.506   1.547  0.0121 -0.5164 -3.3688
 4116SOL    HW222453  10.087   8.610   1.445  1.9260  2.4507  0.8698
 4117SOL     OW22454   0.460   2.125   1.184  0.1426  0.3669 -0.2618
 4117SOL    HW122455   0.480   2.213   1.227  1.5132  0.6499 -1.4537
 4117SOL    HW222456   0.540   2.066   1.190 -0.9621 -1.0656  1.0808
 4118SOL     OW22457   1.331   7.370   2.471  0.0002 -0.1789 -0.0710
 4118SOL    HW122458   1.257   7.428   2.504  0.0803 -0.5098  0.6938
 4118SOL    HW222459   1.416   7.393   2.520  0.1801 -0.4772 -0.2434
 4119SOL     OW22460   1.368   0.295   1.988  0.0161 -0.0376  0.0604
 4119SOL    HW122461   1.340   0.207   1.949 -0.3696  0.6273 -1.2036
 4119SOL    HW222462   1.371   0.288   2.087 -0.1018 -1.4552 -0.0250
 4120SOL     OW22463   9.941   8.509   0.709 -0.1008  0.2641  0.0509
 4120SOL    HW122464  10.012   8.545   0.649 -0.8357  1.1475 -0.3085
 4120SOL    HW222465   9.971   8.423   0.749  0.9911  0.4105 -0.4362
 4121SOL     OW22466   1.722   6.569   0.971 -0.1590 -0.3806 -0.1676
 4121SOL    HW122467   1.780   6.506   1.021  1.2347  1.6808  0.8976
 4121SOL    HW222468   1.779   6.638   0.925 -1.6597  0.6708 -0.5100
 4122SOL     OW22469   2.228   9.164   0.981  0.3974 -0.2553  0.1034
 4122SOL    HW122470   2.277   9.249   1.002 -0.4557 -0.6210  3.9323
 4122SOL    HW222471   2.129   9.181   0.983  0.2345 -1.2155  0.4161
 4123SOL     OW22472   2.079   9.830   0.514  0.0276  0.1159  0.2347
 4123SOL    HW122473   2.153   9.809   0.578  0.9476  1.8061 -0.2435
 4123SOL    HW222474   2.026   9.906   0.549 -1.3681 -0.9408  0.4564
 4124SOL     OW22475   2.636   4.965   1.253 -0.4038  0.6031 -0.0213
 4124SOL    HW122476   2.548   4.983   1.207 -1.1286  2.1290  1.8966
 4124SOL    HW222477   2.662   5.045   1.307  2.3011  0.2376 -0.7213
 4125SOL     OW22478   9.211   5.726   1.314  0.2659 -0.2679 -0.0705
 4125SOL    HW122479   9.152   5.773   1.380  0.2008 -1.5246  0.7780
 4125SOL    HW222480   9.285   5.679   1.363  0.8919 -0.2357 -0.9869
 4126SOL     OW22481   2.989   9.672   0.350 -0.6184 -0.4702 -0.2543
 4126SOL    HW122482   3.057   9.623   0.404  0.1668  0.0618 -0.7513
 4126SOL    HW222483   2.909   9.692   0.406 -0.2695 -0.8970  0.3915
 4127SOL     OW22484   2.234   3.776   1.161 -0.3623 -0.4965 -0.3328
 4127SOL    HW122485   2.213   3.817   1.250 -0.7326  0.0689 -0.6818
 4127SOL    HW222486   2.153   3.728   1.126  0.2896 -2.2416  0.4418
 4128SOL     OW22487   2.245   1.136   1.625 -0.6452  0.1600  0.2793
 4128SOL    HW122488   2.219   1.041   1.607 -2.1071  0.1593  2.1723
 4128SOL    HW222489   2.280   1.143   1.719  3.0897  0.8114 -1.0745
 4129SOL     OW22490   8.897   7.683   0.535 -0.1729  0.0466 -0.2097
 4129SOL    HW122491   8.869   7.748   0.605 -0.0108 -0.8510  0.6965
 4129SOL    HW222492   8.867   7.591   0.561  2.1495 -0.6756 -0.0504
 4130SOL     OW22493   1.776   8.706   2.667  0.1856 -0.0258  0.1147
 4130SOL    HW122494   1.783   8.651   2.751 -0.0449  0.7541  0.6526
 4130SOL    HW222495   1.786   8.802   2.690  0.4531  0.1697 -0.8101
 4131SOL     OW22496   0.808   9.222   2.668  0.1104  0.8543  0.0503
 4131SOL    HW122497   0.890   9.171   2.640 -0.6827 -0.9664  0.8984
 4131SOL    HW222498   0.788   9.200   2.764 -3.0295 -1.0661 -0.9654
 4132SOL     OW22499   0.809   0.415   2.432 -0.4870  0.0695  0.5971
 4132SOL    HW122500   0.767   0.403   2.522 -0.9960 -2.0633  0.1011
 4132SOL    HW222501   0.744   0.462   2.372 -1.3496 -1.2721  0.4645
 4133SOL     OW22502   1.899   6.640   1.400 -0.0194  0.2536  1.0021
 4133SOL    HW122503   1.982   6.584   1.403 -1.2647 -1.6413  0.5136
 4133SOL    HW222504   1.919   6.730   1.438  2.0009 -0.5061  1.8199
 4134SOL     OW22505  10.038   4.988   1.478  0.2650  0.1088  0.5425
 4134SOL    HW122506  10.019   5.040   1.395 -0.3749 -1.3876 -0.2668
 4134SOL    HW222507  10.057   5.052   1.553  2.8301  1.4578 -1.1672
 4135SOL     OW22508   2.357   3.896   1.838 -0.2999 -0.0589 -0.3384
 4135SOL    HW122509   2.371   3.937   1.928  1.3912  0.3656 -0.7715
 4135SOL    HW222510   2.347   3.797   1.848  1.6601 -0.2307  0.1765
 4136SOL     OW22511   0.545   9.589   0.912 -0.0536 -0.8610  0.7136
 4136SOL    HW122512   0.482   9.536   0.969 -0.0958 -1.7969 -0.1741
 4136SOL    HW222513   0.537   9.686   0.934 -0.9401 -1.0890  1.4405
 4137SOL     OW22514   9.984   3.606   0.920 -0.4285 -0.5545  0.1771
 4137SOL    HW122515   9.953   3.693   0.959  0.1376 -0.2472 -0.0448
 4137SOL    HW222516  10.010   3.621   0.824  0.1415 -0.8574  0.2828
 4138SOL     OW22517   2.699   1.273   0.619  0.1295  0.2373 -0.0259
 4138SOL    HW122518   2.702   1.200   0.550  1.8968  0.6902 -0.4481
 4138SOL    HW222519   2.754   1.246   0.698 -0.1696  0.6232  0.3150
 4139SOL     OW22520   0.960   0.340   2.215 -0.2819 -0.0879  0.0895
 4139SOL    HW122521   0.960   0.240   2.223 -0.2126 -0.1048 -0.1162
 4139SOL    HW222522   0.904   0.379   2.288 -1.2643 -0.3315 -0.5179
 4140SOL     OW22523   3.449   3.703   0.626  0.1221 -0.0755  0.5937
 4140SOL    HW122524   3.356   3.700   0.661  0.2369 -0.3489  0.8781
 4140SOL    HW222525   3.450   3.751   0.538 -0.1347  0.8604  1.0848
 4141SOL     OW22526   1.240   6.568   2.073  0.2013  0.7632  0.4232
 4141SOL    HW122527   1.240   6.620   1.988  0.9630 -1.5701 -1.0414
 4141SOL    HW222528   1.199   6.478   2.057 -2.2026  1.3087  3.1789
 4142SOL     OW22529   8.529   7.232   2.141  0.4769 -0.2878 -0.2996
 4142SOL    HW122530   8.544   7.316   2.090 -0.6233 -0.4269 -0.8730
 4142SOL    HW222531   8.470   7.171   2.088 -2.7575  0.5689  2.0917
 4143SOL     OW22532   1.147   2.908   1.506  0.0801 -0.0634  0.0466
 4143SOL    HW122533   1.056   2.916   1.465  0.4434 -0.5557 -0.8779
 4143SOL    HW222534   1.212   2.878   1.437  0.3902 -2.5922  1.3746
 4144SOL     OW22535   0.552   7.358   0.499 -0.1208  0.3472  0.8809
 4144SOL    HW122536   0.634   7.405   0.532 -0.0971  1.1696 -0.2943
 4144SOL    HW222537   0.526   7.286   0.563  2.5707 -1.1463  0.3806
 4145SOL     OW22538   5.298   2.779   1.384 -0.0363  0.3791 -0.2426
 4145SOL    HW122539   5.315   2.846   1.456 -0.8575 -1.4720  1.7373
 4145SOL    HW222540   5.222   2.811   1.327  0.0525  1.4729  0.2354
 4146SOL     OW22541   2.333   6.229   0.879  0.1260 -0.0952  0.0971
 4146SOL    HW122542   2.365   6.193   0.966 -1.4392 -1.4154  0.1512
 4146SOL    HW222543   2.343   6.159   0.808  0.0817  0.4797 -0.4784
 4147SOL     OW22544   1.944   3.046   2.292 -0.8515 -0.2977  0.2597
 4147SOL    HW122545   1.938   3.137   2.333 -0.6950  0.8805 -2.2477
 4147SOL    HW222546   2.040   3.021   2.279 -0.8835  0.4207 -1.6109
 4148SOL     OW22547   9.232   3.758   0.513 -0.0366 -0.1795  0.0164
 4148SOL    HW122548   9.147   3.716   0.545 -0.6887  1.5017  0.5389
 4148SOL    HW222549   9.265   3.708   0.433 -2.1168 -0.2042 -0.8747
 4149SOL     OW22550   0.413   0.640   2.445 -0.3760 -0.0282  0.6072
 4149SOL    HW122551   0.370   0.591   2.521 -0.3718 -0.1909  0.5055
 4149SOL    HW222552   0.342   0.674   2.383 -0.3215 -1.5122 -0.3133
 4150SOL     OW22553   1.810   8.932   1.179 -0.2337  0.0079 -0.5402
 4150SOL    HW122554   1.790   8.899   1.086  1.5798 -0.6831 -0.7100
 4150SOL    HW222555   1.779   8.864   1.246  0.7202 -0.6573 -0.7600
 4151SOL     OW22556   3.017   9.049   0.426  0.2553  0.4347 -0.1577
 4151SOL    HW122557   3.115   9.056   0.408  1.0046 -1.9839  2.6276
 4151SOL    HW222558   2.974   9.138   0.413  2.7129  1.4205 -1.8752
 4152SOL     OW22559   2.101   7.940   1.261  0.0766 -0.1608  0.2168
 4152SOL    HW122560   2.084   8.038   1.272 -1.6579 -0.3792 -0.3190
 4152SOL    HW222561   2.052   7.890   1.333  0.1100 -0.7004 -0.1304
 4153SOL     OW22562   0.929   7.411   2.329  0.2921  0.0718  0.6051
 4153SOL    HW122563   0.974   7.326   2.355  1.5303  0.1353 -1.2437
 4153SOL    HW222564   0.843   7.392   2.282 -1.3266 -0.0601  3.4807
 4154SOL     OW22565   0.484   9.268   0.109  0.7614 -0.5868 -0.2377
 4154SOL    HW122566   0.441   9.253   0.198  0.4676  1.0622 -0.0860
 4154SOL    HW222567   0.414   9.265   0.038  0.8401 -0.8473 -0.3041
 4155SOL     OW22568   3.016   1.684   0.127  1.0038 -0.2444 -0.4872
 4155SOL    HW122569   3.063   1.656   0.211  1.3083  0.4615 -0.4233
 4155SOL    HW222570   3.079   1.736   0.070  1.1815 -1.7625 -1.7080
 4156SOL     OW22571   4.493   2.194   1.921  0.4631 -0.2692  0.1340
 4156SOL    HW122572   4.493   2.105   1.875 -0.8824 -0.3905  0.3480
 4156SOL    HW222573   4.408   2.243   1.898 -0.5777 -0.6200  3.0220
 4157SOL     OW22574   4.833   2.761   1.232 -0.2316  0.4785  0.0444
 4157SOL    HW122575   4.873   2.679   1.191 -0.2772  0.4920 -0.0275
 4157SOL    HW222576   4.906   2.825   1.256 -0.1986  0.4355  0.0588
 4158SOL     OW22577   9.888   3.292   1.390 -0.1981 -0.4838  0.3212
 4158SOL    HW122578   9.848   3.338   1.311  1.4425  1.1110  0.3982
 4158SOL    HW222579   9.867   3.194   1.385 -0.8645 -0.2691 -1.6135
 4159SOL     OW22580   9.811   5.209   1.616  0.3159 -0.4317 -0.2280
 4159SOL    HW122581   9.904   5.204   1.651  1.1521  0.6308 -2.1821
 4159SOL    HW222582   9.757   5.132   1.650  1.5667 -0.3991  1.8676
 4160SOL     OW22583   3.347   8.243   0.120  0.5483 -0.1125  0.1939
 4160SOL    HW122584   3.426   8.264   0.178 -0.4142  0.7044  1.2418
 4160SOL    HW222585   3.370   8.260   0.024  1.0433  2.0344  0.6613
 4161SOL     OW22586   2.168   9.509   1.933  0.4420  0.3911  0.2957
 4161SOL    HW122587   2.225   9.592   1.932  1.1831 -0.1144 -0.1977
 4161SOL    HW222588   2.168   9.468   1.842  0.0444 -0.1378  0.5324
 4162SOL     OW22589   1.527   8.056   2.423 -0.2369  0.0689 -0.0807
 4162SOL    HW122590   1.469   7.999   2.482  1.6810 -1.2881  0.5625
 4162SOL    HW222591   1.595   8.103   2.479  1.8136 -1.4843 -1.1872
 4163SOL     OW22592   1.978   9.649   2.441  0.4082  0.1737  0.3213
 4163SOL    HW122593   1.961   9.623   2.536 -0.7811 -1.3110 -0.2669
 4163SOL    HW222594   1.964   9.569   2.382 -1.3330  1.6632 -1.3540
 4164SOL     OW22595   5.103   3.276   1.888  0.1985 -0.2569 -0.0973
 4164SOL    HW122596   5.187   3.325   1.867 -0.5318  1.0980  0.0398
 4164SOL    HW222597   5.025   3.328   1.854 -0.5387 -2.0159 -1.1825
 4165SOL     OW22598   2.107   8.876   2.090  0.3152 -0.0787 -0.6611
 4165SOL    HW122599   2.075   8.784   2.115 -2.2662  0.9215 -0.0660
 4165SOL    HW222600   2.155   8.916   2.168  1.5771 -0.9826 -0.9738
 4166SOL     OW22601   1.773   1.736   2.360  0.2124 -0.9644 -0.1498
 4166SOL    HW122602   1.844   1.696   2.418  0.6360 -0.0755 -0.0583
 4166SOL    HW222603   1.783   1.835   2.358 -1.4364 -0.7658  0.4048
 4167SOL     OW22604   4.685   0.423   0.833  0.1141  0.0679  0.0253
 4167SOL    HW122605   4.734   0.373   0.905  2.4595  0.2153 -1.4072
 4167SOL    HW222606   4.622   0.361   0.786 -1.3100 -0.0676  2.0703
 4168SOL     OW22607   3.622   9.833   0.276  0.5653 -0.5982 -0.1551
 4168SOL    HW122608   3.608   9.741   0.239  0.3130 -1.0289  0.9843
 4168SOL    HW222609   3.640   9.897   0.201 -1.2868 -1.1918 -1.1346
 4169SOL     OW22610   2.736   1.758   1.725  0.1081 -0.5227  0.1542
 4169SOL    HW122611   2.797   1.830   1.758 -0.0292 -0.6394  0.6600
 4169SOL    HW222612   2.641   1.784   1.740  0.0494 -0.6502  0.0072
 4170SOL     OW22613   8.740   6.247   2.236 -0.3605 -0.3442 -0.1930
 4170SOL    HW122614   8.812   6.252   2.306  0.3159 -0.4056 -0.8761
 4170SOL    HW222615   8.665   6.308   2.261  0.7319  1.1121 -0.3920
 4171SOL     OW22616   3.124   9.197   1.867  0.2641  0.3641  0.1759
 4171SOL    HW122617   3.037   9.148   1.860  0.5837 -0.0035 -1.5218
 4171SOL    HW222618   3.176   9.183   1.783  1.2320  1.9798  0.4970
 4172SOL     OW22619   9.860   4.490   2.767  0.1971  0.4529 -0.1007
 4172SOL    HW122620   9.870   4.536   2.678 -1.8270  2.5069  0.7087
 4172SOL    HW222621   9.764   4.470   2.784  0.6398 -0.5211  1.3615
 4173SOL     OW22622  10.249   3.606   0.273  0.3103 -0.2677 -0.4478
 4173SOL    HW122623  10.227   3.651   0.187 -0.1171 -0.7536 -0.5936
 4173SOL    HW222624  10.180   3.536   0.293  1.0680 -0.9849 -0.3188
 4174SOL     OW22625   9.200   5.204   2.605 -0.0056  0.3140  0.7438
 4174SOL    HW122626   9.174   5.182   2.511  1.5393  0.9337  0.1444
 4174SOL    HW222627   9.123   5.187   2.667 -1.0501 -0.0403 -0.6421
 4175SOL     OW22628   2.637   9.022   1.091 -0.4057 -0.7326 -0.7333
 4175SOL    HW122629   2.575   8.948   1.119 -2.5782  1.1831 -0.3499
 4175SOL    HW222630   2.631   9.036   0.993  1.4373 -2.2928 -1.1006
 4176SOL     OW22631   2.255   0.342   0.669  0.4757 -0.2533 -0.4117
 4176SOL    HW122632   2.280   0.311   0.577  2.8505  0.4471 -0.0499
 4176SOL    HW222633   2.286   0.274   0.736 -0.3040 -0.2578 -0.0523
 4177SOL     OW22634   2.367   4.873   0.698 -0.2973 -0.5332  0.0614
 4177SOL    HW122635   2.303   4.923   0.756 -0.2576 -1.9207  1.3286
 4177SOL    HW222636   2.400   4.792   0.747  0.6104 -1.1090 -1.4732
 4178SOL     OW22637   2.907   2.376   2.189  0.0074  0.0167  0.5203
 4178SOL    HW122638   2.821   2.420   2.214  0.8436  2.0495 -0.0941
 4178SOL    HW222639   2.957   2.349   2.271 -0.3706  0.4864  0.9036
 4179SOL     OW22640   4.100   2.893   1.596 -0.2988  0.1686  0.0687
 4179SOL    HW122641   4.143   2.948   1.668 -1.0286  1.0116 -0.1234
 4179SOL    HW222642   4.092   2.948   1.513  0.6859 -0.8574 -0.7114
 4180SOL     OW22643   9.117   7.600   1.198 -0.6456  0.0293 -0.2296
 4180SOL    HW122644   9.191   7.660   1.167 -0.3176  0.0548  0.5906
 4180SOL    HW222645   9.154   7.533   1.262 -1.2839 -0.1455 -0.0453
 4181SOL     OW22646   3.170   6.273   0.405 -0.0084 -0.1733  0.4537
 4181SOL    HW122647   3.266   6.247   0.415 -0.4620 -1.4095  1.7859
 4181SOL    HW222648   3.149   6.286   0.309  0.6628 -3.1853 -0.1617
 4182SOL     OW22649   4.348   0.866   2.837 -0.2285 -0.4333  0.1227
 4182SOL    HW122650   4.389   0.909   2.917 -1.4451 -0.7625  0.9406
 4182SOL    HW222651   4.418   0.816   2.786  0.7352  0.6061  0.4359
 4183SOL     OW22652   0.886   5.109   2.642 -0.7511  0.1078  0.0119
 4183SOL    HW122653   0.818   5.180   2.622 -0.5018  0.0173 -1.1665
 4183SOL    HW222654   0.842   5.033   2.689 -1.7033 -0.4495 -1.7456
 4184SOL     OW22655  10.307   3.071   0.236  0.3601 -0.4492 -0.0001
 4184SOL    HW122656  10.364   3.004   0.189  2.3649  0.6186  0.8822
 4184SOL    HW222657  10.215   3.033   0.247  0.7511 -2.0195 -1.8034
 4185SOL     OW22658   2.563   9.812   0.444 -0.0429 -0.5023  0.3892
 4185SOL    HW122659   2.493   9.794   0.375  0.3055 -1.1369  0.1964
 4185SOL    HW222660   2.652   9.824   0.400  0.1467 -0.7305  0.7046
 4186SOL     OW22661   4.070   4.424   0.101 -0.8726  0.3139  0.5712
 4186SOL    HW122662   4.144   4.409   0.167 -0.9453 -1.6201  0.2374
 4186SOL    HW222663   4.103   4.479   0.025 -0.9109  3.0177  2.4026
 4187SOL     OW22664   3.085   9.601   1.108 -0.0759 -0.6216 -0.8636
 4187SOL    HW122665   3.010   9.624   1.170  0.0948 -1.0846 -0.4816
 4187SOL    HW222666   3.151   9.675   1.106 -0.0602 -0.6267 -0.4550
 4188SOL     OW22667   1.188   5.490   0.558 -0.1137  0.2701  0.2916
 4188SOL    HW122668   1.102   5.442   0.539  0.4065 -0.6932  0.3696
 4188SOL    HW222669   1.180   5.585   0.526 -0.1589 -0.6018 -2.4554
 4189SOL     OW22670   3.271   0.634   1.506  0.0436 -0.0900 -1.1272
 4189SOL    HW122671   3.272   0.690   1.589  2.4433 -1.6022 -0.1036
 4189SOL    HW222672   3.202   0.562   1.515 -0.5415  0.4821 -0.9721
 4190SOL     OW22673   4.283   2.572   2.537  0.0122  0.4608  0.3404
 4190SOL    HW122674   4.256   2.647   2.477 -1.6633  0.6653  1.3196
 4190SOL    HW222675   4.268   2.598   2.632 -1.3533 -1.3837  0.6651
 4191SOL     OW22676   9.117   7.810   0.447  0.2135  0.0601 -0.2104
 4191SOL    HW122677   9.075   7.724   0.477 -0.5230  0.3849 -0.2993
 4191SOL    HW222678   9.072   7.840   0.363  0.3449  0.6329 -0.0715
 4192SOL     OW22679   1.931   4.265   1.503  0.0286 -0.0331  0.5937
 4192SOL    HW122680   1.861   4.197   1.484  0.1849  0.3319 -1.3254
 4192SOL    HW222681   1.900   4.324   1.578 -2.5192  1.2092 -1.3488
 4193SOL     OW22682   1.142   7.004   2.212  0.3293 -0.0948 -0.0169
 4193SOL    HW122683   1.123   7.019   2.115 -1.0612 -1.1193  0.0790
 4193SOL    HW222684   1.179   6.912   2.224  2.7968  0.8642  0.1605
 4194SOL     OW22685   3.201   3.767   2.129  0.1135  0.7097 -0.0467
 4194SOL    HW122686   3.247   3.734   2.212 -2.4627 -1.2056  0.6747
 4194SOL    HW222687   3.166   3.859   2.145 -1.5879 -0.1665  1.5530
 4195SOL     OW22688   9.295   4.011   2.500 -0.0844  0.6763  0.2163
 4195SOL    HW122689   9.247   4.071   2.437  0.2034  0.0244 -0.6345
 4195SOL    HW222690   9.388   4.044   2.515  0.3475 -0.0164 -0.9099
 4196SOL     OW22691   9.872   7.785   0.776 -0.2934  0.0094  0.1732
 4196SOL    HW122692   9.840   7.692   0.793 -0.1694 -0.1970 -0.6993
 4196SOL    HW222693   9.967   7.795   0.806 -0.8383  0.3401  1.8419
 4197SOL     OW22694   1.877   2.966   2.563  0.4662 -0.1180 -0.0507
 4197SOL    HW122695   1.884   2.973   2.463  0.0134  1.5039  0.0262
 4197SOL    HW222696   1.857   3.056   2.602 -0.8242 -0.9989  1.3939
 4198SOL     OW22697   3.055   6.588   1.672  0.3052  0.0600 -0.1192
 4198SOL    HW122698   3.067   6.641   1.589  1.4774  0.5896  0.3820
 4198SOL    HW222699   2.969   6.537   1.667 -0.0537  0.7682 -1.2705
 4199SOL     OW22700   2.268   3.371   1.898  0.4305 -0.5755 -0.1795
 4199SOL    HW122701   2.201   3.369   1.972  1.2910 -0.3695  0.6214
 4199SOL    HW222702   2.265   3.459   1.852  0.6185 -0.3156  0.2990
 4200SOL     OW22703   3.886   9.449   0.471 -0.3768 -0.4497 -0.4710
 4200SOL    HW122704   3.936   9.505   0.537 -1.0965 -0.6548  0.2560
 4200SOL    HW222705   3.876   9.499   0.385  0.3114 -0.0664 -0.3326
 4201SOL     OW22706   2.429   7.859   2.387 -0.2431  0.4991 -0.0851
 4201SOL    HW122707   2.398   7.944   2.430  1.2825  1.1194 -0.1587
 4201SOL    HW222708   2.512   7.878   2.333  0.6045 -1.2071  0.5834
 4202SOL     OW22709   1.671   5.179   2.367 -0.0538 -0.5099 -0.3536
 4202SOL    HW122710   1.741   5.108   2.369 -0.3174 -0.7490  0.4868
 4202SOL    HW222711   1.675   5.233   2.451 -0.2015  0.1329 -0.7537
 4203SOL     OW22712   4.485   1.345   1.255  0.2229  0.3044 -0.2772
 4203SOL    HW122713   4.514   1.436   1.284  1.6275 -0.2863  0.2232
 4203SOL    HW222714   4.531   1.276   1.311 -0.4663 -0.7272 -0.9645
 4204SOL     OW22715   2.009   8.692   1.169 -0.4468  0.8488  0.1730
 4204SOL    HW122716   1.940   8.715   1.237 -2.8111  0.0034 -1.8388
 4204SOL    HW222717   2.099   8.718   1.202 -1.9846  4.5247  1.7836
 4205SOL     OW22718   9.555   8.416   2.265 -0.0057  0.5274  0.5521
 4205SOL    HW122719   9.492   8.345   2.235  0.4321 -0.8126  2.6612
 4205SOL    HW222720   9.648   8.378   2.272  0.2263  1.2726  1.7412
 4206SOL     OW22721   2.288   0.397   0.141  0.3448  0.1167  0.3634
 4206SOL    HW122722   2.285   0.299   0.123 -1.4599  0.3430 -0.7740
 4206SOL    HW222723   2.360   0.439   0.086  2.9896 -0.9281  2.9287
 4207SOL     OW22724   0.426   4.800   1.805 -0.3170 -0.4072 -0.1991
 4207SOL    HW122725   0.406   4.752   1.890 -1.5602  0.0474 -0.2320
 4207SOL    HW222726   0.497   4.869   1.822 -1.7194  0.8207  0.8615
 4208SOL     OW22727   9.893   4.155   1.994  0.6024 -0.2467  0.4986
 4208SOL    HW122728   9.956   4.079   2.009 -0.1981 -2.0280 -4.2575
 4208SOL    HW222729   9.799   4.120   1.994  0.1592  0.9234 -0.6616
 4209SOL     OW22730   0.478   9.601   2.810  0.0947 -0.1667  0.2740
 4209SOL    HW122731   0.554   9.659   2.840 -2.1492  1.9789  2.0385
 4209SOL    HW222732   0.474   9.519   2.866  1.0273 -0.2604  0.2185
 4210SOL     OW22733  10.228   6.255   0.844 -0.9247  0.5130  0.1052
 4210SOL    HW122734  10.317   6.239   0.801 -0.8354  2.9287 -0.7110
 4210SOL    HW222735  10.215   6.192   0.920  2.1161  1.0686  1.1557
 4211SOL     OW22736   8.746   2.772   2.242  0.0656 -0.3797 -0.4034
 4211SOL    HW122737   8.707   2.833   2.174  1.5057 -0.1888 -1.0846
 4211SOL    HW222738   8.799   2.700   2.196 -1.1527 -1.8242  0.4120
 4212SOL     OW22739   3.951   4.686   1.588 -0.1667 -0.5301 -0.2438
 4212SOL    HW122740   3.937   4.608   1.527 -1.0706 -0.1374 -0.5452
 4212SOL    HW222741   4.018   4.749   1.548 -0.3929 -0.5156 -0.5983
 4213SOL     OW22742   1.992   9.709   1.774 -0.2064 -0.2019 -0.0679
 4213SOL    HW122743   2.064   9.765   1.814 -0.1792  1.8977 -2.9109
 4213SOL    HW222744   2.019   9.613   1.776  0.9504  0.1472  2.3824
 4214SOL     OW22745   4.176   5.835   1.103 -0.2088  0.0773 -0.4885
 4214SOL    HW122746   4.145   5.921   1.063  0.6386  1.1868  1.2139
 4214SOL    HW222747   4.101   5.794   1.155 -0.3473  0.2228 -0.5712
 4215SOL     OW22748   4.719   2.835   0.340  0.0187  0.1110  0.5629
 4215SOL    HW122749   4.742   2.823   0.243  0.3875 -0.2682  0.6924
 4215SOL    HW222750   4.681   2.926   0.355  2.1605  1.0446  0.4691
 4216SOL     OW22751   9.820   1.657   0.419 -0.3153  0.2116 -0.0032
 4216SOL    HW122752   9.850   1.585   0.480 -0.8593  0.1787  0.2301
 4216SOL    HW222753   9.803   1.741   0.471 -0.0192  0.4111 -0.2225
 4217SOL     OW22754   2.155   4.054   2.525 -0.6491  0.6090 -0.2963
 4217SOL    HW122755   2.210   4.137   2.531 -0.9766  1.0254 -2.5128
 4217SOL    HW222756   2.065   4.076   2.486 -0.3965 -0.9009 -1.7945
 4218SOL     OW22757   3.055   8.662   1.752  0.6633 -0.3888  0.5420
 4218SOL    HW122758   3.098   8.586   1.702  1.3248  1.0478 -1.1287
 4218SOL    HW222759   3.119   8.699   1.819  1.5998  0.8709 -1.0097
 4219SOL     OW22760   3.456   0.788   0.383 -0.0510 -0.2207  0.4269
 4219SOL    HW122761   3.458   0.786   0.283 -1.5261  0.7787  0.3610
 4219SOL    HW222762   3.485   0.878   0.415  0.2425 -0.4805  0.8926
 4220SOL     OW22763   2.317   5.077   2.470  0.0292  0.6059  0.5977
 4220SOL    HW122764   2.253   5.128   2.414 -0.3560 -0.6163 -0.1006
 4220SOL    HW222765   2.357   5.003   2.416  3.1944  2.2444  0.5510
 4221SOL     OW22766   1.031   5.345   1.757  0.4197  0.0567 -0.3029
 4221SOL    HW122767   1.064   5.439   1.771  1.9019 -0.4860 -0.1183
 4221SOL    HW222768   1.076   5.284   1.822 -1.3915 -0.6244  0.3452
 4222SOL     OW22769   2.783   5.735   1.432  0.5896  0.0013 -0.0157
 4222SOL    HW122770   2.739   5.766   1.517  1.2597  1.5573 -0.2093
 4222SOL    HW222771   2.794   5.813   1.370  1.5399 -0.8187 -0.8929
 4223SOL     OW22772   1.230   3.951   0.541  0.0341 -0.1246 -0.1200
 4223SOL    HW122773   1.223   3.897   0.457 -1.2266  0.0872 -0.1647
 4223SOL    HW222774   1.256   4.045   0.518 -2.1784  0.4413 -0.4930
 4224SOL     OW22775   0.658   4.593   1.625 -0.3483  0.3487  0.3339
 4224SOL    HW122776   0.686   4.506   1.584  0.1348 -0.3403  2.0830
 4224SOL    HW222777   0.624   4.576   1.718 -1.9991  1.7956  0.0109
 4225SOL     OW22778   1.970   8.415   2.370 -0.1118 -0.6345  0.2678
 4225SOL    HW122779   1.972   8.370   2.281 -0.7227 -0.1692  0.0240
 4225SOL    HW222780   2.023   8.500   2.366 -0.5099 -0.3911  0.2358
 4226SOL     OW22781   3.553   9.834   1.293 -0.4806  0.1280 -0.3786
 4226SOL    HW122782   3.624   9.771   1.324 -0.8064 -0.6650 -1.2342
 4226SOL    HW222783   3.508   9.797   1.213 -1.2053  1.0944 -0.4297
 4227SOL     OW22784   3.955   8.825   0.559 -0.4820  0.2021  0.4788
 4227SOL    HW122785   3.881   8.892   0.561 -1.5517 -0.9401  0.2055
 4227SOL    HW222786   3.959   8.783   0.468 -0.0846 -0.3732  0.7588
 4228SOL     OW22787   0.898   3.260   1.777  0.0399  0.7279  0.6964
 4228SOL    HW122788   0.925   3.255   1.681  1.5532 -0.4339  1.1684
 4228SOL    HW222789   0.808   3.303   1.784 -0.9251 -0.8492 -1.3863
 4229SOL     OW22790   0.743   7.338   2.149 -0.0784 -0.2471  1.1226
 4229SOL    HW122791   0.646   7.338   2.172 -0.4527  1.3098 -0.3562
 4229SOL    HW222792   0.761   7.268   2.080 -0.2798 -0.1069  0.9265
 4230SOL     OW22793   2.581   9.613   0.853 -0.4102  0.0488  0.0842
 4230SOL    HW122794   2.616   9.594   0.945 -1.3531 -0.9499  0.2469
 4230SOL    HW222795   2.617   9.700   0.821  4.0759 -1.9556 -0.6751
 4231SOL     OW22796   1.296   0.565   1.891  0.5205 -0.3189 -0.3733
 4231SOL    HW122797   1.370   0.624   1.921  0.7030 -0.9997  0.5511
 4231SOL    HW222798   1.306   0.474   1.933 -1.1790 -0.2403  0.2607
 4232SOL     OW22799   1.987   0.214   2.761  0.3542  0.2584  0.1489
 4232SOL    HW122800   2.080   0.195   2.729 -0.0131  0.1590 -0.8814
 4232SOL    HW222801   1.970   0.312   2.757 -0.7763 -0.0049 -3.0928
 4233SOL     OW22802   1.931   5.893   2.737  0.3405  1.0780  0.0535
 4233SOL    HW122803   1.953   5.799   2.714  0.3938  0.4659  2.5220
 4233SOL    HW222804   1.899   5.941   2.654  0.7743 -0.9325 -1.3103
 4234SOL     OW22805   9.703   9.267   1.630  0.0521 -0.0196 -0.1576
 4234SOL    HW122806   9.737   9.236   1.719 -0.4973 -0.8127 -0.2252
 4234SOL    HW222807   9.774   9.255   1.561  0.5561  0.7922  0.2117
 4235SOL     OW22808   9.886   1.131   2.801  0.6209 -0.2587 -0.1999
 4235SOL    HW122809   9.943   1.071   2.747  0.3872 -0.6740  0.0093
 4235SOL    HW222810   9.805   1.157   2.749 -0.4108 -1.9638  0.5263
 4236SOL     OW22811   3.383   6.331   2.246 -0.1611 -0.0251  0.3534
 4236SOL    HW122812   3.341   6.368   2.163 -0.1266  1.5960  1.0336
 4236SOL    HW222813   3.364   6.393   2.323  1.1537 -0.6804  1.2205
 4237SOL     OW22814   2.135   8.504   2.004 -0.4670 -0.3150 -0.3210
 4237SOL    HW122815   2.065   8.546   2.062  0.1976  1.7276 -0.9251
 4237SOL    HW222816   2.127   8.539   1.911  1.6823  0.4043 -0.2743
 4238SOL     OW22817   2.057   8.193   2.512  0.3670  0.5362 -0.0764
 4238SOL    HW122818   2.032   8.270   2.452 -0.0522  1.4717  1.2863
 4238SOL    HW222819   2.027   8.107   2.470  2.9490  0.8722 -2.7868
 4239SOL     OW22820   1.269   2.546   0.500  0.0067 -0.2602 -0.2384
 4239SOL    HW122821   1.320   2.632   0.511 -1.5414  0.6750 -0.3183
 4239SOL    HW222822   1.333   2.472   0.479  1.2788  1.0085 -0.8930
 4240SOL     OW22823   3.247   9.029   2.054  0.0026 -0.8185 -0.0878
 4240SOL    HW122824   3.226   9.109   1.998  0.0352  0.7236  2.0443
 4240SOL    HW222825   3.167   9.004   2.108  0.8905 -0.3751  1.4583
 4241SOL     OW22826   9.611   0.876   1.621 -0.5007 -0.4568 -0.0522
 4241SOL    HW122827   9.613   0.795   1.562 -1.0503  0.5879 -1.5488
 4241SOL    HW222828   9.572   0.851   1.710 -1.8025 -1.5794 -0.9053
 4242SOL     OW22829   9.367   7.390   2.036 -0.3709  0.3356 -0.1518
 4242SOL    HW122830   9.429   7.424   1.965  0.0754  0.9554  0.5367
 4242SOL    HW222831   9.418   7.373   2.120 -0.8411 -0.7188 -0.0687
 4243SOL     OW22832   4.326   2.635   0.251  0.5398  0.3951  0.0719
 4243SOL    HW122833   4.422   2.613   0.236  0.6523  0.3428  0.8579
 4243SOL    HW222834   4.271   2.551   0.251  0.4249  0.4706 -0.8804
 4244SOL     OW22835   3.474   8.980   1.903  0.4884  0.2887  0.1505
 4244SOL    HW122836   3.515   9.049   1.844  0.2999 -0.4996 -0.9207
 4244SOL    HW222837   3.393   9.017   1.947 -0.3706  0.3507 -1.4452
 4245SOL     OW22838   0.863   3.580   1.886  0.3633  0.2311 -0.3618
 4245SOL    HW122839   0.789   3.524   1.850  0.0948 -2.3472  3.9146
 4245SOL    HW222840   0.832   3.675   1.895 -3.2758 -1.1538  3.2574
 4246SOL     OW22841   2.956   9.811   1.761  0.1097 -0.2585  0.4730
 4246SOL    HW122842   3.018   9.733   1.763 -1.0648 -1.3080 -1.5622
 4246SOL    HW222843   3.004   9.891   1.727  0.8125 -0.6229  0.5955
 4247SOL     OW22844   4.716   1.881   1.654  0.1450 -0.0875  0.1239
 4247SOL    HW122845   4.732   1.834   1.567  1.7853 -0.6358  0.6969
 4247SOL    HW222846   4.777   1.959   1.661  2.2171 -1.8079  2.0688
 4248SOL     OW22847   4.002   2.906   2.065  0.0472 -0.3214 -0.2803
 4248SOL    HW122848   4.025   2.893   1.969  2.0059 -0.7484  0.2264
 4248SOL    HW222849   4.085   2.925   2.117 -0.6986 -2.2587  1.6891
 4249SOL     OW22850   0.585   2.660   1.318 -0.1199  0.1867 -0.1360
 4249SOL    HW122851   0.659   2.696   1.261 -0.8071 -0.2501 -1.3085
 4249SOL    HW222852   0.624   2.598   1.386  0.5833 -0.1429 -0.8280
 4250SOL     OW22853   1.181   4.895   2.337 -0.4499  0.0020 -0.1358
 4250SOL    HW122854   1.253   4.965   2.341  0.2265 -0.6161 -1.1909
 4250SOL    HW222855   1.213   4.812   2.382  0.2389 -0.9003 -2.2246
 4251SOL     OW22856   3.287   6.336   1.791  0.2643 -0.0580 -0.7145
 4251SOL    HW122857   3.232   6.366   1.713  0.0528 -0.5204 -0.7387
 4251SOL    HW222858   3.345   6.260   1.764 -2.4402 -2.6400  0.5196
 4252SOL     OW22859   3.833   1.196   0.098  0.1296 -0.3746  0.9458
 4252SOL    HW122860   3.805   1.275   0.151  1.6570  1.0365 -0.2870
 4252SOL    HW222861   3.909   1.149   0.144  0.2785 -0.1911  0.8869
 4253SOL     OW22862  10.050   7.448   1.168 -0.1681 -0.2798  0.2642
 4253SOL    HW122863  10.049   7.387   1.088 -0.3509 -2.1158  1.6370
 4253SOL    HW222864   9.979   7.518   1.156 -0.9836 -1.2266 -0.6761
 4254SOL     OW22865   4.387   1.575   0.108 -0.1848  0.5053 -0.5979
 4254SOL    HW122866   4.386   1.597   0.011  0.1981 -0.0225 -0.7311
 4254SOL    HW222867   4.413   1.479   0.119  0.2893  0.7038  0.0459
 4255SOL     OW22868   9.559   3.524   1.194  0.1054 -0.1464  0.2861
 4255SOL    HW122869   9.656   3.504   1.188  0.1243 -0.6088  1.9162
 4255SOL    HW222870   9.531   3.528   1.290 -1.4705  0.0531 -0.1583
 4256SOL     OW22871   3.762   0.669   1.775  0.3263 -0.7485  0.3310
 4256SOL    HW122872   3.760   0.713   1.865  0.7330 -1.2800  0.6022
 4256SOL    HW222873   3.834   0.711   1.720  0.7177 -1.0787  0.5914
 4257SOL     OW22874   1.169   1.456   2.617  0.2355 -0.1911 -0.1596
 4257SOL    HW122875   1.169   1.539   2.561 -1.9030 -0.3987 -0.5111
 4257SOL    HW222876   1.142   1.479   2.710 -1.5197 -0.6445 -0.5388
 4258SOL     OW22877   3.356   5.057   1.935 -0.3496  0.1014 -0.4970
 4258SOL    HW122878   3.423   5.015   1.996 -0.8749 -0.8684 -0.5782
 4258SOL    HW222879   3.393   5.061   1.842  0.0174  0.5680 -0.3342
 4259SOL     OW22880   9.585   1.310   0.503 -0.3328 -0.1787  0.1548
 4259SOL    HW122881   9.524   1.267   0.437 -0.3474 -1.0390  0.7212
 4259SOL    HW222882   9.604   1.404   0.475 -1.2521 -0.1773 -0.4596
 4260SOL     OW22883   3.972   0.542   0.231 -0.2168 -0.4757  0.2533
 4260SOL    HW122884   3.942   0.626   0.276 -1.0835 -0.6009 -0.0755
 4260SOL    HW222885   3.915   0.466   0.261  0.3783 -0.8917  0.3284
 4261SOL     OW22886   9.228   2.649   0.538 -0.1682  1.1877 -0.1321
 4261SOL    HW122887   9.298   2.582   0.565  1.1761  2.7476  0.3370
 4261SOL    HW222888   9.247   2.681   0.445 -0.3179  1.5556 -0.0365
 4262SOL     OW22889   0.716   5.308   0.676  0.8965  0.0609  0.2879
 4262SOL    HW122890   0.655   5.272   0.606  1.2194  0.6035 -0.2795
 4262SOL    HW222891   0.723   5.243   0.751 -0.6585  0.1580  0.5278
 4263SOL     OW22892   2.731   4.799   2.176  0.0053 -0.1887  0.5055
 4263SOL    HW122893   2.825   4.770   2.157  0.0177 -0.4467  0.9409
 4263SOL    HW222894   2.731   4.893   2.211  0.1017 -0.1777  0.4757
 4264SOL     OW22895   0.771   0.022   1.659  0.3002  0.8117 -0.5548
 4264SOL    HW122896   0.745  -0.075   1.654  0.9926  0.5852  0.0219
 4264SOL    HW222897   0.853   0.037   1.604  1.5259  0.5800  1.1663
 4265SOL     OW22898   4.099   4.138   1.667 -0.0440  0.5925  0.0787
 4265SOL    HW122899   4.060   4.147   1.576  1.5792  2.3955 -0.4698
 4265SOL    HW222900   4.062   4.057   1.712 -1.1532 -0.0835 -2.0345
 4266SOL     OW22901   0.993   1.305   2.081  0.3843  0.7070 -0.1759
 4266SOL    HW122902   1.071   1.366   2.081  2.2865 -1.6285 -0.1058
 4266SOL    HW222903   0.955   1.299   2.173  0.5976  1.2841 -0.0513
 4267SOL     OW22904   1.707   7.339   1.073  0.3558  0.0641  0.1739
 4267SOL    HW122905   1.763   7.257   1.063 -0.4994 -0.7304  1.6071
 4267SOL    HW222906   1.644   7.347   0.996  1.7495  0.4290 -0.9400
 4268SOL     OW22907   9.953   1.963   2.320  0.0358 -0.5304 -0.3828
 4268SOL    HW122908   9.979   1.974   2.224 -1.0464 -1.5576 -0.8033
 4268SOL    HW222909   9.987   1.875   2.353 -0.8475 -0.8185 -0.2446
 4269SOL     OW22910   1.804   3.780   2.537 -0.0136 -0.0154  0.1797
 4269SOL    HW122911   1.784   3.824   2.625 -2.5755  1.5987 -1.1370
 4269SOL    HW222912   1.778   3.683   2.541  2.2862 -0.5882  1.9739
 4270SOL     OW22913   2.986   1.349   2.206 -0.0771 -0.5543  0.1041
 4270SOL    HW122914   2.910   1.285   2.192 -1.0811  0.3553  1.3302
 4270SOL    HW222915   2.961   1.439   2.169  0.9916 -0.6375 -0.8359
 4271SOL     OW22916   1.343   0.029   0.333 -0.0308 -0.3603  0.0600
 4271SOL    HW122917   1.347   0.128   0.344 -1.1224 -0.3787  0.7246
 4271SOL    HW222918   1.428  -0.003   0.291 -0.5967  1.1150 -2.3021
 4272SOL     OW22919   1.430   2.827   1.017 -1.1035 -0.0153 -0.0251
 4272SOL    HW122920   1.468   2.867   0.934 -0.2854 -1.0997 -0.1922
 4272SOL    HW222921   1.346   2.874   1.042 -1.6138 -0.0056 -1.7317
 4273SOL     OW22922   1.461   7.107   0.286  0.3927 -0.3402 -0.7752
 4273SOL    HW122923   1.541   7.167   0.290 -1.3152  1.9990 -0.8088
 4273SOL    HW222924   1.437   7.091   0.190  0.5888 -0.7173 -0.7605
 4274SOL     OW22925   5.134   3.243   1.587  0.1954 -0.0175 -0.1300
 4274SOL    HW122926   5.042   3.210   1.610  0.4817 -1.5530 -1.1379
 4274SOL    HW222927   5.169   3.299   1.662 -1.3628  0.1712  0.4783
 4275SOL     OW22928   2.513   7.001   1.290 -0.2438 -0.3820  0.3641
 4275SOL    HW122929   2.417   7.012   1.316 -0.3965  1.2806 -0.8552
 4275SOL    HW222930   2.535   7.062   1.214  1.9552 -0.3033  1.0254
 4276SOL     OW22931   1.988   1.879   0.829 -0.0041 -0.3815 -0.1798
 4276SOL    HW122932   1.998   1.844   0.735  0.9412 -0.2631 -0.1282
 4276SOL    HW222933   2.046   1.960   0.840  0.2996 -0.7119  0.6640
 4277SOL     OW22934  10.203   7.165   1.105  0.1257  0.4589 -0.1419
 4277SOL    HW122935  10.267   7.149   1.180 -0.0298  0.1707 -0.0738
 4277SOL    HW222936  10.251   7.212   1.031  0.7506 -0.9128 -0.6230
 4278SOL     OW22937   9.689   5.276   0.998 -0.3378  0.1292 -0.0945
 4278SOL    HW122938   9.772   5.221   0.988 -0.4287 -0.1140  0.4575
 4278SOL    HW222939   9.611   5.225   0.961 -0.2722  0.2885 -0.4577
 4279SOL     OW22940   9.197   1.855   2.675 -0.3763  0.0026  0.0791
 4279SOL    HW122941   9.118   1.842   2.615 -0.7181 -2.4956  1.0302
 4279SOL    HW222942   9.265   1.784   2.657  0.7837  0.9567  0.6433
 4280SOL     OW22943   3.971   2.034   0.629  0.1520  0.4584 -0.6417
 4280SOL    HW122944   4.024   2.114   0.657 -0.9719  1.0530 -0.1532
 4280SOL    HW222945   3.996   1.955   0.685 -1.1026  1.2997  1.1677
 4281SOL     OW22946   0.558   2.564   0.873  0.4424 -0.7630 -0.3084
 4281SOL    HW122947   0.546   2.645   0.816 -2.2677 -1.0803 -0.2325
 4281SOL    HW222948   0.628   2.505   0.833  1.1729  0.7498 -1.3023
 4282SOL     OW22949   0.429   2.778   1.529  0.5009  0.1471  0.4973
 4282SOL    HW122950   0.472   2.739   1.448 -2.3191  0.4195 -1.2199
 4282SOL    HW222951   0.433   2.711   1.604  0.7948 -1.1745 -0.6744
 4283SOL     OW22952   1.824   2.941   1.370 -0.8466 -0.6059  0.5992
 4283SOL    HW122953   1.790   2.859   1.325 -0.3172 -1.2103  1.3014
 4283SOL    HW222954   1.864   3.002   1.302 -0.7443 -1.1727  0.1519
 4284SOL     OW22955  10.209   7.090   0.254  0.6424 -0.0555 -0.1767
 4284SOL    HW122956  10.273   7.110   0.327 -1.1028  0.3788  1.2670
 4284SOL    HW222957  10.123   7.057   0.293  0.2597 -1.4225 -2.1076
 4285SOL     OW22958   3.526   3.379   1.664 -0.0045  0.4818 -0.3122
 4285SOL    HW122959   3.516   3.356   1.567  0.2051 -0.0314 -0.2133
 4285SOL    HW222960   3.437   3.407   1.701 -0.5806 -1.6122 -0.0618
 4286SOL     OW22961   0.449   5.915   2.509 -0.5356 -0.6879 -0.7650
 4286SOL    HW122962   0.528   5.976   2.520 -0.1665 -1.8303  4.4676
 4286SOL    HW222963   0.476   5.834   2.457  1.3855 -0.3600 -0.3379
 4287SOL     OW22964   0.643   5.373   1.334 -0.0126  1.0784 -0.2722
 4287SOL    HW122965   0.638   5.287   1.283 -0.7878  1.2637 -0.5133
 4287SOL    HW222966   0.711   5.433   1.293 -0.7672  1.3047 -1.2100
 4288SOL     OW22967   2.665   0.774   0.779 -0.2935  0.0247 -0.5073
 4288SOL    HW122968   2.624   0.806   0.693  1.2784 -0.1154 -1.3227
 4288SOL    HW222969   2.617   0.816   0.856 -2.7886 -1.1114 -1.3850
 4289SOL     OW22970   3.458   3.089   2.215 -0.1219 -0.3332 -0.1962
 4289SOL    HW122971   3.492   3.027   2.144 -0.4772 -0.6022 -0.1357
 4289SOL    HW222972   3.426   3.173   2.173 -0.3316 -0.4914 -0.3565
 4290SOL     OW22973   1.198   1.176   0.774  0.4384  0.5279 -0.5905
 4290SOL    HW122974   1.140   1.193   0.694 -1.3936 -1.4370  0.2510
 4290SOL    HW222975   1.142   1.177   0.856  1.7859 -0.4223  0.3653
 4291SOL     OW22976   3.107   1.435   0.946 -0.1442 -0.1771  0.1353
 4291SOL    HW122977   3.034   1.456   0.881 -1.3186 -1.8940  0.8711
 4291SOL    HW222978   3.115   1.510   1.013 -1.8284 -0.3753  0.5761
 4292SOL     OW22979   3.236   5.790   1.076  0.5748 -0.4465 -0.0669
 4292SOL    HW122980   3.143   5.780   1.041 -0.5112  0.9122  2.2940
 4292SOL    HW222981   3.284   5.702   1.071 -1.1735 -1.3935 -0.3758
 4293SOL     OW22982   0.450   2.253   0.875 -0.0113  0.1540 -0.4236
 4293SOL    HW122983   0.488   2.239   0.967  1.9497 -0.3654 -1.2775
 4293SOL    HW222984   0.410   2.344   0.869  1.7941  1.0288  0.3168
 4294SOL     OW22985   2.705   6.321   2.229  0.1450 -0.9128 -0.0639
 4294SOL    HW122986   2.792   6.352   2.267  0.5949 -0.6438 -1.2686
 4294SOL    HW222987   2.660   6.397   2.183 -0.9790 -0.9303  0.9998
 4295SOL     OW22988   0.745   7.065   2.575  0.3520  0.2840  0.9833
 4295SOL    HW122989   0.791   7.035   2.492  0.3730  2.4313  0.1783
 4295SOL    HW222990   0.754   6.995   2.645 -1.3348 -2.4214 -1.4008
 4296SOL     OW22991   9.318   5.219   1.192 -0.1755  0.1993  0.5009
 4296SOL    HW122992   9.347   5.123   1.186 -1.0775 -0.2826  3.5143
 4296SOL    HW222993   9.300   5.253   1.099  2.2664 -1.8590 -0.8071
 4297SOL     OW22994   2.493   4.669   0.871  0.2446  0.1994  0.1007
 4297SOL    HW122995   2.563   4.672   0.943  1.9891 -2.0626 -1.3967
 4297SOL    HW222996   2.453   4.577   0.868  2.3507 -0.7085 -3.6928
 4298SOL     OW22997   1.806   7.087   1.037 -0.1350 -0.3901 -0.6645
 4298SOL    HW122998   1.788   7.041   1.124  3.2567 -1.2034 -0.3134
 4298SOL    HW222999   1.773   7.030   0.961  0.0611 -1.3348 -0.0465
 4299SOL     OW23000   0.394   9.974   1.233 -0.8988 -0.0449  0.5938
 4299SOL    HW123001   0.380   9.902   1.300 -0.3414 -0.8207 -0.1153
 4299SOL    HW223002   0.453  10.045   1.273 -0.8881 -0.3053  1.0479
 4300SOL     OW23003   2.159   0.690   2.700  0.4236  0.2016  0.2829
 4300SOL    HW123004   2.159   0.763   2.632 -0.0265  0.0194  0.0857
 4300SOL    HW223005   2.093   0.711   2.772 -1.4209 -1.1067 -0.9725
 4301SOL     OW23006   2.983   7.037   1.671  0.1142  0.1316  0.1564
 4301SOL    HW123007   2.941   7.117   1.712 -0.5462 -0.0430 -0.1774
 4301SOL    HW223008   2.924   6.957   1.683 -0.6673  0.3203 -2.1563
 4302SOL     OW23009   1.511   3.943   1.269  0.1755 -0.1963 -0.3749
 4302SOL    HW123010   1.450   3.951   1.348  0.4182 -0.4112 -0.1655
 4302SOL    HW223011   1.582   3.876   1.289  1.4684  1.2867  0.0250
 4303SOL     OW23012  10.220   4.010   2.422  0.0501  0.1360 -0.2636
 4303SOL    HW123013  10.294   4.075   2.404 -0.1146 -0.2805 -2.6531
 4303SOL    HW223014  10.248   3.918   2.394 -0.7328 -0.3344  0.4653
 4304SOL     OW23015   1.576   0.047   1.090  0.6560  0.4659  0.3046
 4304SOL    HW123016   1.649  -0.005   1.048  2.7243  1.4289  2.5531
 4304SOL    HW223017   1.576   0.141   1.054  0.2970  0.3738  0.0584
 4305SOL     OW23018   8.999   5.704   2.746  0.4369  0.3397  0.1301
 4305SOL    HW123019   9.095   5.700   2.772  0.1357  1.0954  1.3897
 4305SOL    HW223020   8.962   5.794   2.767 -0.3799  0.2840 -0.9810
 4306SOL     OW23021   2.399   8.642   0.690  0.2953 -0.0317 -0.5201
 4306SOL    HW123022   2.485   8.617   0.734 -0.5013  0.9772  1.6775
 4306SOL    HW223023   2.396   8.741   0.675 -1.7032  0.3815  2.2252
 4307SOL     OW23024   9.765   8.023   2.253  0.0071  0.0227  0.4816
 4307SOL    HW123025   9.693   8.036   2.321  1.9134  0.4208  2.4403
 4307SOL    HW223026   9.761   7.929   2.218 -2.0766  0.3289 -0.1923
 4308SOL     OW23027   1.922   3.341   0.222 -0.4581  0.5502  0.1480
 4308SOL    HW123028   2.016   3.323   0.251 -0.3782 -0.5023 -0.7432
 4308SOL    HW223029   1.886   3.420   0.272  1.0620  1.2615  0.1415
 4309SOL     OW23030   1.211   6.705   0.612  0.3399 -0.2669  0.4750
 4309SOL    HW123031   1.213   6.611   0.647  0.1641 -0.1577  0.7832
 4309SOL    HW223032   1.270   6.763   0.669 -0.4643  0.0497  0.9926
 4310SOL     OW23033   3.209   2.548   1.508 -0.3987  0.3853  0.7847
 4310SOL    HW123034   3.243   2.473   1.566 -0.7983 -0.0339  0.4768
 4310SOL    HW223035   3.211   2.520   1.412 -0.2081  0.9031  0.6333
 4311SOL     OW23036   3.594   1.003   1.574 -0.0553  0.0130 -0.3131
 4311SOL    HW123037   3.572   0.973   1.481  1.0769  0.2610 -0.6639
 4311SOL    HW223038   3.692   1.017   1.582 -0.3870  2.0096  0.3493
 4312SOL     OW23039   4.354   4.673   0.796 -0.6105  0.0490  0.2738
 4312SOL    HW123040   4.278   4.676   0.861 -2.3111  2.9653 -1.7753
 4312SOL    HW223041   4.332   4.609   0.722 -0.5936  0.1019  0.2232
 4313SOL     OW23042   0.345   1.997   1.426  0.1872 -0.6915 -0.2034
 4313SOL    HW123043   0.291   2.078   1.450  0.3689 -0.7954  0.5679
 4313SOL    HW223044   0.344   1.985   1.327 -1.8252 -1.1272 -0.1459
 4314SOL     OW23045   4.973   4.393   0.285 -0.0007 -0.5932  0.5131
 4314SOL    HW123046   4.900   4.379   0.351  0.2390 -1.1295  0.6704
 4314SOL    HW223047   5.014   4.305   0.262  1.5740 -0.1543  1.5475
 4315SOL     OW23048   1.504   3.209   0.530 -0.0555 -0.0119 -0.4923
 4315SOL    HW123049   1.499   3.309   0.532 -0.4776 -0.0617  1.3138
 4315SOL    HW223050   1.416   3.173   0.498 -0.4515  0.1533  0.3924
 4316SOL     OW23051   9.734   7.101   0.556  0.5013  0.0692  0.5034
 4316SOL    HW123052   9.805   7.038   0.588  0.5538 -0.5499 -0.8236
 4316SOL    HW223053   9.771   7.160   0.485  0.0653  0.6768  0.7745
 4317SOL     OW23054   3.414   2.118   2.679  0.2085  0.5602 -0.0257
 4317SOL    HW123055   3.442   2.213   2.699 -1.9916  0.9884  1.1714
 4317SOL    HW223056   3.328   2.119   2.628 -0.9845 -0.8069  1.9057
 4318SOL     OW23057   2.163   0.655   1.952 -0.0211 -0.3633  0.1393
 4318SOL    HW123058   2.088   0.632   2.013 -1.9898 -0.5228 -2.2415
 4318SOL    HW223059   2.183   0.753   1.957 -1.1054 -0.1325  0.0421
 4319SOL     OW23060   3.853   1.158   2.147 -0.4370 -0.5663 -0.2596
 4319SOL    HW123061   3.849   1.177   2.245  0.6320 -0.0705 -0.3042
 4319SOL    HW223062   3.784   1.089   2.123 -0.4880 -0.9250  0.8913
 4320SOL     OW23063   2.064   5.399   0.414  0.1910  0.1273  0.3329
 4320SOL    HW123064   2.085   5.327   0.480  1.0002  0.3623  0.3339
 4320SOL    HW223065   2.030   5.479   0.462  2.5934  0.9866  0.6582
 4321SOL     OW23066   1.612   1.482   0.289  0.4334  0.2562  0.1778
 4321SOL    HW123067   1.669   1.409   0.328  1.1504  1.1173  0.7645
 4321SOL    HW223068   1.523   1.481   0.334  0.9781  0.7261  1.2830
 4322SOL     OW23069   0.447   4.444   2.176 -0.1932  0.1957  0.6433
 4322SOL    HW123070   0.486   4.374   2.117  0.2687 -0.0562  1.2322
 4322SOL    HW223071   0.366   4.408   2.223 -1.0436  0.6625 -0.4475
 4323SOL     OW23072   9.608   6.330   2.501 -0.1854 -0.0005 -0.3587
 4323SOL    HW123073   9.674   6.372   2.438  1.0678  0.0670  0.9806
 4323SOL    HW223074   9.605   6.232   2.485 -0.3101  0.0892 -0.9127
 4324SOL     OW23075   1.328   3.053   0.786  0.9460  0.2938 -0.0588
 4324SOL    HW123076   1.317   3.152   0.800  0.9648  0.4217 -0.9096
 4324SOL    HW223077   1.424   3.029   0.797  0.9958  0.4298 -0.1894
 4325SOL     OW23078   4.273   1.812   1.846  0.2520  0.1136  0.9475
 4325SOL    HW123079   4.227   1.849   1.927  0.3191  3.5869 -0.5415
 4325SOL    HW223080   4.357   1.863   1.829 -0.1834 -0.0098 -1.7760
 4326SOL     OW23081   0.851   0.143   2.781  0.1259  0.5793 -0.0546
 4326SOL    HW123082   0.759   0.109   2.800 -0.2335  1.8192  0.4649
 4326SOL    HW223083   0.902   0.074   2.730 -0.8780 -0.3737  0.2154
 4327SOL     OW23084   0.798   2.241   1.535 -0.1428  0.2764  0.6824
 4327SOL    HW123085   0.774   2.249   1.632 -0.3276  0.3330  0.6327
 4327SOL    HW223086   0.772   2.150   1.502  0.9008 -0.1259  0.9553
 4328SOL     OW23087   9.918   0.594   1.047 -0.0887 -0.8568 -0.1787
 4328SOL    HW123088   9.956   0.624   1.135 -2.5157  2.8991 -0.2758
 4328SOL    HW223089   9.981   0.619   0.974 -1.3578  2.9315 -0.1013
 4329SOL     OW23090  10.095   1.173   2.020 -0.0890  0.3516  0.0602
 4329SOL    HW123091  10.055   1.201   1.933  0.0350 -1.3255 -0.5643
 4329SOL    HW223092  10.155   1.245   2.055 -0.7107  1.3279 -0.8693
 4330SOL     OW23093   8.768   6.268   0.121  0.0329  0.4146  0.8215
 4330SOL    HW123094   8.795   6.364   0.115  0.9155  0.1465  0.1958
 4330SOL    HW223095   8.840   6.216   0.168  0.5286 -0.2835 -0.6676
 4331SOL     OW23096   3.632   0.879   0.718 -0.6968 -0.0039 -0.4956
 4331SOL    HW123097   3.681   0.817   0.658  0.8280 -0.6046  1.3196
 4331SOL    HW223098   3.542   0.899   0.680 -0.1645 -1.2053 -2.4193
 4332SOL     OW23099   8.960   8.681   1.065  0.1261 -0.1867 -0.0947
 4332SOL    HW123100   8.978   8.722   1.154 -0.6090 -0.6290  0.2585
 4332SOL    HW223101   8.893   8.736   1.016 -1.9427 -1.7319  0.9597
 4333SOL     OW23102   9.105   8.589   0.703  0.5916  0.4180 -0.4609
 4333SOL    HW123103   9.064   8.498   0.689  1.4584  0.0879 -0.8468
 4333SOL    HW223104   9.044   8.643   0.761  0.7448 -0.8993  0.9669
 4334SOL     OW23105   3.127   5.764   2.006 -0.1218 -0.0145  0.6440
 4334SOL    HW123106   3.056   5.815   2.056 -0.5271  0.2705 -0.2105
 4334SOL    HW223107   3.204   5.824   1.987  0.6644 -0.5160  2.1971
 4335SOL     OW23108   8.764   7.329   2.512  0.3305  0.6696 -0.2565
 4335SOL    HW123109   8.799   7.422   2.496 -1.1633  1.5678  1.5530
 4335SOL    HW223110   8.673   7.320   2.471 -0.0196  0.3711  0.5802
 4336SOL     OW23111   0.589   6.490   1.898 -0.0001  0.7309  0.3456
 4336SOL    HW123112   0.551   6.518   1.986 -1.6641 -0.8441  0.1531
 4336SOL    HW223113   0.519   6.499   1.827 -0.1427 -2.3912  0.0190
 4337SOL     OW23114   4.702   9.281   2.472  0.1586  0.2270 -0.5434
 4337SOL    HW123115   4.710   9.192   2.516 -1.5503  0.1897 -0.2679
 4337SOL    HW223116   4.695   9.270   2.373 -0.8812 -0.0129 -0.4502
 4338SOL     OW23117   0.479   4.271   1.891  0.2996 -0.2607 -0.2330
 4338SOL    HW123118   0.440   4.323   1.815  0.5104 -1.1757 -0.9720
 4338SOL    HW223119   0.413   4.204   1.924  0.2617  0.0351  0.3008
 4339SOL     OW23120   1.219   6.344   0.606 -0.1441  0.1308 -0.2314
 4339SOL    HW123121   1.277   6.379   0.679  1.4086 -0.6563 -1.0479
 4339SOL    HW223122   1.203   6.246   0.621 -0.2552  0.0852 -0.6399
 4340SOL     OW23123   3.453   9.004   2.273 -0.0139  0.4818  0.1097
 4340SOL    HW123124   3.371   8.966   2.231 -0.3067  0.0139  1.0940
 4340SOL    HW223125   3.480   9.087   2.224 -1.4761  1.0234  0.2022
 4341SOL     OW23126   9.745   9.763   1.086  0.0888  0.1186 -0.1291
 4341SOL    HW123127   9.750   9.831   1.159 -0.4883  1.3914 -1.2563
 4341SOL    HW223128   9.666   9.781   1.028  0.9922 -0.3663 -1.5547
 4342SOL     OW23129   2.684   1.430   2.737 -0.1507 -0.1934  0.4696
 4342SOL    HW123130   2.742   1.349   2.727  0.5276  0.1648  1.4494
 4342SOL    HW223131   2.632   1.444   2.653  0.1686 -1.3056  0.0777
 4343SOL     OW23132   9.971   8.034   1.986 -0.1535 -0.7856 -0.2256
 4343SOL    HW123133  10.054   8.003   1.939 -1.2926 -2.8394 -0.9601
 4343SOL    HW223134   9.963   7.985   2.073  0.5762  1.0882  0.9251
 4344SOL     OW23135   8.881   2.719   1.071 -0.5308 -0.2208 -0.1466
 4344SOL    HW123136   8.826   2.760   0.998 -0.2256  1.4929  0.5672
 4344SOL    HW223137   8.973   2.699   1.036 -0.6181 -0.0998 -0.4520
 4345SOL     OW23138   1.293   0.673   2.262 -0.4682 -0.3866 -0.0268
 4345SOL    HW123139   1.193   0.674   2.256 -0.4495 -0.4330 -0.3999
 4345SOL    HW223140   1.321   0.664   2.357 -0.8064  1.2187  0.2414
 4346SOL     OW23141   3.793   1.846   1.873 -0.2788 -0.0094  0.3203
 4346SOL    HW123142   3.747   1.879   1.954  0.5927  1.9815  0.0198
 4346SOL    HW223143   3.876   1.899   1.856 -0.1837 -0.6916 -1.6029
 4347SOL     OW23144   9.984   1.498   1.877 -0.6870  0.1171  0.1849
 4347SOL    HW123145  10.017   1.440   1.803 -2.2247  0.3553 -0.6980
 4347SOL    HW223146  10.062   1.530   1.931  0.4187 -0.3165 -1.1282
 4348SOL     OW23147   3.054   4.281   0.226  0.2869  1.0070  0.0748
 4348SOL    HW123148   3.045   4.330   0.139 -0.0642  0.7373 -0.0446
 4348SOL    HW223149   3.068   4.184   0.208 -0.3522  0.8641  0.3202
 4349SOL     OW23150   3.436   9.606   2.513  0.4982 -0.2623 -0.2146
 4349SOL    HW123151   3.405   9.698   2.490  1.6439  0.1659 -0.0518
 4349SOL    HW223152   3.384   9.572   2.591  1.7311  1.2028  1.2795
 4350SOL     OW23153   9.649   2.254   2.259  0.8291  0.3316  0.2159
 4350SOL    HW123154   9.580   2.207   2.314 -0.2318  0.4637 -0.9772
 4350SOL    HW223155   9.714   2.300   2.319 -0.0663  0.1188  1.3642
 4351SOL     OW23156   1.659   0.045   0.555  0.4950  0.2381  0.0514
 4351SOL    HW123157   1.677   0.136   0.592  0.6565  0.0339  0.4693
 4351SOL    HW223158   1.736   0.017   0.497  0.7978  0.0357  0.5547
 4352SOL     OW23159   0.586   9.178   2.520 -0.0875  0.3343  0.5697
 4352SOL    HW123160   0.522   9.148   2.591  0.4647  0.3532  1.0802
 4352SOL    HW223161   0.670   9.210   2.563  1.5065 -2.6148 -0.2112
 4353SOL     OW23162   0.887   3.749   1.568  0.3599 -0.0027  0.6809
 4353SOL    HW123163   0.873   3.753   1.667 -0.7861  0.5041  0.5099
 4353SOL    HW223164   0.874   3.656   1.536 -3.4873  0.5408  0.4364
 4354SOL     OW23165   1.430   9.868   0.875  0.2979 -0.0546 -0.3348
 4354SOL    HW123166   1.410   9.885   0.778  0.6091  0.3551 -0.3223
 4354SOL    HW223167   1.416   9.952   0.927 -0.8008 -0.5096  0.1255
 4355SOL     OW23168   4.309   3.629   2.759  0.4383 -0.0049  0.0260
 4355SOL    HW123169   4.290   3.624   2.661 -2.6541  0.3488  0.5403
 4355SOL    HW223170   4.334   3.723   2.783 -1.5633  0.5591 -0.0125
 4356SOL     OW23171   8.766   6.550   0.165 -0.1751 -0.1444 -0.1261
 4356SOL    HW123172   8.771   6.609   0.085  1.6978  2.8157  2.0947
 4356SOL    HW223173   8.696   6.583   0.228  1.2044  0.0321  1.3578
 4357SOL     OW23174   0.985   6.453   2.620  0.3284  0.5012 -0.2174
 4357SOL    HW123175   1.039   6.391   2.678  0.0096  0.4728  0.0542
 4357SOL    HW223176   0.988   6.545   2.658  0.0012  0.4542 -0.0742
 4358SOL     OW23177   0.828   3.431   1.451  0.1022  0.1203 -0.3044
 4358SOL    HW123178   0.732   3.414   1.474  0.0294  0.4885 -0.3326
 4358SOL    HW223179   0.882   3.350   1.471 -0.1790 -0.0092 -0.0711
 4359SOL     OW23180   2.140   9.116   0.688 -0.3780 -0.0570 -0.5966
 4359SOL    HW123181   2.094   9.047   0.744  0.3246 -0.6882 -0.7831
 4359SOL    HW223182   2.137   9.205   0.733 -0.6931 -0.3546 -0.0359
 4360SOL     OW23183   0.576   4.241   2.618 -0.0248  0.4064 -0.2450
 4360SOL    HW123184   0.568   4.152   2.661  0.2805  1.1013  1.2668
 4360SOL    HW223185   0.673   4.264   2.605 -0.0855  0.8771  0.1253
 4361SOL     OW23186   2.686   2.510   2.627  0.4789 -0.4711  0.6165
 4361SOL    HW123187   2.665   2.415   2.603 -0.5652  0.1428 -0.9466
 4361SOL    HW223188   2.613   2.546   2.685  1.5659 -1.0302  2.3984
 4362SOL     OW23189   1.874   1.641   0.891  0.0164  0.5588  0.2203
 4362SOL    HW123190   1.896   1.739   0.888  1.2155  0.3348  0.8909
 4362SOL    HW223191   1.934   1.597   0.958  0.5573 -0.9125 -1.2155
 4363SOL     OW23192   0.395   6.581   0.666 -0.3877 -0.2349  0.6356
 4363SOL    HW123193   0.330   6.642   0.619 -1.5138 -0.7966  1.4517
 4363SOL    HW223194   0.357   6.553   0.754  1.4609  0.3393  1.6435
 4364SOL     OW23195   9.419   9.316   2.614 -0.0927  0.3159  0.3007
 4364SOL    HW123196   9.515   9.289   2.607 -1.0576 -3.0831 -0.8129
 4364SOL    HW223197   9.370   9.249   2.670 -2.2230  0.8193 -0.9119
 4365SOL     OW23198  10.289   9.924   0.615 -0.2667  0.2822 -0.2382
 4365SOL    HW123199  10.286   9.926   0.515  0.6186  2.0128 -0.2449
 4365SOL    HW223200  10.355   9.856   0.645  0.1648  0.4191 -0.8583
 4366SOL     OW23201   3.743   2.786   2.644  0.2567 -0.1723 -0.9885
 4366SOL    HW123202   3.650   2.773   2.608 -0.7519 -2.3224  2.2280
 4366SOL    HW223203   3.747   2.871   2.696 -0.1177 -0.4135 -0.5598
 4367SOL     OW23204   2.245   8.976   1.369  0.1478 -0.2253 -0.0339
 4367SOL    HW123205   2.256   8.904   1.301  0.5198  0.2333 -0.4591
 4367SOL    HW223206   2.289   8.948   1.455 -0.9403 -1.1077  0.2512
 4368SOL     OW23207   3.926   9.563   1.983 -0.5541  0.2731  0.0935
 4368SOL    HW123208   3.964   9.579   1.892  1.9532  0.4219  1.1155
 4368SOL    HW223209   3.939   9.645   2.039  0.2972 -0.6936  1.3482
 4369SOL     OW23210   3.248   1.864   1.128  0.1480 -0.2902 -0.2145
 4369SOL    HW123211   3.149   1.871   1.137  0.2757 -0.4232  1.2932
 4369SOL    HW223212   3.275   1.893   1.036 -1.3697 -1.1442 -0.9516
 4370SOL     OW23213   1.034   2.580   2.253  0.2024  0.9135  0.0297
 4370SOL    HW123214   1.077   2.570   2.343  1.6566 -0.1102 -0.7600
 4370SOL    HW223215   0.943   2.537   2.254  0.3488  0.6187  0.9166
 4371SOL     OW23216   9.730   2.928   0.570 -0.2321 -0.1169 -0.2096
 4371SOL    HW123217   9.829   2.932   0.553 -0.3807  0.5895 -0.9157
 4371SOL    HW223218   9.681   2.919   0.483 -0.7051 -2.5141  0.2523
 4372SOL     OW23219   1.210   9.237   2.053 -0.2706  0.8389  0.1587
 4372SOL    HW123220   1.151   9.282   1.986 -1.7637  0.1018  0.9595
 4372SOL    HW223221   1.264   9.306   2.101 -2.6384  1.8324  1.4619
 4373SOL     OW23222   3.755   5.443   2.590  0.5178 -0.0832 -0.1558
 4373SOL    HW123223   3.726   5.348   2.599 -0.5452  0.3697  1.4805
 4373SOL    HW223224   3.783   5.478   2.680 -2.2331  2.0913 -0.0812
 4374SOL     OW23225   0.548   4.893   0.599  0.3220 -0.5962  0.4440
 4374SOL    HW123226   0.567   4.812   0.544 -0.0764 -1.3739  1.4330
 4374SOL    HW223227   0.634   4.930   0.635  0.7213  0.7196 -1.7936
 4375SOL     OW23228   4.194   1.953   2.078  0.1322  0.1306 -0.4309
 4375SOL    HW123229   4.276   1.991   2.122  0.8538 -1.0778 -0.7139
 4375SOL    HW223230   4.148   1.892   2.142  1.0764 -1.4848 -1.2870
 4376SOL     OW23231   1.139   3.374   2.507 -0.0803 -0.2457  0.1511
 4376SOL    HW123232   1.092   3.372   2.595 -1.5387 -1.6800 -0.6359
 4376SOL    HW223233   1.107   3.298   2.450  1.6704 -0.0111 -1.1982
 4377SOL     OW23234   0.793   0.869   2.455 -0.1681 -0.3123 -0.2007
 4377SOL    HW123235   0.859   0.851   2.529 -2.0352  1.7087  2.0479
 4377SOL    HW223236   0.842   0.872   2.368  2.7403  0.9405  1.3647
 4378SOL     OW23237   4.451   8.770   2.738  0.1188 -0.5418 -0.1035
 4378SOL    HW123238   4.396   8.836   2.789 -1.6466 -1.0557 -1.2911
 4378SOL    HW223239   4.397   8.686   2.723  1.6411 -1.5021 -0.2909
 4379SOL     OW23240   3.063   8.946   2.808  0.5769  0.7516  0.0542
 4379SOL    HW123241   3.017   8.931   2.896 -1.2540 -1.5121 -1.2168
 4379SOL    HW223242   3.159   8.921   2.816  0.1358 -0.6756  1.0998
 4380SOL     OW23243   3.512   8.215   1.931  0.5525 -0.1811 -0.3977
 4380SOL    HW123244   3.538   8.171   2.018 -0.8249  3.7326  2.1128
 4380SOL    HW223245   3.581   8.284   1.907 -0.8373  1.1620 -0.5631
 4381SOL     OW23246   3.562   2.976   0.134 -0.1551 -0.2136 -0.1320
 4381SOL    HW123247   3.579   3.074   0.150 -1.9769 -0.2218  2.1753
 4381SOL    HW223248   3.479   2.966   0.079  1.0154 -0.4380 -1.8795
 4382SOL     OW23249   2.538   4.059   1.067 -0.0849  0.2707 -0.1129
 4382SOL    HW123250   2.620   4.077   1.011  0.1999  0.6850  0.4329
 4382SOL    HW223251   2.551   4.098   1.158 -0.8714  0.2861 -0.0042
 4383SOL     OW23252   2.044   0.514   0.260  0.0441 -0.1251 -0.9549
 4383SOL    HW123253   1.964   0.464   0.226 -0.0548  0.3554 -1.4499
 4383SOL    HW223254   2.125   0.487   0.207 -0.1161  0.6505 -1.6143
 4384SOL     OW23255   5.025   3.731   0.239  0.0676 -0.2409 -0.0644
 4384SOL    HW123256   5.057   3.749   0.331  2.4897 -0.9029 -0.7603
 4384SOL    HW223257   5.002   3.635   0.229  0.7374 -0.3680 -0.4196
 4385SOL     OW23258   2.142   8.666   0.098  0.1316 -0.7008  0.1404
 4385SOL    HW123259   2.115   8.627   0.010  2.0637  1.0230 -1.2651
 4385SOL    HW223260   2.197   8.599   0.148  0.4749 -1.0580 -0.7025
 4386SOL     OW23261   0.371   9.149   0.973 -0.2643 -0.5785 -0.0487
 4386SOL    HW123262   0.388   9.096   1.056 -1.9739 -1.6615 -0.3611
 4386SOL    HW223263   0.439   9.127   0.904 -0.4033 -1.6854  0.1555
 4387SOL     OW23264   4.210   4.647   0.360  0.0279  0.3913  0.4278
 4387SOL    HW123265   4.290   4.632   0.301  0.0366 -0.9329  0.7780
 4387SOL    HW223266   4.223   4.600   0.447  0.3502  2.9262  1.8297
 4388SOL     OW23267   1.216   3.321   1.604  0.0945 -0.0654  0.3610
 4388SOL    HW123268   1.301   3.290   1.562  0.6157 -1.2607  2.2615
 4388SOL    HW223269   1.222   3.311   1.703 -1.7600  1.1199  0.6181
 4389SOL     OW23270   1.012   0.473   1.526 -0.1180  0.4541  0.2096
 4389SOL    HW123271   1.034   0.456   1.622 -0.3219 -1.2695 -0.0231
 4389SOL    HW223272   0.920   0.438   1.506 -0.2977  1.3046 -0.4873
 4390SOL     OW23273   3.258   9.563   2.717 -0.0475 -0.1675  0.9428
 4390SOL    HW123274   3.162   9.534   2.710  0.1314 -1.1530  2.3212
 4390SOL    HW223275   3.309   9.496   2.772  1.9992 -0.9750 -1.8315
 4391SOL     OW23276   3.982   0.156   1.162  0.1414 -0.0344  0.5732
 4391SOL    HW123277   4.043   0.140   1.239 -0.7622  0.2206  1.3505
 4391SOL    HW223278   3.924   0.075   1.148 -0.2939  0.2546  0.7107
 4392SOL     OW23279   9.318   4.946   0.085  0.4129  0.5460 -0.0712
 4392SOL    HW123280   9.299   4.914  -0.008  0.6828 -1.2963  0.4969
 4392SOL    HW223281   9.325   5.046   0.085 -1.1966  0.6847 -1.7374
 4393SOL     OW23282   2.788   9.125   2.479 -0.0720  0.3296 -0.5328
 4393SOL    HW123283   2.816   9.124   2.383  1.0287  1.1488 -0.2381
 4393SOL    HW223284   2.709   9.186   2.490  1.0561  1.8342 -0.6038
 4394SOL     OW23285   3.873   4.234   0.126 -0.3405  0.1745  0.0756
 4394SOL    HW123286   3.779   4.262   0.106 -0.3512  0.8031  0.9551
 4394SOL    HW223287   3.933   4.314   0.119 -0.0001 -0.0585  0.3084
 4395SOL     OW23288   2.863   2.809   0.814  0.3161 -0.5487 -0.0466
 4395SOL    HW123289   2.950   2.824   0.860  0.2606 -0.6697  0.0972
 4395SOL    HW223290   2.813   2.896   0.808  0.3859 -0.5059 -0.0076
 4396SOL     OW23291   8.937   7.189   0.828 -0.4822 -0.3839 -0.3003
 4396SOL    HW123292   8.884   7.145   0.900  0.5911 -0.5435  0.4051
 4396SOL    HW223293   8.884   7.264   0.789 -0.2141  1.2367  2.2783
 4397SOL     OW23294   3.344   5.847   1.681  0.2367 -0.5194  0.2861
 4397SOL    HW123295   3.412   5.783   1.646  1.6829  0.0593  1.9720
 4397SOL    HW223296   3.354   5.857   1.780 -0.1433  2.0763  0.1103
 4398SOL     OW23297   2.240   2.960   1.100 -0.1897 -0.8912  0.0427
 4398SOL    HW123298   2.180   3.018   1.045  1.0283 -0.8461 -1.2780
 4398SOL    HW223299   2.203   2.951   1.193 -0.9157  1.1849 -0.0202
 4399SOL     OW23300  10.282   1.361   2.126  0.5500 -0.4911 -0.2954
 4399SOL    HW123301  10.365   1.306   2.132  1.0954  0.4357  0.8530
 4399SOL    HW223302  10.298   1.440   2.067  0.6719  0.0197  0.4212
 4400SOL     OW23303   0.810   0.683   1.813  0.0106 -0.7478 -0.1357
 4400SOL    HW123304   0.899   0.702   1.855 -0.1971 -0.6325  0.2477
 4400SOL    HW223305   0.770   0.601   1.854  0.2612 -1.2154 -0.8064
 4401SOL     OW23306   0.677   0.650   0.363 -0.2594 -0.0888  0.5796
 4401SOL    HW123307   0.629   0.738   0.364  0.7295  0.4578  0.4673
 4401SOL    HW223308   0.618   0.579   0.401 -0.1385  1.1240  3.0973
 4402SOL     OW23309   1.219   4.417   2.147 -0.0897  0.8915 -0.2410
 4402SOL    HW123310   1.277   4.336   2.151 -2.1939 -0.6513 -0.1520
 4402SOL    HW223311   1.172   4.429   2.234 -0.5281  1.6630 -0.5788
 4403SOL     OW23312   3.566   5.381   1.621 -0.5651  0.3954 -0.4224
 4403SOL    HW123313   3.583   5.386   1.720  2.3250  0.9397 -0.9111
 4403SOL    HW223314   3.475   5.419   1.601 -1.8528 -1.1356  2.1725
 4404SOL     OW23315   1.369   6.708   2.687  0.4532  0.1586 -0.3523
 4404SOL    HW123316   1.382   6.626   2.632  1.0660 -0.0318  0.0730
 4404SOL    HW223317   1.361   6.788   2.627 -0.2189 -0.2126 -0.7697
 4405SOL     OW23318   0.450   9.758   1.386 -0.0275  0.0580 -0.0746
 4405SOL    HW123319   0.454   9.662   1.416  0.8026 -0.7900 -2.8000
 4405SOL    HW223320   0.536   9.784   1.344 -0.7622  1.5795 -0.6809
 4406SOL     OW23321   2.847   8.901   0.594 -0.2162  0.0231  0.7780
 4406SOL    HW123322   2.855   8.876   0.691 -0.2379  3.2906  1.7039
 4406SOL    HW223323   2.936   8.930   0.559 -0.4179 -0.1230  0.1396
 4407SOL     OW23324   4.395   9.901   1.352 -0.4001  0.2848  0.4927
 4407SOL    HW123325   4.474   9.843   1.372 -0.2086  0.4215  0.1430
 4407SOL    HW223326   4.424   9.997   1.352 -0.0109  0.1964 -2.1900
 4408SOL     OW23327   0.420   7.471   2.446  0.0598  0.2719 -0.2518
 4408SOL    HW123328   0.356   7.508   2.514  0.2738 -1.6542  1.0197
 4408SOL    HW223329   0.485   7.543   2.420  0.0604  1.0130  1.6735
 4409SOL     OW23330   1.689   4.606   1.425 -0.0229 -0.6223 -0.2663
 4409SOL    HW123331   1.633   4.613   1.342 -0.9524  1.4132  0.4874
 4409SOL    HW223332   1.785   4.611   1.400 -0.2693 -0.9046 -1.3057
 4410SOL     OW23333   2.338   5.451   0.138  0.2409 -0.4243  0.0378
 4410SOL    HW123334   2.281   5.477   0.216 -0.6684 -0.6084 -0.5599
 4410SOL    HW223335   2.296   5.375   0.089  1.5239 -1.2524  0.1875
 4411SOL     OW23336   1.703   4.078   1.070 -0.1444 -0.4448 -0.0738
 4411SOL    HW123337   1.618   4.039   1.105 -0.8919  1.7991  0.7449
 4411SOL    HW223338   1.771   4.081   1.144 -0.1226 -0.1675 -0.1023
 4412SOL     OW23339   5.218   3.710   0.776 -0.5628  0.1414  0.4549
 4412SOL    HW123340   5.296   3.671   0.727 -1.0000 -0.8959  0.5734
 4412SOL    HW223341   5.140   3.719   0.714  0.2564  3.1968 -0.2366
 4413SOL     OW23342   2.202   2.989   2.192 -0.1112  0.1238 -0.3886
 4413SOL    HW123343   2.296   2.985   2.159 -0.8330 -2.3207 -2.2498
 4413SOL    HW223344   2.141   3.013   2.116 -0.8982  2.9556  1.0685
 4414SOL     OW23345   1.669   3.186   0.751 -0.0047  0.1230  0.3525
 4414SOL    HW123346   1.609   3.218   0.678  0.0242  0.1228  0.3282
 4414SOL    HW223347   1.764   3.190   0.719  0.0182  0.2482  0.4356
 4415SOL     OW23348   4.001   3.669   1.063  0.8847 -0.1206 -0.1024
 4415SOL    HW123349   3.986   3.689   0.967  0.2289  0.6380  0.1498
 4415SOL    HW223350   3.913   3.652   1.107  1.0817  0.6809  0.6095
 4416SOL     OW23351   3.326   9.210   1.661  0.5828 -0.1297 -0.2339
 4416SOL    HW123352   3.368   9.252   1.580 -2.2910 -0.2068 -1.8397
 4416SOL    HW223353   3.333   9.111   1.654 -1.6179 -0.2150 -1.5270
 4417SOL     OW23354   3.185   1.809   2.717 -0.0331  0.2350  0.0488
 4417SOL    HW123355   3.146   1.793   2.626  1.1338  1.1063 -0.6149
 4417SOL    HW223356   3.281   1.837   2.708 -0.1955  1.3261  1.4850
 4418SOL     OW23357   3.509   5.363   2.396 -0.4016 -0.6275 -0.4986
 4418SOL    HW123358   3.593   5.334   2.443  0.6456  0.5992 -1.5864
 4418SOL    HW223359   3.495   5.306   2.315  0.4236  0.3830 -1.3686
 4419SOL     OW23360   1.299   5.143   2.143 -0.1634  0.3100  0.7395
 4419SOL    HW123361   1.356   5.066   2.113 -0.9641  0.2410 -0.6375
 4419SOL    HW223362   1.355   5.207   2.196  0.4257 -1.3813  2.2055
 4420SOL     OW23363   0.851   9.716   1.158 -0.4455 -0.3202  0.2363
 4420SOL    HW123364   0.846   9.742   1.061 -0.1684 -0.8099  0.0880
 4420SOL    HW223365   0.794   9.778   1.212 -0.3788  0.1304 -0.2042
 4421SOL     OW23366   3.427   0.782   2.506  0.2695  0.3608  0.2269
 4421SOL    HW123367   3.337   0.776   2.463 -0.7533 -0.8751  2.4528
 4421SOL    HW223368   3.437   0.708   2.573  3.0893  0.2525 -0.2378
 4422SOL     OW23369   1.296   0.831   0.411 -0.4488 -0.0752  0.1836
 4422SOL    HW123370   1.234   0.789   0.478  0.4776 -1.4838  0.1932
 4422SOL    HW223371   1.270   0.926   0.396  0.1225  0.6888  3.5752
 4423SOL     OW23372   1.516   9.751   1.453  0.1790 -0.4032  0.4628
 4423SOL    HW123373   1.582   9.719   1.520  1.7130 -0.0378 -0.8541
 4423SOL    HW223374   1.535   9.846   1.430  0.1023 -0.7394 -1.0143
 4424SOL     OW23375   9.752   3.189   0.845 -0.3289 -0.8078  0.1047
 4424SOL    HW123376   9.695   3.111   0.816 -0.5574  0.0573 -1.8274
 4424SOL    HW223377   9.848   3.165   0.834 -0.4012 -0.7534 -0.7235
 4425SOL     OW23378   9.810   2.173   1.244  0.3026  0.3969 -0.5685
 4425SOL    HW123379   9.835   2.078   1.264 -0.8964  0.2027  0.0410
 4425SOL    HW223380   9.860   2.205   1.164  1.1063 -0.5811 -0.4593
 4426SOL     OW23381   3.745   9.713   2.353  0.0411 -0.3031  0.0135
 4426SOL    HW123382   3.775   9.627   2.311  0.4981 -0.4837  0.6975
 4426SOL    HW223383   3.729   9.698   2.450  0.8233  0.5570  0.2799
 4427SOL     OW23384   4.604   3.457   2.308 -0.3700  0.1189 -0.1761
 4427SOL    HW123385   4.633   3.432   2.215  1.9059 -1.1551  0.8185
 4427SOL    HW223386   4.533   3.528   2.303 -0.2755  0.0917 -2.8734
 4428SOL     OW23387   2.956   6.672   2.363 -0.6057  0.7007 -0.0967
 4428SOL    HW123388   2.907   6.622   2.291  0.1474 -0.3643  0.1267
 4428SOL    HW223389   3.051   6.640   2.368 -0.3454  1.5480  0.6338
 4429SOL     OW23390   1.012   8.490   2.561 -0.4745 -0.2316 -0.1905
 4429SOL    HW123391   1.050   8.422   2.624 -0.0927  0.3425  0.2079
 4429SOL    HW223392   1.073   8.569   2.557 -0.6129 -0.1677 -1.1115
 4430SOL     OW23393   3.970   3.677   0.791 -0.1338 -0.7532  0.4818
 4430SOL    HW123394   4.037   3.603   0.796 -0.6450 -1.2126  0.5967
 4430SOL    HW223395   3.994   3.739   0.716 -0.3833 -1.7272 -0.4243
 4431SOL     OW23396   9.532   3.960   0.814 -0.0319 -0.0177 -0.3567
 4431SOL    HW123397   9.486   3.928   0.897  1.5149 -2.1095 -0.2512
 4431SOL    HW223398   9.543   4.059   0.817  1.7929 -0.2530  2.8780
 4432SOL     OW23399   3.081   4.164   1.287 -0.1338  0.0894  0.0682
 4432SOL    HW123400   3.124   4.219   1.215  0.5633  1.1326  1.2481
 4432SOL    HW223401   3.103   4.204   1.376 -3.0962  0.3154  0.7426
 4433SOL     OW23402   0.690   2.210   0.263  0.3630 -0.2659  0.5505
 4433SOL    HW123403   0.725   2.262   0.185 -0.3204 -2.0351 -0.9754
 4433SOL    HW223404   0.597   2.178   0.243  0.2179 -0.8329  2.0452
 4434SOL     OW23405   3.759   4.159   1.663 -0.4887 -0.4424  0.0946
 4434SOL    HW123406   3.786   4.255   1.675  0.2299 -0.4442 -1.4568
 4434SOL    HW223407   3.661   4.150   1.682 -0.8007  0.8132 -0.8609
 4435SOL     OW23408   9.862   3.442   0.136 -0.3119  0.1517  0.0604
 4435SOL    HW123409   9.927   3.373   0.102 -0.3740 -0.5707  1.3827
 4435SOL    HW223410   9.779   3.439   0.079 -1.4808 -2.8526  1.7747
 4436SOL     OW23411   0.763   5.152   0.424 -0.0330 -0.1416 -0.5065
 4436SOL    HW123412   0.687   5.129   0.363 -0.4719  0.5102 -0.2098
 4436SOL    HW223413   0.769   5.084   0.497  0.1296 -0.6011 -0.9425
 4437SOL     OW23414   1.889   2.621   1.864  0.1903  0.0515  0.8301
 4437SOL    HW123415   1.884   2.584   1.957 -0.1862 -0.1116  0.7450
 4437SOL    HW223416   1.977   2.668   1.852  0.2517  0.0510  1.2590
 4438SOL     OW23417   4.400   4.453   2.511 -0.1915  0.6857 -0.3670
 4438SOL    HW123418   4.356   4.492   2.592 -0.7355  1.6952 -1.1484
 4438SOL    HW223419   4.498   4.448   2.526 -0.2772  0.9873  0.3118
 4439SOL     OW23420   0.879   2.950   1.437  0.3385 -0.0014  0.2092
 4439SOL    HW123421   0.842   2.950   1.530  1.0508  0.0479  0.4910
 4439SOL    HW223422   0.817   2.898   1.377 -0.1907  0.0837  0.6763
 4440SOL     OW23423   3.987   3.176   0.632  0.1438  0.0503  0.4154
 4440SOL    HW123424   3.999   3.106   0.562  0.1576 -0.4218  0.8905
 4440SOL    HW223425   3.891   3.178   0.661 -0.0007  0.7026 -0.0962
 4441SOL     OW23426   9.157   6.749   1.683  0.0480  0.2183 -0.0144
 4441SOL    HW123427   9.162   6.836   1.633  2.2278  2.1654  3.3696
 4441SOL    HW223428   9.069   6.744   1.731 -0.6226 -0.0553 -1.2687
 4442SOL     OW23429   9.414   1.999   1.419  0.2497  0.0221 -0.2109
 4442SOL    HW123430   9.332   1.980   1.366  1.5314  0.6796 -2.4802
 4442SOL    HW223431   9.388   2.030   1.511 -1.9989 -0.4010 -0.6820
 4443SOL     OW23432  10.086   4.183   0.986 -0.5688 -0.4415  0.0195
 4443SOL    HW123433  10.061   4.159   0.892 -3.8258  2.7988 -0.0738
 4443SOL    HW223434  10.007   4.223   1.032  1.7630  0.6971  3.2331
 4444SOL     OW23435   2.363   4.472   1.226  0.1273 -0.3321 -0.3236
 4444SOL    HW123436   2.402   4.562   1.207 -2.1374  0.3227 -2.0307
 4444SOL    HW223437   2.330   4.431   1.142 -0.0250 -2.2351  0.6312
 4445SOL     OW23438   0.503   8.619   2.571 -0.1983 -0.0013 -0.6497
 4445SOL    HW123439   0.453   8.620   2.485 -0.9012  0.6672 -0.2413
 4445SOL    HW223440   0.551   8.532   2.581 -2.0455 -1.0295 -0.6131
 4446SOL     OW23441   1.529   7.116   0.677  0.7875  0.1036 -0.5931
 4446SOL    HW123442   1.475   7.122   0.761 -0.2754 -0.4586 -1.2180
 4446SOL    HW223443   1.526   7.203   0.629  0.5188  0.0972 -0.5857
 4447SOL     OW23444   3.051   0.830   0.103 -0.0991  0.6592 -0.2924
 4447SOL    HW123445   2.972   0.842   0.163 -0.2219 -0.8910 -0.1176
 4447SOL    HW223446   3.116   0.905   0.117  1.1861 -1.1010  3.8462
 4448SOL     OW23447   2.022   7.651   0.082  0.6827 -0.1071  0.1657
 4448SOL    HW123448   2.115   7.622   0.057  1.1310  1.5874 -0.1954
 4448SOL    HW223449   2.024   7.695   0.172  0.2024 -0.1528  0.1994
 4449SOL     OW23450   0.438   1.365   2.625  0.7327  0.1039  0.1353
 4449SOL    HW123451   0.500   1.287   2.613  0.0360 -0.3577 -0.5347
 4449SOL    HW223452   0.381   1.350   2.705 -0.4392 -0.7963 -0.8480
 4450SOL     OW23453   3.650   2.945   1.216 -0.0146  0.2147 -0.0858
 4450SOL    HW123454   3.650   3.018   1.148 -1.3436  1.8739  1.6328
 4450SOL    HW223455   3.743   2.931   1.250  0.5997 -0.3975 -1.9445
 4451SOL     OW23456   1.194   4.373   1.422 -0.5611  0.8415  0.7460
 4451SOL    HW123457   1.143   4.288   1.422 -1.1010  1.1010 -2.4581
 4451SOL    HW223458   1.132   4.450   1.437 -0.7619  0.9817 -0.7689
 4452SOL     OW23459   0.652   0.046   2.337 -0.1689 -0.4319 -0.3512
 4452SOL    HW123460   0.735   0.066   2.285  0.7918  0.1164  1.3551
 4452SOL    HW223461   0.677   0.016   2.429 -1.8491 -1.1880 -0.1214
 4453SOL     OW23462   4.469   2.842   2.532 -1.0535  0.1558 -0.2768
 4453SOL    HW123463   4.418   2.913   2.581 -0.8923 -0.5252  0.9130
 4453SOL    HW223464   4.475   2.760   2.590 -0.2593 -0.4315 -1.1753
 4454SOL     OW23465   9.790   7.005   2.727  0.0578 -0.0302  0.2883
 4454SOL    HW123466   9.879   6.972   2.696 -0.3000 -0.8379  0.1137
 4454SOL    HW223467   9.719   6.941   2.699 -0.4343 -0.0596  1.5672
 4455SOL     OW23468   3.182   4.442   2.261  0.0188  0.4618  0.0802
 4455SOL    HW123469   3.089   4.441   2.226 -0.7015  4.1895  1.6136
 4455SOL    HW223470   3.190   4.379   2.339 -1.1488  0.0172 -0.1548
 4456SOL     OW23471   3.932   4.472   1.409 -0.3394 -0.6057 -0.1084
 4456SOL    HW123472   4.024   4.450   1.441 -0.8412 -0.5269  1.4341
 4456SOL    HW223473   3.913   4.423   1.324  0.0728 -2.8315  1.0727
 4457SOL     OW23474   9.547   3.181   1.332 -0.0635 -0.7444  0.2315
 4457SOL    HW123475   9.537   3.278   1.354 -1.4255 -1.0312  0.9708
 4457SOL    HW223476   9.557   3.170   1.233 -0.7992  0.0967  0.0526
 4458SOL     OW23477   9.928   3.110   2.378 -0.0983  0.2216  0.3915
 4458SOL    HW123478   9.878   3.043   2.433 -0.2758 -1.1855 -1.4517
 4458SOL    HW223479   9.864   3.169   2.329  0.0569 -0.0651 -0.1567
 4459SOL     OW23480   3.587   0.734   2.288  0.3404 -0.8947 -0.2656
 4459SOL    HW123481   3.672   0.683   2.300  1.1940  0.7864  1.1216
 4459SOL    HW223482   3.552   0.761   2.378 -1.1834 -0.8104 -0.8765
 4460SOL     OW23483   8.807   2.771   2.505  0.3998  0.3519 -0.2286
 4460SOL    HW123484   8.773   2.780   2.411  0.8855  0.9387 -0.3485
 4460SOL    HW223485   8.809   2.860   2.548  1.5076  0.2823 -0.1226
 4461SOL     OW23486   9.396   3.573   2.001 -1.0564  0.3250 -0.2986
 4461SOL    HW123487   9.351   3.483   1.999  1.1080 -0.9526  3.0340
 4461SOL    HW223488   9.462   3.579   1.926  1.0408 -2.2171  1.2326
 4462SOL     OW23489   2.643   8.195   1.549  0.5486  0.4209 -0.0353
 4462SOL    HW123490   2.707   8.222   1.621  0.3163  0.7374  0.0514
 4462SOL    HW223491   2.689   8.197   1.461  0.6837  0.5608  0.0389
 4463SOL     OW23492  10.107   0.338   1.381 -0.4022  0.1311  0.1150
 4463SOL    HW123493  10.064   0.288   1.456 -1.7536 -1.1063 -1.4340
 4463SOL    HW223494  10.152   0.273   1.319 -1.0230  0.9403 -1.1987
 4464SOL     OW23495   3.087   3.158   1.245  0.3929  0.2874  0.0700
 4464SOL    HW123496   3.119   3.160   1.150 -3.3158  0.3764 -1.2380
 4464SOL    HW223497   3.076   3.063   1.274  0.8080  0.2632  0.1467
 4465SOL     OW23498   1.813   6.414   1.565  0.4786 -0.4529 -0.3762
 4465SOL    HW123499   1.851   6.472   1.493  1.1737 -0.9742 -0.4418
 4465SOL    HW223500   1.821   6.460   1.653 -1.1664  0.5537 -0.7415
 4466SOL     OW23501   1.617   1.631   1.628 -0.6450  0.0594 -0.0117
 4466SOL    HW123502   1.637   1.653   1.533  2.6380 -1.1205  0.3306
 4466SOL    HW223503   1.600   1.532   1.637 -1.5701  0.2600  0.5350
 4467SOL     OW23504   4.707   9.466   0.841 -0.5911 -0.5477  0.2493
 4467SOL    HW123505   4.706   9.442   0.744  0.9005 -0.4811  0.2078
 4467SOL    HW223506   4.754   9.394   0.893 -1.7334 -0.7834  0.9953
 4468SOL     OW23507   0.535   9.848   1.005  0.1289 -0.3582 -0.0774
 4468SOL    HW123508   0.496   9.891   1.086  0.4146  0.6897 -0.4851
 4468SOL    HW223509   0.603   9.909   0.964 -0.7129 -0.4443 -1.6613
 4469SOL     OW23510   0.391   9.797   2.498  0.4947  0.4075 -0.1029
 4469SOL    HW123511   0.313   9.765   2.444  0.1764  1.7346 -0.4248
 4469SOL    HW223512   0.454   9.846   2.439  0.9757  0.4034  0.4080
 4470SOL     OW23513   9.354   7.527   0.586 -0.2836 -0.3425 -0.0115
 4470SOL    HW123514   9.329   7.540   0.490 -1.0568 -1.7001 -0.0038
 4470SOL    HW223515   9.452   7.539   0.597 -0.4230  1.6776 -0.6426
 4471SOL     OW23516   1.158   1.499   1.652 -0.4117 -0.7988 -0.1403
 4471SOL    HW123517   1.229   1.539   1.709  0.5250 -0.0959 -1.7627
 4471SOL    HW223518   1.068   1.532   1.682  0.1438  0.3556  0.2897
 4472SOL     OW23519   4.753   8.842   2.567  0.4567 -0.5564 -0.3741
 4472SOL    HW123520   4.734   8.753   2.608  0.5407 -0.8736 -1.0033
 4472SOL    HW223521   4.699   8.912   2.613  0.6577 -0.8822  0.3570
 4473SOL     OW23522   2.752   5.879   2.726 -0.5212 -0.1903 -1.4227
 4473SOL    HW123523   2.665   5.853   2.684 -0.5358 -0.9623 -0.9245
 4473SOL    HW223524   2.810   5.798   2.737 -0.9289 -0.1856  0.9890
 4474SOL     OW23525   1.101   7.534   2.527  0.2698 -0.0593 -0.3994
 4474SOL    HW123526   1.059   7.595   2.595 -0.8216  0.7002 -1.7311
 4474SOL    HW223527   1.037   7.519   2.451  1.0639 -1.7682 -0.7526
 4475SOL     OW23528   2.030   9.674   1.118  0.8633  0.6540 -0.0533
 4475SOL    HW123529   1.981   9.597   1.076  2.2162 -0.7237  0.8377
 4475SOL    HW223530   1.971   9.718   1.186 -0.0174  0.5712 -0.7586
 4476SOL     OW23531   3.421   0.362   0.462 -0.6195  0.0578  0.1918
 4476SOL    HW123532   3.493   0.428   0.486 -1.3836  0.8856  0.2391
 4476SOL    HW223533   3.332   0.399   0.488 -1.0641 -0.9778  0.1575
 4477SOL     OW23534   2.653   7.163   1.547 -0.1485 -0.2558 -0.2143
 4477SOL    HW123535   2.670   7.191   1.453 -0.8051  0.3552 -0.1612
 4477SOL    HW223536   2.739   7.152   1.596  0.2717 -2.3708 -1.3948
 4478SOL     OW23537   9.425   5.789   2.619  0.0456  0.6025  0.4409
 4478SOL    HW123538   9.394   5.735   2.540  0.7981 -0.9255  1.1601
 4478SOL    HW223539   9.348   5.805   2.680 -0.2420  0.5583  0.0912
 4479SOL     OW23540  10.218   0.868   0.755  0.5866 -0.3758 -0.0446
 4479SOL    HW123541  10.307   0.914   0.755  0.0637  0.7064 -2.5102
 4479SOL    HW223542  10.164   0.899   0.676 -1.7696 -1.4323  1.1027
 4480SOL     OW23543   2.133   3.419   2.140  0.6032 -0.2171 -0.2812
 4480SOL    HW123544   2.127   3.513   2.173 -0.7660  0.0681 -1.2763
 4480SOL    HW223545   2.216   3.376   2.175  0.7573  1.0559  0.9570
 4481SOL     OW23546   3.929   9.359   1.252  0.3828 -0.2105  0.5601
 4481SOL    HW123547   3.859   9.429   1.240 -0.7274 -0.8318  3.1240
 4481SOL    HW223548   3.978   9.374   1.338  0.2254 -2.4432  1.0812
 4482SOL     OW23549   9.530   5.325   0.574 -0.0636 -0.4263  0.3174
 4482SOL    HW123550   9.507   5.391   0.646  0.6809 -1.3556  1.4474
 4482SOL    HW223551   9.621   5.286   0.593 -0.1139 -1.1110 -0.8101
 4483SOL     OW23552   4.585   0.356   2.817 -0.2089 -0.2801 -0.7058
 4483SOL    HW123553   4.531   0.397   2.743  1.0045 -0.9984 -2.0265
 4483SOL    HW223554   4.590   0.257   2.803  3.3979  0.0065 -1.9631
 4484SOL     OW23555   2.688   7.894   1.780 -0.1275  0.2126 -0.0608
 4484SOL    HW123556   2.646   7.903   1.690 -1.5626  2.3354  0.8107
 4484SOL    HW223557   2.650   7.961   1.843  2.8473  0.6160  1.4204
 4485SOL     OW23558   9.547   1.018   2.171  0.3115  0.5208 -0.4588
 4485SOL    HW123559   9.537   1.114   2.143  0.4898  0.3934 -0.9559
 4485SOL    HW223560   9.478   0.962   2.124  0.4347  0.3493 -0.4351
 4486SOL     OW23561   3.633   8.060   2.114  0.6247  0.0645  0.1412
 4486SOL    HW123562   3.622   7.973   2.067  3.0012 -1.2691  1.9101
 4486SOL    HW223563   3.713   8.108   2.076  1.8498 -0.4889  1.9400
 4487SOL     OW23564   0.997   8.303   0.505  0.6072  0.5788  0.3016
 4487SOL    HW123565   1.056   8.301   0.424  0.2155 -0.0722  0.0273
 4487SOL    HW223566   1.024   8.379   0.564  1.4510  0.5349 -0.0211
 4488SOL     OW23567   3.707   3.891   1.191 -0.2173  0.4131  0.6958
 4488SOL    HW123568   3.700   3.956   1.266 -0.5271  1.1851 -0.0088
 4488SOL    HW223569   3.659   3.925   1.111 -0.0597 -0.5013  0.1970
 4489SOL     OW23570   0.496   4.399   1.324 -0.3746 -0.5321  0.6366
 4489SOL    HW123571   0.469   4.303   1.320  0.0452 -0.6412  0.3125
 4489SOL    HW223572   0.572   4.409   1.389 -0.4219 -0.4199  0.6740
 4490SOL     OW23573  10.087   5.399   0.318 -0.4384  0.1284 -0.3483
 4490SOL    HW123574  10.055   5.434   0.406  0.7443  1.2119 -0.3141
 4490SOL    HW223575  10.039   5.446   0.244  0.5214  1.2606 -0.2886
 4491SOL     OW23576   0.845   5.062   0.862 -0.1173  0.4304  0.2389
 4491SOL    HW123577   0.939   5.091   0.878  0.2697 -0.3811 -0.5385
 4491SOL    HW223578   0.783   5.118   0.917  0.7905  1.1828  0.5027
 4492SOL     OW23579   4.443   8.947   2.431 -0.3879 -0.7170 -0.2041
 4492SOL    HW123580   4.499   8.996   2.498 -1.0763  0.4956 -0.4947
 4492SOL    HW223581   4.497   8.932   2.348  1.0011 -3.6463  1.1521
 4493SOL     OW23582   1.672   8.942   0.904  0.4315 -0.1614 -0.0351
 4493SOL    HW123583   1.623   8.917   0.820  1.5622  1.1259 -1.0991
 4493SOL    HW223584   1.606   8.956   0.978 -0.7245  0.4201 -1.1482
 4494SOL     OW23585   9.623   2.688   1.798 -0.2577 -0.0768  0.3933
 4494SOL    HW123586   9.569   2.607   1.779  1.2190 -1.3970  1.6828
 4494SOL    HW223587   9.562   2.766   1.813 -1.6880 -0.9671 -0.7040
 4495SOL     OW23588   1.080   8.333   1.007 -0.5770 -0.1423 -0.0821
 4495SOL    HW123589   1.041   8.296   0.923  0.0612  0.1836 -0.5242
 4495SOL    HW223590   1.154   8.396   0.985 -1.3172  1.0098  0.6936
 4496SOL     OW23591   4.143   5.715   1.748  0.1462 -0.0067 -0.2189
 4496SOL    HW123592   4.080   5.641   1.772  0.3353 -0.9381 -2.5194
 4496SOL    HW223593   4.236   5.690   1.777 -0.0047 -0.0756  0.2099
 4497SOL     OW23594   9.551   9.833   2.205  0.1538  0.1793 -0.1177
 4497SOL    HW123595   9.534   9.890   2.124  0.5504 -0.8509 -0.9480
 4497SOL    HW223596   9.559   9.738   2.177  0.5715 -0.1575  1.1159
 4498SOL     OW23597  10.259   7.409   1.371  0.5643  0.6996  0.3185
 4498SOL    HW123598  10.192   7.415   1.296  0.1128 -1.1194  0.5656
 4498SOL    HW223599  10.239   7.481   1.438 -0.2227  1.1175 -0.3486
 4499SOL     OW23600   3.073   9.435   1.988  0.2140  0.3340 -0.3185
 4499SOL    HW123601   3.161   9.454   2.032  1.7359  1.9434 -3.8742
 4499SOL    HW223602   3.078   9.347   1.940 -0.0251  0.5477 -0.7332
 4500SOL     OW23603   9.051   2.766   1.809 -0.3651 -0.3224 -0.3955
 4500SOL    HW123604   9.109   2.827   1.863 -0.3241 -1.1898  0.5659
 4500SOL    HW223605   9.031   2.808   1.721  1.7878 -0.0396 -0.7809
 4501SOL     OW23606   1.632   2.241   2.009  0.9045  0.0957 -0.6681
 4501SOL    HW123607   1.701   2.170   2.020 -0.3087 -0.9115  0.7241
 4501SOL    HW223608   1.608   2.250   1.912  1.0800 -1.4031 -0.8595
 4502SOL     OW23609  10.209   0.021   0.170  0.4699  0.3790 -0.8437
 4502SOL    HW123610  10.247   0.019   0.077  2.6362 -1.1905  0.0216
 4502SOL    HW223611  10.259  -0.044   0.227 -0.2508  1.9921  1.6746
 4503SOL     OW23612  10.153   5.116   0.887  0.2882 -0.1582  0.3215
 4503SOL    HW123613  10.245   5.140   0.856  0.1922 -1.8111 -1.2959
 4503SOL    HW223614  10.109   5.198   0.923  2.5229  0.5755  1.4859
 4504SOL     OW23615   2.775   1.450   0.233  0.7705 -0.1522  0.3092
 4504SOL    HW123616   2.774   1.472   0.136 -0.2671 -1.6404 -0.0373
 4504SOL    HW223617   2.834   1.372   0.249  0.7282 -0.0793  0.8425
 4505SOL     OW23618   2.510   3.783   2.362 -0.2890  0.6422  0.1731
 4505SOL    HW123619   2.422   3.817   2.328 -1.4699  0.4301  2.9147
 4505SOL    HW223620   2.529   3.694   2.320 -1.6490  0.4292 -0.0289
 4506SOL     OW23621   4.589   8.994   0.961 -0.8829 -0.2255  0.2662
 4506SOL    HW123622   4.570   9.081   0.916 -0.0451 -1.5915 -2.8575
 4506SOL    HW223623   4.503   8.954   0.994 -1.4952  0.8422 -0.0214
 4507SOL     OW23624   3.369   8.004   2.620  0.6448 -0.6652 -0.0245
 4507SOL    HW123625   3.398   8.093   2.586  0.3502 -0.4135  0.3782
 4507SOL    HW223626   3.339   8.013   2.715 -1.7535 -0.6990 -0.7460
 4508SOL     OW23627   1.996   1.364   2.640  0.0907 -0.3957  0.0952
 4508SOL    HW123628   1.927   1.339   2.573  3.0788 -0.2543 -3.1697
 4508SOL    HW223629   1.962   1.439   2.697 -2.1697  0.1880 -1.9405
 4509SOL     OW23630  10.322   4.361   1.691 -0.0224 -0.3878  0.5714
 4509SOL    HW123631  10.249   4.323   1.635  0.5897 -1.5173  0.5414
 4509SOL    HW223632  10.308   4.460   1.701 -0.0339 -0.1362 -1.7231
 4510SOL     OW23633  10.329   5.571   2.093 -0.1334  0.0017  0.3952
 4510SOL    HW123634  10.397   5.502   2.066 -1.5317 -1.0619 -0.4855
 4510SOL    HW223635  10.270   5.532   2.164 -0.2272  0.7028  0.7018
 4511SOL     OW23636   2.947   0.290   2.074  0.2060  0.2770 -0.4993
 4511SOL    HW123637   2.933   0.364   2.140 -0.0778  0.1978 -0.4702
 4511SOL    HW223638   2.946   0.327   1.981 -2.1046  0.0112 -0.6022
 4512SOL     OW23639   1.373   5.909   0.640  0.2927  0.1289  0.4031
 4512SOL    HW123640   1.324   5.858   0.710 -0.4954  2.6443  1.7715
 4512SOL    HW223641   1.308   5.950   0.577  0.9372 -0.9849 -1.0144
 4513SOL     OW23642   0.490   9.334   2.321 -0.4083 -0.5775 -0.2095
 4513SOL    HW123643   0.391   9.345   2.316 -0.2106  1.0649 -0.5283
 4513SOL    HW223644   0.514   9.282   2.403 -1.6702 -2.9624 -1.2772
 4514SOL     OW23645   1.091   6.332   2.113  0.0800  0.4339  0.3227
 4514SOL    HW123646   1.013   6.315   2.173  0.3419 -0.2573  0.4784
 4514SOL    HW223647   1.100   6.257   2.048  0.8562  0.2964  0.5745
 4515SOL     OW23648   1.089   2.570   1.939 -0.6363  0.2963 -0.3545
 4515SOL    HW123649   1.086   2.471   1.927 -0.2305 -0.0010  1.8325
 4515SOL    HW223650   1.089   2.592   2.037  0.8501  2.4105 -0.8005
 4516SOL     OW23651   9.303   5.300   0.934  0.3580  0.0886  0.3019
 4516SOL    HW123652   9.385   5.356   0.929  0.3511 -0.0431 -1.3683
 4516SOL    HW223653   9.223   5.359   0.946  0.4322  0.3857 -0.6445
 4517SOL     OW23654   1.031   5.847   2.195 -0.1007 -0.0896 -0.1934
 4517SOL    HW123655   1.023   5.799   2.108 -1.4539 -2.4066  1.1329
 4517SOL    HW223656   0.940   5.859   2.235  0.1471  4.1128 -0.6922
 4518SOL     OW23657   3.274   3.437   1.757  0.0732 -0.0321  0.1833
 4518SOL    HW123658   3.241   3.510   1.697 -1.1424 -0.5677  0.1803
 4518SOL    HW223659   3.224   3.353   1.736  1.0412 -0.7085  0.6001
 4519SOL     OW23660   3.413   0.087   2.782 -0.5587 -0.0550  0.2558
 4519SOL    HW123661   3.440   0.132   2.867 -1.5250  1.1366 -0.0533
 4519SOL    HW223662   3.377  -0.004   2.802 -2.6251  0.9663  1.3456
 4520SOL     OW23663   9.946   4.175   0.725 -0.4595  0.1837 -0.0257
 4520SOL    HW123664   9.947   4.224   0.638  1.3782 -0.7739 -0.5652
 4520SOL    HW223665  10.001   4.092   0.717 -1.9666 -0.9856  1.4492
 4521SOL     OW23666   9.428   1.651   0.607 -0.2373  0.3109 -0.1289
 4521SOL    HW123667   9.414   1.709   0.526 -1.2934  0.2262 -0.0215
 4521SOL    HW223668   9.406   1.704   0.689 -0.9941 -0.1719 -0.0159
 4522SOL     OW23669   1.595   5.940   2.446 -0.5198  0.4867  0.6054
 4522SOL    HW123670   1.552   5.948   2.356  1.3785 -1.9776 -0.5947
 4522SOL    HW223671   1.541   5.880   2.504 -0.7351  0.5087  0.4262
 4523SOL     OW23672   9.805   1.988   1.564  0.1469 -0.4403  0.4443
 4523SOL    HW123673   9.740   1.996   1.640 -1.2786 -1.8318 -0.5836
 4523SOL    HW223674   9.836   2.079   1.537 -1.2926  0.2583  1.0357
 4524SOL     OW23675   9.526   4.566   2.412 -0.1728  0.1537 -0.1023
 4524SOL    HW123676   9.539   4.474   2.448 -0.6860  1.1786  2.8584
 4524SOL    HW223677   9.439   4.570   2.362 -1.1940 -0.4424  1.5976
 4525SOL     OW23678   9.561   3.004   1.521  0.0897 -0.1774  0.0140
 4525SOL    HW123679   9.651   2.962   1.516 -0.5583 -1.5821 -0.0723
 4525SOL    HW223680   9.557   3.083   1.460  1.9898  1.3040  1.7395
 4526SOL     OW23681   9.923   6.792   2.015 -0.3204 -0.3190  0.1567
 4526SOL    HW123682   9.979   6.789   1.933 -0.1833 -0.6727  0.2620
 4526SOL    HW223683   9.887   6.701   2.034 -0.6136 -0.1719  0.3070
 4527SOL     OW23684   1.786   2.004   2.077  0.0303  0.2052 -0.3831
 4527SOL    HW123685   1.878   1.966   2.074  0.2651  0.7065  0.2135
 4527SOL    HW223686   1.765   2.032   2.171 -0.0928  1.6558 -0.8381
 4528SOL     OW23687   4.382   9.590   1.948  0.0675 -0.3281  0.6789
 4528SOL    HW123688   4.316   9.666   1.954  0.1859 -0.1351 -0.3578
 4528SOL    HW223689   4.462   9.620   1.897 -0.5606 -1.6284 -1.0886
 4529SOL     OW23690   3.738   5.636   0.310  0.1232 -0.0713 -0.0639
 4529SOL    HW123691   3.643   5.609   0.294  0.2032  0.1217 -0.8717
 4529SOL    HW223692   3.777   5.579   0.382 -0.0297 -1.3783 -1.0085
 4530SOL     OW23693   9.975   9.759   0.779  0.1895 -0.8192 -0.7540
 4530SOL    HW123694   9.967   9.661   0.759  1.1723 -1.1458  0.3628
 4530SOL    HW223695  10.057   9.775   0.835  0.0614  0.6488 -0.9653
 4531SOL     OW23696   2.548   5.507   1.016  0.4384 -0.2094  0.2019
 4531SOL    HW123697   2.484   5.575   1.052  0.7052 -0.0591  0.3870
 4531SOL    HW223698   2.570   5.529   0.921  0.8510  0.1987  0.3913
 4532SOL     OW23699   1.573   2.927   0.800 -0.2037  0.2031  0.1535
 4532SOL    HW123700   1.610   3.019   0.783 -0.1976 -0.0555 -1.2649
 4532SOL    HW223701   1.643   2.872   0.846  0.0647  0.6640  0.3069
 4533SOL     OW23702   9.595   8.889   1.991 -0.0124 -0.3097 -0.1759
 4533SOL    HW123703   9.499   8.873   1.967  0.0350 -0.8740  0.0040
 4533SOL    HW223704   9.602   8.970   2.049 -0.2922  0.1964 -0.8483
 4534SOL     OW23705   3.610   8.380   2.448  0.0469 -0.2553 -0.2686
 4534SOL    HW123706   3.709   8.363   2.442  0.0062 -0.1003 -1.4174
 4534SOL    HW223707   3.563   8.334   2.373 -0.6992  0.1390 -0.0474
 4535SOL     OW23708   0.633   5.061   2.401 -0.2719 -0.1965 -0.3665
 4535SOL    HW123709   0.546   5.014   2.387 -0.2441 -0.6415  0.8958
 4535SOL    HW223710   0.707   4.992   2.406 -0.2085 -0.0304  1.3298
 4536SOL     OW23711   2.885   9.700   0.706  0.2279 -0.7026  0.1637
 4536SOL    HW123712   2.828   9.736   0.779  0.9194 -0.3046  0.5048
 4536SOL    HW223713   2.826   9.657   0.637 -0.5408  0.3139  0.1681
 4537SOL     OW23714   1.345   8.524   1.802 -0.1018  0.1857  0.0409
 4537SOL    HW123715   1.321   8.441   1.753  0.4883  0.4501 -0.7012
 4537SOL    HW223716   1.385   8.591   1.739  1.5809  0.1517  1.0447
 4538SOL     OW23717   1.645   2.745   1.949  0.3737  0.0089 -0.4029
 4538SOL    HW123718   1.728   2.693   1.931  0.5386  0.2379 -0.3008
 4538SOL    HW223719   1.630   2.750   2.047 -1.0594 -2.0861 -0.4610
 4539SOL     OW23720   2.555   8.482   1.136 -0.1374  0.3430 -0.3162
 4539SOL    HW123721   2.547   8.408   1.070 -5.1894  0.3776  0.0579
 4539SOL    HW223722   2.598   8.561   1.092 -0.1273 -0.8417 -2.5095
 4540SOL     OW23723   2.341   7.592   0.439  0.1420  0.0810 -0.7454
 4540SOL    HW123724   2.259   7.541   0.413  0.5671 -1.7194  1.2724
 4540SOL    HW223725   2.422   7.542   0.408  0.5804 -0.9198  1.8451
 4541SOL     OW23726   9.328   1.359   2.223  0.3427 -0.3246 -0.3361
 4541SOL    HW123727   9.418   1.355   2.180  1.1601 -0.7138  1.3437
 4541SOL    HW223728   9.324   1.292   2.297 -0.5759  1.1471  0.9931
 4542SOL     OW23729   0.689   7.137   1.666 -0.0852  0.1246  0.2319
 4542SOL    HW123730   0.678   7.202   1.591 -0.4220 -0.6026 -0.3520
 4542SOL    HW223731   0.715   7.186   1.749  1.0666  0.8423 -0.5447
 4543SOL     OW23732   4.383   9.221   1.907  0.0380  0.1473 -0.5245
 4543SOL    HW123733   4.378   9.244   2.004  1.2076 -1.6147 -0.0102
 4543SOL    HW223734   4.325   9.283   1.854 -0.5582  1.1601  1.2897
 4544SOL     OW23735   9.903   4.788   1.668  0.3452  0.4600 -0.1467
 4544SOL    HW123736   9.926   4.742   1.754  0.7277 -0.4309 -0.7162
 4544SOL    HW223737   9.979   4.846   1.639  0.5108  0.1906 -0.2571
 4545SOL     OW23738   2.242   9.655   2.394  0.2477 -0.0247  0.2769
 4545SOL    HW123739   2.153   9.649   2.439  0.3254  1.0835  0.6123
 4545SOL    HW223740   2.307   9.703   2.454  0.6050  0.6668 -0.6311
 4546SOL     OW23741   4.244   2.265   0.442 -0.1430  0.0463 -0.0602
 4546SOL    HW123742   4.337   2.228   0.443 -0.9905 -2.1601  0.0535
 4546SOL    HW223743   4.232   2.320   0.360  1.4407  0.8720  0.2274
 4547SOL     OW23744   1.351   2.492   1.556 -0.3349  0.0641 -0.1354
 4547SOL    HW123745   1.378   2.532   1.644 -0.9012  0.1606 -0.0064
 4547SOL    HW223746   1.254   2.470   1.558 -0.2132 -0.5242 -0.5124
 4548SOL     OW23747   9.869   0.660   0.700  0.3900 -0.1958  0.4226
 4548SOL    HW123748   9.814   0.578   0.681  0.7353 -0.3144 -0.0901
 4548SOL    HW223749   9.813   0.742   0.687  0.0255 -0.3466  0.9846
 4549SOL     OW23750   3.334   3.124   0.258 -0.3467 -0.1618  0.0757
 4549SOL    HW123751   3.280   3.173   0.190 -0.4566 -0.2232  0.1193
 4549SOL    HW223752   3.331   3.174   0.345 -0.1936 -0.0749  0.0319
 4550SOL     OW23753   0.497   6.363   1.135  0.1429  0.6308 -0.5037
 4550SOL    HW123754   0.493   6.280   1.079  0.4760  0.8487 -0.8535
 4550SOL    HW223755   0.492   6.444   1.076 -0.7726  0.8595 -0.1172
 4551SOL     OW23756   2.845   4.916   1.849 -0.1226  0.2282  0.2091
 4551SOL    HW123757   2.747   4.911   1.831 -0.2629 -0.2533  1.0795
 4551SOL    HW223758   2.895   4.906   1.763 -0.8606  2.2770 -0.5058
 4552SOL     OW23759   9.272   5.979   0.327  0.2109  0.3407  0.2944
 4552SOL    HW123760   9.248   6.073   0.302  2.9678  1.5085  1.8044
 4552SOL    HW223761   9.231   5.956   0.415  0.3061  0.4652  0.3711
 4553SOL     OW23762   2.774   2.204   0.214 -0.1803 -0.3372 -0.3512
 4553SOL    HW123763   2.861   2.167   0.246 -1.2525 -1.4866  1.3684
 4553SOL    HW223764   2.784   2.301   0.191  1.4814 -0.4101  0.0330
 4554SOL     OW23765  10.067   1.633   0.996  0.2125 -0.6170 -0.6669
 4554SOL    HW123766  10.034   1.539   0.997 -0.9575 -0.2189 -1.3235
 4554SOL    HW223767   9.991   1.695   1.016  0.9838  0.1850 -0.1949
 4555SOL     OW23768   8.635   6.707   1.816 -0.2677 -0.4964 -0.1267
 4555SOL    HW123769   8.660   6.801   1.840  0.7872  0.1541 -3.4749
 4555SOL    HW223770   8.540   6.690   1.843  0.4969  0.4268  3.4181
 4556SOL     OW23771   8.999   5.149   0.080  0.2734 -0.5841 -0.1645
 4556SOL    HW123772   8.961   5.058   0.098  3.4437 -1.8575  0.2861
 4556SOL    HW223773   9.050   5.181   0.160 -1.1511  1.8202 -0.1512
 4557SOL     OW23774   4.877   2.507   1.059 -0.7151  0.0373  0.7531
 4557SOL    HW123775   4.919   2.545   0.976 -0.2668 -0.1167  0.9085
 4557SOL    HW223776   4.919   2.419   1.080 -1.4368 -0.3348  0.6545
 4558SOL     OW23777   3.741   2.528   1.755  0.0910  0.3484  0.4477
 4558SOL    HW123778   3.683   2.487   1.685  0.2023 -0.2182  0.6822
 4558SOL    HW223779   3.828   2.556   1.715  0.4291 -0.6128  0.4974
 4559SOL     OW23780   3.631   9.436   0.859 -0.5833  0.7897  0.3551
 4559SOL    HW123781   3.636   9.441   0.958 -0.3465  1.4022  0.3144
 4559SOL    HW223782   3.558   9.496   0.826  0.8144  2.3170  0.0065
 4560SOL     OW23783  10.293   1.261   0.764  0.7006  0.3914 -0.6992
 4560SOL    HW123784  10.304   1.163   0.779  0.7896  0.3903 -0.7720
 4560SOL    HW223785  10.335   1.311   0.840 -0.1741  0.3561 -0.1787
 4561SOL     OW23786   1.788   4.985   2.027 -0.5317 -0.5584 -0.4463
 4561SOL    HW123787   1.865   5.030   1.983 -1.0941  0.3048 -0.5471
 4561SOL    HW223788   1.726   4.948   1.957 -1.9352  1.6709 -0.4158
 4562SOL     OW23789   0.581   2.547   0.186  0.1887  0.1947 -0.2149
 4562SOL    HW123790   0.603   2.542   0.283 -1.6402  0.5364  0.2390
 4562SOL    HW223791   0.600   2.639   0.152  1.4217 -0.0951 -0.3545
 4563SOL     OW23792   9.193   4.196   2.004  0.0208 -0.2696 -0.3601
 4563SOL    HW123793   9.144   4.109   1.993  1.7888 -1.0829 -2.1202
 4563SOL    HW223794   9.234   4.222   1.917 -1.3054  2.8728 -0.0923
 4564SOL     OW23795   0.646   3.260   0.579  0.0116  0.6577 -0.1260
 4564SOL    HW123796   0.554   3.242   0.544 -0.1882  1.4975 -0.0520
 4564SOL    HW223797   0.645   3.346   0.631  1.0908  1.2737 -1.0976
 4565SOL     OW23798   1.474   5.222   0.584 -0.0888 -0.2526  0.2634
 4565SOL    HW123799   1.515   5.131   0.580 -2.0179 -1.1872  1.0218
 4565SOL    HW223800   1.546   5.291   0.583  1.3136 -1.6694 -3.2975
 4566SOL     OW23801   3.515   1.646   1.002 -0.2312  0.2211 -0.1164
 4566SOL    HW123802   3.613   1.646   0.980 -0.3591 -1.0459 -0.6977
 4566SOL    HW223803   3.471   1.567   0.960 -1.6024  1.0362 -0.2398
 4567SOL     OW23804   2.491   1.814   1.781 -0.1021 -0.6236 -0.0506
 4567SOL    HW123805   2.451   1.742   1.724  0.5084  1.8601 -3.7609
 4567SOL    HW223806   2.417   1.868   1.822 -0.5716 -0.5597 -0.9641
 4568SOL     OW23807   2.121   2.220   2.401  0.4295 -0.4594  0.7429
 4568SOL    HW123808   2.075   2.307   2.418  0.0679 -0.9207  2.1778
 4568SOL    HW223809   2.070   2.146   2.445 -0.3914 -1.6921 -2.1035
 4569SOL     OW23810   0.942   3.469   1.152  0.3420 -0.4605 -0.1288
 4569SOL    HW123811   0.862   3.414   1.126  0.6079 -1.0271  0.2284
 4569SOL    HW223812   0.940   3.486   1.250  1.1366 -1.2509  0.0267
 4570SOL     OW23813   2.804   8.625   1.838  0.4535  0.0424  0.2760
 4570SOL    HW123814   2.782   8.546   1.781  1.0341  0.8253 -1.0403
 4570SOL    HW223815   2.902   8.644   1.833  0.1090  1.7126 -0.5636
 4571SOL     OW23816   3.506   0.537   0.088  0.6136 -0.3606  0.1207
 4571SOL    HW123817   3.422   0.573   0.129  1.6977  0.8599  1.3042
 4571SOL    HW223818   3.484   0.497  -0.002 -1.2022  0.0377  0.3561
 4572SOL     OW23819   3.425   9.779   0.469 -0.0391  0.5044 -0.2611
 4572SOL    HW123820   3.497   9.806   0.404 -0.3095 -1.6745 -1.4855
 4572SOL    HW223821   3.468   9.737   0.549  0.1583  1.1032 -0.0468
 4573SOL     OW23822  10.045   8.840   2.573 -0.4249  0.3031 -0.2323
 4573SOL    HW123823  10.105   8.792   2.637 -1.0274  1.4190  1.1974
 4573SOL    HW223824  10.078   8.826   2.480  0.7416 -0.9519  0.3550
 4574SOL     OW23825   9.862   8.180   0.586 -0.0071  0.1383  0.5388
 4574SOL    HW123826   9.897   8.267   0.551 -0.4871 -0.1323 -0.6428
 4574SOL    HW223827   9.762   8.180   0.581  0.0385 -0.9201 -0.5464
 4575SOL     OW23828   3.238   8.795   0.456  0.0560  0.2706 -0.0237
 4575SOL    HW123829   3.247   8.742   0.372 -2.1030 -0.7280  0.3365
 4575SOL    HW223830   3.265   8.739   0.534  0.7522  0.7443  0.0804
 4576SOL     OW23831   2.098   4.223   0.333  0.6463 -0.1179 -0.2251
 4576SOL    HW123832   2.136   4.154   0.271  1.0695 -1.0141  1.0257
 4576SOL    HW223833   2.172   4.279   0.371  0.7581 -1.8110  2.1454
 4577SOL     OW23834   9.984   0.059   1.460  0.6096 -0.0918  0.1510
 4577SOL    HW123835   9.911   0.100   1.514  0.7221 -2.1770  1.9283
 4577SOL    HW223836   9.967   0.077   1.363 -1.4157  0.7706  0.6375
 4578SOL     OW23837   1.506   4.275   0.560  0.3934 -0.3498 -0.0246
 4578SOL    HW123838   1.524   4.368   0.590 -0.8478 -0.5273  1.3568
 4578SOL    HW223839   1.407   4.260   0.554  0.5767 -1.5566 -0.2373
 4579SOL     OW23840   8.920   3.471   2.228  0.0927  0.4819 -0.2446
 4579SOL    HW123841   8.884   3.379   2.210 -0.8897  0.4105  1.9295
 4579SOL    HW223842   8.871   3.537   2.170  0.8060 -0.3410 -1.8231
 4580SOL     OW23843   1.054   3.961   1.529  0.0952 -0.2980  0.2819
 4580SOL    HW123844   1.151   3.940   1.538  0.5315  0.4996 -2.2424
 4580SOL    HW223845   1.003   3.877   1.511  0.6791 -0.3739 -1.0563
 4581SOL     OW23846   0.997   8.846   0.812 -0.2150  0.1763  0.0959
 4581SOL    HW123847   1.001   8.913   0.738  0.9655 -1.4695 -1.3599
 4581SOL    HW223848   0.917   8.787   0.799 -2.0363  2.0908  2.1222
 4582SOL     OW23849   1.682   3.980   2.378  0.2589  0.0250 -0.1196
 4582SOL    HW123850   1.596   3.982   2.327  1.0508 -0.2167 -1.4943
 4582SOL    HW223851   1.698   3.888   2.414  0.1516 -0.0380 -0.2350
 4583SOL     OW23852   0.986   7.784   0.745 -0.1169 -0.1371 -0.1512
 4583SOL    HW123853   0.973   7.718   0.819 -1.6126 -0.6472 -0.8461
 4583SOL    HW223854   0.918   7.856   0.751 -1.1124 -0.9209 -1.8056
 4584SOL     OW23855   4.033   1.718   1.531  1.0294 -0.0394  0.0447
 4584SOL    HW123856   4.020   1.685   1.624 -0.0276 -0.6776 -0.3108
 4584SOL    HW223857   3.958   1.778   1.506  1.5002  0.4188 -0.2708
 4585SOL     OW23858   4.562   2.702   1.788 -0.3271 -0.2499  0.5836
 4585SOL    HW123859   4.468   2.693   1.755 -0.3213  2.0640 -0.1844
 4585SOL    HW223860   4.626   2.685   1.713 -0.2353  1.2061  0.2996
 4586SOL     OW23861   2.509   3.226   1.925 -0.1551 -0.5686 -0.2790
 4586SOL    HW123862   2.422   3.261   1.890  0.9180  2.3352 -0.2129
 4586SOL    HW223863   2.584   3.263   1.870  1.0887 -2.3487  0.1952
 4587SOL     OW23864   9.530   8.632   1.623  0.5536  0.0945 -0.1994
 4587SOL    HW123865   9.562   8.588   1.539 -0.9825  0.9293 -1.2694
 4587SOL    HW223866   9.453   8.580   1.660 -0.0929  0.8600 -0.4579
 4588SOL     OW23867   3.545   9.274   0.309  0.4347  0.4920 -0.2581
 4588SOL    HW123868   3.477   9.258   0.381  0.8628  1.0709  0.2789
 4588SOL    HW223869   3.571   9.370   0.309 -0.5253  0.7808 -2.0389
 4589SOL     OW23870   3.475   1.882   1.755 -0.6687  0.3356  0.5320
 4589SOL    HW123871   3.562   1.876   1.706 -0.5250  0.9817  0.7071
 4589SOL    HW223872   3.439   1.790   1.770 -1.0999  0.1591 -1.4877
 4590SOL     OW23873  10.223   7.065   1.837  0.1759 -0.5604  0.1970
 4590SOL    HW123874  10.218   7.160   1.809 -0.9567 -1.1676 -1.7853
 4590SOL    HW223875  10.196   7.006   1.760 -0.4806 -2.4118  1.8103
 4591SOL     OW23876   9.644   2.046   1.753 -0.3351 -0.1627 -0.1135
 4591SOL    HW123877   9.544   2.044   1.746 -0.3018  0.0909 -0.6492
 4591SOL    HW223878   9.670   2.041   1.850 -0.8365 -1.2156 -0.0263
 4592SOL     OW23879   4.380   5.080   1.286  0.5749 -0.0608 -0.5490
 4592SOL    HW123880   4.389   4.982   1.304  0.4603  0.2826  1.4563
 4592SOL    HW223881   4.307   5.118   1.342 -0.3191  0.9309 -2.3331
 4593SOL     OW23882   2.842   3.030   2.408  0.3089  0.6556 -0.0611
 4593SOL    HW123883   2.919   3.068   2.356 -0.5885  0.1881 -1.7727
 4593SOL    HW223884   2.758   3.079   2.383 -0.0341  0.9110  1.5165
 4594SOL     OW23885   1.914   0.433   2.445  0.0760  0.1435  0.4042
 4594SOL    HW123886   1.826   0.391   2.424 -0.7316 -0.6639  4.9339
 4594SOL    HW223887   1.899   0.527   2.477  0.8410  0.0382  1.0930
 4595SOL     OW23888   2.911   4.303   0.631 -0.4349 -0.0650  0.8400
 4595SOL    HW123889   2.978   4.235   0.602 -0.5061  1.2219 -2.5210
 4595SOL    HW223890   2.959   4.387   0.657 -0.6483  0.4305 -0.3438
 4596SOL     OW23891  10.102   4.680   0.818  0.0196  0.6611  0.3080
 4596SOL    HW123892  10.160   4.599   0.820  0.2036  0.7593 -0.7039
 4596SOL    HW223893  10.098   4.716   0.725  0.0362  1.8887  0.7743
 4597SOL     OW23894   1.452   8.709   0.232  0.2653 -0.2766 -0.2624
 4597SOL    HW123895   1.518   8.748   0.296  0.3051 -2.6671  1.2177
 4597SOL    HW223896   1.365   8.759   0.240  0.2986 -0.4669  1.6308
 4598SOL     OW23897   1.302   8.459   0.802  0.5437  0.7047  0.0515
 4598SOL    HW123898   1.341   8.409   0.725  0.7983 -0.5433  0.9760
 4598SOL    HW223899   1.365   8.457   0.880 -0.2083  0.9506  0.6830
 4599SOL     OW23900   1.444   9.526   0.591  0.3006  0.3132  0.2276
 4599SOL    HW123901   1.486   9.583   0.521  0.6869 -0.5075 -0.2220
 4599SOL    HW223902   1.508   9.454   0.618 -0.3514 -0.1929  0.4454
 4600SOL     OW23903   3.874   0.791   0.316  0.4314 -0.5953  0.4006
 4600SOL    HW123904   3.923   0.866   0.272 -0.9719 -0.8153 -1.5784
 4600SOL    HW223905   3.788   0.775   0.269 -0.9210 -1.1644  2.9479
 4601SOL     OW23906   0.909   6.875   1.923 -0.3641 -0.5729 -0.0473
 4601SOL    HW123907   0.842   6.859   1.850 -0.4601 -0.1598 -0.0484
 4601SOL    HW223908   0.889   6.815   2.000 -1.0519 -0.0687  0.1634
 4602SOL     OW23909  10.024   5.359   2.687  0.1000 -0.0021  0.2332
 4602SOL    HW123910  10.108   5.404   2.714  0.9493 -1.0474 -0.6141
 4602SOL    HW223911   9.998   5.387   2.594  0.1647 -0.5732  0.0360
 4603SOL     OW23912   3.390   1.035   2.670  0.3414 -0.4892 -0.4884
 4603SOL    HW123913   3.369   0.959   2.608 -1.4259  1.2741 -2.1110
 4603SOL    HW223914   3.312   1.052   2.729  2.5984 -3.2230  3.4988
 4604SOL     OW23915   9.341   8.308   1.916 -0.2864 -0.0543  0.4727
 4604SOL    HW123916   9.438   8.292   1.898 -0.8814 -0.7396 -2.3228
 4604SOL    HW223917   9.314   8.396   1.877 -1.1211 -0.5643 -0.1178
 4605SOL     OW23918   0.941   4.284   1.860 -0.1745 -0.0952  0.4964
 4605SOL    HW123919   1.023   4.341   1.869  0.5910 -1.0544 -0.2716
 4605SOL    HW223920   0.935   4.221   1.938  0.6092 -1.0139 -0.1769
 4606SOL     OW23921  10.064   6.330   0.627 -0.0713 -0.6252  0.2523
 4606SOL    HW123922  10.076   6.287   0.717  1.4380 -0.2820  0.2153
 4606SOL    HW223923  10.150   6.330   0.577 -0.7032 -0.0526 -0.8715
 4607SOL     OW23924   3.178   3.971   1.478  0.1579 -0.3350 -0.1513
 4607SOL    HW123925   3.266   3.929   1.456  0.8147  1.7862 -1.7875
 4607SOL    HW223926   3.138   4.009   1.394 -1.7383 -0.1962  0.7987
 4608SOL     OW23927   0.692   1.135   2.384 -0.0077  0.0824  0.6135
 4608SOL    HW123928   0.722   1.040   2.383 -1.3317 -0.3837  2.4259
 4608SOL    HW223929   0.627   1.149   2.459 -1.3446  1.9500 -0.8346
 4609SOL     OW23930   1.402   5.035   2.400  0.1562  0.1621 -0.8683
 4609SOL    HW123931   1.451   5.106   2.350 -0.4726  0.7522 -0.6577
 4609SOL    HW223932   1.455   5.008   2.481 -0.0408  1.0618 -0.4364
 4610SOL     OW23933  10.250   1.857   1.850  0.0096  0.5848  0.1598
 4610SOL    HW123934  10.345   1.884   1.862  0.3930 -1.0567  0.9227
 4610SOL    HW223935  10.236   1.824   1.756  0.4705 -0.2229  0.3676
 4611SOL     OW23936   9.844   6.017   0.252 -1.4422 -0.1470 -0.5687
 4611SOL    HW123937   9.752   6.024   0.215 -1.4754  0.8655 -0.2952
 4611SOL    HW223938   9.894   6.102   0.236 -0.3912 -0.8550 -1.1485
 4612SOL     OW23939   9.051   3.947   1.982  0.0236  0.0372  0.2843
 4612SOL    HW123940   9.092   3.903   1.902 -0.8010  0.6878 -0.5021
 4612SOL    HW223941   9.071   3.893   2.064 -0.7261 -1.6539 -0.6280
 4613SOL     OW23942  10.331   9.825   0.326  0.0214  0.8547  0.0624
 4613SOL    HW123943  10.287   9.751   0.275 -0.7161 -0.0279  1.9157
 4613SOL    HW223944  10.430   9.812   0.325 -0.2411 -1.9521  2.9545
 4614SOL     OW23945   3.162   1.660   0.371  0.7534 -0.0781  0.5459
 4614SOL    HW123946   3.213   1.634   0.453 -0.9030 -0.0018  1.6137
 4614SOL    HW223947   3.141   1.758   0.373 -0.5724 -0.3546  0.7658
 4615SOL     OW23948   0.379   3.506   1.893  0.1002 -0.5591  0.5173
 4615SOL    HW123949   0.327   3.569   1.951  2.0376 -0.5757  2.3546
 4615SOL    HW223950   0.356   3.412   1.918 -0.2999 -0.5721  0.1012
 4616SOL     OW23951  10.197   7.562   2.630  0.6905 -0.1910  0.4536
 4616SOL    HW123952  10.215   7.648   2.678  2.0168 -0.7501  0.9951
 4616SOL    HW223953  10.247   7.489   2.675  0.0634 -1.1404 -0.3900
 4617SOL     OW23954   9.968   5.190   2.337 -0.8222  0.1981 -0.0426
 4617SOL    HW123955  10.034   5.178   2.411 -2.7254  0.0093  1.6725
 4617SOL    HW223956   9.933   5.284   2.339 -2.5044 -0.4185  0.7302
 4618SOL     OW23957   2.435   7.111   2.549  0.2221 -0.0205  0.9738
 4618SOL    HW123958   2.467   7.018   2.532 -0.3828 -0.0675  0.0179
 4618SOL    HW223959   2.511   7.175   2.537  0.1179 -0.1796 -0.7408
 4619SOL     OW23960   1.243   0.374   0.529 -0.3256 -0.1663  0.4399
 4619SOL    HW123961   1.340   0.358   0.512 -0.5709 -0.7157 -0.4337
 4619SOL    HW223962   1.210   0.309   0.599  0.0185  0.2679  1.0105
 4620SOL     OW23963   8.952   6.822   1.086 -0.0716  0.0234  0.4384
 4620SOL    HW123964   9.024   6.756   1.063  0.6943  0.9530  0.1245
 4620SOL    HW223965   8.935   6.820   1.185 -0.3631 -0.9430  0.3747
 4621SOL     OW23966   1.725   2.435   1.774 -0.0763 -0.5648 -0.3599
 4621SOL    HW123967   1.646   2.496   1.772  0.2044 -0.1853 -0.0107
 4621SOL    HW223968   1.809   2.489   1.778  0.1429 -0.9678  0.8968
 4622SOL     OW23969   4.107   1.974   0.245 -0.2136  0.0014 -0.6190
 4622SOL    HW123970   4.026   1.916   0.253 -0.4755  0.3950 -0.3931
 4622SOL    HW223971   4.107   2.041   0.319  1.0452 -0.8918  0.1851
 4623SOL     OW23972   0.537   7.500   1.428 -0.0210 -0.2205 -0.0481
 4623SOL    HW123973   0.448   7.458   1.411 -0.0614  0.5043 -1.6274
 4623SOL    HW223974   0.529   7.599   1.424  0.5655 -0.0996  1.3173
 4624SOL     OW23975   1.926   9.602   2.702  0.0061  0.0264 -0.0904
 4624SOL    HW123976   1.833   9.594   2.738 -0.4320  0.3091 -1.1325
 4624SOL    HW223977   1.986   9.538   2.750 -0.8194 -0.4622  0.2982
 4625SOL     OW23978   9.200   6.812   2.704  0.0940  0.1627 -0.1531
 4625SOL    HW123979   9.290   6.816   2.747 -0.2050  1.2866  0.3784
 4625SOL    HW223980   9.132   6.856   2.763 -0.9371 -1.3149 -0.2305
 4626SOL     OW23981   3.594   4.631   2.318  0.1361  0.3195  0.4871
 4626SOL    HW123982   3.642   4.682   2.246  2.2118  0.6719  2.0870
 4626SOL    HW223983   3.545   4.555   2.276  0.5802  1.0344 -1.4204
 4627SOL     OW23984   2.801   2.978   1.137  0.3137 -0.1919  0.5817
 4627SOL    HW123985   2.892   2.958   1.173  0.3028  0.3533  0.8982
 4627SOL    HW223986   2.809   3.039   1.058  0.2311 -0.2353  0.5394
 4628SOL     OW23987   4.215   1.395   1.960  0.1464  0.0085  0.2063
 4628SOL    HW123988   4.135   1.451   1.940 -1.3268 -2.1608 -0.1486
 4628SOL    HW223989   4.218   1.377   2.059 -0.2619 -0.5442  0.1236
 4629SOL     OW23990   3.461   1.653   0.387 -0.7604 -0.8287 -0.3382
 4629SOL    HW123991   3.417   1.667   0.475 -1.7924  0.9687 -1.1302
 4629SOL    HW223992   3.434   1.725   0.323  2.2208 -0.4788 -1.2822
 4630SOL     OW23993   2.748   1.265   1.440  0.1622 -0.4058  0.2428
 4630SOL    HW123994   2.807   1.306   1.371  0.5900  1.2415  1.5368
 4630SOL    HW223995   2.716   1.336   1.503 -2.0678 -1.4968  0.4042
 4631SOL     OW23996   2.668   6.168   2.767 -1.1264  0.2305 -0.2817
 4631SOL    HW123997   2.751   6.117   2.746 -1.2953 -0.2884  0.2668
 4631SOL    HW223998   2.681   6.220   2.851 -1.0669  0.8444 -0.6648
 4632SOL     OW23999  10.157   3.936   2.142  0.2639 -0.8689 -0.2634
 4632SOL    HW124000  10.196   3.898   2.227  0.5851 -0.8226 -0.3900
 4632SOL    HW224001  10.197   4.026   2.125 -1.3734  0.0536  0.6672
 4633SOL     OW24002   9.808   5.256   1.910 -0.0331  0.6972  0.6469
 4633SOL    HW124003   9.896   5.207   1.915 -0.6116 -0.2582  1.7520
 4633SOL    HW224004   9.763   5.236   1.823  0.6729  0.8999  0.2313
 4634SOL     OW24005   1.956   1.095   1.306  0.2186 -0.3673  0.4894
 4634SOL    HW124006   1.880   1.055   1.254  0.4050  0.2477 -0.2658
 4634SOL    HW224007   1.919   1.153   1.379 -0.0522  1.0798 -0.7712
 4635SOL     OW24008   9.340   7.041   0.182 -0.0620 -0.2366 -0.4896
 4635SOL    HW124009   9.245   7.050   0.150 -1.2653 -1.0056  2.6341
 4635SOL    HW224010   9.361   7.117   0.243  0.9567 -0.6713 -0.2950
 4636SOL     OW24011   9.511   9.782   0.955  0.1851  0.0064  0.3062
 4636SOL    HW124012   9.456   9.829   0.886  0.5283  0.3454  0.2649
 4636SOL    HW224013   9.451   9.747   1.027 -0.0661  0.5041  0.3389
 4637SOL     OW24014   1.031   9.984   2.661  0.1995  0.1457 -0.4545
 4637SOL    HW124015   1.112  10.041   2.646 -0.1655  0.6245 -0.6262
 4637SOL    HW224016   1.015   9.928   2.580 -0.0125  0.5201 -0.6733
 4638SOL     OW24017   4.753   2.814   2.832 -0.1458  0.0148  0.3255
 4638SOL    HW124018   4.830   2.750   2.828  0.5668  0.8153  0.9105
 4638SOL    HW224019   4.776   2.897   2.783 -0.8387  0.0625  0.0759
 4639SOL     OW24020   9.207   2.977   2.568 -0.0076  0.0427  0.5322
 4639SOL    HW124021   9.254   2.922   2.499 -0.8798  0.9455 -0.8078
 4639SOL    HW224022   9.236   2.948   2.659  0.0854 -2.1490 -0.1621
 4640SOL     OW24023   0.924   9.635   2.193  0.2121 -0.4184  0.1323
 4640SOL    HW124024   0.951   9.550   2.237 -2.8030 -1.1028  0.8144
 4640SOL    HW224025   0.867   9.688   2.255 -0.0862  0.8793 -1.2156
 4641SOL     OW24026   2.241   0.184   2.615  0.1397  0.4943  0.2640
 4641SOL    HW124027   2.214   0.278   2.596 -3.1251 -0.5834 -0.8568
 4641SOL    HW224028   2.309   0.155   2.548 -0.5326  1.3444 -0.8166
 4642SOL     OW24029   4.166   1.497   0.299 -0.0820 -0.2740  0.4530
 4642SOL    HW124030   4.212   1.586   0.299  0.0710 -0.3163  2.6295
 4642SOL    HW224031   4.197   1.443   0.222  2.2829  0.3317  0.9369
 4643SOL     OW24032   1.606   6.735   1.702 -0.2151  0.5866  0.3119
 4643SOL    HW124033   1.572   6.824   1.732 -0.1474  1.0282 -0.8782
 4643SOL    HW224034   1.675   6.702   1.765  1.0102  2.1809 -0.1702
 4644SOL     OW24035   2.174   7.813   0.598  0.5310  0.0483 -0.0613
 4644SOL    HW124036   2.173   7.790   0.695 -0.1024 -1.2935 -0.3873
 4644SOL    HW224037   2.260   7.781   0.558 -0.7595 -2.6999 -0.7265
 4645SOL     OW24038  10.202   8.745   2.369  0.1961  0.3713  0.6287
 4645SOL    HW124039  10.231   8.839   2.385  0.7543  0.2605  0.3050
 4645SOL    HW224040  10.282   8.685   2.374 -0.2681 -0.1699  1.5159
 4646SOL     OW24041   1.101   9.317   0.081 -0.0362  0.2864  0.1706
 4646SOL    HW124042   1.171   9.260   0.125  1.2060  0.4023 -1.6056
 4646SOL    HW224043   1.062   9.267   0.003 -1.5840  0.4294  0.8460
 4647SOL     OW24044   2.721   2.145   1.443  0.2145 -0.0186  0.4857
 4647SOL    HW124045   2.775   2.163   1.361 -1.1120  0.8878 -0.2090
 4647SOL    HW224046   2.709   2.047   1.454  3.0027 -0.3097  1.3327
 4648SOL     OW24047   2.302   4.130   0.949  0.2226 -0.1751  1.0450
 4648SOL    HW124048   2.232   4.085   1.005 -0.9620  0.6321  0.2600
 4648SOL    HW224049   2.393   4.112   0.986 -0.5633  0.7435  3.4946
 4649SOL     OW24050   2.539   9.241   2.565  0.1979  0.3274  0.1574
 4649SOL    HW124051   2.520   9.335   2.594  2.5343  1.2684 -1.2007
 4649SOL    HW224052   2.527   9.179   2.642 -1.8975  1.6752  0.9300
 4650SOL     OW24053   2.766   9.196   0.166  0.2386 -0.3190 -0.8599
 4650SOL    HW124054   2.675   9.218   0.202  0.2921  1.3414 -1.6697
 4650SOL    HW224055   2.782   9.098   0.173 -1.0591 -0.4454  0.5846
 4651SOL     OW24056   1.984   9.175   0.402 -0.5520 -0.0298 -0.0976
 4651SOL    HW124057   2.083   9.180   0.411 -0.5767  2.6708 -0.8041
 4651SOL    HW224058   1.946   9.117   0.473  1.6422 -2.1423 -0.6129
 4652SOL     OW24059   9.302   4.518   0.604 -0.0900  0.2610 -0.5495
 4652SOL    HW124060   9.211   4.521   0.561  0.2122  0.5095 -1.1857
 4652SOL    HW224061   9.310   4.435   0.659 -0.7766  0.3361 -0.3242
 4653SOL     OW24062   0.940   7.719   0.492  0.2857 -0.1621 -0.4477
 4653SOL    HW124063   0.905   7.805   0.455  0.3320  0.1521  0.2231
 4653SOL    HW224064   0.969   7.733   0.587  0.2925 -0.9182 -0.3321
 4654SOL     OW24065   0.982   4.083   2.046  0.0002  0.1330  0.4002
 4654SOL    HW124066   1.037   4.000   2.040 -0.2412 -0.0701  0.9511
 4654SOL    HW224067   1.004   4.132   2.130 -0.0072  0.5212  0.1783
 4655SOL     OW24068   4.163   2.089   0.893  0.3026  0.4178  0.1255
 4655SOL    HW124069   4.067   2.112   0.907 -0.0372 -1.1747  0.4464
 4655SOL    HW224070   4.197   2.036   0.971  0.9500 -0.5116 -0.7700
 4656SOL     OW24071   1.674   2.211   1.591  0.4375 -0.1221 -0.3859
 4656SOL    HW124072   1.698   2.292   1.645  0.9467 -1.2910  1.1687
 4656SOL    HW224073   1.741   2.139   1.607 -0.7020 -1.2897 -0.7808
 4657SOL     OW24074  10.225   8.003   0.759  0.5109  0.1007  0.2772
 4657SOL    HW124075  10.276   8.072   0.709 -0.5853 -1.4351 -3.1240
 4657SOL    HW224076  10.142   8.044   0.798  0.9505  1.1622  0.1053
 4658SOL     OW24077   1.583   9.948   0.211 -0.1359 -0.0723  0.3523
 4658SOL    HW124078   1.664   9.957   0.268  0.6099 -0.5397 -0.6253
 4658SOL    HW224079   1.579  10.024   0.146 -1.1739  0.6549  1.2493
 4659SOL     OW24080   0.490   9.542   0.341 -0.3428 -0.2220  0.0843
 4659SOL    HW124081   0.503   9.449   0.375  0.1679 -0.6685 -1.2959
 4659SOL    HW224082   0.562   9.602   0.377 -1.2993 -0.1224  1.8339
 4660SOL     OW24083   1.880   4.324   0.979  0.1606  0.2610  0.0391
 4660SOL    HW124084   1.909   4.237   1.019  0.6744  0.2799 -0.2887
 4660SOL    HW224085   1.921   4.335   0.888 -0.9423  0.2552 -0.4604
 4661SOL     OW24086   9.303   6.095   2.527  0.3029  0.3076  0.1538
 4661SOL    HW124087   9.264   6.040   2.453 -0.7180  0.0140  0.9039
 4661SOL    HW224088   9.402   6.079   2.532  0.2372 -0.3511 -0.5630
 4662SOL     OW24089   9.749   1.895   0.516  0.0139  0.2126  1.4269
 4662SOL    HW124090   9.759   1.887   0.615 -1.0672  2.7260  1.7654
 4662SOL    HW224091   9.757   1.990   0.489 -0.6156 -0.3371 -0.8021
 4663SOL     OW24092   8.864   7.885   1.699  0.2156 -0.6205 -0.1897
 4663SOL    HW124093   8.958   7.880   1.731  0.5748  0.1823 -1.1185
 4663SOL    HW224094   8.853   7.963   1.638 -1.5125  0.4714  1.4394
 4664SOL     OW24095   0.552   1.069   1.028  0.1122 -0.0507 -0.2704
 4664SOL    HW124096   0.518   1.063   0.935 -0.7982  0.4086  0.0238
 4664SOL    HW224097   0.588   0.980   1.057  1.8204  0.1892 -1.5780
 4665SOL     OW24098   9.083   3.762   2.182  0.3555  0.3712 -0.4508
 4665SOL    HW124099   9.047   3.771   2.275  1.6437  1.7956 -0.0740
 4665SOL    HW224100   9.182   3.754   2.186  0.3041 -1.1033 -1.6328
 4666SOL     OW24101   1.704   6.222   0.580 -0.0082  0.0393 -1.0401
 4666SOL    HW124102   1.638   6.202   0.653  1.8890 -1.8838  0.2312
 4666SOL    HW224103   1.740   6.314   0.591 -0.8353  0.2921 -0.4241
 4667SOL     OW24104   1.556   4.549   0.617 -0.5687  0.0424 -0.0459
 4667SOL    HW124105   1.606   4.634   0.605  1.2472 -1.1517 -1.2700
 4667SOL    HW224106   1.545   4.530   0.714  1.0302  0.5321  0.2377
 4668SOL     OW24107   9.570   0.779   1.868 -0.7147 -0.3257 -0.1208
 4668SOL    HW124108   9.498   0.781   1.937 -0.4396 -1.3186  0.1999
 4668SOL    HW224109   9.637   0.708   1.891 -0.1915 -0.1184 -0.9743
 4669SOL     OW24110   1.770   0.100   2.628 -0.4756  0.2019  0.5623
 4669SOL    HW124111   1.857   0.132   2.666 -0.6346  0.0285  1.0816
 4669SOL    HW224112   1.768  -0.000   2.627 -0.4770  0.2051  0.1036
 4670SOL     OW24113   9.385   6.211   0.672 -0.1804 -0.3747  0.1865
 4670SOL    HW124114   9.288   6.205   0.647 -0.3893 -0.1539  0.9323
 4670SOL    HW224115   9.393   6.227   0.770  0.6170 -0.3270  0.1168
 4671SOL     OW24116   1.329   8.519   2.473  0.2238 -0.6165  0.0736
 4671SOL    HW124117   1.271   8.600   2.479  0.8662 -0.0034 -1.6061
 4671SOL    HW224118   1.344   8.481   2.564  0.1167  1.2868  0.8971
 4672SOL     OW24119   9.991   8.136   0.855 -0.4331  0.0839  0.3567
 4672SOL    HW124120  10.037   8.225   0.864  2.4489 -1.1906 -1.2651
 4672SOL    HW224121   9.921   8.143   0.785  0.3545  0.8710 -0.3676
 4673SOL     OW24122   2.223   7.496   2.143  0.8703  0.0941 -0.5450
 4673SOL    HW124123   2.137   7.546   2.133  0.7426  0.2598  1.2930
 4673SOL    HW224124   2.214   7.407   2.099 -0.7562 -0.4710  0.8428
 4674SOL     OW24125   3.781   9.378   1.762 -0.2763  0.4421 -0.2197
 4674SOL    HW124126   3.720   9.457   1.772 -0.3267  0.4145 -0.3166
 4674SOL    HW224127   3.832   9.386   1.677  0.8324  1.1445  0.4910
 4675SOL     OW24128   3.541   9.100   1.102  0.3213  0.2834  0.3299
 4675SOL    HW124129   3.632   9.141   1.093  0.4152 -0.0883 -0.5058
 4675SOL    HW224130   3.507   9.075   1.012 -0.1787 -0.5109  0.7315
 4676SOL     OW24131   9.253   5.165   2.340  0.5331 -0.3044 -0.5633
 4676SOL    HW124132   9.343   5.203   2.359  0.1858  0.4896 -0.5132
 4676SOL    HW224133   9.257   5.065   2.347  1.5813 -0.3214 -1.3182
 4677SOL     OW24134  10.185   2.759   0.775 -0.3959  0.2057 -0.4554
 4677SOL    HW124135  10.105   2.819   0.777 -0.9952 -0.6017  0.3210
 4677SOL    HW224136  10.155   2.665   0.758  0.4312 -0.0494 -0.5111
 4678SOL     OW24137  10.258   4.522   1.230 -0.1419  0.4606 -0.0287
 4678SOL    HW124138  10.269   4.617   1.199  0.7602 -0.1929 -1.7231
 4678SOL    HW224139  10.342   4.492   1.275 -0.5054  0.5232  0.7023
 4679SOL     OW24140   1.666   9.834   2.592  0.2624 -1.0083 -0.0939
 4679SOL    HW124141   1.612   9.821   2.509  1.8110 -0.9539 -1.1203
 4679SOL    HW224142   1.623   9.785   2.667 -1.7683 -0.1370 -0.6554
 4680SOL     OW24143   9.228   4.189   2.271 -0.3279 -0.1884  0.2493
 4680SOL    HW124144   9.175   4.261   2.317  3.1129  3.0931 -0.6926
 4680SOL    HW224145   9.190   4.173   2.180 -0.8978  0.6872  0.3272
 4681SOL     OW24146   1.579   6.572   0.615  0.3917 -0.1293  0.2609
 4681SOL    HW124147   1.578   6.672   0.620 -2.1307 -0.1215  0.5122
 4681SOL    HW224148   1.668   6.541   0.583  0.8223  2.2550 -1.0082
 4682SOL     OW24149   2.209   9.914   0.239  0.2403  0.4421  0.2959
 4682SOL    HW124150   2.129   9.882   0.189  0.5776  0.2735 -0.1419
 4682SOL    HW224151   2.193   9.905   0.337 -0.3380  0.5598  0.2166
 4683SOL     OW24152   4.117   3.290   1.816  0.7105  0.0960  0.1178
 4683SOL    HW124153   4.178   3.358   1.777 -0.8633  1.9058  0.7388
 4683SOL    HW224154   4.132   3.285   1.915 -0.5163  0.9519  0.3543
 4684SOL     OW24155   9.669   6.149   0.465  0.5182 -0.5606  0.6339
 4684SOL    HW124156   9.621   6.089   0.401  1.2429 -1.2319  0.7045
 4684SOL    HW224157   9.705   6.228   0.416 -2.6599  1.1913  0.9778
 4685SOL     OW24158   3.484   1.400   1.427 -0.3190  0.2459  0.4433
 4685SOL    HW124159   3.456   1.335   1.498 -2.0836  1.8477  1.2672
 4685SOL    HW224160   3.528   1.479   1.470  1.3533 -0.1498 -0.5115
 4686SOL     OW24161   1.264   9.682   1.477  0.3306 -0.0835 -0.3268
 4686SOL    HW124162   1.229   9.666   1.385  2.2858 -1.2135 -0.9146
 4686SOL    HW224163   1.353   9.727   1.471  0.7461 -0.7062  0.9709
 4687SOL     OW24164   2.791   6.685   1.506 -0.0255  0.5115  1.0838
 4687SOL    HW124165   2.880   6.722   1.478 -0.6845  1.9261  0.8270
 4687SOL    HW224166   2.733   6.674   1.426  0.3533 -1.6502  1.0854
 4688SOL     OW24167   4.110   9.812   0.501  0.3258  0.0435  0.0678
 4688SOL    HW124168   4.134   9.904   0.471  0.0511  0.2241  0.4062
 4688SOL    HW224169   4.142   9.746   0.433  0.7532  0.3671 -0.0496
 4689SOL     OW24170   1.377   9.231   0.926  0.3665  0.3082  0.1997
 4689SOL    HW124171   1.353   9.203   0.833  1.3997  0.3965 -0.0954
 4689SOL    HW224172   1.347   9.325   0.942  2.6232  1.2601 -0.9779
 4690SOL     OW24173   0.700   9.923   2.564 -0.6621 -0.0722  0.4121
 4690SOL    HW124174   0.680   9.883   2.653  0.1969  2.6477  1.8878
 4690SOL    HW224175   0.757   9.860   2.511  0.2608 -0.9989  2.4626
 4691SOL     OW24176   2.233   4.958   0.082 -0.0772  0.2222 -0.4970
 4691SOL    HW124177   2.255   4.863   0.058 -0.4494  0.1376 -0.5131
 4691SOL    HW224178   2.134   4.970   0.081 -0.1191  0.1265  1.3344
 4692SOL     OW24179   0.750   9.114   0.157 -0.1129  0.1765  0.2490
 4692SOL    HW124180   0.661   9.157   0.139  0.1628  0.9635  0.7620
 4692SOL    HW224181   0.742   9.015   0.143 -1.6331 -0.0256  2.2802
  10.00000  10.00000   2.82000
