chitosan Film  in water:acetic acid 2%
13542
    1CHTO  H203    1   5.259   6.752   2.005
    1CHTO   O82    2   5.262   6.674   2.057
    1CHTO  C123    3   5.393   6.658   2.114
    1CHTO  H227    4   5.414   6.745   2.179
    1CHTO   O77    5   5.379   6.538   2.196
    1CHTO  C118    6   5.497   6.503   2.271
    1CHTO  H222    7   5.526   6.588   2.336
    1CHTO  C125    8   5.463   6.380   2.363
    1CHTO   O84    9   5.369   6.415   2.465
    1CHTO  H205   10   5.348   6.338   2.515
    1CHTO  C114   11   5.612   6.470   2.174
    1CHTO  H218   12   5.582   6.385   2.113
    1CHTO  C116   13   5.640   6.590   2.079
    1CHTO  H220   14   5.682   6.675   2.138
    1CHTO   O79   15   5.741   6.551   1.984
    1CHTO  H201   16   5.824   6.539   2.028
    1CHTO  C120   17   5.507   6.637   2.007
    1CHTO  H224   18   5.478   6.555   1.937
    1CHTO   N21   19   5.527   6.759   1.924
    1CHTO  H211   20   5.628   6.762   1.885
    1CHTO  H212   21   5.456   6.762   1.844
    1CHTO   O75   22   5.724   6.437   2.258
    1CHTO  C112   23   5.802   6.301   2.213
    1CHTO  H216   24   5.811   6.299   2.103
    1CHTO   O73   25   5.725   6.190   2.262
    1CHTO  C113   26   5.779   6.061   2.230
    1CHTO  H217   27   5.789   6.052   2.119
    1CHTO  C124   28   5.681   5.953   2.277
    1CHTO   O83   29   5.553   5.964   2.213
    1CHTO  H204   30   5.497   5.895   2.244
    1CHTO  C109   31   5.919   6.042   2.296
    1CHTO  H213   32   5.902   6.042   2.405
    1CHTO  C110   33   6.013   6.160   2.255
    1CHTO  H214   34   6.040   6.148   2.150
    1CHTO   O78   35   6.135   6.151   2.332
    1CHTO  H200   36   6.183   6.074   2.308
    1CHTO  C111   37   5.946   6.299   2.277
    1CHTO  H215   38   5.933   6.315   2.386
    1CHTO   N19   39   6.026   6.413   2.227
    1CHTO  H207   40   6.121   6.418   2.279
    1CHTO  H208   41   6.044   6.402   2.121
    1CHTO   O74   42   5.974   5.912   2.256
    1CHTO  C115   43   6.074   5.846   2.363
    1CHTO  H219   44   6.078   5.904   2.456
    1CHTO   O76   45   6.027   5.705   2.407
    1CHTO  C122   46   6.008   5.613   2.297
    1CHTO  H226   47   5.908   5.632   2.257
    1CHTO  C126   48   6.005   5.467   2.355
    1CHTO   O85   49   5.899   5.448   2.450
    1CHTO  H206   50   5.903   5.360   2.483
    1CHTO  C121   51   6.117   5.625   2.182
    1CHTO  H225   52   6.145   5.523   2.151
    1CHTO   O81   53   6.059   5.689   2.068
    1CHTO  H202   54   6.117   5.684   1.995
    1CHTO  C119   55   6.246   5.700   2.231
    1CHTO  H223   56   6.287   5.633   2.308
    1CHTO  C117   57   6.217   5.841   2.297
    1CHTO  H221   58   6.216   5.923   2.226
    1CHTO   N20   59   6.324   5.876   2.395
    1CHTO  H209   60   6.307   5.976   2.434
    1CHTO  H210   61   6.421   5.872   2.347
    1CHTO   O80   62   6.366   5.703   2.123
    1CHTO  C103   63   6.478   5.593   2.127
    1CHTO  H190   64   6.487   5.551   2.227
    1CHTO  C101   65   6.460   5.475   2.024
    1CHTO  H188   66   6.442   5.517   1.925
    1CHTO   O68   67   6.337   5.394   2.064
    1CHTO  H168   68   6.319   5.330   1.998
    1CHTO   C99   69   6.591   5.382   2.018
    1CHTO  H186   70   6.598   5.326   2.114
    1CHTO   N17   71   6.588   5.280   1.909
    1CHTO  H174   72   6.588   5.329   1.812
    1CHTO  H175   73   6.501   5.217   1.920
    1CHTO   C97   74   6.721   5.467   2.010
    1CHTO  H184   75   6.732   5.508   1.908
    1CHTO   O64   76   6.721   5.572   2.109
    1CHTO  C104   77   6.614   5.666   2.094
    1CHTO  H191   78   6.610   5.707   1.993
    1CHTO  C108   79   6.645   5.785   2.186
    1CHTO   O71   80   6.569   5.901   2.152
    1CHTO  H171   81   6.598   5.936   2.070
    1CHTO   O62   82   6.837   5.390   2.048
    1CHTO   C91   83   6.953   5.389   1.961
    1CHTO  H178   84   6.919   5.389   1.858
    1CHTO   C92   85   7.022   5.250   1.986
    1CHTO  H179   86   7.023   5.230   2.094
    1CHTO   O66   87   6.937   5.149   1.929
    1CHTO  H166   88   6.857   5.142   1.977
    1CHTO   C93   89   7.168   5.238   1.927
    1CHTO  H180   90   7.161   5.236   1.818
    1CHTO   N16   91   7.238   5.112   1.966
    1CHTO  H172   92   7.181   5.027   1.931
    1CHTO  H173   93   7.337   5.111   1.924
    1CHTO   C94   94   7.251   5.365   1.969
    1CHTO  H181   95   7.260   5.374   2.077
    1CHTO   O61   96   7.184   5.482   1.921
    1CHTO   C95   97   7.056   5.507   1.983
    1CHTO  H182   98   7.071   5.522   2.090
    1CHTO  C106   99   7.003   5.644   1.925
    1CHTO   O69  100   6.983   5.639   1.784
    1CHTO  H169  101   6.912   5.581   1.763
    1CHTO   O63  102   7.397   5.365   1.900
    1CHTO   C96  103   7.502   5.443   1.984
    1CHTO  H183  104   7.448   5.519   2.041
    1CHTO   C98  105   7.608   5.517   1.897
    1CHTO  H185  106   7.559   5.586   1.826
    1CHTO   O67  107   7.685   5.601   1.985
    1CHTO  H167  108   7.632   5.671   2.019
    1CHTO  C102  109   7.708   5.416   1.823
    1CHTO  H189  110   7.803   5.471   1.812
    1CHTO   N18  111   7.666   5.380   1.685
    1CHTO  H176  112   7.744   5.406   1.614
    1CHTO  H177  113   7.643   5.275   1.677
    1CHTO  C105  114   7.735   5.291   1.912
    1CHTO  H192  115   7.669   5.210   1.882
    1CHTO   O65  116   7.711   5.316   2.052
    1CHTO  C100  117   7.573   5.341   2.085
    1CHTO  H187  118   7.520   5.245   2.081
    1CHTO  C107  119   7.569   5.391   2.231
    1CHTO   O70  120   7.434   5.405   2.278
    1CHTO  H170  121   7.435   5.435   2.367
    1CHTO   O57  122   7.890   5.252   1.884
    1CHTO   C85  123   7.916   5.122   1.829
    1CHTO  H157  124   7.822   5.091   1.779
    1CHTO   C83  125   7.938   5.019   1.943
    1CHTO  H155  126   7.849   5.019   2.007
    1CHTO   O56  127   8.048   5.062   2.026
    1CHTO  H135  128   8.057   5.005   2.100
    1CHTO   C81  129   7.954   4.877   1.881
    1CHTO  H153  130   7.865   4.856   1.821
    1CHTO   N14  131   7.956   4.770   1.983
    1CHTO  H141  132   8.043   4.708   1.973
    1CHTO  H142  133   7.869   4.709   1.976
    1CHTO   C79  134   8.078   4.875   1.783
    1CHTO  H151  135   8.076   4.779   1.731
    1CHTO   O52  136   8.065   4.978   1.680
    1CHTO   C86  137   8.040   5.114   1.730
    1CHTO  H158  138   8.135   5.143   1.779
    1CHTO   C90  139   8.024   5.207   1.607
    1CHTO   O60  140   8.022   5.346   1.644
    1CHTO  H138  141   8.106   5.372   1.677
    1CHTO   O50  142   8.206   4.887   1.849
    1CHTO   C73  143   8.331   4.830   1.807
    1CHTO  H145  144   8.337   4.830   1.697
    1CHTO   C74  145   8.345   4.683   1.857
    1CHTO  H146  146   8.259   4.626   1.817
    1CHTO   O54  147   8.462   4.626   1.795
    1CHTO  H133  148   8.471   4.536   1.819
    1CHTO   C75  149   8.349   4.682   2.015
    1CHTO  H147  150   8.251   4.717   2.052
    1CHTO   N13  151   8.367   4.547   2.075
    1CHTO  H139  152   8.285   4.483   2.046
    1CHTO  H140  153   8.459   4.504   2.040
    1CHTO   C76  154   8.459   4.784   2.070
    1CHTO  H148  155   8.557   4.744   2.045
    1CHTO   O49  156   8.446   4.916   2.008
    1CHTO   C77  157   8.449   4.914   1.864
    1CHTO  H149  158   8.543   4.871   1.830
    1CHTO   C88  159   8.446   5.057   1.809
    1CHTO   O58  160   8.567   5.133   1.852
    1CHTO  H136  161   8.565   5.148   1.945
    1CHTO   O51  162   8.441   4.803   2.236
    1CHTO   C78  163   8.376   4.940   2.288
    1CHTO  H150  164   8.330   4.998   2.204
    1CHTO   C80  165   8.485   5.026   2.354
    1CHTO  H152  166   8.537   4.963   2.431
    1CHTO   O55  167   8.582   5.059   2.252
    1CHTO  H134  168   8.631   4.983   2.228
    1CHTO   C84  169   8.427   5.156   2.422
    1CHTO  H156  170   8.393   5.221   2.342
    1CHTO   N15  171   8.531   5.231   2.500
    1CHTO  H143  172   8.570   5.170   2.579
    1CHTO  H144  173   8.488   5.320   2.542
    1CHTO   C87  174   8.305   5.118   2.511
    1CHTO  H159  175   8.339   5.060   2.597
    1CHTO   O53  176   8.206   5.036   2.430
    1CHTO   C82  177   8.263   4.911   2.388
    1CHTO  H154  178   8.299   4.854   2.474
    1CHTO   C89  179   8.148   4.828   2.326
    1CHTO   O59  180   8.180   4.689   2.320
    1CHTO  H137  181   8.250   4.674   2.259
    1CHTO   O45  182   8.226   5.250   2.570
    1CHTO   C67  183   8.159   5.335   2.475
    1CHTO  H124  184   8.211   5.333   2.379
    1CHTO   C65  185   8.010   5.292   2.451
    1CHTO  H122  186   8.005   5.184   2.468
    1CHTO   O44  187   7.971   5.322   2.316
    1CHTO  H102  188   8.022   5.271   2.256
    1CHTO   C63  189   7.918   5.357   2.561
    1CHTO  H120  190   7.961   5.335   2.659
    1CHTO   N11  191   7.781   5.299   2.576
    1CHTO  H108  192   7.787   5.193   2.587
    1CHTO  H109  193   7.723   5.322   2.489
    1CHTO   C61  194   7.924   5.515   2.546
    1CHTO  H118  195   7.912   5.557   2.647
    1CHTO   O40  196   8.051   5.564   2.495
    1CHTO   C68  197   8.169   5.484   2.528
    1CHTO  H125  198   8.179   5.483   2.639
    1CHTO   C72  199   8.294   5.555   2.472
    1CHTO   O48  200   8.315   5.684   2.531
    1CHTO  H105  201   8.340   5.674   2.621
    1CHTO   O38  202   7.828   5.571   2.453
    1CHTO   C55  203   7.774   5.699   2.492
    1CHTO  H112  204   7.839   5.747   2.567
    1CHTO   C56  205   7.626   5.679   2.547
    1CHTO  H113  206   7.570   5.623   2.471
    1CHTO   O42  207   7.631   5.596   2.665
    1CHTO  H100  208   7.544   5.575   2.693
    1CHTO   C57  209   7.558   5.819   2.576
    1CHTO  H114  210   7.612   5.863   2.660
    1CHTO   N10  211   7.415   5.806   2.616
    1CHTO  H106  212   7.351   5.807   2.530
    1CHTO  H107  213   7.388   5.888   2.681
    1CHTO   C58  214   7.574   5.911   2.453
    1CHTO  H115  215   7.513   5.871   2.368
    1CHTO   O37  216   7.712   5.921   2.413
    1CHTO   C59  217   7.773   5.798   2.372
    1CHTO  H116  218   7.719   5.756   2.287
    1CHTO   C70  219   7.916   5.829   2.328
    1CHTO   O46  220   7.923   5.926   2.223
    1CHTO  H103  221   8.013   5.942   2.201
    1CHTO   O39  222   7.530   6.061   2.488
    1CHTO   C60  223   7.467   6.131   2.379
    1CHTO  H117  224   7.507   6.094   2.284
    1CHTO   C62  225   7.313   6.108   2.380
    1CHTO  H119  226   7.297   5.999   2.364
    1CHTO   O43  227   7.259   6.145   2.509
    1CHTO  H101  228   7.291   6.086   2.575
    1CHTO   C66  229   7.246   6.189   2.258
    1CHTO  H123  230   7.291   6.155   2.165
    1CHTO   N12  231   7.100   6.166   2.246
    1CHTO  H110  232   7.077   6.122   2.150
    1CHTO  H111  233   7.063   6.104   2.327
    1CHTO   C69  234   7.279   6.340   2.273
    1CHTO  H126  235   7.237   6.378   2.368
    1CHTO   O41  236   7.433   6.358   2.275
    1CHTO   C64  237   7.502   6.282   2.386
    1CHTO  H121  238   7.469   6.322   2.485
    1CHTO   C71  239   7.655   6.303   2.374
    1CHTO   O47  240   7.688   6.441   2.392
    1CHTO  H104  241   7.781   6.452   2.382
    1CHTO   O34  242   7.219   6.427   2.151
    1CHTO   C49  243   7.139   6.560   2.154
    1CHTO   H91  244   7.050   6.544   2.093
    1CHTO   C47  245   7.225   6.672   2.091
    1CHTO   H89  246   7.161   6.762   2.086
    1CHTO   O33  247   7.260   6.632   1.957
    1CHTO   H70  248   7.307   6.701   1.915
    1CHTO   C45  249   7.352   6.699   2.187
    1CHTO   H87  250   7.406   6.605   2.200
    1CHTO    N8  251   7.446   6.798   2.128
    1CHTO   H75  252   7.398   6.894   2.117
    1CHTO   H76  253   7.480   6.764   2.032
    1CHTO   C43  254   7.301   6.740   2.334
    1CHTO   H85  255   7.390   6.743   2.397
    1CHTO   O29  256   7.204   6.645   2.384
    1CHTO   C50  257   7.097   6.601   2.298
    1CHTO   H92  258   7.053   6.511   2.345
    1CHTO   C54  259   6.979   6.702   2.301
    1CHTO   O36  260   6.864   6.654   2.231
    1CHTO   H72  261   6.882   6.649   2.139
    1CHTO   O27  262   7.244   6.873   2.340
    1CHTO   C37  263   7.261   6.986   2.427
    1CHTO   H79  264   7.308   6.954   2.521
    1CHTO   C38  265   7.359   7.091   2.363
    1CHTO   H80  266   7.333   7.101   2.256
    1CHTO   O31  267   7.492   7.037   2.373
    1CHTO   H68  268   7.502   6.963   2.317
    1CHTO   C39  269   7.348   7.233   2.432
    1CHTO   H81  270   7.383   7.223   2.534
    1CHTO    N7  271   7.434   7.337   2.366
    1CHTO   H73  272   7.424   7.431   2.418
    1CHTO   H74  273   7.404   7.350   2.263
    1CHTO   C40  274   7.197   7.275   2.436
    1CHTO   H82  275   7.157   7.278   2.335
    1CHTO   O26  276   7.128   7.179   2.518
    1CHTO   C41  277   7.121   7.046   2.459
    1CHTO   H83  278   7.062   7.051   2.366
    1CHTO   C52  279   7.043   6.958   2.559
    1CHTO   O35  280   7.109   6.948   2.695
    1CHTO   H71  281   7.191   6.903   2.687
    1CHTO   O28  282   7.170   7.400   2.503
    1CHTO   C42  283   7.095   7.508   2.438
    1CHTO   H84  284   7.107   7.492   2.331
    1CHTO   C44  285   7.150   7.651   2.468
    1CHTO   H86  286   7.150   7.666   2.576
    1CHTO   O32  287   7.287   7.652   2.423
    1CHTO   H69  288   7.328   7.733   2.447
    1CHTO   C48  289   7.065   7.766   2.400
    1CHTO   H90  290   7.080   7.760   2.292
    1CHTO    N9  291   7.112   7.903   2.441
    1CHTO   H77  292   7.215   7.917   2.409
    1CHTO   H78  293   7.104   7.915   2.548
    1CHTO   C51  294   6.911   7.745   2.431
    1CHTO   H93  295   6.899   7.758   2.539
    1CHTO   O30  296   6.874   7.613   2.390
    1CHTO   C46  297   6.941   7.504   2.468
    1CHTO   H88  298   6.925   7.522   2.574
    1CHTO   C53  299   6.874   7.372   2.426
    1CHTO   O72  300   6.736   7.371   2.463
    1CHTO  H199  301   6.697   7.289   2.437
    1CHTO   O22  302   6.824   7.838   2.363
    1CHTO   C31  303   6.770   7.834   2.224
    1CHTO   H59  304   6.713   7.929   2.212
    1CHTO   C29  305   6.877   7.832   2.112
    1CHTO   H57  306   6.937   7.740   2.124
    1CHTO   O21  307   6.965   7.944   2.132
    1CHTO   H37  308   7.014   7.933   2.211
    1CHTO   C27  309   6.811   7.833   1.969
    1CHTO   H55  310   6.757   7.928   1.956
    1CHTO    N5  311   6.911   7.822   1.860
    1CHTO   H43  312   6.962   7.726   1.865
    1CHTO   H44  313   6.863   7.833   1.764
    1CHTO   C25  314   6.703   7.719   1.960
    1CHTO   H53  315   6.753   7.621   1.967
    1CHTO   O17  316   6.607   7.731   2.069
    1CHTO   C32  317   6.666   7.719   2.200
    1CHTO   H60  318   6.717   7.623   2.206
    1CHTO   C36  319   6.552   7.719   2.305
    1CHTO   O25  320   6.474   7.839   2.301
    1CHTO   H40  321   6.407   7.835   2.366
    1CHTO   O15  322   6.620   7.725   1.828
    1CHTO   C19  323   6.590   7.687   1.691
    1CHTO   H47  324   6.483   7.709   1.682
    1CHTO   C20  325   6.666   7.767   1.581
    1CHTO   H48  326   6.775   7.752   1.587
    1CHTO   O19  327   6.639   7.906   1.603
    1CHTO   H35  328   6.548   7.925   1.591
    1CHTO   C21  329   6.619   7.722   1.436
    1CHTO   H49  330   6.515   7.751   1.423
    1CHTO    N4  331   6.694   7.788   1.326
    1CHTO   H41  332   6.680   7.895   1.331
    1CHTO   H42  333   6.800   7.766   1.334
    1CHTO   C22  334   6.624   7.567   1.425
    1CHTO   H50  335   6.729   7.534   1.422
    1CHTO   O14  336   6.556   7.504   1.534
    1CHTO   C23  337   6.606   7.535   1.665
    1CHTO   H51  338   6.711   7.503   1.668
    1CHTO   C34  339   6.530   7.448   1.767
    1CHTO   O23  340   6.388   7.468   1.763
    1CHTO   H38  341   6.353   7.436   1.681
    1CHTO   O16  342   6.550   7.517   1.311
    1CHTO   C24  343   6.634   7.422   1.211
    1CHTO   H52  344   6.741   7.439   1.220
    1CHTO   C26  345   6.589   7.453   1.067
    1CHTO   H54  346   6.478   7.441   1.061
    1CHTO   O20  347   6.619   7.590   1.036
    1CHTO   H36  348   6.712   7.605   1.038
    1CHTO   C30  349   6.654   7.354   0.963
    1CHTO   H58  350   6.761   7.376   0.954
    1CHTO    N6  351   6.597   7.373   0.827
    1CHTO   H45  352   6.644   7.305   0.757
    1CHTO   H46  353   6.614   7.474   0.793
    1CHTO   C33  354   6.642   7.207   1.011
    1CHTO   H61  355   6.537   7.173   1.006
    1CHTO   O18  356   6.685   7.198   1.148
    1CHTO   C28  357   6.609   7.273   1.243
    1CHTO   H56  358   6.502   7.251   1.233
    1CHTO   C35  359   6.656   7.233   1.384
    1CHTO   O24  360   6.640   7.093   1.413
    1CHTO   H39  361   6.699   7.043   1.359
    1CHTO    O9  362   6.715   7.116   0.926
    1CHTO   C13  363   6.708   6.958   0.975
    1CHTO   H26  364   6.604   6.936   1.005
    1CHTO   C11  365   6.810   6.933   1.094
    1CHTO   H24  366   6.764   6.971   1.187
    1CHTO    O8  367   6.931   7.007   1.071
    1CHTO    H3  368   6.988   7.001   1.145
    1CHTO    C9  369   6.835   6.781   1.108
    1CHTO   H22  370   6.735   6.735   1.114
    1CHTO    N2  371   6.900   6.743   1.237
    1CHTO   H10  372   6.999   6.784   1.241
    1CHTO   H11  373   6.840   6.779   1.320
    1CHTO    C7  374   6.907   6.728   0.977
    1CHTO   H20  375   6.868   6.625   0.965
    1CHTO    O4  376   6.873   6.805   0.859
    1CHTO   C14  377   6.738   6.857   0.854
    1CHTO   H27  378   6.668   6.771   0.861
    1CHTO   C18  379   6.718   6.921   0.715
    1CHTO   O13  380   6.582   6.963   0.695
    1CHTO    H7  381   6.526   6.889   0.688
    1CHTO    O2  382   7.069   6.724   0.988
    1CHTO    C1  383   7.128   6.600   0.947
    1CHTO   H14  384   7.062   6.549   0.874
    1CHTO    C2  385   7.154   6.502   1.070
    1CHTO   H15  386   7.200   6.563   1.148
    1CHTO    O6  387   7.028   6.452   1.118
    1CHTO    H1  388   6.978   6.522   1.156
    1CHTO    C3  389   7.251   6.379   1.032
    1CHTO   H16  390   7.196   6.310   0.967
    1CHTO    N1  391   7.294   6.302   1.153
    1CHTO    H8  392   7.252   6.343   1.243
    1CHTO    H9  393   7.265   6.198   1.143
    1CHTO    C4  394   7.373   6.430   0.946
    1CHTO   H17  395   7.438   6.492   1.010
    1CHTO    O1  396   7.325   6.506   0.834
    1CHTO    C5  397   7.262   6.630   0.872
    1CHTO   H18  398   7.327   6.687   0.937
    1CHTO   C16  399   7.240   6.709   0.740
    1CHTO   O11  400   7.197   6.844   0.764
    1CHTO    H5  401   7.110   6.844   0.800
    1CHTO    O3  402   7.449   6.320   0.893
    1CHTO    C6  403   7.562   6.349   0.803
    1CHTO   H19  404   7.545   6.438   0.742
    1CHTO    C8  405   7.695   6.370   0.882
    1CHTO   H21  406   7.707   6.288   0.952
    1CHTO    O7  407   7.682   6.494   0.954
    1CHTO    H2  408   7.757   6.508   1.009
    1CHTO   C12  409   7.820   6.373   0.784
    1CHTO   H25  410   7.811   6.466   0.724
    1CHTO    N3  411   7.949   6.383   0.861
    1CHTO   H12  412   8.032   6.384   0.793
    1CHTO   H13  413   7.948   6.472   0.922
    1CHTO   C15  414   7.815   6.249   0.687
    1CHTO   H28  415   7.832   6.155   0.740
    1CHTO   O10  416   7.915   6.260   0.570
    1CHTO    H4  417   8.002   6.260   0.603
    1CHTO    O5  418   7.689   6.245   0.618
    1CHTO   C10  419   7.576   6.229   0.704
    1CHTO   H23  420   7.590   6.137   0.762
    1CHTO   C17  421   7.451   6.208   0.618
    1CHTO   O12  422   7.427   6.319   0.530
    1CHTO    H6  423   7.351   6.301   0.477
    2CHTO  H203  424   6.651   4.515   2.094
    2CHTO   O82  425   6.618   4.451   2.154
    2CHTO  C123  426   6.506   4.504   2.227
    2CHTO  H227  427   6.533   4.605   2.264
    2CHTO   O77  428   6.401   4.514   2.126
    2CHTO  C118  429   6.282   4.579   2.175
    2CHTO  H222  430   6.310   4.678   2.216
    2CHTO  C125  431   6.184   4.600   2.054
    2CHTO   O84  432   6.140   4.477   1.997
    2CHTO  H205  433   6.082   4.494   1.925
    2CHTO  C114  434   6.219   4.494   2.288
    2CHTO  H218  435   6.190   4.398   2.246
    2CHTO  C116  436   6.322   4.466   2.402
    2CHTO  H220  437   6.340   4.560   2.459
    2CHTO   O79  438   6.260   4.374   2.495
    2CHTO  H201  439   6.317   4.359   2.568
    2CHTO  C120  440   6.458   4.410   2.344
    2CHTO  H224  441   6.437   4.309   2.304
    2CHTO   N21  442   6.560   4.395   2.451
    2CHTO  H211  443   6.617   4.487   2.463
    2CHTO  H212  444   6.627   4.313   2.427
    2CHTO   O75  445   6.104   4.569   2.331
    2CHTO  C112  446   5.975   4.474   2.360
    2CHTO  H216  447   6.005   4.391   2.426
    2CHTO   O73  448   5.927   4.427   2.233
    2CHTO  C113  449   5.818   4.334   2.243
    2CHTO  H217  450   5.848   4.249   2.308
    2CHTO  C124  451   5.792   4.278   2.103
    2CHTO   O83  452   5.904   4.205   2.050
    2CHTO  H204  453   5.883   4.172   1.965
    2CHTO  C109  454   5.694   4.405   2.303
    2CHTO  H213  455   5.665   4.484   2.232
    2CHTO  C110  456   5.730   4.469   2.441
    2CHTO  H214  457   5.745   4.388   2.513
    2CHTO   O78  458   5.617   4.546   2.487
    2CHTO  H200  459   5.600   4.617   2.429
    2CHTO  C111  460   5.860   4.555   2.432
    2CHTO  H215  461   5.838   4.644   2.370
    2CHTO   N19  462   5.906   4.606   2.563
    2CHTO  H207  463   5.926   4.524   2.630
    2CHTO  H208  464   5.832   4.671   2.607
    2CHTO   O74  465   5.583   4.311   2.318
    2CHTO  C115  466   5.453   4.354   2.238
    2CHTO  H219  467   5.440   4.463   2.239
    2CHTO   O76  468   5.464   4.315   2.081
    2CHTO  C122  469   5.412   4.185   2.050
    2CHTO  H226  470   5.473   4.112   2.103
    2CHTO  C126  471   5.437   4.158   1.897
    2CHTO   O85  472   5.398   4.026   1.858
    2CHTO  H206  473   5.455   3.962   1.896
    2CHTO  C121  474   5.259   4.170   2.089
    2CHTO  H225  475   5.197   4.183   1.998
    2CHTO   O81  476   5.234   4.038   2.139
    2CHTO  H202  477   5.284   4.023   2.218
    2CHTO  C119  478   5.217   4.278   2.193
    2CHTO  H223  479   5.220   4.373   2.139
    2CHTO  C117  480   5.326   4.288   2.306
    2CHTO  H221  481   5.361   4.193   2.346
    2CHTO   N20  482   5.283   4.368   2.425
    2CHTO  H209  483   5.182   4.405   2.412
    2CHTO  H210  484   5.290   4.309   2.515
    2CHTO   O80  485   5.065   4.271   2.232
    2CHTO  C103  486   4.967   4.382   2.180
    2CHTO  H190  487   5.006   4.481   2.206
    2CHTO  C101  488   4.935   4.380   2.025
    2CHTO  H188  489   4.904   4.279   1.997
    2CHTO   O68  490   5.064   4.417   1.946
    2CHTO  H168  491   5.048   4.407   1.854
    2CHTO   C99  492   4.815   4.481   1.991
    2CHTO  H186  493   4.848   4.585   2.012
    2CHTO   N17  494   4.772   4.478   1.847
    2CHTO  H174  495   4.733   4.380   1.822
    2CHTO  H175  496   4.856   4.503   1.783
    2CHTO   C97  497   4.695   4.455   2.086
    2CHTO  H184  498   4.654   4.356   2.062
    2CHTO   O64  499   4.738   4.463   2.224
    2CHTO  C104  500   4.834   4.362   2.261
    2CHTO  H191  501   4.795   4.262   2.241
    2CHTO  C108  502   4.857   4.369   2.413
    2CHTO   O71  503   4.905   4.497   2.456
    2CHTO  H171  504   4.838   4.562   2.446
    2CHTO   O62  505   4.592   4.556   2.074
    2CHTO   C91  506   4.467   4.527   2.139
    2CHTO  H178  507   4.479   4.437   2.200
    2CHTO   C92  508   4.359   4.490   2.031
    2CHTO  H179  509   4.400   4.414   1.962
    2CHTO   O66  510   4.249   4.424   2.097
    2CHTO  H166  511   4.210   4.481   2.161
    2CHTO   C93  512   4.302   4.616   1.954
    2CHTO  H180  513   4.203   4.587   1.915
    2CHTO   N16  514   4.383   4.652   1.835
    2CHTO  H172  515   4.321   4.652   1.746
    2CHTO  H173  516   4.432   4.747   1.847
    2CHTO   C94  517   4.284   4.738   2.053
    2CHTO  H181  518   4.364   4.812   2.042
    2CHTO   O61  519   4.287   4.697   2.191
    2CHTO   C95  520   4.416   4.646   2.232
    2CHTO  H182  521   4.488   4.727   2.228
    2CHTO  C106  522   4.405   4.604   2.382
    2CHTO   O69  523   4.533   4.566   2.435
    2CHTO  H169  524   4.524   4.542   2.525
    2CHTO   O63  525   4.146   4.805   2.027
    2CHTO   C96  526   4.143   4.955   2.076
    2CHTO  H183  527   4.243   4.984   2.108
    2CHTO   C98  528   4.046   4.983   2.195
    2CHTO  H185  529   3.946   4.946   2.171
    2CHTO   O67  530   4.092   4.904   2.306
    2CHTO  H167  531   4.032   4.913   2.378
    2CHTO  C102  532   4.041   5.140   2.232
    2CHTO  H189  533   4.141   5.165   2.271
    2CHTO   N18  534   3.945   5.176   2.339
    2CHTO  H176  535   3.972   5.125   2.431
    2CHTO  H177  536   3.845   5.149   2.310
    2CHTO  C105  537   4.018   5.222   2.102
    2CHTO  H192  538   3.917   5.204   2.065
    2CHTO   O65  539   4.111   5.185   1.998
    2CHTO  C100  540   4.104   5.049   1.956
    2CHTO  H187  541   4.001   5.026   1.924
    2CHTO  C107  542   4.197   5.029   1.834
    2CHTO   O70  543   4.155   5.109   1.723
    2CHTO  H170  544   4.214   5.098   1.652
    2CHTO   O57  545   4.038   5.381   2.137
    2CHTO   C85  546   3.990   5.478   2.042
    2CHTO  H157  547   3.892   5.441   2.007
    2CHTO   C83  548   4.082   5.482   1.916
    2CHTO  H155  549   4.080   5.383   1.870
    2CHTO   O56  550   4.219   5.504   1.957
    2CHTO  H135  551   4.229   5.590   1.994
    2CHTO   C81  552   4.026   5.585   1.815
    2CHTO  H153  553   3.924   5.557   1.792
    2CHTO   N14  554   4.097   5.579   1.684
    2CHTO  H141  555   4.030   5.545   1.607
    2CHTO  H142  556   4.135   5.674   1.656
    2CHTO   C79  557   4.024   5.728   1.881
    2CHTO  H151  558   3.975   5.795   1.809
    2CHTO   O52  559   3.941   5.726   2.001
    2CHTO   C86  560   3.979   5.625   2.100
    2CHTO  H158  561   4.078   5.659   2.139
    2CHTO   C90  562   3.883   5.628   2.221
    2CHTO   O60  563   3.893   5.753   2.291
    2CHTO  H138  564   3.975   5.758   2.336
    2CHTO   O50  565   4.154   5.781   1.912
    2CHTO   C73  566   4.222   5.905   1.936
    2CHTO  H145  567   4.160   5.971   1.998
    2CHTO   C74  568   4.256   5.977   1.802
    2CHTO  H146  569   4.161   5.995   1.750
    2CHTO   O54  570   4.311   6.106   1.834
    2CHTO  H133  571   4.327   6.154   1.755
    2CHTO   C75  572   4.352   5.885   1.717
    2CHTO  H147  573   4.298   5.793   1.691
    2CHTO   N13  574   4.393   5.944   1.587
    2CHTO  H139  575   4.447   6.036   1.603
    2CHTO  H140  576   4.456   5.875   1.533
    2CHTO   C76  577   4.479   5.841   1.806
    2CHTO  H148  578   4.543   5.928   1.821
    2CHTO   O49  579   4.437   5.788   1.936
    2CHTO   C77  580   4.354   5.876   2.013
    2CHTO  H149  581   4.406   5.970   2.032
    2CHTO   C88  582   4.331   5.812   2.151
    2CHTO   O58  583   4.252   5.901   2.241
    2CHTO  H136  584   4.164   5.910   2.208
    2CHTO   O51  585   4.557   5.718   1.730
    2CHTO   C78  586   4.649   5.628   1.826
    2CHTO  H150  587   4.608   5.623   1.929
    2CHTO   C80  588   4.792   5.682   1.831
    2CHTO  H152  589   4.835   5.683   1.728
    2CHTO   O55  590   4.785   5.818   1.879
    2CHTO  H134  591   4.745   5.873   1.815
    2CHTO   C84  592   4.882   5.592   1.925
    2CHTO  H156  593   4.841   5.601   2.026
    2CHTO   N15  594   5.025   5.639   1.931
    2CHTO  H143  595   5.028   5.740   1.968
    2CHTO  H144  596   5.081   5.576   1.997
    2CHTO   C87  597   4.874   5.444   1.882
    2CHTO  H159  598   4.929   5.428   1.789
    2CHTO   O53  599   4.723   5.400   1.861
    2CHTO   C82  600   4.648   5.484   1.772
    2CHTO  H154  601   4.690   5.480   1.672
    2CHTO   C89  602   4.503   5.431   1.763
    2CHTO   O59  603   4.499   5.299   1.706
    2CHTO  H137  604   4.410   5.270   1.703
    2CHTO   O45  605   4.943   5.344   2.000
    2CHTO   C67  606   4.855   5.303   2.106
    2CHTO  H124  607   4.765   5.364   2.104
    2CHTO   C65  608   4.814   5.152   2.088
    2CHTO  H122  609   4.893   5.105   2.030
    2CHTO   O44  610   4.692   5.151   2.010
    2CHTO  H102  611   4.708   5.184   1.924
    2CHTO   C63  612   4.812   5.071   2.224
    2CHTO  H120  613   4.915   5.052   2.254
    2CHTO   N11  614   4.757   4.931   2.217
    2CHTO  H108  615   4.806   4.877   2.139
    2CHTO  H109  616   4.772   4.882   2.311
    2CHTO   C61  617   4.749   5.162   2.336
    2CHTO  H118  618   4.756   5.105   2.430
    2CHTO   O40  619   4.825   5.285   2.355
    2CHTO   C68  620   4.918   5.327   2.250
    2CHTO  H125  621   5.013   5.269   2.260
    2CHTO   C72  622   4.953   5.475   2.274
    2CHTO   O48  623   5.015   5.499   2.401
    2CHTO  H105  624   5.101   5.461   2.401
    2CHTO   O38  625   4.610   5.194   2.308
    2CHTO   C55  626   4.539   5.272   2.407
    2CHTO  H112  627   4.609   5.338   2.460
    2CHTO   C56  628   4.460   5.178   2.507
    2CHTO  H113  629   4.394   5.113   2.446
    2CHTO   O42  630   4.551   5.090   2.576
    2CHTO  H100  631   4.591   5.031   2.515
    2CHTO   C57  632   4.375   5.265   2.608
    2CHTO  H114  633   4.446   5.318   2.671
    2CHTO   N10  634   4.289   5.183   2.698
    2CHTO  H106  635   4.344   5.155   2.786
    2CHTO  H107  636   4.201   5.237   2.727
    2CHTO   C58  637   4.290   5.369   2.530
    2CHTO  H115  638   4.209   5.317   2.474
    2CHTO   O37  639   4.370   5.445   2.437
    2CHTO   C59  640   4.437   5.366   2.337
    2CHTO  H116  641   4.364   5.308   2.281
    2CHTO   C70  642   4.506   5.461   2.237
    2CHTO   O46  643   4.601   5.549   2.297
    2CHTO  H103  644   4.639   5.604   2.231
    2CHTO   O39  645   4.227   5.481   2.632
    2CHTO   C60  646   4.090   5.514   2.605
    2CHTO  H117  647   4.072   5.510   2.498
    2CHTO   C62  648   3.994   5.412   2.675
    2CHTO  H119  649   4.020   5.312   2.633
    2CHTO   O43  650   4.021   5.410   2.816
    2CHTO  H101  651   3.969   5.344   0.000
    2CHTO   C66  652   3.842   5.447   2.638
    2CHTO  H123  653   3.832   5.449   2.530
    2CHTO   N12  654   3.748   5.342   2.687
    2CHTO  H110  655   3.692   5.301   2.604
    2CHTO  H111  656   3.683   5.381   2.764
    2CHTO   C69  657   3.809   5.589   2.691
    2CHTO  H126  658   3.819   5.593   2.802
    2CHTO   O41  659   3.910   5.692   2.626
    2CHTO   C64  660   4.059   5.659   2.651
    2CHTO  H121  661   4.082   5.670   2.759
    2CHTO   C71  662   4.142   5.765   2.573
    2CHTO   O47  663   4.282   5.759   2.605
    2CHTO  H104  664   4.295   5.787   2.694
    2CHTO   O34  665   3.665   5.631   2.653
    2CHTO   C49  666   3.563   5.736   2.687
    2CHTO   H91  667   3.488   5.688   2.750
    2CHTO   C47  668   3.498   5.784   2.555
    2CHTO   H89  669   3.414   5.851   2.583
    2CHTO   O33  670   3.445   5.670   2.486
    2CHTO   H70  671   3.373   5.634   2.533
    2CHTO   C45  672   3.608   5.866   2.471
    2CHTO   H87  673   3.698   5.802   2.460
    2CHTO    N8  674   3.562   5.903   2.334
    2CHTO   H75  675   3.459   5.877   2.320
    2CHTO   H76  676   3.575   6.009   2.317
    2CHTO   C43  677   3.656   5.992   2.559
    2CHTO   H85  678   3.733   6.043   2.501
    2CHTO   O29  679   3.707   5.946   2.686
    2CHTO   C50  680   3.626   5.856   2.764
    2CHTO   H92  681   3.692   5.813   2.842
    2CHTO   C54  682   3.519   5.932   2.848
    2CHTO   O36  683   3.580   6.024   0.081
    2CHTO   H72  684   3.514   6.067   0.132
    2CHTO   O27  685   3.550   6.087   2.579
    2CHTO   C37  686   3.506   6.219   2.546
    2CHTO   H79  687   3.555   6.253   2.453
    2CHTO   C38  688   3.352   6.220   2.519
    2CHTO   H80  689   3.302   6.171   2.604
    2CHTO   O31  690   3.327   6.142   2.401
    2CHTO   H68  691   3.368   6.181   2.326
    2CHTO   C39  692   3.295   6.367   2.503
    2CHTO   H81  693   3.334   6.406   2.409
    2CHTO    N7  694   3.145   6.371   2.494
    2CHTO   H73  695   3.101   6.332   2.585
    2CHTO   H74  696   3.112   6.473   2.477
    2CHTO   C40  697   3.349   6.461   2.618
    2CHTO   H82  698   3.301   6.433   2.712
    2CHTO   O26  699   3.492   6.451   2.626
    2CHTO   C41  700   3.540   6.318   2.661
    2CHTO   H83  701   3.491   6.284   2.753
    2CHTO   C52  702   3.692   6.327   2.690
    2CHTO   O35  703   3.770   6.377   2.576
    2CHTO   H71  704   3.861   6.379   2.598
    2CHTO   O28  705   3.320   6.600   2.591
    2CHTO   C42  706   3.349   6.709   2.685
    2CHTO   H84  707   3.296   6.794   2.642
    2CHTO   C44  708   3.500   6.752   2.694
    2CHTO   H86  709   3.559   6.666   2.726
    2CHTO   O32  710   3.539   6.788   2.560
    2CHTO   H69  711   3.631   6.806   2.557
    2CHTO   C48  712   3.523   6.869   2.798
    2CHTO   H90  713   3.472   6.958   2.762
    2CHTO    N9  714   3.668   6.907   2.809
    2CHTO   H77  715   3.727   6.821   2.841
    2CHTO   H78  716   3.704   6.943   2.714
    2CHTO   C51  717   3.461   6.827   0.078
    2CHTO   H93  718   3.512   6.737   0.113
    2CHTO   O30  719   3.321   6.805   0.059
    2CHTO   C46  720   3.291   6.685   2.828
    2CHTO   H88  721   3.336   6.596   0.014
    2CHTO   C53  722   3.137   6.668   2.822
    2CHTO   O72  723   3.084   6.637   0.093
    2CHTO  H199  724   2.990   6.630   0.088
    2CHTO   O22  725   3.467   6.931   0.178
    2CHTO   C31  726   3.474   6.902   0.323
    2CHTO   H59  727   3.457   6.999   0.374
    2CHTO   C29  728   3.367   6.803   0.375
    2CHTO   H57  729   3.380   6.708   0.321
    2CHTO   O21  730   3.237   6.854   0.340
    2CHTO   H37  731   3.226   6.856   0.246
    2CHTO   C27  732   3.379   6.777   0.531
    2CHTO   H55  733   3.352   6.870   0.584
    2CHTO    N5  734   3.289   6.669   0.577
    2CHTO   H43  735   3.315   6.576   0.529
    2CHTO   H44  736   3.186   6.695   0.556
    2CHTO   C25  737   3.528   6.745   0.570
    2CHTO   H53  738   3.554   6.645   0.533
    2CHTO   O17  739   3.621   6.842   0.512
    2CHTO   C32  740   3.616   6.854   0.369
    2CHTO   H60  741   3.637   6.757   0.323
    2CHTO   C36  742   3.725   6.954   0.326
    2CHTO   O25  743   3.856   6.902   0.351
    2CHTO   H40  744   3.875   6.833   0.291
    2CHTO   O15  745   3.550   6.750   0.726
    2CHTO   C19  746   3.500   6.716   0.858
    2CHTO   H47  747   3.391   6.716   0.846
    2CHTO   C20  748   3.544   6.577   0.912
    2CHTO   H48  749   3.653   6.570   0.924
    2CHTO   O19  750   3.504   6.480   0.813
    2CHTO   H35  751   3.535   6.394   0.837
    2CHTO   C21  752   3.476   6.546   1.052
    2CHTO   H49  753   3.369   6.533   1.036
    2CHTO    N4  754   3.523   6.419   1.113
    2CHTO   H41  755   3.472   6.402   1.207
    2CHTO   H42  756   3.630   6.424   1.131
    2CHTO   C22  757   3.493   6.667   1.148
    2CHTO   H50  758   3.598   6.673   1.180
    2CHTO   O14  759   3.456   6.791   1.084
    2CHTO   C23  760   3.531   6.824   0.966
    2CHTO   H51  761   3.637   6.827   0.992
    2CHTO   C34  762   3.487   6.965   0.924
    2CHTO   O23  763   3.571   7.018   0.821
    2CHTO   H38  764   3.541   7.104   0.796
    2CHTO   O16  765   3.405   6.657   1.261
    2CHTO   C24  766   3.447   6.753   1.384
    2CHTO   H52  767   3.521   6.826   1.354
    2CHTO   C26  768   3.504   6.665   1.497
    2CHTO   H54  769   3.428   6.588   1.524
    2CHTO   O20  770   3.621   6.597   1.445
    2CHTO   H36  771   3.652   6.535   1.508
    2CHTO   C30  772   3.537   6.750   1.623
    2CHTO   H58  773   3.623   6.815   1.602
    2CHTO    N6  774   3.578   6.664   1.738
    2CHTO   H45  775   3.603   6.726   1.823
    2CHTO   H46  776   3.497   6.598   1.765
    2CHTO   C33  777   3.419   6.845   1.661
    2CHTO   H61  778   3.336   6.786   1.703
    2CHTO   O18  779   3.370   6.915   1.545
    2CHTO   C28  780   3.325   6.831   1.437
    2CHTO   H56  781   3.250   6.761   1.473
    2CHTO   C35  782   3.262   6.923   1.329
    2CHTO   O24  783   3.192   6.850   1.227
    2CHTO   H39  784   3.253   6.803   1.174
    2CHTO    O9  785   3.459   6.937   1.765
    2CHTO   C13  786   3.349   6.970   1.881
    2CHTO   H26  787   3.267   6.897   1.874
    2CHTO   C11  788   3.299   7.118   1.861
    2CHTO   H24  789   3.234   7.119   1.772
    2CHTO    O8  790   3.411   7.204   1.835
    2CHTO    H3  791   3.381   7.290   1.811
    2CHTO    C9  792   3.214   7.163   1.984
    2CHTO   H22  793   3.131   7.091   1.990
    2CHTO    N2  794   3.150   7.295   1.967
    2CHTO   H10  795   3.225   7.373   1.963
    2CHTO   H11  796   3.081   7.313   2.048
    2CHTO    C7  797   3.300   7.150   2.114
    2CHTO   H20  798   3.229   7.173   2.196
    2CHTO    O4  799   3.348   7.016   2.133
    2CHTO   C14  800   3.414   6.946   2.025
    2CHTO   H27  801   3.403   6.838   2.047
    2CHTO   C18  802   3.567   6.976   2.029
    2CHTO   O13  803   3.628   6.924   2.147
    2CHTO    H7  804   3.629   6.831   2.144
    2CHTO    O2  805   3.430   7.256   2.119
    2CHTO    C1  806   3.424   7.353   2.226
    2CHTO   H14  807   3.327   7.346   2.279
    2CHTO    C2  808   3.443   7.502   2.176
    2CHTO   H15  809   3.536   7.504   2.118
    2CHTO    O6  810   3.333   7.538   2.090
    2CHTO    H1  811   3.252   7.535   2.138
    2CHTO    C3  812   3.457   7.603   2.300
    2CHTO   H16  813   3.362   7.604   2.357
    2CHTO    N1  814   3.482   7.745   2.257
    2CHTO    H8  815   3.486   7.753   2.149
    2CHTO    H9  816   3.575   7.783   2.298
    2CHTO    C4  817   3.566   7.548   2.399
    2CHTO   H17  818   3.663   7.551   2.349
    2CHTO    O1  819   3.534   7.414   2.438
    2CHTO    C5  820   3.534   7.318   2.331
    2CHTO   H18  821   3.631   7.322   2.281
    2CHTO   C16  822   3.516   7.177   2.394
    2CHTO   O11  823   3.392   7.164   2.464
    2CHTO    H5  824   3.384   7.077   2.498
    2CHTO    O3  825   3.570   7.622   2.523
    2CHTO    C6  826   3.703   7.636   2.583
    2CHTO   H19  827   3.780   7.577   2.531
    2CHTO    C8  828   3.749   7.785   2.582
    2CHTO   H21  829   3.671   7.845   2.631
    2CHTO    O7  830   3.760   7.825   2.444
    2CHTO    H2  831   3.777   7.917   2.439
    2CHTO   C12  832   3.886   7.803   2.659
    2CHTO   H25  833   3.962   7.753   2.596
    2CHTO    N3  834   3.926   7.947   2.669
    2CHTO   H12  835   4.020   7.956   2.722
    2CHTO   H13  836   3.934   7.990   2.570
    2CHTO   C15  837   3.881   7.730   2.798
    2CHTO   H28  838   3.820   7.784   0.013
    2CHTO   O10  839   4.022   7.707   2.857
    2CHTO    H4  840   4.064   7.789   0.016
    2CHTO    O5  841   3.834   7.595   2.786
    2CHTO   C10  842   3.702   7.585   2.730
    2CHTO   H23  843   3.634   7.647   2.789
    2CHTO   C17  844   3.653   7.440   2.745
    2CHTO   O12  845   3.735   7.347   2.671
    2CHTO    H6  846   3.820   7.341   2.711
    3CHTO  H203  847   7.940   1.374   1.356
    3CHTO   O82  848   7.931   1.282   1.341
    3CHTO  C123  849   7.811   1.233   1.404
    3CHTO  H227  850   7.807   1.272   1.508
    3CHTO   O77  851   7.704   1.293   1.325
    3CHTO  C118  852   7.571   1.263   1.370
    3CHTO  H222  853   7.561   1.291   1.476
    3CHTO  C125  854   7.471   1.350   1.285
    3CHTO   O84  855   7.479   1.320   1.145
    3CHTO  H205  856   7.418   1.373   1.098
    3CHTO  C114  857   7.547   1.111   1.357
    3CHTO  H218  858   7.560   1.082   1.252
    3CHTO  C116  859   7.653   1.033   1.441
    3CHTO  H220  860   7.635   1.053   1.549
    3CHTO   O79  861   7.630   0.892   1.421
    3CHTO  H201  862   7.687   0.842   1.477
    3CHTO  C120  863   7.800   1.076   1.401
    3CHTO  H224  864   7.816   1.039   1.297
    3CHTO   N21  865   7.902   1.010   1.487
    3CHTO  H211  866   7.865   0.994   1.587
    3CHTO  H212  867   7.993   1.069   1.489
    3CHTO   O75  868   7.412   1.086   1.400
    3CHTO  C112  869   7.307   1.038   1.280
    3CHTO  H216  870   7.365   1.007   1.191
    3CHTO   O73  871   7.222   1.150   1.251
    3CHTO  C113  872   7.126   1.126   1.148
    3CHTO  H217  873   7.179   1.089   1.058
    3CHTO  C124  874   7.063   1.261   1.112
    3CHTO   O83  875   6.984   1.256   0.993
    3CHTO  H204  876   7.040   1.244   0.918
    3CHTO  C109  877   7.024   1.022   1.201
    3CHTO  H213  878   6.983   1.062   1.295
    3CHTO  C110  879   7.101   0.889   1.231
    3CHTO  H214  880   7.139   0.849   1.137
    3CHTO   O78  881   7.008   0.794   1.286
    3CHTO  H200  882   7.050   0.710   1.295
    3CHTO  C111  883   7.219   0.917   1.329
    3CHTO  H215  884   7.176   0.945   1.426
    3CHTO   N19  885   7.305   0.798   1.354
    3CHTO  H207  886   7.348   0.763   1.262
    3CHTO  H208  887   7.246   0.719   1.399
    3CHTO   O74  888   6.915   0.999   1.106
    3CHTO  C115  889   6.767   1.035   1.173
    3CHTO  H219  890   6.770   1.032   1.282
    3CHTO   O76  891   6.723   1.181   1.137
    3CHTO  C122  892   6.599   1.225   1.194
    3CHTO  H226  893   6.574   1.319   1.147
    3CHTO  C126  894   6.615   1.257   1.348
    3CHTO   O85  895   6.710   1.361   1.373
    3CHTO  H206  896   6.796   1.332   1.350
    3CHTO  C121  897   6.481   1.123   1.169
    3CHTO  H225  898   6.398   1.151   1.237
    3CHTO   O81  899   6.436   1.138   1.034
    3CHTO  H202  900   6.356   1.090   1.021
    3CHTO  C119  901   6.520   0.974   1.197
    3CHTO  H223  902   6.536   0.967   1.305
    3CHTO  C117  903   6.656   0.935   1.127
    3CHTO  H221  904   6.657   0.940   1.018
    3CHTO   N20  905   6.695   0.794   1.160
    3CHTO  H209  906   6.619   0.725   1.125
    3CHTO  H210  907   6.709   0.783   1.266
    3CHTO   O80  908   6.399   0.871   1.176
    3CHTO  C103  909   6.268   0.886   1.260
    3CHTO  H190  910   6.285   0.943   1.352
    3CHTO  C101  911   6.145   0.948   1.182
    3CHTO  H188  912   6.145   0.908   1.080
    3CHTO   O68  913   6.163   1.102   1.172
    3CHTO  H168  914   6.242   1.122   1.126
    3CHTO   C99  915   6.005   0.911   1.250
    3CHTO  H186  916   6.000   0.958   1.351
    3CHTO   N17  917   5.884   0.959   1.173
    3CHTO  H174  918   5.914   1.005   1.080
    3CHTO  H175  919   5.827   1.027   1.234
    3CHTO   C97  920   6.000   0.758   1.274
    3CHTO  H184  921   6.009   0.707   1.177
    3CHTO   O64  922   6.108   0.722   1.363
    3CHTO  C104  923   6.238   0.737   1.304
    3CHTO  H191  924   6.248   0.671   1.218
    3CHTO  C108  925   6.343   0.689   1.405
    3CHTO   O71  926   6.328   0.549   1.434
    3CHTO  H171  927   6.394   0.523   1.495
    3CHTO   O62  928   5.883   0.714   1.345
    3CHTO   C91  929   5.822   0.590   1.304
    3CHTO  H178  930   5.848   0.571   1.200
    3CHTO   C92  931   5.667   0.611   1.304
    3CHTO  H179  932   5.637   0.654   1.401
    3CHTO   O66  933   5.638   0.713   1.206
    3CHTO  H166  934   5.547   0.735   1.208
    3CHTO   C93  935   5.590   0.477   1.275
    3CHTO  H180  936   5.614   0.449   1.172
    3CHTO   N16  937   5.442   0.494   1.278
    3CHTO  H172  938   5.410   0.527   1.376
    3CHTO  H173  939   5.394   0.401   1.251
    3CHTO   C94  940   5.637   0.361   1.372
    3CHTO  H181  941   5.561   0.336   1.447
    3CHTO   O61  942   5.753   0.395   1.451
    3CHTO   C95  943   5.864   0.465   1.392
    3CHTO  H182  944   5.928   0.502   1.472
    3CHTO  C106  945   5.954   0.364   1.311
    3CHTO   O69  946   6.072   0.426   1.259
    3CHTO  H169  947   6.049   0.488   1.192
    3CHTO   O63  948   5.669   0.229   1.282
    3CHTO   C96  949   5.573   0.100   1.309
    3CHTO  H183  950   5.600   0.026   1.234
    3CHTO   C98  951   5.421   0.127   1.296
    3CHTO  H185  952   5.392   0.213   1.358
    3CHTO   O67  953   5.395   0.167   1.160
    3CHTO  H167  954   5.433   0.251   1.143
    3CHTO  C102  955   5.331   9.999   1.334
    3CHTO  H189  956   5.347   9.926   1.254
    3CHTO   N18  957   5.185   0.024   1.337
    3CHTO  H176  958   5.132   9.933   1.360
    3CHTO  H177  959   5.161   0.100   1.410
    3CHTO  C105  960   5.382   9.937   1.467
    3CHTO  H192  961   5.357   0.005   1.550
    3CHTO   O65  962   5.524   9.917   1.466
    3CHTO  C100  963   5.603   0.036   1.451
    3CHTO  H187  964   5.577   0.107   1.530
    3CHTO  C107  965   5.750   9.993   1.469
    3CHTO   O70  966   5.838   0.104   1.488
    3CHTO  H170  967   5.821   0.144   1.572
    3CHTO   O57  968   5.305   9.788   1.486
    3CHTO   C85  969   5.280   9.731   1.616
    3CHTO  H157  970   5.259   9.624   1.595
    3CHTO   C83  971   5.146   9.787   1.676
    3CHTO  H155  972   5.064   9.753   1.612
    3CHTO   O56  973   5.143   9.931   1.668
    3CHTO  H135  974   5.210   9.968   1.723
    3CHTO   C81  975   5.125   9.731   1.819
    3CHTO  H153  976   5.129   9.622   1.813
    3CHTO   N14  977   4.991   9.760   1.875
    3CHTO  H141  978   4.979   9.865   1.890
    3CHTO  H142  979   4.979   9.710   1.969
    3CHTO   C79  980   5.243   9.779   1.911
    3CHTO  H151  981   5.226   9.738   2.010
    3CHTO   O52  982   5.368   9.721   1.862
    3CHTO   C86  983   5.399   9.748   1.721
    3CHTO  H158  984   5.436   9.852   1.723
    3CHTO   C90  985   5.520   9.661   1.679
    3CHTO   O60  986   5.493   9.521   1.692
    3CHTO  H138  987   5.429   9.495   1.628
    3CHTO   O50  988   5.256   9.922   1.922
    3CHTO   C73  989   5.295   0.024   2.014
    3CHTO  H145  990   5.377   9.987   2.079
    3CHTO   C74  991   5.174   0.064   2.105
    3CHTO  H146  992   5.140   9.972   2.155
    3CHTO   O54  993   5.221   0.152   2.209
    3CHTO  H133  994   5.253   0.232   2.173
    3CHTO   C75  995   5.061   0.127   2.015
    3CHTO  H147  996   5.029   0.052   1.941
    3CHTO   N13  997   4.939   0.164   2.091
    3CHTO  H139  998   4.919   0.270   2.085
    3CHTO  H140  999   4.853   0.111   2.052
    3CHTO   C76 1000   5.123   0.250   1.932
    3CHTO  H148 1001   5.152   0.327   2.004
    3CHTO   O49 1002   5.241   0.207   1.856
    3CHTO   C77 1003   5.346   0.149   1.936
    3CHTO  H149 1004   5.383   0.223   2.007
    3CHTO   C88 1005   5.465   0.113   1.846
    3CHTO   O58 1006   5.519   0.231   1.775
    3CHTO  H136 1007   5.558   0.290   1.837
    3CHTO   O51 1008   5.020   0.303   1.822
    3CHTO   C78 1009   5.045   0.455   1.787
    3CHTO  H150 1010   5.144   0.489   1.823
    3CHTO   C80 1011   4.936   0.544   1.852
    3CHTO  H152 1012   4.836   0.508   1.817
    3CHTO   O55 1013   4.942   0.524   1.994
    3CHTO  H134 1014   5.023   0.555   2.029
    3CHTO   C84 1015   4.954   0.696   1.812
    3CHTO  H156 1016   5.047   0.730   1.859
    3CHTO   N15 1017   4.844   0.783   1.865
    3CHTO  H143 1018   4.862   0.885   1.838
    3CHTO  H144 1019   4.840   0.776   1.972
    3CHTO   C87 1020   4.968   0.713   1.659
    3CHTO  H159 1021   4.871   0.697   1.610
    3CHTO   O53 1022   5.072   0.609   1.602
    3CHTO   C82 1023   5.041   0.473   1.635
    3CHTO  H154 1024   4.943   0.447   1.595
    3CHTO   C89 1025   5.144   0.380   1.566
    3CHTO   O59 1026   5.132   0.387   1.424
    3CHTO  H137 1027   5.195   0.330   1.384
    3CHTO   O45 1028   5.019   0.871   1.622
    3CHTO   C67 1029   5.161   0.889   1.612
    3CHTO  H124 1030   5.211   0.803   1.655
    3CHTO   C65 1031   5.203   0.902   1.461
    3CHTO  H122 1032   5.116   0.942   1.408
    3CHTO   O44 1033   5.228   0.767   1.416
    3CHTO  H102 1034   5.241   0.766   1.323
    3CHTO   C63 1035   5.318   1.008   1.437
    3CHTO  H120 1036   5.274   1.108   1.443
    3CHTO   N11 1037   5.378   1.010   1.300
    3CHTO  H108 1038   5.301   1.019   1.226
    3CHTO  H109 1039   5.433   0.920   1.283
    3CHTO   C61 1040   5.421   0.998   1.554
    3CHTO  H118 1041   5.496   1.077   1.538
    3CHTO   O40 1042   5.360   1.023   1.684
    3CHTO   C68 1043   5.214   1.013   1.695
    3CHTO  H125 1044   5.168   1.107   1.658
    3CHTO   C72 1045   5.178   1.002   1.845
    3CHTO   O48 1046   5.231   1.110   1.923
    3CHTO  H105 1047   5.207   1.099   2.013
    3CHTO   O38 1048   5.486   0.868   1.554
    3CHTO   C55 1049   5.582   0.839   1.657
    3CHTO  H112 1050   5.557   0.894   1.749
    3CHTO   C56 1051   5.729   0.871   1.606
    3CHTO  H113 1052   5.741   0.819   1.511
    3CHTO   O42 1053   5.741   1.011   1.576
    3CHTO  H100 1054   5.728   1.063   1.653
    3CHTO   C57 1055   5.836   0.822   1.712
    3CHTO  H114 1056   5.822   0.881   1.802
    3CHTO   N10 1057   5.977   0.838   1.668
    3CHTO  H106 1058   6.014   0.935   1.697
    3CHTO  H107 1059   5.984   0.828   1.560
    3CHTO   C58 1060   5.806   0.673   1.745
    3CHTO  H115 1061   5.819   0.612   1.652
    3CHTO   O37 1062   5.671   0.659   1.793
    3CHTO   C59 1063   5.572   0.688   1.693
    3CHTO  H116 1064   5.589   0.626   1.605
    3CHTO   C70 1065   5.434   0.654   1.748
    3CHTO   O46 1066   5.418   0.514   1.776
    3CHTO  H103 1067   5.332   0.498   1.809
    3CHTO   O39 1068   5.898   0.614   1.863
    3CHTO   C60 1069   5.910   0.471   1.850
    3CHTO  H117 1070   5.828   0.432   1.789
    3CHTO   C62 1071   6.043   0.433   1.781
    3CHTO  H119 1072   6.043   0.487   1.683
    3CHTO   O43 1073   6.154   0.481   1.859
    3CHTO  H101 1074   6.235   0.463   1.814
    3CHTO   C66 1075   6.044   0.275   1.754
    3CHTO  H123 1076   5.955   0.249   1.696
    3CHTO   N12 1077   6.160   0.235   1.671
    3CHTO  H110 1078   6.157   0.286   1.576
    3CHTO  H111 1079   6.161   0.128   1.657
    3CHTO   C69 1080   6.035   0.198   1.889
    3CHTO  H126 1081   6.127   0.217   1.949
    3CHTO   O41 1082   5.905   0.249   1.971
    3CHTO   C64 1083   5.898   0.402   1.988
    3CHTO  H121 1084   5.983   0.435   2.052
    3CHTO   C71 1085   5.767   0.441   2.061
    3CHTO   O47 1086   5.650   0.397   1.991
    3CHTO  H104 1087   5.573   0.422   2.038
    3CHTO   O34 1088   6.021   0.039   1.866
    3CHTO   C49 1089   6.101   9.917   1.811
    3CHTO   H91 1090   6.172   9.959   1.740
    3CHTO   C47 1091   6.006   9.822   1.734
    3CHTO   H89 1092   5.983   9.876   1.639
    3CHTO   O33 1093   5.884   9.802   1.807
    3CHTO   H70 1094   5.822   9.756   1.753
    3CHTO   C45 1095   6.075   9.677   1.706
    3CHTO   H87 1096   6.036   9.607   1.782
    3CHTO    N8 1097   6.036   9.626   1.572
    3CHTO   H75 1098   5.928   9.624   1.563
    3CHTO   H76 1099   6.075   9.526   1.559
    3CHTO   C43 1100   6.232   9.680   1.733
    3CHTO   H85 1101   6.270   9.580   1.714
    3CHTO   O29 1102   6.255   9.722   1.869
    3CHTO   C50 1103   6.181   9.837   1.917
    3CHTO   H92 1104   6.111   9.804   1.996
    3CHTO   C54 1105   6.280   9.930   1.991
    3CHTO   O36 1106   6.341   9.864   2.103
    3CHTO   H72 1107   6.276   9.849   2.170
    3CHTO   O27 1108   6.301   9.767   1.641
    3CHTO   C37 1109   6.413   9.850   1.607
    3CHTO   H79 1110   6.407   9.945   1.662
    3CHTO   C38 1111   6.548   9.782   1.648
    3CHTO   H80 1112   6.544   9.677   1.617
    3CHTO   O31 1113   6.557   9.786   1.791
    3CHTO   H68 1114   6.493   9.729   1.830
    3CHTO   C39 1115   6.673   9.852   1.581
    3CHTO   H81 1116   6.684   9.950   1.627
    3CHTO    N7 1117   6.801   9.777   1.606
    3CHTO   H73 1118   6.795   9.677   1.563
    3CHTO   H74 1119   6.885   9.830   1.563
    3CHTO   C40 1120   6.647   9.876   1.427
    3CHTO   H82 1121   6.639   9.779   1.377
    3CHTO   O26 1122   6.526   9.953   1.415
    3CHTO   C41 1123   6.407   9.880   1.455
    3CHTO   H83 1124   6.400   9.786   1.399
    3CHTO   C52 1125   6.284   9.966   1.419
    3CHTO   O35 1126   6.278   9.999   1.275
    3CHTO   H71 1127   6.350   0.055   1.252
    3CHTO   O28 1128   6.756   9.945   1.361
    3CHTO   C42 1129   6.751   0.073   1.289
    3CHTO   H84 1130   6.852   0.084   1.251
    3CHTO   C44 1131   6.724   0.199   1.378
    3CHTO   H86 1132   6.627   0.187   1.427
    3CHTO   O32 1133   6.826   0.201   1.480
    3CHTO   H69 1134   6.911   0.215   1.442
    3CHTO   C48 1135   6.720   0.333   1.293
    3CHTO   H90 1136   6.821   0.352   1.256
    3CHTO    N9 1137   6.685   0.452   1.377
    3CHTO   H77 1138   6.586   0.440   1.419
    3CHTO   H78 1139   6.689   0.542   1.317
    3CHTO   C51 1140   6.624   0.315   1.170
    3CHTO   H93 1141   6.523   0.301   1.208
    3CHTO   O30 1142   6.668   0.204   1.091
    3CHTO   C46 1143   6.655   0.072   1.166
    3CHTO   H88 1144   6.552   0.062   1.199
    3CHTO   C53 1145   6.690   9.957   1.068
    3CHTO   O72 1146   6.594   9.949   0.962
    3CHTO  H199 1147   6.603   0.023   0.905
    3CHTO   O22 1148   6.630   0.429   1.081
    3CHTO   C31 1149   6.531   0.448   0.973
    3CHTO   H59 1150   6.502   0.346   0.938
    3CHTO   C29 1151   6.401   0.520   1.017
    3CHTO   H57 1152   6.430   0.616   1.063
    3CHTO   O21 1153   6.338   0.441   1.120
    3CHTO   H37 1154   6.393   0.438   1.196
    3CHTO   C27 1155   6.303   0.547   0.896
    3CHTO   H55 1156   6.267   0.451   0.858
    3CHTO    N5 1157   6.185   0.629   0.934
    3CHTO   H43 1158   6.132   0.581   1.015
    3CHTO   H44 1159   6.119   0.640   0.850
    3CHTO   C25 1160   6.383   0.615   0.779
    3CHTO   H53 1161   6.418   0.714   0.811
    3CHTO   O17 1162   6.498   0.533   0.744
    3CHTO   C32 1163   6.594   0.520   0.850
    3CHTO   H60 1164   6.629   0.619   0.880
    3CHTO   C36 1165   6.715   0.440   0.796
    3CHTO   O25 1166   6.781   0.512   0.691
    3CHTO   H40 1167   6.855   0.463   0.661
    3CHTO   O15 1168   6.296   0.630   0.650
    3CHTO   C19 1169   6.282   0.735   0.550
    3CHTO   H47 1170   6.205   0.696   0.482
    3CHTO   C20 1171   6.233   0.872   0.607
    3CHTO   H48 1172   6.304   0.914   0.680
    3CHTO   O19 1173   6.109   0.847   0.675
    3CHTO   H35 1174   6.125   0.798   0.754
    3CHTO   C21 1175   6.212   0.978   0.491
    3CHTO   H49 1176   6.126   0.947   0.431
    3CHTO    N4 1177   6.181   1.115   0.542
    3CHTO   H41 1178   6.261   1.150   0.605
    3CHTO   H42 1179   6.089   1.113   0.598
    3CHTO   C22 1180   6.335   0.980   0.396
    3CHTO   H50 1181   6.419   1.029   0.445
    3CHTO   O14 1182   6.374   0.847   0.357
    3CHTO   C23 1183   6.409   0.759   0.464
    3CHTO   H51 1184   6.490   0.806   0.522
    3CHTO   C34 1185   6.462   0.627   0.405
    3CHTO   O23 1186   6.585   0.648   0.334
    3CHTO   H38 1187   6.653   0.670   0.394
    3CHTO   O16 1188   6.303   1.041   0.269
    3CHTO   C24 1189   6.398   1.164   0.227
    3CHTO   H52 1190   6.449   1.207   0.313
    3CHTO   C26 1191   6.311   1.272   0.159
    3CHTO   H54 1192   6.256   1.224   0.074
    3CHTO   O20 1193   6.213   1.319   0.253
    3CHTO   H36 1194   6.255   1.362   0.326
    3CHTO   C30 1195   6.397   1.388   0.101
    3CHTO   H58 1196   6.437   1.447   0.185
    3CHTO    N6 1197   6.318   1.484   0.019
    3CHTO   H45 1198   6.324   1.584   0.060
    3CHTO   H46 1199   6.214   1.455   0.014
    3CHTO   C33 1200   6.522   1.337   0.022
    3CHTO   H61 1201   6.490   1.298   2.782
    3CHTO   O18 1202   6.587   1.229   0.092
    3CHTO   C28 1203   6.508   1.116   0.128
    3CHTO   H56 1204   6.460   1.074   0.039
    3CHTO   C35 1205   6.603   1.009   0.188
    3CHTO   O24 1206   6.672   1.053   0.305
    3CHTO   H39 1207   6.733   1.121   0.283
    3CHTO    O9 1208   6.615   1.443   2.850
    3CHTO   C13 1209   6.707   1.495   0.122
    3CHTO   H26 1210   6.648   1.479   0.215
    3CHTO   C11 1211   6.744   1.647   0.103
    3CHTO   H24 1212   6.651   1.705   0.108
    3CHTO    O8 1213   6.800   1.670   2.830
    3CHTO    H3 1214   6.881   1.624   2.820
    3CHTO    C9 1215   6.836   1.690   0.220
    3CHTO   H22 1216   6.780   1.665   0.312
    3CHTO    N2 1217   6.860   1.837   0.229
    3CHTO   H10 1218   6.821   1.888   0.142
    3CHTO   H11 1219   6.816   1.877   0.319
    3CHTO    C7 1220   6.968   1.605   0.219
    3CHTO   H20 1221   7.017   1.631   0.316
    3CHTO    O4 1222   6.944   1.463   0.216
    3CHTO   C14 1223   6.836   1.403   0.141
    3CHTO   H27 1224   6.805   1.318   0.205
    3CHTO   C18 1225   6.891   1.341   0.009
    3CHTO   O13 1226   6.947   1.436   2.776
    3CHTO    H7 1227   7.026   1.472   2.812
    3CHTO    O2 1228   7.068   1.646   0.097
    3CHTO    C1 1229   7.194   1.578   0.084
    3CHTO   H14 1230   7.176   1.475   0.048
    3CHTO    C2 1231   7.283   1.570   0.217
    3CHTO   H15 1232   7.286   1.672   0.257
    3CHTO    O6 1233   7.220   1.482   0.311
    3CHTO    H1 1234   7.266   1.484   0.393
    3CHTO    C3 1235   7.433   1.518   0.185
    3CHTO   H16 1236   7.427   1.414   0.152
    3CHTO    N1 1237   7.523   1.520   0.306
    3CHTO    H8 1238   7.469   1.555   0.394
    3CHTO    H9 1239   7.609   1.583   0.290
    3CHTO    C4 1240   7.490   1.599   0.064
    3CHTO   H17 1241   7.502   1.704   0.094
    3CHTO    O1 1242   7.402   1.588   2.810
    3CHTO    C5 1243   7.274   1.651   2.829
    3CHTO   H18 1244   7.288   1.755   0.001
    3CHTO   C16 1245   7.204   1.647   2.691
    3CHTO   O11 1246   7.087   1.729   2.687
    3CHTO    H5 1247   7.047   1.722   2.602
    3CHTO    O3 1248   7.617   1.547   0.018
    3CHTO    C6 1249   7.692   1.639   2.790
    3CHTO   H19 1250   7.630   1.718   2.748
    3CHTO    C8 1251   7.807   1.707   0.013
    3CHTO   H21 1252   7.870   1.629   0.057
    3CHTO    O7 1253   7.747   1.785   0.119
    3CHTO    H2 1254   7.708   1.729   0.183
    3CHTO   C12 1255   7.896   1.796   2.775
    3CHTO   H25 1256   7.830   1.879   2.739
    3CHTO    N3 1257   8.011   1.861   2.847
    3CHTO   H12 1258   8.074   1.785   0.033
    3CHTO   H13 1259   7.973   1.928   0.065
    3CHTO   C15 1260   7.941   1.711   2.650
    3CHTO   H28 1261   8.013   1.634   2.678
    3CHTO   O10 1262   7.998   1.796   2.536
    3CHTO    H4 1263   8.078   1.837   2.564
    3CHTO    O5 1264   7.828   1.650   2.586
    3CHTO   C10 1265   7.753   1.561   2.671
    3CHTO   H23 1266   7.820   1.483   2.708
    3CHTO   C17 1267   7.645   1.493   2.585
    3CHTO   O12 1268   7.702   1.407   2.486
    3CHTO    H6 1269   7.750   1.458   2.423
    4CHTO  H203 1270   5.877   6.848   1.938
    4CHTO   O82 1271   5.938   6.907   1.978
    4CHTO  C123 1272   5.885   7.040   1.977
    4CHTO  H227 1273   5.791   7.041   2.034
    4CHTO   O77 1274   5.987   7.118   2.047
    4CHTO  C118 1275   5.944   7.252   2.078
    4CHTO  H222 1276   5.855   7.245   2.143
    4CHTO  C125 1277   6.059   7.323   2.159
    4CHTO   O84 1278   6.181   7.329   2.085
    4CHTO  H205 1279   6.247   7.373   2.135
    4CHTO  C114 1280   5.907   7.331   1.952
    4CHTO  H218 1281   5.998   7.356   1.898
    4CHTO  C116 1282   5.815   7.251   1.853
    4CHTO  H220 1283   5.712   7.250   1.894
    4CHTO   O79 1284   5.808   7.325   1.729
    4CHTO  H201 1285   5.892   7.329   1.688
    4CHTO  C120 1286   5.867   7.103   1.834
    4CHTO  H224 1287   5.964   7.110   1.782
    4CHTO   N21 1288   5.777   7.023   1.746
    4CHTO  H211 1289   5.699   6.975   1.804
    4CHTO  H212 1290   5.734   7.084   1.668
    4CHTO   O75 1291   5.843   7.450   2.003
    4CHTO  C112 1292   5.882   7.582   1.929
    4CHTO  H216 1293   5.898   7.560   1.822
    4CHTO   O73 1294   6.002   7.630   1.991
    4CHTO  C113 1295   6.058   7.744   1.926
    4CHTO  H217 1296   6.076   7.719   1.820
    4CHTO  C124 1297   6.194   7.774   1.991
    4CHTO   O83 1298   6.291   7.670   1.971
    4CHTO  H204 1299   6.314   7.666   1.881
    4CHTO  C109 1300   5.961   7.865   1.934
    4CHTO  H213 1301   5.955   7.894   2.041
    4CHTO  C110 1302   5.820   7.826   1.881
    4CHTO  H214 1303   5.826   7.816   1.772
    4CHTO   O78 1304   5.729   7.934   1.907
    4CHTO  H200 1305   5.719   7.948   2.000
    4CHTO  C111 1306   5.770   7.691   1.943
    4CHTO  H215 1307   5.751   7.707   2.050
    4CHTO   N19 1308   5.641   7.644   1.883
    4CHTO  H207 1309   5.654   7.626   1.777
    4CHTO  H208 1310   5.609   7.554   1.932
    4CHTO   O74 1311   6.014   7.977   1.856
    4CHTO  C115 1312   6.048   8.106   1.941
    4CHTO  H219 1313   5.993   8.108   2.035
    4CHTO   O76 1314   6.202   8.107   1.984
    4CHTO  C122 1315   6.288   8.133   1.873
    4CHTO  H226 1316   6.271   8.054   1.799
    4CHTO  C126 1317   6.438   8.119   1.917
    4CHTO   O85 1318   6.472   7.986   1.958
    4CHTO  H206 1319   6.467   7.927   1.885
    4CHTO  C121 1320   6.260   8.275   1.809
    4CHTO  H225 1321   6.344   8.344   1.836
    4CHTO   O81 1322   6.260   8.264   1.666
    4CHTO  H202 1323   6.190   8.209   1.637
    4CHTO  C119 1324   6.126   8.337   1.860
    4CHTO  H223 1325   6.142   8.359   1.966
    4CHTO  C117 1326   6.010   8.232   1.853
    4CHTO  H221 1327   5.989   8.193   1.753
    4CHTO   N20 1328   5.880   8.292   1.899
    4CHTO  H209 1329   5.887   8.322   2.003
    4CHTO  H210 1330   5.799   8.220   1.886
    4CHTO   O80 1331   6.101   8.482   1.801
    4CHTO  C103 1332   6.145   8.612   1.884
    4CHTO  H190 1333   6.072   8.634   1.961
    4CHTO  C101 1334   6.290   8.612   1.949
    4CHTO  H188 1335   6.361   8.577   1.874
    4CHTO   O68 1336   6.293   8.514   2.071
    4CHTO  H168 1337   6.234   8.543   2.138
    4CHTO   C99 1338   6.333   8.760   1.994
    4CHTO  H186 1339   6.266   8.793   2.076
    4CHTO   N17 1340   6.474   8.768   2.048
    4CHTO  H174 1341   6.526   8.675   2.035
    4CHTO  H175 1342   6.528   8.850   2.004
    4CHTO   C97 1343   6.309   8.859   1.877
    4CHTO  H184 1344   6.379   8.834   1.796
    4CHTO   O64 1345   6.172   8.853   1.835
    4CHTO  C104 1346   6.136   8.727   1.777
    4CHTO  H191 1347   6.201   8.702   1.692
    4CHTO  C108 1348   5.994   8.738   1.719
    4CHTO   O71 1349   5.991   8.828   1.608
    4CHTO  H171 1350   5.904   8.835   1.576
    4CHTO   O62 1351   6.327   8.997   1.918
    4CHTO   C91 1352   6.349   9.092   1.813
    4CHTO  H178 1353   6.318   9.049   1.718
    4CHTO   C92 1354   6.502   9.122   1.799
    4CHTO  H179 1355   6.538   9.166   1.894
    4CHTO   O66 1356   6.576   8.999   1.783
    4CHTO  H166 1357   6.569   8.946   1.860
    4CHTO   C93 1358   6.532   9.218   1.678
    4CHTO  H180 1359   6.531   9.154   1.588
    4CHTO   N16 1360   6.668   9.279   1.679
    4CHTO  H172 1361   6.723   9.251   1.591
    4CHTO  H173 1362   6.722   9.249   1.768
    4CHTO   C94 1363   6.419   9.328   1.661
    4CHTO  H181 1364   6.461   9.428   1.644
    4CHTO   O61 1365   6.340   9.344   1.781
    4CHTO   C95 1366   6.273   9.229   1.835
    4CHTO  H182 1367   6.262   9.243   1.943
    4CHTO  C106 1368   6.126   9.220   1.779
    4CHTO   O69 1369   6.050   9.334   1.819
    4CHTO  H169 1370   5.963   9.328   1.785
    4CHTO   O63 1371   6.325   9.288   1.537
    4CHTO   C96 1372   6.392   9.310   1.394
    4CHTO  H183 1373   6.497   9.283   1.400
    4CHTO   C98 1374   6.382   9.456   1.342
    4CHTO  H185 1375   6.279   9.492   1.352
    4CHTO   O67 1376   6.460   9.539   1.430
    4CHTO  H167 1377   6.551   9.516   1.425
    4CHTO  C102 1378   6.432   9.472   1.190
    4CHTO  H189 1379   6.541   9.451   1.192
    4CHTO   N18 1380   6.419   9.610   1.135
    4CHTO  H176 1381   6.475   9.679   1.195
    4CHTO  H177 1382   6.456   9.612   1.033
    4CHTO  C105 1383   6.365   9.364   1.102
    4CHTO  H192 1384   6.259   9.387   1.091
    4CHTO   O65 1385   6.378   9.232   1.158
    4CHTO  C100 1386   6.324   9.212   1.290
    4CHTO  H187 1387   6.216   9.232   1.287
    4CHTO  C107 1388   6.345   9.062   1.325
    4CHTO   O70 1389   6.277   9.024   1.445
    4CHTO  H170 1390   6.317   9.065   1.519
    4CHTO   O57 1391   6.440   9.370   0.959
    4CHTO   C85 1392   6.389   9.307   0.840
    4CHTO  H157 1393   6.278   9.312   0.847
    4CHTO   C83 1394   6.424   9.154   0.842
    4CHTO  H155 1395   6.357   9.104   0.913
    4CHTO   O56 1396   6.557   9.135   0.894
    4CHTO  H135 1397   6.562   9.165   0.983
    4CHTO   C81 1398   6.402   9.091   0.701
    4CHTO  H153 1399   6.298   9.104   0.674
    4CHTO   N14 1400   6.423   8.943   0.697
    4CHTO  H141 1401   6.359   8.896   0.769
    4CHTO  H142 1402   6.525   8.920   0.720
    4CHTO   C79 1403   6.491   9.166   0.596
    4CHTO  H151 1404   6.473   9.119   0.499
    4CHTO   O52 1405   6.443   9.303   0.585
    4CHTO   C86 1406   6.443   9.380   0.710
    4CHTO  H158 1407   6.550   9.409   0.722
    4CHTO   C90 1408   6.366   9.511   0.682
    4CHTO   O60 1409   6.372   9.604   0.791
    4CHTO  H138 1410   6.460   9.636   0.801
    4CHTO   O50 1411   6.632   9.162   0.623
    4CHTO   C73 1412   6.759   9.223   0.598
    4CHTO  H145 1413   6.767   9.319   0.651
    4CHTO   C74 1414   6.779   9.250   0.445
    4CHTO  H146 1415   6.696   9.314   0.413
    4CHTO   O54 1416   6.899   9.328   0.429
    4CHTO  H133 1417   6.911   9.351   0.339
    4CHTO   C75 1418   6.781   9.112   0.367
    4CHTO  H147 1419   6.683   9.064   0.379
    4CHTO   N13 1420   6.800   9.127   0.221
    4CHTO  H139 1421   6.799   9.030   0.174
    4CHTO  H140 1422   6.894   9.174   0.200
    4CHTO   C76 1423   6.890   9.015   0.433
    4CHTO  H148 1424   6.989   9.057   0.415
    4CHTO   O49 1425   6.867   9.003   0.578
    4CHTO   C77 1426   6.873   9.128   0.647
    4CHTO  H149 1427   6.970   9.176   0.630
    4CHTO   C88 1428   6.867   9.099   0.798
    4CHTO   O58 1429   6.880   9.223   0.879
    4CHTO  H136 1430   6.967   9.257   0.872
    4CHTO   O51 1431   6.874   8.864   0.374
    4CHTO   C78 1432   6.955   8.752   0.455
    4CHTO  H150 1433   6.963   8.778   0.563
    4CHTO   C80 1434   7.098   8.737   0.397
    4CHTO  H152 1435   7.090   8.715   0.288
    4CHTO   O55 1436   7.165   8.864   0.413
    4CHTO  H134 1437   7.177   8.884   0.504
    4CHTO   C84 1438   7.176   8.620   0.469
    4CHTO  H156 1439   7.189   8.648   0.573
    4CHTO   N15 1440   7.313   8.598   0.412
    4CHTO  H143 1441   7.372   8.687   0.422
    4CHTO  H144 1442   7.363   8.519   0.464
    4CHTO   C87 1443   7.091   8.490   0.464
    4CHTO  H159 1444   7.084   8.453   0.361
    4CHTO   O53 1445   6.950   8.518   0.520
    4CHTO   C82 1446   6.878   8.619   0.446
    4CHTO  H154 1447   6.864   8.587   0.343
    4CHTO   C89 1448   6.737   8.629   0.510
    4CHTO   O59 1449   6.648   8.708   0.432
    4CHTO  H137 1450   6.565   8.714   0.476
    4CHTO   O45 1451   7.153   8.378   0.560
    4CHTO   C67 1452   7.140   8.245   0.508
    4CHTO  H124 1453   7.050   8.237   0.446
    4CHTO   C65 1454   7.264   8.204   0.422
    4CHTO  H122 1455   7.315   8.297   0.394
    4CHTO   O44 1456   7.219   8.138   0.303
    4CHTO  H102 1457   7.291   8.122   0.245
    4CHTO   C63 1458   7.366   8.123   0.510
    4CHTO  H120 1459   7.386   8.179   0.601
    4CHTO   N11 1460   7.505   8.106   0.454
    4CHTO  H108 1461   7.576   8.162   0.511
    4CHTO  H109 1462   7.509   8.136   0.352
    4CHTO   C61 1463   7.294   7.989   0.554
    4CHTO  H118 1464   7.347   7.953   0.643
    4CHTO   O40 1465   7.154   8.008   0.592
    4CHTO   C68 1466   7.118   8.144   0.629
    4CHTO  H125 1467   7.181   8.175   0.715
    4CHTO   C72 1468   6.971   8.145   0.679
    4CHTO   O48 1469   6.931   8.273   0.728
    4CHTO  H105 1470   6.842   8.268   0.758
    4CHTO   O38 1471   7.297   7.890   0.448
    4CHTO   C55 1472   7.265   7.753   0.480
    4CHTO  H112 1473   7.179   7.750   0.549
    4CHTO   C56 1474   7.391   7.676   0.538
    4CHTO  H113 1475   7.477   7.703   0.474
    4CHTO   O42 1476   7.423   7.725   0.669
    4CHTO  H100 1477   7.448   7.815   0.665
    4CHTO   C57 1478   7.372   7.519   0.541
    4CHTO  H114 1479   7.302   7.497   0.621
    4CHTO   N10 1480   7.498   7.447   0.572
    4CHTO  H106 1481   7.508   7.436   0.679
    4CHTO  H107 1482   7.498   7.349   0.526
    4CHTO   C58 1483   7.309   7.470   0.407
    4CHTO  H115 1484   7.383   7.483   0.325
    4CHTO   O37 1485   7.190   7.545   0.377
    4CHTO   C59 1486   7.216   7.684   0.349
    4CHTO  H116 1487   7.292   7.693   0.271
    4CHTO   C70 1488   7.087   7.750   0.298
    4CHTO   O46 1489   7.042   7.694   0.174
    4CHTO  H103 1490   7.102   7.716   0.105
    4CHTO   O39 1491   7.258   7.312   0.416
    4CHTO   C60 1492   7.343   7.217   0.350
    4CHTO  H117 1493   7.433   7.267   0.312
    4CHTO   C62 1494   7.389   7.108   0.451
    4CHTO  H119 1495   7.442   7.161   0.533
    4CHTO   O43 1496   7.275   7.042   0.509
    4CHTO  H101 1497   7.226   6.997   0.442
    4CHTO   C66 1498   7.492   7.007   0.379
    4CHTO  H123 1499   7.575   7.065   0.340
    4CHTO   N12 1500   7.551   6.909   0.473
    4CHTO  H110 1501   7.473   6.847   0.516
    4CHTO  H111 1502   7.624   6.848   0.422
    4CHTO   C69 1503   7.422   6.940   0.257
    4CHTO  H126 1504   7.337   6.876   0.292
    4CHTO   O41 1505   7.368   7.051   0.161
    4CHTO   C64 1506   7.272   7.151   0.228
    4CHTO  H121 1507   7.180   7.099   0.262
    4CHTO   C71 1508   7.233   7.254   0.118
    4CHTO   O47 1509   7.124   7.338   0.159
    4CHTO  H104 1510   7.153   7.396   0.228
    4CHTO   O34 1511   7.522   6.849   0.178
    4CHTO   C49 1512   7.554   6.762   0.059
    4CHTO   H91 1513   7.575   6.829   2.833
    4CHTO   C47 1514   7.431   6.673   0.026
    4CHTO   H89 1515   7.456   6.618   2.791
    4CHTO   O33 1516   7.318   6.759   0.000
    4CHTO   H70 1517   7.294   6.806   0.078
    4CHTO   C45 1518   7.409   6.570   0.148
    4CHTO   H87 1519   7.401   6.627   0.241
    4CHTO    N8 1520   7.285   6.490   0.131
    4CHTO   H75 1521   7.200   6.556   0.121
    4CHTO   H76 1522   7.292   6.427   0.044
    4CHTO   C43 1523   7.541   6.478   0.167
    4CHTO   H85 1524   7.525   6.422   0.258
    4CHTO   O29 1525   7.660   6.561   0.176
    4CHTO   C50 1526   7.677   6.672   0.086
    4CHTO   H92 1527   7.753   6.738   0.132
    4CHTO   C54 1528   7.746   6.629   2.811
    4CHTO   O36 1529   7.880   6.585   2.834
    4CHTO   H72 1530   7.881   6.506   0.026
    4CHTO   O27 1531   7.558   6.379   0.063
    4CHTO   C37 1532   7.605   6.244   0.043
    4CHTO   H79 1533   7.568   6.206   2.804
    4CHTO   C38 1534   7.761   6.238   0.038
    4CHTO   H80 1535   7.801   6.292   0.125
    4CHTO   O31 1536   7.802   6.305   2.776
    4CHTO   H68 1537   7.895   6.316   2.775
    4CHTO   C39 1538   7.816   6.089   0.039
    4CHTO   H81 1539   7.790   6.045   2.801
    4CHTO    N7 1540   7.966   6.081   0.053
    4CHTO   H73 1541   8.009   6.033   2.824
    4CHTO   H74 1542   8.009   6.178   0.067
    4CHTO   C40 1543   7.746   6.003   0.150
    4CHTO   H82 1544   7.781   6.031   0.250
    4CHTO   O26 1545   7.603   6.015   0.139
    4CHTO   C41 1546   7.552   6.150   0.156
    4CHTO   H83 1547   7.584   6.189   0.254
    4CHTO   C52 1548   7.398   6.140   0.156
    4CHTO   O35 1549   7.348   6.067   0.272
    4CHTO   H71 1550   7.254   6.062   0.268
    4CHTO   O28 1551   7.761   5.861   0.128
    4CHTO   C42 1552   7.834   5.773   0.219
    4CHTO   H84 1553   7.909   5.835   0.268
    4CHTO   C44 1554   7.912   5.658   0.147
    4CHTO   H86 1555   7.841   5.599   0.090
    4CHTO   O32 1556   8.002   5.720   0.053
    4CHTO   H69 1557   8.068   5.771   0.098
    4CHTO   C48 1558   7.989   5.562   0.247
    4CHTO   H90 1559   8.070   5.619   0.293
    4CHTO    N9 1560   8.054   5.445   0.177
    4CHTO   H77 1561   8.161   5.446   0.195
    4CHTO   H78 1562   8.035   5.448   0.071
    4CHTO   C51 1563   7.892   5.514   0.362
    4CHTO   H93 1564   7.817   5.449   0.318
    4CHTO   O30 1565   7.832   5.630   0.423
    4CHTO   C46 1566   7.746   5.710   0.332
    4CHTO   H88 1567   7.672   5.644   0.287
    4CHTO   C53 1568   7.673   5.815   0.421
    4CHTO   O72 1569   7.765   5.901   0.490
    4CHTO  H199 1570   7.717   5.961   0.544
    4CHTO   O22 1571   7.964   5.441   0.465
    4CHTO   C31 1572   7.950   5.459   0.611
    4CHTO   H59 1573   7.920   5.564   0.627
    4CHTO   C29 1574   7.842   5.370   0.677
    4CHTO   H57 1575   7.873   5.265   0.667
    4CHTO   O21 1576   7.719   5.386   0.605
    4CHTO   H37 1577   7.654   5.326   0.638
    4CHTO   C27 1578   7.828   5.405   0.831
    4CHTO   H55 1579   7.787   5.507   0.839
    4CHTO    N5 1580   7.736   5.313   0.903
    4CHTO   H43 1581   7.650   5.367   0.940
    4CHTO   H44 1582   7.785   5.262   0.984
    4CHTO   C25 1583   7.970   5.410   0.900
    4CHTO   H53 1584   8.007   5.307   0.913
    4CHTO   O17 1585   8.068   5.484   0.822
    4CHTO   C32 1586   8.084   5.441   0.687
    4CHTO   H60 1587   8.112   5.335   0.686
    4CHTO   C36 1588   8.200   5.521   0.622
    4CHTO   O25 1589   8.174   5.662   0.620
    4CHTO   H40 1590   8.177   5.697   0.707
    4CHTO   O15 1591   7.961   5.480   1.040
    4CHTO   C19 1592   7.903   5.589   1.118
    4CHTO   H47 1593   7.794   5.577   1.104
    4CHTO   C20 1594   7.935   5.580   1.271
    4CHTO   H48 1595   8.044   5.589   1.290
    4CHTO   O19 1596   7.893   5.450   1.315
    4CHTO   H35 1597   7.919   5.436   1.404
    4CHTO   C21 1598   7.861   5.694   1.353
    4CHTO   H49 1599   7.754   5.675   1.349
    4CHTO    N4 1600   7.898   5.698   1.497
    4CHTO   H41 1601   7.810   5.682   1.558
    4CHTO   H42 1602   7.971   5.622   1.520
    4CHTO   C22 1603   7.883   5.832   1.284
    4CHTO   H50 1604   7.986   5.865   1.300
    4CHTO   O14 1605   7.855   5.826   1.143
    4CHTO   C23 1606   7.938   5.734   1.070
    4CHTO   H51 1607   8.043   5.759   1.090
    4CHTO   C34 1608   7.911   5.757   0.921
    4CHTO   O23 1609   7.951   5.889   0.880
    4CHTO   H38 1610   8.044   5.896   0.882
    4CHTO   O16 1611   7.790   5.931   1.336
    4CHTO   C24 1612   7.805   6.081   1.274
    4CHTO   H52 1613   7.856   6.081   1.177
    4CHTO   C26 1614   7.884   6.169   1.372
    4CHTO   H54 1615   7.836   6.161   1.473
    4CHTO   O20 1616   8.018   6.118   1.381
    4CHTO   H36 1617   8.018   6.035   1.426
    4CHTO   C30 1618   7.880   6.319   1.330
    4CHTO   H58 1619   7.934   6.333   1.235
    4CHTO    N6 1620   7.950   6.406   1.430
    4CHTO   H45 1621   8.053   6.375   1.439
    4CHTO   H46 1622   7.947   6.509   1.398
    4CHTO   C33 1623   7.733   6.364   1.305
    4CHTO   H61 1624   7.676   6.355   1.399
    4CHTO   O18 1625   7.673   6.275   1.207
    4CHTO   C28 1626   7.663   6.138   1.250
    4CHTO   H56 1627   7.606   6.132   1.342
    4CHTO   C35 1628   7.587   6.054   1.143
    4CHTO   O24 1629   7.653   6.049   1.016
    4CHTO   H39 1630   7.602   5.997   0.956
    4CHTO    O9 1631   7.722   6.502   1.264
    4CHTO   C13 1632   7.575   6.572   1.291
    4CHTO   H26 1633   7.497   6.499   1.261
    4CHTO   C11 1634   7.565   6.706   1.206
    4CHTO   H24 1635   7.566   6.678   1.099
    4CHTO    O8 1636   7.678   6.791   1.230
    4CHTO    H3 1637   7.757   6.748   1.202
    4CHTO    C9 1638   7.428   6.773   1.236
    4CHTO   H22 1639   7.352   6.698   1.210
    4CHTO    N2 1640   7.395   6.889   1.148
    4CHTO   H10 1641   7.481   6.918   1.089
    4CHTO   H11 1642   7.359   6.973   1.206
    4CHTO    C7 1643   7.416   6.804   1.390
    4CHTO   H20 1644   7.310   6.837   1.403
    4CHTO    O4 1645   7.436   6.685   1.470
    4CHTO   C14 1646   7.551   6.601   1.446
    4CHTO   H27 1647   7.527   6.504   1.494
    4CHTO   C18 1648   7.676   6.658   1.518
    4CHTO   O13 1649   7.659   6.660   1.660
    4CHTO    H7 1650   7.735   6.695   1.700
    4CHTO    O2 1651   7.520   6.925   1.442
    4CHTO    C1 1652   7.455   7.039   1.502
    4CHTO   H14 1653   7.346   7.034   1.485
    4CHTO    C2 1654   7.508   7.177   1.445
    4CHTO   H15 1655   7.618   7.174   1.455
    4CHTO    O6 1656   7.473   7.185   1.306
    4CHTO    H1 1657   7.511   7.261   1.267
    4CHTO    C3 1658   7.449   7.302   1.528
    4CHTO   H16 1659   7.341   7.307   1.508
    4CHTO    N1 1660   7.507   7.434   1.484
    4CHTO    H8 1661   7.559   7.482   1.565
    4CHTO    H9 1662   7.575   7.420   1.400
    4CHTO    C4 1663   7.463   7.277   1.682
    4CHTO   H17 1664   7.569   7.283   1.709
    4CHTO    O1 1665   7.410   7.148   1.718
    4CHTO    C5 1666   7.476   7.036   1.657
    4CHTO   H18 1667   7.583   7.042   1.677
    4CHTO   C16 1668   7.420   6.908   1.725
    4CHTO   O11 1669   7.280   6.890   1.701
    4CHTO    H5 1670   7.265   6.871   1.610
    4CHTO    O3 1671   7.384   7.366   1.763
    4CHTO    C6 1672   7.454   7.464   1.847
    4CHTO   H19 1673   7.553   7.490   1.809
    4CHTO    C8 1674   7.368   7.595   1.852
    4CHTO   H21 1675   7.266   7.568   1.879
    4CHTO    O7 1676   7.370   7.652   1.720
    4CHTO    H2 1677   7.312   7.726   1.716
    4CHTO   C12 1678   7.422   7.697   1.960
    4CHTO   H25 1679   7.520   7.734   1.923
    4CHTO    N3 1680   7.332   7.817   1.973
    4CHTO   H12 1681   7.327   7.869   1.878
    4CHTO   H13 1682   7.234   7.787   2.005
    4CHTO   C15 1683   7.445   7.623   2.097
    4CHTO   H28 1684   7.351   7.593   2.143
    4CHTO   O10 1685   7.527   7.707   2.198
    4CHTO    H4 1686   7.479   7.784   2.222
    4CHTO    O5 1687   7.530   7.510   2.078
    4CHTO   C10 1688   7.474   7.409   1.992
    4CHTO   H23 1689   7.378   7.378   2.033
    4CHTO   C17 1690   7.566   7.286   1.999
    4CHTO   O12 1691   7.700   7.314   1.955
    4CHTO    H6 1692   7.700   7.333   1.863
    5CHTO  H203 1693   8.332   3.321   0.605
    5CHTO   O82 1694   8.244   3.296   0.623
    5CHTO  C123 1695   8.236   3.230   0.751
    5CHTO  H227 1696   8.320   3.159   0.759
    5CHTO   O77 1697   8.251   3.339   0.847
    5CHTO  C118 1698   8.261   3.295   0.983
    5CHTO  H222 1699   8.344   3.224   0.995
    5CHTO  C125 1700   8.292   3.424   1.068
    5CHTO   O84 1701   8.329   3.394   1.203
    5CHTO  H205 1702   8.256   3.357   1.249
    5CHTO  C114 1703   8.128   3.228   1.024
    5CHTO  H218 1704   8.049   3.303   1.021
    5CHTO  C116 1705   8.089   3.113   0.927
    5CHTO  H220 1706   8.158   3.027   0.944
    5CHTO   O79 1707   7.957   3.065   0.961
    5CHTO  H201 1708   7.894   3.133   0.949
    5CHTO  C120 1709   8.098   3.158   0.775
    5CHTO  H224 1710   8.014   3.230   0.759
    5CHTO   N21 1711   8.077   3.044   0.682
    5CHTO  H211 1712   8.034   3.080   0.589
    5CHTO  H212 1713   8.012   2.970   0.726
    5CHTO   O75 1714   8.148   3.182   1.159
    5CHTO  C112 1715   8.019   3.200   1.256
    5CHTO  H216 1716   7.928   3.200   1.194
    5CHTO   O73 1717   8.036   3.325   1.325
    5CHTO  C113 1718   7.928   3.359   1.414
    5CHTO  H217 1719   7.834   3.365   1.355
    5CHTO  C124 1720   7.954   3.498   1.473
    5CHTO   O83 1721   7.961   3.601   1.374
    5CHTO  H204 1722   7.876   3.614   1.336
    5CHTO  C109 1723   7.913   3.252   1.525
    5CHTO  H213 1724   8.005   3.255   1.586
    5CHTO  C110 1725   7.896   3.110   1.461
    5CHTO  H214 1726   7.800   3.107   1.409
    5CHTO   O78 1727   7.892   3.012   1.566
    5CHTO  H200 1728   7.873   2.927   1.531
    5CHTO  C111 1729   8.012   3.082   1.360
    5CHTO  H215 1730   8.107   3.080   1.416
    5CHTO   N19 1731   8.000   2.951   1.291
    5CHTO  H207 1732   8.083   2.937   1.224
    5CHTO  H208 1733   7.999   2.871   1.364
    5CHTO   O74 1734   7.799   3.287   1.610
    5CHTO  C115 1735   7.809   3.234   1.763
    5CHTO  H219 1736   7.896   3.170   1.779
    5CHTO   O76 1737   7.825   3.352   1.865
    5CHTO  C122 1738   7.724   3.453   1.848
    5CHTO  H226 1739   7.752   3.514   1.763
    5CHTO  C126 1740   7.726   3.549   1.973
    5CHTO   O85 1741   7.851   3.617   1.987
    5CHTO  H206 1742   7.849   3.672   2.063
    5CHTO  C121 1743   7.578   3.392   1.826
    5CHTO  H225 1744   7.505   3.450   1.887
    5CHTO   O81 1745   7.539   3.411   1.689
    5CHTO  H202 1746   7.595   3.362   1.632
    5CHTO  C119 1747   7.571   3.242   1.869
    5CHTO  H223 1748   7.603   3.244   1.973
    5CHTO  C117 1749   7.676   3.153   1.791
    5CHTO  H221 1750   7.644   3.122   1.691
    5CHTO   N20 1751   7.700   3.024   1.864
    5CHTO  H209 1752   7.665   2.940   1.805
    5CHTO  H210 1753   7.805   3.011   1.887
    5CHTO   O80 1754   7.421   3.182   1.882
    5CHTO  C103 1755   7.321   3.178   1.754
    5CHTO  H190 1756   7.334   3.266   1.691
    5CHTO  C101 1757   7.329   3.049   1.662
    5CHTO  H188 1758   7.340   2.961   1.727
    5CHTO   O68 1759   7.451   3.059   1.573
    5CHTO  H168 1760   7.529   3.060   1.626
    5CHTO   C99 1761   7.197   3.029   1.572
    5CHTO  H186 1762   7.194   3.110   1.496
    5CHTO   N17 1763   7.195   2.899   1.497
    5CHTO  H174 1764   7.105   2.843   1.516
    5CHTO  H175 1765   7.208   2.917   1.391
    5CHTO   C97 1766   7.070   3.048   1.659
    5CHTO  H184 1767   7.065   2.966   1.732
    5CHTO   O64 1768   7.074   3.177   1.724
    5CHTO  C104 1769   7.179   3.189   1.821
    5CHTO  H191 1770   7.170   3.112   1.898
    5CHTO  C108 1771   7.164   3.324   1.893
    5CHTO   O71 1772   7.041   3.332   1.966
    5CHTO  H171 1773   7.042   3.273   2.038
    5CHTO   O62 1774   6.950   3.053   1.579
    5CHTO   C91 1775   6.827   3.013   1.643
    5CHTO  H178 1776   6.842   3.013   1.751
    5CHTO   C92 1777   6.793   2.866   1.602
    5CHTO  H179 1778   6.801   2.857   1.493
    5CHTO   O66 1779   6.895   2.780   1.655
    5CHTO  H166 1780   6.894   2.782   1.749
    5CHTO   C93 1781   6.649   2.822   1.650
    5CHTO  H180 1782   6.651   2.822   1.760
    5CHTO   N16 1783   6.612   2.684   1.608
    5CHTO  H172 1784   6.524   2.685   1.545
    5CHTO  H173 1785   6.596   2.622   1.695
    5CHTO   C94 1786   6.545   2.930   1.602
    5CHTO  H181 1787   6.547   2.943   1.494
    5CHTO   O61 1788   6.580   3.057   1.661
    5CHTO   C95 1789   6.705   3.109   1.612
    5CHTO  H182 1790   6.698   3.124   1.504
    5CHTO  C106 1791   6.727   3.252   1.675
    5CHTO   O69 1792   6.735   3.246   1.817
    5CHTO  H169 1793   6.749   3.333   1.851
    5CHTO   O63 1794   6.394   2.897   1.652
    5CHTO   C96 1795   6.293   2.886   1.528
    5CHTO  H183 1796   6.347   2.840   1.445
    5CHTO   C98 1797   6.234   3.021   1.478
    5CHTO  H185 1798   6.187   3.074   1.563
    5CHTO   O67 1799   6.343   3.106   1.436
    5CHTO  H167 1800   6.388   3.068   1.364
    5CHTO  C102 1801   6.129   3.003   1.358
    5CHTO  H189 1802   6.190   2.982   1.269
    5CHTO   N18 1803   6.050   3.124   1.325
    5CHTO  H176 1804   5.993   3.155   1.411
    5CHTO  H177 1805   6.115   3.204   1.294
    5CHTO  C105 1806   6.037   2.878   1.379
    5CHTO  H192 1807   5.949   2.906   1.436
    5CHTO   O65 1808   6.099   2.765   1.443
    5CHTO  C100 1809   6.171   2.792   1.564
    5CHTO  H187 1810   6.105   2.843   1.635
    5CHTO  C107 1811   6.213   2.656   1.623
    5CHTO   O70 1812   6.262   2.669   1.757
    5CHTO  H170 1813   6.287   2.584   1.789
    5CHTO   O57 1814   5.997   2.835   1.228
    5CHTO   C85 1815   5.873   2.770   1.193
    5CHTO  H157 1816   5.792   2.838   1.225
    5CHTO   C83 1817   5.853   2.637   1.274
    5CHTO  H155 1818   5.839   2.664   1.379
    5CHTO   O56 1819   5.972   2.557   1.268
    5CHTO  H135 1820   5.964   2.482   1.324
    5CHTO   C81 1821   5.724   2.565   1.224
    5CHTO  H153 1822   5.641   2.634   1.232
    5CHTO   N14 1823   5.683   2.450   1.308
    5CHTO  H141 1824   5.670   2.361   1.250
    5CHTO  H142 1825   5.754   2.431   1.386
    5CHTO   C79 1826   5.742   2.528   1.071
    5CHTO  H151 1827   5.649   2.481   1.039
    5CHTO   O52 1828   5.757   2.651   0.994
    5CHTO   C86 1829   5.866   2.738   1.038
    5CHTO  H158 1830   5.958   2.685   1.006
    5CHTO   C90 1831   5.863   2.870   0.957
    5CHTO   O60 1832   5.886   2.847   0.818
    5CHTO  H138 1833   5.813   2.800   0.780
    5CHTO   O50 1834   5.851   2.437   1.044
    5CHTO   C73 1835   5.883   2.343   0.941
    5CHTO  H145 1836   5.817   2.358   0.854
    5CHTO   C74 1837   5.864   2.196   0.992
    5CHTO  H146 1838   5.760   2.187   1.026
    5CHTO   O54 1839   5.877   2.107   0.880
    5CHTO  H133 1840   5.965   2.110   0.845
    5CHTO   C75 1841   5.967   2.167   1.109
    5CHTO  H147 1842   5.943   2.233   1.194
    5CHTO   N13 1843   5.959   2.029   1.165
    5CHTO  H139 1844   5.881   1.972   1.116
    5CHTO  H140 1845   6.053   1.977   1.153
    5CHTO   C76 1846   6.116   2.205   1.062
    5CHTO  H148 1847   6.147   2.133   0.986
    5CHTO   O49 1848   6.120   2.341   1.006
    5CHTO   C77 1849   6.031   2.360   0.895
    5CHTO  H149 1850   6.053   2.287   0.818
    5CHTO   C88 1851   6.060   2.497   0.832
    5CHTO   O58 1852   5.974   2.522   0.713
    5CHTO  H136 1853   5.885   2.532   0.740
    5CHTO   O51 1854   6.216   2.207   1.191
    5CHTO   C78 1855   6.364   2.255   1.155
    5CHTO  H150 1856   6.365   2.316   1.063
    5CHTO   C80 1857   6.457   2.133   1.134
    5CHTO  H152 1858   6.449   2.067   1.223
    5CHTO   O55 1859   6.407   2.061   1.020
    5CHTO  H134 1860   6.455   1.981   1.009
    5CHTO   C84 1861   6.608   2.177   1.114
    5CHTO  H156 1862   6.615   2.230   1.019
    5CHTO   N15 1863   6.702   2.059   1.104
    5CHTO  H143 1864   6.774   2.059   1.183
    5CHTO  H144 1865   6.649   1.967   1.106
    5CHTO   C87 1866   6.650   2.275   1.226
    5CHTO  H159 1867   6.654   2.223   1.322
    5CHTO   O53 1868   6.547   2.393   1.233
    5CHTO   C82 1869   6.417   2.345   1.268
    5CHTO  H154 1870   6.424   2.289   1.361
    5CHTO   C89 1871   6.321   2.464   1.295
    5CHTO   O59 1872   6.296   2.544   1.179
    5CHTO  H137 1873   6.248   2.495   1.116
    5CHTO   O45 1874   6.795   2.342   1.195
    5CHTO   C67 1875   6.883   2.347   1.308
    5CHTO  H124 1876   6.824   2.356   1.400
    5CHTO   C65 1877   6.971   2.217   1.317
    5CHTO  H122 1878   6.982   2.182   1.214
    5CHTO   O44 1879   6.895   2.121   1.392
    5CHTO  H102 1880   6.818   2.096   1.344
    5CHTO   C63 1881   7.119   2.246   1.365
    5CHTO  H120 1882   7.175   2.285   1.280
    5CHTO   N11 1883   7.201   2.125   1.401
    5CHTO  H108 1884   7.275   2.105   1.326
    5CHTO  H109 1885   7.138   2.039   1.413
    5CHTO   C61 1886   7.121   2.361   1.472
    5CHTO  H118 1887   7.227   2.381   1.493
    5CHTO   O40 1888   7.064   2.484   1.419
    5CHTO   C68 1889   6.973   2.477   1.305
    5CHTO  H125 1890   7.033   2.477   1.211
    5CHTO   C72 1891   6.887   2.604   1.304
    5CHTO   O48 1892   6.964   2.723   1.281
    5CHTO  H105 1893   6.907   2.798   1.283
    5CHTO   O38 1894   7.055   2.323   1.596
    5CHTO   C55 1895   7.018   2.425   1.691
    5CHTO  H112 1896   6.964   2.505   1.638
    5CHTO   C56 1897   7.144   2.483   1.770
    5CHTO  H113 1898   7.198   2.396   1.812
    5CHTO   O42 1899   7.235   2.548   1.679
    5CHTO  H100 1900   7.271   2.485   1.619
    5CHTO   C57 1901   7.100   2.582   1.885
    5CHTO  H114 1902   7.061   2.671   1.836
    5CHTO   N10 1903   7.211   2.625   1.973
    5CHTO  H106 1904   7.304   2.628   1.918
    5CHTO  H107 1905   7.191   2.724   2.013
    5CHTO   C58 1906   6.986   2.519   1.970
    5CHTO  H115 1907   7.027   2.432   2.027
    5CHTO   O37 1908   6.879   2.472   1.886
    5CHTO   C59 1909   6.916   2.368   1.794
    5CHTO  H116 1910   6.958   2.284   1.848
    5CHTO   C70 1911   6.787   2.322   1.725
    5CHTO   O46 1912   6.802   2.197   1.657
    5CHTO  H103 1913   6.815   2.128   1.719
    5CHTO   O39 1914   6.922   2.632   2.079
    5CHTO   C60 1915   6.810   2.709   2.031
    5CHTO  H117 1916   6.808   2.707   1.922
    5CHTO   C62 1917   6.676   2.650   2.084
    5CHTO  H119 1918   6.670   2.546   2.045
    5CHTO   O43 1919   6.679   2.645   2.228
    5CHTO  H101 1920   6.743   2.583   2.257
    5CHTO   C66 1921   6.552   2.735   2.026
    5CHTO  H123 1922   6.552   2.727   1.918
    5CHTO   N12 1923   6.420   2.681   2.068
    5CHTO  H110 1924   6.340   2.741   2.026
    5CHTO  H111 1925   6.411   2.578   2.037
    5CHTO   C69 1926   6.569   2.885   2.062
    5CHTO  H126 1927   6.562   2.899   2.172
    5CHTO   O41 1928   6.708   2.935   2.013
    5CHTO   C64 1929   6.822   2.858   2.073
    5CHTO  H121 1930   6.817   2.865   2.184
    5CHTO   C71 1931   6.955   2.921   2.027
    5CHTO   O47 1932   6.968   3.055   2.077
    5CHTO  H104 1933   6.981   3.053   2.170
    5CHTO   O34 1934   6.458   2.974   1.994
    5CHTO   C49 1935   6.422   3.123   1.971
    5CHTO   H91 1936   6.475   3.155   1.881
    5CHTO   C47 1937   6.468   3.207   2.093
    5CHTO   H89 1938   6.447   3.313   2.068
    5CHTO   O33 1939   6.610   3.192   2.109
    5CHTO   H70 1940   6.631   3.103   2.133
    5CHTO   C45 1941   6.380   3.162   2.220
    5CHTO   H87 1942   6.387   3.053   2.230
    5CHTO    N8 1943   6.428   3.223   2.347
    5CHTO   H75 1944   6.532   3.199   2.362
    5CHTO   H76 1945   6.370   3.186   2.430
    5CHTO   C43 1946   6.225   3.193   2.190
    5CHTO   H85 1947   6.170   3.150   2.275
    5CHTO   O29 1948   6.184   3.134   2.065
    5CHTO   C50 1949   6.269   3.141   1.949
    5CHTO   H92 1950   6.238   3.056   1.885
    5CHTO   C54 1951   6.235   3.262   1.858
    5CHTO   O36 1952   6.258   3.389   1.920
    5CHTO   H72 1953   6.349   3.402   1.934
    5CHTO   O27 1954   6.193   3.333   2.190
    5CHTO   C37 1955   6.085   3.418   2.233
    5CHTO   H79 1956   6.073   3.501   2.162
    5CHTO   C38 1957   5.949   3.342   2.238
    5CHTO   H80 1958   5.963   3.251   2.299
    5CHTO   O31 1959   5.914   3.303   2.104
    5CHTO   H68 1960   5.973   3.238   2.073
    5CHTO   C39 1961   5.834   3.429   2.303
    5CHTO   H81 1962   5.809   3.506   2.231
    5CHTO    N7 1963   5.707   3.352   2.330
    5CHTO   H73 1964   5.625   3.395   2.275
    5CHTO   H74 1965   5.719   3.248   2.304
    5CHTO   C40 1966   5.883   3.501   2.434
    5CHTO   H82 1967   5.887   3.428   2.515
    5CHTO   O26 1968   6.009   3.566   2.414
    5CHTO   C41 1969   6.117   3.477   2.373
    5CHTO   H83 1970   6.126   3.394   2.446
    5CHTO   C52 1971   6.249   3.557   2.375
    5CHTO   O35 1972   6.283   3.604   2.509
    5CHTO   H71 1973   6.363   3.653   2.505
    5CHTO   O28 1974   5.797   3.611   2.472
    5CHTO   C42 1975   5.783   3.667   2.607
    5CHTO   H84 1976   5.715   3.751   2.589
    5CHTO   C44 1977   5.911   3.730   2.674
    5CHTO   H86 1978   5.990   3.737   2.598
    5CHTO   O32 1979   5.882   3.865   2.714
    5CHTO   H69 1980   5.866   3.919   2.639
    5CHTO   C48 1981   5.970   3.649   2.797
    5CHTO   H90 1982   5.915   3.676   0.029
    5CHTO    N9 1983   6.113   3.686   2.827
    5CHTO   H77 1984   6.150   3.629   0.053
    5CHTO   H78 1985   6.120   3.792   2.848
    5CHTO   C51 1986   5.949   3.495   2.771
    5CHTO   H93 1987   5.997   3.473   2.676
    5CHTO   O30 1988   5.808   3.466   2.767
    5CHTO   C46 1989   5.709   3.569   2.703
    5CHTO   H88 1990   5.638   3.512   2.644
    5CHTO   C53 1991   5.632   3.642   2.817
    5CHTO   O72 1992   5.527   3.725   2.765
    5CHTO  H199 1993   5.564   3.798   2.720
    5CHTO   O22 1994   6.001   3.408   0.015
    5CHTO   C31 1995   6.029   3.265   2.841
    5CHTO   H59 1996   6.064   3.220   0.079
    5CHTO   C29 1997   5.906   3.185   2.795
    5CHTO   H57 1998   5.864   3.236   2.707
    5CHTO   O21 1999   5.806   3.193   0.040
    5CHTO   H37 2000   5.833   3.145   0.116
    5CHTO   C27 2001   5.940   3.036   2.754
    5CHTO   H55 2002   5.970   2.981   2.845
    5CHTO    N5 2003   5.824   2.965   2.693
    5CHTO   H43 2004   5.742   2.962   2.763
    5CHTO   H44 2005   5.794   3.015   2.602
    5CHTO   C25 2006   6.063   3.037   2.657
    5CHTO   H53 2007   6.035   3.090   2.564
    5CHTO   O17 2008   6.175   3.108   2.717
    5CHTO   C32 2009   6.148   3.247   2.741
    5CHTO   H60 2010   6.121   3.295   2.646
    5CHTO   C36 2011   6.277   3.314   2.794
    5CHTO   O25 2012   6.379   3.315   2.693
    5CHTO   H40 2013   6.455   3.358   2.727
    5CHTO   O15 2014   6.111   2.891   2.619
    5CHTO   C19 2015   6.203   2.798   2.682
    5CHTO   H47 2016   6.258   2.859   2.755
    5CHTO   C20 2017   6.135   2.679   2.758
    5CHTO   H48 2018   6.072   2.619   2.691
    5CHTO   O19 2019   6.050   2.737   0.000
    5CHTO   H35 2020   5.998   2.670   0.041
    5CHTO   C21 2021   6.242   2.583   2.824
    5CHTO   H49 2022   6.292   2.637   0.047
    5CHTO    N4 2023   6.182   2.461   0.027
    5CHTO   H41 2024   6.202   2.458   0.133
    5CHTO   H42 2025   6.075   2.458   0.012
    5CHTO   C22 2026   6.352   2.547   2.721
    5CHTO   H50 2027   6.311   2.479   2.646
    5CHTO   O14 2028   6.405   2.664   2.656
    5CHTO   C23 2029   6.309   2.742   2.583
    5CHTO   H51 2030   6.263   2.677   2.507
    5CHTO   C34 2031   6.383   2.855   2.511
    5CHTO   O23 2032   6.474   2.804   2.413
    5CHTO   H38 2033   6.518   2.876   2.372
    5CHTO   O16 2034   6.468   2.489   2.785
    5CHTO   C24 2035   6.554   2.394   2.688
    5CHTO   H52 2036   6.518   2.398   2.585
    5CHTO   C26 2037   6.545   2.250   2.740
    5CHTO   H54 2038   6.578   2.248   2.847
    5CHTO   O20 2039   6.407   2.209   2.738
    5CHTO   H36 2040   6.375   2.207   2.649
    5CHTO   C30 2041   6.637   2.154   2.658
    5CHTO   H58 2042   6.595   2.141   2.557
    5CHTO    N6 2043   6.641   2.017   2.717
    5CHTO   H45 2044   6.682   2.020   2.817
    5CHTO   H46 2045   6.702   1.952   2.656
    5CHTO   C33 2046   6.780   2.214   2.641
    5CHTO   H61 2047   6.831   2.214   2.739
    5CHTO   O18 2048   6.771   2.351   2.596
    5CHTO   C28 2049   6.703   2.439   2.686
    5CHTO   H56 2050   6.744   2.432   2.787
    5CHTO   C35 2051   6.721   2.582   2.632
    5CHTO   O24 2052   6.685   2.681   2.729
    5CHTO   H39 2053   6.698   2.767   2.692
    5CHTO    O9 2054   6.865   2.136   2.555
    5CHTO   C13 2055   6.826   2.134   2.394
    5CHTO   H26 2056   6.717   2.145   2.384
    5CHTO   C11 2057   6.878   1.998   2.333
    5CHTO   H24 2058   6.819   1.917   2.379
    5CHTO    O8 2059   7.015   1.975   2.369
    5CHTO    H3 2060   7.071   2.040   2.330
    5CHTO    C9 2061   6.850   1.998   2.181
    5CHTO   H22 2062   6.742   2.016   2.171
    5CHTO    N2 2063   6.871   1.867   2.115
    5CHTO   H10 2064   6.813   1.790   2.165
    5CHTO   H11 2065   6.976   1.841   2.117
    5CHTO    C7 2066   6.927   2.118   2.114
    5CHTO   H20 2067   6.892   2.119   2.009
    5CHTO    O4 2068   6.891   2.245   2.173
    5CHTO   C14 2069   6.888   2.260   2.317
    5CHTO   H27 2070   6.821   2.346   2.336
    5CHTO   C18 2071   7.029   2.300   2.370
    5CHTO   O13 2072   7.067   2.429   2.320
    5CHTO    H7 2073   7.152   2.451   2.352
    5CHTO    O2 2074   7.087   2.100   2.121
    5CHTO    C1 2075   7.161   2.116   1.999
    5CHTO   H14 2076   7.130   2.210   1.949
    5CHTO    C2 2077   7.144   1.995   1.896
    5CHTO   H15 2078   7.145   1.904   1.957
    5CHTO    O6 2079   7.016   2.008   1.831
    5CHTO    H1 2080   6.999   1.933   1.778
    5CHTO    C3 2081   7.261   1.988   1.786
    5CHTO   H16 2082   7.249   2.071   1.715
    5CHTO    N1 2083   7.257   1.860   1.708
    5CHTO    H8 2084   7.267   1.776   1.775
    5CHTO    H9 2085   7.164   1.853   1.654
    5CHTO    C4 2086   7.400   2.012   1.855
    5CHTO   H17 2087   7.420   1.930   1.924
    5CHTO    O1 2088   7.398   2.137   1.925
    5CHTO    C5 2089   7.310   2.136   2.039
    5CHTO   H18 2090   7.338   2.054   2.105
    5CHTO   C16 2091   7.329   2.269   2.115
    5CHTO   O11 2092   7.461   2.281   2.168
    5CHTO    H5 2093   7.470   2.364   2.211
    5CHTO    O3 2094   7.507   2.026   1.759
    5CHTO    C6 2095   7.637   1.974   1.804
    5CHTO   H19 2096   7.638   1.950   1.911
    5CHTO    C8 2097   7.673   1.845   1.725
    5CHTO   H21 2098   7.664   1.866   1.618
    5CHTO    O7 2099   7.577   1.743   1.761
    5CHTO    H2 2100   7.585   1.721   1.852
    5CHTO   C12 2101   7.822   1.799   1.755
    5CHTO   H25 2102   7.823   1.764   1.861
    5CHTO    N3 2103   7.861   1.681   1.670
    5CHTO   H12 2104   7.795   1.598   1.689
    5CHTO   H13 2105   7.963   1.653   1.692
    5CHTO   C15 2106   7.920   1.920   1.742
    5CHTO   H28 2107   7.932   1.951   1.638
    5CHTO   O10 2108   8.060   1.891   1.803
    5CHTO    H4 2109   8.052   1.861   1.892
    5CHTO    O5 2110   7.875   2.032   1.821
    5CHTO   C10 2111   7.747   2.082   1.782
    5CHTO   H23 2112   7.750   2.110   1.676
    5CHTO   C17 2113   7.719   2.210   1.862
    5CHTO   O12 2114   7.811   2.314   1.829
    5CHTO    H6 2115   7.897   2.292   1.859
    6CHTO  H203 2116   6.987   4.475   2.579
    6CHTO   O82 2117   6.900   4.508   2.566
    6CHTO  C123 2118   6.882   4.630   2.640
    6CHTO  H227 2119   6.956   4.704   2.605
    6CHTO   O77 2120   6.748   4.672   2.602
    6CHTO  C118 2121   6.708   4.798   2.657
    6CHTO  H222 2122   6.783   4.874   2.630
    6CHTO  C125 2123   6.569   4.839   2.593
    6CHTO   O84 2124   6.466   4.744   2.621
    6CHTO  H205 2125   6.484   4.663   2.577
    6CHTO  C114 2126   6.701   4.788   2.810
    6CHTO  H218 2127   6.626   4.713   2.837
    6CHTO  C116 2128   6.837   4.740   0.012
    6CHTO  H220 2129   6.912   4.822   0.001
    6CHTO   O79 2130   6.821   4.718   0.154
    6CHTO  H201 2131   6.805   4.800   0.197
    6CHTO  C120 2132   6.890   4.609   2.797
    6CHTO  H224 2133   6.822   4.527   2.827
    6CHTO   N21 2134   7.027   4.572   2.841
    6CHTO  H211 2135   7.079   4.519   2.763
    6CHTO  H212 2136   7.083   4.659   0.012
    6CHTO   O75 2137   6.661   4.918   2.856
    6CHTO  C112 2138   6.548   4.918   0.116
    6CHTO  H216 2139   6.585   4.860   0.202
    6CHTO   O73 2140   6.428   4.861   0.061
    6CHTO  C113 2141   6.314   4.859   0.147
    6CHTO  H217 2142   6.339   4.801   0.239
    6CHTO  C124 2143   6.201   4.783   0.076
    6CHTO   O83 2144   6.166   4.838   2.807
    6CHTO  H204 2145   6.237   4.827   2.746
    6CHTO  C109 2146   6.273   5.003   0.187
    6CHTO  H213 2147   6.251   5.056   0.093
    6CHTO  C110 2148   6.396   5.074   0.254
    6CHTO  H214 2149   6.418   5.023   0.348
    6CHTO   O78 2150   6.359   5.210   0.286
    6CHTO  H200 2151   6.340   5.258   0.207
    6CHTO  C111 2152   6.521   5.067   0.161
    6CHTO  H215 2153   6.500   5.126   0.071
    6CHTO   N19 2154   6.643   5.125   0.223
    6CHTO  H207 2155   6.626   5.228   0.249
    6CHTO  H208 2156   6.726   5.119   0.153
    6CHTO   O74 2157   6.149   5.000   0.267
    6CHTO  C115 2158   6.149   5.020   0.429
    6CHTO  H219 2159   6.250   5.037   0.468
    6CHTO   O76 2160   6.067   5.147   0.472
    6CHTO  C122 2161   5.932   5.142   0.423
    6CHTO  H226 2162   5.936   5.154   0.315
    6CHTO  C126 2163   5.854   5.267   0.477
    6CHTO   O85 2164   5.848   5.272   0.620
    6CHTO  H206 2165   5.800   5.348   0.647
    6CHTO  C121 2166   5.858   5.006   0.460
    6CHTO  H225 2167   5.763   5.031   0.513
    6CHTO   O81 2168   5.821   4.938   0.339
    6CHTO  H202 2169   5.765   4.865   0.359
    6CHTO  C119 2170   5.944   4.915   0.552
    6CHTO  H223 2171   5.957   4.973   0.644
    6CHTO  C117 2172   6.089   4.888   0.493
    6CHTO  H221 2173   6.092   4.814   0.413
    6CHTO   N20 2174   6.179   4.833   0.600
    6CHTO  H209 2175   6.136   4.742   0.641
    6CHTO  H210 2176   6.276   4.812   0.558
    6CHTO   O80 2177   5.865   4.789   0.604
    6CHTO  C103 2178   5.816   4.782   0.754
    6CHTO  H190 2179   5.902   4.786   0.822
    6CHTO  C101 2180   5.709   4.888   0.799
    6CHTO  H188 2181   5.628   4.889   0.727
    6CHTO   O68 2182   5.775   5.030   0.801
    6CHTO  H168 2183   5.710   5.095   0.817
    6CHTO   C99 2184   5.649   4.852   0.944
    6CHTO  H186 2185   5.729   4.864   1.020
    6CHTO   N17 2186   5.538   4.945   0.985
    6CHTO  H174 2187   5.571   5.047   0.978
    6CHTO  H175 2188   5.506   4.921   1.086
    6CHTO   C97 2189   5.606   4.703   0.952
    6CHTO  H184 2190   5.515   4.691   0.891
    6CHTO   O64 2191   5.713   4.620   0.904
    6CHTO  C104 2192   5.752   4.639   0.768
    6CHTO  H191 2193   5.667   4.631   0.700
    6CHTO  C108 2194   5.850   4.528   0.729
    6CHTO   O71 2195   5.789   4.398   0.737
    6CHTO  H171 2196   5.774   4.375   0.827
    6CHTO   O62 2197   5.574   4.667   1.089
    6CHTO   C91 2198   5.592   4.534   1.144
    6CHTO  H178 2199   5.535   4.532   1.237
    6CHTO   C92 2200   5.742   4.514   1.185
    6CHTO  H179 2201   5.807   4.550   1.104
    6CHTO   O66 2202   5.769   4.604   1.294
    6CHTO  H166 2203   5.719   4.581   1.370
    6CHTO   C93 2204   5.782   4.367   1.225
    6CHTO  H180 2205   5.742   4.347   1.325
    6CHTO   N16 2206   5.929   4.347   1.236
    6CHTO  H172 2207   5.969   4.412   1.312
    6CHTO  H173 2208   5.976   4.367   1.141
    6CHTO   C94 2209   5.718   4.264   1.125
    6CHTO  H181 2210   5.759   4.274   1.024
    6CHTO   O61 2211   5.576   4.287   1.116
    6CHTO   C95 2212   5.540   4.412   1.056
    6CHTO  H182 2213   5.582   4.416   0.955
    6CHTO  C106 2214   5.384   4.411   1.042
    6CHTO   O69 2215   5.337   4.523   0.966
    6CHTO  H169 2216   5.243   4.521   0.962
    6CHTO   O63 2217   5.736   4.113   1.177
    6CHTO   C96 2218   5.690   4.008   1.068
    6CHTO  H183 2219   5.656   4.063   0.980
    6CHTO   C98 2220   5.577   3.913   1.113
    6CHTO  H185 2221   5.605   3.861   1.206
    6CHTO   O67 2222   5.463   3.995   1.146
    6CHTO  H167 2223   5.394   3.942   1.180
    6CHTO  C102 2224   5.539   3.808   0.997
    6CHTO  H189 2225   5.489   3.866   0.918
    6CHTO   N18 2226   5.440   3.704   1.038
    6CHTO  H176 2227   5.418   3.639   0.954
    6CHTO  H177 2228   5.349   3.751   1.072
    6CHTO  C105 2229   5.667   3.745   0.935
    6CHTO  H192 2230   5.703   3.664   1.000
    6CHTO   O65 2231   5.776   3.837   0.914
    6CHTO  C100 2232   5.813   3.921   1.024
    6CHTO  H187 2233   5.844   3.857   1.108
    6CHTO  C107 2234   5.935   4.006   0.982
    6CHTO   O70 2235   5.907   4.088   0.867
    6CHTO  H170 2236   5.895   4.034   0.791
    6CHTO   O57 2237   5.615   3.682   0.787
    6CHTO   C85 2238   5.677   3.698   0.658
    6CHTO  H157 2239   5.604   3.651   0.588
    6CHTO   C83 2240   5.806   3.611   0.644
    6CHTO  H155 2241   5.778   3.508   0.665
    6CHTO   O56 2242   5.903   3.647   0.745
    6CHTO  H135 2243   5.933   3.735   0.732
    6CHTO   C81 2244   5.858   3.620   0.498
    6CHTO  H153 2245   5.778   3.588   0.432
    6CHTO   N14 2246   5.969   3.525   0.471
    6CHTO  H141 2247   5.939   3.451   0.400
    6CHTO  H142 2248   6.055   3.576   0.432
    6CHTO   C79 2249   5.892   3.771   0.462
    6CHTO  H151 2250   5.916   3.773   0.356
    6CHTO   O52 2251   5.774   3.855   0.481
    6CHTO   C86 2252   5.713   3.846   0.614
    6CHTO  H158 2253   5.789   3.892   0.680
    6CHTO   C90 2254   5.589   3.937   0.621
    6CHTO   O60 2255   5.625   4.075   0.605
    6CHTO  H138 2256   5.548   4.128   0.609
    6CHTO   O50 2257   6.003   3.826   0.535
    6CHTO   C73 2258   6.135   3.859   0.487
    6CHTO  H145 2259   6.155   3.805   0.393
    6CHTO   C74 2260   6.243   3.818   0.592
    6CHTO  H146 2261   6.229   3.711   0.613
    6CHTO   O54 2262   6.372   3.831   0.529
    6CHTO  H133 2263   6.439   3.801   0.587
    6CHTO   C75 2264   6.227   3.906   0.722
    6CHTO  H147 2265   6.127   3.886   0.765
    6CHTO   N13 2266   6.324   3.874   0.829
    6CHTO  H139 2267   6.312   3.771   0.860
    6CHTO  H140 2268   6.425   3.888   0.793
    6CHTO   C76 2269   6.231   4.061   0.682
    6CHTO  H148 2270   6.330   4.084   0.643
    6CHTO   O49 2271   6.130   4.088   0.580
    6CHTO   C77 2272   6.147   4.013   0.459
    6CHTO  H149 2273   6.245   4.034   0.417
    6CHTO   C88 2274   6.045   4.066   0.357
    6CHTO   O58 2275   6.061   4.000   0.227
    6CHTO  H136 2276   5.996   4.033   0.167
    6CHTO   O51 2277   6.189   4.156   0.806
    6CHTO   C78 2278   6.286   4.283   0.832
    6CHTO  H150 2279   6.387   4.268   0.788
    6CHTO   C80 2280   6.300   4.304   0.984
    6CHTO  H152 2281   6.198   4.303   1.030
    6CHTO   O55 2282   6.372   4.190   1.036
    6CHTO  H134 2283   6.320   4.113   1.031
    6CHTO   C84 2284   6.372   4.440   1.022
    6CHTO  H156 2285   6.476   4.431   0.991
    6CHTO   N15 2286   6.372   4.465   1.171
    6CHTO  H143 2287   6.472   4.474   1.207
    6CHTO  H144 2288   6.317   4.553   1.196
    6CHTO   C87 2289   6.307   4.557   0.944
    6CHTO  H159 2290   6.205   4.572   0.979
    6CHTO   O53 2291   6.306   4.523   0.796
    6CHTO   C82 2292   6.224   4.409   0.767
    6CHTO  H154 2293   6.123   4.425   0.804
    6CHTO   C89 2294   6.215   4.394   0.614
    6CHTO   O59 2295   6.145   4.503   0.553
    6CHTO  H137 2296   6.141   4.490   0.460
    6CHTO   O45 2297   6.388   4.705   0.966
    6CHTO   C67 2298   6.525   4.714   0.924
    6CHTO  H124 2299   6.579   4.625   0.958
    6CHTO   C65 2300   6.541   4.729   0.768
    6CHTO  H122 2301   6.441   4.720   0.726
    6CHTO   O44 2302   6.620   4.618   0.721
    6CHTO  H102 2303   6.709   4.628   0.749
    6CHTO   C63 2304   6.591   4.872   0.727
    6CHTO  H120 2305   6.519   4.946   0.763
    6CHTO   N11 2306   6.594   4.903   0.579
    6CHTO  H108 2307   6.577   4.814   0.522
    6CHTO  H109 2308   6.520   4.976   0.554
    6CHTO   C61 2309   6.727   4.902   0.801
    6CHTO  H118 2310   6.744   5.010   0.792
    6CHTO   O40 2311   6.722   4.871   0.944
    6CHTO   C68 2312   6.593   4.836   1.001
    6CHTO  H125 2313   6.527   4.924   0.993
    6CHTO   C72 2314   6.611   4.806   1.152
    6CHTO   O48 2315   6.654   4.921   1.225
    6CHTO  H105 2316   6.664   4.898   1.316
    6CHTO   O38 2317   6.838   4.827   0.747
    6CHTO   C55 2318   6.968   4.883   0.774
    6CHTO  H112 2319   6.961   4.959   0.854
    6CHTO   C56 2320   7.029   4.944   0.641
    6CHTO  H113 2321   7.031   4.863   0.566
    6CHTO   O42 2322   6.941   5.045   0.589
    6CHTO  H100 2323   6.933   5.116   0.650
    6CHTO   C57 2324   7.175   4.999   0.667
    6CHTO  H114 2325   7.163   5.087   0.731
    6CHTO   N10 2326   7.245   5.044   0.544
    6CHTO  H106 2327   7.213   4.986   0.459
    6CHTO  H107 2328   7.223   5.148   0.525
    6CHTO   C58 2329   7.260   4.894   0.743
    6CHTO  H115 2330   7.289   4.812   0.673
    6CHTO   O37 2331   7.191   4.839   0.857
    6CHTO   C59 2332   7.065   4.775   0.828
    6CHTO  H116 2333   7.080   4.695   0.756
    6CHTO   C70 2334   7.014   4.715   0.960
    6CHTO   O46 2335   6.904   4.625   0.943
    6CHTO  H103 2336   6.828   4.673   0.915
    6CHTO   O39 2337   7.391   4.965   0.807
    6CHTO   C60 2338   7.516   4.896   0.789
    6CHTO  H117 2339   7.498   4.789   0.777
    6CHTO   C62 2340   7.591   4.946   0.662
    6CHTO  H119 2341   7.528   4.916   0.575
    6CHTO   O43 2342   7.599   5.090   0.665
    6CHTO  H101 2343   7.639   5.122   0.587
    6CHTO   C66 2344   7.735   4.875   0.650
    6CHTO  H123 2345   7.721   4.767   0.650
    6CHTO   N12 2346   7.803   4.908   0.522
    6CHTO  H110 2347   7.819   5.014   0.515
    6CHTO  H111 2348   7.896   4.854   0.515
    6CHTO   C69 2349   7.819   4.911   0.776
    6CHTO  H126 2350   7.829   5.021   0.785
    6CHTO   O41 2351   7.743   4.854   0.900
    6CHTO   C64 2352   7.602   4.913   0.917
    6CHTO  H121 2353   7.610   5.021   0.940
    6CHTO   C71 2354   7.534   4.844   1.039
    6CHTO   O47 2355   7.527   4.702   1.026
    6CHTO  H104 2356   7.614   4.665   1.030
    6CHTO   O34 2357   7.965   4.848   0.775
    6CHTO   C49 2358   8.102   4.867   0.703
    6CHTO   H91 2359   8.091   4.824   0.604
    6CHTO   C47 2360   8.210   4.790   0.783
    6CHTO   H89 2361   8.302   4.800   0.721
    6CHTO   O33 2362   8.176   4.651   0.792
    6CHTO   H70 2363   8.176   4.612   0.707
    6CHTO   C45 2364   8.231   4.855   0.930
    6CHTO   H87 2365   8.161   4.806   0.999
    6CHTO    N8 2366   8.369   4.826   0.975
    6CHTO   H75 2367   8.384   4.863   1.075
    6CHTO   H76 2368   8.387   4.719   0.973
    6CHTO   C43 2369   8.187   5.011   0.930
    6CHTO   H85 2370   8.080   5.010   0.946
    6CHTO   O29 2371   8.221   5.071   0.803
    6CHTO   C50 2372   8.147   5.016   0.692
    6CHTO   H92 2373   8.058   5.078   0.676
    6CHTO   C54 2374   8.230   5.038   0.562
    6CHTO   O36 2375   8.251   5.177   0.534
    6CHTO   H72 2376   8.310   5.213   0.597
    6CHTO   O27 2377   8.238   5.087   1.041
    6CHTO   C37 2378   8.325   5.187   1.097
    6CHTO   H79 2379   8.430   5.161   1.077
    6CHTO   C38 2380   8.298   5.326   1.033
    6CHTO   H80 2381   8.189   5.344   1.036
    6CHTO   O31 2382   8.340   5.318   0.895
    6CHTO   H68 2383   8.318   5.397   0.850
    6CHTO   C39 2384   8.372   5.443   1.108
    6CHTO   H81 2385   8.479   5.431   1.090
    6CHTO    N7 2386   8.334   5.579   1.056
    6CHTO   H73 2387   8.229   5.597   1.070
    6CHTO   H74 2388   8.392   5.655   1.107
    6CHTO   C40 2389   8.349   5.432   1.264
    6CHTO   H82 2390   8.246   5.458   1.289
    6CHTO   O26 2391   8.384   5.301   1.309
    6CHTO   C41 2392   8.304   5.194   1.251
    6CHTO   H83 2393   8.197   5.212   1.273
    6CHTO   C52 2394   8.346   5.063   1.320
    6CHTO   O35 2395   8.315   5.062   1.466
    6CHTO   H71 2396   8.222   5.063   1.479
    6CHTO   O28 2397   8.439   5.518   1.337
    6CHTO   C42 2398   8.412   5.563   1.474
    6CHTO   H84 2399   8.506   5.609   1.504
    6CHTO   C44 2400   8.382   5.453   1.581
    6CHTO   H86 2401   8.290   5.400   1.553
    6CHTO   O32 2402   8.491   5.359   1.579
    6CHTO   H69 2403   8.491   5.311   1.498
    6CHTO   C48 2404   8.361   5.514   1.726
    6CHTO   H90 2405   8.457   5.555   1.758
    6CHTO    N9 2406   8.324   5.411   1.829
    6CHTO   H77 2407   8.403   5.338   1.837
    6CHTO   H78 2408   8.231   5.364   1.801
    6CHTO   C51 2409   8.257   5.632   1.721
    6CHTO   H93 2410   8.158   5.591   1.698
    6CHTO   O30 2411   8.298   5.728   1.622
    6CHTO   C46 2412   8.302   5.674   1.482
    6CHTO   H88 2413   8.205   5.630   1.457
    6CHTO   C53 2414   8.334   5.791   1.387
    6CHTO   O72 2415   8.229   5.889   1.390
    6CHTO  H199 2416   8.249   5.958   1.331
    6CHTO   O22 2417   8.255   5.706   1.845
    6CHTO   C31 2418   8.139   5.786   1.887
    6CHTO   H59 2419   8.170   5.838   1.981
    6CHTO   C29 2420   8.097   5.897   1.787
    6CHTO   H57 2421   8.073   5.848   1.692
    6CHTO   O21 2422   8.212   5.981   1.763
    6CHTO   H37 2423   8.279   5.933   1.720
    6CHTO   C27 2424   7.972   5.979   1.837
    6CHTO   H55 2425   8.001   6.035   1.927
    6CHTO    N5 2426   7.924   6.075   1.735
    6CHTO   H43 2427   8.002   6.144   1.710
    6CHTO   H44 2428   7.891   6.022   1.647
    6CHTO   C25 2429   7.858   5.880   1.881
    6CHTO   H53 2430   7.820   5.826   1.792
    6CHTO   O17 2431   7.909   5.782   1.975
    6CHTO   C32 2432   8.016   5.699   1.927
    6CHTO   H60 2433   7.982   5.644   1.839
    6CHTO   C36 2434   8.055   5.598   2.038
    6CHTO   O25 2435   7.948   5.508   2.069
    6CHTO   H40 2436   7.934   5.450   1.996
    6CHTO   O15 2437   7.736   5.957   1.952
    6CHTO   C19 2438   7.619   6.043   1.966
    6CHTO   H47 2439   7.599   6.042   2.074
    6CHTO   C20 2440   7.641   6.191   1.921
    6CHTO   H48 2441   7.674   6.198   1.816
    6CHTO   O19 2442   7.747   6.244   2.004
    6CHTO   H35 2443   7.829   6.205   1.982
    6CHTO   C21 2444   7.510   6.278   1.936
    6CHTO   H49 2445   7.485   6.286   2.042
    6CHTO    N4 2446   7.525   6.417   1.885
    6CHTO   H41 2447   7.552   6.415   1.780
    6CHTO   H42 2448   7.602   6.468   1.940
    6CHTO   C22 2449   7.391   6.203   1.868
    6CHTO   H50 2450   7.409   6.200   1.760
    6CHTO   O14 2451   7.378   6.071   1.921
    6CHTO   C23 2452   7.491   5.985   1.897
    6CHTO   H51 2453   7.504   5.977   1.788
    6CHTO   C34 2454   7.456   5.845   1.949
    6CHTO   O23 2455   7.438   5.842   2.091
    6CHTO   H38 2456   7.361   5.890   2.115
    6CHTO   O16 2457   7.265   6.265   1.898
    6CHTO   C24 2458   7.155   6.251   1.784
    6CHTO   H52 2459   7.180   6.173   1.712
    6CHTO   C26 2460   7.143   6.386   1.711
    6CHTO   H54 2461   7.141   6.468   1.788
    6CHTO   O20 2462   7.261   6.404   1.631
    6CHTO   H36 2463   7.336   6.418   1.686
    6CHTO   C30 2464   7.012   6.397   1.627
    6CHTO   H58 2465   7.014   6.325   1.544
    6CHTO    N6 2466   6.997   6.532   1.565
    6CHTO   H45 2467   6.991   6.608   1.642
    6CHTO   H46 2468   6.908   6.536   1.505
    6CHTO   C33 2469   6.892   6.359   1.719
    6CHTO   H61 2470   6.892   6.424   1.808
    6CHTO   O18 2471   6.912   6.223   1.761
    6CHTO   C28 2472   7.022   6.207   1.852
    6CHTO   H56 2473   7.006   6.267   1.942
    6CHTO   C35 2474   7.029   6.057   1.892
    6CHTO   O24 2475   6.912   6.013   1.961
    6CHTO   H39 2476   6.839   6.012   1.903
    6CHTO    O9 2477   6.762   6.376   1.658
    6CHTO   C13 2478   6.647   6.426   1.767
    6CHTO   H26 2479   6.688   6.514   1.821
    6CHTO   C11 2480   6.609   6.308   1.868
    6CHTO   H24 2481   6.683   6.309   1.950
    6CHTO    O8 2482   6.618   6.179   1.803
    6CHTO    H3 2483   6.558   6.174   1.732
    6CHTO    C9 2484   6.468   6.334   1.926
    6CHTO   H22 2485   6.470   6.438   1.962
    6CHTO    N2 2486   6.433   6.253   2.046
    6CHTO   H10 2487   6.508   6.178   2.065
    6CHTO   H11 2488   6.421   6.317   2.132
    6CHTO    C7 2489   6.363   6.326   1.808
    6CHTO   H20 2490   6.278   6.387   1.844
    6CHTO    O4 2491   6.413   6.381   1.684
    6CHTO   C14 2492   6.517   6.481   1.692
    6CHTO   H27 2493   6.478   6.567   1.750
    6CHTO   C18 2494   6.546   6.532   1.549
    6CHTO   O13 2495   6.636   6.643   1.550
    6CHTO    H7 2496   6.594   6.718   1.588
    6CHTO    O2 2497   6.311   6.170   1.776
    6CHTO    C1 2498   6.176   6.148   1.730
    6CHTO   H14 2499   6.180   6.062   1.660
    6CHTO    C2 2500   6.105   6.269   1.656
    6CHTO   H15 2501   6.111   6.356   1.723
    6CHTO    O6 2502   6.178   6.297   1.535
    6CHTO    H1 2503   6.174   6.223   1.476
    6CHTO    C3 2504   5.951   6.238   1.624
    6CHTO   H16 2505   5.946   6.159   1.547
    6CHTO    N1 2506   5.878   6.357   1.568
    6CHTO    H8 2507   5.882   6.438   1.639
    6CHTO    H9 2508   5.924   6.388   1.475
    6CHTO    C4 2509   5.880   6.178   1.751
    6CHTO   H17 2510   5.867   6.257   1.825
    6CHTO    O1 2511   5.955   6.069   1.806
    6CHTO    C5 2512   6.089   6.099   1.849
    6CHTO   H18 2513   6.088   6.176   1.926
    6CHTO   C16 2514   6.139   5.966   1.912
    6CHTO   O11 2515   6.267   5.976   1.974
    6CHTO    H5 2516   6.291   5.893   2.010
    6CHTO    O3 2517   5.752   6.120   1.715
    6CHTO    C6 2518   5.654   6.109   1.823
    6CHTO   H19 2519   5.697   6.129   1.922
    6CHTO    C8 2520   5.538   6.212   1.800
    6CHTO   H21 2521   5.499   6.198   1.699
    6CHTO    O7 2522   5.595   6.344   1.811
    6CHTO    H2 2523   5.626   6.360   1.898
    6CHTO   C12 2524   5.421   6.188   1.904
    6CHTO   H25 2525   5.462   6.212   2.004
    6CHTO    N3 2526   5.306   6.283   1.881
    6CHTO   H12 2527   5.340   6.385   1.890
    6CHTO   H13 2528   5.227   6.262   1.952
    6CHTO   C15 2529   5.379   6.037   1.901
    6CHTO   H28 2530   5.332   6.010   1.806
    6CHTO   O10 2531   5.285   5.998   2.018
    6CHTO    H4 2532   5.253   5.911   2.006
    6CHTO    O5 2533   5.493   5.953   1.925
    6CHTO   C10 2534   5.597   5.964   1.827
    6CHTO   H23 2535   5.557   5.938   1.729
    6CHTO   C17 2536   5.706   5.862   1.862
    6CHTO   O12 2537   5.658   5.728   1.859
    6CHTO    H6 2538   5.638   5.703   1.770
    7CHTO  H203 2539   5.085   2.295   1.980
    7CHTO   O82 2540   5.147   2.262   1.918
    7CHTO  C123 2541   5.264   2.345   1.913
    7CHTO  H227 2542   5.232   2.451   1.910
    7CHTO   O77 2543   5.329   2.317   2.041
    7CHTO  C118 2544   5.452   2.389   2.062
    7CHTO  H222 2545   5.433   2.497   2.050
    7CHTO  C125 2546   5.501   2.362   2.210
    7CHTO   O84 2547   5.528   2.224   2.234
    7CHTO  H205 2548   5.557   2.212   2.322
    7CHTO  C114 2549   5.554   2.342   1.956
    7CHTO  H218 2550   5.566   2.234   1.965
    7CHTO  C116 2551   5.501   2.372   1.813
    7CHTO  H220 2552   5.496   2.483   1.798
    7CHTO   O79 2553   5.596   2.322   1.716
    7CHTO  H201 2554   5.676   2.371   1.721
    7CHTO  C120 2555   5.358   2.308   1.792
    7CHTO  H224 2556   5.372   2.198   1.788
    7CHTO   N21 2557   5.298   2.349   1.661
    7CHTO  H211 2558   5.191   2.350   1.666
    7CHTO  H212 2559   5.332   2.282   1.583
    7CHTO   O75 2560   5.676   2.411   1.988
    7CHTO  C112 2561   5.805   2.317   1.963
    7CHTO  H216 2562   5.785   2.251   1.877
    7CHTO   O73 2563   5.828   2.243   2.083
    7CHTO  C113 2564   5.933   2.146   2.073
    7CHTO  H217 2565   5.909   2.073   1.992
    7CHTO  C124 2566   5.940   2.067   2.205
    7CHTO   O83 2567   5.817   2.001   2.238
    7CHTO  H204 2568   5.800   1.932   2.176
    7CHTO  C109 2569   6.068   2.216   2.043
    7CHTO  H213 2570   6.091   2.279   2.130
    7CHTO  C110 2571   6.054   2.307   1.916
    7CHTO  H214 2572   6.040   2.243   1.829
    7CHTO   O78 2573   6.177   2.379   1.894
    7CHTO  H200 2574   6.195   2.436   1.967
    7CHTO  C111 2575   5.933   2.404   1.931
    7CHTO  H215 2576   5.951   2.470   2.017
    7CHTO   N19 2577   5.909   2.491   1.813
    7CHTO  H207 2578   5.997   2.552   1.795
    7CHTO  H208 2579   5.825   2.556   1.832
    7CHTO   O74 2580   6.175   2.117   2.027
    7CHTO  C115 2581   6.310   2.169   2.084
    7CHTO  H219 2582   6.325   2.275   2.062
    7CHTO   O76 2583   6.314   2.161   2.245
    7CHTO  C122 2584   6.325   2.029   2.298
    7CHTO  H226 2585   6.238   1.971   2.268
    7CHTO  C126 2586   6.318   2.041   2.454
    7CHTO   O85 2587   6.313   1.915   2.522
    7CHTO  H206 2588   6.393   1.869   2.511
    7CHTO  C121 2589   6.459   1.964   2.245
    7CHTO  H225 2590   6.543   2.033   2.269
    7CHTO   O81 2591   6.487   1.837   2.305
    7CHTO  H202 2592   6.502   1.848   2.397
    7CHTO  C119 2593   6.448   1.950   2.090
    7CHTO  H223 2594   6.543   1.908   2.058
    7CHTO  C117 2595   6.427   2.088   2.015
    7CHTO  H221 2596   6.396   2.079   1.912
    7CHTO   N20 2597   6.553   2.170   2.010
    7CHTO  H209 2598   6.537   2.259   1.952
    7CHTO  H210 2599   6.585   2.195   2.110
    7CHTO   O80 2600   6.349   1.838   2.045
    7CHTO  C103 2601   6.371   1.761   1.902
    7CHTO  H190 2602   6.348   1.827   1.818
    7CHTO  C101 2603   6.512   1.693   1.877
    7CHTO  H188 2604   6.540   1.638   1.967
    7CHTO   O68 2605   6.619   1.804   1.852
    7CHTO  H168 2606   6.627   1.858   1.928
    7CHTO   C99 2607   6.509   1.591   1.753
    7CHTO  H186 2608   6.496   1.650   1.660
    7CHTO   N17 2609   6.636   1.512   1.736
    7CHTO  H174 2610   6.688   1.543   1.646
    7CHTO  H175 2611   6.699   1.521   1.823
    7CHTO   C97 2612   6.385   1.497   1.760
    7CHTO  H184 2613   6.401   1.427   1.844
    7CHTO   O64 2614   6.266   1.575   1.777
    7CHTO  C104 2615   6.261   1.648   1.901
    7CHTO  H191 2616   6.279   1.581   1.986
    7CHTO  C108 2617   6.121   1.706   1.921
    7CHTO   O71 2618   6.024   1.601   1.936
    7CHTO  H171 2619   5.939   1.639   1.948
    7CHTO   O62 2620   6.368   1.422   1.637
    7CHTO   C91 2621   6.264   1.322   1.623
    7CHTO  H178 2622   6.305   1.245   1.558
    7CHTO   C92 2623   6.144   1.386   1.544
    7CHTO  H179 2624   6.129   1.489   1.578
    7CHTO   O66 2625   6.185   1.397   1.406
    7CHTO  H166 2626   6.255   1.459   1.397
    7CHTO   C93 2627   6.009   1.305   1.555
    7CHTO  H180 2628   6.024   1.208   1.506
    7CHTO   N16 2629   5.892   1.368   1.487
    7CHTO  H172 2630   5.853   1.303   1.411
    7CHTO  H173 2631   5.919   1.464   1.445
    7CHTO   C94 2632   5.984   1.280   1.708
    7CHTO  H181 2633   5.995   1.372   1.766
    7CHTO   O61 2634   6.085   1.189   1.750
    7CHTO   C95 2635   6.216   1.247   1.757
    7CHTO  H182 2636   6.218   1.318   1.839
    7CHTO  C106 2637   6.318   1.133   1.796
    7CHTO   O69 2638   6.319   1.027   1.700
    7CHTO  H169 2639   6.379   0.961   1.728
    7CHTO   O63 2640   5.844   1.211   1.741
    7CHTO   C96 2641   5.767   1.285   1.851
    7CHTO  H183 2642   5.766   1.391   1.824
    7CHTO   C98 2643   5.830   1.273   1.994
    7CHTO  H185 2644   5.936   1.300   1.991
    7CHTO   O67 2645   5.768   1.371   2.078
    7CHTO  H167 2646   5.791   1.458   2.051
    7CHTO  C102 2647   5.807   1.128   2.060
    7CHTO  H189 2648   5.809   1.145   2.169
    7CHTO   N18 2649   5.916   1.032   2.033
    7CHTO  H176 2650   5.958   0.995   2.125
    7CHTO  H177 2651   5.881   0.949   1.972
    7CHTO  C105 2652   5.666   1.073   2.022
    7CHTO  H192 2653   5.675   0.998   1.944
    7CHTO   O65 2654   5.575   1.174   1.974
    7CHTO  C100 2655   5.617   1.230   1.848
    7CHTO  H187 2656   5.609   1.150   1.773
    7CHTO  C107 2657   5.514   1.339   1.809
    7CHTO   O70 2658   5.539   1.387   1.676
    7CHTO  H170 2659   5.477   1.454   1.655
    7CHTO   O57 2660   5.610   1.007   2.156
    7CHTO   C85 2661   5.582   0.866   2.157
    7CHTO  H157 2662   5.635   0.821   2.070
    7CHTO   C83 2663   5.430   0.840   2.131
    7CHTO  H155 2664   5.405   0.881   2.033
    7CHTO   O56 2665   5.352   0.913   2.228
    7CHTO  H135 2666   5.261   0.906   2.208
    7CHTO   C81 2667   5.404   0.686   2.129
    7CHTO  H153 2668   5.464   0.643   2.049
    7CHTO   N14 2669   5.264   0.652   2.092
    7CHTO  H141 2670   5.197   0.685   2.169
    7CHTO  H142 2671   5.255   0.546   2.080
    7CHTO   C79 2672   5.450   0.620   2.265
    7CHTO  H151 2673   5.447   0.511   2.250
    7CHTO   O52 2674   5.590   0.652   2.294
    7CHTO   C86 2675   5.620   0.795   2.292
    7CHTO  H158 2676   5.563   0.837   2.377
    7CHTO   C90 2677   5.769   0.818   2.326
    7CHTO   O60 2678   5.797   0.778   2.461
    7CHTO  H138 2679   5.791   0.685   2.469
    7CHTO   O50 2680   5.368   0.651   2.379
    7CHTO   C73 2681   5.372   0.570   2.498
    7CHTO  H145 2682   5.476   0.536   2.516
    7CHTO   C74 2683   5.282   0.444   2.481
    7CHTO  H146 2684   5.314   0.392   2.389
    7CHTO   O54 2685   5.309   0.352   2.589
    7CHTO  H133 2686   5.284   0.390   2.671
    7CHTO   C75 2687   5.130   0.488   2.472
    7CHTO  H147 2688   5.119   0.557   2.387
    7CHTO   N13 2689   5.036   0.376   2.448
    7CHTO  H139 2690   4.935   0.414   2.441
    7CHTO  H140 2691   5.041   0.306   2.530
    7CHTO   C76 2692   5.096   0.571   2.605
    7CHTO  H148 2693   5.113   0.504   2.690
    7CHTO   O49 2694   5.185   0.687   2.616
    7CHTO   C77 2695   5.324   0.652   2.623
    7CHTO  H149 2696   5.340   0.591   2.712
    7CHTO   C88 2697   5.407   0.779   2.647
    7CHTO   O58 2698   5.377   0.888   2.547
    7CHTO  H136 2699   5.288   0.918   2.558
    7CHTO   O51 2700   4.948   0.630   2.604
    7CHTO   C78 2701   4.897   0.656   2.753
    7CHTO  H150 2702   4.982   0.669   2.824
    7CHTO   C80 2703   4.811   0.537   2.802
    7CHTO  H152 2704   4.727   0.523   2.730
    7CHTO   O55 2705   4.893   0.420   2.798
    7CHTO  H134 2706   4.842   0.343   2.817
    7CHTO   C84 2707   4.753   0.564   0.088
    7CHTO  H156 2708   4.837   0.569   0.157
    7CHTO   N15 2709   4.664   0.453   0.137
    7CHTO  H143 2710   4.719   0.361   0.142
    7CHTO  H144 2711   4.581   0.440   0.071
    7CHTO   C87 2712   4.679   0.700   0.093
    7CHTO  H159 2713   4.586   0.694   0.036
    7CHTO   O53 2714   4.772   0.813   0.032
    7CHTO   C82 2715   4.815   0.786   2.756
    7CHTO  H154 2716   4.729   0.779   2.690
    7CHTO   C89 2717   4.901   0.904   2.706
    7CHTO   O59 2718   4.825   1.025   2.697
    7CHTO  H137 2719   4.763   1.019   2.627
    7CHTO   O45 2720   4.637   0.739   0.254
    7CHTO   C67 2721   4.734   0.817   0.326
    7CHTO  H124 2722   4.827   0.818   0.271
    7CHTO   C65 2723   4.684   0.965   0.343
    7CHTO  H122 2724   4.575   0.961   0.337
    7CHTO   O44 2725   4.734   1.039   0.230
    7CHTO  H102 2726   4.695   1.008   0.151
    7CHTO   C63 2727   4.714   1.024   0.487
    7CHTO  H120 2728   4.645   0.979   0.558
    7CHTO   N11 2729   4.682   1.170   0.507
    7CHTO  H108 2730   4.765   1.221   0.551
    7CHTO  H109 2731   4.657   1.216   0.413
    7CHTO   C61 2732   4.858   0.980   0.531
    7CHTO  H118 2733   4.871   1.015   0.635
    7CHTO   O40 2734   4.873   0.835   0.534
    7CHTO   C68 2735   4.770   0.754   0.467
    7CHTO  H125 2736   4.680   0.749   0.532
    7CHTO   C72 2737   4.824   0.610   0.455
    7CHTO   O48 2738   4.852   0.550   0.582
    7CHTO  H105 2739   4.886   0.464   0.569
    7CHTO   O38 2740   4.960   1.036   0.446
    7CHTO   C55 2741   5.095   1.031   0.497
    7CHTO  H112 2742   5.106   0.947   0.567
    7CHTO   C56 2743   5.132   1.171   0.564
    7CHTO  H113 2744   5.107   1.250   0.491
    7CHTO   O42 2745   5.049   1.193   0.679
    7CHTO  H100 2746   4.959   1.203   0.653
    7CHTO   C57 2747   5.286   1.178   0.602
    7CHTO  H114 2748   5.302   1.108   0.684
    7CHTO   N10 2749   5.328   1.312   0.650
    7CHTO  H106 2750   5.359   1.374   0.567
    7CHTO  H107 2751   5.411   1.302   0.719
    7CHTO   C58 2752   5.371   1.131   0.481
    7CHTO  H115 2753   5.359   1.205   0.397
    7CHTO   O37 2754   5.328   1.001   0.437
    7CHTO   C59 2755   5.196   1.002   0.381
    7CHTO  H116 2756   5.189   1.078   0.303
    7CHTO   C70 2757   5.173   0.865   0.317
    7CHTO   O46 2758   5.063   0.862   0.226
    7CHTO  H103 2759   5.082   0.915   0.151
    7CHTO   O39 2760   5.530   1.121   0.521
    7CHTO   C60 2761   5.616   1.057   0.425
    7CHTO  H117 2762   5.588   0.952   0.416
    7CHTO   C62 2763   5.611   1.121   0.283
    7CHTO  H119 2764   5.506   1.110   0.248
    7CHTO   O43 2765   5.641   1.262   0.292
    7CHTO  H101 2766   5.729   1.275   0.320
    7CHTO   C66 2767   5.707   1.040   0.184
    7CHTO  H123 2768   5.675   0.936   0.182
    7CHTO   N12 2769   5.696   1.088   0.044
    7CHTO  H110 2770   5.759   1.028   2.837
    7CHTO  H111 2771   5.722   1.192   0.038
    7CHTO   C69 2772   5.854   1.041   0.236
    7CHTO  H126 2773   5.896   1.144   0.231
    7CHTO   O41 2774   5.858   0.989   0.386
    7CHTO   C64 2775   5.762   1.059   0.479
    7CHTO  H121 2776   5.793   1.165   0.492
    7CHTO   C71 2777   5.768   0.991   0.618
    7CHTO   O47 2778   5.888   1.024   0.687
    7CHTO  H104 2779   5.889   0.981   0.770
    7CHTO   O34 2780   5.946   0.944   0.150
    7CHTO   C49 2781   6.009   0.872   0.028
    7CHTO   H91 2782   6.076   0.797   0.071
    7CHTO   C47 2783   6.092   0.970   2.799
    7CHTO   H89 2784   6.191   0.977   2.851
    7CHTO   O33 2785   6.032   1.100   2.796
    7CHTO   H70 2786   6.091   1.162   2.757
    7CHTO   C45 2787   6.109   0.917   2.647
    7CHTO   H87 2788   6.026   0.959   2.588
    7CHTO    N8 2789   6.236   0.967   2.588
    7CHTO   H75 2790   6.241   1.074   2.596
    7CHTO   H76 2791   6.241   0.939   2.483
    7CHTO   C43 2792   6.088   0.759   2.636
    7CHTO   H85 2793   6.100   0.731   2.532
    7CHTO   O29 2794   5.957   0.724   2.686
    7CHTO   C50 2795   5.904   0.797   2.798
    7CHTO   H92 2796   5.832   0.871   2.760
    7CHTO   C54 2797   5.819   0.701   0.026
    7CHTO   O36 2798   5.707   0.650   2.810
    7CHTO   H72 2799   5.657   0.593   0.007
    7CHTO   O27 2800   6.188   0.686   2.709
    7CHTO   C37 2801   6.227   0.567   2.779
    7CHTO   H79 2802   6.204   0.577   0.029
    7CHTO   C38 2803   6.151   0.440   2.728
    7CHTO   H80 2804   6.159   0.437   2.619
    7CHTO   O31 2805   6.012   0.453   2.764
    7CHTO   H68 2806   6.002   0.456   2.857
    7CHTO   C39 2807   6.211   0.307   2.789
    7CHTO   H81 2808   6.191   0.307   0.038
    7CHTO    N7 2809   6.149   0.182   2.733
    7CHTO   H73 2810   6.044   0.180   2.754
    7CHTO   H74 2811   6.165   0.178   2.626
    7CHTO   C40 2812   6.368   0.307   2.772
    7CHTO   H82 2813   6.393   0.300   2.666
    7CHTO   O26 2814   6.422   0.427   2.831
    7CHTO   C41 2815   6.380   0.548   2.762
    7CHTO   H83 2816   6.404   0.540   2.655
    7CHTO   C52 2817   6.460   0.667   2.820
    7CHTO   O35 2818   6.606   0.655   2.795
    7CHTO   H71 2819   6.622   0.662   2.702
    7CHTO   O28 2820   6.433   0.200   2.843
    7CHTO   C42 2821   6.564   0.152   2.797
    7CHTO   H84 2822   6.596   0.084   0.018
    7CHTO   C44 2823   6.677   0.261   2.786
    7CHTO   H86 2824   6.642   0.341   2.720
    7CHTO   O32 2825   6.695   0.317   0.059
    7CHTO   H69 2826   6.728   0.252   0.119
    7CHTO   C48 2827   6.812   0.204   2.725
    7CHTO   H90 2828   6.855   0.134   2.796
    7CHTO    N9 2829   6.915   0.312   2.705
    7CHTO   H77 2830   6.938   0.359   2.800
    7CHTO   H78 2831   7.004   0.270   2.662
    7CHTO   C51 2832   6.778   0.127   2.592
    7CHTO   H93 2833   6.731   0.198   2.524
    7CHTO   O30 2834   6.689   0.020   2.626
    7CHTO   C46 2835   6.554   0.069   2.665
    7CHTO   H88 2836   6.515   0.132   2.585
    7CHTO   C53 2837   6.462   9.946   2.684
    7CHTO   O72 2838   6.448   9.872   2.562
    7CHTO  H199 2839   6.529   9.831   2.540
    7CHTO   O22 2840   6.892   0.064   2.531
    7CHTO   C31 2841   6.891   0.029   2.387
    7CHTO   H59 2842   6.991   9.984   2.367
    7CHTO   C29 2843   6.785   9.923   2.347
    7CHTO   H57 2844   6.686   9.963   2.373
    7CHTO   O21 2845   6.806   9.806   2.428
    7CHTO   H37 2846   6.737   9.744   2.414
    7CHTO   C27 2847   6.788   9.892   2.192
    7CHTO   H55 2848   6.885   9.846   2.167
    7CHTO    N5 2849   6.680   9.799   2.149
    7CHTO   H43 2850   6.583   9.844   2.166
    7CHTO   H44 2851   6.692   9.774   2.045
    7CHTO   C25 2852   6.781   0.028   2.113
    7CHTO   H53 2853   6.685   0.077   2.136
    7CHTO   O17 2854   6.890   0.113   2.157
    7CHTO   C32 2855   6.881   0.154   2.294
    7CHTO   H60 2856   6.786   0.204   2.312
    7CHTO   C36 2857   6.996   0.254   2.321
    7CHTO   O25 2858   6.982   0.371   2.240
    7CHTO   H40 2859   7.053   0.430   2.257
    7CHTO   O15 2860   6.794   0.008   1.955
    7CHTO   C19 2861   6.787   0.119   1.860
    7CHTO   H47 2862   6.794   0.069   1.762
    7CHTO   C20 2863   6.653   0.200   1.865
    7CHTO   H48 2864   6.634   0.240   1.965
    7CHTO   O19 2865   6.548   0.106   1.833
    7CHTO   H35 2866   6.464   0.148   1.843
    7CHTO   C21 2867   6.655   0.321   1.763
    7CHTO   H49 2868   6.658   0.281   1.661
    7CHTO    N4 2869   6.532   0.405   1.771
    7CHTO   H41 2870   6.538   0.486   1.699
    7CHTO   H42 2871   6.445   0.345   1.750
    7CHTO   C22 2872   6.785   0.402   1.785
    7CHTO   H50 2873   6.784   0.444   1.886
    7CHTO   O14 2874   6.899   0.316   1.768
    7CHTO   C23 2875   6.910   0.214   1.868
    7CHTO   H51 2876   6.916   0.265   1.965
    7CHTO   C34 2877   7.041   0.138   1.845
    7CHTO   O23 2878   7.154   0.223   1.867
    7CHTO   H38 2879   7.233   0.174   1.853
    7CHTO   O16 2880   6.808   0.504   1.686
    7CHTO   C24 2881   6.843   0.650   1.745
    7CHTO   H52 2882   6.809   0.662   1.848
    7CHTO   C26 2883   6.773   0.755   1.656
    7CHTO   H54 2884   6.799   0.733   1.550
    7CHTO   O20 2885   6.631   0.739   1.671
    7CHTO   H36 2886   6.603   0.658   1.632
    7CHTO   C30 2887   6.820   0.900   1.689
    7CHTO   H58 2888   6.784   0.929   1.789
    7CHTO    N6 2889   6.762   0.999   1.594
    7CHTO   H45 2890   6.654   0.996   1.599
    7CHTO   H46 2891   6.795   1.099   1.618
    7CHTO   C33 2892   6.975   0.907   1.693
    7CHTO   H61 2893   7.016   0.884   1.593
    7CHTO   O18 2894   7.023   0.808   1.786
    7CHTO   C28 2895   6.997   0.673   1.746
    7CHTO   H56 2896   7.037   0.654   1.646
    7CHTO   C35 2897   7.072   0.581   1.846
    7CHTO   O24 2898   7.027   0.594   1.981
    7CHTO   H39 2899   7.076   0.536   2.036
    7CHTO    O9 2900   7.026   1.038   1.726
    7CHTO   C13 2901   7.185   1.054   1.702
    7CHTO   H26 2902   7.214   0.989   1.618
    7CHTO   C11 2903   7.261   1.014   1.834
    7CHTO   H24 2904   7.245   0.906   1.851
    7CHTO    O8 2905   7.206   1.084   1.946
    7CHTO    H3 2906   7.245   1.054   2.026
    7CHTO    C9 2907   7.413   1.037   1.810
    7CHTO   H22 2908   7.437   0.981   1.719
    7CHTO    N2 2909   7.499   0.978   1.915
    7CHTO   H10 2910   7.603   0.987   1.887
    7CHTO   H11 2911   7.482   1.027   2.010
    7CHTO    C7 2912   7.437   1.189   1.785
    7CHTO   H20 2913   7.544   1.195   1.755
    7CHTO    O4 2914   7.359   1.240   1.674
    7CHTO   C14 2915   7.221   1.202   1.653
    7CHTO   H27 2916   7.207   1.205   1.543
    7CHTO   C18 2917   7.132   1.314   1.713
    7CHTO   O13 2918   6.998   1.309   1.663
    7CHTO    H7 2919   6.947   1.377   1.702
    7CHTO    O2 2920   7.408   1.279   1.920
    7CHTO    C1 2921   7.484   1.400   1.933
    7CHTO   H14 2922   7.488   1.453   1.835
    7CHTO    C2 2923   7.634   1.379   1.985
    7CHTO   H15 2924   7.626   1.321   2.079
    7CHTO    O6 2925   7.709   1.303   1.889
    7CHTO    H1 2926   7.676   1.216   1.883
    7CHTO    C3 2927   7.706   1.520   2.013
    7CHTO   H16 2928   7.726   1.567   1.916
    7CHTO    N1 2929   7.839   1.504   2.082
    7CHTO    H8 2930   7.906   1.446   2.020
    7CHTO    H9 2931   7.826   1.454   2.177
    7CHTO    C4 2932   7.611   1.619   2.091
    7CHTO   H17 2933   7.606   1.589   2.196
    7CHTO    O1 2934   7.480   1.622   2.033
    7CHTO    C5 2935   7.412   1.496   2.033
    7CHTO   H18 2936   7.417   1.451   2.133
    7CHTO   C16 2937   7.264   1.526   1.999
    7CHTO   O11 2938   7.180   1.415   2.032
    7CHTO    H5 2939   7.091   1.436   2.010
    7CHTO    O3 2940   7.654   1.756   2.077
    7CHTO    C6 2941   7.690   1.831   2.198
    7CHTO   H19 2942   7.714   1.766   2.282
    7CHTO    C8 2943   7.815   1.919   2.165
    7CHTO   H21 2944   7.795   1.974   2.073
    7CHTO    O7 2945   7.925   1.829   2.145
    7CHTO    H2 2946   8.001   1.877   2.117
    7CHTO   C12 2947   7.844   2.023   2.281
    7CHTO   H25 2948   7.875   1.964   2.369
    7CHTO    N3 2949   7.959   2.114   2.246
    7CHTO   H12 2950   7.927   2.217   2.241
    7CHTO   H13 2951   8.006   2.085   2.154
    7CHTO   C15 2952   7.712   2.100   2.316
    7CHTO   H28 2953   7.679   2.164   2.234
    7CHTO   O10 2954   7.722   2.184   2.445
    7CHTO    H4 2955   7.782   2.255   2.432
    7CHTO    O5 2956   7.608   2.007   2.350
    7CHTO   C10 2957   7.570   1.920   2.242
    7CHTO   H23 2958   7.537   1.981   2.158
    7CHTO   C17 2959   7.450   1.838   2.291
    7CHTO   O12 2960   7.336   1.920   2.320
    7CHTO    H6 2961   7.264   1.866   2.347
    8CHTO  H203 2962   7.131   8.203   0.894
    8CHTO   O82 2963   7.181   8.226   0.970
    8CHTO  C123 2964   7.095   8.266   1.078
    8CHTO  H227 2965   7.157   8.287   1.166
    8CHTO   O77 2966   7.033   8.389   1.029
    8CHTO  C118 2967   6.952   8.457   1.127
    8CHTO  H222 2968   7.012   8.477   1.217
    8CHTO  C125 2969   6.910   8.593   1.061
    8CHTO   O84 2970   6.852   8.683   1.156
    8CHTO  H205 2971   6.828   8.763   1.113
    8CHTO  C114 2972   6.832   8.367   1.162
    8CHTO  H218 2973   6.772   8.353   1.072
    8CHTO  C116 2974   6.878   8.226   1.211
    8CHTO  H220 2975   6.925   8.237   1.312
    8CHTO   O79 2976   6.761   8.144   1.229
    8CHTO  H201 2977   6.785   8.062   1.267
    8CHTO  C120 2978   6.982   8.161   1.111
    8CHTO  H224 2979   6.925   8.136   1.018
    8CHTO   N21 2980   7.038   8.034   1.164
    8CHTO  H211 2981   7.065   7.969   1.082
    8CHTO  H212 2982   6.967   7.985   1.228
    8CHTO   O75 2983   6.757   8.438   1.262
    8CHTO  C112 2984   6.597   8.442   1.233
    8CHTO  H216 2985   6.565   8.345   1.191
    8CHTO   O73 2986   6.574   8.550   1.142
    8CHTO  C113 2987   6.437   8.574   1.107
    8CHTO  H217 2988   6.395   8.484   1.057
    8CHTO  C124 2989   6.439   8.687   1.003
    8CHTO   O83 2990   6.312   8.713   0.942
    8CHTO  H204 2991   6.320   8.785   0.883
    8CHTO  C109 2992   6.356   8.611   1.235
    8CHTO  H213 2993   6.403   8.702   1.277
    8CHTO  C110 2994   6.370   8.496   1.339
    8CHTO  H214 2995   6.322   8.406   1.299
    8CHTO   O78 2996   6.298   8.534   1.459
    8CHTO  H200 2997   6.206   8.535   1.442
    8CHTO  C111 2998   6.520   8.468   1.369
    8CHTO  H215 2999   6.564   8.558   1.415
    8CHTO   N19 3000   6.542   8.355   1.465
    8CHTO  H207 3001   6.598   8.275   1.420
    8CHTO  H208 3002   6.594   8.391   1.553
    8CHTO   O74 3003   6.216   8.642   1.204
    8CHTO  C115 3004   6.120   8.524   1.151
    8CHTO  H219 3005   6.176   8.448   1.096
    8CHTO   O76 3006   6.050   8.447   1.271
    8CHTO  C122 3007   5.964   8.531   1.351
    8CHTO  H226 3008   6.026   8.602   1.406
    8CHTO  C126 3009   5.896   8.441   1.460
    8CHTO   O85 3010   5.991   8.374   1.544
    8CHTO  H206 3011   6.036   8.436   1.597
    8CHTO  C121 3012   5.856   8.606   1.264
    8CHTO  H225 3013   5.786   8.530   1.222
    8CHTO   O81 3014   5.779   8.696   1.345
    8CHTO  H202 3015   5.731   8.649   1.409
    8CHTO  C119 3016   5.924   8.682   1.146
    8CHTO  H223 3017   5.844   8.722   1.083
    8CHTO  C117 3018   6.014   8.590   1.056
    8CHTO  H221 3019   6.073   8.642   0.981
    8CHTO   N20 3020   5.936   8.487   0.979
    8CHTO  H209 3021   6.004   8.427   0.919
    8CHTO  H210 3022   5.864   8.536   0.915
    8CHTO   O80 3023   5.999   8.816   1.189
    8CHTO  C103 3024   5.931   8.955   1.167
    8CHTO  H190 3025   5.827   8.942   1.134
    8CHTO  C101 3026   5.933   9.051   1.292
    8CHTO  H188 3027   6.035   9.060   1.328
    8CHTO   O68 3028   5.848   8.988   1.405
    8CHTO  H168 3029   5.758   8.983   1.378
    8CHTO   C99 3030   5.881   9.197   1.252
    8CHTO  H186 3031   5.774   9.190   1.224
    8CHTO   N17 3032   5.889   9.297   1.364
    8CHTO  H174 3033   5.835   9.261   1.450
    8CHTO  H175 3034   5.993   9.315   1.389
    8CHTO   C97 3035   5.954   9.248   1.125
    8CHTO  H184 3036   6.058   9.274   1.151
    8CHTO   O64 3037   5.948   9.151   1.019
    8CHTO  C104 3038   6.009   9.025   1.049
    8CHTO  H191 3039   6.114   9.037   1.078
    8CHTO  C108 3040   6.009   8.940   0.921
    8CHTO   O71 3041   6.089   9.002   0.819
    8CHTO  H171 3042   6.088   8.948   0.742
    8CHTO   O62 3043   5.887   9.363   1.068
    8CHTO   C91 3044   5.968   9.452   0.988
    8CHTO  H178 3045   6.066   9.406   0.971
    8CHTO   C92 3046   5.994   9.582   1.071
    8CHTO  H179 3047   5.897   9.617   1.112
    8CHTO   O66 3048   6.074   9.548   1.186
    8CHTO  H166 3049   6.026   9.493   1.244
    8CHTO   C93 3050   6.061   9.698   0.987
    8CHTO  H180 3051   6.165   9.667   0.966
    8CHTO   N16 3052   6.071   9.826   1.060
    8CHTO  H172 3053   5.972   9.862   1.086
    8CHTO  H173 3054   6.123   9.900   1.001
    8CHTO   C94 3055   5.985   9.715   0.851
    8CHTO  H181 3056   5.881   9.743   0.866
    8CHTO   O61 3057   5.985   9.589   0.782
    8CHTO   C95 3058   5.906   9.489   0.848
    8CHTO  H182 3059   5.805   9.526   0.862
    8CHTO  C106 3060   5.896   9.363   0.755
    8CHTO   O69 3061   5.825   9.393   0.634
    8CHTO  H169 3062   5.735   9.410   0.653
    8CHTO   O63 3063   6.059   9.825   0.754
    8CHTO   C96 3064   5.990   9.839   0.610
    8CHTO  H183 3065   5.927   9.752   0.593
    8CHTO   C98 3066   6.092   9.846   0.494
    8CHTO  H185 3067   6.163   9.928   0.513
    8CHTO   O67 3068   6.170   9.725   0.497
    8CHTO  H167 3069   6.238   9.729   0.432
    8CHTO  C102 3070   6.021   9.865   0.351
    8CHTO  H189 3071   5.971   9.769   0.330
    8CHTO   N18 3072   6.115   9.888   0.238
    8CHTO  H176 3073   6.098   9.984   0.191
    8CHTO  H177 3074   6.104   9.809   0.164
    8CHTO  C105 3075   5.910   9.974   0.359
    8CHTO  H192 3076   5.955   0.073   0.353
    8CHTO   O65 3077   5.828   9.969   0.478
    8CHTO  C100 3078   5.900   9.967   0.602
    8CHTO  H187 3079   5.964   0.056   0.607
    8CHTO  C107 3080   5.799   9.978   0.719
    8CHTO   O70 3081   5.705   9.870   0.721
    8CHTO  H170 3082   5.648   9.876   0.647
    8CHTO   O57 3083   5.813   9.946   0.229
    8CHTO   C85 3084   5.764   0.053   0.146
    8CHTO  H157 3085   5.854   0.107   0.109
    8CHTO   C83 3086   5.684   0.156   0.232
    8CHTO  H155 3087   5.752   0.201   0.304
    8CHTO   O56 3088   5.583   0.087   0.308
    8CHTO  H135 3089   5.623   0.029   0.370
    8CHTO   C81 3090   5.628   0.267   0.139
    8CHTO  H153 3091   5.711   0.310   0.084
    8CHTO   N14 3092   5.570   0.381   0.214
    8CHTO  H141 3093   5.628   0.470   0.199
    8CHTO  H142 3094   5.469   0.400   0.185
    8CHTO   C79 3095   5.529   0.203   0.034
    8CHTO  H151 3096   5.497   0.283   2.825
    8CHTO   O52 3097   5.601   0.106   2.810
    8CHTO   C86 3098   5.672   0.002   0.027
    8CHTO  H158 3099   5.592   9.936   0.066
    8CHTO   C90 3100   5.755   9.914   2.788
    8CHTO   O60 3101   5.671   9.843   2.696
    8CHTO  H138 3102   5.622   9.778   2.742
    8CHTO   O50 3103   5.412   0.143   0.092
    8CHTO   C73 3104   5.276   0.100   0.073
    8CHTO  H145 3105   5.263   0.059   2.829
    8CHTO   C74 3106   5.176   0.218   0.092
    8CHTO  H146 3107   5.204   0.296   0.019
    8CHTO   O54 3108   5.044   0.173   0.055
    8CHTO  H133 3109   5.040   0.156   2.821
    8CHTO   C75 3110   5.186   0.270   0.241
    8CHTO  H147 3111   5.287   0.310   0.257
    8CHTO   N13 3112   5.094   0.384   0.269
    8CHTO  H139 3113   5.150   0.470   0.303
    8CHTO  H140 3114   5.022   0.358   0.346
    8CHTO   C76 3115   5.168   0.148   0.344
    8CHTO  H148 3116   5.064   0.115   0.340
    8CHTO   O49 3117   5.257   0.037   0.310
    8CHTO   C77 3118   5.241   9.988   0.176
    8CHTO  H149 3119   5.138   9.956   0.160
    8CHTO   C88 3120   5.327   9.862   0.158
    8CHTO   O58 3121   5.306   9.799   0.024
    8CHTO  H136 3122   5.219   9.767   0.017
    8CHTO   O51 3123   5.213   0.197   0.493
    8CHTO   C78 3124   5.212   0.084   0.605
    8CHTO  H150 3125   5.226   9.983   0.561
    8CHTO   C80 3126   5.078   0.086   0.681
    8CHTO  H152 3127   5.056   0.191   0.712
    8CHTO   O55 3128   4.976   0.045   0.588
    8CHTO  H134 3129   4.891   0.055   0.627
    8CHTO   C84 3130   5.078   9.993   0.810
    8CHTO  H156 3131   5.077   9.889   0.775
    8CHTO   N15 3132   4.955   0.012   0.894
    8CHTO  H143 3133   4.957   9.945   0.977
    8CHTO  H144 3134   4.950   0.113   0.929
    8CHTO   C87 3135   5.208   0.015   0.892
    8CHTO  H159 3136   5.206   0.115   0.937
    8CHTO   O53 3137   5.329   0.003   0.800
    8CHTO   C82 3138   5.329   0.109   0.702
    8CHTO  H154 3139   5.320   0.206   0.751
    8CHTO   C89 3140   5.465   0.107   0.630
    8CHTO   O59 3141   5.490   0.228   0.557
    8CHTO  H137 3142   5.431   0.234   0.484
    8CHTO   O45 3143   5.223   9.911   1.018
    8CHTO   C67 3144   5.250   9.773   0.988
    8CHTO  H124 3145   5.205   9.746   0.892
    8CHTO   C65 3146   5.404   9.742   0.981
    8CHTO  H122 3147   5.455   9.839   0.976
    8CHTO   O44 3148   5.431   9.669   0.861
    8CHTO  H102 3149   5.523   9.660   0.848
    8CHTO   C63 3150   5.455   9.674   1.114
    8CHTO  H120 3151   5.428   9.737   1.198
    8CHTO   N11 3152   5.604   9.664   1.131
    8CHTO  H108 3153   5.654   9.691   1.041
    8CHTO  H109 3154   5.632   9.565   1.160
    8CHTO   C61 3155   5.376   9.538   1.134
    8CHTO  H118 3156   5.386   9.511   1.240
    8CHTO   O40 3157   5.233   9.550   1.106
    8CHTO   C68 3158   5.177   9.684   1.097
    8CHTO  H125 3159   5.188   9.732   1.197
    8CHTO   C72 3160   5.025   9.671   1.070
    8CHTO   O48 3161   4.995   9.601   0.949
    8CHTO  H105 3162   4.902   9.595   0.938
    8CHTO   O38 3163   5.424   9.431   1.049
    8CHTO   C55 3164   5.375   9.300   1.083
    8CHTO  H112 3165   5.282   9.308   1.142
    8CHTO   C56 3166   5.485   9.217   1.161
    8CHTO  H113 3167   5.574   9.212   1.095
    8CHTO   O42 3168   5.525   9.288   1.279
    8CHTO  H100 3169   5.568   9.368   1.257
    8CHTO   C57 3170   5.431   9.073   1.194
    8CHTO  H114 3171   5.353   9.085   1.269
    8CHTO   N10 3172   5.534   8.984   1.255
    8CHTO  H106 3173   5.514   8.880   1.232
    8CHTO  H107 3174   5.632   9.009   1.218
    8CHTO   C58 3175   5.369   9.007   1.068
    8CHTO  H115 3176   5.451   8.977   0.998
    8CHTO   O37 3177   5.279   9.095   0.997
    8CHTO   C59 3178   5.335   9.221   0.956
    8CHTO  H116 3179   5.423   9.204   0.893
    8CHTO   C70 3180   5.230   9.297   0.874
    8CHTO   O46 3181   5.196   9.231   0.751
    8CHTO  H103 3182   5.270   9.233   0.693
    8CHTO   O39 3183   5.282   8.868   1.113
    8CHTO   C60 3184   5.141   8.886   1.135
    8CHTO  H117 3185   5.121   8.989   1.162
    8CHTO   C62 3186   5.063   8.854   1.004
    8CHTO  H119 3187   5.100   8.925   0.927
    8CHTO   O43 3188   5.094   8.720   0.959
    8CHTO  H101 3189   5.065   8.657   1.022
    8CHTO   C66 3190   4.906   8.879   1.027
    8CHTO  H123 3191   4.891   8.982   1.058
    8CHTO   N12 3192   4.827   8.863   0.902
    8CHTO  H110 3193   4.840   8.763   0.863
    8CHTO  H111 3194   4.857   8.937   0.830
    8CHTO   C69 3195   4.854   8.788   1.142
    8CHTO  H126 3196   4.860   8.681   1.112
    8CHTO   O41 3197   4.941   8.811   1.270
    8CHTO   C64 3198   5.091   8.797   1.252
    8CHTO  H121 3199   5.117   8.691   1.232
    8CHTO   C71 3200   5.153   8.838   1.388
    8CHTO   O47 3201   5.291   8.799   1.395
    8CHTO  H104 3202   5.326   8.825   1.478
    8CHTO   O34 3203   4.705   8.820   1.177
    8CHTO   C49 3204   4.618   8.901   1.275
    8CHTO   H91 3205   4.594   8.834   1.358
    8CHTO   C47 3206   4.488   8.941   1.202
    8CHTO   H89 3207   4.422   8.986   1.278
    8CHTO   O33 3208   4.425   8.821   1.152
    8CHTO   H70 3209   4.342   8.842   1.113
    8CHTO   C45 3210   4.524   9.050   1.089
    8CHTO   H87 3211   4.604   9.009   1.026
    8CHTO    N8 3212   4.408   9.083   1.002
    8CHTO   H75 3213   4.440   9.150   0.923
    8CHTO   H76 3214   4.330   9.129   1.060
    8CHTO   C43 3215   4.588   9.179   1.161
    8CHTO   H85 3216   4.616   9.248   1.081
    8CHTO   O29 3217   4.703   9.140   1.240
    8CHTO   C50 3218   4.690   9.027   1.330
    8CHTO   H92 3219   4.792   8.997   1.356
    8CHTO   C54 3220   4.631   9.070   1.468
    8CHTO   O36 3221   4.720   9.157   1.538
    8CHTO   H72 3222   4.683   9.180   1.620
    8CHTO   O27 3223   4.493   9.250   1.243
    8CHTO   C37 3224   4.459   9.385   1.280
    8CHTO   H79 3225   4.404   9.384   1.376
    8CHTO   C38 3226   4.586   9.474   1.301
    8CHTO   H80 3227   4.652   9.461   1.214
    8CHTO   O31 3228   4.654   9.424   1.418
    8CHTO   H68 3229   4.737   9.467   1.428
    8CHTO   C39 3230   4.550   9.627   1.317
    8CHTO   H81 3231   4.496   9.639   1.411
    8CHTO    N7 3232   4.671   9.717   1.323
    8CHTO   H73 3233   4.673   9.770   1.418
    8CHTO   H74 3234   4.762   9.661   1.310
    8CHTO   C40 3235   4.453   9.671   1.201
    8CHTO   H82 3236   4.504   9.666   1.105
    8CHTO   O26 3237   4.338   9.586   1.205
    8CHTO   C41 3238   4.367   9.448   1.171
    8CHTO   H83 3239   4.417   9.443   1.073
    8CHTO   C52 3240   4.231   9.374   1.160
    8CHTO   O35 3241   4.146   9.430   1.052
    8CHTO   H71 3242   4.185   9.414   0.968
    8CHTO   O28 3243   4.398   9.804   1.217
    8CHTO   C42 3244   4.342   9.877   1.102
    8CHTO   H84 3245   4.291   9.961   1.148
    8CHTO   C44 3246   4.235   9.802   1.017
    8CHTO   H86 3247   4.278   9.709   0.979
    8CHTO   O32 3248   4.127   9.769   1.107
    8CHTO   H69 3249   4.064   9.715   1.063
    8CHTO   C48 3250   4.184   9.886   0.892
    8CHTO   H90 3251   4.128   9.972   0.930
    8CHTO    N9 3252   4.088   9.808   0.807
    8CHTO   H77 3253   4.135   9.718   0.770
    8CHTO   H78 3254   4.000   9.783   0.864
    8CHTO   C51 3255   4.307   9.941   0.810
    8CHTO   H93 3256   4.362   9.855   0.769
    8CHTO   O30 3257   4.389   0.020   0.897
    8CHTO   C46 3258   4.453   9.937   1.009
    8CHTO   H88 3259   4.510   9.855   0.964
    8CHTO   C53 3260   4.549   0.029   1.088
    8CHTO   O72 3261   4.481   0.136   1.154
    8CHTO  H199 3262   4.428   0.102   1.224
    8CHTO   O22 3263   4.266   0.030   0.704
    8CHTO   C31 3264   4.348   0.060   0.585
    8CHTO   H59 3265   4.288   0.132   0.525
    8CHTO   C29 3266   4.484   0.129   0.614
    8CHTO   H57 3267   4.544   0.059   0.674
    8CHTO   O21 3268   4.458   0.244   0.697
    8CHTO   H37 3269   4.539   0.282   0.725
    8CHTO   C27 3270   4.562   0.164   0.481
    8CHTO   H55 3271   4.503   0.238   0.425
    8CHTO    N5 3272   4.697   0.221   0.505
    8CHTO   H43 3273   4.688   0.312   0.564
    8CHTO   H44 3274   4.758   0.149   0.558
    8CHTO   C25 3275   4.570   0.035   0.391
    8CHTO   H53 3276   4.632   9.960   0.443
    8CHTO   O17 3277   4.437   9.980   0.370
    8CHTO   C32 3278   4.372   9.937   0.491
    8CHTO   H60 3279   4.434   9.864   0.543
    8CHTO   C36 3280   4.239   9.870   0.450
    8CHTO   O25 3281   4.261   9.759   0.362
    8CHTO   H40 3282   4.179   9.718   0.342
    8CHTO   O15 3283   4.634   0.063   0.247
    8CHTO   C19 3284   4.647   9.990   0.121
    8CHTO   H47 3285   4.546   9.948   0.105
    8CHTO   C20 3286   4.680   0.084   2.858
    8CHTO   H48 3287   4.768   0.147   0.020
    8CHTO   O19 3288   4.566   0.172   2.842
    8CHTO   H35 3289   4.562   0.232   0.055
    8CHTO   C21 3290   4.705   0.005   2.723
    8CHTO   H49 3291   4.611   9.962   2.689
    8CHTO    N4 3292   4.753   0.093   2.612
    8CHTO   H41 3293   4.679   0.169   2.591
    8CHTO   H42 3294   4.846   0.141   2.640
    8CHTO   C22 3295   4.802   9.887   2.750
    8CHTO   H50 3296   4.901   9.926   2.776
    8CHTO   O14 3297   4.751   9.805   2.856
    8CHTO   C23 3298   4.745   9.870   0.126
    8CHTO   H51 3299   4.847   9.901   0.153
    8CHTO   C34 3300   4.699   9.764   0.227
    8CHTO   O23 3301   4.788   9.651   0.232
    8CHTO   H38 3302   4.868   9.676   0.272
    8CHTO   O16 3303   4.811   9.797   2.637
    8CHTO   C24 3304   4.945   9.707   2.634
    8CHTO   H52 3305   4.994   9.703   2.731
    8CHTO   C26 3306   5.042   9.767   2.530
    8CHTO   H54 3307   4.985   9.788   2.436
    8CHTO   O20 3308   5.088   9.894   2.581
    8CHTO   H36 3309   5.139   9.882   2.659
    8CHTO   C30 3310   5.159   9.670   2.496
    8CHTO   H58 3311   5.225   9.658   2.583
    8CHTO    N6 3312   5.245   9.725   2.387
    8CHTO   H45 3313   5.186   9.742   2.298
    8CHTO   H46 3314   5.289   9.819   2.418
    8CHTO   C33 3315   5.103   9.528   2.462
    8CHTO   H61 3316   5.040   9.534   2.373
    8CHTO   O18 3317   5.022   9.483   2.573
    8CHTO   C28 3318   4.905   9.562   2.597
    8CHTO   H56 3319   4.841   9.564   2.508
    8CHTO   C35 3320   4.825   9.500   2.715
    8CHTO   O24 3321   4.777   9.369   2.686
    8CHTO   H39 3322   4.730   9.336   2.760
    8CHTO    O9 3323   5.207   9.433   2.431
    8CHTO   C13 3324   5.155   9.303   2.341
    8CHTO   H26 3325   5.059   9.329   2.295
    8CHTO   C11 3326   5.143   9.172   2.432
    8CHTO   H24 3327   5.044   9.172   2.479
    8CHTO    O8 3328   5.241   9.175   2.538
    8CHTO    H3 3329   5.225   9.247   2.596
    8CHTO    C9 3330   5.160   9.046   2.343
    8CHTO   H22 3331   5.088   9.059   2.260
    8CHTO    N2 3332   5.120   8.919   2.407
    8CHTO   H10 3333   5.019   8.926   2.444
    8CHTO   H11 3334   5.188   8.896   2.488
    8CHTO    C7 3335   5.307   9.047   2.284
    8CHTO   H20 3336   5.299   8.987   2.190
    8CHTO    O4 3337   5.355   9.180   2.252
    8CHTO   C14 3338   5.252   9.275   2.217
    8CHTO   H27 3339   5.192   9.231   2.134
    8CHTO   C18 3340   5.318   9.403   2.161
    8CHTO   O13 3341   5.219   9.494   2.112
    8CHTO    H7 3342   5.170   9.529   2.184
    8CHTO    O2 3343   5.415   8.975   2.388
    8CHTO    C1 3344   5.552   8.967   2.346
    8CHTO   H14 3345   5.582   9.062   2.297
    8CHTO    C2 3346   5.583   8.846   2.247
    8CHTO   H15 3347   5.540   8.756   2.294
    8CHTO    O6 3348   5.517   8.871   2.122
    8CHTO    H1 3349   5.526   8.797   2.065
    8CHTO    C3 3350   5.742   8.828   2.226
    8CHTO   H16 3351   5.781   8.914   2.171
    8CHTO    N1 3352   5.774   8.705   2.145
    8CHTO    H8 3353   5.739   8.617   2.196
    8CHTO    H9 3354   5.881   8.698   2.130
    8CHTO    C4 3355   5.814   8.829   2.366
    8CHTO   H17 3356   5.784   8.739   2.422
    8CHTO    O1 3357   5.779   8.947   2.440
    8CHTO    C5 3358   5.640   8.954   2.474
    8CHTO   H18 3359   5.610   8.862   2.526
    8CHTO   C16 3360   5.618   9.074   2.570
    8CHTO   O11 3361   5.694   9.060   2.691
    8CHTO    H5 3362   5.660   8.989   2.742
    8CHTO    O3 3363   5.958   8.834   2.355
    8CHTO    C6 3364   6.028   8.776   2.470
    8CHTO   H19 3365   5.962   8.759   2.555
    8CHTO    C8 3366   6.091   8.639   2.430
    8CHTO   H21 3367   6.156   8.655   2.344
    8CHTO    O7 3368   5.984   8.550   2.393
    8CHTO    H2 3369   5.929   8.533   2.467
    8CHTO   C12 3370   6.177   8.581   2.550
    8CHTO   H25 3371   6.105   8.554   2.630
    8CHTO    N3 3372   6.247   8.453   2.511
    8CHTO   H12 3373   6.316   8.472   2.430
    8CHTO   H13 3374   6.300   8.413   2.596
    8CHTO   C15 3375   6.275   8.691   2.605
    8CHTO   H28 3376   6.357   8.711   2.535
    8CHTO   O10 3377   6.332   8.654   2.743
    8CHTO    H4 3378   6.388   8.579   2.735
    8CHTO    O5 3379   6.204   8.813   2.634
    8CHTO   C10 3380   6.140   8.872   2.520
    8CHTO   H23 3381   6.215   8.889   2.442
    8CHTO   C17 3382   6.088   9.010   2.565
    8CHTO   O12 3383   6.047   9.091   2.454
    8CHTO    H6 3384   6.018   9.174   2.486
    9CHTO  H203 3385   8.074   3.621   0.960
    9CHTO   O82 3386   8.040   3.653   0.878
    9CHTO  C123 3387   8.126   3.754   0.824
    9CHTO  H227 3388   8.154   3.825   0.904
    9CHTO   O77 3389   8.244   3.678   0.782
    9CHTO  C118 3390   8.352   3.760   0.734
    9CHTO  H222 3391   8.379   3.835   0.810
    9CHTO  C125 3392   8.476   3.667   0.707
    9CHTO   O84 3393   8.522   3.609   0.829
    9CHTO  H205 3394   8.599   3.557   0.812
    9CHTO  C114 3395   8.307   3.832   0.605
    9CHTO  H218 3396   8.285   3.757   0.529
    9CHTO  C116 3397   8.177   3.916   0.629
    9CHTO  H220 3398   8.202   4.004   0.693
    9CHTO   O79 3399   8.133   3.969   0.503
    9CHTO  H201 3400   8.195   4.031   0.470
    9CHTO  C120 3401   8.065   3.829   0.699
    9CHTO  H224 3402   8.030   3.755   0.624
    9CHTO   N21 3403   7.946   3.911   0.737
    9CHTO  H211 3404   7.976   4.012   0.761
    9CHTO  H212 3405   7.892   3.866   0.819
    9CHTO   O75 3406   8.420   3.912   0.566
    9CHTO  C112 3407   8.444   3.921   0.404
    9CHTO  H216 3408   8.348   3.945   0.355
    9CHTO   O73 3409   8.494   3.793   0.362
    9CHTO  C113 3410   8.520   3.784   0.221
    9CHTO  H217 3411   8.426   3.809   0.166
    9CHTO  C124 3412   8.553   3.638   0.186
    9CHTO   O83 3413   8.670   3.589   0.253
    9CHTO  H204 3414   8.686   3.500   0.228
    9CHTO  C109 3415   8.632   3.883   0.180
    9CHTO  H213 3416   8.723   3.851   0.234
    9CHTO  C110 3417   8.592   4.028   0.222
    9CHTO  H214 3418   8.510   4.060   0.158
    9CHTO   O78 3419   8.704   4.115   0.195
    9CHTO  H200 3420   8.680   4.204   0.212
    9CHTO  C111 3421   8.550   4.034   0.372
    9CHTO  H215 3422   8.639   4.014   0.434
    9CHTO   N19 3423   8.497   4.166   0.414
    9CHTO  H207 3424   8.498   4.237   0.332
    9CHTO  H208 3425   8.555   4.205   0.496
    9CHTO   O74 3426   8.656   3.875   0.037
    9CHTO  C115 3427   8.808   3.880   2.856
    9CHTO  H219 3428   8.864   3.945   0.064
    9CHTO   O76 3429   8.877   3.734   0.011
    9CHTO  C122 3430   8.826   3.637   2.775
    9CHTO  H226 3431   8.721   3.620   2.798
    9CHTO  C126 3432   8.899   3.500   2.799
    9CHTO   O85 3433   9.041   3.508   2.780
    9CHTO  H206 3434   9.061   3.525   2.690
    9CHTO  C121 3435   8.841   3.689   2.627
    9CHTO  H225 3436   8.948   3.706   2.605
    9CHTO   O81 3437   8.791   3.592   2.533
    9CHTO  H202 3438   8.844   3.515   2.536
    9CHTO  C119 3439   8.764   3.825   2.613
    9CHTO  H223 3440   8.780   3.857   2.510
    9CHTO  C117 3441   8.817   3.937   2.710
    9CHTO  H221 3442   8.756   4.028   2.713
    9CHTO   N20 3443   8.956   3.984   2.677
    9CHTO  H209 3444   8.985   4.063   2.745
    9CHTO  H210 3445   9.026   3.902   2.684
    9CHTO   O80 3446   8.606   3.810   2.618
    9CHTO  C103 3447   8.514   3.886   2.511
    9CHTO  H190 3448   8.415   3.902   2.553
    9CHTO  C101 3449   8.568   4.026   2.459
    9CHTO  H188 3450   8.673   4.017   2.432
    9CHTO   O68 3451   8.556   4.130   2.576
    9CHTO  H168 3452   8.611   4.104   2.647
    9CHTO   C99 3453   8.489   4.075   2.329
    9CHTO  H186 3454   8.384   4.097   2.356
    9CHTO   N17 3455   8.546   4.201   2.269
    9CHTO  H174 3456   8.484   4.234   2.186
    9CHTO  H175 3457   8.553   4.278   2.344
    9CHTO   C97 3458   8.482   3.960   2.225
    9CHTO  H184 3459   8.584   3.938   2.188
    9CHTO   O64 3460   8.421   3.844   2.286
    9CHTO  C104 3461   8.498   3.784   2.391
    9CHTO  H191 3462   8.596   3.752   2.357
    9CHTO  C108 3463   8.422   3.657   2.432
    9CHTO   O71 3464   8.493   3.574   2.525
    9CHTO  H171 3465   8.570   3.539   2.484
    9CHTO   O62 3466   8.396   3.994   2.114
    9CHTO   C91 3467   8.387   3.902   2.003
    9CHTO  H178 3468   8.453   3.817   2.023
    9CHTO   C92 3469   8.443   3.972   1.875
    9CHTO  H179 3470   8.546   4.006   1.894
    9CHTO   O66 3471   8.456   3.874   1.770
    9CHTO  H166 3472   8.521   3.810   1.792
    9CHTO   C93 3473   8.349   4.088   1.823
    9CHTO  H180 3474   8.351   4.086   1.712
    9CHTO   N16 3475   8.399   4.223   1.860
    9CHTO  H172 3476   8.496   4.240   1.817
    9CHTO  H173 3477   8.403   4.232   1.967
    9CHTO   C94 3478   8.201   4.065   1.872
    9CHTO  H181 3479   8.187   4.100   1.974
    9CHTO   O61 3480   8.172   3.924   1.872
    9CHTO   C95 3481   8.238   3.852   1.977
    9CHTO  H182 3482   8.180   3.865   2.069
    9CHTO  C106 3483   8.231   3.699   1.942
    9CHTO   O69 3484   8.286   3.619   2.047
    9CHTO  H169 3485   8.282   3.529   2.023
    9CHTO   O63 3486   8.100   4.136   1.778
    9CHTO   C96 3487   7.962   4.161   1.851
    9CHTO  H183 3488   7.970   4.130   1.955
    9CHTO   C98 3489   7.843   4.083   1.788
    9CHTO  H185 3490   7.841   4.102   1.680
    9CHTO   O67 3491   7.870   3.943   1.803
    9CHTO  H167 3492   7.943   3.917   1.750
    9CHTO  C102 3493   7.702   4.123   1.854
    9CHTO  H189 3494   7.703   4.081   1.956
    9CHTO   N18 3495   7.584   4.063   1.787
    9CHTO  H176 3496   7.592   3.955   1.788
    9CHTO  H177 3497   7.493   4.092   1.838
    9CHTO  C105 3498   7.690   4.278   1.866
    9CHTO  H192 3499   7.672   4.320   1.766
    9CHTO   O65 3500   7.807   4.340   1.920
    9CHTO  C100 3501   7.928   4.314   1.848
    9CHTO  H187 3502   7.915   4.345   1.744
    9CHTO  C107 3503   8.042   4.401   1.908
    9CHTO   O70 3504   8.064   4.371   2.047
    9CHTO  H170 3505   8.102   4.286   2.056
    9CHTO   O57 3506   7.565   4.307   1.964
    9CHTO   C85 3507   7.493   4.430   1.949
    9CHTO  H157 3508   7.486   4.449   1.839
    9CHTO   C83 3509   7.575   4.551   2.006
    9CHTO  H155 3510   7.667   4.559   1.948
    9CHTO   O56 3511   7.616   4.521   2.142
    9CHTO  H135 3512   7.541   4.516   2.198
    9CHTO   C81 3513   7.493   4.682   1.990
    9CHTO  H153 3514   7.470   4.693   1.884
    9CHTO   N14 3515   7.571   4.803   2.024
    9CHTO  H141 3516   7.521   4.862   2.098
    9CHTO  H142 3517   7.588   4.863   1.937
    9CHTO   C79 3518   7.357   4.669   2.069
    9CHTO  H151 3519   7.299   4.759   2.048
    9CHTO   O52 3520   7.280   4.556   2.016
    9CHTO   C86 3521   7.350   4.428   2.016
    9CHTO  H158 3522   7.357   4.400   2.124
    9CHTO   C90 3523   7.262   4.320   1.950
    9CHTO   O60 3524   7.139   4.301   2.022
    9CHTO  H138 3525   7.088   4.235   1.979
    9CHTO   O50 3526   7.373   4.657   2.211
    9CHTO   C73 3527   7.306   4.680   2.336
    9CHTO  H145 3528   7.201   4.645   2.330
    9CHTO   C74 3529   7.306   4.832   2.372
    9CHTO  H146 3530   7.254   4.885   2.291
    9CHTO   O54 3531   7.224   4.850   2.490
    9CHTO  H133 3532   7.219   4.941   2.511
    9CHTO   C75 3533   7.455   4.881   2.389
    9CHTO  H147 3534   7.506   4.872   2.292
    9CHTO   N13 3535   7.469   5.024   2.426
    9CHTO  H139 3536   7.573   5.051   2.434
    9CHTO  H140 3537   7.421   5.043   2.521
    9CHTO   C76 3538   7.534   4.785   2.491
    9CHTO  H148 3539   7.500   4.806   2.593
    9CHTO   O49 3540   7.515   4.643   2.460
    9CHTO   C77 3541   7.378   4.601   2.449
    9CHTO  H149 3542   7.326   4.618   2.543
    9CHTO   C88 3543   7.374   4.450   2.424
    9CHTO   O58 3544   7.430   4.375   2.539
    9CHTO  H136 3545   7.375   4.385   2.614
    9CHTO   O51 3546   7.692   4.807   2.473
    9CHTO   C78 3547   7.776   4.764   2.599
    9CHTO  H150 3548   7.711   4.716   2.677
    9CHTO   C80 3549   7.845   4.888   2.660
    9CHTO  H152 3550   7.899   4.941   2.579
    9CHTO   O55 3551   7.741   4.975   2.708
    9CHTO  H134 3552   7.694   4.935   2.779
    9CHTO   C84 3553   7.946   4.850   2.776
    9CHTO  H156 3554   7.888   4.814   0.002
    9CHTO   N15 3555   8.024   4.969   2.826
    9CHTO  H143 3556   7.957   5.041   0.009
    9CHTO  H144 3557   8.078   5.014   2.745
    9CHTO   C87 3558   8.041   4.735   2.732
    9CHTO  H159 3559   8.113   4.771   2.658
    9CHTO   O53 3560   7.956   4.620   2.673
    9CHTO   C82 3561   7.882   4.660   2.557
    9CHTO  H154 3562   7.949   4.703   2.483
    9CHTO   C89 3563   7.819   4.533   2.493
    9CHTO   O59 3564   7.733   4.464   2.584
    9CHTO  H137 3565   7.783   4.425   2.653
    9CHTO   O45 3566   8.124   4.678   0.005
    9CHTO   C67 3567   8.180   4.545   2.851
    9CHTO  H124 3568   8.131   4.491   2.770
    9CHTO   C65 3569   8.334   4.551   2.822
    9CHTO  H122 3570   8.369   4.647   0.003
    9CHTO   O44 3571   8.347   4.552   2.679
    9CHTO  H102 3572   8.436   4.568   2.655
    9CHTO   C63 3573   8.416   4.442   0.045
    9CHTO  H120 3574   8.424   4.476   0.149
    9CHTO   N11 3575   8.560   4.427   0.009
    9CHTO  H108 3576   8.569   4.385   2.769
    9CHTO  H109 3577   8.609   4.523   0.011
    9CHTO   C61 3578   8.334   4.308   0.051
    9CHTO  H118 3579   8.391   4.241   0.117
    9CHTO   O40 3580   8.203   4.326   0.113
    9CHTO   C68 3581   8.149   4.462   0.123
    9CHTO  H125 3582   8.194   4.512   0.212
    9CHTO   C72 3583   7.997   4.453   0.150
    9CHTO   O48 3584   7.967   4.391   0.276
    9CHTO  H105 3585   7.874   4.387   0.287
    9CHTO   O38 3586   8.324   4.247   2.778
    9CHTO   C55 3587   8.220   4.149   2.752
    9CHTO  H112 3588   8.124   4.186   2.791
    9CHTO   C56 3589   8.257   4.006   2.812
    9CHTO  H113 3590   8.357   3.980   2.774
    9CHTO   O42 3591   8.268   4.014   0.097
    9CHTO  H100 3592   8.340   4.069   0.121
    9CHTO   C57 3593   8.149   3.898   2.771
    9CHTO  H114 3594   8.061   3.919   2.831
    9CHTO   N10 3595   8.190   3.759   2.804
    9CHTO  H106 3596   8.298   3.748   2.798
    9CHTO  H107 3597   8.158   3.733   0.046
    9CHTO   C58 3598   8.110   3.909   2.621
    9CHTO  H115 3599   8.187   3.858   2.557
    9CHTO   O37 3600   8.091   4.044   2.577
    9CHTO   C59 3601   8.200   4.134   2.600
    9CHTO  H116 3602   8.290   4.095   2.553
    9CHTO   C70 3603   8.167   4.269   2.535
    9CHTO   O46 3604   8.155   4.261   2.392
    9CHTO  H103 3605   8.239   4.243   2.354
    9CHTO   O39 3606   7.965   3.846   2.598
    9CHTO   C60 3607   7.955   3.713   2.543
    9CHTO  H117 3608   8.054   3.667   2.538
    9CHTO   C62 3609   7.864   3.626   2.633
    9CHTO  H119 3610   7.912   3.623   2.734
    9CHTO   O43 3611   7.735   3.689   2.647
    9CHTO  H101 3612   7.681   3.640   2.706
    9CHTO   C66 3613   7.857   3.477   2.573
    9CHTO  H123 3614   7.958   3.438   2.564
    9CHTO   N12 3615   7.785   3.384   2.663
    9CHTO  H110 3616   7.683   3.416   2.677
    9CHTO  H111 3617   7.789   3.283   2.623
    9CHTO   C69 3618   7.796   3.482   2.430
    9CHTO  H126 3619   7.690   3.518   2.435
    9CHTO   O41 3620   7.881   3.582   2.340
    9CHTO   C64 3621   7.900   3.720   2.398
    9CHTO  H121 3622   7.802   3.772   2.399
    9CHTO   C71 3623   7.994   3.799   2.303
    9CHTO   O47 3624   8.122   3.736   2.290
    9CHTO  H104 3625   8.114   3.656   2.243
    9CHTO   O34 3626   7.797   3.340   2.362
    9CHTO   C49 3627   7.877   3.293   2.239
    9CHTO   H91 3628   7.845   3.354   2.155
    9CHTO   C47 3629   7.842   3.145   2.213
    9CHTO   H89 3630   7.888   3.122   2.114
    9CHTO   O33 3631   7.699   3.129   2.200
    9CHTO   H70 3632   7.680   3.042   2.169
    9CHTO   C45 3633   7.900   3.047   2.329
    9CHTO   H87 3634   7.819   3.029   2.402
    9CHTO    N8 3635   7.939   2.916   2.269
    9CHTO   H75 3636   7.935   2.919   2.161
    9CHTO   H76 3637   7.875   2.838   2.307
    9CHTO   C43 3638   8.015   3.122   2.413
    9CHTO   H85 3639   7.961   3.189   2.481
    9CHTO   O29 3640   8.100   3.196   2.323
    9CHTO   C50 3641   8.032   3.305   2.258
    9CHTO   H92 3642   8.052   3.395   2.317
    9CHTO   C54 3643   8.104   3.336   2.124
    9CHTO   O36 3644   8.107   3.225   2.034
    9CHTO   H72 3645   8.163   3.158   2.068
    9CHTO   O27 3646   8.090   3.036   2.501
    9CHTO   C37 3647   8.141   3.059   2.633
    9CHTO   H79 3648   8.209   2.977   2.661
    9CHTO   C38 3649   8.223   3.192   2.640
    9CHTO   H80 3650   8.163   3.272   2.595
    9CHTO   O31 3651   8.342   3.172   2.561
    9CHTO   H68 3652   8.390   3.252   2.555
    9CHTO   C39 3653   8.259   3.232   2.789
    9CHTO   H81 3654   8.327   3.156   2.828
    9CHTO    N7 3655   8.329   3.365   2.801
    9CHTO   H73 3656   8.342   3.410   2.703
    9CHTO   H74 3657   8.424   3.353   2.850
    9CHTO   C40 3658   8.128   3.228   0.018
    9CHTO   H82 3659   8.059   3.305   2.841
    9CHTO   O26 3660   8.071   3.096   0.010
    9CHTO   C41 3661   8.022   3.062   2.735
    9CHTO   H83 3662   7.947   3.136   2.703
    9CHTO   C52 3663   7.952   2.925   2.749
    9CHTO   O35 3664   7.879   2.883   2.628
    9CHTO   H71 3665   7.807   2.941   2.613
    9CHTO   O28 3666   8.151   3.246   0.160
    9CHTO   C42 3667   8.047   3.309   0.242
    9CHTO   H84 3668   8.074   3.281   0.343
    9CHTO   C44 3669   7.900   3.257   0.220
    9CHTO   H86 3670   7.877   3.260   0.114
    9CHTO   O32 3671   7.897   3.119   0.262
    9CHTO   H69 3672   7.946   3.066   0.202
    9CHTO   C48 3673   7.790   3.344   0.295
    9CHTO   H90 3674   7.802   3.330   0.402
    9CHTO    N9 3675   7.651   3.298   0.262
    9CHTO   H77 3676   7.579   3.359   0.316
    9CHTO   H78 3677   7.633   3.306   0.156
    9CHTO   C51 3678   7.816   3.495   0.259
    9CHTO   H93 3679   7.813   3.504   0.150
    9CHTO   O30 3680   7.945   3.529   0.312
    9CHTO   C46 3681   8.056   3.465   0.235
    9CHTO   H88 3682   8.050   3.497   0.131
    9CHTO   C53 3683   8.189   3.515   0.297
    9CHTO   O72 3684   8.201   3.657   0.288
    9CHTO  H199 3685   8.281   3.684   0.327
    9CHTO   O22 3686   7.724   3.587   0.321
    9CHTO   C31 3687   7.702   3.722   0.264
    9CHTO   H59 3688   7.626   3.770   0.329
    9CHTO   C29 3689   7.827   3.813   0.265
    9CHTO   H57 3690   7.904   3.766   0.202
    9CHTO   O21 3691   7.878   3.818   0.399
    9CHTO   H37 3692   7.911   3.734   0.425
    9CHTO   C27 3693   7.794   3.957   0.207
    9CHTO   H55 3694   7.721   4.006   0.274
    9CHTO    N5 3695   7.914   4.044   0.197
    9CHTO   H43 3696   7.961   4.053   0.294
    9CHTO   H44 3697   7.886   4.142   0.161
    9CHTO   C25 3698   7.724   3.942   0.067
    9CHTO   H53 3699   7.796   3.898   2.853
    9CHTO   O17 3700   7.609   3.852   0.077
    9CHTO   C32 3701   7.640   3.719   0.121
    9CHTO   H60 3702   7.713   3.675   0.052
    9CHTO   C36 3703   7.511   3.635   0.117
    9CHTO   O25 3704   7.472   3.610   2.840
    9CHTO   H40 3705   7.392   3.559   2.839
    9CHTO   O15 3706   7.672   4.083   0.012
    9CHTO   C19 3707   7.628   4.115   2.735
    9CHTO   H47 3708   7.600   4.221   2.741
    9CHTO   C20 3709   7.739   4.100   2.626
    9CHTO   H48 3710   7.779   3.998   2.623
    9CHTO   O19 3711   7.846   4.189   2.664
    9CHTO   H35 3712   7.889   4.157   2.741
    9CHTO   C21 3713   7.684   4.134   2.482
    9CHTO   H49 3714   7.654   4.239   2.479
    9CHTO    N4 3715   7.786   4.117   2.374
    9CHTO   H41 3716   7.869   4.183   2.392
    9CHTO   H42 3717   7.822   4.015   2.373
    9CHTO   C22 3718   7.556   4.050   2.456
    9CHTO   H50 3719   7.584   3.944   2.455
    9CHTO   O14 3720   7.459   4.075   2.559
    9CHTO   C23 3721   7.499   4.038   2.692
    9CHTO   H51 3722   7.515   3.929   2.692
    9CHTO   C34 3723   7.382   4.066   2.788
    9CHTO   O23 3724   7.340   4.203   2.786
    9CHTO   H38 3725   7.268   4.214   2.846
    9CHTO   O16 3726   7.489   4.086   2.334
    9CHTO   C24 3727   7.387   3.974   2.282
    9CHTO   H52 3728   7.370   3.896   2.357
    9CHTO   C26 3729   7.442   3.910   2.153
    9CHTO   H54 3730   7.466   3.991   2.080
    9CHTO   O20 3731   7.564   3.841   2.185
    9CHTO   H36 3732   7.632   3.903   2.206
    9CHTO   C30 3733   7.337   3.814   2.087
    9CHTO   H58 3734   7.322   3.726   2.150
    9CHTO    N6 3735   7.384   3.762   1.955
    9CHTO   H45 3736   7.476   3.708   1.968
    9CHTO   H46 3737   7.310   3.696   1.913
    9CHTO   C33 3738   7.198   3.885   2.075
    9CHTO   H61 3739   7.205   3.969   2.004
    9CHTO   O18 3740   7.162   3.938   2.204
    9CHTO   C28 3741   7.249   4.039   2.255
    9CHTO   H56 3742   7.262   4.120   2.182
    9CHTO   C35 3743   7.186   4.097   2.383
    9CHTO   O24 3744   7.062   4.163   2.358
    9CHTO   H39 3745   7.029   4.199   2.438
    9CHTO    O9 3746   7.095   3.798   2.023
    9CHTO   C13 3747   6.967   3.876   1.956
    9CHTO   H26 3748   7.004   3.934   1.870
    9CHTO   C11 3749   6.896   3.971   2.063
    9CHTO   H24 3750   6.965   4.054   2.084
    9CHTO    O8 3751   6.874   3.899   2.186
    9CHTO    H3 3752   6.842   3.958   2.252
    9CHTO    C9 3753   6.767   4.029   1.999
    9CHTO   H22 3754   6.800   4.078   1.905
    9CHTO    N2 3755   6.706   4.137   2.079
    9CHTO   H10 3756   6.601   4.117   2.098
    9CHTO   H11 3757   6.717   4.233   2.029
    9CHTO    C7 3758   6.671   3.911   1.962
    9CHTO   H20 3759   6.585   3.960   1.912
    9CHTO    O4 3760   6.734   3.822   1.867
    9CHTO   C14 3761   6.865   3.769   1.895
    9CHTO   H27 3762   6.906   3.737   1.798
    9CHTO   C18 3763   6.854   3.641   1.983
    9CHTO   O13 3764   6.780   3.538   1.916
    9CHTO    H7 3765   6.829   3.506   1.843
    9CHTO    O2 3766   6.622   3.823   2.094
    9CHTO    C1 3767   6.483   3.790   2.111
    9CHTO   H14 3768   6.479   3.700   2.176
    9CHTO    C2 3769   6.400   3.759   1.980
    9CHTO   H15 3770   6.407   3.847   1.915
    9CHTO    O6 3771   6.460   3.646   1.915
    9CHTO    H1 3772   6.419   3.631   1.832
    9CHTO    C3 3773   6.246   3.731   2.016
    9CHTO   H16 3774   6.240   3.634   2.068
    9CHTO    N1 3775   6.160   3.719   1.892
    9CHTO    H8 3776   6.058   3.697   1.920
    9CHTO    H9 3777   6.164   3.811   1.836
    9CHTO    C4 3778   6.189   3.838   2.117
    9CHTO   H17 3779   6.169   3.931   2.063
    9CHTO    O1 3780   6.279   3.861   2.226
    9CHTO    C5 3781   6.412   3.902   2.192
    9CHTO   H18 3782   6.409   3.992   2.131
    9CHTO   C16 3783   6.486   3.934   2.325
    9CHTO   O11 3784   6.427   4.045   2.393
    9CHTO    H5 3785   6.444   4.124   2.344
    9CHTO    O3 3786   6.070   3.789   2.183
    9CHTO    C6 3787   5.956   3.880   2.195
    9CHTO   H19 3788   5.968   3.972   2.139
    9CHTO    C8 3789   5.828   3.808   2.142
    9CHTO   H21 3790   5.821   3.711   2.190
    9CHTO    O7 3791   5.846   3.790   2.000
    9CHTO    H2 3792   5.775   3.739   1.965
    9CHTO   C12 3793   5.696   3.890   2.175
    9CHTO   H25 3794   5.701   3.983   2.115
    9CHTO    N3 3795   5.573   3.816   2.131
    9CHTO   H12 3796   5.485   3.874   2.155
    9CHTO   H13 3797   5.577   3.797   2.025
    9CHTO   C15 3798   5.695   3.927   2.327
    9CHTO   H28 3799   5.685   3.839   2.389
    9CHTO   O10 3800   5.585   4.028   2.363
    9CHTO    H4 3801   5.581   4.039   2.456
    9CHTO    O5 3802   5.816   3.998   2.361
    9CHTO   C10 3803   5.935   3.920   2.345
    9CHTO   H23 3804   5.926   3.830   2.404
    9CHTO   C17 3805   6.052   4.001   2.404
    9CHTO   O12 3806   6.077   4.123   2.333
    9CHTO    H6 3807   6.007   4.183   2.346
   10CHTO  H203 3808   5.037   6.116   2.212
   10CHTO   O82 3809   5.003   6.051   2.154
   10CHTO  C123 3810   4.859   6.048   2.158
   10CHTO  H227 3811   4.823   5.973   2.086
   10CHTO   O77 3812   4.830   6.002   2.294
   10CHTO  C118 3813   4.690   5.984   2.322
   10CHTO  H222 3814   4.645   5.915   2.249
   10CHTO  C125 3815   4.676   5.922   2.466
   10CHTO   O84 3816   4.737   5.793   2.474
   10CHTO  H205 3817   4.689   5.732   2.421
   10CHTO  C114 3818   4.620   6.122   2.312
   10CHTO  H218 3819   4.668   6.190   2.383
   10CHTO  C116 3820   4.639   6.181   2.169
   10CHTO  H220 3821   4.586   6.116   2.096
   10CHTO   O79 3822   4.574   6.309   2.163
   10CHTO  H201 3823   4.615   6.370   2.222
   10CHTO  C120 3824   4.793   6.189   2.133
   10CHTO  H224 3825   4.838   6.264   2.202
   10CHTO   N21 3826   4.815   6.237   1.994
   10CHTO  H211 3827   4.906   6.197   1.953
   10CHTO  H212 3828   4.816   6.345   1.992
   10CHTO   O75 3829   4.482   6.100   2.347
   10CHTO  C112 3830   4.426   6.211   2.456
   10CHTO  H216 3831   4.474   6.308   2.435
   10CHTO   O73 3832   4.459   6.163   2.587
   10CHTO  C113 3833   4.420   6.250   2.694
   10CHTO  H217 3834   4.470   6.348   2.680
   10CHTO  C124 3835   4.473   6.192   2.827
   10CHTO   O83 3836   4.425   6.060   2.856
   10CHTO  H204 3837   4.333   6.062   0.015
   10CHTO  C109 3838   4.266   6.270   2.697
   10CHTO  H213 3839   4.222   6.171   2.718
   10CHTO  C110 3840   4.218   6.321   2.558
   10CHTO  H214 3841   4.255   6.423   2.543
   10CHTO   O78 3842   4.074   6.327   2.561
   10CHTO  H200 3843   4.041   6.365   2.482
   10CHTO  C111 3844   4.270   6.228   2.443
   10CHTO  H215 3845   4.224   6.129   2.455
   10CHTO   N19 3846   4.233   6.276   2.307
   10CHTO  H207 3847   4.126   6.283   2.299
   10CHTO  H208 3848   4.271   6.207   2.233
   10CHTO   O74 3849   4.230   6.363   2.803
   10CHTO  C115 3850   4.110   6.308   0.040
   10CHTO  H219 3851   4.021   6.284   2.840
   10CHTO   O76 3852   4.151   6.174   0.112
   10CHTO  C122 3853   4.051   6.116   0.196
   10CHTO  H226 3854   4.100   6.035   0.251
   10CHTO  C126 3855   3.938   6.048   0.111
   10CHTO   O85 3856   3.987   5.941   0.029
   10CHTO  H206 3857   4.046   5.974   2.822
   10CHTO  C121 3858   3.992   6.219   0.301
   10CHTO  H225 3859   3.900   6.173   0.341
   10CHTO   O81 3860   4.084   6.235   0.409
   10CHTO  H202 3861   4.164   6.275   0.379
   10CHTO  C119 3862   3.955   6.357   0.238
   10CHTO  H223 3863   3.869   6.339   0.173
   10CHTO  C117 3864   4.070   6.415   0.147
   10CHTO  H221 3865   4.163   6.441   0.198
   10CHTO   N20 3866   4.025   6.542   0.080
   10CHTO  H209 3867   4.105   6.582   0.019
   10CHTO  H210 3868   3.997   6.615   0.155
   10CHTO   O80 3869   3.891   6.463   0.348
   10CHTO  C103 3870   3.739   6.443   0.403
   10CHTO  H190 3871   3.703   6.540   0.438
   10CHTO  C101 3872   3.633   6.387   0.301
   10CHTO  H188 3873   3.672   6.296   0.255
   10CHTO   O68 3874   3.609   6.494   0.189
   10CHTO  H168 3875   3.689   6.508   0.142
   10CHTO   C99 3876   3.497   6.348   0.377
   10CHTO  H186 3877   3.454   6.439   0.425
   10CHTO   N17 3878   3.391   6.290   0.288
   10CHTO  H174 3879   3.425   6.197   0.246
   10CHTO  H175 3880   3.299   6.276   0.344
   10CHTO   C97 3881   3.533   6.252   0.494
   10CHTO  H184 3882   3.580   6.163   0.450
   10CHTO   O64 3883   3.621   6.321   0.585
   10CHTO  C104 3884   3.751   6.350   0.530
   10CHTO  H191 3885   3.803   6.258   0.503
   10CHTO  C108 3886   3.836   6.416   0.639
   10CHTO   O71 3887   3.858   6.328   0.750
   10CHTO  H171 3888   3.777   6.315   0.797
   10CHTO   O62 3889   3.422   6.216   0.580
   10CHTO   C91 3890   3.416   6.076   0.617
   10CHTO  H178 3891   3.421   6.019   0.524
   10CHTO   C92 3892   3.273   6.048   0.676
   10CHTO  H179 3893   3.196   6.095   0.613
   10CHTO   O66 3894   3.250   5.907   0.667
   10CHTO  H166 3895   3.161   5.887   0.689
   10CHTO   C93 3896   3.259   6.089   0.828
   10CHTO  H180 3897   3.168   6.040   0.865
   10CHTO   N16 3898   3.234   6.234   0.848
   10CHTO  H172 3899   3.142   6.262   0.800
   10CHTO  H173 3900   3.317   6.291   0.809
   10CHTO   C94 3901   3.383   6.037   0.913
   10CHTO  H181 3902   3.441   6.119   0.956
   10CHTO   O61 3903   3.475   5.959   0.835
   10CHTO   C95 3904   3.529   6.025   0.718
   10CHTO  H182 3905   3.589   6.110   0.751
   10CHTO  C106 3906   3.626   5.923   0.650
   10CHTO   O69 3907   3.710   5.983   0.551
   10CHTO  H169 3908   3.771   6.042   0.593
   10CHTO   O63 3909   3.326   5.944   1.028
   10CHTO   C96 3910   3.417   5.937   1.158
   10CHTO  H183 3911   3.498   6.010   1.148
   10CHTO   C98 3912   3.479   5.798   1.186
   10CHTO  H185 3913   3.401   5.721   1.182
   10CHTO   O67 3914   3.569   5.768   1.077
   10CHTO  H167 3915   3.520   5.754   0.998
   10CHTO  C102 3916   3.557   5.792   1.327
   10CHTO  H189 3917   3.645   5.856   1.315
   10CHTO   N18 3918   3.609   5.658   1.364
   10CHTO  H176 3919   3.528   5.587   1.373
   10CHTO  H177 3920   3.663   5.663   1.457
   10CHTO  C105 3921   3.468   5.853   1.439
   10CHTO  H192 3922   3.386   5.785   1.461
   10CHTO   O65 3923   3.412   5.980   1.401
   10CHTO  C100 3924   3.330   5.978   1.283
   10CHTO  H187 3925   3.251   5.903   1.297
   10CHTO  C107 3926   3.264   6.116   1.265
   10CHTO   O70 3927   3.171   6.143   1.371
   10CHTO  H170 3928   3.096   6.086   1.364
   10CHTO   O57 3929   3.565   5.874   1.575
   10CHTO   C85 3930   3.509   5.937   1.691
   10CHTO  H157 3931   3.400   5.915   1.688
   10CHTO   C83 3932   3.522   6.092   1.680
   10CHTO  H155 3933   3.472   6.124   1.589
   10CHTO   O56 3934   3.661   6.127   1.663
   10CHTO  H135 3935   3.694   6.093   1.583
   10CHTO   C81 3936   3.453   6.158   1.802
   10CHTO  H153 3937   3.348   6.126   1.803
   10CHTO   N14 3938   3.447   6.306   1.789
   10CHTO  H141 3939   3.400   6.333   1.697
   10CHTO  H142 3940   3.391   6.347   1.871
   10CHTO   C79 3941   3.520   6.111   1.937
   10CHTO  H151 3942   3.455   6.146   2.018
   10CHTO   O52 3943   3.522   5.964   1.946
   10CHTO   C86 3944   3.574   5.893   1.829
   10CHTO  H158 3945   3.683   5.916   1.830
   10CHTO   C90 3946   3.563   5.740   1.850
   10CHTO   O60 3947   3.427   5.698   1.869
   10CHTO  H138 3948   3.395   5.730   1.951
   10CHTO   O50 3949   3.651   6.166   1.958
   10CHTO   C73 3950   3.743   6.166   2.068
   10CHTO  H145 3951   3.761   6.063   2.101
   10CHTO   C74 3952   3.687   6.247   2.189
   10CHTO  H146 3953   3.588   6.207   2.213
   10CHTO   O54 3954   3.771   6.220   2.303
   10CHTO  H133 3955   3.761   6.130   2.330
   10CHTO   C75 3956   3.681   6.401   2.152
   10CHTO  H147 3957   3.617   6.413   2.064
   10CHTO   N13 3958   3.623   6.486   2.259
   10CHTO  H139 3959   3.621   6.589   2.227
   10CHTO  H140 3960   3.521   6.454   2.279
   10CHTO   C76 3961   3.829   6.447   2.112
   10CHTO  H148 3962   3.894   6.427   2.196
   10CHTO   O49 3963   3.873   6.369   1.996
   10CHTO   C77 3964   3.880   6.227   2.020
   10CHTO  H149 3965   3.956   6.206   2.095
   10CHTO   C88 3966   3.931   6.165   1.890
   10CHTO   O58 3967   3.928   6.023   1.893
   10CHTO  H136 3968   3.992   5.991   1.954
   10CHTO   O51 3969   3.835   6.601   2.065
   10CHTO   C78 3970   3.987   6.656   2.053
   10CHTO  H150 3971   4.057   6.573   2.026
   10CHTO   C80 3972   4.034   6.718   2.187
   10CHTO  H152 3973   3.960   6.794   2.219
   10CHTO   O55 3974   4.036   6.613   2.285
   10CHTO  H134 3975   4.056   6.648   2.370
   10CHTO   C84 3976   4.177   6.786   2.172
   10CHTO  H156 3977   4.249   6.708   2.148
   10CHTO   N15 3978   4.223   6.852   2.299
   10CHTO  H143 3979   4.237   6.957   2.286
   10CHTO  H144 3980   4.316   6.808   2.331
   10CHTO   C87 3981   4.173   6.886   2.053
   10CHTO  H159 3982   4.104   6.967   2.076
   10CHTO   O53 3983   4.126   6.812   1.928
   10CHTO   C82 3984   3.993   6.760   1.940
   10CHTO  H154 3985   3.923   6.841   1.959
   10CHTO   C89 3986   3.953   6.696   1.805
   10CHTO   O59 3987   3.945   6.793   1.701
   10CHTO  H137 3988   3.870   6.849   1.715
   10CHTO   O45 3989   4.321   6.946   2.020
   10CHTO   C67 3990   4.312   7.066   1.940
   10CHTO  H124 3991   4.229   7.059   1.870
   10CHTO   C65 3992   4.293   7.190   2.032
   10CHTO  H122 3993   4.215   7.163   2.103
   10CHTO   O44 3994   4.246   7.302   1.954
   10CHTO  H102 3995   4.312   7.330   1.894
   10CHTO   C63 3996   4.423   7.214   2.116
   10CHTO  H120 3997   4.448   7.121   2.168
   10CHTO   N11 3998   4.408   7.311   2.229
   10CHTO  H108 3999   4.498   7.312   2.288
   10CHTO  H109 4000   4.325   7.283   2.291
   10CHTO   C61 4001   4.542   7.245   2.017
   10CHTO  H118 4002   4.633   7.247   2.079
   10CHTO   O40 4003   4.560   7.138   1.920
   10CHTO   C68 4004   4.443   7.080   1.851
   10CHTO  H125 4005   4.473   6.977   1.823
   10CHTO   C72 4006   4.414   7.156   1.719
   10CHTO   O48 4007   4.519   7.140   1.623
   10CHTO  H105 4008   4.521   7.052   1.592
   10CHTO   O38 4009   4.525   7.371   1.947
   10CHTO   C55 4010   4.635   7.464   1.941
   10CHTO  H112 4011   4.728   7.409   1.918
   10CHTO   C56 4012   4.648   7.547   2.077
   10CHTO  H113 4013   4.546   7.573   2.108
   10CHTO   O42 4014   4.702   7.463   2.181
   10CHTO  H100 4015   4.643   7.393   2.200
   10CHTO   C57 4016   4.735   7.679   2.063
   10CHTO  H114 4017   4.839   7.647   2.052
   10CHTO   N10 4018   4.727   7.768   2.181
   10CHTO  H106 4019   4.631   7.760   2.228
   10CHTO  H107 4020   4.804   7.742   2.253
   10CHTO   C58 4021   4.694   7.754   1.934
   10CHTO  H115 4022   4.587   7.786   1.944
   10CHTO   O37 4023   4.708   7.667   1.821
   10CHTO   C59 4024   4.611   7.560   1.821
   10CHTO  H116 4025   4.511   7.602   1.825
   10CHTO   C70 4026   4.625   7.485   1.688
   10CHTO   O46 4027   4.594   7.567   1.575
   10CHTO  H103 4028   4.602   7.516   1.496
   10CHTO   O39 4029   4.791   7.886   1.904
   10CHTO   C60 4030   4.720   8.008   1.879
   10CHTO  H117 4031   4.612   7.992   1.886
   10CHTO   C62 4032   4.758   8.118   1.983
   10CHTO  H119 4033   4.730   8.076   2.083
   10CHTO   O43 4034   4.901   8.138   1.982
   10CHTO  H101 4035   4.925   8.199   2.049
   10CHTO   C66 4036   4.673   8.252   1.957
   10CHTO  H123 4037   4.567   8.227   1.965
   10CHTO   N12 4038   4.698   8.356   2.060
   10CHTO  H110 4039   4.673   8.318   2.158
   10CHTO  H111 4040   4.641   8.445   2.037
   10CHTO   C69 4041   4.697   8.305   1.813
   10CHTO  H126 4042   4.803   8.337   1.802
   10CHTO   O41 4043   4.666   8.190   1.709
   10CHTO   C64 4044   4.747   8.060   1.735
   10CHTO  H121 4045   4.856   8.081   1.724
   10CHTO   C71 4046   4.708   7.953   1.629
   10CHTO   O47 4047   4.742   7.996   1.497
   10CHTO  H104 4048   4.686   8.067   1.471
   10CHTO   O34 4049   4.601   8.433   1.781
   10CHTO   C49 4050   4.461   8.491   1.739
   10CHTO   H91 4051   4.462   8.595   1.771
   10CHTO   C47 4052   4.346   8.419   1.814
   10CHTO   H89 4053   4.352   8.458   1.918
   10CHTO   O33 4054   4.369   8.277   1.817
   10CHTO   H70 4055   4.309   8.236   1.877
   10CHTO   C45 4056   4.201   8.444   1.746
   10CHTO   H87 4057   4.177   8.355   1.686
   10CHTO    N8 4058   4.096   8.458   1.849
   10CHTO   H75 4059   4.138   8.469   1.948
   10CHTO   H76 4060   4.030   8.372   1.848
   10CHTO   C43 4061   4.203   8.562   1.638
   10CHTO   H85 4062   4.104   8.566   1.594
   10CHTO   O29 4063   4.305   8.532   1.540
   10CHTO   C50 4064   4.435   8.489   1.585
   10CHTO   H92 4065   4.454   8.387   1.549
   10CHTO   C54 4066   4.541   8.575   1.512
   10CHTO   O36 4067   4.535   8.559   1.370
   10CHTO   H72 4068   4.561   8.472   1.346
   10CHTO   O27 4069   4.226   8.692   1.696
   10CHTO   C37 4070   4.258   8.826   1.655
   10CHTO   H79 4071   4.365   8.833   1.631
   10CHTO   C38 4072   4.179   8.867   1.526
   10CHTO   H80 4073   4.072   8.852   1.544
   10CHTO   O31 4074   4.220   8.780   1.418
   10CHTO   H68 4075   4.191   8.693   1.434
   10CHTO   C39 4076   4.206   9.017   1.487
   10CHTO   H81 4077   4.309   9.023   1.452
   10CHTO    N7 4078   4.118   9.065   1.374
   10CHTO   H73 4079   4.179   9.101   1.292
   10CHTO   H74 4080   4.050   9.142   1.407
   10CHTO   C40 4081   4.197   9.114   1.611
   10CHTO   H82 4082   4.093   9.137   1.636
   10CHTO   O26 4083   4.268   9.061   1.725
   10CHTO   C41 4084   4.224   8.928   1.767
   10CHTO   H83 4085   4.115   8.930   1.785
   10CHTO   C52 4086   4.294   8.898   1.901
   10CHTO   O35 4087   4.238   8.780   1.969
   10CHTO   H71 4088   4.283   8.766   2.050
   10CHTO   O28 4089   4.270   9.235   1.584
   10CHTO   C42 4090   4.225   9.366   1.632
   10CHTO   H84 4091   4.171   9.347   1.724
   10CHTO   C44 4092   4.125   9.441   1.537
   10CHTO   H86 4093   4.170   9.448   1.438
   10CHTO   O32 4094   4.007   9.360   1.525
   10CHTO   H69 4095   3.963   9.352   1.608
   10CHTO   C48 4096   4.090   9.588   1.585
   10CHTO   H90 4097   4.028   9.581   1.675
   10CHTO    N9 4098   4.007   9.662   1.484
   10CHTO   H77 4099   4.060   9.669   1.390
   10CHTO   H78 4100   3.912   9.612   1.470
   10CHTO   C51 4101   4.222   9.666   1.623
   10CHTO   H93 4102   4.281   9.679   1.532
   10CHTO   O30 4103   4.293   9.590   1.722
   10CHTO   C46 4104   4.345   9.459   1.667
   10CHTO   H88 4105   4.403   9.479   1.577
   10CHTO   C53 4106   4.436   9.394   1.774
   10CHTO   O72 4107   4.551   9.476   1.801
   10CHTO  H199 4108   4.604   9.435   1.865
   10CHTO   O22 4109   4.194   9.793   1.685
   10CHTO   C31 4110   4.291   9.905   1.681
   10CHTO   H59 4111   4.248   9.984   1.747
   10CHTO   C29 4112   4.431   9.871   1.737
   10CHTO   H57 4113   4.472   9.787   1.678
   10CHTO   O21 4114   4.415   9.822   1.872
   10CHTO   H37 4115   4.368   9.741   1.872
   10CHTO   C27 4116   4.531   9.993   1.729
   10CHTO   H55 4117   4.493   0.073   1.795
   10CHTO    N5 4118   4.669   9.959   1.772
   10CHTO   H43 4119   4.742   9.981   1.695
   10CHTO   H44 4120   4.677   9.855   1.800
   10CHTO   C25 4121   4.528   0.052   1.584
   10CHTO   H53 4122   4.568   9.977   1.513
   10CHTO   O17 4123   4.392   0.084   1.544
   10CHTO   C32 4124   4.304   9.971   1.540
   10CHTO   H60 4125   4.343   9.897   1.470
   10CHTO   C36 4126   4.166   0.020   1.489
   10CHTO   O25 4127   4.174   0.070   1.355
   10CHTO   H40 4128   4.190  10.000   1.295
   10CHTO   O15 4129   4.615   0.185   1.573
   10CHTO   C19 4130   4.642   0.276   1.463
   10CHTO   H47 4131   4.572   0.245   1.384
   10CHTO   C20 4132   4.613   0.426   1.498
   10CHTO   H48 4133   4.674   0.460   1.584
   10CHTO   O19 4134   4.475   0.434   1.537
   10CHTO   H35 4135   4.462   0.391   1.620
   10CHTO   C21 4136   4.643   0.521   1.376
   10CHTO   H49 4137   4.572   0.498   1.296
   10CHTO    N4 4138   4.624   0.665   1.409
   10CHTO   H41 4139   4.550   0.710   1.343
   10CHTO   H42 4140   4.716   0.721   1.401
   10CHTO   C22 4141   4.785   0.490   1.320
   10CHTO   H50 4142   4.859   0.520   1.395
   10CHTO   O14 4143   4.798   0.351   1.290
   10CHTO   C23 4144   4.785   0.263   1.403
   10CHTO   H51 4145   4.863   0.289   1.476
   10CHTO   C34 4146   4.815   0.121   1.353
   10CHTO   O23 4147   4.835   0.029   1.460
   10CHTO   H38 4148   4.915   0.048   1.505
   10CHTO   O16 4149   4.809   0.555   1.194
   10CHTO   C24 4150   4.958   0.618   1.176
   10CHTO   H52 4151   5.021   0.600   1.264
   10CHTO   C26 4152   4.945   0.770   1.151
   10CHTO   H54 4153   4.869   0.785   1.071
   10CHTO   O20 4154   4.895   0.829   1.272
   10CHTO   H36 4155   4.876   0.920   1.257
   10CHTO   C30 4156   5.079   0.836   1.106
   10CHTO   H58 4157   5.147   0.843   1.192
   10CHTO    N6 4158   5.059   0.976   1.060
   10CHTO   H45 4159   5.154   1.021   1.034
   10CHTO   H46 4160   4.994   0.978   0.974
   10CHTO   C33 4161   5.154   0.750   1.000
   10CHTO   H61 4162   5.101   0.756   0.903
   10CHTO   O18 4163   5.158   0.613   1.041
   10CHTO   C28 4164   5.029   0.551   1.056
   10CHTO   H56 4165   4.969   0.566   0.966
   10CHTO   C35 4166   5.050   0.400   1.078
   10CHTO   O24 4167   5.110   0.339   0.963
   10CHTO   H39 4168   5.123   0.247   0.980
   10CHTO    O9 4169   5.287   0.800   0.974
   10CHTO   C13 4170   5.332   0.804   0.817
   10CHTO   H26 4171   5.271   0.881   0.767
   10CHTO   C11 4172   5.315   0.661   0.748
   10CHTO   H24 4173   5.208   0.647   0.726
   10CHTO    O8 4174   5.356   0.555   0.837
   10CHTO    H3 4175   5.301   0.552   0.913
   10CHTO    C9 4176   5.396   0.661   0.616
   10CHTO   H22 4177   5.366   0.753   0.563
   10CHTO    N2 4178   5.360   0.552   0.523
   10CHTO   H10 4179   5.254   0.554   0.502
   10CHTO   H11 4180   5.388   0.457   0.565
   10CHTO    C7 4181   5.550   0.672   0.652
   10CHTO   H20 4182   5.593   0.728   0.567
   10CHTO    O4 4183   5.574   0.745   0.775
   10CHTO   C14 4184   5.484   0.854   0.802
   10CHTO   H27 4185   5.489   0.925   0.716
   10CHTO   C18 4186   5.537   0.930   0.926
   10CHTO   O13 4187   5.463   1.051   0.948
   10CHTO    H7 4188   5.497   1.095   1.023
   10CHTO    O2 4189   5.623   0.523   0.665
   10CHTO    C1 4190   5.767   0.523   0.660
   10CHTO   H14 4191   5.806   0.613   0.713
   10CHTO    C2 4192   5.826   0.522   0.513
   10CHTO   H15 4193   5.773   0.440   0.460
   10CHTO    O6 4194   5.796   0.647   0.448
   10CHTO    H1 4195   5.838   0.718   0.493
   10CHTO    C3 4196   5.984   0.493   0.513
   10CHTO   H16 4197   6.035   0.580   0.556
   10CHTO    N1 4198   6.037   0.474   0.373
   10CHTO    H8 4199   6.019   0.564   0.315
   10CHTO    H9 4200   6.143   0.455   0.376
   10CHTO    C4 4201   6.019   0.372   0.607
   10CHTO   H17 4202   5.980   0.280   0.562
   10CHTO    O1 4203   5.962   0.392   0.737
   10CHTO    C5 4204   5.818   0.399   0.739
   10CHTO   H18 4205   5.777   0.310   0.692
   10CHTO   C16 4206   5.772   0.403   0.887
   10CHTO   O11 4207   5.805   0.282   0.956
   10CHTO    H5 4208   5.754   0.211   0.923
   10CHTO    O3 4209   6.161   0.362   0.633
   10CHTO    C6 4210   6.222   0.228   0.623
   10CHTO   H19 4211   6.153   0.151   0.589
   10CHTO    C8 4212   6.342   0.231   0.522
   10CHTO   H21 4213   6.409   0.312   0.552
   10CHTO    O7 4214   6.287   0.259   0.392
   10CHTO    H2 4215   6.356   0.270   0.330
   10CHTO   C12 4216   6.421   0.094   0.523
   10CHTO   H25 4217   6.354   0.019   0.475
   10CHTO    N3 4218   6.544   0.101   0.436
   10CHTO   H12 4219   6.516   0.122   0.334
   10CHTO   H13 4220   6.611   0.177   0.473
   10CHTO   C15 4221   6.452   0.048   0.669
   10CHTO   H28 4222   6.531   0.108   0.715
   10CHTO   O10 4223   6.491   9.897   0.676
   10CHTO    H4 4224   6.520   9.875   0.763
   10CHTO    O5 4225   6.334   0.051   0.751
   10CHTO   C10 4226   6.275   0.182   0.762
   10CHTO   H23 4227   6.352   0.251   0.797
   10CHTO   C17 4228   6.166   0.175   0.869
   10CHTO   O12 4229   6.223   0.155   0.999
   10CHTO    H6 4230   6.155   0.153   1.064
   11CHTO  H203 4231   7.456   4.939   0.217
   11CHTO   O82 4232   7.482   4.978   0.135
   11CHTO  C123 4233   7.447   5.117   0.132
   11CHTO  H227 4234   7.483   5.161   0.037
   11CHTO   O77 4235   7.301   5.116   0.133
   11CHTO  C118 4236   7.242   5.247   0.117
   11CHTO  H222 4237   7.281   5.293   0.025
   11CHTO  C125 4238   7.086   5.228   0.102
   11CHTO   O84 4239   7.027   5.165   0.216
   11CHTO  H205 4240   7.056   5.076   0.222
   11CHTO  C114 4241   7.279   5.336   0.237
   11CHTO  H218 4242   7.235   5.292   0.327
   11CHTO  C116 4243   7.434   5.343   0.258
   11CHTO  H220 4244   7.477   5.406   0.176
   11CHTO   O79 4245   7.461   5.414   0.380
   11CHTO  H201 4246   7.427   5.366   0.454
   11CHTO  C120 4247   7.500   5.199   0.256
   11CHTO  H224 4248   7.468   5.149   0.350
   11CHTO   N21 4249   7.648   5.207   0.259
   11CHTO  H211 4250   7.688   5.214   0.158
   11CHTO  H212 4251   7.689   5.121   0.309
   11CHTO   O75 4252   7.219   5.463   0.208
   11CHTO  C112 4253   7.134   5.531   0.332
   11CHTO  H216 4254   7.173   5.493   0.428
   11CHTO   O73 4255   6.996   5.494   0.313
   11CHTO  C113 4256   6.905   5.552   0.407
   11CHTO  H217 4257   6.936   5.522   0.509
   11CHTO  C124 4258   6.765   5.492   0.384
   11CHTO   O83 4259   6.712   5.518   0.253
   11CHTO  H204 4260   6.694   5.609   0.244
   11CHTO  C109 4261   6.906   5.707   0.394
   11CHTO  H213 4262   6.877   5.730   0.291
   11CHTO  C110 4263   7.050   5.758   0.422
   11CHTO  H214 4264   7.076   5.737   0.526
   11CHTO   O78 4265   7.053   5.901   0.405
   11CHTO  H200 4266   7.003   5.943   0.472
   11CHTO  C111 4267   7.152   5.688   0.327
   11CHTO  H215 4268   7.130   5.719   0.223
   11CHTO   N19 4269   7.293   5.724   0.353
   11CHTO  H207 4270   7.307   5.830   0.339
   11CHTO  H208 4271   7.320   5.697   0.454
   11CHTO   O74 4272   6.810   5.769   0.486
   11CHTO  C115 4273   6.723   5.885   0.415
   11CHTO  H219 4274   6.776   5.929   0.330
   11CHTO   O76 4275   6.589   5.828   0.352
   11CHTO  C122 4276   6.498   5.782   0.453
   11CHTO  H226 4277   6.546   5.699   0.504
   11CHTO  C126 4278   6.371   5.723   0.384
   11CHTO   O85 4279   6.400   5.606   0.306
   11CHTO  H206 4280   6.322   5.575   0.265
   11CHTO  C121 4281   6.460   5.896   0.557
   11CHTO  H225 4282   6.351   5.918   0.548
   11CHTO   O81 4283   6.483   5.849   0.690
   11CHTO  H202 4284   6.427   5.777   0.710
   11CHTO  C119 4285   6.539   6.028   0.529
   11CHTO  H223 4286   6.509   6.056   0.427
   11CHTO  C117 4287   6.694   5.999   0.523
   11CHTO  H221 4288   6.737   5.961   0.616
   11CHTO   N20 4289   6.773   6.122   0.491
   11CHTO  H209 4290   6.838   6.148   0.573
   11CHTO  H210 4291   6.708   6.206   0.468
   11CHTO   O80 4292   6.484   6.157   0.614
   11CHTO  C103 4293   6.498   6.163   0.773
   11CHTO  H190 4294   6.505   6.064   0.816
   11CHTO  C101 4295   6.618   6.252   0.826
   11CHTO  H188 4296   6.628   6.339   0.761
   11CHTO   O68 4297   6.749   6.168   0.818
   11CHTO  H168 4298   6.768   6.147   0.729
   11CHTO   C99 4299   6.593   6.305   0.975
   11CHTO  H186 4300   6.593   6.218   1.045
   11CHTO   N17 4301   6.698   6.400   1.024
   11CHTO  H174 4302   6.697   6.491   0.965
   11CHTO  H175 4303   6.684   6.421   1.129
   11CHTO   C97 4304   6.450   6.366   0.985
   11CHTO  H184 4305   6.444   6.452   0.916
   11CHTO   O64 4306   6.355   6.264   0.954
   11CHTO  C104 4307   6.357   6.223   0.816
   11CHTO  H191 4308   6.332   6.307   0.751
   11CHTO  C108 4309   6.247   6.119   0.796
   11CHTO   O71 4310   6.117   6.175   0.818
   11CHTO  H171 4311   6.052   6.108   0.808
   11CHTO   O62 4312   6.415   6.406   1.120
   11CHTO   C91 4313   6.324   6.516   1.135
   11CHTO  H178 4314   6.264   6.526   1.044
   11CHTO   C92 4315   6.408   6.649   1.149
   11CHTO  H179 4316   6.497   6.627   1.210
   11CHTO   O66 4317   6.460   6.683   1.019
   11CHTO  H166 4318   6.390   6.702   0.959
   11CHTO   C93 4319   6.327   6.770   1.212
   11CHTO  H180 4320   6.250   6.800   1.139
   11CHTO   N16 4321   6.409   6.891   1.237
   11CHTO  H172 4322   6.450   6.927   1.144
   11CHTO  H173 4323   6.489   6.868   1.306
   11CHTO   C94 4324   6.258   6.717   1.342
   11CHTO  H181 4325   6.328   6.668   1.409
   11CHTO   O61 4326   6.162   6.618   1.301
   11CHTO   C95 4327   6.223   6.496   1.256
   11CHTO  H182 4328   6.277   6.451   1.340
   11CHTO  C106 4329   6.108   6.397   1.218
   11CHTO   O69 4330   6.157   6.266   1.189
   11CHTO  H169 4331   6.190   6.226   1.267
   11CHTO   O63 4332   6.176   6.832   1.424
   11CHTO   C96 4333   6.221   6.834   1.578
   11CHTO  H183 4334   6.329   6.819   1.583
   11CHTO   C98 4335   6.153   6.728   1.669
   11CHTO  H185 4336   6.044   6.744   1.671
   11CHTO   O67 4337   6.171   6.598   1.611
   11CHTO  H167 4338   6.263   6.576   1.606
   11CHTO  C102 4339   6.214   6.732   1.817
   11CHTO  H189 4340   6.312   6.684   1.809
   11CHTO   N18 4341   6.139   6.650   1.916
   11CHTO  H176 4342   6.099   6.712   1.995
   11CHTO  H177 4343   6.204   6.574   1.959
   11CHTO  C105 4344   6.239   6.879   1.864
   11CHTO  H192 4345   6.197   6.893   1.964
   11CHTO   O65 4346   6.180   6.982   1.782
   11CHTO  C100 4347   6.189   6.977   1.638
   11CHTO  H187 4348   6.090   7.006   1.600
   11CHTO  C107 4349   6.288   7.085   1.587
   11CHTO   O70 4350   6.422   7.062   1.631
   11CHTO  H170 4351   6.428   7.075   1.724
   11CHTO   O57 4352   6.397   6.891   1.872
   11CHTO   C85 4353   6.458   6.933   1.996
   11CHTO  H157 4354   6.377   6.946   2.070
   11CHTO   C83 4355   6.520   7.076   1.977
   11CHTO  H155 4356   6.438   7.146   1.959
   11CHTO   O56 4357   6.603   7.078   1.860
   11CHTO  H135 4358   6.633   7.165   1.843
   11CHTO   C81 4359   6.593   7.117   2.108
   11CHTO  H153 4360   6.522   7.109   2.191
   11CHTO   N14 4361   6.636   7.259   2.109
   11CHTO  H141 4362   6.552   7.323   2.093
   11CHTO  H142 4363   6.709   7.276   2.033
   11CHTO   C79 4364   6.711   7.016   2.135
   11CHTO  H151 4365   6.758   7.045   2.229
   11CHTO   O52 4366   6.657   6.881   2.154
   11CHTO   C86 4367   6.569   6.832   2.047
   11CHTO  H158 4368   6.638   6.804   1.965
   11CHTO   C90 4369   6.502   6.701   2.094
   11CHTO   O60 4370   6.597   6.598   2.120
   11CHTO  H138 4371   6.637   6.570   2.040
   11CHTO   O50 4372   6.811   7.014   2.032
   11CHTO   C73 4373   6.950   6.980   2.016
   11CHTO  H145 4374   6.976   6.895   2.081
   11CHTO   C74 4375   7.040   7.102   2.055
   11CHTO  H146 4376   7.018   7.126   2.160
   11CHTO   O54 4377   7.177   7.059   2.051
   11CHTO  H133 4378   7.234   7.129   2.079
   11CHTO   C75 4379   7.007   7.222   1.958
   11CHTO  H147 4380   6.901   7.249   1.972
   11CHTO   N13 4381   7.083   7.345   1.990
   11CHTO  H139 4382   7.055   7.424   1.921
   11CHTO  H140 4383   7.189   7.327   1.979
   11CHTO   C76 4384   7.024   7.175   1.806
   11CHTO  H148 4385   7.131   7.159   1.786
   11CHTO   O49 4386   6.950   7.052   1.780
   11CHTO   C77 4387   6.978   6.942   1.868
   11CHTO  H149 4388   7.082   6.911   1.858
   11CHTO   C88 4389   6.894   6.822   1.821
   11CHTO   O58 4390   6.923   6.700   1.901
   11CHTO  H136 4391   6.872   6.629   1.869
   11CHTO   O51 4392   6.956   7.281   1.705
   11CHTO   C78 4393   7.056   7.348   1.601
   11CHTO  H150 4394   7.161   7.331   1.632
   11CHTO   C80 4395   7.029   7.499   1.596
   11CHTO  H152 4396   6.920   7.515   1.575
   11CHTO   O55 4397   7.058   7.552   1.726
   11CHTO  H134 4398   6.995   7.523   1.789
   11CHTO   C84 4399   7.114   7.571   1.484
   11CHTO  H156 4400   7.219   7.561   1.511
   11CHTO   N15 4401   7.085   7.718   1.474
   11CHTO  H143 4402   7.147   7.762   1.398
   11CHTO  H144 4403   6.983   7.734   1.448
   11CHTO   C87 4404   7.091   7.498   1.349
   11CHTO  H159 4405   6.987   7.511   1.318
   11CHTO   O53 4406   7.124   7.349   1.367
   11CHTO   C82 4407   7.037   7.285   1.462
   11CHTO  H154 4408   6.933   7.295   1.429
   11CHTO   C89 4409   7.069   7.134   1.464
   11CHTO   O59 4410   7.044   7.072   1.338
   11CHTO  H137 4411   7.106   7.103   1.274
   11CHTO   O45 4412   7.191   7.556   1.233
   11CHTO   C67 4413   7.145   7.530   1.100
   11CHTO  H124 4414   7.105   7.428   1.095
   11CHTO   C65 4415   7.032   7.631   1.056
   11CHTO  H122 4416   7.042   7.717   1.122
   11CHTO   O44 4417   6.907   7.566   1.085
   11CHTO  H102 4418   6.891   7.498   1.023
   11CHTO   C63 4419   7.051   7.688   0.911
   11CHTO  H120 4420   7.133   7.760   0.913
   11CHTO   N11 4421   6.939   7.772   0.857
   11CHTO  H108 4422   6.968   7.817   0.765
   11CHTO  H109 4423   6.913   7.848   0.928
   11CHTO   C61 4424   7.098   7.572   0.815
   11CHTO  H118 4425   7.122   7.619   0.719
   11CHTO   O40 4426   7.219   7.506   0.861
   11CHTO   C68 4427   7.265   7.533   0.998
   11CHTO  H125 4428   7.315   7.632   1.000
   11CHTO   C72 4429   7.373   7.428   1.035
   11CHTO   O48 4430   7.489   7.436   0.951
   11CHTO  H105 4431   7.535   7.516   0.967
   11CHTO   O38 4432   6.996   7.471   0.798
   11CHTO   C55 4433   7.009   7.393   0.677
   11CHTO  H112 4434   7.112   7.398   0.638
   11CHTO   C56 4435   6.903   7.441   0.570
   11CHTO  H113 4436   6.804   7.436   0.616
   11CHTO   O42 4437   6.927   7.580   0.539
   11CHTO  H100 4438   6.862   7.612   0.481
   11CHTO   C57 4439   6.909   7.350   0.441
   11CHTO  H114 4440   7.006   7.367   0.394
   11CHTO   N10 4441   6.805   7.383   0.341
   11CHTO  H106 4442   6.842   7.460   0.274
   11CHTO  H107 4443   6.778   7.296   0.283
   11CHTO   C58 4444   6.901   7.201   0.483
   11CHTO  H115 4445   6.798   7.180   0.524
   11CHTO   O37 4446   6.998   7.168   0.584
   11CHTO   C59 4447   6.984   7.242   0.706
   11CHTO  H116 4448   6.885   7.227   0.747
   11CHTO   C70 4449   7.085   7.187   0.809
   11CHTO   O46 4450   7.222   7.198   0.769
   11CHTO  H103 4451   7.247   7.289   0.765
   11CHTO   O39 4452   6.934   7.102   0.357
   11CHTO   C60 4453   6.849   6.985   0.356
   11CHTO  H117 4454   6.816   6.964   0.457
   11CHTO   C62 4455   6.722   7.009   0.269
   11CHTO  H119 4456   6.671   7.098   0.312
   11CHTO   O43 4457   6.760   7.040   0.133
   11CHTO  H101 4458   6.804   6.968   0.094
   11CHTO   C66 4459   6.625   6.881   0.281
   11CHTO  H123 4460   6.602   6.866   0.387
   11CHTO   N12 4461   6.493   6.902   0.215
   11CHTO  H110 4462   6.478   6.831   0.134
   11CHTO  H111 4463   6.483   7.003   0.180
   11CHTO   C69 4464   6.700   6.755   0.231
   11CHTO  H126 4465   6.721   6.764   0.122
   11CHTO   O41 4466   6.835   6.737   0.309
   11CHTO   C64 4467   6.926   6.860   0.307
   11CHTO  H121 4468   6.964   6.878   0.204
   11CHTO   C71 4469   7.048   6.832   0.398
   11CHTO   O47 4470   7.126   6.723   0.349
   11CHTO  H104 4471   7.079   6.642   0.360
   11CHTO   O34 4472   6.615   6.626   0.254
   11CHTO   C49 4473   6.574   6.538   0.375
   11CHTO   H91 4474   6.660   6.533   0.441
   11CHTO   C47 4475   6.539   6.398   0.321
   11CHTO   H89 4476   6.520   6.334   0.409
   11CHTO   O33 4477   6.654   6.346   0.251
   11CHTO   H70 4478   6.672   6.398   0.174
   11CHTO   C45 4479   6.407   6.410   0.230
   11CHTO   H87 4480   6.426   6.485   0.151
   11CHTO    N8 4481   6.373   6.281   0.164
   11CHTO   H75 4482   6.290   6.296   0.096
   11CHTO   H76 4483   6.347   6.207   0.238
   11CHTO   C43 4484   6.286   6.471   0.317
   11CHTO   H85 4485   6.204   6.487   0.247
   11CHTO   O29 4486   6.326   6.593   0.382
   11CHTO   C50 4487   6.453   6.598   0.451
   11CHTO   H92 4488   6.475   6.704   0.470
   11CHTO   C54 4489   6.443   6.539   0.595
   11CHTO   O36 4490   6.354   6.615   0.678
   11CHTO   H72 4491   6.266   6.605   0.649
   11CHTO   O27 4492   6.234   6.379   0.416
   11CHTO   C37 4493   6.103   6.351   0.469
   11CHTO   H79 4494   6.113   6.314   0.573
   11CHTO   C38 4495   6.013   6.478   0.475
   11CHTO   H80 4496   6.011   6.524   0.375
   11CHTO   O31 4497   6.073   6.571   0.566
   11CHTO   H68 4498   6.074   6.536   0.654
   11CHTO   C39 4499   5.864   6.444   0.518
   11CHTO   H81 4500   5.867   6.415   0.623
   11CHTO    N7 4501   5.771   6.562   0.508
   11CHTO   H73 4502   5.767   6.598   0.406
   11CHTO   H74 4503   5.803   6.640   0.575
   11CHTO   C40 4504   5.807   6.320   0.438
   11CHTO   H82 4505   5.779   6.349   0.336
   11CHTO   O26 4506   5.902   6.212   0.439
   11CHTO   C41 4507   6.033   6.242   0.384
   11CHTO   H83 4508   6.021   6.278   0.281
   11CHTO   C52 4509   6.112   6.108   0.377
   11CHTO   O35 4510   6.119   6.037   0.506
   11CHTO   H71 4511   6.033   6.009   0.531
   11CHTO   O28 4512   5.691   6.267   0.505
   11CHTO   C42 4513   5.622   6.145   0.460
   11CHTO   H84 4514   5.688   6.099   0.387
   11CHTO   C44 4515   5.486   6.168   0.387
   11CHTO   H86 4516   5.419   6.222   0.454
   11CHTO   O32 4517   5.513   6.252   0.273
   11CHTO   H69 4518   5.537   6.338   0.301
   11CHTO   C48 4519   5.416   6.033   0.345
   11CHTO   H90 4520   5.479   5.985   0.269
   11CHTO    N9 4521   5.281   6.053   0.282
   11CHTO   H77 4522   5.281   6.013   0.181
   11CHTO   H78 4523   5.254   6.157   0.281
   11CHTO   C51 4524   5.410   5.936   0.469
   11CHTO   H93 4525   5.343   5.980   0.544
   11CHTO   O30 4526   5.543   5.918   0.520
   11CHTO   C46 4527   5.604   6.042   0.576
   11CHTO   H88 4528   5.537   6.084   0.652
   11CHTO   C53 4529   5.738   5.998   0.640
   11CHTO   O72 4530   5.802   6.104   0.713
   11CHTO  H199 4531   5.832   6.170   0.653
   11CHTO   O22 4532   5.364   5.805   0.432
   11CHTO   C31 4533   5.359   5.694   0.530
   11CHTO   H59 4534   5.429   5.721   0.612
   11CHTO   C29 4535   5.221   5.671   0.593
   11CHTO   H57 4536   5.151   5.643   0.512
   11CHTO   O21 4537   5.174   5.795   0.649
   11CHTO   H37 4538   5.227   5.821   0.722
   11CHTO   C27 4539   5.225   5.554   0.700
   11CHTO   H55 4540   5.290   5.585   0.783
   11CHTO    N5 4541   5.091   5.520   0.754
   11CHTO   H43 4542   5.044   5.608   0.795
   11CHTO   H44 4543   5.100   5.444   0.831
   11CHTO   C25 4544   5.296   5.427   0.639
   11CHTO   H53 4545   5.230   5.381   0.564
   11CHTO   O17 4546   5.422   5.462   0.575
   11CHTO   C32 4547   5.413   5.560   0.471
   11CHTO   H60 4548   5.345   5.525   0.393
   11CHTO   C36 4549   5.555   5.573   0.410
   11CHTO   O25 4550   5.557   5.656   0.294
   11CHTO   H40 4551   5.511   5.614   0.224
   11CHTO   O15 4552   5.329   5.324   0.750
   11CHTO   C19 4553   5.301   5.183   0.772
   11CHTO   H47 4554   5.374   5.154   0.849
   11CHTO   C20 4555   5.158   5.154   0.827
   11CHTO   H48 4556   5.080   5.190   0.758
   11CHTO   O19 4557   5.145   5.227   0.950
   11CHTO   H35 4558   5.057   5.221   0.983
   11CHTO   C21 4559   5.136   4.999   0.849
   11CHTO   H49 4560   5.205   4.965   0.927
   11CHTO    N4 4561   4.999   4.967   0.895
   11CHTO   H41 4562   4.989   4.860   0.910
   11CHTO   H42 4563   4.978   5.018   0.988
   11CHTO   C22 4564   5.174   4.924   0.719
   11CHTO   H50 4565   5.106   4.956   0.640
   11CHTO   O14 4566   5.309   4.956   0.681
   11CHTO   C23 4567   5.330   5.094   0.648
   11CHTO   H51 4568   5.263   5.119   0.563
   11CHTO   C34 4569   5.474   5.113   0.600
   11CHTO   O23 4570   5.499   5.039   0.481
   11CHTO   H38 4571   5.589   5.052   0.454
   11CHTO   O16 4572   5.173   4.780   0.734
   11CHTO   C24 4573   5.115   4.705   0.602
   11CHTO   H52 4574   5.104   4.774   0.518
   11CHTO   C26 4575   4.979   4.640   0.634
   11CHTO   H54 4576   4.994   4.564   0.714
   11CHTO   O20 4577   4.890   4.741   0.682
   11CHTO   H36 4578   4.809   4.702   0.711
   11CHTO   C30 4579   4.924   4.569   0.506
   11CHTO   H58 4580   4.897   4.646   0.433
   11CHTO    N6 4581   4.797   4.496   0.534
   11CHTO   H45 4582   4.722   4.564   0.570
   11CHTO   H46 4583   4.761   4.449   0.443
   11CHTO   C33 4584   5.031   4.477   0.439
   11CHTO   H61 4585   5.039   4.383   0.496
   11CHTO   O18 4586   5.162   4.538   0.435
   11CHTO   C28 4587   5.213   4.595   0.557
   11CHTO   H56 4588   5.219   4.519   0.634
   11CHTO   C35 4589   5.354   4.652   0.532
   11CHTO   O24 4590   5.449   4.550   0.499
   11CHTO   H39 4591   5.429   4.513   0.415
   11CHTO    O9 4592   4.987   4.437   0.307
   11CHTO   C13 4593   4.989   4.562   0.199
   11CHTO   H26 4594   5.033   4.651   0.249
   11CHTO   C11 4595   4.843   4.591   0.144
   11CHTO   H24 4596   4.778   4.615   0.230
   11CHTO    O8 4597   4.791   4.471   0.083
   11CHTO    H3 4598   4.840   4.450   0.006
   11CHTO    C9 4599   4.849   4.718   0.053
   11CHTO   H22 4600   4.855   4.803   0.123
   11CHTO    N2 4601   4.723   4.745   2.838
   11CHTO   H10 4602   4.708   4.670   2.761
   11CHTO   H11 4603   4.726   4.844   2.793
   11CHTO    C7 4604   4.982   4.719   2.826
   11CHTO   H20 4605   5.051   4.780   0.032
   11CHTO    O4 4606   5.038   4.587   2.809
   11CHTO   C14 4607   5.088   4.533   0.076
   11CHTO   H27 4608   5.184   4.585   0.096
   11CHTO   C18 4609   5.122   4.383   0.055
   11CHTO   O13 4610   5.010   4.305   0.010
   11CHTO    H7 4611   5.036   4.216   0.000
   11CHTO    O2 4612   4.974   4.792   2.678
   11CHTO    C1 4613   5.079   4.890   2.663
   11CHTO   H14 4614   5.167   4.859   2.724
   11CHTO    C2 4615   5.037   5.037   2.704
   11CHTO   H15 4616   4.953   5.065   2.639
   11CHTO    O6 4617   4.993   5.036   2.841
   11CHTO    H1 4618   5.063   5.010   0.040
   11CHTO    C3 4619   5.162   5.136   2.682
   11CHTO   H16 4620   5.239   5.110   2.756
   11CHTO    N1 4621   5.126   5.280   2.708
   11CHTO    H8 4622   5.094   5.292   2.810
   11CHTO    H9 4623   5.046   5.310   2.641
   11CHTO    C4 4624   5.227   5.115   2.540
   11CHTO   H17 4625   5.165   5.164   2.464
   11CHTO    O1 4626   5.246   4.977   2.507
   11CHTO    C5 4627   5.129   4.893   2.516
   11CHTO   H18 4628   5.050   4.934   2.454
   11CHTO   C16 4629   5.167   4.753   2.462
   11CHTO   O11 4630   5.273   4.693   2.538
   11CHTO    H5 4631   5.293   4.609   2.503
   11CHTO    O3 4632   5.361   5.170   2.539
   11CHTO    C6 4633   5.423   5.185   2.406
   11CHTO   H19 4634   5.369   5.130   2.328
   11CHTO    C8 4635   5.426   5.336   2.365
   11CHTO   H21 4636   5.473   5.392   2.446
   11CHTO    O7 4637   5.289   5.379   2.351
   11CHTO    H2 4638   5.247   5.334   2.280
   11CHTO   C12 4639   5.509   5.357   2.232
   11CHTO   H25 4640   5.450   5.309   2.151
   11CHTO    N3 4641   5.521   5.502   2.197
   11CHTO   H12 4642   5.572   5.555   2.276
   11CHTO   H13 4643   5.574   5.514   2.104
   11CHTO   C15 4644   5.648   5.284   2.243
   11CHTO   H28 4645   5.714   5.333   2.315
   11CHTO   O10 4646   5.719   5.271   2.108
   11CHTO    H4 4647   5.744   5.357   2.077
   11CHTO    O5 4648   5.630   5.146   2.281
   11CHTO   C10 4649   5.568   5.129   2.409
   11CHTO   H23 4650   5.626   5.182   2.485
   11CHTO   C17 4651   5.571   4.979   2.445
   11CHTO   O12 4652   5.706   4.932   2.460
   11CHTO    H6 4653   5.705   4.842   2.485
   12CHTO  H203 4654   5.597   1.974   1.908
   12CHTO   O82 4655   5.507   1.947   1.896
   12CHTO  C123 4656   5.465   1.867   2.008
   12CHTO  H227 4657   5.476   1.926   2.100
   12CHTO   O77 4658   5.324   1.843   1.980
   12CHTO  C118 4659   5.255   1.770   2.083
   12CHTO  H222 4660   5.263   1.825   2.178
   12CHTO  C125 4661   5.102   1.764   2.042
   12CHTO   O84 4662   5.081   1.693   1.919
   12CHTO  H205 4663   5.117   1.743   1.848
   12CHTO  C114 4664   5.316   1.630   2.099
   12CHTO  H218 4665   5.304   1.575   2.005
   12CHTO  C116 4666   5.469   1.639   2.128
   12CHTO  H220 4667   5.484   1.683   2.229
   12CHTO   O79 4668   5.522   1.506   2.134
   12CHTO  H201 4669   5.515   1.463   2.051
   12CHTO  C120 4670   5.541   1.729   2.019
   12CHTO  H224 4671   5.534   1.674   1.922
   12CHTO   N21 4672   5.686   1.746   2.048
   12CHTO  H211 4673   5.722   1.840   2.007
   12CHTO  H212 4674   5.704   1.743   2.154
   12CHTO   O75 4675   5.242   1.566   2.205
   12CHTO  C112 4676   5.187   1.415   2.166
   12CHTO  H216 4677   5.251   1.372   2.087
   12CHTO   O73 4678   5.051   1.430   2.120
   12CHTO  C113 4679   4.989   1.309   2.075
   12CHTO  H217 4680   5.050   1.265   1.994
   12CHTO  C124 4681   4.854   1.348   2.015
   12CHTO   O83 4682   4.789   1.241   1.947
   12CHTO  H204 4683   4.761   1.176   2.009
   12CHTO  C109 4684   4.977   1.209   2.194
   12CHTO  H213 4685   4.909   1.255   2.268
   12CHTO  C110 4686   5.117   1.186   2.259
   12CHTO  H214 4687   5.178   1.128   2.189
   12CHTO   O78 4688   5.102   1.105   2.377
   12CHTO  H200 4689   5.050   1.149   2.441
   12CHTO  C111 4690   5.189   1.321   2.292
   12CHTO  H215 4691   5.133   1.371   2.372
   12CHTO   N19 4692   5.329   1.304   2.341
   12CHTO  H207 4693   5.338   1.344   2.441
   12CHTO  H208 4694   5.358   1.200   2.340
   12CHTO   O74 4695   4.920   1.082   2.150
   12CHTO  C115 4696   4.808   1.023   2.255
   12CHTO  H219 4697   4.830   1.051   2.358
   12CHTO   O76 4698   4.664   1.083   2.226
   12CHTO  C122 4699   4.558   1.035   2.309
   12CHTO  H226 4700   4.465   1.071   2.266
   12CHTO  C126 4701   4.566   1.099   2.453
   12CHTO   O85 4702   4.556   1.242   2.450
   12CHTO  H206 4703   4.470   1.268   2.424
   12CHTO  C121 4704   4.552   0.877   2.316
   12CHTO  H225 4705   4.480   0.848   2.395
   12CHTO   O81 4706   4.501   0.829   2.191
   12CHTO  H202 4707   4.412   0.857   2.179
   12CHTO  C119 4708   4.692   0.814   2.349
   12CHTO  H223 4709   4.718   0.855   2.447
   12CHTO  C117 4710   4.802   0.866   2.249
   12CHTO  H221 4711   4.787   0.841   2.144
   12CHTO   N20 4712   4.936   0.807   2.284
   12CHTO  H209 4713   5.010   0.840   2.213
   12CHTO  H210 4714   4.965   0.836   2.384
   12CHTO   O80 4715   4.690   0.650   2.383
   12CHTO  C103 4716   4.582   0.554   2.314
   12CHTO  H190 4717   4.487   0.605   2.300
   12CHTO  C101 4718   4.625   0.486   2.178
   12CHTO  H188 4719   4.724   0.442   2.191
   12CHTO   O68 4720   4.634   0.595   2.069
   12CHTO  H168 4721   4.549   0.632   2.053
   12CHTO   C99 4722   4.522   0.369   2.138
   12CHTO  H186 4723   4.422   0.414   2.121
   12CHTO   N17 4724   4.559   0.296   2.012
   12CHTO  H174 4725   4.481   0.227   1.986
   12CHTO  H175 4726   4.653   0.246   2.025
   12CHTO   C97 4727   4.504   0.272   2.258
   12CHTO  H184 4728   4.600   0.219   2.275
   12CHTO   O64 4729   4.462   0.346   2.375
   12CHTO  C104 4730   4.558   0.442   2.422
   12CHTO  H191 4731   4.653   0.394   2.447
   12CHTO  C108 4732   4.505   0.503   2.553
   12CHTO   O71 4733   4.494   0.405   2.656
   12CHTO  H171 4734   4.459   0.445   2.733
   12CHTO   O62 4735   4.398   0.176   2.237
   12CHTO   C91 4736   4.395   0.060   2.322
   12CHTO  H178 4737   4.473   0.068   2.397
   12CHTO   C92 4738   4.429   9.933   2.236
   12CHTO  H179 4739   4.368   9.936   2.144
   12CHTO   O66 4740   4.566   9.946   2.192
   12CHTO  H166 4741   4.574   0.017   2.132
   12CHTO   C93 4742   4.407   9.797   2.314
   12CHTO  H180 4743   4.482   9.791   2.393
   12CHTO   N16 4744   4.426   9.677   2.228
   12CHTO  H172 4745   4.412   9.587   2.286
   12CHTO  H173 4746   4.525   9.678   2.186
   12CHTO   C94 4747   4.264   9.797   2.379
   12CHTO  H181 4748   4.185   9.808   2.304
   12CHTO   O61 4749   4.253   9.911   2.465
   12CHTO   C95 4750   4.257   0.037   2.397
   12CHTO  H182 4751   4.176   0.041   2.324
   12CHTO  C106 4752   4.228   0.150   2.502
   12CHTO   O69 4753   4.325   0.151   2.608
   12CHTO  H169 4754   4.316   0.074   2.660
   12CHTO   O63 4755   4.228   9.661   2.474
   12CHTO   C96 4756   4.340   9.594   2.575
   12CHTO  H183 4757   4.440   9.622   2.541
   12CHTO   C98 4758   4.328   9.439   2.574
   12CHTO  H185 4759   4.223   9.410   2.588
   12CHTO   O67 4760   4.363   9.395   2.442
   12CHTO  H167 4761   4.350   9.302   2.434
   12CHTO  C102 4762   4.419   9.368   2.686
   12CHTO  H189 4763   4.523   9.388   2.658
   12CHTO   N18 4764   4.407   9.220   2.693
   12CHTO  H176 4765   4.438   9.176   2.599
   12CHTO  H177 4766   4.305   9.192   2.714
   12CHTO  C105 4767   4.392   9.436   2.823
   12CHTO  H192 4768   4.289   9.414   2.854
   12CHTO   O65 4769   4.408   9.578   2.815
   12CHTO  C100 4770   4.320   9.646   2.724
   12CHTO  H187 4771   4.216   9.627   2.754
   12CHTO  C107 4772   4.348   9.797   2.739
   12CHTO   O70 4773   4.313   9.845   0.012
   12CHTO  H170 4774   4.220   9.843   0.022
   12CHTO   O57 4775   4.499   9.379   0.076
   12CHTO   C85 4776   4.451   9.321   0.198
   12CHTO  H157 4777   4.372   9.248   0.168
   12CHTO   C83 4778   4.378   9.427   0.287
   12CHTO  H155 4779   4.292   9.465   0.231
   12CHTO   O56 4780   4.467   9.538   0.309
   12CHTO  H135 4781   4.421   9.608   0.353
   12CHTO   C81 4782   4.326   9.359   0.418
   12CHTO  H153 4783   4.258   9.279   0.389
   12CHTO   N14 4784   4.243   9.449   0.502
   12CHTO  H141 4785   4.303   9.529   0.541
   12CHTO  H142 4786   4.201   9.394   0.583
   12CHTO   C79 4787   4.446   9.295   0.497
   12CHTO  H151 4788   4.403   9.238   0.580
   12CHTO   O52 4789   4.516   9.198   0.412
   12CHTO   C86 4790   4.563   9.253   0.285
   12CHTO  H158 4791   4.642   9.326   0.314
   12CHTO   C90 4792   4.636   9.142   0.205
   12CHTO   O60 4793   4.751   9.095   0.277
   12CHTO  H138 4794   4.723   9.046   0.353
   12CHTO   O50 4795   4.541   9.390   0.551
   12CHTO   C73 4796   4.605   9.404   0.679
   12CHTO  H145 4797   4.546   9.355   0.757
   12CHTO   C74 4798   4.618   9.556   0.715
   12CHTO  H146 4799   4.517   9.599   0.713
   12CHTO   O54 4800   4.664   9.567   0.851
   12CHTO  H133 4801   4.598   9.536   0.910
   12CHTO   C75 4802   4.715   9.626   0.611
   12CHTO  H147 4803   4.668   9.621   0.511
   12CHTO   N13 4804   4.738   9.771   0.637
   12CHTO  H139 4805   4.706   9.830   0.552
   12CHTO  H140 4806   4.683   9.804   0.724
   12CHTO   C76 4807   4.853   9.546   0.601
   12CHTO  H148 4808   4.907   9.559   0.695
   12CHTO   O49 4809   4.830   9.404   0.577
   12CHTO   C77 4810   4.748   9.341   0.677
   12CHTO  H149 4811   4.794   9.355   0.775
   12CHTO   C88 4812   4.746   9.190   0.654
   12CHTO   O58 4813   4.883   9.131   0.664
   12CHTO  H136 4814   4.915   9.138   0.752
   12CHTO   O51 4815   4.939   9.595   0.474
   12CHTO   C78 4816   5.085   9.534   0.471
   12CHTO  H150 4817   5.095   9.451   0.546
   12CHTO   C80 4818   5.189   9.643   0.503
   12CHTO  H152 4819   5.173   9.728   0.432
   12CHTO   O55 4820   5.161   9.690   0.636
   12CHTO  H134 4821   5.215   9.764   0.656
   12CHTO   C84 4822   5.337   9.589   0.489
   12CHTO  H156 4823   5.352   9.514   0.567
   12CHTO   N15 4824   5.441   9.695   0.512
   12CHTO  H143 4825   5.502   9.709   0.425
   12CHTO  H144 4826   5.396   9.788   0.538
   12CHTO   C87 4827   5.354   9.518   0.352
   12CHTO  H159 4828   5.350   9.591   0.272
   12CHTO   O53 4829   5.243   9.414   0.334
   12CHTO   C82 4830   5.112   9.474   0.332
   12CHTO  H154 4831   5.107   9.551   0.255
   12CHTO   C89 4832   5.008   9.366   0.296
   12CHTO   O59 4833   5.030   9.315   0.164
   12CHTO  H137 4834   4.966   9.249   0.144
   12CHTO   O45 4835   5.501   9.436   0.346
   12CHTO   C67 4836   5.563   9.421   0.216
   12CHTO  H124 4837   5.654   9.363   0.231
   12CHTO   C65 4838   5.472   9.347   0.112
   12CHTO  H122 4839   5.383   9.314   0.165
   12CHTO   O44 4840   5.542   9.230   0.065
   12CHTO  H102 4841   5.615   9.255   0.012
   12CHTO   C63 4842   5.421   9.445   0.000
   12CHTO  H120 4843   5.369   9.528   0.049
   12CHTO   N11 4844   5.314   9.392   2.768
   12CHTO  H108 4845   5.232   9.355   2.825
   12CHTO  H109 4846   5.279   9.470   2.703
   12CHTO   C61 4847   5.547   9.506   2.785
   12CHTO  H118 4848   5.510   9.591   2.724
   12CHTO   O40 4849   5.646   9.560   0.019
   12CHTO   C68 4850   5.612   9.563   0.162
   12CHTO  H125 4851   5.532   9.638   0.174
   12CHTO   C72 4852   5.734   9.615   0.241
   12CHTO   O48 4853   5.852   9.536   0.222
   12CHTO  H105 4854   5.923   9.573   0.270
   12CHTO   O38 4855   5.615   9.409   2.702
   12CHTO   C55 4856   5.702   9.463   2.601
   12CHTO  H112 4857   5.724   9.570   2.622
   12CHTO   C56 4858   5.639   9.443   2.457
   12CHTO  H113 4859   5.615   9.336   2.446
   12CHTO   O42 4860   5.514   9.514   2.450
   12CHTO  H100 4861   5.471   9.496   2.368
   12CHTO   C57 4862   5.739   9.490   2.343
   12CHTO  H114 4863   5.743   9.599   2.350
   12CHTO   N10 4864   5.694   9.457   2.206
   12CHTO  H106 4865   5.633   9.536   2.166
   12CHTO  H107 4866   5.637   9.365   2.206
   12CHTO   C58 4867   5.881   9.434   2.368
   12CHTO  H115 4868   5.882   9.324   2.346
   12CHTO   O37 4869   5.923   9.455   2.504
   12CHTO   C59 4870   5.840   9.392   2.603
   12CHTO  H116 4871   5.830   9.286   2.580
   12CHTO   C70 4872   5.910   9.405   2.739
   12CHTO   O46 4873   6.035   9.335   2.744
   12CHTO  H103 4874   6.097   9.377   2.688
   12CHTO   O39 4875   5.990   9.513   2.266
   12CHTO   C60 4876   6.128   9.510   2.307
   12CHTO  H117 4877   6.139   9.460   2.403
   12CHTO   C62 4878   6.216   9.433   2.205
   12CHTO  H119 4879   6.170   9.332   2.194
   12CHTO   O43 4880   6.212   9.498   2.076
   12CHTO  H101 4881   6.250   9.583   2.081
   12CHTO   C66 4882   6.363   9.418   2.267
   12CHTO  H123 4883   6.355   9.367   2.363
   12CHTO   N12 4884   6.452   9.333   2.184
   12CHTO  H110 4885   6.411   9.234   2.176
   12CHTO  H111 4886   6.466   9.377   2.087
   12CHTO   C69 4887   6.425   9.558   2.295
   12CHTO  H126 4888   6.455   9.606   2.199
   12CHTO   O41 4889   6.324   9.654   2.371
   12CHTO   C64 4890   6.181   9.655   2.326
   12CHTO  H121 4891   6.172   9.709   2.230
   12CHTO   C71 4892   6.097   9.731   2.432
   12CHTO   O47 4893   6.139   9.867   2.444
   12CHTO  H104 4894   6.087   9.910   2.508
   12CHTO   O34 4895   6.556   9.542   2.387
   12CHTO   C49 4896   6.588   9.542   2.544
   12CHTO   H91 4897   6.637   9.637   2.565
   12CHTO   C47 4898   6.684   9.425   2.575
   12CHTO   H89 4899   6.715   9.436   2.681
   12CHTO   O33 4900   6.800   9.439   2.492
   12CHTO   H70 4901   6.778   9.427   2.401
   12CHTO   C45 4902   6.605   9.286   2.555
   12CHTO   H87 4903   6.569   9.283   2.451
   12CHTO    N8 4904   6.694   9.169   2.575
   12CHTO   H75 4905   6.641   9.078   2.551
   12CHTO   H76 4906   6.781   9.177   2.512
   12CHTO   C43 4907   6.471   9.281   2.646
   12CHTO   H85 4908   6.417   9.193   2.610
   12CHTO   O29 4909   6.394   9.402   2.631
   12CHTO   C50 4910   6.461   9.529   2.632
   12CHTO   H92 4911   6.389   9.603   2.595
   12CHTO   C54 4912   6.488   9.579   2.777
   12CHTO   O36 4913   6.365   9.613   2.843
   12CHTO   H72 4914   6.329   9.692   2.806
   12CHTO   O27 4915   6.498   9.255   2.786
   12CHTO   C37 4916   6.430   9.194   0.040
   12CHTO   H79 4917   6.504   9.169   0.118
   12CHTO   C38 4918   6.328   9.291   0.105
   12CHTO   H80 4919   6.270   9.340   0.025
   12CHTO   O31 4920   6.405   9.391   0.174
   12CHTO   H68 4921   6.350   9.460   0.205
   12CHTO   C39 4922   6.229   9.220   0.206
   12CHTO   H81 4923   6.287   9.192   0.294
   12CHTO    N7 4924   6.120   9.312   0.254
   12CHTO   H73 4925   6.061   9.346   0.171
   12CHTO   H74 4926   6.058   9.261   0.326
   12CHTO   C40 4927   6.170   9.087   0.144
   12CHTO   H82 4928   6.100   9.110   0.064
   12CHTO   O26 4929   6.278   9.004   0.100
   12CHTO   C41 4930   6.361   9.062   2.853
   12CHTO   H83 4931   6.297   9.082   2.765
   12CHTO   C52 4932   6.465   8.955   2.811
   12CHTO   O35 4933   6.552   8.910   0.065
   12CHTO   H71 4934   6.614   8.848   0.034
   12CHTO   O28 4935   6.105   9.007   0.245
   12CHTO   C42 4936   5.989   8.919   0.220
   12CHTO   H84 4937   5.993   8.849   0.303
   12CHTO   C44 4938   5.991   8.832   0.090
   12CHTO   H86 4939   5.990   8.898   0.003
   12CHTO   O32 4940   6.114   8.758   0.091
   12CHTO   H69 4941   6.125   8.711   0.011
   12CHTO   C48 4942   5.864   8.736   0.083
   12CHTO   H90 4943   5.873   8.663   0.164
   12CHTO    N9 4944   5.862   8.655   2.814
   12CHTO   H77 4945   5.856   8.720   2.728
   12CHTO   H78 4946   5.778   8.586   2.815
   12CHTO   C51 4947   5.731   8.817   0.104
   12CHTO   H93 4948   5.716   8.883   0.018
   12CHTO   O30 4949   5.741   8.891   0.227
   12CHTO   C46 4950   5.853   8.994   0.230
   12CHTO   H88 4951   5.842   9.061   0.145
   12CHTO   C53 4952   5.840   9.072   0.362
   12CHTO   O72 4953   5.716   9.144   0.367
   12CHTO  H199 4954   5.711   9.193   0.446
   12CHTO   O22 4955   5.617   8.729   0.120
   12CHTO   C31 4956   5.475   8.771   0.121
   12CHTO   H59 4957   5.417   8.680   0.147
   12CHTO   C29 4958   5.439   8.878   0.227
   12CHTO   H57 4959   5.497   8.969   0.204
   12CHTO   O21 4960   5.484   8.831   0.356
   12CHTO   H37 4961   5.435   8.756   0.383
   12CHTO   C27 4962   5.285   8.913   0.227
   12CHTO   H55 4963   5.229   8.824   0.261
   12CHTO    N5 4964   5.250   9.027   0.317
   12CHTO   H43 4965   5.339   9.071   0.359
   12CHTO   H44 4966   5.185   8.993   0.396
   12CHTO   C25 4967   5.236   8.942   0.080
   12CHTO   H53 4968   5.277   9.038   0.046
   12CHTO   O17 4969   5.279   8.838   2.846
   12CHTO   C32 4970   5.421   8.819   2.841
   12CHTO   H60 4971   5.470   8.913   2.814
   12CHTO   C36 4972   5.452   8.718   2.727
   12CHTO   O25 4973   5.384   8.593   2.744
   12CHTO   H40 4974   5.406   8.535   2.674
   12CHTO   O15 4975   5.077   8.949   0.075
   12CHTO   C19 4976   4.944   8.946   0.016
   12CHTO   H47 4977   4.884   9.004   0.087
   12CHTO   C20 4978   4.934   9.014   2.734
   12CHTO   H48 4979   5.001   8.965   2.661
   12CHTO   O19 4980   4.979   9.149   2.752
   12CHTO   H35 4981   4.983   9.193   2.669
   12CHTO   C21 4982   4.786   9.009   2.678
   12CHTO   H49 4983   4.722   9.068   2.743
   12CHTO    N4 4984   4.775   9.067   2.541
   12CHTO   H41 4985   4.704   9.149   2.541
   12CHTO   H42 4986   4.743   8.993   2.469
   12CHTO   C22 4987   4.735   8.862   2.685
   12CHTO   H50 4988   4.795   8.801   2.618
   12CHTO   O14 4989   4.745   8.812   2.819
   12CHTO   C23 4990   4.880   8.803   0.012
   12CHTO   H51 4991   4.936   8.735   2.805
   12CHTO   C34 4992   4.870   8.740   0.151
   12CHTO   O23 4993   4.998   8.705   0.205
   12CHTO   H38 4994   5.046   8.783   0.226
   12CHTO   O16 4995   4.595   8.853   2.651
   12CHTO   C24 4996   4.554   8.719   2.572
   12CHTO   H52 4997   4.622   8.637   2.594
   12CHTO   C26 4998   4.555   8.747   2.420
   12CHTO   H54 4999   4.493   8.837   2.401
   12CHTO   O20 5000   4.690   8.776   2.380
   12CHTO   H36 5001   4.719   8.856   2.418
   12CHTO   C30 5002   4.496   8.627   2.338
   12CHTO   H58 5003   4.566   8.543   2.343
   12CHTO    N6 5004   4.482   8.662   2.194
   12CHTO   H45 5005   4.578   8.687   2.153
   12CHTO   H46 5006   4.442   8.577   2.140
   12CHTO   C33 5007   4.361   8.579   2.400
   12CHTO   H61 5008   4.287   8.660   2.388
   12CHTO   O18 5009   4.379   8.556   2.541
   12CHTO   C28 5010   4.413   8.673   2.617
   12CHTO   H56 5011   4.341   8.753   2.599
   12CHTO   C35 5012   4.409   8.634   2.767
   12CHTO   O24 5013   4.419   8.747   2.854
   12CHTO   H39 5014   4.408   8.718   0.085
   12CHTO    O9 5015   4.302   8.464   2.335
   12CHTO   C13 5016   4.392   8.325   2.322
   12CHTO   H26 5017   4.495   8.353   2.294
   12CHTO   C11 5018   4.325   8.231   2.212
   12CHTO   H24 5019   4.332   8.284   2.116
   12CHTO    O8 5020   4.186   8.211   2.240
   12CHTO    H3 5021   4.145   8.163   2.170
   12CHTO    C9 5022   4.410   8.101   2.203
   12CHTO   H22 5023   4.512   8.134   2.180
   12CHTO    N2 5024   4.372   8.014   2.089
   12CHTO   H10 5025   4.443   7.932   2.082
   12CHTO   H11 5026   4.371   8.071   1.998
   12CHTO    C7 5027   4.413   8.029   2.343
   12CHTO   H20 5028   4.487   7.947   2.330
   12CHTO    O4 5029   4.462   8.117   2.446
   12CHTO   C14 5030   4.405   8.249   2.461
   12CHTO   H27 5031   4.478   8.307   2.522
   12CHTO   C18 5032   4.273   8.244   2.543
   12CHTO   O13 5033   4.296   8.196   2.675
   12CHTO    H7 5034   4.343   8.259   2.725
   12CHTO    O2 5035   4.266   7.966   2.392
   12CHTO    C1 5036   4.252   7.824   2.375
   12CHTO   H14 5037   4.332   7.785   2.308
   12CHTO    C2 5038   4.112   7.786   2.312
   12CHTO   H15 5039   4.035   7.829   2.378
   12CHTO    O6 5040   4.102   7.846   2.182
   12CHTO    H1 5041   4.097   7.939   2.189
   12CHTO    C3 5042   4.094   7.626   2.304
   12CHTO   H16 5043   4.166   7.587   2.231
   12CHTO    N1 5044   3.958   7.587   2.257
   12CHTO    H8 5045   3.883   7.624   2.326
   12CHTO    H9 5046   3.951   7.480   2.248
   12CHTO    C4 5047   4.131   7.559   2.442
   12CHTO   H17 5048   4.052   7.579   2.514
   12CHTO    O1 5049   4.258   7.607   2.491
   12CHTO    C5 5050   4.266   7.750   2.511
   12CHTO   H18 5051   4.185   7.783   2.576
   12CHTO   C16 5052   4.401   7.779   2.581
   12CHTO   O11 5053   4.405   7.723   2.713
   12CHTO    H5 5054   4.487   7.743   2.753
   12CHTO    O3 5055   4.153   7.417   2.426
   12CHTO    C6 5056   4.087   7.326   2.521
   12CHTO   H19 5057   4.023   7.378   2.593
   12CHTO    C8 5058   3.999   7.223   2.443
   12CHTO   H21 5059   4.060   7.180   2.363
   12CHTO    O7 5060   3.889   7.295   2.384
   12CHTO    H2 5061   3.834   7.331   2.451
   12CHTO   C12 5062   3.948   7.105   2.536
   12CHTO   H25 5063   3.873   7.150   2.604
   12CHTO    N3 5064   3.876   6.999   2.456
   12CHTO   H12 5065   3.791   7.043   2.406
   12CHTO   H13 5066   3.844   6.920   2.522
   12CHTO   C15 5067   4.066   7.049   2.621
   12CHTO   H28 5068   4.138   6.993   2.561
   12CHTO   O10 5069   4.019   6.960   2.738
   12CHTO    H4 5070   3.977   6.883   2.705
   12CHTO    O5 5071   4.133   7.155   2.692
   12CHTO   C10 5072   4.195   7.251   2.605
   12CHTO   H23 5073   4.264   7.199   2.538
   12CHTO   C17 5074   4.278   7.346   2.692
   12CHTO   O12 5075   4.385   7.278   2.757
   12CHTO    H6 5076   4.435   7.338   2.809
   13CHTO  H203 5077   8.305   4.297   1.540
   13CHTO   O82 5078   8.220   4.322   1.569
   13CHTO  C123 5079   8.160   4.412   1.474
   13CHTO  H227 5080   8.153   4.361   1.377
   13CHTO   O77 5081   8.026   4.433   1.529
   13CHTO  C118 5082   7.941   4.515   1.447
   13CHTO  H222 5083   7.932   4.468   1.348
   13CHTO  C125 5084   7.798   4.518   1.514
   13CHTO   O84 5085   7.801   4.573   1.647
   13CHTO  H205 5086   7.824   4.664   1.642
   13CHTO  C114 5087   8.001   4.656   1.432
   13CHTO  H218 5088   8.005   4.703   1.531
   13CHTO  C116 5089   8.146   4.649   1.377
   13CHTO  H220 5090   8.143   4.615   1.271
   13CHTO   O79 5091   8.199   4.783   1.376
   13CHTO  H201 5092   8.282   4.784   1.334
   13CHTO  C120 5093   8.235   4.550   1.463
   13CHTO  H224 5094   8.247   4.596   1.563
   13CHTO   N21 5095   8.371   4.535   1.404
   13CHTO  H211 5096   8.437   4.610   1.444
   13CHTO  H212 5097   8.411   4.436   1.424
   13CHTO   O75 5098   7.912   4.728   1.345
   13CHTO  C112 5099   7.861   4.873   1.405
   13CHTO  H216 5100   7.944   4.921   1.458
   13CHTO   O73 5101   7.750   4.845   1.492
   13CHTO  C113 5102   7.681   4.960   1.543
   13CHTO  H217 5103   7.753   5.027   1.593
   13CHTO  C124 5104   7.581   4.910   1.648
   13CHTO   O83 5105   7.523   5.015   1.726
   13CHTO  H204 5106   7.467   5.067   1.672
   13CHTO  C109 5107   7.615   5.034   1.423
   13CHTO  H213 5108   7.554   4.960   1.369
   13CHTO  C110 5109   7.729   5.085   1.331
   13CHTO  H214 5110   7.790   5.156   1.386
   13CHTO   O78 5111   7.671   5.155   1.219
   13CHTO  H200 5112   7.617   5.098   1.168
   13CHTO  C111 5113   7.816   4.964   1.283
   13CHTO  H215 5114   7.755   4.901   1.217
   13CHTO   N19 5115   7.936   5.004   1.204
   13CHTO  H207 5116   7.932   4.961   1.105
   13CHTO  H208 5117   7.944   5.111   1.197
   13CHTO   O74 5118   7.528   5.145   1.467
   13CHTO  C115 5119   7.364   5.120   1.433
   13CHTO  H219 5120   7.338   5.158   1.334
   13CHTO   O76 5121   7.328   4.966   1.431
   13CHTO  C122 5122   7.190   4.934   1.409
   13CHTO  H226 5123   7.180   4.826   1.423
   13CHTO  C126 5124   7.148   4.962   1.260
   13CHTO   O85 5125   7.223   4.884   1.167
   13CHTO  H206 5126   7.313   4.910   1.168
   13CHTO  C121 5127   7.097   5.007   1.512
   13CHTO  H225 5128   6.992   4.989   1.480
   13CHTO   O81 5129   7.113   4.949   1.642
   13CHTO  H202 5130   7.086   4.859   1.642
   13CHTO  C119 5131   7.122   5.161   1.517
   13CHTO  H223 5132   7.094   5.199   1.418
   13CHTO  C117 5133   7.275   5.195   1.540
   13CHTO  H221 5134   7.316   5.166   1.636
   13CHTO   N20 5135   7.298   5.343   1.531
   13CHTO  H209 5136   7.239   5.394   1.606
   13CHTO  H210 5137   7.271   5.379   1.433
   13CHTO   O80 5138   7.015   5.240   1.615
   13CHTO  C103 5139   6.879   5.306   1.553
   13CHTO  H190 5140   6.826   5.359   1.633
   13CHTO  C101 5141   6.896   5.408   1.433
   13CHTO  H188 5142   6.953   5.359   1.353
   13CHTO   O68 5143   6.979   5.532   1.484
   13CHTO  H168 5144   6.931   5.577   1.550
   13CHTO   C99 5145   6.753   5.450   1.375
   13CHTO  H186 5146   6.696   5.503   1.455
   13CHTO   N17 5147   6.760   5.544   1.258
   13CHTO  H174 5148   6.717   5.640   1.284
   13CHTO  H175 5149   6.713   5.502   1.171
   13CHTO   C97 5150   6.670   5.322   1.344
   13CHTO  H184 5151   6.719   5.269   1.260
   13CHTO   O64 5152   6.661   5.240   1.462
   13CHTO  C104 5153   6.787   5.188   1.507
   13CHTO  H191 5154   6.837   5.131   1.429
   13CHTO  C108 5155   6.761   5.088   1.622
   13CHTO   O71 5156   6.689   4.973   1.575
   13CHTO  H171 5157   6.676   4.914   1.646
   13CHTO   O62 5158   6.533   5.353   1.308
   13CHTO   C91 5159   6.446   5.243   1.270
   13CHTO  H178 5160   6.491   5.149   1.303
   13CHTO   C92 5161   6.436   5.234   1.114
   13CHTO  H179 5162   6.409   5.333   1.075
   13CHTO   O66 5163   6.568   5.206   1.062
   13CHTO  H166 5164   6.599   5.123   1.092
   13CHTO   C93 5165   6.332   5.125   1.067
   13CHTO  H180 5166   6.373   5.027   1.093
   13CHTO   N16 5167   6.311   5.123   0.920
   13CHTO  H172 5168   6.240   5.045   0.894
   13CHTO  H173 5169   6.405   5.106   0.870
   13CHTO   C94 5170   6.196   5.143   1.143
   13CHTO  H181 5171   6.147   5.238   1.118
   13CHTO   O61 5172   6.220   5.142   1.285
   13CHTO   C95 5173   6.301   5.252   1.331
   13CHTO  H182 5174   6.254   5.346   1.303
   13CHTO  C106 5175   6.301   5.246   1.488
   13CHTO   O69 5176   6.367   5.358   1.546
   13CHTO  H169 5177   6.317   5.436   1.531
   13CHTO   O63 5178   6.096   5.017   1.107
   13CHTO   C96 5179   5.962   5.003   1.189
   13CHTO  H183 5180   5.894   4.946   1.126
   13CHTO   C98 5181   5.887   5.134   1.228
   13CHTO  H185 5182   5.956   5.201   1.281
   13CHTO   O67 5183   5.853   5.203   1.106
   13CHTO  H167 5184   5.792   5.152   1.055
   13CHTO  C102 5185   5.756   5.105   1.317
   13CHTO  H189 5186   5.682   5.062   1.248
   13CHTO   N18 5187   5.693   5.228   1.372
   13CHTO  H176 5188   5.693   5.226   1.480
   13CHTO  H177 5189   5.592   5.238   1.336
   13CHTO  C105 5190   5.786   4.998   1.427
   13CHTO  H192 5191   5.848   5.044   1.504
   13CHTO   O65 5192   5.858   4.884   1.376
   13CHTO  C100 5193   5.986   4.919   1.319
   13CHTO  H187 5194   6.042   4.980   1.392
   13CHTO  C107 5195   6.070   4.791   1.293
   13CHTO   O70 5196   6.017   4.711   1.186
   13CHTO  H170 5197   6.072   4.636   1.173
   13CHTO   O57 5198   5.637   4.951   1.494
   13CHTO   C85 5199   5.543   4.868   1.423
   13CHTO  H157 5200   5.594   4.834   1.330
   13CHTO   C83 5201   5.422   4.956   1.377
   13CHTO  H155 5202   5.460   5.036   1.313
   13CHTO   O56 5203   5.363   5.020   1.492
   13CHTO  H135 5204   5.324   4.957   1.549
   13CHTO   C81 5205   5.323   4.869   1.294
   13CHTO  H153 5206   5.377   4.828   1.208
   13CHTO   N14 5207   5.213   4.949   1.234
   13CHTO  H141 5208   5.153   4.886   1.171
   13CHTO  H142 5209   5.253   5.029   1.176
   13CHTO   C79 5210   5.271   4.747   1.380
   13CHTO  H151 5211   5.217   4.681   1.312
   13CHTO   O52 5212   5.384   4.670   1.431
   13CHTO   C86 5213   5.483   4.747   1.506
   13CHTO  H158 5214   5.428   4.783   1.596
   13CHTO   C90 5215   5.591   4.649   1.559
   13CHTO   O60 5216   5.686   4.713   1.644
   13CHTO  H138 5217   5.750   4.650   1.673
   13CHTO   O50 5218   5.181   4.782   1.487
   13CHTO   C73 5219   5.056   4.720   1.523
   13CHTO  H145 5220   5.017   4.662   1.438
   13CHTO   C74 5221   4.949   4.826   1.563
   13CHTO  H146 5222   4.937   4.894   1.477
   13CHTO   O54 5223   4.823   4.758   1.580
   13CHTO  H133 5224   4.755   4.820   1.598
   13CHTO   C75 5225   4.997   4.902   1.693
   13CHTO  H147 5226   5.089   4.957   1.668
   13CHTO   N13 5227   4.901   5.005   1.740
   13CHTO  H139 5228   4.940   5.054   1.828
   13CHTO  H140 5229   4.886   5.080   1.663
   13CHTO   C76 5230   5.030   4.796   1.808
   13CHTO  H148 5231   4.936   4.746   1.832
   13CHTO   O49 5232   5.124   4.694   1.759
   13CHTO   C77 5233   5.076   4.623   1.644
   13CHTO  H149 5234   4.980   4.576   1.668
   13CHTO   C88 5235   5.171   4.506   1.616
   13CHTO   O58 5236   5.124   4.427   1.499
   13CHTO  H136 5237   5.132   4.478   1.420
   13CHTO   O51 5238   5.097   4.866   1.946
   13CHTO   C78 5239   5.255   4.925   1.953
   13CHTO  H150 5240   5.278   4.955   2.057
   13CHTO   C80 5241   5.277   5.046   1.860
   13CHTO  H152 5242   5.258   5.015   1.756
   13CHTO   O55 5243   5.181   5.146   1.898
   13CHTO  H134 5244   5.198   5.178   1.985
   13CHTO   C84 5245   5.426   5.100   1.870
   13CHTO  H156 5246   5.442   5.135   1.972
   13CHTO   N15 5247   5.451   5.217   1.779
   13CHTO  H143 5248   5.553   5.250   1.790
   13CHTO  H144 5249   5.386   5.298   1.804
   13CHTO   C87 5250   5.524   4.984   1.842
   13CHTO  H159 5251   5.517   4.951   1.738
   13CHTO   O53 5252   5.489   4.865   1.938
   13CHTO   C82 5253   5.357   4.814   1.919
   13CHTO  H154 5254   5.345   4.780   1.816
   13CHTO   C89 5255   5.337   4.690   2.010
   13CHTO   O59 5256   5.423   4.583   1.969
   13CHTO  H137 5257   5.395   4.549   1.886
   13CHTO   O45 5258   5.677   5.031   1.871
   13CHTO   C67 5259   5.769   4.924   1.899
   13CHTO  H124 5260   5.730   4.828   1.866
   13CHTO   C65 5261   5.904   4.952   1.827
   13CHTO  H122 5262   5.878   4.978   1.724
   13CHTO   O44 5263   5.984   4.833   1.826
   13CHTO  H102 5264   6.061   4.846   1.774
   13CHTO   C63 5265   5.969   5.081   1.889
   13CHTO  H120 5266   5.898   5.163   1.882
   13CHTO   N11 5267   6.087   5.136   1.814
   13CHTO  H108 5268   6.169   5.068   1.820
   13CHTO  H109 5269   6.061   5.152   1.712
   13CHTO   C61 5270   5.994   5.057   2.043
   13CHTO  H118 5271   6.025   5.155   2.083
   13CHTO   O40 5272   5.872   5.020   2.112
   13CHTO   C68 5273   5.786   4.914   2.057
   13CHTO  H125 5274   5.686   4.930   2.102
   13CHTO   C72 5275   5.835   4.775   2.105
   13CHTO   O48 5276   5.749   4.668   2.064
   13CHTO  H105 5277   5.666   4.674   2.108
   13CHTO   O38 5278   6.094   4.957   2.072
   13CHTO   C55 5279   6.184   4.973   2.185
   13CHTO  H112 5280   6.223   4.872   2.203
   13CHTO   C56 5281   6.117   5.035   2.316
   13CHTO  H113 5282   6.063   5.127   2.287
   13CHTO   O42 5283   6.017   4.943   2.364
   13CHTO  H100 5284   6.056   4.862   2.388
   13CHTO   C57 5285   6.225   5.069   2.427
   13CHTO  H114 5286   6.266   4.974   2.461
   13CHTO   N10 5287   6.168   5.137   2.546
   13CHTO  H106 5288   6.168   5.244   2.532
   13CHTO  H107 5289   6.068   5.103   2.565
   13CHTO   C58 5290   6.338   5.152   2.362
   13CHTO  H115 5291   6.297   5.250   2.328
   13CHTO   O37 5292   6.395   5.082   2.251
   13CHTO   C59 5293   6.309   5.056   2.140
   13CHTO  H116 5294   6.278   5.150   2.093
   13CHTO   C70 5295   6.396   4.978   2.041
   13CHTO   O46 5296   6.334   4.946   1.916
   13CHTO  H103 5297   6.394   4.899   1.862
   13CHTO   O39 5298   6.462   5.174   2.464
   13CHTO   C60 5299   6.532   5.299   2.444
   13CHTO  H117 5300   6.504   5.343   2.348
   13CHTO   C62 5301   6.496   5.400   2.557
   13CHTO  H119 5302   6.386   5.418   2.548
   13CHTO   O43 5303   6.523   5.340   2.685
   13CHTO  H101 5304   6.495   5.397   2.754
   13CHTO   C66 5305   6.573   5.539   2.533
   13CHTO  H123 5306   6.544   5.579   2.436
   13CHTO   N12 5307   6.538   5.644   2.633
   13CHTO  H110 5308   6.495   5.730   2.583
   13CHTO  H111 5309   6.471   5.605   2.708
   13CHTO   C69 5310   6.726   5.513   2.528
   13CHTO  H126 5311   6.761   5.474   2.626
   13CHTO   O41 5312   6.757   5.408   2.415
   13CHTO   C64 5313   6.686   5.275   2.439
   13CHTO  H121 5314   6.719   5.231   2.536
   13CHTO   C71 5315   6.724   5.176   2.326
   13CHTO   O47 5316   6.865   5.151   2.325
   13CHTO  H104 5317   6.885   5.091   2.256
   13CHTO   O34 5318   6.807   5.646   2.495
   13CHTO   C49 5319   6.959   5.652   2.494
   13CHTO   H91 5320   6.995   5.552   2.471
   13CHTO   C47 5321   7.009   5.695   2.634
   13CHTO   H89 5322   7.120   5.688   2.628
   13CHTO   O33 5323   6.964   5.602   2.734
   13CHTO   H70 5324   7.005   5.620   2.816
   13CHTO   C45 5325   6.961   5.846   2.670
   13CHTO   H87 5326   6.862   5.841   2.717
   13CHTO    N8 5327   7.058   5.904   2.767
   13CHTO   H75 5328   7.025   6.003   2.796
   13CHTO   H76 5329   7.063   5.841   2.855
   13CHTO   C43 5330   6.938   5.931   2.534
   13CHTO   H85 5331   6.836   5.907   2.503
   13CHTO   O29 5332   7.034   5.890   2.435
   13CHTO   C50 5333   7.015   5.754   2.390
   13CHTO   H92 5334   6.945   5.756   2.305
   13CHTO   C54 5335   7.147   5.703   2.327
   13CHTO   O36 5336   7.180   5.779   2.210
   13CHTO   H72 5337   7.260   5.747   2.173
   13CHTO   O27 5338   6.939   6.074   2.550
   13CHTO   C37 5339   6.851   6.178   2.597
   13CHTO   H79 5340   6.782   6.138   2.672
   13CHTO   C38 5341   6.931   6.294   2.664
   13CHTO   H80 5342   7.006   6.331   2.591
   13CHTO   O31 5343   7.000   6.240   2.778
   13CHTO   H68 5344   7.068   6.181   2.751
   13CHTO   C39 5345   6.836   6.413   2.706
   13CHTO   H81 5346   6.771   6.376   2.785
   13CHTO    N7 5347   6.909   6.532   2.762
   13CHTO   H73 5348   6.839   6.608   2.791
   13CHTO   H74 5349   6.978   6.571   2.689
   13CHTO   C40 5350   6.743   6.456   2.585
   13CHTO   H82 5351   6.801   6.511   2.511
   13CHTO   O26 5352   6.678   6.341   2.528
   13CHTO   C41 5353   6.768   6.237   2.479
   13CHTO   H83 5354   6.836   6.280   2.404
   13CHTO   C52 5355   6.681   6.132   2.407
   13CHTO   O35 5356   6.585   6.066   2.498
   13CHTO   H71 5357   6.535   6.002   2.451
   13CHTO   O28 5358   6.631   6.535   2.629
   13CHTO   C42 5359   6.577   6.642   2.546
   13CHTO   H84 5360   6.612   6.621   2.445
   13CHTO   C44 5361   6.628   6.785   2.581
   13CHTO   H86 5362   6.602   6.807   2.685
   13CHTO   O32 5363   6.771   6.783   2.572
   13CHTO   H69 5364   6.798   6.767   2.483
   13CHTO   C48 5365   6.564   6.898   2.490
   13CHTO   H90 5366   6.603   6.883   2.389
   13CHTO    N9 5367   6.606   7.037   2.530
   13CHTO   H77 5368   6.674   7.034   2.614
   13CHTO   H78 5369   6.652   7.088   2.447
   13CHTO   C51 5370   6.408   6.882   2.485
   13CHTO   H93 5371   6.369   6.902   2.585
   13CHTO   O30 5372   6.375   6.749   2.441
   13CHTO   C46 5373   6.421   6.642   2.541
   13CHTO   H88 5374   6.382   6.667   2.640
   13CHTO   C53 5375   6.363   6.506   2.497
   13CHTO   O72 5376   6.405   6.468   2.365
   13CHTO  H199 5377   6.366   6.386   2.342
   13CHTO   O22 5378   6.347   6.971   2.389
   13CHTO   C31 5379   6.203   7.006   2.393
   13CHTO   H59 5380   6.188   7.080   2.312
   13CHTO   C29 5381   6.109   6.886   2.361
   13CHTO   H57 5382   6.133   6.806   2.432
   13CHTO   O21 5383   6.143   6.837   2.230
   13CHTO   H37 5384   6.119   6.899   2.164
   13CHTO   C27 5385   5.955   6.922   2.376
   13CHTO   H55 5386   5.929   6.996   2.298
   13CHTO    N5 5387   5.868   6.803   2.360
   13CHTO   H43 5388   5.888   6.732   2.439
   13CHTO   H44 5389   5.764   6.833   2.362
   13CHTO   C25 5390   5.934   6.993   2.515
   13CHTO   H53 5391   5.961   6.922   2.595
   13CHTO   O17 5392   6.020   7.110   2.523
   13CHTO   C32 5393   6.160   7.077   2.525
   13CHTO   H60 5394   6.180   7.011   2.609
   13CHTO   C36 5395   6.239   7.209   2.546
   13CHTO   O25 5396   6.212   7.267   2.674
   13CHTO   H40 5397   6.124   7.299   2.676
   13CHTO   O15 5398   5.787   7.040   2.539
   13CHTO   C19 5399   5.668   7.108   2.489
   13CHTO   H47 5400   5.629   7.162   2.577
   13CHTO   C20 5401   5.695   7.209   2.375
   13CHTO   H48 5402   5.739   7.160   2.286
   13CHTO   O19 5403   5.792   7.304   2.424
   13CHTO   H35 5404   5.756   7.355   2.494
   13CHTO   C21 5405   5.562   7.282   2.328
   13CHTO   H49 5406   5.526   7.343   2.411
   13CHTO    N4 5407   5.582   7.374   2.213
   13CHTO   H41 5408   5.686   7.376   2.181
   13CHTO   H42 5409   5.552   7.475   2.239
   13CHTO   C22 5410   5.452   7.176   2.300
   13CHTO   H50 5411   5.479   7.119   2.211
   13CHTO   O14 5412   5.437   7.086   2.412
   13CHTO   C23 5413   5.556   7.011   2.444
   13CHTO   H51 5414   5.584   6.955   2.353
   13CHTO   C34 5415   5.524   6.908   2.553
   13CHTO   O23 5416   5.450   6.798   2.500
   13CHTO   H38 5417   5.432   6.736   2.568
   13CHTO   O16 5418   5.325   7.242   2.278
   13CHTO   C24 5419   5.190   7.160   2.294
   13CHTO   H52 5420   5.202   7.074   2.360
   13CHTO   C26 5421   5.140   7.111   2.157
   13CHTO   H54 5422   5.135   7.198   2.088
   13CHTO   O20 5423   5.236   7.017   2.105
   13CHTO   H36 5424   5.213   6.992   2.018
   13CHTO   C30 5425   4.997   7.049   2.168
   13CHTO   H58 5426   5.003   6.954   2.223
   13CHTO    N6 5427   4.941   7.015   2.034
   13CHTO   H45 5428   4.935   7.103   1.972
   13CHTO   H46 5429   5.003   6.941   1.986
   13CHTO   C33 5430   4.901   7.142   2.249
   13CHTO   H61 5431   4.881   7.233   2.191
   13CHTO   O18 5432   4.963   7.180   2.373
   13CHTO   C28 5433   5.085   7.253   2.360
   13CHTO   H56 5434   5.072   7.341   2.297
   13CHTO   C35 5435   5.133   7.298   2.500
   13CHTO   O24 5436   5.043   7.391   2.561
   13CHTO   H39 5437   5.078   7.420   2.643
   13CHTO    O9 5438   4.771   7.083   2.272
   13CHTO   C13 5439   4.773   6.957   2.376
   13CHTO   H26 5440   4.878   6.933   2.402
   13CHTO   C11 5441   4.701   6.834   2.305
   13CHTO   H24 5442   4.757   6.810   2.214
   13CHTO    O8 5443   4.568   6.873   2.267
   13CHTO    H3 5444   4.572   6.940   2.201
   13CHTO    C9 5445   4.709   6.711   2.402
   13CHTO   H22 5446   4.816   6.685   2.405
   13CHTO    N2 5447   4.646   6.589   2.346
   13CHTO   H10 5448   4.685   6.569   2.247
   13CHTO   H11 5449   4.539   6.602   2.342
   13CHTO    C7 5450   4.667   6.753   2.549
   13CHTO   H20 5451   4.763   6.751   2.605
   13CHTO    O4 5452   4.610   6.885   2.554
   13CHTO   C14 5453   4.700   6.990   2.515
   13CHTO   H27 5454   4.778   7.001   2.594
   13CHTO   C18 5455   4.617   7.121   2.515
   13CHTO   O13 5456   4.700   7.237   2.506
   13CHTO    H7 5457   4.646   7.314   2.504
   13CHTO    O2 5458   4.563   6.648   2.626
   13CHTO    C1 5459   4.549   6.679   2.766
   13CHTO   H14 5460   4.586   6.782   2.786
   13CHTO    C2 5461   4.624   6.579   0.004
   13CHTO   H15 5462   4.582   6.479   2.843
   13CHTO    O6 5463   4.763   6.581   2.829
   13CHTO    H1 5464   4.809   6.516   0.021
   13CHTO    C3 5465   4.598   6.623   0.156
   13CHTO   H16 5466   4.645   6.721   0.172
   13CHTO    N1 5467   4.659   6.528   0.256
   13CHTO    H8 5468   4.731   6.580   0.318
   13CHTO    H9 5469   4.706   6.445   0.207
   13CHTO    C4 5470   4.444   6.645   0.182
   13CHTO   H17 5471   4.394   6.548   0.190
   13CHTO    O1 5472   4.381   6.725   0.081
   13CHTO    C5 5473   4.398   6.681   2.803
   13CHTO   H18 5474   4.361   6.579   2.794
   13CHTO   C16 5475   4.314   6.772   2.711
   13CHTO   O11 5476   4.354   6.910   2.720
   13CHTO    H5 5477   4.331   6.945   2.804
   13CHTO    O3 5478   4.426   6.721   0.303
   13CHTO    C6 5479   4.295   6.709   0.367
   13CHTO   H19 5480   4.220   6.664   0.302
   13CHTO    C8 5481   4.309   6.620   0.496
   13CHTO   H21 5482   4.391   6.660   0.556
   13CHTO    O7 5483   4.342   6.486   0.453
   13CHTO    H2 5484   4.273   6.449   0.402
   13CHTO   C12 5485   4.176   6.622   0.582
   13CHTO   H25 5486   4.100   6.565   0.524
   13CHTO    N3 5487   4.194   6.549   0.712
   13CHTO   H12 5488   4.219   6.446   0.693
   13CHTO   H13 5489   4.272   6.596   0.771
   13CHTO   C15 5490   4.125   6.769   0.601
   13CHTO   H28 5491   4.189   6.826   0.669
   13CHTO   O10 5492   3.977   6.775   0.651
   13CHTO    H4 5493   3.952   6.864   0.669
   13CHTO    O5 5494   4.116   6.837   0.474
   13CHTO   C10 5495   4.242   6.850   0.406
   13CHTO   H23 5496   4.312   6.901   0.472
   13CHTO   C17 5497   4.215   6.941   0.285
   13CHTO   O12 5498   4.337   6.984   0.222
   13CHTO    H6 5499   4.316   7.038   0.148
   14CHTO  H203 5500   7.046   4.763   2.103
   14CHTO   O82 5501   7.030   4.677   2.071
   14CHTO  C123 5502   6.937   4.683   1.961
   14CHTO  H227 5503   6.978   4.750   1.884
   14CHTO   O77 5504   6.934   4.545   1.912
   14CHTO  C118 5505   6.854   4.525   1.795
   14CHTO  H222 5506   6.889   4.591   1.714
   14CHTO  C125 5507   6.875   4.376   1.752
   14CHTO   O84 5508   6.818   4.348   1.623
   14CHTO  H205 5509   6.834   4.258   1.601
   14CHTO  C114 5510   6.706   4.557   1.829
   14CHTO  H218 5511   6.673   4.486   1.904
   14CHTO  C116 5512   6.691   4.700   1.888
   14CHTO  H220 5513   6.707   4.775   1.807
   14CHTO   O79 5514   6.555   4.716   1.933
   14CHTO  H201 5515   6.496   4.716   1.860
   14CHTO  C120 5516   6.793   4.726   2.006
   14CHTO  H224 5517   6.760   4.662   2.091
   14CHTO   N21 5518   6.788   4.867   2.053
   14CHTO  H211 5519   6.857   4.928   1.997
   14CHTO  H212 5520   6.812   4.871   2.159
   14CHTO   O75 5521   6.632   4.538   1.707
   14CHTO  C112 5522   6.478   4.486   1.733
   14CHTO  H216 5523   6.438   4.536   1.822
   14CHTO   O73 5524   6.483   4.343   1.749
   14CHTO  C113 5525   6.357   4.289   1.792
   14CHTO  H217 5526   6.327   4.339   1.886
   14CHTO  C124 5527   6.380   4.141   1.824
   14CHTO   O83 5528   6.267   4.078   1.886
   14CHTO  H204 5529   6.254   4.113   1.972
   14CHTO  C109 5530   6.249   4.310   1.682
   14CHTO  H213 5531   6.277   4.247   1.596
   14CHTO  C110 5532   6.242   4.461   1.639
   14CHTO  H214 5533   6.194   4.517   1.719
   14CHTO   O78 5534   6.157   4.470   1.523
   14CHTO  H200 5535   6.144   4.560   1.499
   14CHTO  C111 5536   6.384   4.519   1.611
   14CHTO  H215 5537   6.426   4.470   1.521
   14CHTO   N19 5538   6.383   4.665   1.584
   14CHTO  H207 5539   6.321   4.686   1.498
   14CHTO  H208 5540   6.484   4.700   1.565
   14CHTO   O74 5541   6.119   4.267   1.732
   14CHTO  C115 5542   6.035   4.172   1.630
   14CHTO  H219 5543   6.038   4.209   1.527
   14CHTO   O76 5544   6.095   4.026   1.624
   14CHTO  C122 5545   6.019   3.923   1.558
   14CHTO  H226 5546   6.059   3.829   1.595
   14CHTO  C126 5547   6.045   3.922   1.403
   14CHTO   O85 5548   6.010   4.043   1.335
   14CHTO  H206 5549   5.918   4.055   1.338
   14CHTO  C121 5550   5.865   3.924   1.591
   14CHTO  H225 5551   5.814   3.863   1.513
   14CHTO   O81 5552   5.843   3.861   1.717
   14CHTO  H202 5553   5.869   3.771   1.714
   14CHTO  C119 5554   5.802   4.067   1.590
   14CHTO  H223 5555   5.804   4.101   1.486
   14CHTO  C117 5556   5.884   4.170   1.676
   14CHTO  H221 5557   5.889   4.149   1.783
   14CHTO   N20 5558   5.823   4.307   1.666
   14CHTO  H209 5559   5.791   4.341   1.763
   14CHTO  H210 5560   5.892   4.378   1.622
   14CHTO   O80 5561   5.643   4.063   1.619
   14CHTO  C103 5562   5.546   4.002   1.513
   14CHTO  H190 5563   5.596   3.991   1.417
   14CHTO  C101 5564   5.480   3.864   1.552
   14CHTO  H188 5565   5.442   3.871   1.655
   14CHTO   O68 5566   5.587   3.753   1.548
   14CHTO  H168 5567   5.619   3.742   1.461
   14CHTO   C99 5568   5.356   3.831   1.457
   14CHTO  H186 5569   5.393   3.817   1.353
   14CHTO   N17 5570   5.281   3.705   1.493
   14CHTO  H174 5571   5.204   3.685   1.420
   14CHTO  H175 5572   5.350   3.623   1.500
   14CHTO   C97 5573   5.261   3.954   1.452
   14CHTO  H184 5574   5.218   3.969   1.552
   14CHTO   O64 5575   5.333   4.069   1.406
   14CHTO  C104 5576   5.435   4.113   1.496
   14CHTO  H191 5577   5.394   4.139   1.594
   14CHTO  C108 5578   5.498   4.242   1.441
   14CHTO   O71 5579   5.402   4.347   1.422
   14CHTO  H171 5580   5.344   4.325   1.352
   14CHTO   O62 5581   5.157   3.942   1.352
   14CHTO   C91 5582   5.023   3.975   1.392
   14CHTO  H178 5583   4.992   3.900   1.465
   14CHTO   C92 5584   4.932   3.954   1.266
   14CHTO  H179 5585   4.952   3.856   1.221
   14CHTO   O66 5586   4.794   3.949   1.309
   14CHTO  H166 5587   4.779   3.873   1.361
   14CHTO   C93 5588   4.946   4.071   1.161
   14CHTO  H180 5589   4.856   4.067   1.098
   14CHTO   N16 5590   5.060   4.055   1.067
   14CHTO  H172 5591   5.114   3.963   1.086
   14CHTO  H173 5592   5.025   4.057   0.964
   14CHTO   C94 5593   4.951   4.212   1.233
   14CHTO  H181 5594   5.052   4.255   1.233
   14CHTO   O61 5595   4.912   4.202   1.371
   14CHTO   C95 5596   4.999   4.121   1.453
   14CHTO  H182 5597   5.095   4.172   1.463
   14CHTO  C106 5598   4.935   4.117   1.596
   14CHTO   O69 5599   5.020   4.050   1.690
   14CHTO  H169 5600   4.979   4.051   1.775
   14CHTO   O63 5601   4.853   4.309   1.156
   14CHTO   C96 5602   4.822   4.444   1.229
   14CHTO  H183 5603   4.881   4.450   1.321
   14CHTO   C98 5604   4.672   4.460   1.266
   14CHTO  H185 5605   4.610   4.440   1.177
   14CHTO   O67 5606   4.642   4.355   1.360
   14CHTO  H167 5607   4.550   4.355   1.379
   14CHTO  C102 5608   4.639   4.604   1.327
   14CHTO  H189 5609   4.686   4.606   1.427
   14CHTO   N18 5610   4.493   4.628   1.351
   14CHTO  H176 5611   4.457   4.711   1.292
   14CHTO  H177 5612   4.475   4.647   1.455
   14CHTO  C105 5613   4.705   4.717   1.242
   14CHTO  H192 5614   4.646   4.733   1.151
   14CHTO   O65 5615   4.841   4.689   1.204
   14CHTO  C100 5616   4.864   4.564   1.138
   14CHTO  H187 5617   4.804   4.562   1.045
   14CHTO  C107 5618   5.013   4.555   1.098
   14CHTO   O70 5619   5.047   4.652   0.999
   14CHTO  H170 5620   5.138   4.644   0.977
   14CHTO   O57 5621   4.705   4.847   1.336
   14CHTO   C85 5622   4.650   4.972   1.291
   14CHTO  H157 5623   4.555   4.948   1.240
   14CHTO   C83 5624   4.743   5.036   1.182
   14CHTO  H155 5625   4.744   4.969   1.096
   14CHTO   O56 5626   4.878   5.042   1.232
   14CHTO  H135 5627   4.884   5.101   1.304
   14CHTO   C81 5628   4.684   5.173   1.139
   14CHTO  H153 5629   4.583   5.157   1.102
   14CHTO   N14 5630   4.756   5.234   1.024
   14CHTO  H141 5631   4.857   5.257   1.052
   14CHTO  H142 5632   4.756   5.167   0.941
   14CHTO   C79 5633   4.675   5.270   1.264
   14CHTO  H151 5634   4.624   5.361   1.230
   14CHTO   O52 5635   4.590   5.210   1.367
   14CHTO   C86 5636   4.630   5.076   1.409
   14CHTO  H158 5637   4.726   5.092   1.463
   14CHTO   C90 5638   4.531   5.020   1.514
   14CHTO   O60 5639   4.398   5.014   1.463
   14CHTO  H138 5640   4.340   4.980   1.529
   14CHTO   O50 5641   4.803   5.306   1.319
   14CHTO   C73 5642   4.845   5.403   1.416
   14CHTO  H145 5643   4.794   5.383   1.512
   14CHTO   C74 5644   4.811   5.548   1.369
   14CHTO  H146 5645   4.702   5.552   1.353
   14CHTO   O54 5646   4.839   5.638   1.478
   14CHTO  H133 5647   4.815   5.725   1.454
   14CHTO   C75 5648   4.891   5.580   1.237
   14CHTO  H147 5649   4.857   5.511   1.158
   14CHTO   N13 5650   4.867   5.716   1.183
   14CHTO  H139 5651   4.894   5.790   1.257
   14CHTO  H140 5652   4.762   5.727   1.159
   14CHTO   C76 5653   5.047   5.552   1.260
   14CHTO  H148 5654   5.086   5.629   1.328
   14CHTO   O49 5655   5.070   5.420   1.317
   14CHTO   C77 5656   4.999   5.392   1.438
   14CHTO  H149 5657   5.028   5.464   1.515
   14CHTO   C88 5658   5.040   5.254   1.490
   14CHTO   O58 5659   5.181   5.254   1.530
   14CHTO  H136 5660   5.204   5.168   1.562
   14CHTO   O51 5661   5.124   5.548   1.120
   14CHTO   C78 5662   5.271   5.602   1.129
   14CHTO  H150 5663   5.298   5.630   1.233
   14CHTO   C80 5664   5.286   5.726   1.039
   14CHTO  H152 5665   5.242   5.703   0.940
   14CHTO   O55 5666   5.205   5.831   1.096
   14CHTO  H134 5667   5.113   5.809   1.088
   14CHTO   C84 5668   5.436   5.773   1.022
   14CHTO  H156 5669   5.466   5.818   1.116
   14CHTO   N15 5670   5.451   5.879   0.916
   14CHTO  H143 5671   5.513   5.846   0.836
   14CHTO  H144 5672   5.492   5.968   0.959
   14CHTO   C87 5673   5.531   5.653   0.996
   14CHTO  H159 5674   5.519   5.616   0.895
   14CHTO   O53 5675   5.503   5.542   1.097
   14CHTO   C82 5676   5.369   5.492   1.086
   14CHTO  H154 5677   5.349   5.460   0.983
   14CHTO   C89 5678   5.358   5.366   1.175
   14CHTO   O59 5679   5.438   5.259   1.123
   14CHTO  H137 5680   5.429   5.184   1.178
   14CHTO   O45 5681   5.689   5.701   1.017
   14CHTO   C67 5682   5.785   5.593   1.021
   14CHTO  H124 5683   5.746   5.508   1.077
   14CHTO   C65 5684   5.820   5.547   0.876
   14CHTO  H122 5685   5.725   5.537   0.823
   14CHTO   O44 5686   5.885   5.419   0.880
   14CHTO  H102 5687   5.826   5.354   0.913
   14CHTO   C63 5688   5.899   5.661   0.802
   14CHTO  H120 5689   5.839   5.752   0.805
   14CHTO   N11 5690   5.918   5.642   0.655
   14CHTO  H108 5691   5.961   5.730   0.611
   14CHTO  H109 5692   5.983   5.558   0.637
   14CHTO   C61 5693   6.032   5.691   0.882
   14CHTO  H118 5694   6.077   5.780   0.834
   14CHTO   O40 5695   6.002   5.728   1.019
   14CHTO   C68 5696   5.914   5.642   1.100
   14CHTO  H125 5697   5.878   5.705   1.183
   14CHTO   C72 5698   5.993   5.524   1.163
   14CHTO   O48 5699   6.099   5.568   1.249
   14CHTO  H105 5700   6.063   5.609   1.325
   14CHTO   O38 5701   6.126   5.581   0.884
   14CHTO   C55 5702   6.257   5.598   0.826
   14CHTO  H112 5703   6.262   5.691   0.767
   14CHTO   C56 5704   6.289   5.470   0.739
   14CHTO  H113 5705   6.267   5.382   0.802
   14CHTO   O42 5706   6.196   5.463   0.628
   14CHTO  H100 5707   6.209   5.384   0.580
   14CHTO   C57 5708   6.438   5.467   0.689
   14CHTO  H114 5709   6.448   5.546   0.614
   14CHTO   N10 5710   6.476   5.339   0.622
   14CHTO  H106 5711   6.453   5.346   0.516
   14CHTO  H107 5712   6.581   5.319   0.634
   14CHTO   C58 5713   6.534   5.499   0.806
   14CHTO  H115 5714   6.536   5.413   0.877
   14CHTO   O37 5715   6.495   5.618   0.876
   14CHTO   C59 5716   6.365   5.612   0.937
   14CHTO  H116 5717   6.360   5.528   1.006
   14CHTO   C70 5718   6.346   5.741   1.019
   14CHTO   O46 5719   6.437   5.750   1.130
   14CHTO  H103 5720   6.416   5.685   1.194
   14CHTO   O39 5721   6.683   5.529   0.749
   14CHTO   C60 5722   6.787   5.515   0.848
   14CHTO  H117 5723   6.748   5.541   0.946
   14CHTO   C62 5724   6.841   5.369   0.855
   14CHTO  H119 5725   6.756   5.306   0.887
   14CHTO   O43 5726   6.882   5.326   0.723
   14CHTO  H101 5727   6.954   5.377   0.693
   14CHTO   C66 5728   6.959   5.360   0.964
   14CHTO  H123 5729   6.920   5.394   1.060
   14CHTO   N12 5730   7.007   5.221   0.987
   14CHTO  H110 5731   6.953   5.150   0.926
   14CHTO  H111 5732   7.000   5.195   1.092
   14CHTO   C69 5733   7.073   5.457   0.923
   14CHTO  H126 5734   7.113   5.428   0.824
   14CHTO   O41 5735   7.013   5.602   0.917
   14CHTO   C64 5736   6.901   5.616   0.817
   14CHTO  H121 5737   6.940   5.596   0.715
   14CHTO   C71 5738   6.849   5.761   0.820
   14CHTO   O47 5739   6.949   5.853   0.775
   14CHTO  H104 5740   7.019   5.858   0.837
   14CHTO   O34 5741   7.192   5.458   1.027
   14CHTO   C49 5742   7.337   5.508   0.994
   14CHTO   H91 5743   7.381   5.435   0.926
   14CHTO   C47 5744   7.416   5.514   1.126
   14CHTO   H89 5745   7.521   5.538   1.095
   14CHTO   O33 5746   7.418   5.386   1.191
   14CHTO   H70 5747   7.331   5.362   1.218
   14CHTO   C45 5748   7.357   5.629   1.225
   14CHTO   H87 5749   7.284   5.582   1.292
   14CHTO    N8 5750   7.468   5.684   1.308
   14CHTO   H75 5751   7.455   5.654   1.411
   14CHTO   H76 5752   7.565   5.653   1.272
   14CHTO   C43 5753   7.272   5.738   1.141
   14CHTO   H85 5754   7.174   5.693   1.128
   14CHTO   O29 5755   7.336   5.765   1.015
   14CHTO   C50 5756   7.340   5.650   0.927
   14CHTO   H92 5757   7.254   5.658   0.860
   14CHTO   C54 5758   7.459   5.666   0.829
   14CHTO   O36 5759   7.585   5.682   0.897
   14CHTO   H72 5760   7.586   5.765   0.941
   14CHTO   O27 5761   7.246   5.861   1.213
   14CHTO   C37 5762   7.135   5.939   1.259
   14CHTO   H79 5763   7.165   6.045   1.265
   14CHTO   C38 5764   7.015   5.932   1.160
   14CHTO   H80 5765   6.993   5.826   1.139
   14CHTO   O31 5766   7.056   5.995   1.037
   14CHTO   H68 5767   7.120   5.943   0.993
   14CHTO   C39 5768   6.886   6.002   1.218
   14CHTO   H81 5769   6.906   6.109   1.222
   14CHTO    N7 5770   6.763   5.982   1.133
   14CHTO   H73 5771   6.725   6.077   1.099
   14CHTO   H74 5772   6.784   5.918   1.048
   14CHTO   C40 5773   6.859   5.953   1.365
   14CHTO   H82 5774   6.825   5.850   1.364
   14CHTO   O26 5775   6.977   5.969   1.446
   14CHTO   C41 5776   7.092   5.891   1.400
   14CHTO   H83 5777   7.065   5.785   1.396
   14CHTO   C52 5778   7.206   5.909   1.503
   14CHTO   O35 5779   7.171   5.854   1.634
   14CHTO   H71 5780   7.242   5.868   1.694
   14CHTO   O28 5781   6.766   6.038   1.435
   14CHTO   C42 5782   6.652   5.989   1.513
   14CHTO   H84 5783   6.654   6.053   1.600
   14CHTO   C44 5784   6.658   5.842   1.567
   14CHTO   H86 5785   6.669   5.774   1.482
   14CHTO   O32 5786   6.775   5.831   1.649
   14CHTO   H69 5787   6.767   5.886   1.725
   14CHTO   C48 5788   6.526   5.798   1.644
   14CHTO   H90 5789   6.522   5.854   1.737
   14CHTO    N9 5790   6.530   5.653   1.683
   14CHTO   H77 5791   6.536   5.591   1.595
   14CHTO   H78 5792   6.441   5.628   1.740
   14CHTO   C51 5793   6.401   5.834   1.557
   14CHTO   H93 5794   6.404   5.775   1.465
   14CHTO   O30 5795   6.403   5.975   1.530
   14CHTO   C46 5796   6.516   6.016   1.441
   14CHTO   H88 5797   6.511   5.959   1.348
   14CHTO   C53 5798   6.491   6.167   1.412
   14CHTO   O72 5799   6.583   6.221   1.316
   14CHTO  H199 5800   6.566   6.184   1.232
   14CHTO   O22 5801   6.276   5.815   1.627
   14CHTO   C31 5802   6.161   5.744   1.566
   14CHTO   H59 5803   6.203   5.682   1.483
   14CHTO   C29 5804   6.091   5.648   1.664
   14CHTO   H57 5805   6.058   5.707   1.751
   14CHTO   O21 5806   6.189   5.554   1.713
   14CHTO   H37 5807   6.255   5.598   1.764
   14CHTO   C27 5808   5.966   5.575   1.600
   14CHTO   H55 5809   6.001   5.511   1.517
   14CHTO    N5 5810   5.890   5.490   1.696
   14CHTO   H43 5811   5.930   5.499   1.796
   14CHTO   H44 5812   5.785   5.514   1.696
   14CHTO   C25 5813   5.874   5.685   1.535
   14CHTO   H53 5814   5.835   5.751   1.614
   14CHTO   O17 5815   5.951   5.764   1.441
   14CHTO   C32 5816   6.057   5.840   1.500
   14CHTO   H60 5817   6.016   5.906   1.577
   14CHTO   C36 5818   6.117   5.927   1.387
   14CHTO   O25 5819   6.022   6.021   1.336
   14CHTO   H40 5820   6.003   6.086   1.401
   14CHTO   O15 5821   5.752   5.624   1.455
   14CHTO   C19 5822   5.614   5.664   1.435
   14CHTO   H47 5823   5.586   5.617   1.339
   14CHTO   C20 5824   5.516   5.613   1.546
   14CHTO   H48 5825   5.545   5.651   1.646
   14CHTO   O19 5826   5.527   5.470   1.551
   14CHTO   H35 5827   5.498   5.432   1.470
   14CHTO   C21 5828   5.366   5.657   1.520
   14CHTO   H49 5829   5.328   5.599   1.435
   14CHTO    N4 5830   5.275   5.625   1.633
   14CHTO   H41 5831   5.277   5.519   1.653
   14CHTO   H42 5832   5.174   5.655   1.609
   14CHTO   C22 5833   5.358   5.807   1.480
   14CHTO   H50 5834   5.375   5.870   1.568
   14CHTO   O14 5835   5.455   5.837   1.378
   14CHTO   C23 5836   5.591   5.817   1.418
   14CHTO   H51 5837   5.608   5.871   1.512
   14CHTO   C34 5838   5.681   5.880   1.311
   14CHTO   O23 5839   5.670   6.023   1.314
   14CHTO   H38 5840   5.725   6.060   1.248
   14CHTO   O16 5841   5.232   5.838   1.418
   14CHTO   C24 5842   5.186   6.002   1.402
   14CHTO   H52 5843   5.105   6.014   1.330
   14CHTO   C26 5844   5.303   6.091   1.355
   14CHTO   H54 5845   5.388   6.079   1.427
   14CHTO   O20 5846   5.345   6.045   1.225
   14CHTO   H36 5847   5.423   6.090   1.199
   14CHTO   C30 5848   5.263   6.241   1.351
   14CHTO   H58 5849   5.193   6.258   1.268
   14CHTO    N6 5850   5.381   6.328   1.322
   14CHTO   H45 5851   5.455   6.317   1.400
   14CHTO   H46 5852   5.351   6.431   1.316
   14CHTO   C33 5853   5.187   6.286   1.481
   14CHTO   H61 5854   5.259   6.297   1.564
   14CHTO   O18 5855   5.088   6.189   1.520
   14CHTO   C28 5856   5.134   6.055   1.538
   14CHTO   H56 5857   5.215   6.052   1.610
   14CHTO   C35 5858   5.018   5.966   1.592
   14CHTO   O24 5859   4.905   5.960   1.504
   14CHTO   H39 5860   4.839   5.904   1.542
   14CHTO    O9 5861   5.129   6.417   1.461
   14CHTO   C13 5862   5.103   6.503   1.595
   14CHTO   H26 5863   5.090   6.433   1.680
   14CHTO   C11 5864   4.975   6.593   1.572
   14CHTO   H24 5865   4.888   6.526   1.566
   14CHTO    O8 5866   4.984   6.663   1.446
   14CHTO    H3 5867   4.904   6.708   1.428
   14CHTO    C9 5868   4.957   6.686   1.695
   14CHTO   H22 5869   4.953   6.619   1.782
   14CHTO    N2 5870   4.828   6.759   1.697
   14CHTO   H10 5871   4.818   6.814   1.789
   14CHTO   H11 5872   4.746   6.689   1.685
   14CHTO    C7 5873   5.084   6.779   1.709
   14CHTO   H20 5874   5.067   6.835   1.804
   14CHTO    O4 5875   5.204   6.700   1.723
   14CHTO   C14 5876   5.231   6.592   1.630
   14CHTO   H27 5877   5.303   6.526   1.682
   14CHTO   C18 5878   5.303   6.647   1.504
   14CHTO   O13 5879   5.438   6.684   1.534
   14CHTO    H7 5880   5.479   6.717   1.456
   14CHTO    O2 5881   5.101   6.886   1.582
   14CHTO    C1 5882   5.158   7.016   1.610
   14CHTO   H14 5883   5.190   7.060   1.513
   14CHTO    C2 5884   5.282   7.019   1.710
   14CHTO   H15 5885   5.249   6.970   1.803
   14CHTO    O6 5886   5.390   6.944   1.652
   14CHTO    H1 5887   5.417   6.982   1.571
   14CHTO    C3 5888   5.329   7.169   1.741
   14CHTO   H16 5889   5.380   7.206   1.650
   14CHTO    N1 5890   5.428   7.178   1.853
   14CHTO    H8 5891   5.521   7.221   1.818
   14CHTO    H9 5892   5.448   7.080   1.895
   14CHTO    C4 5893   5.207   7.267   1.764
   14CHTO   H17 5894   5.169   7.253   1.865
   14CHTO    O1 5895   5.102   7.247   1.668
   14CHTO    C5 5896   5.050   7.113   1.666
   14CHTO   H18 5897   5.025   7.081   1.767
   14CHTO   C16 5898   4.920   7.114   1.582
   14CHTO   O11 5899   4.819   7.193   1.646
   14CHTO    H5 5900   4.742   7.193   1.594
   14CHTO    O3 5901   5.251   7.403   1.744
   14CHTO    C6 5902   5.169   7.508   1.804
   14CHTO   H19 5903   5.066   7.478   1.820
   14CHTO    C8 5904   5.230   7.551   1.942
   14CHTO   H21 5905   5.336   7.570   1.928
   14CHTO    O7 5906   5.211   7.442   2.034
   14CHTO    H2 5907   5.265   7.369   2.009
   14CHTO   C12 5908   5.162   7.684   1.994
   14CHTO   H25 5909   5.055   7.659   2.014
   14CHTO    N3 5910   5.220   7.730   2.125
   14CHTO   H12 5911   5.266   7.827   2.115
   14CHTO   H13 5912   5.291   7.658   2.164
   14CHTO   C15 5913   5.166   7.792   1.880
   14CHTO   H28 5914   5.269   7.821   1.857
   14CHTO   O10 5915   5.085   7.917   1.911
   14CHTO    H4 5916   5.122   7.961   1.985
   14CHTO    O5 5917   5.101   7.743   1.762
   14CHTO   C10 5918   5.166   7.628   1.705
   14CHTO   H23 5919   5.268   7.657   1.679
   14CHTO   C17 5920   5.096   7.593   1.573
   14CHTO   O12 5921   4.958   7.561   1.591
   14CHTO    H6 5922   4.919   7.542   1.508
   15CHTO  H203 5923   7.188   4.614   1.776
   15CHTO   O82 5924   7.253   4.609   1.708
   15CHTO  C123 5925   7.205   4.530   1.598
   15CHTO  H227 5926   7.160   4.438   1.638
   15CHTO   O77 5927   7.102   4.614   1.538
   15CHTO  C118 5928   7.033   4.557   1.426
   15CHTO  H222 5929   6.984   4.463   1.458
   15CHTO  C125 5930   6.923   4.659   1.380
   15CHTO   O84 5931   6.822   4.678   1.480
   15CHTO  H205 5932   6.859   4.721   1.554
   15CHTO  C114 5933   7.133   4.527   1.312
   15CHTO  H218 5934   7.179   4.621   1.281
   15CHTO  C116 5935   7.251   4.437   1.362
   15CHTO  H220 5936   7.212   4.334   1.384
   15CHTO   O79 5937   7.345   4.423   1.254
   15CHTO  H201 5938   7.413   4.364   1.278
   15CHTO  C120 5939   7.317   4.498   1.492
   15CHTO  H224 5940   7.368   4.592   1.461
   15CHTO   N21 5941   7.421   4.407   1.548
   15CHTO  H211 5942   7.397   4.304   1.528
   15CHTO  H212 5943   7.518   4.432   1.506
   15CHTO   O75 5944   7.056   4.474   1.202
   15CHTO  C112 5945   7.005   4.315   1.212
   15CHTO  H216 5946   6.982   4.291   1.318
   15CHTO   O73 5947   7.111   4.232   1.161
   15CHTO  C113 5948   7.082   4.091   1.167
   15CHTO  H217 5949   7.055   4.065   1.271
   15CHTO  C124 5950   7.207   4.010   1.133
   15CHTO   O83 5951   7.253   4.025   0.998
   15CHTO  H204 5952   7.329   3.972   0.984
   15CHTO  C109 5953   6.961   4.059   1.074
   15CHTO  H213 5954   6.991   4.087   0.972
   15CHTO  C110 5955   6.838   4.143   1.119
   15CHTO  H214 5956   6.807   4.109   1.218
   15CHTO   O78 5957   6.727   4.119   1.030
   15CHTO  H200 5958   6.748   4.146   0.943
   15CHTO  C111 5959   6.875   4.295   1.125
   15CHTO  H215 5960   6.897   4.329   1.023
   15CHTO   N19 5961   6.765   4.380   1.177
   15CHTO  H207 5962   6.678   4.370   1.114
   15CHTO  H208 5963   6.796   4.484   1.177
   15CHTO   O74 5964   6.934   3.916   1.078
   15CHTO  C115 5965   6.871   3.857   0.944
   15CHTO  H219 5966   6.799   3.926   0.899
   15CHTO   O76 5967   6.980   3.838   0.833
   15CHTO  C122 5968   7.065   3.726   0.859
   15CHTO  H226 5969   7.115   3.744   0.954
   15CHTO  C126 5970   7.179   3.727   0.751
   15CHTO   O85 5971   7.276   3.623   0.773
   15CHTO  H206 5972   7.341   3.626   0.706
   15CHTO  C121 5973   6.985   3.589   0.861
   15CHTO  H225 5974   7.002   3.535   0.765
   15CHTO   O81 5975   7.036   3.509   0.968
   15CHTO  H202 5976   7.125   3.484   0.951
   15CHTO  C119 5977   6.831   3.609   0.879
   15CHTO  H223 5978   6.792   3.641   0.782
   15CHTO  C117 5979   6.800   3.722   0.984
   15CHTO  H221 5980   6.835   3.700   1.085
   15CHTO   N20 5981   6.652   3.743   0.999
   15CHTO  H209 5982   6.632   3.815   1.077
   15CHTO  H210 5983   6.610   3.777   0.905
   15CHTO   O80 5984   6.751   3.470   0.903
   15CHTO  C103 5985   6.671   3.398   0.782
   15CHTO  H190 5986   6.612   3.316   0.823
   15CHTO  C101 5987   6.576   3.484   0.692
   15CHTO  H188 5988   6.634   3.563   0.643
   15CHTO   O68 5989   6.468   3.549   0.781
   15CHTO  H168 5990   6.414   3.605   0.730
   15CHTO   C99 5991   6.510   3.390   0.579
   15CHTO  H186 5992   6.442   3.318   0.630
   15CHTO   N17 5993   6.425   3.465   0.480
   15CHTO  H174 5994   6.487   3.533   0.422
   15CHTO  H175 5995   6.347   3.519   0.532
   15CHTO   C97 5996   6.617   3.303   0.506
   15CHTO  H184 5997   6.668   3.365   0.430
   15CHTO   O64 5998   6.711   3.242   0.598
   15CHTO  C104 5999   6.778   3.332   0.688
   15CHTO  H191 6000   6.831   3.411   0.634
   15CHTO  C108 6001   6.884   3.255   0.768
   15CHTO   O71 6002   6.989   3.207   0.682
   15CHTO  H171 6003   6.956   3.139   0.627
   15CHTO   O62 6004   6.551   3.191   0.443
   15CHTO   C91 6005   6.622   3.117   0.342
   15CHTO  H178 6006   6.688   3.186   0.290
   15CHTO   C92 6007   6.518   3.068   0.236
   15CHTO  H179 6008   6.455   3.152   0.204
   15CHTO   O66 6009   6.590   3.027   0.118
   15CHTO  H166 6010   6.531   3.006   0.049
   15CHTO   C93 6011   6.432   2.945   0.285
   15CHTO  H180 6012   6.387   2.901   0.195
   15CHTO   N16 6013   6.316   2.983   0.370
   15CHTO  H172 6014   6.260   2.895   0.398
   15CHTO  H173 6015   6.350   3.035   0.458
   15CHTO   C94 6016   6.524   2.836   0.355
   15CHTO  H181 6017   6.503   2.827   0.462
   15CHTO   O61 6018   6.664   2.865   0.343
   15CHTO   C95 6019   6.705   2.992   0.398
   15CHTO  H182 6020   6.693   2.989   0.507
   15CHTO  C106 6021   6.858   3.011   0.370
   15CHTO   O69 6022   6.936   2.911   0.436
   15CHTO  H169 6023   6.932   2.923   0.529
   15CHTO   O63 6024   6.498   2.703   0.284
   15CHTO   C96 6025   6.526   2.575   0.368
   15CHTO  H183 6026   6.550   2.604   0.471
   15CHTO   C98 6027   6.645   2.492   0.312
   15CHTO  H185 6028   6.640   2.493   0.202
   15CHTO   O67 6029   6.766   2.562   0.345
   15CHTO  H167 6030   6.779   2.562   0.438
   15CHTO  C102 6031   6.648   2.339   0.364
   15CHTO  H189 6032   6.670   2.345   0.472
   15CHTO   N18 6033   6.754   2.254   0.305
   15CHTO  H176 6034   6.851   2.297   0.326
   15CHTO  H177 6035   6.749   2.155   0.346
   15CHTO  C105 6036   6.505   2.281   0.346
   15CHTO  H192 6037   6.478   2.287   0.240
   15CHTO   O65 6038   6.411   2.359   0.421
   15CHTO  C100 6039   6.392   2.492   0.372
   15CHTO  H187 6040   6.353   2.485   0.269
   15CHTO  C107 6041   6.285   2.562   0.458
   15CHTO   O70 6042   6.158   2.497   0.447
   15CHTO  H170 6043   6.096   2.539   0.503
   15CHTO   O57 6044   6.500   2.121   0.393
   15CHTO   C85 6045   6.484   2.084   0.531
   15CHTO  H157 6046   6.504   2.175   0.592
   15CHTO   C83 6047   6.595   1.981   0.569
   15CHTO  H155 6048   6.692   2.031   0.558
   15CHTO   O56 6049   6.593   1.873   0.475
   15CHTO  H135 6050   6.665   1.815   0.491
   15CHTO   C81 6051   6.579   1.938   0.718
   15CHTO  H153 6052   6.586   2.027   0.780
   15CHTO   N14 6053   6.688   1.849   0.766
   15CHTO  H141 6054   6.749   1.900   0.839
   15CHTO  H142 6055   6.751   1.817   0.685
   15CHTO   C79 6056   6.436   1.874   0.740
   15CHTO  H151 6057   6.426   1.855   0.847
   15CHTO   O52 6058   6.332   1.971   0.704
   15CHTO   C86 6059   6.343   2.021   0.567
   15CHTO  H158 6060   6.323   1.931   0.504
   15CHTO   C90 6061   6.226   2.118   0.537
   15CHTO   O60 6062   6.225   2.229   0.628
   15CHTO  H138 6063   6.300   2.284   0.613
   15CHTO   O50 6064   6.415   1.751   0.670
   15CHTO   C73 6065   6.303   1.664   0.644
   15CHTO  H145 6066   6.223   1.720   0.594
   15CHTO   C74 6067   6.246   1.602   0.775
   15CHTO  H146 6068   6.214   1.686   0.838
   15CHTO   O54 6069   6.127   1.528   0.742
   15CHTO  H133 6070   6.148   1.454   0.688
   15CHTO   C75 6071   6.359   1.516   0.844
   15CHTO  H147 6072   6.441   1.583   0.873
   15CHTO   N13 6073   6.317   1.452   0.971
   15CHTO  H139 6074   6.215   1.477   0.996
   15CHTO  H140 6075   6.325   1.344   0.965
   15CHTO   C76 6076   6.421   1.411   0.739
   15CHTO  H148 6077   6.347   1.332   0.722
   15CHTO   O49 6078   6.455   1.474   0.611
   15CHTO   C77 6079   6.350   1.550   0.549
   15CHTO  H149 6080   6.265   1.484   0.528
   15CHTO   C88 6081   6.399   1.603   0.414
   15CHTO   O58 6082   6.289   1.673   0.341
   15CHTO  H136 6083   6.322   1.706   0.260
   15CHTO   O51 6084   6.559   1.356   0.797
   15CHTO   C78 6085   6.638   1.261   0.702
   15CHTO  H150 6086   6.597   1.264   0.598
   15CHTO   C80 6087   6.630   1.116   0.753
   15CHTO  H152 6088   6.658   1.115   0.862
   15CHTO   O55 6089   6.493   1.074   0.741
   15CHTO  H134 6090   6.482   0.989   0.780
   15CHTO   C84 6091   6.729   1.021   0.674
   15CHTO  H156 6092   6.695   1.017   0.570
   15CHTO   N15 6093   6.729   0.879   0.725
   15CHTO  H143 6094   6.662   0.868   0.807
   15CHTO  H144 6095   6.701   0.811   0.647
   15CHTO   C87 6096   6.870   1.083   0.678
   15CHTO  H159 6097   6.905   1.087   0.782
   15CHTO   O53 6098   6.864   1.223   0.618
   15CHTO   C82 6099   6.783   1.312   0.696
   15CHTO  H154 6100   6.824   1.319   0.797
   15CHTO   C89 6101   6.792   1.454   0.634
   15CHTO   O59 6102   6.749   1.458   0.497
   15CHTO  H137 6103   6.657   1.441   0.492
   15CHTO   O45 6104   6.978   1.001   0.590
   15CHTO   C67 6105   7.112   1.045   0.619
   15CHTO  H124 6106   7.109   1.142   0.668
   15CHTO   C65 6107   7.184   0.943   0.714
   15CHTO  H122 6108   7.148   0.844   0.686
   15CHTO   O44 6109   7.136   0.974   0.846
   15CHTO  H102 6110   7.166   0.910   0.907
   15CHTO   C63 6111   7.340   0.937   0.691
   15CHTO  H120 6112   7.360   0.871   0.607
   15CHTO   N11 6113   7.420   0.870   0.800
   15CHTO  H108 6114   7.504   0.929   0.828
   15CHTO  H109 6115   7.453   0.773   0.769
   15CHTO   C61 6116   7.394   1.078   0.646
   15CHTO  H118 6117   7.500   1.065   0.621
   15CHTO   O40 6118   7.327   1.126   0.525
   15CHTO   C68 6119   7.198   1.067   0.489
   15CHTO  H125 6120   7.215   0.969   0.438
   15CHTO   C72 6121   7.126   1.159   0.387
   15CHTO   O48 6122   7.198   1.173   0.264
   15CHTO  H105 6123   7.200   1.091   0.219
   15CHTO   O38 6124   7.380   1.177   0.752
   15CHTO   C55 6125   7.440   1.306   0.728
   15CHTO  H112 6126   7.437   1.330   0.621
   15CHTO   C56 6127   7.587   1.313   0.786
   15CHTO  H113 6128   7.582   1.284   0.893
   15CHTO   O42 6129   7.671   1.216   0.721
   15CHTO  H100 6130   7.641   1.129   0.740
   15CHTO   C57 6131   7.647   1.459   0.771
   15CHTO  H114 6132   7.664   1.474   0.665
   15CHTO   N10 6133   7.777   1.477   0.840
   15CHTO  H106 6134   7.784   1.414   0.927
   15CHTO  H107 6135   7.858   1.452   0.772
   15CHTO   C58 6136   7.546   1.566   0.821
   15CHTO  H115 6137   7.540   1.562   0.933
   15CHTO   O37 6138   7.413   1.545   0.768
   15CHTO   C59 6139   7.355   1.417   0.798
   15CHTO  H116 6140   7.353   1.401   0.906
   15CHTO   C70 6141   7.209   1.417   0.750
   15CHTO   O46 6142   7.193   1.441   0.609
   15CHTO  H103 6143   7.229   1.369   0.561
   15CHTO   O39 6144   7.596   1.721   0.772
   15CHTO   C60 6145   7.564   1.755   0.636
   15CHTO  H117 6146   7.555   1.663   0.577
   15CHTO   C62 6147   7.429   1.833   0.627
   15CHTO  H119 6148   7.352   1.767   0.673
   15CHTO   O43 6149   7.439   1.953   0.705
   15CHTO  H101 6150   7.446   1.933   0.796
   15CHTO   C66 6151   7.392   1.858   0.473
   15CHTO  H123 6152   7.389   1.762   0.422
   15CHTO   N12 6153   7.256   1.916   0.456
   15CHTO  H110 6154   7.250   2.011   0.508
   15CHTO  H111 6155   7.182   1.847   0.492
   15CHTO   C69 6156   7.502   1.942   0.403
   15CHTO  H126 6157   7.505   2.045   0.447
   15CHTO   O41 6158   7.642   1.872   0.423
   15CHTO   C64 6159   7.677   1.839   0.570
   15CHTO  H121 6160   7.689   1.934   0.627
   15CHTO   C71 6161   7.814   1.766   0.573
   15CHTO   O47 6162   7.813   1.647   0.495
   15CHTO  H104 6163   7.898   1.607   0.498
   15CHTO   O34 6164   7.476   1.954   0.247
   15CHTO   C49 6165   7.432   2.011   0.110
   15CHTO   H91 6166   7.437   1.928   0.039
   15CHTO   C47 6167   7.531   2.121   0.067
   15CHTO   H89 6168   7.504   2.149   2.820
   15CHTO   O33 6169   7.663   2.066   0.066
   15CHTO   H70 6170   7.725   2.129   0.035
   15CHTO   C45 6171   7.514   2.249   0.164
   15CHTO   H87 6172   7.533   2.216   0.267
   15CHTO    N8 6173   7.612   2.356   0.131
   15CHTO   H75 6174   7.592   2.397   0.033
   15CHTO   H76 6175   7.607   2.435   0.205
   15CHTO   C43 6176   7.361   2.300   0.163
   15CHTO   H85 6177   7.355   2.376   0.240
   15CHTO   O29 6178   7.271   2.190   0.187
   15CHTO   C50 6179   7.288   2.067   0.114
   15CHTO   H92 6180   7.226   1.991   0.165
   15CHTO   C54 6181   7.224   2.073   2.831
   15CHTO   O36 6182   7.083   2.097   2.837
   15CHTO   H72 6183   7.048   2.101   2.751
   15CHTO   O27 6184   7.326   2.367   0.040
   15CHTO   C37 6185   7.223   2.440   2.830
   15CHTO   H79 6186   7.146   2.370   2.792
   15CHTO   C38 6187   7.150   2.540   0.068
   15CHTO   H80 6188   7.227   2.601   0.118
   15CHTO   O31 6189   7.081   2.463   0.168
   15CHTO   H68 6190   7.015   2.410   0.129
   15CHTO   C39 6191   7.051   2.634   2.847
   15CHTO   H81 6192   6.969   2.572   2.812
   15CHTO    N7 6193   6.990   2.742   0.074
   15CHTO   H73 6194   6.933   2.697   0.154
   15CHTO   H74 6195   7.068   2.805   0.115
   15CHTO   C40 6196   7.120   2.696   2.719
   15CHTO   H82 6197   7.192   2.773   2.747
   15CHTO   O26 6198   7.181   2.592   2.641
   15CHTO   C41 6199   7.285   2.516   2.710
   15CHTO   H83 6200   7.362   2.585   2.747
   15CHTO   C52 6201   7.351   2.420   2.609
   15CHTO   O35 6202   7.420   2.492   2.499
   15CHTO   H71 6203   7.493   2.539   2.533
   15CHTO   O28 6204   7.024   2.750   2.626
   15CHTO   C42 6205   7.047   2.865   2.538
   15CHTO   H84 6206   6.998   2.835   2.445
   15CHTO   C44 6207   7.195   2.901   2.498
   15CHTO   H86 6208   7.252   2.922   2.588
   15CHTO   O32 6209   7.252   2.784   2.436
   15CHTO   H69 6210   7.208   2.764   2.355
   15CHTO   C48 6211   7.204   3.028   2.402
   15CHTO   H90 6212   7.162   2.999   2.306
   15CHTO    N9 6213   7.347   3.069   2.373
   15CHTO   H77 6214   7.417   3.003   2.422
   15CHTO   H78 6215   7.365   3.171   2.403
   15CHTO   C51 6216   7.118   3.146   2.460
   15CHTO   H93 6217   7.165   3.182   2.552
   15CHTO   O30 6218   6.984   3.099   2.483
   15CHTO   C46 6219   6.976   2.994   2.588
   15CHTO   H88 6220   7.025   3.030   2.679
   15CHTO   C53 6221   6.825   2.971   2.618
   15CHTO   O72 6222   6.753   2.930   2.501
   15CHTO  H199 6223   6.662   2.917   2.524
   15CHTO   O22 6224   7.104   3.254   2.364
   15CHTO   C31 6225   7.050   3.387   2.399
   15CHTO   H59 6226   7.058   3.448   2.306
   15CHTO   C29 6227   6.901   3.388   2.439
   15CHTO   H57 6228   6.889   3.321   2.526
   15CHTO   O21 6229   6.826   3.329   2.331
   15CHTO   H37 6230   6.737   3.316   2.356
   15CHTO   C27 6231   6.849   3.532   2.479
   15CHTO   H55 6232   6.854   3.597   2.390
   15CHTO    N5 6233   6.709   3.532   2.528
   15CHTO   H43 6234   6.643   3.491   2.453
   15CHTO   H44 6235   6.678   3.633   2.552
   15CHTO   C25 6236   6.947   3.591   2.586
   15CHTO   H53 6237   6.946   3.527   2.676
   15CHTO   O17 6238   7.082   3.593   2.532
   15CHTO   C32 6239   7.136   3.462   2.506
   15CHTO   H60 6240   7.136   3.404   2.598
   15CHTO   C36 6241   7.282   3.479   2.458
   15CHTO   O25 6242   7.366   3.534   2.561
   15CHTO   H40 6243   7.341   3.623   2.578
   15CHTO   O15 6244   6.910   3.738   2.628
   15CHTO   C19 6245   6.954   3.859   2.697
   15CHTO   H47 6246   7.036   3.896   2.634
   15CHTO   C20 6247   6.843   3.969   2.705
   15CHTO   H48 6248   6.755   3.933   2.759
   15CHTO   O19 6249   6.803   3.997   2.570
   15CHTO   H35 6250   6.873   4.035   2.521
   15CHTO   C21 6251   6.896   4.099   2.778
   15CHTO   H49 6252   6.974   4.144   2.715
   15CHTO    N4 6253   6.789   4.202   2.795
   15CHTO   H41 6254   6.772   4.224   0.041
   15CHTO   H42 6255   6.817   4.293   2.744
   15CHTO   C22 6256   6.965   4.060   0.054
   15CHTO   H50 6257   6.888   4.026   0.124
   15CHTO   O14 6258   7.063   3.958   0.034
   15CHTO   C23 6259   7.014   3.834   2.839
   15CHTO   H51 6260   6.939   3.795   0.051
   15CHTO   C34 6261   7.129   3.733   2.839
   15CHTO   O23 6262   7.235   3.769   2.750
   15CHTO   H38 6263   7.206   3.761   2.661
   15CHTO   O16 6264   7.040   4.171   0.108
   15CHTO   C24 6265   7.030   4.192   0.268
   15CHTO   H52 6266   6.965   4.117   0.315
   15CHTO   C26 6267   6.974   4.333   0.295
   15CHTO   H54 6268   7.032   4.406   0.234
   15CHTO   O20 6269   6.838   4.336   0.249
   15CHTO   H36 6270   6.835   4.332   0.156
   15CHTO   C30 6271   6.988   4.375   0.445
   15CHTO   H58 6272   6.925   4.310   0.508
   15CHTO    N6 6273   6.940   4.515   0.470
   15CHTO   H45 6274   6.904   4.561   0.379
   15CHTO   H46 6275   7.018   4.576   0.513
   15CHTO   C33 6276   7.136   4.353   0.489
   15CHTO   H61 6277   7.200   4.415   0.425
   15CHTO   O18 6278   7.169   4.215   0.467
   15CHTO   C28 6279   7.172   4.174   0.330
   15CHTO   H56 6280   7.243   4.235   0.273
   15CHTO   C35 6281   7.215   4.026   0.323
   15CHTO   O24 6282   7.348   4.006   0.373
   15CHTO   H39 6283   7.367   3.914   0.375
   15CHTO    O9 6284   7.164   4.393   0.625
   15CHTO   C13 6285   7.306   4.481   0.645
   15CHTO   H26 6286   7.287   4.583   0.606
   15CHTO   C11 6287   7.428   4.412   0.571
   15CHTO   H24 6288   7.410   4.418   0.462
   15CHTO    O8 6289   7.436   4.272   0.606
   15CHTO    H3 6290   7.503   4.230   0.556
   15CHTO    C9 6291   7.556   4.493   0.606
   15CHTO   H22 6292   7.529   4.598   0.588
   15CHTO    N2 6293   7.669   4.467   0.514
   15CHTO   H10 6294   7.638   4.483   0.411
   15CHTO   H11 6295   7.752   4.532   0.538
   15CHTO    C7 6296   7.587   4.474   0.760
   15CHTO   H20 6297   7.636   4.569   0.789
   15CHTO    O4 6298   7.470   4.453   0.841
   15CHTO   C14 6299   7.341   4.501   0.800
   15CHTO   H27 6300   7.339   4.610   0.822
   15CHTO   C18 6301   7.238   4.435   0.895
   15CHTO   O13 6302   7.239   4.292   0.886
   15CHTO    H7 6303   7.319   4.259   0.921
   15CHTO    O2 6304   7.689   4.350   0.787
   15CHTO    C1 6305   7.752   4.353   0.916
   15CHTO   H14 6306   7.696   4.419   0.985
   15CHTO    C2 6307   7.902   4.404   0.908
   15CHTO   H15 6308   7.950   4.345   0.828
   15CHTO    O6 6309   7.900   4.543   0.871
   15CHTO    H1 6310   7.987   4.573   0.856
   15CHTO    C3 6311   7.979   4.380   1.047
   15CHTO   H16 6312   7.936   4.448   1.122
   15CHTO    N1 6313   8.125   4.412   1.037
   15CHTO    H8 6314   8.152   4.489   1.108
   15CHTO    H9 6315   8.186   4.324   1.052
   15CHTO    C4 6316   7.952   4.235   1.101
   15CHTO   H17 6317   8.003   4.163   1.036
   15CHTO    O1 6318   7.811   4.207   1.105
   15CHTO    C5 6319   7.746   4.210   0.977
   15CHTO   H18 6320   7.796   4.141   0.909
   15CHTO   C16 6321   7.599   4.164   0.997
   15CHTO   O11 6322   7.593   4.029   1.045
   15CHTO    H5 6323   7.621   3.969   0.978
   15CHTO    O3 6324   7.997   4.220   1.237
   15CHTO    C6 6325   8.027   4.083   1.280
   15CHTO   H19 6326   7.986   4.007   1.212
   15CHTO    C8 6327   8.182   4.063   1.286
   15CHTO   H21 6328   8.225   4.146   1.342
   15CHTO    O7 6329   8.231   4.066   1.151
   15CHTO    H2 6330   8.223   4.152   1.115
   15CHTO   C12 6331   8.219   3.928   1.359
   15CHTO   H25 6332   8.184   3.845   1.293
   15CHTO    N3 6333   8.368   3.912   1.374
   15CHTO   H12 6334   8.391   3.817   1.420
   15CHTO   H13 6335   8.408   3.994   1.433
   15CHTO   C15 6336   8.142   3.919   1.496
   15CHTO   H28 6337   8.175   3.996   1.565
   15CHTO   O10 6338   8.152   3.782   1.564
   15CHTO    H4 6339   8.241   3.763   1.585
   15CHTO    O5 6340   8.000   3.931   1.472
   15CHTO   C10 6341   7.961   4.058   1.419
   15CHTO   H23 6342   7.990   4.136   1.490
   15CHTO   C17 6343   7.807   4.056   1.411
   15CHTO   O12 6344   7.753   4.188   1.395
   15CHTO    H6 6345   7.660   4.183   1.392
   16CHTO  H203 6346   6.420   4.621   0.110
   16CHTO   O82 6347   6.434   4.534   0.077
   16CHTO  C123 6348   6.412   4.437   0.181
   16CHTO  H227 6349   6.308   4.447   0.217
   16CHTO   O77 6350   6.429   4.311   0.110
   16CHTO  C118 6351   6.414   4.193   0.191
   16CHTO  H222 6352   6.316   4.195   0.242
   16CHTO  C125 6353   6.417   4.070   0.094
   16CHTO   O84 6354   6.307   4.072   0.003
   16CHTO  H205 6355   6.315   4.001   2.800
   16CHTO  C114 6356   6.527   4.191   0.295
   16CHTO  H218 6357   6.623   4.197   0.242
   16CHTO  C116 6358   6.517   4.317   0.385
   16CHTO  H220 6359   6.423   4.311   0.445
   16CHTO   O79 6360   6.625   4.316   0.480
   16CHTO  H201 6361   6.616   4.385   0.542
   16CHTO  C120 6362   6.517   4.450   0.298
   16CHTO  H224 6363   6.619   4.460   0.255
   16CHTO   N21 6364   6.493   4.572   0.380
   16CHTO  H211 6365   6.586   4.611   0.417
   16CHTO  H212 6366   6.425   4.550   0.461
   16CHTO   O75 6367   6.516   4.067   0.369
   16CHTO  C112 6368   6.643   3.962   0.339
   16CHTO  H216 6369   6.723   4.016   0.285
   16CHTO   O73 6370   6.591   3.853   0.261
   16CHTO  C113 6371   6.695   3.773   0.205
   16CHTO  H217 6372   6.762   3.838   0.145
   16CHTO  C124 6373   6.633   3.671   0.108
   16CHTO   O83 6374   6.572   3.733   2.852
   16CHTO  H204 6375   6.639   3.771   2.797
   16CHTO  C109 6376   6.776   3.702   0.317
   16CHTO  H213 6377   6.710   3.626   0.361
   16CHTO  C110 6378   6.822   3.804   0.427
   16CHTO  H214 6379   6.905   3.862   0.387
   16CHTO   O78 6380   6.873   3.728   0.538
   16CHTO  H200 6381   6.908   3.786   0.603
   16CHTO  C111 6382   6.706   3.899   0.469
   16CHTO  H215 6383   6.629   3.841   0.521
   16CHTO   N19 6384   6.749   4.006   0.564
   16CHTO  H207 6385   6.665   4.068   0.590
   16CHTO  H208 6386   6.790   3.961   0.653
   16CHTO   O74 6387   6.893   3.636   0.258
   16CHTO  C115 6388   6.915   3.489   0.304
   16CHTO  H219 6389   6.881   3.473   0.407
   16CHTO   O76 6390   6.830   3.387   0.218
   16CHTO  C122 6391   6.887   3.366   0.088
   16CHTO  H226 6392   6.892   3.463   0.038
   16CHTO  C126 6393   6.790   3.279   0.001
   16CHTO   O85 6394   6.662   3.339   2.841
   16CHTO  H206 6395   6.670   3.416   2.788
   16CHTO  C121 6396   7.031   3.300   0.096
   16CHTO  H225 6397   7.022   3.191   0.072
   16CHTO   O81 6398   7.115   3.360   2.856
   16CHTO  H202 6399   7.196   3.312   2.848
   16CHTO  C119 6400   7.093   3.314   0.239
   16CHTO  H223 6401   7.036   3.246   0.302
   16CHTO  C117 6402   7.071   3.459   0.296
   16CHTO  H221 6403   7.113   3.539   0.234
   16CHTO   N20 6404   7.137   3.475   0.430
   16CHTO  H209 6405   7.066   3.506   0.506
   16CHTO  H210 6406   7.218   3.547   0.424
   16CHTO   O80 6407   7.240   3.249   0.248
   16CHTO  C103 6408   7.255   3.093   0.238
   16CHTO  H190 6409   7.157   3.046   0.227
   16CHTO  C101 6410   7.349   3.038   0.125
   16CHTO  H188 6411   7.446   3.087   0.132
   16CHTO   O68 6412   7.287   3.072   2.844
   16CHTO  H168 6413   7.282   3.165   2.833
   16CHTO   C99 6414   7.372   2.879   0.140
   16CHTO  H186 6415   7.276   2.828   0.116
   16CHTO   N17 6416   7.474   2.823   0.046
   16CHTO  H174 6417   7.450   2.852   2.802
   16CHTO  H175 6418   7.479   2.716   0.055
   16CHTO   C97 6419   7.404   2.839   0.288
   16CHTO  H184 6420   7.508   2.867   0.311
   16CHTO   O64 6421   7.311   2.902   0.378
   16CHTO  C104 6422   7.314   3.046   0.376
   16CHTO  H191 6423   7.415   3.085   0.387
   16CHTO  C108 6424   7.234   3.098   0.496
   16CHTO   O71 6425   7.294   3.057   0.619
   16CHTO  H171 6426   7.244   3.089   0.691
   16CHTO   O62 6427   7.386   2.697   0.308
   16CHTO   C91 6428   7.399   2.644   0.442
   16CHTO  H178 6429   7.412   2.727   0.512
   16CHTO   C92 6430   7.529   2.558   0.453
   16CHTO  H179 6431   7.527   2.482   0.373
   16CHTO   O66 6432   7.642   2.642   0.426
   16CHTO  H166 6433   7.650   2.709   0.491
   16CHTO   C93 6434   7.543   2.487   0.595
   16CHTO  H180 6435   7.567   2.566   0.668
   16CHTO   N16 6436   7.657   2.391   0.602
   16CHTO  H172 6437   7.711   2.387   0.509
   16CHTO  H173 6438   7.623   2.292   0.630
   16CHTO   C94 6439   7.407   2.419   0.637
   16CHTO  H181 6440   7.383   2.334   0.573
   16CHTO   O61 6441   7.300   2.514   0.624
   16CHTO   C95 6442   7.277   2.558   0.490
   16CHTO  H182 6443   7.265   2.471   0.425
   16CHTO  C106 6444   7.142   2.638   0.485
   16CHTO   O69 6445   7.031   2.553   0.518
   16CHTO  H169 6446   6.952   2.603   0.515
   16CHTO   O63 6447   7.412   2.371   0.795
   16CHTO   C96 6448   7.268   2.332   0.858
   16CHTO  H183 6449   7.288   2.264   0.941
   16CHTO   C98 6450   7.168   2.259   0.761
   16CHTO  H185 6451   7.169   2.308   0.663
   16CHTO   O67 6452   7.220   2.127   0.737
   16CHTO  H167 6453   7.221   2.076   0.816
   16CHTO  C102 6454   7.018   2.254   0.817
   16CHTO  H189 6455   7.022   2.194   0.909
   16CHTO   N18 6456   6.919   2.187   0.729
   16CHTO  H176 6457   6.822   2.188   0.775
   16CHTO  H177 6458   6.914   2.238   0.633
   16CHTO  C105 6459   6.984   2.401   0.852
   16CHTO  H192 6460   7.006   2.464   0.765
   16CHTO   O65 6461   7.067   2.445   0.961
   16CHTO  C100 6462   7.204   2.462   0.923
   16CHTO  H187 6463   7.209   2.544   0.850
   16CHTO  C107 6464   7.286   2.506   1.047
   16CHTO   O70 6465   7.244   2.633   1.097
   16CHTO  H170 6466   7.267   2.701   1.036
   16CHTO   O57 6467   6.825   2.419   0.890
   16CHTO   C85 6468   6.755   2.518   0.812
   16CHTO  H157 6469   6.784   2.499   0.706
   16CHTO   C83 6470   6.811   2.660   0.847
   16CHTO  H155 6471   6.918   2.661   0.825
   16CHTO   O56 6472   6.800   2.683   0.988
   16CHTO  H135 6473   6.710   2.687   1.014
   16CHTO   C81 6474   6.741   2.765   0.757
   16CHTO  H153 6475   6.757   2.737   0.653
   16CHTO   N14 6476   6.801   2.900   0.770
   16CHTO  H141 6477   6.788   2.937   0.869
   16CHTO  H142 6478   6.906   2.896   0.748
   16CHTO   C79 6479   6.586   2.764   0.784
   16CHTO  H151 6480   6.540   2.830   0.711
   16CHTO   O52 6481   6.531   2.630   0.760
   16CHTO   C86 6482   6.599   2.520   0.831
   16CHTO  H158 6483   6.571   2.534   0.938
   16CHTO   C90 6484   6.538   2.385   0.787
   16CHTO   O60 6485   6.399   2.378   0.820
   16CHTO  H138 6486   6.365   2.295   0.794
   16CHTO   O50 6487   6.550   2.810   0.916
   16CHTO   C73 6488   6.432   2.800   0.996
   16CHTO  H145 6489   6.415   2.696   1.025
   16CHTO   C74 6490   6.307   2.849   0.916
   16CHTO  H146 6491   6.299   2.786   0.825
   16CHTO   O54 6492   6.189   2.819   0.994
   16CHTO  H133 6493   6.189   2.869   1.073
   16CHTO   C75 6494   6.324   3.001   0.881
   16CHTO  H147 6495   6.415   3.013   0.820
   16CHTO   N13 6496   6.214   3.058   0.799
   16CHTO  H139 6497   6.207   3.005   0.705
   16CHTO  H140 6498   6.120   3.047   0.852
   16CHTO   C76 6499   6.347   3.083   1.016
   16CHTO  H148 6500   6.255   3.078   1.075
   16CHTO   O49 6501   6.458   3.027   1.093
   16CHTO   C77 6502   6.447   2.887   1.125
   16CHTO  H149 6503   6.361   2.870   1.189
   16CHTO   C88 6504   6.570   2.849   1.207
   16CHTO   O58 6505   6.562   2.711   1.253
   16CHTO  H136 6506   6.638   2.691   1.304
   16CHTO   O51 6507   6.392   3.233   0.985
   16CHTO   C78 6508   6.348   3.333   1.098
   16CHTO  H150 6509   6.310   3.279   1.188
   16CHTO   C80 6510   6.237   3.426   1.044
   16CHTO  H152 6511   6.272   3.471   0.948
   16CHTO   O55 6512   6.123   3.342   1.015
   16CHTO  H134 6513   6.056   3.393   0.973
   16CHTO   C84 6514   6.200   3.541   1.146
   16CHTO  H156 6515   6.155   3.494   1.234
   16CHTO   N15 6516   6.099   3.638   1.092
   16CHTO  H143 6517   6.011   3.639   1.153
   16CHTO  H144 6518   6.071   3.613   0.991
   16CHTO   C87 6519   6.329   3.614   1.192
   16CHTO  H159 6520   6.372   3.670   1.108
   16CHTO   O53 6521   6.429   3.508   1.245
   16CHTO   C82 6522   6.471   3.415   1.143
   16CHTO  H154 6523   6.517   3.468   1.060
   16CHTO   C89 6524   6.580   3.325   1.206
   16CHTO   O59 6525   6.653   3.251   1.107
   16CHTO  H137 6526   6.597   3.187   1.068
   16CHTO   O45 6527   6.297   3.720   1.315
   16CHTO   C67 6528   6.413   3.780   1.375
   16CHTO  H124 6529   6.503   3.731   1.338
   16CHTO   C65 6530   6.422   3.933   1.340
   16CHTO  H122 6531   6.319   3.968   1.326
   16CHTO   O44 6532   6.489   3.941   1.213
   16CHTO  H102 6533   6.581   3.924   1.223
   16CHTO   C63 6534   6.478   4.021   1.459
   16CHTO  H120 6535   6.398   4.036   1.531
   16CHTO   N11 6536   6.515   4.162   1.425
   16CHTO  H108 6537   6.600   4.163   1.360
   16CHTO  H109 6538   6.537   4.217   1.514
   16CHTO   C61 6539   6.590   3.940   1.534
   16CHTO  H118 6540   6.622   4.001   1.620
   16CHTO   O40 6541   6.539   3.814   1.589
   16CHTO   C68 6542   6.416   3.759   1.532
   16CHTO  H125 6543   6.329   3.810   1.580
   16CHTO   C72 6544   6.409   3.610   1.574
   16CHTO   O48 6545   6.283   3.549   1.545
   16CHTO  H105 6546   6.284   3.460   1.572
   16CHTO   O38 6547   6.703   3.914   1.448
   16CHTO   C55 6548   6.819   3.852   1.506
   16CHTO  H112 6549   6.791   3.795   1.596
   16CHTO   C56 6550   6.929   3.961   1.538
   16CHTO  H113 6551   6.937   4.026   1.449
   16CHTO   O42 6552   6.881   4.046   1.644
   16CHTO  H100 6553   6.941   4.117   1.658
   16CHTO   C57 6554   7.069   3.897   1.574
   16CHTO  H114 6555   7.059   3.852   1.672
   16CHTO   N10 6556   7.180   3.996   1.584
   16CHTO  H106 6557   7.226   4.012   1.488
   16CHTO  H107 6558   7.143   4.090   1.622
   16CHTO   C58 6559   7.104   3.784   1.472
   16CHTO  H115 6560   7.127   3.830   1.373
   16CHTO   O37 6561   6.996   3.691   1.460
   16CHTO   C59 6562   6.876   3.748   1.406
   16CHTO  H116 6563   6.897   3.794   1.309
   16CHTO   C70 6564   6.776   3.633   1.384
   16CHTO   O46 6565   6.824   3.538   1.288
   16CHTO  H103 6566   6.760   3.470   1.278
   16CHTO   O39 6567   7.228   3.695   1.524
   16CHTO   C60 6568   7.301   3.630   1.418
   16CHTO  H117 6569   7.249   3.643   1.323
   16CHTO   C62 6570   7.443   3.693   1.403
   16CHTO  H119 6571   7.426   3.800   1.379
   16CHTO   O43 6572   7.514   3.685   1.528
   16CHTO  H101 6573   7.528   3.596   1.553
   16CHTO   C66 6574   7.520   3.623   1.281
   16CHTO  H123 6575   7.457   3.630   1.192
   16CHTO   N12 6576   7.647   3.692   1.248
   16CHTO  H110 6577   7.714   3.689   1.332
   16CHTO  H111 6578   7.692   3.646   1.161
   16CHTO   C69 6579   7.539   3.472   1.312
   16CHTO  H126 6580   7.603   3.459   1.402
   16CHTO   O41 6581   7.398   3.405   1.339
   16CHTO   C64 6582   7.310   3.477   1.444
   16CHTO  H121 6583   7.352   3.462   1.545
   16CHTO   C71 6584   7.170   3.410   1.443
   16CHTO   O47 6585   7.109   3.416   1.314
   16CHTO  H104 6586   7.025   3.374   1.317
   16CHTO   O34 6587   7.608   3.395   1.190
   16CHTO   C49 6588   7.591   3.391   1.035
   16CHTO   H91 6589   7.598   3.495   1.001
   16CHTO   C47 6590   7.452   3.334   1.000
   16CHTO   H89 6591   7.447   3.340   0.888
   16CHTO   O33 6592   7.347   3.417   1.053
   16CHTO   H70 6593   7.264   3.388   1.022
   16CHTO   C45 6594   7.439   3.181   1.050
   16CHTO   H87 6595   7.405   3.182   1.155
   16CHTO    N8 6596   7.335   3.113   0.969
   16CHTO   H75 6597   7.317   3.014   1.008
   16CHTO   H76 6598   7.368   3.105   0.866
   16CHTO   C43 6599   7.585   3.110   1.055
   16CHTO   H85 6600   7.625   3.134   1.154
   16CHTO   O29 6601   7.668   3.163   0.950
   16CHTO   C50 6602   7.699   3.303   0.964
   16CHTO   H92 6603   7.793   3.312   1.020
   16CHTO   C54 6604   7.735   3.356   0.823
   16CHTO   O36 6605   7.785   3.490   0.827
   16CHTO   H72 6606   7.806   3.518   0.740
   16CHTO   O27 6607   7.580   2.967   1.050
   16CHTO   C37 6608   7.648   2.863   1.122
   16CHTO   H79 6609   7.750   2.896   1.149
   16CHTO   C38 6610   7.574   2.830   1.255
   16CHTO   H80 6611   7.468   2.814   1.232
   16CHTO   O31 6612   7.586   2.946   1.339
   16CHTO   H68 6613   7.535   2.934   1.417
   16CHTO   C39 6614   7.633   2.702   1.325
   16CHTO   H81 6615   7.734   2.727   1.359
   16CHTO    N7 6616   7.555   2.659   1.447
   16CHTO   H73 6617   7.619   2.660   1.534
   16CHTO   H74 6618   7.469   2.723   1.463
   16CHTO   C40 6619   7.647   2.583   1.222
   16CHTO   H82 6620   7.548   2.546   1.194
   16CHTO   O26 6621   7.722   2.628   1.108
   16CHTO   C41 6622   7.660   2.736   1.033
   16CHTO   H83 6623   7.560   2.706   0.999
   16CHTO   C52 6624   7.746   2.766   0.908
   16CHTO   O35 6625   7.761   2.649   0.820
   16CHTO   H71 6626   7.814   2.584   0.863
   16CHTO   O28 6627   7.725   2.474   1.273
   16CHTO   C42 6628   7.702   2.335   1.233
   16CHTO   H84 6629   7.792   2.284   1.266
   16CHTO   C44 6630   7.689   2.306   1.080
   16CHTO   H86 6631   7.603   2.362   1.041
   16CHTO   O32 6632   7.809   2.357   1.018
   16CHTO   H69 6633   7.810   2.451   1.021
   16CHTO   C48 6634   7.667   2.153   1.049
   16CHTO   H90 6635   7.757   2.099   1.081
   16CHTO    N9 6636   7.652   2.125   0.902
   16CHTO   H77 6637   7.742   2.154   0.850
   16CHTO   H78 6638   7.566   2.178   0.863
   16CHTO   C51 6639   7.545   2.099   1.133
   16CHTO   H93 6640   7.456   2.152   1.100
   16CHTO   O30 6641   7.571   2.120   1.273
   16CHTO   C46 6642   7.583   2.269   1.310
   16CHTO   H88 6643   7.490   2.320   1.284
   16CHTO   C53 6644   7.607   2.278   1.463
   16CHTO   O72 6645   7.494   2.229   1.537
   16CHTO  H199 6646   7.486   2.137   1.526
   16CHTO   O22 6647   7.530   1.956   1.119
   16CHTO   C31 6648   7.402   1.888   1.147
   16CHTO   H59 6649   7.355   1.944   1.231
   16CHTO   C29 6650   7.301   1.891   1.030
   16CHTO   H57 6651   7.352   1.849   0.942
   16CHTO   O21 6652   7.269   2.027   1.000
   16CHTO   H37 6653   7.346   2.073   0.970
   16CHTO   C27 6654   7.169   1.808   1.058
   16CHTO   H55 6655   7.111   1.861   1.135
   16CHTO    N5 6656   7.084   1.792   0.937
   16CHTO   H43 6657   7.132   1.834   0.850
   16CHTO   H44 6658   6.988   1.839   0.952
   16CHTO   C25 6659   7.205   1.668   1.120
   16CHTO   H53 6660   7.255   1.606   1.043
   16CHTO   O17 6661   7.296   1.683   1.233
   16CHTO   C32 6662   7.422   1.743   1.198
   16CHTO   H60 6663   7.469   1.684   1.118
   16CHTO   C36 6664   7.517   1.737   1.321
   16CHTO   O25 6665   7.466   1.810   1.433
   16CHTO   H40 6666   7.468   1.902   1.414
   16CHTO   O15 6667   7.075   1.592   1.171
   16CHTO   C19 6668   6.961   1.609   1.260
   16CHTO   H47 6669   6.942   1.507   1.297
   16CHTO   C20 6670   6.989   1.701   1.383
   16CHTO   H48 6671   7.020   1.802   1.352
   16CHTO   O19 6672   7.098   1.642   1.456
   16CHTO   H35 6673   7.178   1.649   1.407
   16CHTO   C21 6674   6.861   1.715   1.475
   16CHTO   H49 6675   6.840   1.618   1.520
   16CHTO    N4 6676   6.880   1.810   1.588
   16CHTO   H41 6677   6.960   1.776   1.652
   16CHTO   H42 6678   6.905   1.908   1.550
   16CHTO   C22 6679   6.737   1.751   1.389
   16CHTO   H50 6680   6.749   1.853   1.350
   16CHTO   O14 6681   6.721   1.659   1.280
   16CHTO   C23 6682   6.831   1.654   1.187
   16CHTO   H51 6683   6.841   1.754   1.142
   16CHTO   C34 6684   6.794   1.555   1.076
   16CHTO   O23 6685   6.675   1.595   1.005
   16CHTO   H38 6686   6.601   1.587   1.062
   16CHTO   O16 6687   6.615   1.738   1.464
   16CHTO   C24 6688   6.499   1.839   1.424
   16CHTO   H52 6689   6.515   1.881   1.325
   16CHTO   C26 6690   6.496   1.952   1.529
   16CHTO   H54 6691   6.497   1.906   1.630
   16CHTO   O20 6692   6.615   2.030   1.512
   16CHTO   H36 6693   6.690   1.981   1.540
   16CHTO   C30 6694   6.367   2.040   1.517
   16CHTO   H58 6695   6.370   2.097   1.423
   16CHTO    N6 6696   6.360   2.140   1.627
   16CHTO   H45 6697   6.355   2.240   1.586
   16CHTO   H46 6698   6.273   2.124   1.689
   16CHTO   C33 6699   6.241   1.949   1.507
   16CHTO   H61 6700   6.229   1.893   1.601
   16CHTO   O18 6701   6.259   1.856   1.399
   16CHTO   C28 6702   6.365   1.761   1.419
   16CHTO   H56 6703   6.351   1.708   1.513
   16CHTO   C35 6704   6.360   1.662   1.301
   16CHTO   O24 6705   6.445   1.549   1.320
   16CHTO   H39 6706   6.413   1.496   1.390
   16CHTO    O9 6707   6.120   2.026   1.490
   16CHTO   C13 6708   6.004   1.995   1.598
   16CHTO   H26 6709   6.045   2.014   1.700
   16CHTO   C11 6710   5.955   1.844   1.583
   16CHTO   H24 6711   6.029   1.779   1.632
   16CHTO    O8 6712   5.947   1.806   1.444
   16CHTO    H3 6713   6.032   1.808   1.405
   16CHTO    C9 6714   5.819   1.830   1.656
   16CHTO   H22 6715   5.834   1.872   1.757
   16CHTO    N2 6716   5.779   1.689   1.681
   16CHTO   H10 6717   5.761   1.639   1.587
   16CHTO   H11 6718   5.856   1.638   1.737
   16CHTO    C7 6719   5.711   1.919   1.581
   16CHTO   H20 6720   5.641   1.950   1.661
   16CHTO    O4 6721   5.768   2.036   1.518
   16CHTO   C14 6722   5.881   2.096   1.583
   16CHTO   H27 6723   5.849   2.129   1.684
   16CHTO   C18 6724   5.917   2.225   1.504
   16CHTO   O13 6725   6.027   2.295   1.562
   16CHTO    H7 6726   6.046   2.372   1.511
   16CHTO    O2 6727   5.629   1.833   1.464
   16CHTO    C1 6728   5.496   1.871   1.427
   16CHTO   H14 6729   5.459   1.796   1.354
   16CHTO    C2 6730   5.482   2.015   1.361
   16CHTO   H15 6731   5.515   2.088   1.436
   16CHTO    O6 6732   5.568   2.021   1.246
   16CHTO    H1 6733   5.540   1.959   1.181
   16CHTO    C3 6734   5.328   2.041   1.323
   16CHTO   H16 6735   5.299   1.969   1.244
   16CHTO    N1 6736   5.305   2.178   1.266
   16CHTO    H8 6737   5.201   2.192   1.241
   16CHTO    H9 6738   5.365   2.191   1.177
   16CHTO    C4 6739   5.234   2.011   1.446
   16CHTO   H17 6740   5.247   2.089   1.521
   16CHTO    O1 6741   5.263   1.882   1.503
   16CHTO    C5 6742   5.398   1.863   1.548
   16CHTO   H18 6743   5.423   1.942   1.619
   16CHTO   C16 6744   5.404   1.727   1.622
   16CHTO   O11 6745   5.382   1.616   1.533
   16CHTO    H5 6746   5.455   1.607   1.475
   16CHTO    O3 6747   5.095   2.000   1.406
   16CHTO    C6 6748   4.996   2.052   1.502
   16CHTO   H19 6749   5.041   2.089   1.594
   16CHTO    C8 6750   4.917   2.169   1.436
   16CHTO   H21 6751   4.878   2.135   1.339
   16CHTO    O7 6752   5.010   2.277   1.414
   16CHTO    H2 6753   5.071   2.255   1.346
   16CHTO   C12 6754   4.796   2.215   1.526
   16CHTO   H25 6755   4.841   2.262   1.616
   16CHTO    N3 6756   4.713   2.321   1.458
   16CHTO   H12 6757   4.709   2.410   1.519
   16CHTO   H13 6758   4.614   2.285   1.436
   16CHTO   C15 6759   4.712   2.090   1.572
   16CHTO   H28 6760   4.655   2.047   1.490
   16CHTO   O10 6761   4.614   2.124   1.689
   16CHTO    H4 6762   4.660   2.165   1.759
   16CHTO    O5 6763   4.797   1.991   1.632
   16CHTO   C10 6764   4.896   1.939   1.542
   16CHTO   H23 6765   4.847   1.899   1.453
   16CHTO   C17 6766   4.966   1.821   1.613
   16CHTO   O12 6767   4.875   1.714   1.639
   16CHTO    H6 6768   4.919   1.646   1.686
   17CHTO  H203 6769   5.699   4.078   0.174
   17CHTO   O82 6770   5.755   4.153   0.184
   17CHTO  C123 6771   5.677   4.270   0.214
   17CHTO  H227 6772   5.621   4.252   0.307
   17CHTO   O77 6773   5.778   4.373   0.235
   17CHTO  C118 6774   5.724   4.500   0.275
   17CHTO  H222 6775   5.663   4.485   0.365
   17CHTO  C125 6776   5.844   4.595   0.311
   17CHTO   O84 6777   5.931   4.616   0.199
   17CHTO  H205 6778   6.003   4.670   0.226
   17CHTO  C114 6779   5.636   4.557   0.162
   17CHTO  H218 6780   5.698   4.573   0.074
   17CHTO  C116 6781   5.522   4.457   0.124
   17CHTO  H220 6782   5.448   4.452   0.207
   17CHTO   O79 6783   5.450   4.509   0.010
   17CHTO  H201 6784   5.507   4.515   2.794
   17CHTO  C120 6785   5.581   4.312   0.096
   17CHTO  H224 6786   5.639   4.320   0.001
   17CHTO   N21 6787   5.473   4.212   0.072
   17CHTO  H211 6788   5.509   4.134   0.007
   17CHTO  H212 6789   5.439   4.171   0.166
   17CHTO   O75 6790   5.587   4.683   0.212
   17CHTO  C112 6791   5.572   4.802   0.097
   17CHTO  H216 6792   5.528   4.758   0.006
   17CHTO   O73 6793   5.704   4.854   0.073
   17CHTO  C113 6794   5.709   4.965   2.840
   17CHTO  H217 6795   5.660   4.935   2.744
   17CHTO  C124 6796   5.855   4.997   2.807
   17CHTO   O83 6797   5.933   5.033   0.063
   17CHTO  H204 6798   5.943   4.958   0.119
   17CHTO  C109 6799   5.632   5.086   0.042
   17CHTO  H213 6800   5.681   5.109   0.138
   17CHTO  C110 6801   5.484   5.043   0.065
   17CHTO  H214 6802   5.438   5.025   2.826
   17CHTO   O78 6803   5.413   5.153   0.125
   17CHTO  H200 6804   5.448   5.173   0.210
   17CHTO  C111 6805   5.477   4.915   0.153
   17CHTO  H215 6806   5.513   4.940   0.254
   17CHTO   N19 6807   5.339   4.862   0.170
   17CHTO  H207 6808   5.298   4.833   0.074
   17CHTO  H208 6809   5.339   4.777   0.236
   17CHTO   O74 6810   5.642   5.203   2.812
   17CHTO  C115 6811   5.658   5.344   0.036
   17CHTO  H219 6812   5.582   5.354   0.114
   17CHTO   O76 6813   5.798   5.352   0.115
   17CHTO  C122 6814   5.904   5.409   0.038
   17CHTO  H226 6815   5.920   5.346   2.808
   17CHTO  C126 6816   6.039   5.405   0.119
   17CHTO   O85 6817   6.086   5.271   0.142
   17CHTO  H206 6818   6.164   5.274   0.193
   17CHTO  C121 6819   5.873   5.558   2.852
   17CHTO  H225 6820   5.917   5.624   0.071
   17CHTO   O81 6821   5.937   5.581   2.726
   17CHTO  H202 6822   5.936   5.673   2.706
   17CHTO  C119 6823   5.720   5.589   2.843
   17CHTO  H223 6824   5.688   5.607   0.087
   17CHTO  C117 6825   5.641   5.463   2.791
   17CHTO  H221 6826   5.673   5.423   2.695
   17CHTO   N20 6827   5.495   5.494   2.772
   17CHTO  H209 6828   5.450   5.522   0.009
   17CHTO  H210 6829   5.444   5.409   2.731
   17CHTO   O80 6830   5.689   5.737   2.771
   17CHTO  C103 6831   5.722   5.877   2.851
   17CHTO  H190 6832   5.705   5.865   0.100
   17CHTO  C101 6833   5.865   5.940   2.828
   17CHTO  H188 6834   5.887   5.939   2.721
   17CHTO   O68 6835   5.971   5.853   0.040
   17CHTO  H168 6836   5.957   5.854   0.133
   17CHTO   C99 6837   5.874   6.092   0.023
   17CHTO  H186 6838   5.867   6.092   0.134
   17CHTO   N17 6839   6.005   6.159   2.847
   17CHTO  H174 6840   5.989   6.252   2.794
   17CHTO  H175 6841   6.069   6.093   2.790
   17CHTO   C97 6842   5.752   6.174   2.830
   17CHTO  H184 6843   5.763   6.188   2.721
   17CHTO   O64 6844   5.629   6.106   0.006
   17CHTO  C104 6845   5.614   5.979   2.798
   17CHTO  H191 6846   5.625   5.989   2.690
   17CHTO  C108 6847   5.472   5.927   2.822
   17CHTO   O71 6848   5.373   6.014   2.766
   17CHTO  H171 6849   5.370   6.094   2.815
   17CHTO   O62 6850   5.742   6.302   0.039
   17CHTO   C91 6851   5.678   6.408   2.822
   17CHTO  H178 6852   5.615   6.361   2.746
   17CHTO   C92 6853   5.786   6.491   2.744
   17CHTO  H179 6854   5.855   6.423   2.691
   17CHTO   O66 6855   5.719   6.566   2.641
   17CHTO  H166 6856   5.683   6.508   2.577
   17CHTO   C93 6857   5.863   6.595   2.835
   17CHTO  H180 6858   5.902   6.673   2.768
   17CHTO   N16 6859   5.984   6.537   0.042
   17CHTO  H172 6860   6.072   6.594   0.016
   17CHTO  H173 6861   5.972   6.532   0.149
   17CHTO   C94 6862   5.766   6.663   0.082
   17CHTO  H181 6863   5.779   6.621   0.183
   17CHTO   O61 6864   5.628   6.642   0.048
   17CHTO   C95 6865   5.587   6.504   0.053
   17CHTO  H182 6866   5.589   6.470   0.156
   17CHTO  C106 6867   5.436   6.500   0.007
   17CHTO   O69 6868   5.382   6.367   0.017
   17CHTO  H169 6869   5.423   6.312   2.811
   17CHTO   O63 6870   5.796   6.817   0.084
   17CHTO   C96 6871   5.761   6.889   0.221
   17CHTO  H183 6872   5.757   6.814   0.300
   17CHTO   C98 6873   5.625   6.965   0.219
   17CHTO  H185 6874   5.618   7.026   0.127
   17CHTO   O67 6875   5.520   6.867   0.208
   17CHTO  H167 6876   5.518   6.812   0.285
   17CHTO  C102 6877   5.604   7.059   0.349
   17CHTO  H189 6878   5.596   6.990   0.434
   17CHTO   N18 6879   5.479   7.139   0.349
   17CHTO  H176 6880   5.478   7.206   0.264
   17CHTO  H177 6881   5.471   7.195   0.441
   17CHTO  C105 6882   5.732   7.145   0.368
   17CHTO  H192 6883   5.742   7.214   0.283
   17CHTO   O65 6884   5.850   7.063   0.375
   17CHTO  C100 6885   5.878   6.988   0.256
   17CHTO  H187 6886   5.892   7.059   0.173
   17CHTO  C107 6887   6.012   6.912   0.276
   17CHTO   O70 6888   6.121   7.003   0.294
   17CHTO  H170 6889   6.200   6.955   0.307
   17CHTO   O57 6890   5.715   7.230   0.506
   17CHTO   C85 6891   5.812   7.329   0.545
   17CHTO  H157 6892   5.856   7.369   0.451
   17CHTO   C83 6893   5.930   7.259   0.621
   17CHTO  H155 6894   5.985   7.198   0.549
   17CHTO   O56 6895   5.876   7.167   0.719
   17CHTO  H135 6896   5.829   7.099   0.676
   17CHTO   C81 6897   6.026   7.365   0.680
   17CHTO  H153 6898   6.061   7.428   0.599
   17CHTO   N14 6899   6.149   7.305   0.738
   17CHTO  H141 6900   6.163   7.336   0.840
   17CHTO  H142 6901   6.235   7.334   0.682
   17CHTO   C79 6902   5.946   7.457   0.781
   17CHTO  H151 6903   6.016   7.531   0.819
   17CHTO   O52 6904   5.843   7.530   0.707
   17CHTO   C86 6905   5.749   7.444   0.634
   17CHTO  H158 6906   5.686   7.401   0.714
   17CHTO   C90 6907   5.654   7.532   0.549
   17CHTO   O60 6908   5.727   7.612   0.456
   17CHTO  H138 6909   5.667   7.665   0.407
   17CHTO   O50 6910   5.888   7.386   0.892
   17CHTO   C73 6911   5.836   7.380   1.025
   17CHTO  H145 6912   5.778   7.471   1.047
   17CHTO   C74 6913   5.952   7.369   1.129
   17CHTO  H146 6914   6.018   7.456   1.113
   17CHTO   O54 6915   5.896   7.383   1.261
   17CHTO  H133 6916   5.863   7.470   1.274
   17CHTO   C75 6917   6.028   7.232   1.107
   17CHTO  H147 6918   6.073   7.233   1.007
   17CHTO   N13 6919   6.142   7.211   1.200
   17CHTO  H139 6920   6.107   7.208   1.302
   17CHTO  H140 6921   6.191   7.117   1.177
   17CHTO   C76 6922   5.924   7.110   1.110
   17CHTO  H148 6923   5.885   7.102   1.211
   17CHTO   O49 6924   5.814   7.135   1.016
   17CHTO   C77 6925   5.742   7.256   1.040
   17CHTO  H149 6926   5.700   7.255   1.140
   17CHTO   C88 6927   5.622   7.258   0.944
   17CHTO   O58 6928   5.538   7.380   0.960
   17CHTO  H136 6929   5.587   7.456   0.934
   17CHTO   O51 6930   5.998   6.972   1.059
   17CHTO   C78 6931   5.897   6.854   1.011
   17CHTO  H150 6932   5.813   6.895   0.950
   17CHTO   C80 6933   5.838   6.778   1.131
   17CHTO  H152 6934   5.923   6.744   1.196
   17CHTO   O55 6935   5.758   6.870   1.208
   17CHTO  H134 6936   5.813   6.935   1.248
   17CHTO   C84 6937   5.752   6.652   1.088
   17CHTO  H156 6938   5.659   6.689   1.045
   17CHTO   N15 6939   5.716   6.569   1.208
   17CHTO  H143 6940   5.657   6.484   1.178
   17CHTO  H144 6941   5.660   6.627   1.277
   17CHTO   C87 6942   5.825   6.567   0.979
   17CHTO  H159 6943   5.905   6.509   1.024
   17CHTO   O53 6944   5.883   6.658   0.870
   17CHTO   C82 6945   5.975   6.756   0.921
   17CHTO  H154 6946   6.053   6.707   0.978
   17CHTO   C89 6947   6.044   6.828   0.802
   17CHTO   O59 6948   5.950   6.884   0.709
   17CHTO  H137 6949   5.905   6.956   0.749
   17CHTO   O45 6950   5.728   6.458   0.890
   17CHTO   C67 6951   5.588   6.433   0.917
   17CHTO  H124 6952   5.563   6.462   1.018
   17CHTO   C65 6953   5.494   6.510   0.817
   17CHTO  H122 6954   5.560   6.572   0.754
   17CHTO   O44 6955   5.409   6.596   0.894
   17CHTO  H102 6956   5.360   6.653   0.837
   17CHTO   C63 6957   5.421   6.412   0.717
   17CHTO  H120 6958   5.496   6.358   0.660
   17CHTO   N11 6959   5.342   6.477   0.607
   17CHTO  H108 6960   5.403   6.547   0.555
   17CHTO  H109 6961   5.306   6.403   0.539
   17CHTO   C61 6962   5.342   6.304   0.801
   17CHTO  H118 6963   5.320   6.221   0.731
   17CHTO   O40 6964   5.421   6.247   0.910
   17CHTO   C68 6965   5.564   6.277   0.911
   17CHTO  H125 6966   5.609   6.234   0.819
   17CHTO   C72 6967   5.627   6.203   1.031
   17CHTO   O48 6968   5.770   6.210   1.033
   17CHTO  H105 6969   5.803   6.164   1.108
   17CHTO   O38 6970   5.218   6.355   0.856
   17CHTO   C55 6971   5.140   6.277   0.950
   17CHTO  H112 6972   5.206   6.245   1.032
   17CHTO   C56 6973   5.067   6.154   0.881
   17CHTO  H113 6974   5.017   6.193   0.792
   17CHTO   O42 6975   5.164   6.059   0.834
   17CHTO  H100 6976   5.122   5.990   0.785
   17CHTO   C57 6977   4.962   6.084   0.978
   17CHTO  H114 6978   5.019   6.032   1.055
   17CHTO   N10 6979   4.878   5.983   0.908
   17CHTO  H106 6980   4.861   6.011   0.805
   17CHTO  H107 6981   4.783   5.971   0.958
   17CHTO   C58 6982   4.874   6.192   1.046
   17CHTO  H115 6983   4.809   6.240   0.969
   17CHTO   O37 6984   4.956   6.293   1.108
   17CHTO   C59 6985   5.034   6.369   1.015
   17CHTO  H116 6986   4.969   6.413   0.939
   17CHTO   C70 6987   5.102   6.485   1.089
   17CHTO   O46 6988   5.009   6.576   1.148
   17CHTO  H103 6989   5.055   6.643   1.194
   17CHTO   O39 6990   4.781   6.129   1.165
   17CHTO   C60 6991   4.665   6.210   1.192
   17CHTO  H117 6992   4.683   6.312   1.159
   17CHTO   C62 6993   4.539   6.158   1.116
   17CHTO  H119 6994   4.566   6.159   1.008
   17CHTO   O43 6995   4.512   6.021   1.153
   17CHTO  H101 6996   4.490   6.015   1.244
   17CHTO   C66 6997   4.415   6.257   1.142
   17CHTO  H123 6998   4.444   6.358   1.112
   17CHTO   N12 6999   4.297   6.223   1.059
   17CHTO  H110 7000   4.262   6.123   1.082
   17CHTO  H111 7001   4.218   6.296   1.073
   17CHTO   C69 7002   4.381   6.261   1.294
   17CHTO  H126 7003   4.348   6.161   1.328
   17CHTO   O41 7004   4.512   6.305   1.374
   17CHTO   C64 7005   4.637   6.216   1.345
   17CHTO  H121 7006   4.619   6.113   1.383
   17CHTO   C71 7007   4.759   6.274   1.420
   17CHTO   O47 7008   4.740   6.268   1.561
   17CHTO  H104 7009   4.816   6.303   1.605
   17CHTO   O34 7010   4.264   6.367   1.326
   17CHTO   C49 7011   4.165   6.488   1.338
   17CHTO   H91 7012   4.225   6.578   1.331
   17CHTO   C47 7013   4.095   6.480   1.476
   17CHTO   H89 7014   4.038   6.576   1.483
   17CHTO   O33 7015   4.192   6.478   1.582
   17CHTO   H70 7016   4.243   6.399   1.579
   17CHTO   C45 7017   3.996   6.352   1.486
   17CHTO   H87 7018   4.050   6.271   1.537
   17CHTO    N8 7019   3.879   6.389   1.570
   17CHTO   H75 7020   3.818   6.302   1.588
   17CHTO   H76 7021   3.820   6.465   1.520
   17CHTO   C43 7022   3.962   6.294   1.340
   17CHTO   H85 7023   4.049   6.234   1.313
   17CHTO   O29 7024   3.941   6.401   1.246
   17CHTO   C50 7025   4.053   6.490   1.228
   17CHTO   H92 7026   4.101   6.465   1.132
   17CHTO   C54 7027   3.996   6.632   1.206
   17CHTO   O36 7028   3.915   6.639   1.087
   17CHTO   H72 7029   3.881   6.726   1.079
   17CHTO   O27 7030   3.852   6.202   1.338
   17CHTO   C37 7031   3.833   6.080   1.267
   17CHTO   H79 7032   3.728   6.048   1.275
   17CHTO   C38 7033   3.865   6.095   1.115
   17CHTO   H80 7034   3.966   6.139   1.105
   17CHTO   O31 7035   3.770   6.187   1.059
   17CHTO   H68 7036   3.792   6.207   0.970
   17CHTO   C39 7037   3.862   5.956   1.040
   17CHTO   H81 7038   3.757   5.926   1.035
   17CHTO    N7 7039   3.911   5.966   0.899
   17CHTO   H73 7040   3.904   5.869   0.850
   17CHTO   H74 7041   4.014   5.999   0.898
   17CHTO   C40 7042   3.940   5.845   1.120
   17CHTO   H82 7043   4.047   5.860   1.109
   17CHTO   O26 7044   3.900   5.843   1.259
   17CHTO   C41 7045   3.924   5.969   1.328
   17CHTO   H83 7046   4.029   5.998   1.316
   17CHTO   C52 7047   3.897   5.950   1.479
   17CHTO   O35 7048   3.994   5.864   1.541
   17CHTO   H71 7049   4.078   5.907   1.544
   17CHTO   O28 7050   3.904   5.712   1.077
   17CHTO   C42 7051   4.005   5.606   1.072
   17CHTO   H84 7052   3.946   5.515   1.066
   17CHTO   C44 7053   4.095   5.590   1.201
   17CHTO   H86 7054   4.139   5.687   1.224
   17CHTO   O32 7055   4.008   5.555   1.309
   17CHTO   H69 7056   4.056   5.551   1.390
   17CHTO   C48 7057   4.214   5.487   1.181
   17CHTO   H90 7058   4.173   5.387   1.169
   17CHTO    N9 7059   4.306   5.481   1.300
   17CHTO   H77 7060   4.250   5.448   1.387
   17CHTO   H78 7061   4.350   5.578   1.318
   17CHTO   C51 7062   4.289   5.527   1.048
   17CHTO   H93 7063   4.318   5.632   1.059
   17CHTO   O30 7064   4.194   5.509   0.942
   17CHTO   C46 7065   4.090   5.615   0.942
   17CHTO   H88 7066   4.139   5.712   0.936
   17CHTO   C53 7067   4.003   5.593   0.816
   17CHTO   O72 7068   4.080   5.611   0.697
   17CHTO  H199 7069   4.025   5.598   0.622
   17CHTO   O22 7070   4.404   5.447   1.015
   17CHTO   C31 7071   4.479   5.466   0.888
   17CHTO   H59 7072   4.584   5.438   0.911
   17CHTO   C29 7073   4.431   5.371   0.775
   17CHTO   H57 7074   4.323   5.388   0.761
   17CHTO   O21 7075   4.445   5.236   0.821
   17CHTO   H37 7076   4.535   5.213   0.829
   17CHTO   C27 7077   4.504   5.397   0.636
   17CHTO   H55 7078   4.611   5.372   0.648
   17CHTO    N5 7079   4.449   5.317   0.525
   17CHTO   H43 7080   4.344   5.339   0.510
   17CHTO   H44 7081   4.462   5.211   0.546
   17CHTO   C25 7082   4.496   5.550   0.605
   17CHTO   H53 7083   4.389   5.579   0.597
   17CHTO   O17 7084   4.557   5.623   0.714
   17CHTO   C32 7085   4.485   5.614   0.837
   17CHTO   H60 7086   4.383   5.651   0.822
   17CHTO   C36 7087   4.557   5.708   0.938
   17CHTO   O25 7088   4.547   5.845   0.897
   17CHTO   H40 7089   4.596   5.859   0.819
   17CHTO   O15 7090   4.572   5.595   0.468
   17CHTO   C19 7091   4.595   5.736   0.437
   17CHTO   H47 7092   4.619   5.734   0.330
   17CHTO   C20 7093   4.469   5.827   0.458
   17CHTO   H48 7094   4.429   5.818   0.560
   17CHTO   O19 7095   4.367   5.779   0.368
   17CHTO   H35 7096   4.393   5.790   0.279
   17CHTO   C21 7097   4.501   5.980   0.432
   17CHTO   H49 7098   4.524   5.993   0.326
   17CHTO    N4 7099   4.385   6.068   0.462
   17CHTO   H41 7100   4.358   6.059   0.566
   17CHTO   H42 7101   4.410   6.171   0.441
   17CHTO   C22 7102   4.628   6.018   0.512
   17CHTO   H50 7103   4.608   6.008   0.618
   17CHTO   O14 7104   4.738   5.933   0.474
   17CHTO   C23 7105   4.720   5.796   0.509
   17CHTO   H51 7106   4.711   5.791   0.619
   17CHTO   C34 7107   4.851   5.724   0.471
   17CHTO   O23 7108   4.852   5.587   0.512
   17CHTO   H38 7109   4.932   5.547   0.485
   17CHTO   O16 7110   4.673   6.152   0.480
   17CHTO   C24 7111   4.741   6.229   0.602
   17CHTO   H52 7112   4.777   6.161   0.679
   17CHTO   C26 7113   4.637   6.326   0.663
   17CHTO   H54 7114   4.584   6.378   0.579
   17CHTO   O20 7115   4.539   6.248   0.734
   17CHTO   H36 7116   4.488   6.197   0.675
   17CHTO   C30 7117   4.702   6.435   0.753
   17CHTO   H58 7118   4.741   6.390   0.845
   17CHTO    N6 7119   4.602   6.536   0.798
   17CHTO   H45 7120   4.523   6.488   0.855
   17CHTO   H46 7121   4.649   6.610   0.861
   17CHTO   C33 7122   4.823   6.499   0.679
   17CHTO   H61 7123   4.787   6.544   0.585
   17CHTO   O18 7124   4.915   6.393   0.646
   17CHTO   C28 7125   4.865   6.304   0.546
   17CHTO   H56 7126   4.836   6.359   0.456
   17CHTO   C35 7127   4.976   6.204   0.509
   17CHTO   O24 7128   5.092   6.269   0.455
   17CHTO   H39 7129   5.072   6.304   0.370
   17CHTO    O9 7130   4.888   6.605   0.751
   17CHTO   C13 7131   4.983   6.696   0.654
   17CHTO   H26 7132   5.030   6.630   0.578
   17CHTO   C11 7133   5.092   6.769   0.742
   17CHTO   H24 7134   5.160   6.692   0.781
   17CHTO    O8 7135   5.031   6.832   0.857
   17CHTO    H3 7136   4.973   6.901   0.829
   17CHTO    C9 7137   5.172   6.865   0.650
   17CHTO   H22 7138   5.209   6.802   0.568
   17CHTO    N2 7139   5.295   6.920   0.713
   17CHTO   H10 7140   5.352   6.975   0.640
   17CHTO   H11 7141   5.268   6.984   0.796
   17CHTO    C7 7142   5.076   6.974   0.591
   17CHTO   H20 7143   5.139   7.031   0.520
   17CHTO    O4 7144   4.967   6.915   0.518
   17CHTO   C14 7145   4.895   6.800   0.570
   17CHTO   H27 7146   4.858   6.746   0.481
   17CHTO   C18 7147   4.770   6.849   0.648
   17CHTO   O13 7148   4.675   6.912   0.562
   17CHTO    H7 7149   4.636   6.847   0.505
   17CHTO    O2 7150   5.016   7.072   0.709
   17CHTO    C1 7151   4.967   7.202   0.670
   17CHTO   H14 7152   4.900   7.191   0.582
   17CHTO    C2 7153   5.081   7.309   0.634
   17CHTO   H15 7154   5.155   7.302   0.716
   17CHTO    O6 7155   5.144   7.273   0.510
   17CHTO    H1 7156   5.191   7.193   0.520
   17CHTO    C3 7157   5.022   7.459   0.627
   17CHTO   H16 7158   4.956   7.467   0.538
   17CHTO    N1 7159   5.131   7.561   0.611
   17CHTO    H8 7160   5.197   7.558   0.696
   17CHTO    H9 7161   5.088   7.660   0.602
   17CHTO    C4 7162   4.930   7.487   0.751
   17CHTO   H17 7163   4.992   7.489   0.841
   17CHTO    O1 7164   4.829   7.386   0.760
   17CHTO    C5 7165   4.880   7.255   0.787
   17CHTO   H18 7166   4.944   7.259   0.875
   17CHTO   C16 7167   4.760   7.163   0.818
   17CHTO   O11 7168   4.690   7.205   0.936
   17CHTO    H5 7169   4.617   7.148   0.950
   17CHTO    O3 7170   4.855   7.610   0.740
   17CHTO    C6 7171   4.814   7.686   0.860
   17CHTO   H19 7172   4.719   7.735   0.842
   17CHTO    C8 7173   4.791   7.601   0.991
   17CHTO   H21 7174   4.881   7.542   1.011
   17CHTO    O7 7175   4.679   7.514   0.967
   17CHTO    H2 7176   4.601   7.563   0.953
   17CHTO   C12 7177   4.766   7.695   1.117
   17CHTO   H25 7178   4.669   7.745   1.099
   17CHTO    N3 7179   4.752   7.616   1.244
   17CHTO   H12 7180   4.731   7.683   1.326
   17CHTO   H13 7181   4.842   7.560   1.263
   17CHTO   C15 7182   4.878   7.805   1.124
   17CHTO   H28 7183   4.976   7.761   1.147
   17CHTO   O10 7184   4.847   7.917   1.225
   17CHTO    H4 7185   4.921   7.974   1.234
   17CHTO    O5 7186   4.885   7.878   1.001
   17CHTO   C10 7187   4.919   7.798   0.886
   17CHTO   H23 7188   5.017   7.754   0.902
   17CHTO   C17 7189   4.932   7.894   0.766
   17CHTO   O12 7190   4.813   7.969   0.742
   17CHTO    H6 7191   4.826   8.025   0.667
   18CHTO  H203 7192   6.210   7.823   1.702
   18CHTO   O82 7193   6.244   7.752   1.650
   18CHTO  C123 7194   6.198   7.763   1.515
   18CHTO  H227 7195   6.090   7.785   1.515
   18CHTO   O77 7196   6.273   7.877   1.464
   18CHTO  C118 7197   6.242   7.913   1.329
   18CHTO  H222 7198   6.134   7.931   1.319
   18CHTO  C125 7199   6.318   8.047   1.298
   18CHTO   O84 7200   6.267   8.155   1.377
   18CHTO  H205 7201   6.180   8.176   1.350
   18CHTO  C114 7202   6.284   7.799   1.235
   18CHTO  H218 7203   6.391   7.783   1.245
   18CHTO  C116 7204   6.212   7.666   1.275
   18CHTO  H220 7205   6.104   7.674   1.251
   18CHTO   O79 7206   6.264   7.560   1.192
   18CHTO  H201 7207   6.218   7.480   1.208
   18CHTO  C120 7208   6.231   7.634   1.429
   18CHTO  H224 7209   6.337   7.607   1.443
   18CHTO   N21 7210   6.152   7.516   1.473
   18CHTO  H211 7211   6.144   7.444   1.393
   18CHTO  H212 7212   6.054   7.547   1.506
   18CHTO   O75 7213   6.250   7.842   1.102
   18CHTO  C112 7214   6.378   7.853   0.999
   18CHTO  H216 7215   6.460   7.790   1.036
   18CHTO   O73 7216   6.415   7.991   0.992
   18CHTO  C113 7217   6.532   8.018   0.913
   18CHTO  H217 7218   6.617   7.959   0.954
   18CHTO  C124 7219   6.563   8.167   0.933
   18CHTO   O83 7220   6.686   8.208   0.872
   18CHTO  H204 7221   6.758   8.169   0.918
   18CHTO  C109 7222   6.505   7.980   0.765
   18CHTO  H213 7223   6.431   8.052   0.726
   18CHTO  C110 7224   6.450   7.835   0.753
   18CHTO  H214 7225   6.533   7.765   0.769
   18CHTO   O78 7226   6.403   7.814   0.619
   18CHTO  H200 7227   6.333   7.873   0.599
   18CHTO  C111 7228   6.336   7.805   0.855
   18CHTO  H215 7229   6.248   7.864   0.827
   18CHTO   N19 7230   6.293   7.662   0.859
   18CHTO  H207 7231   6.189   7.654   0.833
   18CHTO  H208 7232   6.352   7.603   0.791
   18CHTO   O74 7233   6.629   7.994   0.687
   18CHTO  C115 7234   6.605   8.042   0.532
   18CHTO  H219 7235   6.506   8.014   0.495
   18CHTO   O76 7236   6.610   8.199   0.519
   18CHTO  C122 7237   6.598   8.252   0.386
   18CHTO  H226 7238   6.623   8.358   0.392
   18CHTO  C126 7239   6.449   8.246   0.336
   18CHTO   O85 7240   6.364   8.334   0.412
   18CHTO  H206 7241   6.277   8.328   0.379
   18CHTO  C121 7242   6.695   8.184   0.283
   18CHTO  H225 7243   6.662   8.216   0.182
   18CHTO   O81 7244   6.828   8.234   0.304
   18CHTO  H202 7245   6.884   8.208   0.233
   18CHTO  C119 7246   6.691   8.028   0.290
   18CHTO  H223 7247   6.590   7.999   0.259
   18CHTO  C117 7248   6.713   7.977   0.437
   18CHTO  H221 7249   6.809   8.000   0.482
   18CHTO   N20 7250   6.703   7.827   0.442
   18CHTO  H209 7251   6.719   7.793   0.543
   18CHTO  H210 7252   6.777   7.783   0.377
   18CHTO   O80 7253   6.784   7.958   0.169
   18CHTO  C103 7254   6.712   7.882   0.042
   18CHTO  H190 7255   6.788   7.856   2.826
   18CHTO  C101 7256   6.635   7.749   0.079
   18CHTO  H188 7257   6.571   7.767   0.165
   18CHTO   O68 7258   6.741   7.642   0.119
   18CHTO  H168 7259   6.795   7.621   0.045
   18CHTO   C99 7260   6.542   7.702   2.815
   18CHTO  H186 7261   6.604   7.691   2.724
   18CHTO   N17 7262   6.471   7.572   2.836
   18CHTO  H174 7263   6.544   7.493   2.852
   18CHTO  H175 7264   6.403   7.580   0.062
   18CHTO   C97 7265   6.445   7.820   2.787
   18CHTO  H184 7266   6.393   7.846   0.023
   18CHTO   O64 7267   6.524   7.930   2.737
   18CHTO  C104 7268   6.615   7.989   2.832
   18CHTO  H191 7269   6.561   8.044   0.051
   18CHTO  C108 7270   6.694   8.094   2.752
   18CHTO   O71 7271   6.790   8.166   2.830
   18CHTO  H171 7272   6.833   8.229   2.775
   18CHTO   O62 7273   6.351   7.799   2.679
   18CHTO   C91 7274   6.212   7.828   2.706
   18CHTO  H178 7275   6.192   7.809   2.812
   18CHTO   C92 7276   6.127   7.725   2.626
   18CHTO  H179 7277   6.164   7.722   2.522
   18CHTO   O66 7278   6.154   7.594   2.681
   18CHTO  H166 7279   6.112   7.528   2.630
   18CHTO   C93 7280   5.971   7.755   2.628
   18CHTO  H180 7281   5.937   7.735   2.731
   18CHTO   N16 7282   5.892   7.666   2.539
   18CHTO  H172 7283   5.819   7.611   2.597
   18CHTO  H173 7284   5.956   7.599   2.484
   18CHTO   C94 7285   5.945   7.906   2.596
   18CHTO  H181 7286   5.975   7.932   2.494
   18CHTO   O61 7287   6.021   7.988   2.685
   18CHTO   C95 7288   6.164   7.975   2.670
   18CHTO  H182 7289   6.191   7.997   2.567
   18CHTO  C106 7290   6.231   8.086   2.759
   18CHTO   O69 7291   6.198   8.073   0.039
   18CHTO  H169 7292   6.107   8.091   0.053
   18CHTO   O63 7293   5.788   7.945   2.621
   18CHTO   C96 7294   5.736   8.059   2.523
   18CHTO  H183 7295   5.796   8.056   2.432
   18CHTO   C98 7296   5.745   8.204   2.580
   18CHTO  H185 7297   5.695   8.208   2.678
   18CHTO   O67 7298   5.884   8.234   2.606
   18CHTO  H167 7299   5.933   8.234   2.526
   18CHTO  C102 7300   5.681   8.314   2.480
   18CHTO  H189 7301   5.750   8.319   2.394
   18CHTO   N18 7302   5.675   8.451   2.535
   18CHTO  H176 7303   5.573   8.486   2.543
   18CHTO  H177 7304   5.732   8.519   2.474
   18CHTO  C105 7305   5.544   8.264   2.427
   18CHTO  H192 7306   5.470   8.271   2.507
   18CHTO   O65 7307   5.548   8.128   2.382
   18CHTO  C100 7308   5.586   8.033   2.482
   18CHTO  H187 7309   5.521   8.045   2.570
   18CHTO  C107 7310   5.563   7.891   2.424
   18CHTO   O70 7311   5.564   7.792   2.527
   18CHTO  H170 7312   5.549   7.707   2.489
   18CHTO   O57 7313   5.504   8.369   2.298
   18CHTO   C85 7314   5.373   8.378   2.238
   18CHTO  H157 7315   5.390   8.440   2.148
   18CHTO   C83 7316   5.275   8.462   2.326
   18CHTO  H155 7317   5.314   8.564   2.331
   18CHTO   O56 7318   5.274   8.413   2.462
   18CHTO  H135 7319   5.239   8.326   2.466
   18CHTO   C81 7320   5.135   8.465   2.258
   18CHTO  H153 7321   5.147   8.503   2.157
   18CHTO   N14 7322   5.039   8.558   2.323
   18CHTO  H141 7323   4.948   8.562   2.266
   18CHTO  H142 7324   5.081   8.657   2.327
   18CHTO   C79 7325   5.079   8.318   2.248
   18CHTO  H151 7326   4.982   8.324   2.198
   18CHTO   O52 7327   5.166   8.239   2.162
   18CHTO   C86 7328   5.308   8.238   2.200
   18CHTO  H158 7329   5.313   8.167   2.285
   18CHTO   C90 7330   5.391   8.173   2.086
   18CHTO   O60 7331   5.354   8.036   2.066
   18CHTO  H138 7332   5.408   7.999   1.999
   18CHTO   O50 7333   5.061   8.254   2.376
   18CHTO   C73 7334   4.981   8.154   2.440
   18CHTO  H145 7335   4.958   8.073   2.369
   18CHTO   C74 7336   4.846   8.216   2.489
   18CHTO  H146 7337   4.797   8.262   2.402
   18CHTO   O54 7338   4.761   8.107   2.531
   18CHTO  H133 7339   4.677   8.140   2.557
   18CHTO   C75 7340   4.874   8.321   2.603
   18CHTO  H147 7341   4.934   8.404   2.560
   18CHTO   N13 7342   4.752   8.385   2.659
   18CHTO  H139 7343   4.779   8.456   2.735
   18CHTO  H140 7344   4.699   8.437   2.580
   18CHTO   C76 7345   4.964   8.254   2.718
   18CHTO  H148 7346   4.904   8.178   2.768
   18CHTO   O49 7347   5.084   8.194   2.662
   18CHTO   C77 7348   5.058   8.095   2.561
   18CHTO  H149 7349   5.000   8.014   2.604
   18CHTO   C88 7350   5.191   8.031   2.517
   18CHTO   O58 7351   5.259   7.966   2.630
   18CHTO  H136 7352   5.287   8.031   2.692
   18CHTO   O51 7353   5.018   8.364   2.818
   18CHTO   C78 7354   5.048   8.307   0.105
   18CHTO  H150 7355   5.057   8.196   0.104
   18CHTO   C80 7356   4.935   8.348   0.201
   18CHTO  H152 7357   4.915   8.456   0.188
   18CHTO   O55 7358   4.817   8.277   0.159
   18CHTO  H134 7359   4.743   8.305   0.210
   18CHTO   C84 7360   4.971   8.320   0.353
   18CHTO  H156 7361   4.980   8.212   0.365
   18CHTO   N15 7362   4.864   8.367   0.448
   18CHTO  H143 7363   4.782   8.411   0.396
   18CHTO  H144 7364   4.828   8.285   0.507
   18CHTO   C87 7365   5.108   8.385   0.384
   18CHTO  H159 7366   5.100   8.493   0.371
   18CHTO   O53 7367   5.212   8.326   0.286
   18CHTO   C82 7368   5.184   8.363   0.150
   18CHTO  H154 7369   5.187   8.472   0.140
   18CHTO   C89 7370   5.297   8.307   0.059
   18CHTO   O59 7371   5.423   8.368   0.088
   18CHTO  H137 7372   5.453   8.339   0.172
   18CHTO   O45 7373   5.160   8.353   0.536
   18CHTO   C67 7374   5.287   8.413   0.568
   18CHTO  H124 7375   5.352   8.406   0.481
   18CHTO   C65 7376   5.271   8.565   0.606
   18CHTO  H122 7377   5.170   8.576   0.646
   18CHTO   O44 7378   5.280   8.639   0.483
   18CHTO  H102 7379   5.369   8.641   0.453
   18CHTO   C63 7380   5.366   8.610   0.724
   18CHTO  H120 7381   5.324   8.573   0.818
   18CHTO   N11 7382   5.372   8.758   0.753
   18CHTO  H108 7383   5.474   8.790   0.760
   18CHTO  H109 7384   5.323   8.813   0.676
   18CHTO   C61 7385   5.505   8.539   0.708
   18CHTO  H118 7386   5.565   8.566   0.796
   18CHTO   O40 7387   5.493   8.394   0.708
   18CHTO   C68 7388   5.362   8.334   0.682
   18CHTO  H125 7389   5.302   8.336   0.776
   18CHTO   C72 7390   5.386   8.185   0.647
   18CHTO   O48 7391   5.265   8.108   0.641
   18CHTO  H105 7392   5.285   8.020   0.619
   18CHTO   O38 7393   5.574   8.582   0.588
   18CHTO   C55 7394   5.710   8.536   0.575
   18CHTO  H112 7395   5.727   8.449   0.640
   18CHTO   C56 7396   5.814   8.651   0.602
   18CHTO  H113 7397   5.800   8.729   0.526
   18CHTO   O42 7398   5.788   8.713   0.730
   18CHTO  H100 7399   5.705   8.757   0.728
   18CHTO   C57 7400   5.960   8.592   0.597
   18CHTO  H114 7401   5.971   8.532   0.687
   18CHTO   N10 7402   6.069   8.694   0.603
   18CHTO  H106 7403   6.096   8.713   0.706
   18CHTO  H107 7404   6.038   8.786   0.557
   18CHTO   C58 7405   5.982   8.500   0.473
   18CHTO  H115 7406   6.016   8.561   0.385
   18CHTO   O37 7407   5.868   8.423   0.433
   18CHTO   C59 7408   5.739   8.485   0.431
   18CHTO  H116 7409   5.738   8.567   0.359
   18CHTO   C70 7410   5.636   8.379   0.387
   18CHTO   O46 7411   5.664   8.327   0.256
   18CHTO  H103 7412   5.650   8.394   0.192
   18CHTO   O39 7413   6.101   8.384   0.511
   18CHTO   C60 7414   6.060   8.281   0.604
   18CHTO  H117 7415   5.985   8.321   0.673
   18CHTO   C62 7416   5.995   8.158   0.531
   18CHTO  H119 7417   5.913   8.197   0.469
   18CHTO   O43 7418   6.091   8.097   0.443
   18CHTO  H101 7419   6.113   8.155   0.373
   18CHTO   C66 7420   5.934   8.059   0.641
   18CHTO  H123 7421   5.866   8.116   0.705
   18CHTO   N12 7422   5.851   7.951   0.581
   18CHTO  H110 7423   5.912   7.890   0.515
   18CHTO  H111 7424   5.806   7.891   0.658
   18CHTO   C69 7425   6.047   8.005   0.731
   18CHTO  H126 7426   6.114   7.939   0.670
   18CHTO   O41 7427   6.132   8.125   0.792
   18CHTO   C64 7428   6.180   8.232   0.691
   18CHTO  H121 7429   6.258   8.189   0.626
   18CHTO   C71 7430   6.243   8.346   0.775
   18CHTO   O47 7431   6.315   8.439   0.694
   18CHTO  H104 7432   6.353   8.505   0.749
   18CHTO   O34 7433   5.988   7.918   0.851
   18CHTO   C49 7434   5.943   7.952   0.997
   18CHTO   H91 7435   6.033   7.947   1.059
   18CHTO   C47 7436   5.842   7.845   1.044
   18CHTO   H89 7437   5.822   7.864   1.151
   18CHTO   O33 7438   5.905   7.716   1.031
   18CHTO   H70 7439   5.847   7.649   1.063
   18CHTO   C45 7440   5.707   7.862   0.958
   18CHTO   H87 7441   5.733   7.853   0.852
   18CHTO    N8 7442   5.608   7.756   0.989
   18CHTO   H75 7443   5.524   7.763   0.922
   18CHTO   H76 7444   5.573   7.766   1.091
   18CHTO   C43 7445   5.647   8.011   0.974
   18CHTO   H85 7446   5.568   8.018   0.899
   18CHTO   O29 7447   5.750   8.110   0.950
   18CHTO   C50 7448   5.880   8.093   1.010
   18CHTO   H92 7449   5.947   8.164   0.960
   18CHTO   C54 7450   5.879   8.144   1.157
   18CHTO   O36 7451   6.010   8.151   1.213
   18CHTO   H72 7452   6.045   8.065   1.224
   18CHTO   O27 7453   5.584   8.036   1.101
   18CHTO   C37 7454   5.481   8.125   1.150
   18CHTO   H79 7455   5.443   8.087   1.247
   18CHTO   C38 7456   5.536   8.269   1.178
   18CHTO   H80 7457   5.600   8.298   1.093
   18CHTO   O31 7458   5.618   8.262   1.296
   18CHTO   H68 7459   5.696   8.213   1.279
   18CHTO   C39 7460   5.423   8.378   1.197
   18CHTO   H81 7461   5.373   8.357   1.291
   18CHTO    N7 7462   5.476   8.519   1.206
   18CHTO   H73 7463   5.439   8.581   1.126
   18CHTO   H74 7464   5.584   8.520   1.206
   18CHTO   C40 7465   5.316   8.362   1.082
   18CHTO   H82 7466   5.365   8.383   0.987
   18CHTO   O26 7467   5.264   8.229   1.088
   18CHTO   C41 7468   5.363   8.129   1.049
   18CHTO   H83 7469   5.401   8.153   0.949
   18CHTO   C52 7470   5.290   7.993   1.042
   18CHTO   O35 7471   5.191   7.992   0.941
   18CHTO   H71 7472   5.148   7.908   0.940
   18CHTO   O28 7473   5.208   8.458   1.090
   18CHTO   C42 7474   5.067   8.434   1.125
   18CHTO   H84 7475   5.024   8.534   1.120
   18CHTO   C44 7476   5.036   8.380   1.268
   18CHTO   H86 7477   5.071   8.277   1.275
   18CHTO   O32 7478   5.111   8.461   1.361
   18CHTO   H69 7479   5.100   8.428   1.448
   18CHTO   C48 7480   4.880   8.384   1.295
   18CHTO   H90 7481   4.851   8.489   1.300
   18CHTO    N9 7482   4.844   8.327   1.429
   18CHTO   H77 7483   4.738   8.335   1.446
   18CHTO   H78 7484   4.876   8.223   1.435
   18CHTO   C51 7485   4.800   8.315   1.177
   18CHTO   H93 7486   4.812   8.207   1.186
   18CHTO   O30 7487   4.846   8.364   1.050
   18CHTO   C46 7488   4.989   8.346   1.023
   18CHTO   H88 7489   5.015   8.241   1.037
   18CHTO   C53 7490   5.016   8.387   0.876
   18CHTO   O72 7491   4.952   8.296   0.786
   18CHTO  H199 7492   4.995   8.213   0.789
   18CHTO   O22 7493   4.660   8.350   1.186
   18CHTO   C31 7494   4.558   8.332   1.079
   18CHTO   H59 7495   4.460   8.340   1.130
   18CHTO   C29 7496   4.561   8.442   0.970
   18CHTO   H57 7497   4.661   8.444   0.925
   18CHTO   O21 7498   4.545   8.570   1.036
   18CHTO   H37 7499   4.458   8.578   1.070
   18CHTO   C27 7500   4.455   8.418   0.855
   18CHTO   H55 7501   4.354   8.425   0.899
   18CHTO    N5 7502   4.466   8.517   0.745
   18CHTO   H43 7503   4.484   8.469   0.650
   18CHTO   H44 7504   4.376   8.577   0.740
   18CHTO   C25 7505   4.473   8.271   0.803
   18CHTO   H53 7506   4.574   8.260   0.761
   18CHTO   O17 7507   4.458   8.178   0.914
   18CHTO   C32 7508   4.560   8.190   1.015
   18CHTO   H60 7509   4.658   8.172   0.970
   18CHTO   C36 7510   4.533   8.081   1.122
   18CHTO   O25 7511   4.536   7.950   1.065
   18CHTO   H40 7512   4.623   7.927   1.040
   18CHTO   O15 7513   4.366   8.230   0.691
   18CHTO   C19 7514   4.382   8.157   0.566
   18CHTO   H47 7515   4.284   8.110   0.550
   18CHTO   C20 7516   4.415   8.247   0.443
   18CHTO   H48 7517   4.507   8.306   0.459
   18CHTO   O19 7518   4.306   8.340   0.430
   18CHTO   H35 7519   4.307   8.402   0.500
   18CHTO   C21 7520   4.435   8.162   0.310
   18CHTO   H49 7521   4.340   8.114   0.286
   18CHTO    N4 7522   4.473   8.245   0.193
   18CHTO   H41 7523   4.483   8.182   0.105
   18CHTO   H42 7524   4.397   8.319   0.174
   18CHTO   C22 7525   4.538   8.050   0.340
   18CHTO   H50 7526   4.634   8.097   0.365
   18CHTO   O14 7527   4.491   7.970   0.449
   18CHTO   C23 7528   4.485   8.039   0.575
   18CHTO   H51 7529   4.586   8.075   0.599
   18CHTO   C34 7530   4.443   7.937   0.682
   18CHTO   O23 7531   4.537   7.829   0.692
   18CHTO   H38 7532   4.533   7.776   0.614
   18CHTO   O16 7533   4.554   7.953   0.234
   18CHTO   C24 7534   4.708   7.941   0.174
   18CHTO   H52 7535   4.763   8.034   0.185
   18CHTO   C26 7536   4.698   7.902   0.025
   18CHTO   H54 7537   4.632   7.812   0.017
   18CHTO   O20 7538   4.632   8.009   2.812
   18CHTO   H36 7539   4.683   8.087   2.815
   18CHTO   C30 7540   4.836   7.868   2.820
   18CHTO   H58 7541   4.891   7.962   2.801
   18CHTO    N6 7542   4.821   7.803   2.687
   18CHTO   H45 7543   4.768   7.709   2.697
   18CHTO   H46 7544   4.918   7.784   2.643
   18CHTO   C33 7545   4.928   7.784   0.056
   18CHTO   H61 7546   4.896   7.679   0.057
   18CHTO   O18 7547   4.922   7.835   0.191
   18CHTO   C28 7548   4.790   7.832   0.247
   18CHTO   H56 7549   4.744   7.735   0.231
   18CHTO   C35 7550   4.803   7.854   0.399
   18CHTO   O24 7551   4.866   7.743   0.464
   18CHTO   H39 7552   4.870   7.759   0.556
   18CHTO    O9 7553   5.064   7.782   0.007
   18CHTO   C13 7554   5.172   7.722   0.112
   18CHTO   H26 7555   5.117   7.666   0.191
   18CHTO   C11 7556   5.258   7.840   0.173
   18CHTO   H24 7557   5.191   7.902   0.234
   18CHTO    O8 7558   5.310   7.925   0.068
   18CHTO    H3 7559   5.370   7.877   0.015
   18CHTO    C9 7560   5.367   7.779   0.266
   18CHTO   H22 7561   5.311   7.720   0.340
   18CHTO    N2 7562   5.440   7.880   0.346
   18CHTO   H10 7563   5.547   7.869   0.334
   18CHTO   H11 7564   5.413   7.874   0.450
   18CHTO    C7 7565   5.458   7.682   0.183
   18CHTO   H20 7566   5.523   7.634   0.260
   18CHTO    O4 7567   5.381   7.578   0.118
   18CHTO   C14 7568   5.264   7.613   0.041
   18CHTO   H27 7569   5.204   7.521   0.034
   18CHTO   C18 7570   5.303   7.652   2.754
   18CHTO   O13 7571   5.359   7.541   2.683
   18CHTO    H7 7572   5.293   7.476   2.667
   18CHTO    O2 7573   5.552   7.758   0.069
   18CHTO    C1 7574   5.686   7.709   0.050
   18CHTO   H14 7575   5.720   7.744   2.808
   18CHTO    C2 7576   5.705   7.550   0.055
   18CHTO   H15 7577   5.659   7.515   0.149
   18CHTO    O6 7578   5.634   7.494   2.801
   18CHTO    H1 7579   5.541   7.504   2.813
   18CHTO    C3 7580   5.860   7.509   0.053
   18CHTO   H16 7581   5.903   7.538   2.814
   18CHTO    N1 7582   5.879   7.361   0.066
   18CHTO    H8 7583   5.936   7.337   0.155
   18CHTO    H9 7584   5.929   7.321   2.837
   18CHTO    C4 7585   5.937   7.593   0.161
   18CHTO   H17 7586   5.902   7.564   0.260
   18CHTO    O1 7587   5.917   7.734   0.139
   18CHTO    C5 7588   5.781   7.779   0.152
   18CHTO   H18 7589   5.744   7.758   0.252
   18CHTO   C16 7590   5.781   7.933   0.129
   18CHTO   O11 7591   5.858   8.001   0.229
   18CHTO    H5 7592   5.949   7.982   0.217
   18CHTO    O3 7593   6.080   7.577   0.150
   18CHTO    C6 7594   6.155   7.563   0.276
   18CHTO   H19 7595   6.093   7.576   0.364
   18CHTO    C8 7596   6.219   7.420   0.282
   18CHTO   H21 7597   6.266   7.399   0.186
   18CHTO    O7 7598   6.111   7.327   0.303
   18CHTO    H2 7599   6.142   7.239   0.298
   18CHTO   C12 7600   6.328   7.408   0.396
   18CHTO   H25 7601   6.272   7.413   0.492
   18CHTO    N3 7602   6.397   7.275   0.393
   18CHTO   H12 7603   6.449   7.262   0.299
   18CHTO   H13 7604   6.466   7.267   0.476
   18CHTO   C15 7605   6.426   7.529   0.390
   18CHTO   H28 7606   6.490   7.526   0.301
   18CHTO   O10 7607   6.515   7.542   0.516
   18CHTO    H4 7608   6.572   7.468   0.521
   18CHTO    O5 7609   6.353   7.653   0.394
   18CHTO   C10 7610   6.266   7.672   0.282
   18CHTO   H23 7611   6.325   7.670   0.191
   18CHTO   C17 7612   6.206   7.813   0.293
   18CHTO   O12 7613   6.307   7.914   0.285
   18CHTO    H6 7614   6.360   7.912   0.363
   19CHTO  H203 7615   4.803   9.595   2.240
   19CHTO   O82 7616   4.868   9.564   2.180
   19CHTO  C123 7617   4.813   9.459   2.098
   19CHTO  H227 7618   4.726   9.500   2.043
   19CHTO   O77 7619   4.921   9.430   2.005
   19CHTO  C118 7620   4.888   9.333   1.904
   19CHTO  H222 7621   4.799   9.365   1.848
   19CHTO  C125 7622   5.011   9.329   1.806
   19CHTO   O84 7623   4.982   9.257   1.685
   19CHTO  H205 7624   5.057   9.258   1.629
   19CHTO  C114 7625   4.862   9.198   1.973
   19CHTO  H218 7626   4.952   9.168   2.027
   19CHTO  C116 7627   4.747   9.211   2.078
   19CHTO  H220 7628   4.650   9.229   2.025
   19CHTO   O79 7629   4.732   9.085   2.147
   19CHTO  H201 7630   4.702   9.019   2.088
   19CHTO  C120 7631   4.775   9.329   2.179
   19CHTO  H224 7632   4.861   9.297   2.241
   19CHTO   N21 7633   4.661   9.354   2.272
   19CHTO  H211 7634   4.672   9.293   2.361
   19CHTO  H212 7635   4.567   9.334   2.223
   19CHTO   O75 7636   4.831   9.104   1.869
   19CHTO  C112 7637   4.903   8.960   1.893
   19CHTO  H216 7638   4.890   8.931   1.998
   19CHTO   O73 7639   5.041   8.974   1.858
   19CHTO  C113 7640   5.119   8.857   1.883
   19CHTO  H217 7641   5.110   8.830   1.991
   19CHTO  C124 7642   5.268   8.890   1.859
   19CHTO   O83 7643   5.296   8.933   1.725
   19CHTO  H204 7644   5.283   8.861   1.665
   19CHTO  C109 7645   5.070   8.738   1.796
   19CHTO  H213 7646   5.089   8.766   1.691
   19CHTO  C110 7647   4.917   8.715   1.818
   19CHTO  H214 7648   4.902   8.675   1.918
   19CHTO   O78 7649   4.873   8.615   1.724
   19CHTO  H200 7650   4.783   8.593   1.741
   19CHTO  C111 7651   4.837   8.849   1.801
   19CHTO  H215 7652   4.846   8.882   1.697
   19CHTO   N19 7653   4.691   8.835   1.830
   19CHTO  H207 7654   4.666   8.733   1.857
   19CHTO  H208 7655   4.660   8.902   1.908
   19CHTO   O74 7656   5.147   8.619   1.829
   19CHTO  C115 7657   5.184   8.532   1.703
   19CHTO  H219 7658   5.101   8.523   1.633
   19CHTO   O76 7659   5.301   8.599   1.618
   19CHTO  C122 7660   5.431   8.574   1.673
   19CHTO  H226 7661   5.431   8.611   1.775
   19CHTO  C126 7662   5.535   8.660   1.595
   19CHTO   O85 7663   5.667   8.648   1.649
   19CHTO  H206 7664   5.726   8.701   1.599
   19CHTO  C121 7665   5.466   8.419   1.669
   19CHTO  H225 7666   5.528   8.398   1.580
   19CHTO   O81 7667   5.542   8.386   1.787
   19CHTO  H202 7668   5.625   8.430   1.784
   19CHTO  C119 7669   5.338   8.330   1.663
   19CHTO  H223 7670   5.302   8.337   1.560
   19CHTO  C117 7671   5.224   8.388   1.755
   19CHTO  H221 7672   5.252   8.401   1.860
   19CHTO   N20 7673   5.103   8.299   1.758
   19CHTO  H209 7674   5.130   8.201   1.796
   19CHTO  H210 7675   5.062   8.289   1.659
   19CHTO   O80 7676   5.370   8.174   1.674
   19CHTO  C103 7677   5.436   8.101   1.557
   19CHTO  H190 7678   5.435   8.164   1.467
   19CHTO  C101 7679   5.583   8.050   1.582
   19CHTO  H188 7680   5.585   7.999   1.679
   19CHTO   O68 7681   5.678   8.172   1.589
   19CHTO  H168 7682   5.764   8.144   1.613
   19CHTO   C99 7683   5.627   7.945   1.470
   19CHTO  H186 7684   5.626   7.994   1.370
   19CHTO   N17 7685   5.764   7.887   1.489
   19CHTO  H174 7686   5.837   7.968   1.495
   19CHTO  H175 7687   5.788   7.820   1.408
   19CHTO   C97 7688   5.519   7.834   1.462
   19CHTO  H184 7689   5.515   7.783   1.560
   19CHTO   O64 7690   5.392   7.893   1.427
   19CHTO  C104 7691   5.338   7.980   1.528
   19CHTO  H191 7692   5.320   7.926   1.621
   19CHTO  C108 7693   5.201   8.031   1.481
   19CHTO   O71 7694   5.107   7.924   1.467
   19CHTO  H171 7695   5.025   7.958   1.437
   19CHTO   O62 7696   5.540   7.738   1.356
   19CHTO   C91 7697   5.476   7.610   1.375
   19CHTO  H178 7698   5.408   7.616   1.460
   19CHTO   C92 7699   5.583   7.502   1.412
   19CHTO  H179 7700   5.663   7.504   1.335
   19CHTO   O66 7701   5.646   7.542   1.535
   19CHTO  H166 7702   5.716   7.484   1.556
   19CHTO   C93 7703   5.521   7.357   1.423
   19CHTO  H180 7704   5.456   7.357   1.512
   19CHTO   N16 7705   5.621   7.250   1.446
   19CHTO  H172 7706   5.572   7.154   1.456
   19CHTO  H173 7707   5.692   7.247   1.364
   19CHTO   C94 7708   5.433   7.327   1.297
   19CHTO  H181 7709   5.493   7.324   1.206
   19CHTO   O61 7710   5.337   7.431   1.280
   19CHTO   C95 7711   5.393   7.560   1.251
   19CHTO  H182 7712   5.458   7.552   1.164
   19CHTO  C106 7713   5.276   7.658   1.215
   19CHTO   O69 7714   5.209   7.616   1.096
   19CHTO  H169 7715   5.140   7.676   1.076
   19CHTO   O63 7716   5.350   7.191   1.312
   19CHTO   C96 7717   5.310   7.131   1.171
   19CHTO  H183 7718   5.401   7.123   1.113
   19CHTO   C98 7719   5.207   7.216   1.089
   19CHTO  H185 7720   5.244   7.319   1.076
   19CHTO   O67 7721   5.200   7.162   0.956
   19CHTO  H167 7722   5.170   7.073   0.957
   19CHTO  C102 7723   5.061   7.214   1.154
   19CHTO  H189 7724   4.992   7.241   1.073
   19CHTO   N18 7725   5.038   7.315   1.260
   19CHTO  H176 7726   4.936   7.307   1.296
   19CHTO  H177 7727   5.107   7.299   1.342
   19CHTO  C105 7728   5.027   7.069   1.201
   19CHTO  H192 7729   5.031   7.063   1.310
   19CHTO   O65 7730   5.116   6.967   1.151
   19CHTO  C100 7731   5.253   6.984   1.196
   19CHTO  H187 7732   5.255   6.963   1.304
   19CHTO  C107 7733   5.343   6.878   1.127
   19CHTO   O70 7734   5.308   6.745   1.166
   19CHTO  H170 7735   5.331   6.731   1.256
   19CHTO   O57 7736   4.878   7.046   1.151
   19CHTO   C85 7737   4.792   6.968   1.234
   19CHTO  H157 7738   4.848   6.943   1.327
   19CHTO   C83 7739   4.763   6.830   1.166
   19CHTO  H155 7740   4.859   6.782   1.147
   19CHTO   O56 7741   4.701   6.851   1.037
   19CHTO  H135 7742   4.760   6.896   0.979
   19CHTO   C81 7743   4.681   6.742   1.265
   19CHTO  H153 7744   4.741   6.728   1.355
   19CHTO   N14 7745   4.659   6.605   1.214
   19CHTO  H141 7746   4.752   6.559   1.188
   19CHTO  H142 7747   4.611   6.545   1.289
   19CHTO   C79 7748   4.547   6.815   1.307
   19CHTO  H151 7749   4.504   6.758   1.389
   19CHTO   O52 7750   4.575   6.949   1.360
   19CHTO   C86 7751   4.652   7.033   1.267
   19CHTO  H158 7752   4.588   7.041   1.177
   19CHTO   C90 7753   4.661   7.176   1.324
   19CHTO   O60 7754   4.702   7.270   1.224
   19CHTO  H138 7755   4.634   7.280   1.160
   19CHTO   O50 7756   4.449   6.825   1.203
   19CHTO   C73 7757   4.309   6.841   1.171
   19CHTO  H145 7758   4.257   6.746   1.189
   19CHTO   C74 7759   4.294   6.879   1.020
   19CHTO  H146 7760   4.342   6.799   0.962
   19CHTO   O54 7761   4.154   6.874   0.986
   19CHTO  H133 7762   4.121   6.786   0.992
   19CHTO   C75 7763   4.361   7.020   0.995
   19CHTO  H147 7764   4.468   7.011   1.014
   19CHTO   N13 7765   4.351   7.065   0.854
   19CHTO  H139 7766   4.295   7.157   0.846
   19CHTO  H140 7767   4.450   7.082   0.813
   19CHTO   C76 7768   4.301   7.126   1.099
   19CHTO  H148 7769   4.196   7.143   1.073
   19CHTO   O49 7770   4.310   7.077   1.236
   19CHTO   C77 7771   4.243   6.953   1.258
   19CHTO  H149 7772   4.138   6.962   1.230
   19CHTO   C88 7773   4.243   6.927   1.409
   19CHTO   O58 7774   4.166   6.810   1.445
   19CHTO  H136 7775   4.209   6.733   1.416
   19CHTO   O51 7776   4.385   7.262   1.103
   19CHTO   C78 7777   4.289   7.390   1.125
   19CHTO  H150 7778   4.182   7.360   1.129
   19CHTO   C80 7779   4.309   7.489   1.009
   19CHTO  H152 7780   4.417   7.516   1.003
   19CHTO   O55 7781   4.274   7.420   0.888
   19CHTO  H134 7782   4.183   7.398   0.887
   19CHTO   C84 7783   4.223   7.620   1.028
   19CHTO  H156 7784   4.118   7.592   1.021
   19CHTO   N15 7785   4.248   7.722   0.921
   19CHTO  H143 7786   4.186   7.808   0.937
   19CHTO  H144 7787   4.350   7.752   0.922
   19CHTO   C87 7788   4.247   7.680   1.169
   19CHTO  H159 7789   4.347   7.722   1.176
   19CHTO   O53 7790   4.228   7.570   1.275
   19CHTO   C82 7791   4.320   7.460   1.259
   19CHTO  H154 7792   4.423   7.496   1.262
   19CHTO   C89 7793   4.302   7.364   1.379
   19CHTO   O59 7794   4.326   7.429   1.504
   19CHTO  H137 7795   4.257   7.490   1.522
   19CHTO   O45 7796   4.137   7.798   1.198
   19CHTO   C67 7797   4.127   7.847   1.332
   19CHTO  H124 7798   4.098   7.764   1.398
   19CHTO   C65 7799   4.262   7.908   1.384
   19CHTO  H122 7800   4.322   7.929   1.295
   19CHTO   O44 7801   4.328   7.806   1.461
   19CHTO  H102 7802   4.285   7.793   1.543
   19CHTO   C63 7803   4.244   8.050   1.452
   19CHTO  H120 7804   4.219   8.122   1.374
   19CHTO   N11 7805   4.368   8.110   1.510
   19CHTO  H108 7806   4.399   8.054   1.596
   19CHTO  H109 7807   4.349   8.212   1.539
   19CHTO   C61 7808   4.119   8.046   1.549
   19CHTO  H118 7809   4.104   8.150   1.582
   19CHTO   O40 7810   3.998   8.007   1.477
   19CHTO   C68 7811   4.008   7.951   1.342
   19CHTO  H125 7812   4.023   8.035   1.270
   19CHTO   C72 7813   3.870   7.888   1.310
   19CHTO   O48 7814   3.857   7.845   1.174
   19CHTO  H105 7815   3.772   7.808   1.160
   19CHTO   O38 7816   4.143   7.964   1.666
   19CHTO   C55 7817   4.035   7.888   1.725
   19CHTO  H112 7818   3.985   7.830   1.645
   19CHTO   C56 7819   3.932   7.978   1.806
   19CHTO  H113 7820   3.987   8.025   1.890
   19CHTO   O42 7821   3.882   8.086   1.725
   19CHTO  H100 7822   3.951   8.145   1.702
   19CHTO   C57 7823   3.814   7.887   1.860
   19CHTO  H114 7824   3.761   7.851   1.772
   19CHTO   N10 7825   3.716   7.958   1.945
   19CHTO  H106 7826   3.707   8.062   1.915
   19CHTO  H107 7827   3.619   7.911   1.937
   19CHTO   C58 7828   3.872   7.765   1.937
   19CHTO  H115 7829   3.908   7.798   2.037
   19CHTO   O37 7830   3.981   7.700   1.869
   19CHTO   C59 7831   4.090   7.782   1.824
   19CHTO  H116 7832   4.137   7.831   1.910
   19CHTO   C70 7833   4.194   7.692   1.757
   19CHTO   O46 7834   4.250   7.596   1.847
   19CHTO  H103 7835   4.302   7.639   1.912
   19CHTO   O39 7836   3.748   7.648   1.959
   19CHTO   C60 7837   3.755   7.533   1.872
   19CHTO  H117 7838   3.813   7.558   1.783
   19CHTO   C62 7839   3.826   7.415   1.944
   19CHTO  H119 7840   3.925   7.454   1.978
   19CHTO   O43 7841   3.751   7.375   2.061
   19CHTO  H101 7842   3.750   7.444   2.124
   19CHTO   C66 7843   3.850   7.297   1.840
   19CHTO  H123 7844   3.908   7.335   1.757
   19CHTO   N12 7845   3.930   7.185   1.896
   19CHTO  H110 7846   3.879   7.143   1.982
   19CHTO  H111 7847   4.028   7.220   1.923
   19CHTO   C69 7848   3.714   7.247   1.782
   19CHTO  H126 7849   3.659   7.192   1.861
   19CHTO   O41 7850   3.621   7.371   1.731
   19CHTO   C64 7851   3.614   7.491   1.824
   19CHTO  H121 7852   3.551   7.466   1.911
   19CHTO   C71 7853   3.548   7.609   1.749
   19CHTO   O47 7854   3.406   7.592   1.737
   19CHTO  H104 7855   3.388   7.521   1.679
   19CHTO   O34 7856   3.740   7.149   1.662
   19CHTO   C49 7857   3.771   7.131   1.512
   19CHTO   H91 7858   3.807   7.028   1.502
   19CHTO   C47 7859   3.882   7.229   1.467
   19CHTO   H89 7860   3.908   7.200   1.363
   19CHTO   O33 7861   3.998   7.209   1.550
   19CHTO   H70 7862   3.980   7.235   1.638
   19CHTO   C45 7863   3.825   7.380   1.469
   19CHTO   H87 7864   3.790   7.402   1.571
   19CHTO    N8 7865   3.928   7.481   1.434
   19CHTO   H75 7866   3.961   7.466   1.332
   19CHTO   H76 7867   4.012   7.473   1.501
   19CHTO   C43 7868   3.693   7.389   1.377
   19CHTO   H85 7869   3.651   7.489   1.394
   19CHTO   O29 7870   3.597   7.286   1.412
   19CHTO   C50 7871   3.644   7.150   1.424
   19CHTO   H92 7872   3.563   7.093   1.473
   19CHTO   C54 7873   3.652   7.083   1.284
   19CHTO   O36 7874   3.713   6.954   1.284
   19CHTO   H72 7875   3.717   6.920   1.197
   19CHTO   O27 7876   3.724   7.383   1.237
   19CHTO   C37 7877   3.725   7.387   1.094
   19CHTO   H79 7878   3.663   7.306   1.053
   19CHTO   C38 7879   3.665   7.522   1.043
   19CHTO   H80 7880   3.716   7.605   1.096
   19CHTO   O31 7881   3.526   7.522   1.079
   19CHTO   H68 7882   3.488   7.606   1.059
   19CHTO   C39 7883   3.686   7.540   0.887
   19CHTO   H81 7884   3.628   7.462   0.837
   19CHTO    N7 7885   3.638   7.672   0.835
   19CHTO   H73 7886   3.653   7.678   0.728
   19CHTO   H74 7887   3.533   7.685   0.858
   19CHTO   C40 7888   3.838   7.516   0.852
   19CHTO   H82 7889   3.898   7.597   0.895
   19CHTO   O26 7890   3.879   7.387   0.899
   19CHTO   C41 7891   3.871   7.370   1.043
   19CHTO   H83 7892   3.936   7.443   1.093
   19CHTO   C52 7893   3.927   7.229   1.074
   19CHTO   O35 7894   3.855   7.118   1.002
   19CHTO   H71 7895   3.869   7.126   0.909
   19CHTO   O28 7896   3.863   7.506   0.710
   19CHTO   C42 7897   3.995   7.545   0.659
   19CHTO   H84 7898   4.056   7.565   0.747
   19CHTO   C44 7899   3.995   7.678   0.576
   19CHTO   H86 7900   3.933   7.663   0.487
   19CHTO   O32 7901   3.936   7.781   0.657
   19CHTO   H69 7902   3.844   7.763   0.671
   19CHTO   C48 7903   4.141   7.719   0.529
   19CHTO   H90 7904   4.195   7.753   0.618
   19CHTO    N9 7905   4.140   7.836   0.435
   19CHTO   H77 7906   4.242   7.863   0.409
   19CHTO   H78 7907   4.084   7.812   0.347
   19CHTO   C51 7908   4.218   7.595   0.470
   19CHTO   H93 7909   4.179   7.574   0.370
   19CHTO   O30 7910   4.206   7.482   0.557
   19CHTO   C46 7911   4.068   7.435   0.577
   19CHTO   H88 7912   4.020   7.422   0.480
   19CHTO   C53 7913   4.081   7.298   0.650
   19CHTO   O72 7914   3.956   7.230   0.661
   19CHTO  H199 7915   3.968   7.149   0.705
   19CHTO   O22 7916   4.360   7.623   0.463
   19CHTO   C31 7917   4.453   7.522   0.409
   19CHTO   H59 7918   4.398   7.426   0.406
   19CHTO   C29 7919   4.501   7.552   0.266
   19CHTO   H57 7920   4.552   7.649   0.268
   19CHTO   O21 7921   4.385   7.568   0.181
   19CHTO   H37 7922   4.339   7.486   0.172
   19CHTO   C27 7923   4.601   7.441   0.212
   19CHTO   H55 7924   4.545   7.347   0.200
   19CHTO    N5 7925   4.659   7.479   0.081
   19CHTO   H43 7926   4.628   7.408   0.005
   19CHTO   H44 7927   4.766   7.485   0.085
   19CHTO   C25 7928   4.712   7.410   0.320
   19CHTO   H53 7929   4.784   7.494   0.324
   19CHTO   O17 7930   4.657   7.391   0.453
   19CHTO   C32 7931   4.576   7.499   0.502
   19CHTO   H60 7932   4.636   7.591   0.504
   19CHTO   C36 7933   4.534   7.468   0.648
   19CHTO   O25 7934   4.463   7.344   0.658
   19CHTO   H40 7935   4.440   7.328   0.747
   19CHTO   O15 7936   4.790   7.277   0.284
   19CHTO   C19 7937   4.869   7.214   0.180
   19CHTO   H47 7938   4.823   7.248   0.087
   19CHTO   C20 7939   5.019   7.257   0.178
   19CHTO   H48 7940   5.072   7.224   0.269
   19CHTO   O19 7941   5.022   7.401   0.175
   19CHTO   H35 7942   4.985   7.433   0.095
   19CHTO   C21 7943   5.093   7.194   0.054
   19CHTO   H49 7944   5.049   7.235   2.821
   19CHTO    N4 7945   5.238   7.226   0.048
   19CHTO   H41 7946   5.283   7.182   2.818
   19CHTO   H42 7947   5.288   7.187   0.136
   19CHTO   C22 7948   5.067   7.040   0.051
   19CHTO   H50 7949   5.123   6.994   0.132
   19CHTO   O14 7950   4.927   7.009   0.061
   19CHTO   C23 7951   4.860   7.058   0.178
   19CHTO   H51 7952   4.908   7.013   0.267
   19CHTO   C34 7953   4.715   7.008   0.170
   19CHTO   O23 7954   4.642   7.032   0.290
   19CHTO   H38 7955   4.555   6.998   0.282
   19CHTO   O16 7956   5.103   6.986   2.781
   19CHTO   C24 7957   5.143   6.824   2.756
   19CHTO   H52 7958   5.250   6.805   2.770
   19CHTO   C26 7959   5.106   6.798   2.608
   19CHTO   H54 7960   4.997   6.818   2.595
   19CHTO   O20 7961   5.178   6.892   2.527
   19CHTO   H36 7962   5.147   6.979   2.542
   19CHTO   C30 7963   5.134   6.650   2.567
   19CHTO   H58 7964   5.241   6.628   2.576
   19CHTO    N6 7965   5.098   6.625   2.424
   19CHTO   H45 7966   5.020   6.549   2.416
   19CHTO   H46 7967   5.184   6.592   2.369
   19CHTO   C33 7968   5.060   6.555   2.666
   19CHTO   H61 7969   4.952   6.568   2.655
   19CHTO   O18 7970   5.096   6.588   2.801
   19CHTO   C28 7971   5.068   6.721   2.847
   19CHTO   H56 7972   4.961   6.742   2.842
   19CHTO   C35 7973   5.114   6.725   0.136
   19CHTO   O24 7974   5.035   6.641   0.221
   19CHTO   H39 7975   5.067   6.646   0.309
   19CHTO    O9 7976   5.087   6.416   2.637
   19CHTO   C13 7977   4.965   6.315   2.680
   19CHTO   H26 7978   4.870   6.360   2.643
   19CHTO   C11 7979   4.964   6.297   2.838
   19CHTO   H24 7980   4.936   6.393   0.025
   19CHTO    O8 7981   5.095   6.262   0.028
   19CHTO    H3 7982   5.155   6.332   0.013
   19CHTO    C9 7983   4.855   6.191   0.013
   19CHTO   H22 7984   4.763   6.229   2.825
   19CHTO    N2 7985   4.821   6.185   0.158
   19CHTO   H10 7986   4.892   6.241   0.217
   19CHTO   H11 7987   4.816   6.083   0.192
   19CHTO    C7 7988   4.891   6.053   2.802
   19CHTO   H20 7989   4.796   6.024   2.753
   19CHTO    O4 7990   4.994   6.065   2.701
   19CHTO   C14 7991   4.976   6.172   2.608
   19CHTO   H27 7992   4.881   6.154   2.552
   19CHTO   C18 7993   5.091   6.162   2.504
   19CHTO   O13 7994   5.069   6.252   2.395
   19CHTO    H7 7995   5.141   6.244   2.334
   19CHTO    O2 7996   4.936   5.935   0.050
   19CHTO    C1 7997   4.903   5.800   0.016
   19CHTO   H14 7998   4.926   5.782   2.766
   19CHTO    C2 7999   4.750   5.760   0.041
   19CHTO   H15 8000   4.727   5.796   0.143
   19CHTO    O6 8001   4.666   5.828   2.805
   19CHTO    H1 8002   4.668   5.921   2.819
   19CHTO    C3 8003   4.728   5.601   0.033
   19CHTO   H16 8004   4.746   5.568   2.788
   19CHTO    N1 8005   4.588   5.560   0.071
   19CHTO    H8 8006   4.541   5.509   2.846
   19CHTO    H9 8007   4.529   5.645   0.099
   19CHTO    C4 8008   4.837   5.529   0.121
   19CHTO   H17 8009   4.823   5.557   0.225
   19CHTO    O1 8010   4.967   5.569   0.076
   19CHTO    C5 8011   4.997   5.707   0.098
   19CHTO   H18 8012   4.982   5.731   0.204
   19CHTO   C16 8013   5.146   5.731   0.062
   19CHTO   O11 8014   5.232   5.661   0.153
   19CHTO    H5 8015   5.321   5.676   0.128
   19CHTO    O3 8016   4.839   5.385   0.106
   19CHTO    C6 8017   4.832   5.306   0.230
   19CHTO   H19 8018   4.800   5.364   0.317
   19CHTO    C8 8019   4.729   5.190   0.211
   19CHTO   H21 8020   4.755   5.135   0.121
   19CHTO    O7 8021   4.599   5.249   0.195
   19CHTO    H2 8022   4.572   5.294   0.273
   19CHTO   C12 8023   4.733   5.090   0.334
   19CHTO   H25 8024   4.695   5.146   0.422
   19CHTO    N3 8025   4.639   4.974   0.315
   19CHTO   H12 8026   4.538   5.009   0.306
   19CHTO   H13 8027   4.667   4.917   0.227
   19CHTO   C15 8028   4.881   5.046   0.362
   19CHTO   H28 8029   4.920   4.983   0.282
   19CHTO   O10 8030   4.897   4.972   0.497
   19CHTO    H4 8031   4.859   5.022   0.566
   19CHTO    O5 8032   4.964   5.161   0.381
   19CHTO   C10 8033   4.972   5.247   0.266
   19CHTO   H23 8034   5.010   5.189   0.181
   19CHTO   C17 8035   5.077   5.355   0.297
   19CHTO   O12 8036   5.208   5.299   0.312
   19CHTO    H6 8037   5.212   5.247   0.390
   20CHTO  H203 8038   4.729   1.044   1.662
   20CHTO   O82 8039   4.813   1.085   1.665
   20CHTO  C123 8040   4.820   1.191   1.569
   20CHTO  H227 8041   4.742   1.265   1.592
   20CHTO   O77 8042   4.952   1.249   1.595
   20CHTO  C118 8043   4.982   1.366   1.517
   20CHTO  H222 8044   4.906   1.443   1.534
   20CHTO  C125 8045   5.121   1.420   1.564
   20CHTO   O84 8046   5.117   1.465   1.700
   20CHTO  H205 8047   5.104   1.392   1.758
   20CHTO  C114 8048   4.985   1.329   1.367
   20CHTO  H218 8049   5.063   1.255   1.351
   20CHTO  C116 8050   4.849   1.264   1.324
   20CHTO  H220 8051   4.769   1.341   1.330
   20CHTO   O79 8052   4.857   1.226   1.186
   20CHTO  H201 8053   4.921   1.159   1.174
   20CHTO  C120 8054   4.813   1.143   1.419
   20CHTO  H224 8055   4.890   1.065   1.402
   20CHTO   N21 8056   4.681   1.082   1.388
   20CHTO  H211 8057   4.692   1.004   1.314
   20CHTO  H212 8058   4.611   1.158   1.354
   20CHTO   O75 8059   5.015   1.452   1.298
   20CHTO  C112 8060   5.123   1.432   1.173
   20CHTO  H216 8061   5.094   1.343   1.114
   20CHTO   O73 8062   5.254   1.419   1.230
   20CHTO  C113 8063   5.358   1.391   1.135
   20CHTO  H217 8064   5.333   1.297   1.080
   20CHTO  C124 8065   5.486   1.368   1.215
   20CHTO   O83 8066   5.591   1.310   1.137
   20CHTO  H204 8067   5.666   1.296   1.192
   20CHTO  C109 8068   5.371   1.510   1.034
   20CHTO  H213 8069   5.407   1.597   1.092
   20CHTO  C110 8070   5.233   1.542   0.969
   20CHTO  H214 8071   5.207   1.461   0.901
   20CHTO   O78 8072   5.247   1.662   0.890
   20CHTO  H200 8073   5.303   1.646   0.816
   20CHTO  C111 8074   5.122   1.558   1.078
   20CHTO  H215 8075   5.146   1.647   1.139
   20CHTO   N19 8076   4.985   1.580   1.022
   20CHTO  H207 8077   4.987   1.580   0.914
   20CHTO  H208 8078   4.945   1.673   1.058
   20CHTO   O74 8079   5.470   1.478   0.931
   20CHTO  C115 8080   5.586   1.589   0.910
   20CHTO  H219 8081   5.571   1.676   0.975
   20CHTO   O76 8082   5.725   1.534   0.949
   20CHTO  C122 8083   5.763   1.420   0.871
   20CHTO  H226 8084   5.692   1.340   0.893
   20CHTO  C126 8085   5.901   1.371   0.926
   20CHTO   O85 8086   5.949   1.252   0.862
   20CHTO  H206 8087   5.969   1.270   0.772
   20CHTO  C121 8088   5.765   1.451   0.715
   20CHTO  H225 8089   5.869   1.439   0.677
   20CHTO   O81 8090   5.684   1.354   0.648
   20CHTO  H202 8091   5.695   1.361   0.555
   20CHTO  C119 8092   5.716   1.596   0.682
   20CHTO  H223 8093   5.796   1.662   0.718
   20CHTO  C117 8094   5.582   1.634   0.757
   20CHTO  H221 8095   5.493   1.586   0.717
   20CHTO   N20 8096   5.555   1.781   0.745
   20CHTO  H209 8097   5.460   1.806   0.791
   20CHTO  H210 8098   5.554   1.810   0.641
   20CHTO   O80 8099   5.715   1.630   0.527
   20CHTO  C103 8100   5.847   1.631   0.444
   20CHTO  H190 8101   5.934   1.615   0.507
   20CHTO  C101 8102   5.848   1.526   0.324
   20CHTO  H188 8103   5.745   1.513   0.291
   20CHTO   O68 8104   5.896   1.389   0.381
   20CHTO  H168 8105   5.986   1.394   0.405
   20CHTO   C99 8106   5.935   1.572   0.197
   20CHTO  H186 8107   6.043   1.566   0.224
   20CHTO   N17 8108   5.915   1.483   0.077
   20CHTO  H174 8109   5.884   1.540   2.849
   20CHTO  H175 8110   6.005   1.427   0.057
   20CHTO   C97 8111   5.907   1.721   0.168
   20CHTO  H184 8112   5.799   1.731   0.147
   20CHTO   O64 8113   5.947   1.796   0.284
   20CHTO  C104 8114   5.852   1.780   0.391
   20CHTO  H191 8115   5.753   1.810   0.357
   20CHTO  C108 8116   5.887   1.878   0.505
   20CHTO   O71 8117   6.017   1.854   0.561
   20CHTO  H171 8118   6.017   1.771   0.606
   20CHTO   O62 8119   5.982   1.774   0.056
   20CHTO   C91 8120   5.952   1.909   0.014
   20CHTO  H178 8121   5.912   1.964   0.099
   20CHTO   C92 8122   5.841   1.913   2.761
   20CHTO  H179 8123   5.876   1.855   2.674
   20CHTO   O66 8124   5.723   1.846   2.808
   20CHTO  H166 8125   5.688   1.890   0.026
   20CHTO   C93 8126   5.807   2.062   2.718
   20CHTO  H180 8127   5.754   2.109   2.802
   20CHTO   N16 8128   5.715   2.069   2.602
   20CHTO  H172 8129   5.693   2.172   2.578
   20CHTO  H173 8130   5.623   2.017   2.625
   20CHTO   C94 8131   5.938   2.146   2.689
   20CHTO  H181 8132   5.986   2.117   2.595
   20CHTO   O61 8133   6.036   2.126   2.793
   20CHTO   C95 8134   6.076   1.990   2.817
   20CHTO  H182 8135   6.111   1.946   2.724
   20CHTO  C106 8136   6.196   1.993   0.060
   20CHTO   O69 8137   6.256   1.863   0.076
   20CHTO  H169 8138   6.195   1.806   0.119
   20CHTO   O63 8139   5.905   2.307   2.692
   20CHTO   C96 8140   5.881   2.376   2.550
   20CHTO  H183 8141   5.822   2.309   2.488
   20CHTO   C98 8142   6.010   2.412   2.470
   20CHTO  H185 8143   6.078   2.469   2.535
   20CHTO   O67 8144   6.080   2.290   2.439
   20CHTO  H167 8145   6.112   2.250   2.517
   20CHTO  C102 8146   5.978   2.494   2.336
   20CHTO  H189 8147   5.933   2.422   2.266
   20CHTO   N18 8148   6.098   2.548   2.266
   20CHTO  H176 8149   6.189   2.521   2.318
   20CHTO  H177 8150   6.103   2.510   2.165
   20CHTO  C105 8151   5.873   2.606   2.362
   20CHTO  H192 8152   5.921   2.689   2.415
   20CHTO   O65 8153   5.762   2.562   2.442
   20CHTO  C100 8154   5.797   2.508   2.570
   20CHTO  H187 8155   5.859   2.581   2.624
   20CHTO  C107 8156   5.669   2.483   2.653
   20CHTO   O70 8157   5.603   2.606   2.684
   20CHTO  H170 8158   5.654   2.656   2.745
   20CHTO   O57 8159   5.818   2.654   2.214
   20CHTO   C85 8160   5.755   2.783   2.203
   20CHTO  H157 8161   5.724   2.813   2.306
   20CHTO   C83 8162   5.623   2.771   2.121
   20CHTO  H155 8163   5.556   2.703   2.175
   20CHTO   O56 8164   5.651   2.708   1.994
   20CHTO  H135 8165   5.571   2.693   1.948
   20CHTO   C81 8166   5.555   2.910   2.111
   20CHTO  H153 8167   5.538   2.947   2.212
   20CHTO   N14 8168   5.419   2.905   2.051
   20CHTO  H141 8169   5.358   2.836   2.105
   20CHTO  H142 8170   5.374   3.002   2.054
   20CHTO   C79 8171   5.651   3.012   2.037
   20CHTO  H151 8172   5.604   3.110   2.043
   20CHTO   O52 8173   5.778   3.022   2.109
   20CHTO   C86 8174   5.845   2.894   2.135
   20CHTO  H158 8175   5.880   2.861   2.035
   20CHTO   C90 8176   5.974   2.919   2.217
   20CHTO   O60 8177   5.945   2.981   2.343
   20CHTO  H138 8178   6.024   2.995   2.390
   20CHTO   O50 8179   5.674   2.981   1.899
   20CHTO   C73 8180   5.763   2.969   1.787
   20CHTO  H145 8181   5.822   2.876   1.795
   20CHTO   C74 8182   5.862   3.090   1.780
   20CHTO  H146 8183   5.918   3.091   1.875
   20CHTO   O54 8184   5.958   3.062   1.676
   20CHTO  H133 8185   6.013   2.990   1.701
   20CHTO   C75 8186   5.781   3.224   1.757
   20CHTO  H147 8187   5.720   3.242   1.846
   20CHTO   N13 8188   5.868   3.343   1.742
   20CHTO  H139 8189   5.928   3.356   1.831
   20CHTO  H140 8190   5.806   3.432   1.729
   20CHTO   C76 8191   5.681   3.208   1.632
   20CHTO  H148 8192   5.741   3.205   1.541
   20CHTO   O49 8193   5.603   3.085   1.640
   20CHTO   C77 8194   5.680   2.965   1.655
   20CHTO  H149 8195   5.747   2.953   1.570
   20CHTO   C88 8196   5.584   2.845   1.649
   20CHTO   O58 8197   5.658   2.715   1.652
   20CHTO  H136 8198   5.709   2.705   1.574
   20CHTO   O51 8199   5.568   3.333   1.628
   20CHTO   C78 8200   5.458   3.335   1.750
   20CHTO  H150 8201   5.491   3.271   1.835
   20CHTO   C80 8202   5.320   3.286   1.702
   20CHTO  H152 8203   5.287   3.350   1.617
   20CHTO   O55 8204   5.335   3.152   1.652
   20CHTO  H134 8205   5.254   3.122   1.614
   20CHTO   C84 8206   5.212   3.293   1.818
   20CHTO  H156 8207   5.242   3.222   1.895
   20CHTO   N15 8208   5.075   3.252   1.773
   20CHTO  H143 8209   5.040   3.318   1.696
   20CHTO  H144 8210   5.006   3.255   1.855
   20CHTO   C87 8211   5.210   3.435   1.881
   20CHTO  H159 8212   5.165   3.506   1.812
   20CHTO   O53 8213   5.352   3.481   1.914
   20CHTO   C82 8214   5.442   3.479   1.803
   20CHTO  H154 8215   5.403   3.543   1.724
   20CHTO   C89 8216   5.577   3.541   1.849
   20CHTO   O59 8217   5.632   3.474   1.963
   20CHTO  H137 8218   5.712   3.515   1.987
   20CHTO   O45 8219   5.120   3.438   2.025
   20CHTO   C67 8220   5.184   3.385   2.142
   20CHTO  H124 8221   5.242   3.297   2.114
   20CHTO   C65 8222   5.280   3.490   2.210
   20CHTO  H122 8223   5.271   3.582   2.151
   20CHTO   O44 8224   5.414   3.440   2.197
   20CHTO  H102 8225   5.476   3.505   2.222
   20CHTO   C63 8226   5.236   3.530   2.356
   20CHTO  H120 8227   5.138   3.577   2.350
   20CHTO   N11 8228   5.317   3.636   2.423
   20CHTO  H108 8229   5.324   3.722   2.359
   20CHTO  H109 8230   5.271   3.664   2.516
   20CHTO   C61 8231   5.217   3.398   2.441
   20CHTO  H118 8232   5.159   3.428   2.530
   20CHTO   O40 8233   5.138   3.296   2.372
   20CHTO   C68 8234   5.075   3.333   2.245
   20CHTO  H125 8235   4.999   3.411   2.264
   20CHTO   C72 8236   5.000   3.208   2.195
   20CHTO   O48 8237   4.915   3.235   2.083
   20CHTO  H105 8238   4.872   3.156   2.056
   20CHTO   O38 8239   5.341   3.335   2.479
   20CHTO   C55 8240   5.334   3.251   2.596
   20CHTO  H112 8241   5.229   3.220   2.614
   20CHTO   C56 8242   5.395   3.324   2.722
   20CHTO  H113 8243   5.499   3.351   2.697
   20CHTO   O42 8244   5.325   3.448   2.746
   20CHTO  H100 8245   5.235   3.431   2.766
   20CHTO   C57 8246   5.392   3.229   2.849
   20CHTO  H114 8247   5.287   3.218   0.018
   20CHTO   N10 8248   5.461   3.285   0.110
   20CHTO  H106 8249   5.454   3.393   0.111
   20CHTO  H107 8250   5.416   3.246   0.200
   20CHTO   C58 8251   5.449   3.089   2.814
   20CHTO  H115 8252   5.560   3.095   2.805
   20CHTO   O37 8253   5.394   3.036   2.692
   20CHTO   C59 8254   5.413   3.118   2.576
   20CHTO  H116 8255   5.519   3.139   2.562
   20CHTO   C70 8256   5.365   3.042   2.452
   20CHTO   O46 8257   5.226   3.007   2.454
   20CHTO  H103 8258   5.174   3.084   2.449
   20CHTO   O39 8259   5.406   2.983   0.072
   20CHTO   C60 8260   5.494   2.870   0.087
   20CHTO  H117 8261   5.532   2.840   2.847
   20CHTO   C62 8262   5.615   2.903   0.179
   20CHTO  H119 8263   5.673   2.982   0.127
   20CHTO   O43 8264   5.568   2.956   0.305
   20CHTO  H101 8265   5.528   3.040   0.292
   20CHTO   C66 8266   5.708   2.773   0.197
   20CHTO  H123 8267   5.740   2.739   0.098
   20CHTO   N12 8268   5.833   2.802   0.273
   20CHTO  H110 8269   5.892   2.875   0.219
   20CHTO  H111 8270   5.809   2.837   0.372
   20CHTO   C69 8271   5.624   2.659   0.260
   20CHTO  H126 8272   5.585   2.691   0.360
   20CHTO   O41 8273   5.504   2.628   0.165
   20CHTO   C64 8274   5.413   2.749   0.142
   20CHTO  H121 8275   5.366   2.779   0.239
   20CHTO   C71 8276   5.299   2.710   0.045
   20CHTO   O47 8277   5.218   2.607   0.101
   20CHTO  H104 8278   5.149   2.585   0.041
   20CHTO   O34 8279   5.709   2.526   0.281
   20CHTO   C49 8280   5.660   2.389   0.333
   20CHTO   H91 8281   5.586   2.355   0.260
   20CHTO   C47 8282   5.591   2.403   0.471
   20CHTO   H89 8283   5.488   2.438   0.449
   20CHTO   O33 8284   5.657   2.502   0.552
   20CHTO   H70 8285   5.605   2.522   0.628
   20CHTO   C45 8286   5.590   2.263   0.553
   20CHTO   H87 8287   5.682   2.260   0.615
   20CHTO    N8 8288   5.474   2.257   0.646
   20CHTO   H75 8289   5.383   2.250   0.589
   20CHTO   H76 8290   5.483   2.170   0.710
   20CHTO   C43 8291   5.605   2.137   0.455
   20CHTO   H85 8292   5.606   2.048   0.518
   20CHTO   O29 8293   5.727   2.149   0.378
   20CHTO   C50 8294   5.771   2.281   0.342
   20CHTO   H92 8295   5.845   2.315   0.416
   20CHTO   C54 8296   5.852   2.273   0.210
   20CHTO   O36 8297   5.972   2.198   0.229
   20CHTO   H72 8298   6.021   2.195   0.149
   20CHTO   O27 8299   5.492   2.124   0.367
   20CHTO   C37 8300   5.408   2.067   0.266
   20CHTO   H79 8301   5.306   2.054   0.306
   20CHTO   C38 8302   5.397   2.163   0.143
   20CHTO   H80 8303   5.499   2.189   0.111
   20CHTO   O31 8304   5.331   2.283   0.189
   20CHTO   H68 8305   5.330   2.347   0.120
   20CHTO   C39 8306   5.319   2.096   0.024
   20CHTO   H81 8307   5.215   2.083   0.056
   20CHTO    N7 8308   5.316   2.180   2.756
   20CHTO   H73 8309   5.214   2.203   2.729
   20CHTO   H74 8310   5.371   2.272   2.770
   20CHTO   C40 8311   5.376   1.952   2.852
   20CHTO   H82 8312   5.476   1.960   2.809
   20CHTO   O26 8313   5.377   1.875   0.116
   20CHTO   C41 8314   5.462   1.929   0.220
   20CHTO   H83 8315   5.565   1.940   0.183
   20CHTO   C52 8316   5.464   1.827   0.336
   20CHTO   O35 8317   5.518   1.695   0.293
   20CHTO   H71 8318   5.517   1.636   0.366
   20CHTO   O28 8319   5.292   1.876   2.763
   20CHTO   C42 8320   5.342   1.758   2.690
   20CHTO   H84 8321   5.252   1.716   2.646
   20CHTO   C44 8322   5.405   1.644   2.777
   20CHTO   H86 8323   5.489   1.685   2.834
   20CHTO   O32 8324   5.303   1.602   0.012
   20CHTO   H69 8325   5.338   1.538   0.071
   20CHTO   C48 8326   5.460   1.525   2.689
   20CHTO   H90 8327   5.375   1.476   2.640
   20CHTO    N9 8328   5.526   1.419   2.772
   20CHTO   H77 8329   5.563   1.339   2.709
   20CHTO   H78 8330   5.456   1.379   2.844
   20CHTO   C51 8331   5.555   1.583   2.579
   20CHTO   H93 8332   5.638   1.632   2.629
   20CHTO   O30 8333   5.480   1.674   2.497
   20CHTO   C46 8334   5.437   1.797   2.573
   20CHTO   H88 8335   5.525   1.847   2.612
   20CHTO   C53 8336   5.365   1.890   2.472
   20CHTO   O72 8337   5.455   1.934   2.370
   20CHTO  H199 8338   5.410   1.991   2.310
   20CHTO   O22 8339   5.602   1.484   2.485
   20CHTO   C31 8340   5.741   1.477   2.433
   20CHTO   H59 8341   5.731   1.450   2.326
   20CHTO   C29 8342   5.824   1.608   2.439
   20CHTO   H57 8343   5.833   1.638   2.544
   20CHTO   O21 8344   5.749   1.711   2.372
   20CHTO   H37 8345   5.791   1.794   2.383
   20CHTO   C27 8346   5.969   1.588   2.378
   20CHTO   H55 8347   5.959   1.561   2.272
   20CHTO    N5 8348   6.052   1.710   2.389
   20CHTO   H43 8349   6.004   1.792   2.339
   20CHTO   H44 8350   6.149   1.692   2.344
   20CHTO   C25 8351   6.036   1.466   2.451
   20CHTO   H53 8352   6.049   1.490   2.558
   20CHTO   O17 8353   5.951   1.348   2.440
   20CHTO   C32 8354   5.821   1.361   2.499
   20CHTO   H60 8355   5.832   1.381   2.606
   20CHTO   C36 8356   5.747   1.226   2.482
   20CHTO   O25 8357   5.812   1.120   2.553
   20CHTO   H40 8358   5.804   1.133   2.645
   20CHTO   O15 8359   6.174   1.430   2.391
   20CHTO   C19 8360   6.309   1.430   2.337
   20CHTO   H47 8361   6.302   1.495   2.249
   20CHTO   C20 8362   6.418   1.488   2.432
   20CHTO   H48 8363   6.428   1.428   2.524
   20CHTO   O19 8364   6.377   1.620   2.470
   20CHTO   H35 8365   6.300   1.616   2.524
   20CHTO   C21 8366   6.559   1.490   2.360
   20CHTO   H49 8367   6.553   1.558   2.274
   20CHTO    N4 8368   6.669   1.540   2.447
   20CHTO   H41 8369   6.647   1.641   2.479
   20CHTO   H42 8370   6.762   1.540   2.392
   20CHTO   C22 8371   6.588   1.348   2.303
   20CHTO   H50 8372   6.598   1.280   2.387
   20CHTO   O14 8373   6.481   1.304   2.217
   20CHTO   C23 8374   6.355   1.290   2.286
   20CHTO   H51 8375   6.371   1.219   2.369
   20CHTO   C34 8376   6.252   1.225   2.193
   20CHTO   O23 8377   6.217   1.310   2.083
   20CHTO   H38 8378   6.154   1.267   2.029
   20CHTO   O16 8379   6.707   1.345   2.221
   20CHTO   C24 8380   6.769   1.197   2.210
   20CHTO   H52 8381   6.693   1.120   2.219
   20CHTO   C26 8382   6.873   1.177   2.323
   20CHTO   H54 8383   6.923   1.275   2.343
   20CHTO   O20 8384   6.806   1.145   2.446
   20CHTO   H36 8385   6.753   1.217   2.475
   20CHTO   C30 8386   6.980   1.067   2.293
   20CHTO   H58 8387   6.993   1.003   2.382
   20CHTO    N6 8388   7.116   1.121   2.267
   20CHTO   H45 8389   7.117   1.229   2.274
   20CHTO   H46 8390   7.151   1.092   2.168
   20CHTO   C33 8391   6.929   0.971   2.181
   20CHTO   H61 8392   7.007   0.898   2.154
   20CHTO   O18 8393   6.887   1.041   2.061
   20CHTO   C28 8394   6.839   1.177   2.073
   20CHTO   H56 8395   6.923   1.246   2.065
   20CHTO   C35 8396   6.744   1.210   1.955
   20CHTO   O24 8397   6.624   1.133   1.951
   20CHTO   H39 8398   6.570   1.154   2.025
   20CHTO    O9 8399   6.822   0.894   2.238
   20CHTO   C13 8400   6.761   0.778   2.148
   20CHTO   H26 8401   6.829   0.761   2.062
   20CHTO   C11 8402   6.616   0.823   2.101
   20CHTO   H24 8403   6.630   0.904   2.027
   20CHTO    O8 8404   6.542   0.878   2.212
   20CHTO    H3 8405   6.585   0.954   2.245
   20CHTO    C9 8406   6.547   0.704   2.031
   20CHTO   H22 8407   6.613   0.675   1.948
   20CHTO    N2 8408   6.419   0.740   1.965
   20CHTO   H10 8409   6.434   0.822   1.897
   20CHTO   H11 8410   6.380   0.654   1.911
   20CHTO    C7 8411   6.537   0.583   2.131
   20CHTO   H20 8412   6.492   0.501   2.071
   20CHTO    O4 8413   6.668   0.542   2.175
   20CHTO   C14 8414   6.758   0.641   2.229
   20CHTO   H27 8415   6.860   0.597   2.221
   20CHTO   C18 8416   6.731   0.662   2.381
   20CHTO   O13 8417   6.757   0.543   2.456
   20CHTO    H7 8418   6.849   0.526   2.459
   20CHTO    O2 8419   6.443   0.616   2.263
   20CHTO    C1 8420   6.357   0.512   2.315
   20CHTO   H14 8421   6.336   0.537   2.421
   20CHTO    C2 8422   6.413   0.364   2.308
   20CHTO   H15 8423   6.437   0.343   2.202
   20CHTO    O6 8424   6.534   0.357   2.387
   20CHTO    H1 8425   6.574   0.273   2.377
   20CHTO    C3 8426   6.304   0.259   2.361
   20CHTO   H16 8427   6.295   0.272   2.470
   20CHTO    N1 8428   6.346   0.118   2.336
   20CHTO    H8 8429   6.439   0.097   2.388
   20CHTO    H9 8430   6.360   0.100   2.231
   20CHTO    C4 8431   6.160   0.289   2.303
   20CHTO   H17 8432   6.155   0.253   2.200
   20CHTO    O1 8433   6.127   0.428   2.308
   20CHTO    C5 8434   6.219   0.517   2.243
   20CHTO   H18 8435   6.233   0.486   2.139
   20CHTO   C16 8436   6.158   0.659   2.244
   20CHTO   O11 8437   6.041   0.667   2.162
   20CHTO    H5 8438   5.972   0.617   2.200
   20CHTO    O3 8439   6.061   0.224   2.385
   20CHTO    C6 8440   5.928   0.210   2.324
   20CHTO   H19 8441   5.917   0.270   2.234
   20CHTO    C8 8442   5.901   0.061   2.285
   20CHTO   H21 8443   5.916   9.999   2.374
   20CHTO    O7 8444   5.997   0.025   2.185
   20CHTO    H2 8445   5.990   9.934   2.164
   20CHTO   C12 8446   5.752   0.043   2.234
   20CHTO   H25 8447   5.744   0.099   2.139
   20CHTO    N3 8448   5.721   9.899   2.203
   20CHTO   H12 8449   5.619   9.890   2.169
   20CHTO   H13 8450   5.789   9.863   2.127
   20CHTO   C15 8451   5.653   0.107   2.338
   20CHTO   H28 8452   5.648   0.049   2.431
   20CHTO   O10 8453   5.512   0.124   2.282
   20CHTO    H4 8454   5.474   0.040   2.265
   20CHTO    O5 8455   5.688   0.243   2.366
   20CHTO   C10 8456   5.819   0.258   2.424
   20CHTO   H23 8457   5.824   0.200   2.516
   20CHTO   C17 8458   5.837   0.406   2.462
   20CHTO   O12 8459   5.743   0.446   2.563
   20CHTO    H6 8460   5.756   0.537   2.582
   21GLOH   H03 8461   2.809   8.856   1.530
   21GLOH    O1 8462   2.733   8.792   1.520
   21GLOH    C1 8463   2.748   8.723   1.395
   21GLOH   H02 8464   2.814   8.637   1.408
   21GLOH   H08 8465   2.797   8.789   1.323
   21GLOH    C2 8466   2.616   8.674   1.331
   21GLOH   H04 8467   2.546   8.758   1.329
   21GLOH    O2 8468   2.640   8.628   1.196
   21GLOH   H05 8469   2.738   8.624   1.179
   21GLOH    C3 8470   2.551   8.560   1.412
   21GLOH   H06 8471   2.624   8.480   1.425
   21GLOH   H07 8472   2.470   8.518   1.353
   21GLOH    O3 8473   2.500   8.601   1.540
   21GLOH   H01 8474   2.424   8.662   1.523
   22GLOH   H03 8475   2.653   8.054   0.020
   22GLOH    O1 8476   2.669   8.002   0.101
   22GLOH    C1 8477   2.585   7.884   0.098
   22GLOH   H02 8478   2.623   7.809   0.167
   22GLOH   H08 8479   2.585   7.839   2.857
   22GLOH    C2 8480   2.439   7.916   0.137
   22GLOH   H04 8481   2.402   7.997   0.072
   22GLOH    O2 8482   2.357   7.799   0.117
   22GLOH   H05 8483   2.384   7.726   0.180
   22GLOH    C3 8484   2.434   7.965   0.282
   22GLOH   H06 8485   2.463   7.883   0.349
   22GLOH   H07 8486   2.331   7.992   0.307
   22GLOH    O3 8487   2.522   8.077   0.300
   22GLOH   H01 8488   2.596   8.064   0.236
   23GLOH   H03 8489   3.512   5.015   2.785
   23GLOH    O1 8490   3.452   5.071   2.731
   23GLOH    C1 8491   3.374   5.154   2.817
   23GLOH   H02 8492   3.438   5.216   0.022
   23GLOH   H08 8493   3.313   5.093   0.026
   23GLOH    C2 8494   3.280   5.247   2.738
   23GLOH   H04 8495   3.212   5.184   2.678
   23GLOH    O2 8496   3.201   5.326   2.830
   23GLOH   H05 8497   3.120   5.357   2.785
   23GLOH    C3 8498   3.362   5.335   2.642
   23GLOH   H06 8499   3.410   5.271   2.569
   23GLOH   H07 8500   3.441   5.384   2.699
   23GLOH    O3 8501   3.282   5.435   2.575
   23GLOH   H01 8502   3.259   5.503   2.641
   24GLOH   H03 8503   4.757   1.611   2.297
   24GLOH    O1 8504   4.832   1.547   2.304
   24GLOH    C1 8505   4.841   1.494   2.438
   24GLOH   H02 8506   4.910   1.410   2.441
   24GLOH   H08 8507   4.744   1.455   2.469
   24GLOH    C2 8508   4.887   1.600   2.539
   24GLOH   H04 8509   4.816   1.684   2.536
   24GLOH    O2 8510   4.890   1.546   2.673
   24GLOH   H05 8511   4.902   1.618   2.737
   24GLOH    C3 8512   5.026   1.653   2.500
   24GLOH   H06 8513   5.100   1.573   2.511
   24GLOH   H07 8514   5.053   1.733   2.569
   24GLOH    O3 8515   5.026   1.703   2.366
   24GLOH   H01 8516   4.966   1.644   2.314
   25GLOH   H03 8517   3.922   1.645   1.106
   25GLOH    O1 8518   3.985   1.715   1.136
   25GLOH    C1 8519   4.032   1.677   1.267
   25GLOH   H02 8520   4.135   1.712   1.283
   25GLOH   H08 8521   4.034   1.568   1.278
   25GLOH    C2 8522   3.943   1.736   1.377
   25GLOH   H04 8523   3.840   1.703   1.358
   25GLOH    O2 8524   3.982   1.690   1.508
   25GLOH   H05 8525   3.919   1.615   1.532
   25GLOH    C3 8526   3.946   1.890   1.368
   25GLOH   H06 8527   4.050   1.923   1.376
   25GLOH   H07 8528   3.892   1.932   1.453
   25GLOH    O3 8529   3.889   1.935   1.244
   25GLOH   H01 8530   3.924   1.874   1.175
   26GLOH   H03 8531   5.063   2.720   1.557
   26GLOH    O1 8532   4.992   2.719   1.625
   26GLOH    C1 8533   4.920   2.844   1.615
   26GLOH   H02 8534   4.972   2.923   1.668
   26GLOH   H08 8535   4.822   2.833   1.661
   26GLOH    C2 8536   4.900   2.888   1.468
   26GLOH   H04 8537   4.844   2.810   1.415
   26GLOH    O2 8538   4.827   3.012   1.460
   26GLOH   H05 8539   4.754   3.013   1.529
   26GLOH    C3 8540   5.038   2.903   1.402
   26GLOH   H06 8541   5.094   2.977   1.458
   26GLOH   H07 8542   5.025   2.943   1.301
   26GLOH    O3 8543   5.109   2.778   1.397
   26GLOH   H01 8544   5.064   2.721   1.329
   27GLOH   H03 8545   4.199   3.335   1.746
   27GLOH    O1 8546   4.288   3.358   1.787
   27GLOH    C1 8547   4.310   3.499   1.776
   27GLOH   H02 8548   4.281   3.535   1.676
   27GLOH   H08 8549   4.416   3.521   1.787
   27GLOH    C2 8550   4.234   3.582   1.881
   27GLOH   H04 8551   4.264   3.547   1.981
   27GLOH    O2 8552   4.269   3.721   1.867
   27GLOH   H05 8553   4.263   3.763   1.958
   27GLOH    C3 8554   4.081   3.561   1.867
   27GLOH   H06 8555   4.061   3.454   1.870
   27GLOH   H07 8556   4.052   3.596   1.768
   27GLOH    O3 8557   4.004   3.628   1.968
   27GLOH   H01 8558   4.037   3.596   2.056
   28GLOH   H03 8559   3.104   0.587   2.168
   28GLOH    O1 8560   3.038   0.515   2.147
   28GLOH    C1 8561   2.925   0.575   2.082
   28GLOH   H02 8562   2.937   0.572   1.973
   28GLOH   H08 8563   2.914   0.680   2.110
   28GLOH    C2 8564   2.794   0.503   2.118
   28GLOH   H04 8565   2.781   0.506   2.227
   28GLOH    O2 8566   2.682   0.568   2.055
   28GLOH   H05 8567   2.613   0.587   2.125
   28GLOH    C3 8568   2.804   0.355   2.076
   28GLOH   H06 8569   2.811   0.349   1.968
   28GLOH   H07 8570   2.712   0.304   2.106
   28GLOH    O3 8571   2.918   0.292   2.138
   28GLOH   H01 8572   2.980   0.368   2.157
   29GLOH   H03 8573   3.544   1.349   1.975
   29GLOH    O1 8574   3.564   1.301   1.890
   29GLOH    C1 8575   3.471   1.191   1.881
   29GLOH   H02 8576   3.375   1.227   1.842
   29GLOH   H08 8577   3.450   1.150   1.980
   29GLOH    C2 8578   3.523   1.078   1.791
   29GLOH   H04 8579   3.568   1.124   1.702
   29GLOH    O2 8580   3.624   0.999   1.858
   29GLOH   H05 8581   3.695   0.978   1.789
   29GLOH    C3 8582   3.407   0.990   1.743
   29GLOH   H06 8583   3.354   0.950   1.830
   29GLOH   H07 8584   3.448   0.904   1.689
   29GLOH    O3 8585   3.318   1.065   1.659
   29GLOH   H01 8586   3.261   1.000   1.609
   30GLOH   H03 8587   5.222   3.842   0.368
   30GLOH    O1 8588   5.232   3.860   0.465
   30GLOH    C1 8589   5.157   3.760   0.537
   30GLOH   H02 8590   5.065   3.736   0.484
   30GLOH   H08 8591   5.128   3.799   0.635
   30GLOH    C2 8592   5.237   3.630   0.559
   30GLOH   H04 8593   5.316   3.652   0.632
   30GLOH    O2 8594   5.153   3.526   0.613
   30GLOH   H05 8595   5.210   3.444   0.630
   30GLOH    C3 8596   5.307   3.586   0.428
   30GLOH   H06 8597   5.353   3.489   0.445
   30GLOH   H07 8598   5.389   3.656   0.408
   30GLOH    O3 8599   5.218   3.580   0.315
   30GLOH   H01 8600   5.152   3.509   0.333
   31GLOH   H03 8601   4.947   2.444   2.849
   31GLOH    O1 8602   4.954   2.421   2.752
   31GLOH    C1 8603   4.832   2.458   2.685
   31GLOH   H02 8604   4.829   2.565   2.668
   31GLOH   H08 8605   4.746   2.433   2.747
   31GLOH    C2 8606   4.817   2.386   2.549
   31GLOH   H04 8607   4.820   2.278   2.567
   31GLOH    O2 8608   4.691   2.420   2.488
   31GLOH   H05 8609   4.621   2.364   2.526
   31GLOH    C3 8610   4.934   2.423   2.456
   31GLOH   H06 8611   4.926   2.528   2.429
   31GLOH   H07 8612   4.926   2.365   2.364
   31GLOH    O3 8613   5.060   2.396   2.520
   31GLOH   H01 8614   5.044   2.404   2.617
   32GLOH   H03 8615   3.009   9.611   1.418
   32GLOH    O1 8616   2.919   9.603   1.459
   32GLOH    C1 8617   2.897   9.464   1.491
   32GLOH   H02 8618   2.952   9.438   1.582
   32GLOH   H08 8619   2.935   9.400   1.412
   32GLOH    C2 8620   2.749   9.430   1.515
   32GLOH   H04 8621   2.711   9.497   1.594
   32GLOH    O2 8622   2.669   9.446   1.396
   32GLOH   H05 8623   2.714   9.512   1.335
   32GLOH    C3 8624   2.738   9.285   1.568
   32GLOH   H06 8625   2.633   9.263   1.589
   32GLOH   H07 8626   2.791   9.280   1.664
   32GLOH    O3 8627   2.792   9.189   1.476
   32GLOH   H01 8628   2.736   9.187   1.395
   33GLOH   H03 8629   2.384   5.307   1.467
   33GLOH    O1 8630   2.427   5.309   1.556
   33GLOH    C1 8631   2.327   5.350   1.651
   33GLOH   H02 8632   2.352   5.313   1.751
   33GLOH   H08 8633   2.230   5.308   1.625
   33GLOH    C2 8634   2.312   5.503   1.657
   33GLOH   H04 8635   2.290   5.538   1.555
   33GLOH    O2 8636   2.200   5.538   1.741
   33GLOH   H05 8637   2.212   5.506   1.835
   33GLOH    C3 8638   2.445   5.568   1.701
   33GLOH   H06 8639   2.522   5.540   1.629
   33GLOH   H07 8640   2.474   5.524   1.796
   33GLOH    O3 8641   2.438   5.711   1.711
   33GLOH   H01 8642   2.519   5.751   1.669
   34GLOH   H03 8643   3.202   3.807   0.758
   34GLOH    O1 8644   3.130   3.808   0.827
   34GLOH    C1 8645   3.173   3.731   0.941
   34GLOH   H02 8646   3.185   3.627   0.913
   34GLOH   H08 8647   3.096   3.734   1.019
   34GLOH    C2 8648   3.305   3.781   1.004
   34GLOH   H04 8649   3.385   3.770   0.929
   34GLOH    O2 8650   3.296   3.919   1.043
   34GLOH   H05 8651   3.225   3.932   1.113
   34GLOH    C3 8652   3.343   3.695   1.126
   34GLOH   H06 8653   3.267   3.710   1.204
   34GLOH   H07 8654   3.437   3.733   1.167
   34GLOH    O3 8655   3.356   3.555   1.096
   34GLOH   H01 8656   3.318   3.503   1.171
   35GLOH   H03 8657   2.950   5.984   1.116
   35GLOH    O1 8658   2.968   5.900   1.065
   35GLOH    C1 8659   2.911   5.787   1.134
   35GLOH   H02 8660   2.895   5.705   1.065
   35GLOH   H08 8661   2.814   5.813   1.175
   35GLOH    C2 8662   3.003   5.737   1.247
   35GLOH   H04 8663   3.029   5.823   1.311
   35GLOH    O2 8664   2.940   5.635   1.328
   35GLOH   H05 8665   2.845   5.662   1.347
   35GLOH    C3 8666   3.133   5.682   1.186
   35GLOH   H06 8667   3.201   5.657   1.268
   35GLOH   H07 8668   3.180   5.762   1.130
   35GLOH    O3 8669   3.114   5.567   1.101
   35GLOH   H01 8670   3.195   5.510   1.116
   36GLOH   H03 8671   2.714   6.377   2.377
   36GLOH    O1 8672   2.674   6.438   2.310
   36GLOH    C1 8673   2.779   6.496   2.231
   36GLOH   H02 8674   2.810   6.426   2.152
   36GLOH   H08 8675   2.867   6.514   2.292
   36GLOH    C2 8676   2.737   6.629   2.165
   36GLOH   H04 8677   2.715   6.701   2.246
   36GLOH    O2 8678   2.841   6.686   2.082
   36GLOH   H05 8679   2.929   6.666   2.125
   36GLOH    C3 8680   2.606   6.608   2.085
   36GLOH   H06 8681   2.622   6.527   2.013
   36GLOH   H07 8682   2.582   6.697   2.028
   36GLOH    O3 8683   2.498   6.575   2.174
   36GLOH   H01 8684   2.537   6.512   2.239
   37GLOH   H03 8685   4.781   3.020   0.038
   37GLOH    O1 8686   4.814   3.000   0.129
   37GLOH    C1 8687   4.953   2.963   0.120
   37GLOH   H02 8688   4.964   2.874   0.058
   37GLOH   H08 8689   4.991   2.936   0.219
   37GLOH    C2 8690   5.043   3.074   0.062
   37GLOH   H04 8691   5.147   3.039   0.067
   37GLOH    O2 8692   5.010   3.102   2.783
   37GLOH   H05 8693   4.912   3.103   2.771
   37GLOH    C3 8694   5.032   3.202   0.147
   37GLOH   H06 8695   4.928   3.235   0.145
   37GLOH   H07 8696   5.090   3.280   0.098
   37GLOH    O3 8697   5.076   3.185   0.283
   37GLOH   H01 8698   5.062   3.272   0.328
   38GLOH   H03 8699   3.102   6.612   1.421
   38GLOH    O1 8700   3.138   6.546   1.355
   38GLOH    C1 8701   3.026   6.482   1.291
   38GLOH   H02 8702   2.942   6.551   1.283
   38GLOH   H08 8703   2.992   6.397   1.350
   38GLOH    C2 8704   3.062   6.432   1.150
   38GLOH   H04 8705   3.150   6.366   1.159
   38GLOH    O2 8706   2.953   6.356   1.094
   38GLOH   H05 8707   2.870   6.411   1.101
   38GLOH    C3 8708   3.102   6.551   1.061
   38GLOH   H06 8709   3.145   6.511   0.969
   38GLOH   H07 8710   3.182   6.606   1.111
   38GLOH    O3 8711   2.994   6.641   1.031
   38GLOH   H01 8712   2.970   6.625   0.936
   39GLOH   H03 8713   4.311   0.938   0.489
   39GLOH    O1 8714   4.266   0.975   0.409
   39GLOH    C1 8715   4.129   0.932   0.415
   39GLOH   H02 8716   4.123   0.825   0.395
   39GLOH   H08 8717   4.070   0.982   0.338
   39GLOH    C2 8718   4.065   0.960   0.553
   39GLOH   H04 8719   4.072   1.067   0.573
   39GLOH    O2 8720   3.925   0.921   0.555
   39GLOH   H05 8721   3.870   0.986   0.502
   39GLOH    C3 8722   4.142   0.883   0.662
   39GLOH   H06 8723   4.127   0.777   0.645
   39GLOH   H07 8724   4.097   0.907   0.759
   39GLOH    O3 8725   4.283   0.914   0.664
   39GLOH   H01 8726   4.292   1.011   0.684
   40GLOH   H03 8727   2.530   9.598   0.401
   40GLOH    O1 8728   2.522   9.626   0.496
   40GLOH    C1 8729   2.593   9.751   0.509
   40GLOH   H02 8730   2.530   9.833   0.474
   40GLOH   H08 8731   2.682   9.751   0.446
   40GLOH    C2 8732   2.637   9.781   0.653
   40GLOH   H04 8733   2.698   9.697   0.688
   40GLOH    O2 8734   2.715   9.901   0.658
   40GLOH   H05 8735   2.674   9.972   0.599
   40GLOH    C3 8736   2.513   9.791   0.744
   40GLOH   H06 8737   2.453   9.877   0.714
   40GLOH   H07 8738   2.546   9.808   0.847
   40GLOH    O3 8739   2.435   9.670   0.737
   40GLOH   H01 8740   2.441   9.639   0.643
   41GLOH   H03 8741   3.913   0.300   0.479
   41GLOH    O1 8742   3.921   0.245   0.397
   41GLOH    C1 8743   3.992   0.125   0.430
   41GLOH   H02 8744   4.058   0.141   0.516
   41GLOH   H08 8745   4.056   0.096   0.347
   41GLOH    C2 8746   3.899   0.006   0.463
   41GLOH   H04 8747   3.962   9.921   0.494
   41GLOH    O2 8748   3.809   0.037   0.572
   41GLOH   H05 8749   3.738   0.098   0.537
   41GLOH    C3 8750   3.821   9.964   0.337
   41GLOH   H06 8751   3.766   0.050   0.301
   41GLOH   H07 8752   3.748   9.888   0.366
   41GLOH    O3 8753   3.907   9.913   0.234
   41GLOH   H01 8754   3.905   9.814   0.236
   42GLOH   H03 8755   3.123   4.543   0.288
   42GLOH    O1 8756   3.028   4.573   0.294
   42GLOH    C1 8757   3.013   4.713   0.262
   42GLOH   H02 8758   2.912   4.746   0.288
   42GLOH   H08 8759   3.023   4.728   0.154
   42GLOH    C2 8760   3.113   4.808   0.332
   42GLOH   H04 8761   3.211   4.795   0.284
   42GLOH    O2 8762   3.068   4.944   0.312
   42GLOH   H05 8763   3.135   5.009   0.349
   42GLOH    C3 8764   3.127   4.772   0.481
   42GLOH   H06 8765   3.152   4.666   0.489
   42GLOH   H07 8766   3.029   4.785   0.528
   42GLOH    O3 8767   3.226   4.850   0.551
   42GLOH   H01 8768   3.305   4.863   0.492
   43GLOH   H03 8769   3.840   9.630   0.322
   43GLOH    O1 8770   3.889   9.663   0.242
   43GLOH    C1 8771   3.990   9.567   0.206
   43GLOH   H02 8772   4.045   9.535   0.294
   43GLOH   H08 8773   4.064   9.613   0.139
   43GLOH    C2 8774   3.934   9.441   0.136
   43GLOH   H04 8775   4.020   9.379   0.105
   43GLOH    O2 8776   3.852   9.366   0.228
   43GLOH   H05 8777   3.806   9.289   0.185
   43GLOH    C3 8778   3.856   9.481   0.009
   43GLOH   H06 8779   3.769   9.539   0.039
   43GLOH   H07 8780   3.820   9.390   2.820
   43GLOH    O3 8781   3.938   9.556   2.775
   43GLOH   H01 8782   3.939   9.650   2.802
   44GLOH   H03 8783   3.786   4.687   1.848
   44GLOH    O1 8784   3.754   4.636   1.928
   44GLOH    C1 8785   3.836   4.519   1.949
   44GLOH   H02 8786   3.941   4.541   1.928
   44GLOH   H08 8787   3.807   4.438   1.882
   44GLOH    C2 8788   3.824   4.471   2.094
   44GLOH   H04 8789   3.717   4.458   2.117
   44GLOH    O2 8790   3.891   4.345   2.116
   44GLOH   H05 8791   3.855   4.306   2.200
   44GLOH    C3 8792   3.880   4.579   2.188
   44GLOH   H06 8793   3.987   4.591   2.169
   44GLOH   H07 8794   3.869   4.547   2.292
   44GLOH    O3 8795   3.811   4.704   2.167
   44GLOH   H01 8796   3.782   4.700   2.072
   45GLOH   H03 8797   4.825   1.448   0.651
   45GLOH    O1 8798   4.796   1.477   0.742
   45GLOH    C1 8799   4.774   1.619   0.735
   45GLOH   H02 8800   4.868   1.672   0.748
   45GLOH   H08 8801   4.708   1.651   0.815
   45GLOH    C2 8802   4.713   1.661   0.600
   45GLOH   H04 8803   4.615   1.612   0.589
   45GLOH    O2 8804   4.695   1.804   0.598
   45GLOH   H05 8805   4.600   1.826   0.621
   45GLOH    C3 8806   4.803   1.618   0.484
   45GLOH   H06 8807   4.893   1.679   0.486
   45GLOH   H07 8808   4.752   1.640   0.390
   45GLOH    O3 8809   4.839   1.478   0.489
   45GLOH   H01 8810   4.860   1.447   0.397
   46GLOH   H03 8811   3.040   7.907   1.762
   46GLOH    O1 8812   3.083   7.869   1.681
   46GLOH    C1 8813   3.061   7.727   1.671
   46GLOH   H02 8814   3.065   7.681   1.770
   46GLOH   H08 8815   3.139   7.680   1.612
   46GLOH    C2 8816   2.925   7.693   1.607
   46GLOH   H04 8817   2.844   7.717   1.679
   46GLOH    O2 8818   2.908   7.769   1.487
   46GLOH   H05 8819   2.924   7.863   1.510
   46GLOH    C3 8820   2.917   7.543   1.573
   46GLOH   H06 8821   2.986   7.524   1.491
   46GLOH   H07 8822   2.817   7.521   1.536
   46GLOH    O3 8823   2.949   7.456   1.683
   46GLOH   H01 8824   2.891   7.477   1.761
   47GLOH   H03 8825   3.114   6.077   0.047
   47GLOH    O1 8826   3.054   6.075   2.828
   47GLOH    C1 8827   2.919   6.082   0.019
   47GLOH   H02 8828   2.897   5.994   0.081
   47GLOH   H08 8829   2.849   6.079   2.793
   47GLOH    C2 8830   2.891   6.209   0.102
   47GLOH   H04 8831   2.788   6.203   0.139
   47GLOH    O2 8832   2.981   6.214   0.215
   47GLOH   H05 8833   2.949   6.275   0.288
   47GLOH    C3 8834   2.903   6.332   0.011
   47GLOH   H06 8835   3.002   6.334   2.825
   47GLOH   H07 8836   2.895   6.422   0.073
   47GLOH    O3 8837   2.802   6.336   2.765
   47GLOH   H01 8838   2.717   6.364   2.805
   48GLOH   H03 8839   3.160   7.080   2.688
   48GLOH    O1 8840   3.147   7.024   2.609
   48GLOH    C1 8841   3.016   7.046   2.554
   48GLOH   H02 8842   3.010   7.144   2.507
   48GLOH   H08 8843   2.940   7.043   2.633
   48GLOH    C2 8844   2.978   6.940   2.448
   48GLOH   H04 8845   2.978   6.841   2.496
   48GLOH    O2 8846   2.847   6.967   2.393
   48GLOH   H05 8847   2.780   6.920   2.446
   48GLOH    C3 8848   3.084   6.938   2.336
   48GLOH   H06 8849   3.084   7.034   2.285
   48GLOH   H07 8850   3.056   6.863   2.262
   48GLOH    O3 8851   3.214   6.909   2.391
   48GLOH   H01 8852   3.214   6.951   2.481
   49GLOH   H03 8853   4.675   2.766   0.494
   49GLOH    O1 8854   4.763   2.743   0.536
   49GLOH    C1 8855   4.741   2.735   0.678
   49GLOH   H02 8856   4.705   2.635   0.705
   49GLOH   H08 8857   4.664   2.806   0.710
   49GLOH    C2 8858   4.870   2.763   0.757
   49GLOH   H04 8859   4.905   2.863   0.728
   49GLOH    O2 8860   4.846   2.761   0.899
   49GLOH   H05 8861   4.898   2.838   0.937
   49GLOH    C3 8862   4.977   2.661   0.716
   49GLOH   H06 8863   4.942   2.561   0.740
   49GLOH   H07 8864   5.068   2.678   0.775
   49GLOH    O3 8865   5.005   2.672   0.575
   49GLOH   H01 8866   4.917   2.693   0.534
   50GLOH   H03 8867   2.396   4.258   1.650
   50GLOH    O1 8868   2.415   4.258   1.748
   50GLOH    C1 8869   2.494   4.143   1.782
   50GLOH   H02 8870   2.477   4.062   1.711
   50GLOH   H08 8871   2.464   4.105   1.880
   50GLOH    C2 8872   2.644   4.174   1.785
   50GLOH   H04 8873   2.658   4.262   1.850
   50GLOH    O2 8874   2.721   4.065   1.839
   50GLOH   H05 8875   2.671   3.979   1.822
   50GLOH    C3 8876   2.697   4.213   1.645
   50GLOH   H06 8877   2.801   4.242   1.655
   50GLOH   H07 8878   2.644   4.303   1.613
   50GLOH    O3 8879   2.683   4.109   1.547
   50GLOH   H01 8880   2.745   4.035   1.569
   51GLOH   H03 8881   2.851   5.435   2.345
   51GLOH    O1 8882   2.869   5.531   2.359
   51GLOH    C1 8883   2.876   5.598   2.231
   51GLOH   H02 8884   2.960   5.561   2.173
   51GLOH   H08 8885   2.891   5.705   2.245
   51GLOH    C2 8886   2.747   5.578   2.148
   51GLOH   H04 8887   2.732   5.470   2.136
   51GLOH    O2 8888   2.631   5.633   2.215
   51GLOH   H05 8889   2.659   5.664   2.304
   51GLOH    C3 8890   2.765   5.637   2.007
   51GLOH   H06 8891   2.677   5.611   1.948
   51GLOH   H07 8892   2.850   5.588   1.961
   51GLOH    O3 8893   2.785   5.780   2.007
   51GLOH   H01 8894   2.702   5.823   2.038
   52GLOH   H03 8895   3.880   1.039   1.106
   52GLOH    O1 8896   3.796   1.034   1.160
   52GLOH    C1 8897   3.745   1.168   1.174
   52GLOH   H02 8898   3.637   1.166   1.188
   52GLOH   H08 8899   3.764   1.226   1.084
   52GLOH    C2 8900   3.808   1.242   1.294
   52GLOH   H04 8901   3.917   1.245   1.278
   52GLOH    O2 8902   3.760   1.378   1.302
   52GLOH   H05 8903   3.659   1.377   1.297
   52GLOH    C3 8904   3.780   1.165   1.424
   52GLOH   H06 8905   3.672   1.154   1.436
   52GLOH   H07 8906   3.815   1.225   1.508
   52GLOH    O3 8907   3.845   1.037   1.426
   52GLOH   H01 8908   3.822   0.990   1.341
   53GLOH   H03 8909   2.251   7.335   0.879
   53GLOH    O1 8910   2.299   7.360   0.794
   53GLOH    C1 8911   2.389   7.255   0.754
   53GLOH   H02 8912   2.384   7.241   0.646
   53GLOH   H08 8913   2.361   7.160   0.800
   53GLOH    C2 8914   2.535   7.286   0.792
   53GLOH   H04 8915   2.544   7.282   0.901
   53GLOH    O2 8916   2.624   7.188   0.734
   53GLOH   H05 8917   2.715   7.229   0.720
   53GLOH    C3 8918   2.571   7.430   0.748
   53GLOH   H06 8919   2.560   7.437   0.639
   53GLOH   H07 8920   2.676   7.450   0.770
   53GLOH    O3 8921   2.488   7.526   0.814
   53GLOH   H01 8922   2.398   7.483   0.816
   54GLOH   H03 8923   5.192   3.175   0.851
   54GLOH    O1 8924   5.281   3.179   0.895
   54GLOH    C1 8925   5.381   3.149   0.796
   54GLOH   H02 8926   5.351   3.062   0.736
   54GLOH   H08 8927   5.475   3.121   0.844
   54GLOH    C2 8928   5.409   3.266   0.699
   54GLOH   H04 8929   5.475   3.228   0.620
   54GLOH    O2 8930   5.288   3.315   0.637
   54GLOH   H05 8931   5.244   3.238   0.590
   54GLOH    C3 8932   5.485   3.379   0.771
   54GLOH   H06 8933   5.429   3.406   0.861
   54GLOH   H07 8934   5.485   3.467   0.707
   54GLOH    O3 8935   5.620   3.342   0.805
   54GLOH   H01 8936   5.625   3.318   0.901
   55GLOH   H03 8937   2.631   6.528   0.856
   55GLOH    O1 8938   2.678   6.616   0.858
   55GLOH    C1 8939   2.585   6.720   0.823
   55GLOH   H02 8940   2.528   6.752   0.911
   55GLOH   H08 8941   2.512   6.682   0.751
   55GLOH    C2 8942   2.652   6.845   0.761
   55GLOH   H04 8943   2.704   6.812   0.670
   55GLOH    O2 8944   2.552   6.942   0.724
   55GLOH   H05 8945   2.589   7.035   0.729
   55GLOH    C3 8946   2.759   6.905   0.854
   55GLOH   H06 8947   2.804   6.990   0.803
   55GLOH   H07 8948   2.838   6.831   0.867
   55GLOH    O3 8949   2.707   6.945   0.982
   55GLOH   H01 8950   2.724   7.042   0.992
   56GLOH   H03 8951   4.570   2.685   1.688
   56GLOH    O1 8952   4.571   2.746   1.610
   56GLOH    C1 8953   4.593   2.666   1.493
   56GLOH   H02 8954   4.546   2.568   1.505
   56GLOH   H08 8955   4.700   2.648   1.479
   56GLOH    C2 8956   4.536   2.732   1.367
   56GLOH   H04 8957   4.591   2.826   1.350
   56GLOH    O2 8958   4.554   2.645   1.253
   56GLOH   H05 8959   4.498   2.562   1.267
   56GLOH    C3 8960   4.388   2.766   1.391
   56GLOH   H06 8961   4.385   2.841   1.470
   56GLOH   H07 8962   4.338   2.678   1.431
   56GLOH    O3 8963   4.317   2.815   1.276
   56GLOH   H01 8964   4.374   2.880   1.227
   57GLOH   H03 8965   2.798   6.310   2.592
   57GLOH    O1 8966   2.776   6.291   2.497
   57GLOH    C1 8967   2.804   6.151   2.474
   57GLOH   H02 8968   2.739   6.090   2.537
   57GLOH   H08 8969   2.907   6.128   2.504
   57GLOH    C2 8970   2.785   6.106   2.328
   57GLOH   H04 8971   2.689   6.146   2.293
   57GLOH    O2 8972   2.889   6.156   2.240
   57GLOH   H05 8973   2.858   6.145   2.146
   57GLOH    C3 8974   2.778   5.952   2.320
   57GLOH   H06 8975   2.857   5.910   2.382
   57GLOH   H07 8976   2.799   5.921   2.218
   57GLOH    O3 8977   2.651   5.900   2.362
   57GLOH   H01 8978   2.584   5.919   2.294
   58GLOH   H03 8979   2.373   6.844   0.441
   58GLOH    O1 8980   2.428   6.789   0.380
   58GLOH    C1 8981   2.561   6.789   0.434
   58GLOH   H02 8982   2.564   6.728   0.524
   58GLOH   H08 8983   2.589   6.890   0.463
   58GLOH    C2 8984   2.670   6.735   0.339
   58GLOH   H04 8985   2.656   6.779   0.239
   58GLOH    O2 8986   2.801   6.772   0.389
   58GLOH   H05 8987   2.804   6.870   0.411
   58GLOH    C3 8988   2.664   6.581   0.327
   58GLOH   H06 8989   2.662   6.540   0.428
   58GLOH   H07 8990   2.757   6.547   0.281
   58GLOH    O3 8991   2.552   6.533   0.252
   58GLOH   H01 8992   2.529   6.441   0.280
   59GLOH   H03 8993   4.436   4.204   1.854
   59GLOH    O1 8994   4.392   4.143   1.919
   59GLOH    C1 8995   4.483   4.118   2.028
   59GLOH   H02 8996   4.433   4.061   2.106
   59GLOH   H08 8997   4.514   4.212   2.074
   59GLOH    C2 8998   4.607   4.039   1.983
   59GLOH   H04 8999   4.647   4.085   1.891
   59GLOH    O2 9000   4.709   4.041   2.085
   59GLOH   H05 9001   4.668   4.039   2.177
   59GLOH    C3 9002   4.563   3.895   1.949
   59GLOH   H06 9003   4.478   3.900   1.881
   59GLOH   H07 9004   4.527   3.848   2.041
   59GLOH    O3 9005   4.667   3.813   1.891
   59GLOH   H01 9006   4.655   3.721   1.928
   60GLOH   H03 9007   2.499   4.870   0.845
   60GLOH    O1 9008   2.509   4.875   0.746
   60GLOH    C1 9009   2.626   4.953   0.716
   60GLOH   H02 9010   2.636   5.034   0.788
   60GLOH   H08 9011   2.615   5.000   0.619
   60GLOH    C2 9012   2.756   4.870   0.717
   60GLOH   H04 9013   2.742   4.781   0.655
   60GLOH    O2 9014   2.863   4.948   0.661
   60GLOH   H05 9015   2.846   4.963   0.562
   60GLOH    C3 9016   2.794   4.827   0.859
   60GLOH   H06 9017   2.801   4.916   0.921
   60GLOH   H07 9018   2.894   4.783   0.856
   60GLOH    O3 9019   2.701   4.733   0.916
   60GLOH   H01 9020   2.729   4.715   1.010
   61GLOH   H03 9021   3.865   4.828   0.415
   61GLOH    O1 9022   3.917   4.903   0.375
   61GLOH    C1 9023   3.943   5.001   0.478
   61GLOH   H02 9024   3.959   4.952   0.574
   61GLOH   H08 9025   3.857   5.067   0.490
   61GLOH    C2 9026   4.067   5.087   0.447
   61GLOH   H04 9027   4.051   5.137   0.350
   61GLOH    O2 9028   4.087   5.186   0.549
   61GLOH   H05 9029   4.099   5.275   0.505
   61GLOH    C3 9030   4.190   4.996   0.435
   61GLOH   H06 9031   4.209   4.948   0.531
   61GLOH   H07 9032   4.277   5.057   0.412
   61GLOH    O3 9033   4.171   4.896   0.333
   61GLOH   H01 9034   4.073   4.882   0.329
   62GLOH   H03 9035   4.383   4.086   0.973
   62GLOH    O1 9036   4.413   4.131   0.889
   62GLOH    C1 9037   4.516   4.227   0.923
   62GLOH   H02 9038   4.613   4.187   0.897
   62GLOH   H08 9039   4.517   4.246   1.030
   62GLOH    C2 9040   4.498   4.363   0.850
   62GLOH   H04 9041   4.405   4.408   0.886
   62GLOH    O2 9042   4.608   4.452   0.880
   62GLOH   H05 9043   4.696   4.403   0.866
   62GLOH    C3 9044   4.486   4.342   0.698
   62GLOH   H06 9045   4.578   4.298   0.661
   62GLOH   H07 9046   4.474   4.440   0.651
   62GLOH    O3 9047   4.374   4.257   0.667
   62GLOH   H01 9048   4.365   4.198   0.745
   63GLOH   H03 9049   5.299   3.250   1.025
   63GLOH    O1 9050   5.296   3.292   1.115
   63GLOH    C1 9051   5.181   3.378   1.120
   63GLOH   H02 9052   5.101   3.341   1.055
   63GLOH   H08 9053   5.209   3.477   1.083
   63GLOH    C2 9054   5.125   3.394   1.263
   63GLOH   H04 9055   5.202   3.440   1.326
   63GLOH    O2 9056   5.008   3.480   1.261
   63GLOH   H05 9057   5.019   3.549   1.189
   63GLOH    C3 9058   5.090   3.256   1.323
   63GLOH   H06 9059   5.004   3.215   1.269
   63GLOH   H07 9060   5.060   3.269   1.427
   63GLOH    O3 9061   5.202   3.166   1.314
   63GLOH   H01 9062   5.252   3.198   1.235
   64GLOH   H03 9063   3.985   3.876   2.270
   64GLOH    O1 9064   4.034   3.791   2.251
   64GLOH    C1 9065   3.972   3.681   2.320
   64GLOH   H02 9066   3.877   3.655   2.273
   64GLOH   H08 9067   3.951   3.706   2.423
   64GLOH    C2 9068   4.063   3.556   2.317
   64GLOH   H04 9069   4.013   3.476   2.374
   64GLOH    O2 9070   4.083   3.512   2.181
   64GLOH   H05 9071   4.052   3.418   2.173
   64GLOH    C3 9072   4.195   3.591   2.391
   64GLOH   H06 9073   4.169   3.619   2.493
   64GLOH   H07 9074   4.237   3.680   2.345
   64GLOH    O3 9075   4.293   3.485   2.392
   64GLOH   H01 9076   4.356   3.501   2.466
   65GLOH   H03 9077   2.691   8.364   0.731
   65GLOH    O1 9078   2.762   8.376   0.800
   65GLOH    C1 9079   2.887   8.319   0.754
   65GLOH   H02 9080   2.905   8.344   0.649
   65GLOH   H08 9081   2.884   8.210   0.761
   65GLOH    C2 9082   3.005   8.371   0.838
   65GLOH   H04 9083   2.988   8.340   0.943
   65GLOH    O2 9084   3.130   8.314   0.793
   65GLOH   H05 9085   3.137   8.221   0.831
   65GLOH    C3 9086   3.011   8.525   0.834
   65GLOH   H06 9087   3.028   8.557   0.731
   65GLOH   H07 9088   3.095   8.559   0.894
   65GLOH    O3 9089   2.888   8.582   0.884
   65GLOH   H01 9090   2.816   8.526   0.846
   66GLOH   H03 9091   2.550   8.124   2.208
   66GLOH    O1 9092   2.631   8.146   2.155
   66GLOH    C1 9093   2.618   8.277   2.097
   66GLOH   H02 9094   2.637   8.354   2.172
   66GLOH   H08 9095   2.516   8.293   2.060
   66GLOH    C2 9096   2.716   8.296   1.980
   66GLOH   H04 9097   2.692   8.220   1.905
   66GLOH    O2 9098   2.705   8.427   1.920
   66GLOH   H05 9099   2.612   8.463   1.928
   66GLOH    C3 9100   2.860   8.273   2.029
   66GLOH   H06 9101   2.866   8.176   2.078
   66GLOH   H07 9102   2.881   8.347   2.106
   66GLOH    O3 9103   2.959   8.279   1.924
   66GLOH   H01 9104   2.930   8.344   1.855
   67GLOH   H03 9105   4.663   3.128   2.750
   67GLOH    O1 9106   4.752   3.084   2.747
   67GLOH    C1 9107   4.769   3.036   2.612
   67GLOH   H02 9108   4.870   2.999   2.598
   67GLOH   H08 9109   4.756   3.118   2.541
   67GLOH    C2 9110   4.671   2.923   2.574
   67GLOH   H04 9111   4.665   2.918   2.464
   67GLOH    O2 9112   4.715   2.796   2.626
   67GLOH   H05 9113   4.810   2.783   2.607
   67GLOH    C3 9114   4.530   2.955   2.629
   67GLOH   H06 9115   4.530   2.940   2.737
   67GLOH   H07 9116   4.460   2.884   2.587
   67GLOH    O3 9117   4.490   3.090   2.597
   67GLOH   H01 9118   4.422   3.088   2.527
   68GLOH   H03 9119   3.110   5.419   0.601
   68GLOH    O1 9120   3.190   5.384   0.554
   68GLOH    C1 9121   3.220   5.478   0.449
   68GLOH   H02 9122   3.138   5.482   0.379
   68GLOH   H08 9123   3.307   5.446   0.392
   68GLOH    C2 9124   3.246   5.623   0.499
   68GLOH   H04 9125   3.155   5.657   0.550
   68GLOH    O2 9126   3.356   5.629   0.592
   68GLOH   H05 9127   3.321   5.607   0.682
   68GLOH    C3 9128   3.270   5.717   0.380
   68GLOH   H06 9129   3.353   5.678   0.321
   68GLOH   H07 9130   3.302   5.814   0.419
   68GLOH    O3 9131   3.153   5.733   0.297
   68GLOH   H01 9132   3.127   5.829   0.301
   69GLOH   H03 9133   2.696   2.944   0.799
   69GLOH    O1 9134   2.743   3.024   0.764
   69GLOH    C1 9135   2.822   3.085   0.868
   69GLOH   H02 9136   2.764   3.160   0.921
   69GLOH   H08 9137   2.907   3.137   0.824
   69GLOH    C2 9138   2.875   2.983   0.971
   69GLOH   H04 9139   2.926   2.902   0.917
   69GLOH    O2 9140   2.969   3.047   1.061
   69GLOH   H05 9141   3.015   2.975   1.111
   69GLOH    C3 9142   2.758   2.924   1.050
   69GLOH   H06 9143   2.718   3.002   1.115
   69GLOH   H07 9144   2.796   2.845   1.115
   69GLOH    O3 9145   2.652   2.872   0.967
   69GLOH   H01 9146   2.582   2.942   0.960
   70GLOH   H03 9147   3.191   6.211   2.035
   70GLOH    O1 9148   3.183   6.306   2.006
   70GLOH    C1 9149   3.153   6.391   2.118
   70GLOH   H02 9150   3.243   6.409   2.178
   70GLOH   H08 9151   3.078   6.346   2.182
   70GLOH    C2 9152   3.100   6.527   2.067
   70GLOH   H04 9153   3.004   6.506   2.018
   70GLOH    O2 9154   3.074   6.622   2.172
   70GLOH   H05 9155   3.162   6.645   2.217
   70GLOH    C3 9156   3.194   6.584   1.959
   70GLOH   H06 9157   3.295   6.590   1.999
   70GLOH   H07 9158   3.163   6.685   1.934
   70GLOH    O3 9159   3.190   6.498   1.844
   70GLOH   H01 9160   3.200   6.407   1.883
   71GLOH   H03 9161   3.205   0.256   2.494
   71GLOH    O1 9162   3.184   0.353   2.491
   71GLOH    C1 9163   3.262   0.410   2.384
   71GLOH   H02 9164   3.358   0.443   2.423
   71GLOH   H08 9165   3.211   0.498   2.345
   71GLOH    C2 9166   3.285   0.313   2.267
   71GLOH   H04 9167   3.187   0.282   2.228
   71GLOH    O2 9168   3.360   0.377   2.162
   71GLOH   H05 9169   3.412   0.455   2.198
   71GLOH    C3 9170   3.358   0.188   2.318
   71GLOH   H06 9171   3.453   0.218   2.362
   71GLOH   H07 9172   3.381   0.124   2.233
   71GLOH    O3 9173   3.280   0.115   2.415
   71GLOH   H01 9174   3.279   0.020   2.388
   72GLOH   H03 9175   3.418   9.452   1.099
   72GLOH    O1 9176   3.502   9.429   1.146
   72GLOH    C1 9177   3.480   9.316   1.234
   72GLOH   H02 9178   3.377   9.315   1.269
   72GLOH   H08 9179   3.541   9.328   1.323
   72GLOH    C2 9180   3.513   9.179   1.171
   72GLOH   H04 9181   3.521   9.106   1.253
   72GLOH    O2 9182   3.411   9.135   1.078
   72GLOH   H05 9183   3.321   9.149   1.117
   72GLOH    C3 9184   3.648   9.184   1.098
   72GLOH   H06 9185   3.640   9.256   1.016
   72GLOH   H07 9186   3.665   9.086   1.052
   72GLOH    O3 9187   3.761   9.217   1.181
   72GLOH   H01 9188   3.841   9.201   1.124
   73GLOH   H03 9189   3.611   8.065   1.544
   73GLOH    O1 9190   3.647   8.157   1.527
   73GLOH    C1 9191   3.609   8.238   1.639
   73GLOH   H02 9192   3.663   8.207   1.729
   73GLOH   H08 9193   3.503   8.224   1.661
   73GLOH    C2 9194   3.636   8.388   1.616
   73GLOH   H04 9195   3.581   8.420   1.526
   73GLOH    O2 9196   3.590   8.464   1.729
   73GLOH   H05 9197   3.494   8.442   1.747
   73GLOH    C3 9198   3.786   8.411   1.592
   73GLOH   H06 9199   3.840   8.396   1.686
   73GLOH   H07 9200   3.801   8.515   1.563
   73GLOH    O3 9201   3.838   8.323   1.490
   73GLOH   H01 9202   3.778   8.244   1.491
   74GLOH   H03 9203   5.023   2.326   0.443
   74GLOH    O1 9204   4.963   2.336   0.364
   74GLOH    C1 9205   4.838   2.389   0.411
   74GLOH   H02 9206   4.855   2.479   0.470
   74GLOH   H08 9207   4.788   2.318   0.476
   74GLOH    C2 9208   4.741   2.425   0.296
   74GLOH   H04 9209   4.717   2.332   0.242
   74GLOH    O2 9210   4.619   2.480   0.350
   74GLOH   H05 9211   4.546   2.472   0.285
   74GLOH    C3 9212   4.808   2.523   0.199
   74GLOH   H06 9213   4.832   2.615   0.253
   74GLOH   H07 9214   4.737   2.550   0.121
   74GLOH    O3 9215   4.926   2.465   0.142
   74GLOH   H01 9216   4.970   2.417   0.217
   75GLOH   H03 9217   3.259   5.445   2.422
   75GLOH    O1 9218   3.227   5.450   2.328
   75GLOH    C1 9219   3.140   5.338   2.306
   75GLOH   H02 9220   3.065   5.363   2.231
   75GLOH   H08 9221   3.085   5.313   2.397
   75GLOH    C2 9222   3.217   5.214   2.259
   75GLOH   H04 9223   3.306   5.204   2.323
   75GLOH    O2 9224   3.138   5.094   2.272
   75GLOH   H05 9225   3.145   5.064   2.365
   75GLOH    C3 9226   3.267   5.234   2.114
   75GLOH   H06 9227   3.328   5.148   2.086
   75GLOH   H07 9228   3.333   5.320   2.114
   75GLOH    O3 9229   3.161   5.253   2.017
   75GLOH   H01 9230   3.170   5.183   1.948
   76GLOH   H03 9231   2.739   2.730   1.959
   76GLOH    O1 9232   2.790   2.741   1.875
   76GLOH    C1 9233   2.711   2.693   1.765
   76GLOH   H02 9234   2.736   2.747   1.673
   76GLOH   H08 9235   2.605   2.712   1.783
   76GLOH    C2 9236   2.727   2.542   1.739
   76GLOH   H04 9237   2.671   2.520   1.647
   76GLOH    O2 9238   2.864   2.503   1.716
   76GLOH   H05 9239   2.910   2.575   1.662
   76GLOH    C3 9240   2.663   2.459   1.852
   76GLOH   H06 9241   2.690   2.504   1.948
   76GLOH   H07 9242   2.706   2.359   1.851
   76GLOH    O3 9243   2.520   2.452   1.840
   76GLOH   H01 9244   2.501   2.391   1.765
   77GLOH   H03 9245   3.467   7.925   1.654
   77GLOH    O1 9246   3.531   7.942   1.580
   77GLOH    C1 9247   3.479   7.891   1.455
   77GLOH   H02 9248   3.539   7.806   1.423
   77GLOH   H08 9249   3.488   7.967   1.377
   77GLOH    C2 9250   3.332   7.846   1.461
   77GLOH   H04 9251   3.325   7.760   1.528
   77GLOH    O2 9252   3.248   7.953   1.509
   77GLOH   H05 9253   3.186   7.917   1.579
   77GLOH    C3 9254   3.283   7.803   1.321
   77GLOH   H06 9255   3.286   7.890   1.255
   77GLOH   H07 9256   3.178   7.775   1.329
   77GLOH    O3 9257   3.359   7.695   1.265
   77GLOH   H01 9258   3.335   7.611   1.312
   78GLOH   H03 9259   4.142   3.360   0.344
   78GLOH    O1 9260   4.222   3.302   0.357
   78GLOH    C1 9261   4.328   3.347   0.271
   78GLOH   H02 9262   4.324   3.455   0.258
   78GLOH   H08 9263   4.317   3.303   0.172
   78GLOH    C2 9264   4.468   3.310   0.324
   78GLOH   H04 9265   4.474   3.201   0.329
   78GLOH    O2 9266   4.567   3.359   0.231
   78GLOH   H05 9267   4.650   3.387   0.277
   78GLOH    C3 9268   4.491   3.366   0.466
   78GLOH   H06 9269   4.459   3.470   0.468
   78GLOH   H07 9270   4.598   3.366   0.486
   78GLOH    O3 9271   4.423   3.291   0.568
   78GLOH   H01 9272   4.336   3.333   0.591
   79GLOH   H03 9273   4.152   0.496   2.403
   79GLOH    O1 9274   4.136   0.440   2.322
   79GLOH    C1 9275   4.141   0.526   2.206
   79GLOH   H02 9276   4.245   0.548   2.181
   79GLOH   H08 9277   4.092   0.621   2.227
   79GLOH    C2 9278   4.073   0.463   2.083
   79GLOH   H04 9279   3.965   0.456   2.105
   79GLOH    O2 9280   4.091   0.546   1.966
   79GLOH   H05 9281   4.136   0.632   1.992
   79GLOH    C3 9282   4.126   0.322   2.057
   79GLOH   H06 9283   4.231   0.328   2.027
   79GLOH   H07 9284   4.071   0.280   1.972
   79GLOH    O3 9285   4.111   0.238   2.173
   79GLOH   H01 9286   4.119   0.300   2.250
   80GLOH   H03 9287   4.116   8.527   0.648
   80GLOH    O1 9288   4.073   8.582   0.578
   80GLOH    C1 9289   3.938   8.534   0.563
   80GLOH   H02 9290   3.938   8.446   0.498
   80GLOH   H08 9291   3.875   8.609   0.515
   80GLOH    C2 9292   3.873   8.494   0.696
   80GLOH   H04 9293   3.875   8.581   0.763
   80GLOH    O2 9294   3.737   8.452   0.677
   80GLOH   H05 9295   3.689   8.461   0.765
   80GLOH    C3 9296   3.957   8.381   0.760
   80GLOH   H06 9297   3.957   8.296   0.692
   80GLOH   H07 9298   3.909   8.349   0.852
   80GLOH    O3 9299   4.092   8.424   0.786
   80GLOH   H01 9300   4.088   8.486   0.864
   81GLOH   H03 9301   4.147   4.178   0.096
   81GLOH    O1 9302   4.088   4.122   0.042
   81GLOH    C1 9303   4.161   4.012   2.843
   81GLOH   H02 9304   4.212   3.955   0.063
   81GLOH   H08 9305   4.238   4.049   2.775
   81GLOH    C2 9306   4.070   3.915   2.765
   81GLOH   H04 9307   4.026   3.971   2.681
   81GLOH    O2 9308   4.146   3.804   2.712
   81GLOH   H05 9309   4.183   3.751   2.785
   81GLOH    C3 9310   3.955   3.865   2.854
   81GLOH   H06 9311   3.997   3.801   0.075
   81GLOH   H07 9312   3.889   3.802   2.794
   81GLOH    O3 9313   3.882   3.974   0.054
   81GLOH   H01 9314   3.944   4.051   0.054
   82GLOH   H03 9315   3.919   8.850   2.195
   82GLOH    O1 9316   3.906   8.797   2.278
   82GLOH    C1 9317   3.973   8.670   2.265
   82GLOH   H02 9318   4.080   8.685   2.255
   82GLOH   H08 9319   3.939   8.618   2.176
   82GLOH    C2 9320   3.947   8.581   2.388
   82GLOH   H04 9321   3.838   8.570   2.399
   82GLOH    O2 9322   4.004   8.449   2.372
   82GLOH   H05 9323   4.033   8.422   2.462
   82GLOH    C3 9324   4.000   8.648   2.515
   82GLOH   H06 9325   3.938   8.735   2.537
   82GLOH   H07 9326   4.101   8.685   2.496
   82GLOH    O3 9327   4.001   8.558   2.628
   82GLOH   H01 9328   3.993   8.609   2.711
   83GLOH   H03 9329   3.136   9.834   0.721
   83GLOH    O1 9330   3.037   9.841   0.713
   83GLOH    C1 9331   2.978   9.820   0.843
   83GLOH   H02 9332   2.871   9.833   0.838
   83GLOH   H08 9333   3.016   9.895   0.913
   83GLOH    C2 9334   3.005   9.680   0.901
   83GLOH   H04 9335   3.114   9.669   0.914
   83GLOH    O2 9336   2.940   9.669   1.030
   83GLOH   H05 9337   2.943   9.757   1.078
   83GLOH    C3 9338   2.956   9.572   0.803
   83GLOH   H06 9339   3.001   9.591   0.706
   83GLOH   H07 9340   2.848   9.584   0.790
   83GLOH    O3 9341   2.984   9.437   0.845
   83GLOH   H01 9342   2.933   9.422   0.929
   84GLOH   H03 9343   4.106   1.712   1.596
   84GLOH    O1 9344   4.181   1.704   1.661
   84GLOH    C1 9345   4.128   1.648   1.783
   84GLOH   H02 9346   4.202   1.582   1.828
   84GLOH   H08 9347   4.041   1.586   1.762
   84GLOH    C2 9348   4.087   1.755   1.886
   84GLOH   H04 9349   4.014   1.822   1.838
   84GLOH    O2 9350   4.026   1.692   2.001
   84GLOH   H05 9351   4.097   1.657   2.060
   84GLOH    C3 9352   4.211   1.838   1.924
   84GLOH   H06 9353   4.253   1.883   1.834
   84GLOH   H07 9354   4.286   1.769   1.962
   84GLOH    O3 9355   4.186   1.940   2.023
   84GLOH   H01 9356   4.100   1.986   2.002
   85GLOH   H03 9357   4.249   1.298   0.436
   85GLOH    O1 9358   4.187   1.326   0.509
   85GLOH    C1 9359   4.248   1.432   0.586
   85GLOH   H02 9360   4.177   1.471   0.659
   85GLOH   H08 9361   4.275   1.516   0.521
   85GLOH    C2 9362   4.375   1.387   0.661
   85GLOH   H04 9363   4.449   1.355   0.587
   85GLOH    O2 9364   4.428   1.497   0.737
   85GLOH   H05 9365   4.495   1.461   0.803
   85GLOH    C3 9366   4.344   1.269   0.754
   85GLOH   H06 9367   4.276   1.302   0.833
   85GLOH   H07 9368   4.436   1.237   0.803
   85GLOH    O3 9369   4.285   1.161   0.681
   85GLOH   H01 9370   4.223   1.205   0.618
   86GLOH   H03 9371   2.682   6.151   1.505
   86GLOH    O1 9372   2.699   6.054   1.487
   86GLOH    C1 9373   2.809   6.043   1.394
   86GLOH   H02 9374   2.815   5.941   1.357
   86GLOH   H08 9375   2.904   6.063   1.446
   86GLOH    C2 9376   2.800   6.139   1.274
   86GLOH   H04 9377   2.803   6.242   1.312
   86GLOH    O2 9378   2.912   6.118   1.186
   86GLOH   H05 9379   2.935   6.205   1.142
   86GLOH    C3 9380   2.666   6.120   1.200
   86GLOH   H06 9381   2.586   6.123   1.274
   86GLOH   H07 9382   2.664   6.019   1.158
   86GLOH    O3 9383   2.640   6.216   1.095
   86GLOH   H01 9384   2.675   6.305   1.122
   87GLOH   H03 9385   4.823   3.732   2.426
   87GLOH    O1 9386   4.891   3.775   2.484
   87GLOH    C1 9387   4.946   3.887   2.411
   87GLOH   H02 9388   4.872   3.928   2.341
   87GLOH   H08 9389   5.032   3.856   2.352
   87GLOH    C2 9390   4.990   4.002   2.504
   87GLOH   H04 9391   5.033   4.082   2.442
   87GLOH    O2 9392   4.877   4.055   2.576
   87GLOH   H05 9393   4.855   3.990   2.647
   87GLOH    C3 9394   5.098   3.951   2.601
   87GLOH   H06 9395   5.127   4.033   2.668
   87GLOH   H07 9396   5.187   3.925   2.543
   87GLOH    O3 9397   5.052   3.838   2.676
   87GLOH   H01 9398   4.992   3.788   2.616
   88GLOH   H03 9399   5.704   3.329   1.111
   88GLOH    O1 9400   5.658   3.277   1.041
   88GLOH    C1 9401   5.661   3.138   1.077
   88GLOH   H02 9402   5.755   3.113   1.128
   88GLOH   H08 9403   5.657   3.076   0.987
   88GLOH    C2 9404   5.544   3.097   1.168
   88GLOH   H04 9405   5.452   3.114   1.112
   88GLOH    O2 9406   5.550   2.956   1.201
   88GLOH   H05 9407   5.472   2.935   1.260
   88GLOH    C3 9408   5.540   3.184   1.296
   88GLOH   H06 9409   5.639   3.183   1.340
   88GLOH   H07 9410   5.473   3.137   1.369
   88GLOH    O3 9411   5.498   3.319   1.271
   88GLOH   H01 9412   5.423   3.317   1.206
   89GLOH   H03 9413   2.741   6.229   1.929
   89GLOH    O1 9414   2.715   6.313   1.881
   89GLOH    C1 9415   2.834   6.392   1.866
   89GLOH   H02 9416   2.920   6.343   1.913
   89GLOH   H08 9417   2.820   6.488   1.916
   89GLOH    C2 9418   2.869   6.421   1.719
   89GLOH   H04 9419   2.779   6.460   1.670
   89GLOH    O2 9420   2.972   6.521   1.712
   89GLOH   H05 9421   3.054   6.493   1.762
   89GLOH    C3 9422   2.909   6.291   1.647
   89GLOH   H06 9423   2.911   6.311   1.539
   89GLOH   H07 9424   2.831   6.217   1.663
   89GLOH    O3 9425   3.035   6.237   1.689
   89GLOH   H01 9426   3.106   6.288   1.642
   90GLOH   H03 9427   2.808   8.455   1.802
   90GLOH    O1 9428   2.868   8.432   1.726
   90GLOH    C1 9429   2.782   8.377   1.623
   90GLOH   H02 9430   2.813   8.414   1.526
   90GLOH   H08 9431   2.679   8.411   1.638
   90GLOH    C2 9432   2.783   8.223   1.619
   90GLOH   H04 9433   2.777   8.186   1.722
   90GLOH    O2 9434   2.669   8.172   1.547
   90GLOH   H05 9435   2.594   8.160   1.612
   90GLOH    C3 9436   2.913   8.170   1.558
   90GLOH   H06 9437   2.934   8.225   1.466
   90GLOH   H07 9438   2.898   8.066   1.528
   90GLOH    O3 9439   3.023   8.180   1.649
   90GLOH   H01 9440   3.005   8.116   1.722
   91GLOH   H03 9441   3.672   8.051   0.695
   91GLOH    O1 9442   3.598   8.050   0.629
   91GLOH    C1 9443   3.608   7.932   0.546
   91GLOH   H02 9444   3.521   7.869   0.561
   91GLOH   H08 9445   3.695   7.872   0.574
   91GLOH    C2 9446   3.619   7.962   0.394
   91GLOH   H04 9447   3.638   7.865   0.345
   91GLOH    O2 9448   3.499   8.018   0.336
   91GLOH   H05 9449   3.480   8.107   0.379
   91GLOH    C3 9450   3.742   8.050   0.368
   91GLOH   H06 9451   3.747   8.073   0.261
   91GLOH   H07 9452   3.832   7.993   0.391
   91GLOH    O3 9453   3.741   8.172   0.444
   91GLOH   H01 9454   3.671   8.162   0.513
   92GLOH   H03 9455   2.046   6.800   1.248
   92GLOH    O1 9456   2.128   6.777   1.299
   92GLOH    C1 9457   2.106   6.801   1.439
   92GLOH   H02 9458   2.199   6.785   1.494
   92GLOH   H08 9459   2.034   6.730   1.478
   92GLOH    C2 9460   2.056   6.944   1.470
   92GLOH   H04 9461   2.128   7.015   1.426
   92GLOH    O2 9462   1.925   6.969   1.415
   92GLOH   H05 9463   1.919   6.930   1.324
   92GLOH    C3 9464   2.055   6.966   1.623
   92GLOH   H06 9465   1.994   6.888   1.668
   92GLOH   H07 9466   2.006   7.061   1.644
   92GLOH    O3 9467   2.188   6.965   1.678
   92GLOH   H01 9468   2.186   6.942   1.774
   93GLOH   H03 9469   2.933   5.028   0.763
   93GLOH    O1 9470   2.980   5.093   0.823
   93GLOH    C1 9471   3.086   5.151   0.746
   93GLOH   H02 9472   3.058   5.251   0.716
   93GLOH   H08 9473   3.101   5.095   0.653
   93GLOH    C2 9474   3.222   5.158   0.818
   93GLOH   H04 9475   3.263   5.055   0.820
   93GLOH    O2 9476   3.313   5.241   0.742
   93GLOH   H05 9477   3.263   5.295   0.675
   93GLOH    C3 9478   3.212   5.206   0.964
   93GLOH   H06 9479   3.160   5.302   0.964
   93GLOH   H07 9480   3.313   5.225   1.000
   93GLOH    O3 9481   3.145   5.113   1.052
   93GLOH   H01 9482   3.180   5.125   1.144
   94GLOH   H03 9483   3.106   7.173   1.124
   94GLOH    O1 9484   3.158   7.249   1.162
   94GLOH    C1 9485   3.254   7.296   1.065
   94GLOH   H02 9486   3.314   7.213   1.028
   94GLOH   H08 9487   3.322   7.367   1.112
   94GLOH    C2 9488   3.187   7.366   0.945
   94GLOH   H04 9489   3.114   7.296   0.902
   94GLOH    O2 9490   3.117   7.485   0.989
   94GLOH   H05 9491   3.181   7.562   0.994
   94GLOH    C3 9492   3.291   7.398   0.836
   94GLOH   H06 9493   3.348   7.307   0.815
   94GLOH   H07 9494   3.362   7.470   0.876
   94GLOH    O3 9495   3.232   7.448   0.715
   94GLOH   H01 9496   3.228   7.375   0.648
   95GLOH   H03 9497   3.087   4.578   0.756
   95GLOH    O1 9498   3.038   4.491   0.746
   95GLOH    C1 9499   2.915   4.497   0.821
   95GLOH   H02 9500   2.852   4.577   0.782
   95GLOH   H08 9501   2.934   4.519   0.926
   95GLOH    C2 9502   2.837   4.365   0.811
   95GLOH   H04 9503   2.905   4.284   0.840
   95GLOH    O2 9504   2.724   4.365   0.900
   95GLOH   H05 9505   2.640   4.350   0.846
   95GLOH    C3 9506   2.794   4.341   0.664
   95GLOH   H06 9507   2.746   4.244   0.659
   95GLOH   H07 9508   2.884   4.334   0.603
   95GLOH    O3 9509   2.706   4.443   0.612
   95GLOH   H01 9510   2.738   4.462   0.520
   96GLOH   H03 9511   2.612   5.234   0.496
   96GLOH    O1 9512   2.571   5.201   0.412
   96GLOH    C1 9513   2.443   5.141   0.440
   96GLOH   H02 9514   2.364   5.200   0.392
   96GLOH   H08 9515   2.422   5.143   0.547
   96GLOH    C2 9516   2.430   4.996   0.390
   96GLOH   H04 9517   2.494   4.933   0.453
   96GLOH    O2 9518   2.294   4.951   0.405
   96GLOH   H05 9519   2.273   4.948   0.503
   96GLOH    C3 9520   2.479   4.981   0.244
   96GLOH   H06 9521   2.450   5.070   0.189
   96GLOH   H07 9522   2.426   4.897   0.198
   96GLOH    O3 9523   2.621   4.961   0.234
   96GLOH   H01 9524   2.648   4.988   0.144
   97GLOH   H03 9525   3.435   1.971   2.473
   97GLOH    O1 9526   3.401   1.950   2.382
   97GLOH    C1 9527   3.274   1.881   2.390
   97GLOH   H02 9528   3.215   1.919   2.474
   97GLOH   H08 9529   3.290   1.775   2.408
   97GLOH    C2 9530   3.192   1.898   2.261
   97GLOH   H04 9531   3.258   1.878   2.175
   97GLOH    O2 9532   3.080   1.807   2.258
   97GLOH   H05 9533   3.015   1.847   2.196
   97GLOH    C3 9534   3.137   2.042   2.248
   97GLOH   H06 9535   3.218   2.113   2.262
   97GLOH   H07 9536   3.065   2.060   2.328
   97GLOH    O3 9537   3.075   2.059   2.119
   97GLOH   H01 9538   3.002   2.128   2.124
   98GLOH   H03 9539   2.781   0.669   0.971
   98GLOH    O1 9540   2.732   0.583   0.952
   98GLOH    C1 9541   2.769   0.543   0.819
   98GLOH   H02 9542   2.860   0.594   0.787
   98GLOH   H08 9543   2.690   0.573   0.749
   98GLOH    C2 9544   2.791   0.392   0.804
   98GLOH   H04 9545   2.695   0.341   0.822
   98GLOH    O2 9546   2.835   0.363   0.670
   98GLOH   H05 9547   2.861   0.268   0.663
   98GLOH    C3 9548   2.893   0.342   0.908
   98GLOH   H06 9549   2.857   0.370   1.008
   98GLOH   H07 9550   2.987   0.395   0.893
   98GLOH    O3 9551   2.914   0.199   0.903
   98GLOH   H01 9552   2.944   0.175   0.811
   99GLOH   H03 9553   3.883   0.705   1.433
   99GLOH    O1 9554   3.823   0.756   1.373
   99GLOH    C1 9555   3.686   0.715   1.396
   99GLOH   H02 9556   3.618   0.778   1.339
   99GLOH   H08 9557   3.660   0.729   1.501
   99GLOH    C2 9558   3.661   0.568   1.358
   99GLOH   H04 9559   3.715   0.505   1.430
   99GLOH    O2 9560   3.520   0.535   1.365
   99GLOH   H05 9561   3.507   0.441   1.335
   99GLOH    C3 9562   3.719   0.540   1.219
   99GLOH   H06 9563   3.705   0.435   1.196
   99GLOH   H07 9564   3.827   0.557   1.224
   99GLOH    O3 9565   3.660   0.623   1.116
   99GLOH   H01 9566   3.570   0.584   1.098
  100GLOH   H03 9567   2.967   6.792   1.947
  100GLOH    O1 9568   2.995   6.877   1.907
  100GLOH    C1 9569   3.026   6.860   1.768
  100GLOH   H02 9570   3.098   6.779   1.754
  100GLOH   H08 9571   3.074   6.950   1.728
  100GLOH    C2 9572   2.902   6.830   1.683
  100GLOH   H04 9573   2.851   6.742   1.726
  100GLOH    O2 9574   2.809   6.940   1.686
  100GLOH   H05 9575   2.851   7.022   1.649
  100GLOH    C3 9576   2.943   6.794   1.539
  100GLOH   H06 9577   2.989   6.882   1.492
  100GLOH   H07 9578   2.854   6.770   1.481
  100GLOH    O3 9579   3.032   6.682   1.534
  100GLOH   H01 9580   3.003   6.616   1.603
  101GLOH   H03 9581   2.794   4.601   2.095
  101GLOH    O1 9582   2.808   4.674   2.161
  101GLOH    C1 9583   2.728   4.786   2.119
  101GLOH   H02 9584   2.627   4.753   2.096
  101GLOH   H08 9585   2.768   4.827   2.027
  101GLOH    C2 9586   2.719   4.900   2.222
  101GLOH   H04 9587   2.670   4.985   2.172
  101GLOH    O2 9588   2.640   4.866   2.337
  101GLOH   H05 9589   2.547   4.846   2.307
  101GLOH    C3 9590   2.860   4.946   2.263
  101GLOH   H06 9591   2.915   4.859   2.300
  101GLOH   H07 9592   2.851   5.016   2.346
  101GLOH    O3 9593   2.931   5.007   2.154
  101GLOH   H01 9594   3.016   5.043   2.189
  102GLOH   H03 9595   3.210   5.577   2.248
  102GLOH    O1 9596   3.193   5.658   2.193
  102GLOH    C1 9597   3.164   5.766   2.284
  102GLOH   H02 9598   3.253   5.791   2.343
  102GLOH   H08 9599   3.087   5.735   2.356
  102GLOH    C2 9600   3.116   5.894   2.214
  102GLOH   H04 9601   3.026   5.870   2.155
  102GLOH    O2 9602   3.084   5.993   2.314
  102GLOH   H05 9603   3.026   6.063   2.276
  102GLOH    C3 9604   3.225   5.945   2.117
  102GLOH   H06 9605   3.251   5.864   2.049
  102GLOH   H07 9606   3.315   5.966   2.176
  102GLOH    O3 9607   3.185   6.061   2.044
  102GLOH   H01 9608   3.123   6.035   1.971
  103GLOH   H03 9609   2.812   9.982   0.136
  103GLOH    O1 9610   2.774   0.059   0.183
  103GLOH    C1 9611   2.731   0.018   0.315
  103GLOH   H02 9612   2.818   9.993   0.377
  103GLOH   H08 9613   2.670   9.928   0.308
  103GLOH    C2 9614   2.651   0.127   0.388
  103GLOH   H04 9615   2.559   0.148   0.329
  103GLOH    O2 9616   2.614   0.081   0.519
  103GLOH   H05 9617   2.560   0.150   0.569
  103GLOH    C3 9618   2.734   0.256   0.396
  103GLOH   H06 9619   2.821   0.238   0.459
  103GLOH   H07 9620   2.674   0.334   0.444
  103GLOH    O3 9621   2.776   0.299   0.265
  103GLOH   H01 9622   2.779   0.216   0.211
  104GLOH   H03 9623   4.193   2.723   2.245
  104GLOH    O1 9624   4.208   2.646   2.306
  104GLOH    C1 9625   4.350   2.628   2.325
  104GLOH   H02 9626   4.369   2.526   2.361
  104GLOH   H08 9627   4.387   2.695   2.402
  104GLOH    C2 9628   4.434   2.650   2.197
  104GLOH   H04 9629   4.394   2.584   2.118
  104GLOH    O2 9630   4.424   2.787   2.152
  104GLOH   H05 9631   4.329   2.803   2.127
  104GLOH    C3 9632   4.581   2.611   2.222
  104GLOH   H06 9633   4.621   2.676   2.301
  104GLOH   H07 9634   4.638   2.631   2.132
  104GLOH    O3 9635   4.593   2.473   2.259
  104GLOH   H01 9636   4.646   2.465   2.342
  105GLOH   H03 9637   3.414   4.006   1.009
  105GLOH    O1 9638   3.482   4.076   0.992
  105GLOH    C1 9639   3.489   4.157   1.111
  105GLOH   H02 9640   3.389   4.179   1.148
  105GLOH   H08 9641   3.536   4.253   1.088
  105GLOH    C2 9642   3.569   4.092   1.226
  105GLOH   H04 9643   3.568   4.162   1.311
  105GLOH    O2 9644   3.512   3.966   1.269
  105GLOH   H05 9645   3.434   3.984   1.329
  105GLOH    C3 9646   3.716   4.072   1.184
  105GLOH   H06 9647   3.720   4.002   1.101
  105GLOH   H07 9648   3.769   4.026   1.267
  105GLOH    O3 9649   3.779   4.197   1.150
  105GLOH   H01 9650   3.789   4.248   1.234
  106GLOH   H03 9651   4.048   9.254   1.983
  106GLOH    O1 9652   4.130   9.289   2.026
  106GLOH    C1 9653   4.139   9.432   2.005
  106GLOH   H02 9654   4.092   9.460   1.911
  106GLOH   H08 9655   4.243   9.462   1.999
  106GLOH    C2 9656   4.073   9.513   2.119
  106GLOH   H04 9657   4.125   9.489   2.212
  106GLOH    O2 9658   4.087   9.654   2.092
  106GLOH   H05 9659   4.001   9.693   2.060
  106GLOH    C3 9660   3.925   9.472   2.135
  106GLOH   H06 9661   3.920   9.364   2.150
  106GLOH   H07 9662   3.873   9.492   2.041
  106GLOH    O3 9663   3.859   9.539   2.244
  106GLOH   H01 9664   3.917   9.533   2.323
  107GLOH   H03 9665   1.899   4.724   1.687
  107GLOH    O1 9666   1.952   4.783   1.627
  107GLOH    C1 9667   1.968   4.910   1.695
  107GLOH   H02 9668   2.007   4.894   1.796
  107GLOH   H08 9669   1.872   4.960   1.705
  107GLOH    C2 9670   2.064   5.003   1.618
  107GLOH   H04 9671   2.022   5.018   1.518
  107GLOH    O2 9672   2.074   5.132   1.683
  107GLOH   H05 9673   2.108   5.127   1.776
  107GLOH    C3 9674   2.202   4.937   1.602
  107GLOH   H06 9675   2.249   4.929   1.700
  107GLOH   H07 9676   2.265   5.002   1.541
  107GLOH    O3 9677   2.190   4.807   1.541
  107GLOH   H01 9678   2.099   4.777   1.566
  108GLOH   H03 9679   3.218   5.408   1.551
  108GLOH    O1 9680   3.294   5.361   1.595
  108GLOH    C1 9681   3.246   5.297   1.716
  108GLOH   H02 9682   3.164   5.355   1.759
  108GLOH   H08 9683   3.325   5.296   1.791
  108GLOH    C2 9684   3.196   5.153   1.693
  108GLOH   H04 9685   3.270   5.100   1.631
  108GLOH    O2 9686   3.183   5.085   1.820
  108GLOH   H05 9687   3.264   5.025   1.831
  108GLOH    C3 9688   3.061   5.152   1.620
  108GLOH   H06 9689   2.987   5.202   1.682
  108GLOH   H07 9690   3.028   5.048   1.612
  108GLOH    O3 9691   3.064   5.211   1.489
  108GLOH   H01 9692   3.065   5.311   1.497
  109GLOH   H03 9693   4.239   3.156   0.393
  109GLOH    O1 9694   4.229   3.064   0.430
  109GLOH    C1 9695   4.171   3.080   0.561
  109GLOH   H02 9696   4.088   3.151   0.558
  109GLOH   H08 9697   4.244   3.119   0.631
  109GLOH    C2 9698   4.118   2.947   0.618
  109GLOH   H04 9699   4.203   2.880   0.634
  109GLOH    O2 9700   4.053   2.972   0.744
  109GLOH   H05 9701   4.114   2.939   0.817
  109GLOH    C3 9702   4.022   2.881   0.518
  109GLOH   H06 9703   3.938   2.947   0.500
  109GLOH   H07 9704   3.982   2.790   0.562
  109GLOH    O3 9705   4.091   2.852   0.395
  109GLOH   H01 9706   4.154   2.928   0.383
  110GLOH   H03 9707   4.092   0.687   2.843
  110GLOH    O1 9708   4.108   0.686   2.747
  110GLOH    C1 9709   4.142   0.818   2.701
  110GLOH   H02 9710   4.244   0.843   2.731
  110GLOH   H08 9711   4.077   0.893   2.746
  110GLOH    C2 9712   4.132   0.831   2.547
  110GLOH   H04 9713   4.027   0.812   2.519
  110GLOH    O2 9714   4.169   0.963   2.501
  110GLOH   H05 9715   4.098   1.026   2.524
  110GLOH    C3 9716   4.220   0.724   2.481
  110GLOH   H06 9717   4.323   0.739   2.512
  110GLOH   H07 9718   4.216   0.736   2.373
  110GLOH    O3 9719   4.175   0.592   2.518
  110GLOH   H01 9720   4.143   0.601   2.611
  111GLOH   H03 9721   3.732   5.579   0.418
  111GLOH    O1 9722   3.814   5.543   0.376
  111GLOH    C1 9723   3.804   5.399   0.381
  111GLOH   H02 9724   3.852   5.361   0.471
  111GLOH   H08 9725   3.855   5.354   0.296
  111GLOH    C2 9726   3.658   5.350   0.380
  111GLOH   H04 9727   3.611   5.380   0.285
  111GLOH    O2 9728   3.653   5.206   0.393
  111GLOH   H05 9729   3.586   5.180   0.463
  111GLOH    C3 9730   3.582   5.417   0.496
  111GLOH   H06 9731   3.633   5.388   0.588
  111GLOH   H07 9732   3.481   5.377   0.501
  111GLOH    O3 9733   3.579   5.561   0.485
  111GLOH   H01 9734   3.497   5.592   0.531
  112GLOH   H03 9735   3.659   8.326   2.225
  112GLOH    O1 9736   3.573   8.325   2.175
  112GLOH    C1 9737   3.608   8.342   2.036
  112GLOH   H02 9738   3.531   8.401   1.985
  112GLOH   H08 9739   3.612   8.246   1.985
  112GLOH    C2 9740   3.744   8.413   2.015
  112GLOH   H04 9741   3.773   8.399   1.910
  112GLOH    O2 9742   3.735   8.554   2.042
  112GLOH   H05 9743   3.699   8.573   2.133
  112GLOH    C3 9744   3.852   8.346   2.102
  112GLOH   H06 9745   3.945   8.402   2.092
  112GLOH   H07 9746   3.871   8.246   2.062
  112GLOH    O3 9747   3.816   8.337   2.241
  112GLOH   H01 9748   3.890   8.377   2.294
  113GLOH   H03 9749   3.408   7.943   0.176
  113GLOH    O1 9750   3.346   7.914   0.104
  113GLOH    C1 9751   3.284   8.030   0.045
  113GLOH   H02 9752   3.309   8.120   0.102
  113GLOH   H08 9753   3.176   8.020   0.051
  113GLOH    C2 9754   3.321   8.055   2.755
  113GLOH   H04 9755   3.271   8.148   2.725
  113GLOH    O2 9756   3.463   8.073   2.735
  113GLOH   H05 9757   3.497   8.144   2.792
  113GLOH    C3 9758   3.266   7.943   2.665
  113GLOH   H06 9759   3.308   7.955   2.565
  113GLOH   H07 9760   3.158   7.956   2.656
  113GLOH    O3 9761   3.296   7.812   2.716
  113GLOH   H01 9762   3.336   7.826   2.806
  114GLOH   H03 9763   2.876   2.229   2.285
  114GLOH    O1 9764   2.856   2.224   2.381
  114GLOH    C1 9765   2.725   2.281   2.402
  114GLOH   H02 9766   2.697   2.345   2.318
  114GLOH   H08 9767   2.726   2.345   2.490
  114GLOH    C2 9768   2.618   2.172   2.421
  114GLOH   H04 9769   2.625   2.101   2.337
  114GLOH    O2 9770   2.641   2.101   2.544
  114GLOH   H05 9771   2.738   2.100   2.558
  114GLOH    C3 9772   2.478   2.235   2.418
  114GLOH   H06 9773   2.475   2.318   2.489
  114GLOH   H07 9774   2.406   2.161   2.452
  114GLOH    O3 9775   2.442   2.281   2.286
  114GLOH   H01 9776   2.377   2.214   2.250
  115GLOH   H03 9777   4.960   3.494   1.408
  115GLOH    O1 9778   4.917   3.503   1.497
  115GLOH    C1 9779   4.878   3.640   1.518
  115GLOH   H02 9780   4.826   3.679   1.430
  115GLOH   H08 9781   4.967   3.701   1.532
  115GLOH    C2 9782   4.788   3.658   1.641
  115GLOH   H04 9783   4.847   3.634   1.731
  115GLOH    O2 9784   4.740   3.794   1.651
  115GLOH   H05 9785   4.717   3.811   1.747
  115GLOH    C3 9786   4.669   3.560   1.634
  115GLOH   H06 9787   4.607   3.585   1.548
  115GLOH   H07 9788   4.608   3.574   1.723
  115GLOH    O3 9789   4.715   3.423   1.625
  115GLOH   H01 9790   4.804   3.430   1.582
  116GLOH   H03 9791   3.134   0.596   2.495
  116GLOH    O1 9792   3.074   0.663   2.455
  116GLOH    C1 9793   2.940   0.615   2.470
  116GLOH   H02 9794   2.919   0.593   2.575
  116GLOH   H08 9795   2.927   0.522   2.415
  116GLOH    C2 9796   2.833   0.715   2.420
  116GLOH   H04 9797   2.848   0.731   2.312
  116GLOH    O2 9798   2.701   0.662   2.443
  116GLOH   H05 9799   2.682   0.680   2.538
  116GLOH    C3 9800   2.846   0.850   2.492
  116GLOH   H06 9801   2.780   0.921   2.443
  116GLOH   H07 9802   2.948   0.887   2.479
  116GLOH    O3 9803   2.813   0.838   2.632
  116GLOH   H01 9804   2.840   0.920   2.679
  117GLOH   H03 9805   4.064   0.621   1.077
  117GLOH    O1 9806   4.096   0.554   1.011
  117GLOH    C1 9807   4.000   0.447   0.998
  117GLOH   H02 9808   3.973   0.431   0.893
  117GLOH   H08 9809   3.906   0.472   1.048
  117GLOH    C2 9810   4.050   0.313   1.055
  117GLOH   H04 9811   4.059   0.323   1.164
  117GLOH    O2 9812   3.956   0.207   1.026
  117GLOH   H05 9813   3.961   0.184   0.928
  117GLOH    C3 9814   4.190   0.278   1.000
  117GLOH   H06 9815   4.182   0.261   0.892
  117GLOH   H07 9816   4.223   0.185   1.045
  117GLOH    O3 9817   4.283   0.384   1.027
  117GLOH   H01 9818   4.229   0.467   1.024
  118GLOH   H03 9819   3.491   8.637   1.463
  118GLOH    O1 9820   3.577   8.687   1.461
  118GLOH    C1 9821   3.570   8.789   1.360
  118GLOH   H02 9822   3.499   8.866   1.389
  118GLOH   H08 9823   3.534   8.747   1.266
  118GLOH    C2 9824   3.705   8.858   1.332
  118GLOH   H04 9825   3.688   8.934   1.254
  118GLOH    O2 9826   3.755   8.926   1.450
  118GLOH   H05 9827   3.754   8.861   1.526
  118GLOH    C3 9828   3.808   8.758   1.278
  118GLOH   H06 9829   3.819   8.677   1.351
  118GLOH   H07 9830   3.905   8.808   1.271
  118GLOH    O3 9831   3.769   8.707   1.150
  118GLOH   H01 9832   3.735   8.615   1.162
  119GLOH   H03 9833   3.521   2.426   2.271
  119GLOH    O1 9834   3.540   2.336   2.309
  119GLOH    C1 9835   3.629   2.348   2.421
  119GLOH   H02 9836   3.592   2.421   2.493
  119GLOH   H08 9837   3.728   2.382   2.388
  119GLOH    C2 9838   3.645   2.212   2.492
  119GLOH   H04 9839   3.677   2.138   2.418
  119GLOH    O2 9840   3.742   2.220   2.598
  119GLOH   H05 9841   3.827   2.255   2.564
  119GLOH    C3 9842   3.509   2.169   2.549
  119GLOH   H06 9843   3.431   2.183   2.474
  119GLOH   H07 9844   3.484   2.235   2.633
  119GLOH    O3 9845   3.511   2.032   2.594
  119GLOH   H01 9846   3.584   2.026   2.659
  120GLOH   H03 9847   5.452   2.767   0.717
  120GLOH    O1 9848   5.372   2.711   0.736
  120GLOH    C1 9849   5.390   2.653   0.867
  120GLOH   H02 9850   5.480   2.591   0.867
  120GLOH   H08 9851   5.307   2.587   0.890
  120GLOH    C2 9852   5.403   2.755   0.982
  120GLOH   H04 9853   5.403   2.700   1.077
  120GLOH    O2 9854   5.524   2.834   0.974
  120GLOH   H05 9855   5.542   2.875   1.063
  120GLOH    C3 9856   5.281   2.850   0.983
  120GLOH   H06 9857   5.278   2.903   0.888
  120GLOH   H07 9858   5.296   2.925   1.061
  120GLOH    O3 9859   5.157   2.781   1.004
  120GLOH   H01 9860   5.088   2.852   1.005
  121ACOH    H4 9861   2.248   8.480   2.110
  121ACOH    O2 9862   2.186   8.441   2.043
  121ACOH    C2 9863   2.180   8.309   2.067
  121ACOH    O1 9864   2.230   8.249   2.161
  121ACOH    C1 9865   2.096   8.241   1.965
  121ACOH    H1 9866   2.147   8.245   1.869
  121ACOH    H2 9867   2.001   8.293   1.957
  121ACOH    H3 9868   2.078   8.138   1.992
  122ACOH    H4 9869   4.238   2.177   1.748
  122ACOH    O2 9870   4.298   2.104   1.717
  122ACOH    C2 9871   4.251   2.063   1.598
  122ACOH    O1 9872   4.143   2.090   1.550
  122ACOH    C1 9873   4.345   1.971   1.529
  122ACOH    H1 9874   4.296   1.877   1.508
  122ACOH    H2 9875   4.432   1.952   1.592
  122ACOH    H3 9876   4.378   2.016   1.436
  123ACOH    H4 9877   3.532   7.591   0.484
  123ACOH    O2 9878   3.623   7.551   0.472
  123ACOH    C2 9879   3.606   7.417   0.473
  123ACOH    O1 9880   3.508   7.354   0.506
  123ACOH    C1 9881   3.731   7.348   0.433
  123ACOH    H1 9882   3.809   7.421   0.412
  123ACOH    H2 9883   3.713   7.288   0.345
  123ACOH    H3 9884   3.763   7.284   0.515
  124ACOH    H4 9885   4.243   1.181   1.415
  124ACOH    O2 9886   4.336   1.209   1.400
  124ACOH    C2 9887   4.335   1.343   1.383
  124ACOH    O1 9888   4.239   1.416   1.395
  124ACOH    C1 9889   4.473   1.393   1.364
  124ACOH    H1 9890   4.475   1.502   1.371
  124ACOH    H2 9891   4.510   1.363   1.266
  124ACOH    H3 9892   4.538   1.352   1.441
  125ACOH    H4 9893   5.102   2.640   1.013
  125ACOH    O2 9894   5.052   2.554   1.012
  125ACOH    C2 9895   4.964   2.562   1.115
  125ACOH    O1 9896   4.970   2.640   1.208
  125ACOH    C1 9897   4.865   2.452   1.108
  125ACOH    H1 9898   4.794   2.460   1.190
  125ACOH    H2 9899   4.916   2.356   1.116
  125ACOH    H3 9900   4.812   2.456   1.014
  126ACOH    H4 9901   5.113   9.524   1.446
  126ACOH    O2 9902   5.055   9.462   1.399
  126ACOH    C2 9903   5.121   9.345   1.393
  126ACOH    O1 9904   5.232   9.324   1.437
  126ACOH    C1 9905   5.042   9.240   1.324
  126ACOH    H1 9906   4.944   9.279   1.295
  126ACOH    H2 9907   5.028   9.156   1.391
  126ACOH    H3 9908   5.095   9.207   1.236
  127ACOH    H4 9909   4.326   0.930   1.245
  127ACOH    O2 9910   4.408   0.943   1.191
  127ACOH    C2 9911   4.389   1.053   1.115
  127ACOH    O1 9912   4.285   1.115   1.102
  127ACOH    C1 9913   4.509   1.082   1.033
  127ACOH    H1 9914   4.593   1.023   1.067
  127ACOH    H2 9915   4.534   1.187   1.040
  127ACOH    H3 9916   4.488   1.057   0.930
  128ACOH    H4 9917   3.227   3.325   0.480
  128ACOH    O2 9918   3.160   3.386   0.439
  128ACOH    C2 9919   3.192   3.510   0.482
  128ACOH    O1 9920   3.304   3.549   0.510
  128ACOH    C1 9921   3.082   3.606   0.458
  128ACOH    H1 9922   3.106   3.668   0.372
  128ACOH    H2 9923   3.069   3.670   0.545
  128ACOH    H3 9924   2.989   3.554   0.438
  129ACOH    H4 9925   2.173   2.944   0.397
  129ACOH    O2 9926   2.075   2.925   0.402
  129ACOH    C2 9927   2.053   2.812   0.332
  129ACOH    O1 9928   2.135   2.747   0.269
  129ACOH    C1 9929   1.909   2.777   0.332
  129ACOH    H1 9930   1.867   2.800   0.235
  129ACOH    H2 9931   1.857   2.832   0.410
  129ACOH    H3 9932   1.899   2.671   0.351
  130ACOH    H4 9933   3.871   8.221   0.391
  130ACOH    O2 9934   3.960   8.242   0.350
  130ACOH    C2 9935   3.942   8.345   0.265
  130ACOH    O1 9936   3.842   8.413   0.254
  130ACOH    C1 9937   4.068   8.378   0.194
  130ACOH    H1 9938   4.143   8.302   0.213
  130ACOH    H2 9939   4.104   8.474   0.228
  130ACOH    H3 9940   4.049   8.383   0.087
  131ACOH    H4 9941   3.693   5.072   1.398
  131ACOH    O2 9942   3.750   5.154   1.402
  131ACOH    C2 9943   3.873   5.118   1.363
  131ACOH    O1 9944   3.914   5.005   1.341
  131ACOH    C1 9945   3.965   5.234   1.361
  131ACOH    H1 9946   4.040   5.223   1.438
  131ACOH    H2 9947   3.909   5.326   1.378
  131ACOH    H3 9948   4.014   5.240   1.264
  132ACOH    H4 9949   5.750   3.300   0.744
  132ACOH    O2 9950   5.839   3.275   0.706
  132ACOH    C2 9951   5.819   3.164   0.632
  132ACOH    O1 9952   5.719   3.094   0.633
  132ACOH    C1 9953   5.940   3.126   0.556
  132ACOH    H1 9954   6.019   3.200   0.571
  132ACOH    H2 9955   5.916   3.121   0.450
  132ACOH    H3 9956   5.975   3.029   0.590
  133ACOH    H4 9957   5.269   3.998   0.501
  133ACOH    O2 9958   5.299   4.092   0.515
  133ACOH    C2 9959   5.268   4.122   0.642
  133ACOH    O1 9960   5.175   4.074   0.705
  133ACOH    C1 9961   5.339   4.243   0.690
  133ACOH    H1 9962   5.389   4.220   0.783
  133ACOH    H2 9963   5.267   4.322   0.707
  133ACOH    H3 9964   5.412   4.275   0.617
  134ACOH    H4 9965   4.840   2.736   1.945
  134ACOH    O2 9966   4.822   2.809   2.011
  134ACOH    C2 9967   4.889   2.773   2.123
  134ACOH    O1 9968   4.977   2.690   2.132
  134ACOH    C1 9969   4.853   2.860   2.237
  134ACOH    H1 9970   4.825   2.797   2.322
  134ACOH    H2 9971   4.770   2.925   2.213
  134ACOH    H3 9972   4.939   2.920   2.266
  135ACOH    H4 9973   4.826   4.057   0.770
  135ACOH    O2 9974   4.789   4.006   0.847
  135ACOH    C2 9975   4.780   3.878   0.806
  135ACOH    O1 9976   4.817   3.834   0.699
  135ACOH    C1 9977   4.723   3.792   0.913
  135ACOH    H1 9978   4.796   3.717   0.942
  135ACOH    H2 9979   4.634   3.742   0.876
  135ACOH    H3 9980   4.697   3.851   1.000
  136ACOH    H4 9981   3.947   5.565   0.311
  136ACOH    O2 9982   4.031   5.577   0.258
  136ACOH    C2 9983   4.124   5.495   0.311
  136ACOH    O1 9984   4.112   5.422   0.408
  136ACOH    C1 9985   4.250   5.499   0.233
  136ACOH    H1 9986   4.333   5.525   0.299
  136ACOH    H2 9987   4.243   5.574   0.155
  136ACOH    H3 9988   4.268   5.402   0.189
  137ACOH    H4 9989   2.363   6.616   2.109
  137ACOH    O2 9990   2.281   6.666   2.083
  137ACOH    C2 9991   2.182   6.612   2.156
  137ACOH    O1 9992   2.186   6.509   2.220
  137ACOH    C1 9993   2.058   6.693   2.143
  137ACOH    H1 9994   1.977   6.647   2.198
  137ACOH    H2 9995   2.030   6.700   2.038
  137ACOH    H3 9996   2.076   6.793   2.182
  138ACOH    H4 9997   3.774   8.126   1.027
  138ACOH    O2 9998   3.873   8.120   1.016
  138ACOH    C2 9999   3.897   8.076   0.891
  138ACOH    O110000   3.816   8.060   0.802
  138ACOH    C110001   4.043   8.059   0.869
  138ACOH    H110002   4.097   8.068   0.963
  138ACOH    H210003   4.079   8.137   0.801
  138ACOH    H310004   4.063   7.962   0.825
  139ACOH    H410005   2.113   1.992   1.681
  139ACOH    O210006   2.107   1.894   1.701
  139ACOH    C210007   2.125   1.826   1.587
  139ACOH    O110008   2.144   1.870   1.475
  139ACOH    C110009   2.117   1.680   1.615
  139ACOH    H110010   2.196   1.653   1.685
  139ACOH    H210011   2.128   1.622   1.524
  139ACOH    H310012   2.021   1.658   1.661
  140ACOH    H410013   2.325   3.532   0.894
  140ACOH    O210014   2.253   3.507   0.831
  140ACOH    C210015   2.270   3.376   0.803
  140ACOH    O110016   2.340   3.299   0.865
  140ACOH    C110017   2.173   3.329   0.700
  140ACOH    H110018   2.097   3.268   0.747
  140ACOH    H210019   2.226   3.269   0.626
  140ACOH    H310020   2.127   3.413   0.649
  141ACOH    H410021   4.837   3.999   2.022
  141ACOH    O210022   4.924   3.975   1.979
  141ACOH    C210023   4.948   3.847   2.014
  141ACOH    O110024   4.903   3.788   2.110
  141ACOH    C110025   5.063   3.794   1.936
  141ACOH    H110026   5.097   3.700   1.978
  141ACOH    H210027   5.144   3.866   1.936
  141ACOH    H310028   5.030   3.778   1.833
  142ACOH    H410029   2.644   6.838   1.462
  142ACOH    O210030   2.613   6.754   1.505
  142ACOH    C210031   2.549   6.784   1.620
  142ACOH    O110032   2.531   6.704   1.709
  142ACOH    C110033   2.499   6.925   1.627
  142ACOH    H110034   2.582   6.994   1.616
  142ACOH    H210035   2.452   6.943   1.723
  142ACOH    H310036   2.427   6.942   1.549
  143ACOH    H410037   2.295   4.364   1.275
  143ACOH    O210038   2.236   4.422   1.331
  143ACOH    C210039   2.243   4.371   1.456
  143ACOH    O110040   2.323   4.289   1.496
  143ACOH    C110041   2.147   4.439   1.547
  143ACOH    H110042   2.202   4.493   1.623
  143ACOH    H210043   2.085   4.364   1.595
  143ACOH    H310044   2.084   4.508   1.493
  144ACOH    H410045   4.320   1.648   1.636
  144ACOH    O210046   4.403   1.599   1.611
  144ACOH    C210047   4.484   1.600   1.718
  144ACOH    O110048   4.474   1.670   1.817
  144ACOH    C110049   4.601   1.511   1.695
  144ACOH    H110050   4.671   1.518   1.777
  144ACOH    H210051   4.651   1.540   1.603
  144ACOH    H310052   4.566   1.409   1.687
  145ACOH    H410053   4.394   0.598   0.471
  145ACOH    O210054   4.385   0.547   0.386
  145ACOH    C210055   4.303   0.444   0.410
  145ACOH    O110056   4.255   0.413   0.518
  145ACOH    C110057   4.275   0.365   0.288
  145ACOH    H110058   4.168   0.362   0.270
  145ACOH    H210059   4.311   0.263   0.301
  145ACOH    H310060   4.325   0.409   0.202
  146ACOH    H410061   5.120   1.885   0.555
  146ACOH    O210062   5.148   1.790   0.560
  146ACOH    C210063   5.134   1.738   0.437
  146ACOH    O110064   5.095   1.795   0.337
  146ACOH    C110065   5.171   1.594   0.439
  146ACOH    H110066   5.160   1.550   0.340
  146ACOH    H210067   5.105   1.542   0.508
  146ACOH    H310068   5.273   1.584   0.472
  147ACOH    H410069   3.935   9.295   0.327
  147ACOH    O210070   3.988   9.238   0.390
  147ACOH    C210071   3.925   9.246   0.508
  147ACOH    O110072   3.838   9.324   0.541
  147ACOH    C110073   3.985   9.151   0.605
  147ACOH    H110074   4.093   9.163   0.606
  147ACOH    H210075   3.961   9.049   0.575
  147ACOH    H310076   3.947   9.168   0.705
  148ACOH    H410077   2.378   9.207   2.025
  148ACOH    O210078   2.283   9.227   2.046
  148ACOH    C210079   2.280   9.285   2.167
  148ACOH    O110080   2.375   9.303   2.241
  148ACOH    C110081   2.141   9.322   2.203
  148ACOH    H110082   2.104   9.394   2.131
  148ACOH    H210083   2.137   9.365   2.302
  148ACOH    H310084   2.078   9.234   2.199
  149ACOH    H410085   2.203   7.576   1.425
  149ACOH    O210086   2.247   7.542   1.343
  149ACOH    C210087   2.282   7.650   1.271
  149ACOH    O110088   2.268   7.767   1.302
  149ACOH    C110089   2.341   7.609   1.142
  149ACOH    H110090   2.268   7.550   1.086
  149ACOH    H210091   2.429   7.547   1.160
  149ACOH    H310092   2.370   7.695   1.083
  150ACOH    H410093   4.628   4.604   0.881
  150ACOH    O210094   4.662   4.697   0.876
  150ACOH    C210095   4.565   4.774   0.825
  150ACOH    O110096   4.449   4.742   0.806
  150ACOH    C110097   4.610   4.913   0.804
  150ACOH    H110098   4.597   4.941   0.700
  150ACOH    H210099   4.715   4.923   0.831
  150ACOH    H310100   4.551   4.981   0.866
  151ACOH    H410101   2.293   1.160   1.911
  151ACOH    O210102   2.314   1.111   1.827
  151ACOH    C210103   2.316   0.980   1.858
  151ACOH    O110104   2.295   0.930   1.967
  151ACOH    C110105   2.344   0.899   1.737
  151ACOH    H110106   2.441   0.927   1.697
  151ACOH    H210107   2.268   0.917   1.662
  151ACOH    H310108   2.346   0.793   1.762
  152ACOH    H410109   3.440   5.369   1.568
  152ACOH    O210110   3.536   5.388   1.549
  152ACOH    C210111   3.608   5.329   1.645
  152ACOH    O110112   3.571   5.238   1.717
  152ACOH    C110113   3.749   5.373   1.645
  152ACOH    H110114   3.763   5.458   1.578
  152ACOH    H210115   3.813   5.291   1.612
  152ACOH    H310116   3.778   5.402   1.745
  153ACOH    H410117   4.073   8.698   0.488
  153ACOH    O210118   4.065   8.770   0.418
  153ACOH    C210119   4.147   8.869   0.459
  153ACOH    O110120   4.187   8.888   0.572
  153ACOH    C110121   4.163   8.968   0.349
  153ACOH    H110122   4.219   9.055   0.384
  153ACOH    H210123   4.066   9.002   0.315
  153ACOH    H310124   4.216   8.923   0.266
  154ACOH    H410125   2.799   5.155   1.987
  154ACOH    O210126   2.745   5.084   1.943
  154ACOH    C210127   2.616   5.119   1.956
  154ACOH    O110128   2.573   5.220   2.008
  154ACOH    C110129   2.526   5.017   1.898
  154ACOH    H110130   2.463   4.976   1.976
  154ACOH    H210131   2.582   4.936   1.852
  154ACOH    H310132   2.462   5.063   1.822
  155ACOH    H410133   2.717   8.888   0.327
  155ACOH    O210134   2.647   8.845   0.272
  155ACOH    C210135   2.528   8.866   0.331
  155ACOH    O110136   2.506   8.936   0.429
  155ACOH    C110137   2.419   8.800   0.256
  155ACOH    H110138   2.421   8.835   0.153
  155ACOH    H210139   2.322   8.822   0.299
  155ACOH    H310140   2.435   8.692   0.257
  156ACOH    H410141   5.578   3.424   1.340
  156ACOH    O210142   5.636   3.491   1.386
  156ACOH    C210143   5.760   3.478   1.336
  156ACOH    O110144   5.791   3.413   1.238
  156ACOH    C110145   5.857   3.565   1.407
  156ACOH    H110146   5.943   3.506   1.437
  156ACOH    H210147   5.811   3.609   1.495
  156ACOH    H310148   5.889   3.644   1.340
  157ACOH    H410149   3.928   4.612   1.599
  157ACOH    O210150   3.942   4.530   1.651
  157ACOH    C210151   4.069   4.491   1.628
  157ACOH    O110152   4.143   4.536   1.542
  157ACOH    C110153   4.105   4.375   1.712
  157ACOH    H110154   4.035   4.294   1.694
  157ACOH    H210155   4.100   4.402   1.817
  157ACOH    H310156   4.206   4.340   1.689
  158ACOH    H410157   4.291   4.814   0.304
  158ACOH    O210158   4.374   4.762   0.284
  158ACOH    C210159   4.345   4.632   0.298
  158ACOH    O110160   4.237   4.584   0.330
  158ACOH    C110161   4.463   4.549   0.267
  158ACOH    H110162   4.540   4.567   0.341
  158ACOH    H210163   4.501   4.575   0.169
  158ACOH    H310164   4.437   4.443   0.267
  159ACOH    H410165   4.572   2.267   0.712
  159ACOH    O210166   4.539   2.355   0.747
  159ACOH    C210167   4.543   2.348   0.881
  159ACOH    O110168   4.586   2.256   0.948
  159ACOH    C110169   4.495   2.475   0.941
  159ACOH    H110170   4.504   2.472   1.049
  159ACOH    H210171   4.391   2.489   0.915
  159ACOH    H310172   4.554   2.558   0.902
  160ACOH    H410173   5.120   2.657   2.226
  160ACOH    O210174   5.204   2.641   2.276
  160ACOH    C210175   5.180   2.671   2.405
  160ACOH    O110176   5.083   2.730   2.449
  160ACOH    C110177   5.299   2.639   2.486
  160ACOH    H110178   5.287   2.676   2.588
  160ACOH    H210179   5.387   2.684   2.442
  160ACOH    H310180   5.312   2.531   2.489
  161ACOH    H410181   2.093   2.614   0.572
  161ACOH    O210182   2.037   2.686   0.613
  161ACOH    C210183   2.119   2.761   0.688
  161ACOH    O110184   2.229   2.730   0.731
  161ACOH    C110185   2.047   2.882   0.735
  161ACOH    H110186   1.953   2.853   0.780
  161ACOH    H210187   2.026   2.946   0.650
  161ACOH    H310188   2.107   2.937   0.807
  162ACOH    H410189   2.210   4.920   0.283
  162ACOH    O210190   2.160   4.890   0.202
  162ACOH    C210191   2.148   4.997   0.121
  162ACOH    O110192   2.193   5.108   0.139
  162ACOH    C110193   2.076   4.961   2.854
  162ACOH    H110194   2.036   4.860   0.002
  162ACOH    H210195   2.144   4.967   2.770
  162ACOH    H310196   1.994   5.031   2.838
  163ACOH    H410197   4.431   0.385   1.018
  163ACOH    O210198   4.530   0.384   1.010
  163ACOH    C210199   4.563   0.465   0.908
  163ACOH    O110200   4.488   0.536   0.843
  163ACOH    C110201   4.709   0.462   0.883
  163ACOH    H110202   4.750   0.562   0.892
  163ACOH    H210203   4.727   0.424   0.782
  163ACOH    H310204   4.758   0.397   0.954
  164ACOH    H410205   3.420   5.361   0.785
  164ACOH    O210206   3.475   5.438   0.757
  164ACOH    C210207   3.550   5.478   0.860
  164ACOH    O110208   3.554   5.427   0.971
  164ACOH    C110209   3.632   5.595   0.822
  164ACOH    H110210   3.700   5.623   0.902
  164ACOH    H210211   3.565   5.678   0.800
  164ACOH    H310212   3.689   5.572   0.732
  165ACOH    H410213   3.189   7.254   1.307
  165ACOH    O210214   3.199   7.248   1.406
  165ACOH    C210215   3.239   7.368   1.450
  165ACOH    O110216   3.278   7.462   1.383
  165ACOH    C110217   3.248   7.368   1.597
  165ACOH    H110218   3.195   7.283   1.638
  165ACOH    H210219   3.203   7.459   1.637
  165ACOH    H310220   3.352   7.363   1.627
  166ACOH    H410221   4.283   0.962   1.734
  166ACOH    O210222   4.359   1.025   1.744
  166ACOH    C210223   4.446   0.964   1.827
  166ACOH    O110224   4.443   0.847   1.862
  166ACOH    C110225   4.545   1.059   1.881
  166ACOH    H110226   4.544   1.152   1.825
  166ACOH    H210227   4.645   1.015   1.875
  166ACOH    H310228   4.522   1.080   1.985
  167ACOH    H410229   3.361   0.213   0.567
  167ACOH    O210230   3.392   0.299   0.527
  167ACOH    C210231   3.522   0.280   0.497
  167ACOH    O110232   3.583   0.175   0.499
  167ACOH    C110233   3.583   0.406   0.447
  167ACOH    H110234   3.683   0.387   0.408
  167ACOH    H210235   3.591   0.477   0.528
  167ACOH    H310236   3.522   0.448   0.368
  168ACOH    H410237   4.197   9.206   2.131
  168ACOH    O210238   4.239   9.144   2.197
  168ACOH    C210239   4.142   9.107   2.283
  168ACOH    O110240   4.030   9.154   2.292
  168ACOH    C110241   4.192   9.006   2.379
  168ACOH    H110242   4.125   8.919   2.377
  168ACOH    H210243   4.192   9.048   2.479
  168ACOH    H310244   4.292   8.974   2.353
  169ACOH    H410245   3.666   5.021   2.161
  169ACOH    O210246   3.669   5.093   2.092
  169ACOH    C210247   3.613   5.201   2.150
  169ACOH    O110248   3.574   5.211   2.265
  169ACOH    C110249   3.607   5.314   2.054
  169ACOH    H110250   3.705   5.330   2.011
  169ACOH    H210251   3.575   5.405   2.104
  169ACOH    H310252   3.537   5.289   1.975
  170ACOH    H410253   4.380   1.342   1.877
  170ACOH    O210254   4.443   1.368   1.951
  170ACOH    C210255   4.370   1.438   2.040
  170ACOH    O110256   4.249   1.449   2.042
  170ACOH    C110257   4.457   1.489   2.148
  170ACOH    H110258   4.536   1.550   2.105
  170ACOH    H210259   4.501   1.406   2.202
  170ACOH    H310260   4.399   1.551   2.217
  171ACOH    H410261   2.120   3.921   1.366
  171ACOH    O210262   2.060   3.995   1.396
  171ACOH    C210263   2.039   4.072   1.288
  171ACOH    O110264   2.098   4.067   1.182
  171ACOH    C110265   1.940   4.180   1.315
  171ACOH    H110266   1.895   4.166   1.413
  171ACOH    H210267   1.863   4.177   1.239
  171ACOH    H310268   1.990   4.276   1.312
  172ACOH    H410269   3.821   3.924   0.182
  172ACOH    O210270   3.806   3.893   0.276
  172ACOH    C210271   3.739   3.777   0.269
  172ACOH    O110272   3.700   3.721   0.167
  172ACOH    C110273   3.714   3.720   0.403
  172ACOH    H110274   3.608   3.707   0.419
  172ACOH    H210275   3.754   3.785   0.481
  172ACOH    H310276   3.763   3.623   0.411
  173ACOH    H410277   3.978   8.343   1.445
  173ACOH    O210278   4.074   8.348   1.418
  173ACOH    C210279   4.079   8.407   1.298
  173ACOH    O110280   3.986   8.456   1.236
  173ACOH    C110281   4.217   8.413   1.246
  173ACOH    H110282   4.286   8.361   1.313
  173ACOH    H210283   4.249   8.516   1.236
  173ACOH    H310284   4.222   8.366   1.148
  174SOL     OW10285   5.328   2.928   1.335
  174SOL    HW110286   5.266   2.854   1.362
  174SOL    HW210287   5.281   3.016   1.341
  175SOL     OW10288   2.705   4.554   1.376
  175SOL    HW110289   2.666   4.464   1.355
  175SOL    HW210290   2.777   4.543   1.444
  176SOL     OW10291   3.955   2.346   2.058
  176SOL    HW110292   3.958   2.386   2.150
  176SOL    HW210293   3.861   2.346   2.024
  177SOL     OW10294   2.381   3.580   1.812
  177SOL    HW110295   2.435   3.520   1.872
  177SOL    HW210296   2.351   3.660   1.864
  178SOL     OW10297   3.674   4.340   1.617
  178SOL    HW110298   3.700   4.425   1.662
  178SOL    HW210299   3.676   4.265   1.684
  179SOL     OW10300   2.458   1.987   0.508
  179SOL    HW110301   2.409   1.991   0.595
  179SOL    HW210302   2.467   1.891   0.480
  180SOL     OW10303   4.507   3.960   0.693
  180SOL    HW110304   4.476   4.012   0.773
  180SOL    HW210305   4.493   3.862   0.710
  181SOL     OW10306   3.337   8.571   1.444
  181SOL    HW110307   3.341   8.525   1.355
  181SOL    HW210308   3.258   8.536   1.496
  182SOL     OW10309   3.641   2.928   2.258
  182SOL    HW110310   3.740   2.940   2.255
  182SOL    HW210311   3.615   2.849   2.201
  183SOL     OW10312   2.650   0.735   1.848
  183SOL    HW110313   2.601   0.682   1.780
  183SOL    HW210314   2.667   0.679   1.929
  184SOL     OW10315   3.429   4.228   1.530
  184SOL    HW110316   3.363   4.303   1.536
  184SOL    HW210317   3.520   4.261   1.555
  185SOL     OW10318   1.827   4.633   1.789
  185SOL    HW110319   1.755   4.652   1.856
  185SOL    HW210320   1.888   4.562   1.825
  186SOL     OW10321   3.224   3.159   2.254
  186SOL    HW110322   3.323   3.147   2.242
  186SOL    HW210323   3.197   3.125   2.343
  187SOL     OW10324   2.919   8.970   1.538
  187SOL    HW110325   2.873   9.059   1.525
  187SOL    HW210326   2.983   8.976   1.614
  188SOL     OW10327   4.071   3.274   1.676
  188SOL    HW110328   4.101   3.178   1.681
  188SOL    HW210329   4.003   3.284   1.603
  189SOL     OW10330   2.700   1.030   1.536
  189SOL    HW110331   2.733   1.070   1.450
  189SOL    HW210332   2.671   0.936   1.520
  190SOL     OW10333   3.918   8.923   2.053
  190SOL    HW110334   3.930   9.018   2.025
  190SOL    HW210335   3.848   8.880   1.996
  191SOL     OW10336   3.229   2.828   1.598
  191SOL    HW110337   3.251   2.887   1.676
  191SOL    HW210338   3.290   2.749   1.597
  192SOL     OW10339   3.636   2.721   0.823
  192SOL    HW110340   3.563   2.761   0.879
  192SOL    HW210341   3.724   2.756   0.854
  193SOL     OW10342   3.161   8.078   0.906
  193SOL    HW110343   3.230   8.040   0.844
  193SOL    HW210344   3.117   8.004   0.956
  194SOL     OW10345   2.922   7.701   1.233
  194SOL    HW110346   2.918   7.721   1.331
  194SOL    HW210347   2.840   7.737   1.188
  195SOL     OW10348   3.074   5.470   1.499
  195SOL    HW110349   3.034   5.521   1.423
  195SOL    HW210350   3.056   5.518   1.584
  196SOL     OW10351   3.741   3.119   0.501
  196SOL    HW110352   3.756   3.182   0.425
  196SOL    HW210353   3.699   3.035   0.468
  197SOL     OW10354   3.988   1.237   0.803
  197SOL    HW110355   4.026   1.322   0.838
  197SOL    HW210356   3.911   1.258   0.742
  198SOL     OW10357   3.518   1.298   0.431
  198SOL    HW110358   3.505   1.359   0.509
  198SOL    HW210359   3.579   1.342   0.364
  199SOL     OW10360   2.309   0.831   0.484
  199SOL    HW110361   2.382   0.890   0.448
  199SOL    HW210362   2.245   0.810   0.410
  200SOL     OW10363   3.519   9.162   0.426
  200SOL    HW110364   3.559   9.173   0.517
  200SOL    HW210365   3.450   9.233   0.410
  201SOL     OW10366   3.459   9.453   2.051
  201SOL    HW110367   3.452   9.524   1.981
  201SOL    HW210368   3.533   9.391   2.028
  202SOL     OW10369   2.706   6.900   1.965
  202SOL    HW110370   2.739   6.916   1.871
  202SOL    HW210371   2.751   6.819   2.002
  203SOL     OW10372   4.413   3.800   1.278
  203SOL    HW110373   4.455   3.848   1.356
  203SOL    HW210374   4.403   3.703   1.301
  204SOL     OW10375   2.521   6.418   1.739
  204SOL    HW110376   2.597   6.388   1.797
  204SOL    HW210377   2.518   6.518   1.737
  205SOL     OW10378   4.053   3.885   0.390
  205SOL    HW110379   4.058   3.926   0.481
  205SOL    HW210380   3.962   3.899   0.351
  206SOL     OW10381   2.034   7.928   1.264
  206SOL    HW110382   2.123   7.883   1.257
  206SOL    HW210383   2.040   8.018   1.221
  207SOL     OW10384   3.445   3.421   1.715
  207SOL    HW110385   3.403   3.472   1.640
  207SOL    HW210386   3.478   3.485   1.784
  208SOL     OW10387   2.453   4.886   0.999
  208SOL    HW110388   2.377   4.922   1.053
  208SOL    HW210389   2.539   4.908   1.044
  209SOL     OW10390   4.290   1.290   1.760
  209SOL    HW110391   4.310   1.194   1.737
  209SOL    HW210392   4.205   1.318   1.716
  210SOL     OW10393   2.040   7.037   1.005
  210SOL    HW110394   2.122   7.047   1.061
  210SOL    HW210395   2.005   7.128   0.980
  211SOL     OW10396   3.227   5.123   1.299
  211SOL    HW110397   3.314   5.171   1.308
  211SOL    HW210398   3.165   5.153   1.372
  212SOL     OW10399   3.106   1.011   1.150
  212SOL    HW110400   3.202   0.994   1.173
  212SOL    HW210401   3.101   1.060   1.063
  213SOL     OW10402   2.850   9.625   0.310
  213SOL    HW110403   2.905   9.702   0.342
  213SOL    HW210404   2.876   9.542   0.359
  214SOL     OW10405   4.009   1.070   1.021
  214SOL    HW110406   3.996   1.119   0.934
  214SOL    HW210407   4.104   1.078   1.050
  215SOL     OW10408   2.499   5.763   1.035
  215SOL    HW110409   2.491   5.795   1.129
  215SOL    HW210410   2.416   5.715   1.008
  216SOL     OW10411   2.307   4.101   0.990
  216SOL    HW110412   2.235   4.069   1.051
  216SOL    HW210413   2.267   4.133   0.905
  217SOL     OW10414   3.030   9.866   2.204
  217SOL    HW110415   3.031   9.799   2.130
  217SOL    HW210416   3.122   9.873   2.243
  218SOL     OW10417   2.453   3.584   0.984
  218SOL    HW110418   2.475   3.526   1.063
  218SOL    HW210419   2.532   3.587   0.922
  219SOL     OW10420   4.617   3.578   1.982
  219SOL    HW110421   4.559   3.579   2.063
  219SOL    HW210422   4.630   3.483   1.952
  220SOL     OW10423   2.017   5.495   1.303
  220SOL    HW110424   2.051   5.575   1.254
  220SOL    HW210425   2.012   5.515   1.401
  221SOL     OW10426   4.833   4.330   0.846
  221SOL    HW110427   4.856   4.271   0.769
  221SOL    HW210428   4.900   4.315   0.920
  222SOL     OW10429   3.628   2.738   2.051
  222SOL    HW110430   3.721   2.716   2.020
  222SOL    HW210431   3.587   2.803   1.987
  223SOL     OW10432   3.397   9.756   0.974
  223SOL    HW110433   3.359   9.666   0.997
  223SOL    HW210434   3.443   9.794   1.055
  224SOL     OW10435   3.505   1.390   1.289
  224SOL    HW110436   3.499   1.490   1.294
  224SOL    HW210437   3.413   1.352   1.297
  225SOL     OW10438   2.669   9.753   1.857
  225SOL    HW110439   2.733   9.818   1.816
  225SOL    HW210440   2.720   9.680   1.902
  226SOL     OW10441   2.014   7.116   0.598
  226SOL    HW110442   1.949   7.070   0.537
  226SOL    HW210443   2.056   7.048   0.658
  227SOL     OW10444   2.863   0.193   1.739
  227SOL    HW110445   2.826   0.102   1.720
  227SOL    HW210446   2.787   0.256   1.756
  228SOL     OW10447   2.764   7.190   1.040
  228SOL    HW110448   2.695   7.204   1.110
  228SOL    HW210449   2.795   7.278   1.005
  229SOL     OW10450   3.290   1.962   1.494
  229SOL    HW110451   3.364   1.988   1.432
  229SOL    HW210452   3.303   2.009   1.582
  230SOL     OW10453   2.826   7.208   1.389
  230SOL    HW110454   2.862   7.200   1.481
  230SOL    HW210455   2.877   7.279   1.339
  231SOL     OW10456   4.655   2.045   0.382
  231SOL    HW110457   4.618   1.953   0.371
  231SOL    HW210458   4.752   2.046   0.355
  232SOL     OW10459   3.238   2.432   1.176
  232SOL    HW110460   3.223   2.371   1.098
  232SOL    HW210461   3.151   2.448   1.222
  233SOL     OW10462   2.948   2.453   1.974
  233SOL    HW110463   2.906   2.470   1.884
  233SOL    HW210464   3.039   2.495   1.976
  234SOL     OW10465   3.319   3.995   1.443
  234SOL    HW110466   3.355   4.078   1.485
  234SOL    HW210467   3.292   3.931   1.515
  235SOL     OW10468   3.835   1.513   1.074
  235SOL    HW110469   3.761   1.500   1.008
  235SOL    HW210470   3.814   1.464   1.159
  236SOL     OW10471   4.758   3.083   0.479
  236SOL    HW110472   4.730   3.096   0.383
  236SOL    HW210473   4.825   3.010   0.484
  237SOL     OW10474   2.550   1.170   0.917
  237SOL    HW110475   2.507   1.257   0.894
  237SOL    HW210476   2.513   1.136   1.004
  238SOL     OW10477   2.810   7.500   1.901
  238SOL    HW110478   2.786   7.450   1.984
  238SOL    HW210479   2.843   7.591   1.925
  239SOL     OW10480   4.319   3.236   2.037
  239SOL    HW110481   4.395   3.172   2.049
  239SOL    HW210482   4.334   3.290   1.954
  240SOL     OW10483   2.473   7.275   2.114
  240SOL    HW110484   2.435   7.228   2.194
  240SOL    HW210485   2.403   7.332   2.071
  241SOL     OW10486   2.470   8.143   1.718
  241SOL    HW110487   2.394   8.090   1.682
  241SOL    HW210488   2.445   8.240   1.720
  242SOL     OW10489   2.903   2.570   0.867
  242SOL    HW110490   2.980   2.622   0.903
  242SOL    HW210491   2.905   2.477   0.904
  243SOL     OW10492   2.463   7.366   1.649
  243SOL    HW110493   2.536   7.325   1.704
  243SOL    HW210494   2.397   7.295   1.624
  244SOL     OW10495   2.138   3.690   0.655
  244SOL    HW110496   2.165   3.631   0.731
  244SOL    HW210497   2.118   3.781   0.689
  245SOL     OW10498   2.474   8.442   1.091
  245SOL    HW110499   2.529   8.511   1.139
  245SOL    HW210500   2.389   8.426   1.141
  246SOL     OW10501   4.367   4.228   1.276
  246SOL    HW110502   4.295   4.297   1.265
  246SOL    HW210503   4.356   4.157   1.207
  247SOL     OW10504   3.432   8.110   2.260
  247SOL    HW110505   3.481   8.076   2.340
  247SOL    HW210506   3.480   8.189   2.223
  248SOL     OW10507   2.680   7.230   0.353
  248SOL    HW110508   2.690   7.227   0.254
  248SOL    HW210509   2.588   7.201   0.379
  249SOL     OW10510   3.843   4.296   0.334
  249SOL    HW110511   3.894   4.378   0.312
  249SOL    HW210512   3.875   4.259   0.422
  250SOL     OW10513   3.907   3.371   1.237
  250SOL    HW110514   3.840   3.345   1.168
  250SOL    HW210515   3.884   3.327   1.324
  251SOL     OW10516   1.996   5.049   1.259
  251SOL    HW110517   1.959   4.960   1.287
  251SOL    HW210518   1.950   5.121   1.310
  252SOL     OW10519   4.724   3.693   0.464
  252SOL    HW110520   4.759   3.761   0.528
  252SOL    HW210521   4.629   3.715   0.442
  253SOL     OW10522   2.874   2.662   0.612
  253SOL    HW110523   2.787   2.638   0.571
  253SOL    HW210524   2.876   2.632   0.707
  254SOL     OW10525   2.450   3.780   1.191
  254SOL    HW110526   2.514   3.854   1.170
  254SOL    HW210527   2.443   3.718   1.112
  255SOL     OW10528   3.012   9.817   0.444
  255SOL    HW110529   3.003   9.811   0.544
  255SOL    HW210530   3.048   9.907   0.419
  256SOL     OW10531   3.538   3.599   1.899
  256SOL    HW110532   3.496   3.687   1.878
  256SOL    HW210533   3.525   3.579   1.996
  257SOL     OW10534   4.042   4.155   1.362
  257SOL    HW110535   4.086   4.241   1.336
  257SOL    HW210536   4.044   4.092   1.284
  258SOL     OW10537   2.681   9.991   1.295
  258SOL    HW110538   2.668   0.084   1.328
  258SOL    HW210539   2.691   9.929   1.374
  259SOL     OW10540   2.468   8.534   1.939
  259SOL    HW110541   2.476   8.628   1.907
  259SOL    HW210542   2.429   8.532   2.031
  260SOL     OW10543   3.277   1.349   2.212
  260SOL    HW110544   3.221   1.429   2.191
  260SOL    HW210545   3.230   1.267   2.179
  261SOL     OW10546   3.748   0.669   2.266
  261SOL    HW110547   3.752   0.630   2.173
  261SOL    HW210548   3.804   0.752   2.269
  262SOL     OW10549   2.130   7.616   1.564
  262SOL    HW110550   2.095   7.710   1.562
  262SOL    HW210551   2.183   7.602   1.648
  263SOL     OW10552   2.859   8.087   0.284
  263SOL    HW110553   2.818   8.040   0.205
  263SOL    HW210554   2.825   8.181   0.286
  264SOL     OW10555   2.834   9.385   1.052
  264SOL    HW110556   2.794   9.455   1.112
  264SOL    HW210557   2.764   9.351   0.989
  265SOL     OW10558   4.285   1.412   1.065
  265SOL    HW110559   4.279   1.313   1.080
  265SOL    HW210560   4.208   1.441   1.007
  266SOL     OW10561   5.106   2.307   0.579
  266SOL    HW110562   5.174   2.379   0.565
  266SOL    HW210563   5.074   2.310   0.674
  267SOL     OW10564   3.236   0.503   1.724
  267SOL    HW110565   3.251   0.442   1.802
  267SOL    HW210566   3.238   0.451   1.639
  268SOL     OW10567   2.705   5.648   0.892
  268SOL    HW110568   2.633   5.686   0.949
  268SOL    HW210569   2.697   5.548   0.891
  269SOL     OW10570   3.239   9.411   0.780
  269SOL    HW110571   3.140   9.420   0.793
  269SOL    HW210572   3.263   9.315   0.767
  270SOL     OW10573   2.280   1.250   2.041
  270SOL    HW110574   2.337   1.332   2.048
  270SOL    HW210575   2.285   1.198   2.126
  271SOL     OW10576   4.133   3.052   1.958
  271SOL    HW110577   4.194   3.120   1.998
  271SOL    HW210578   4.158   3.036   1.863
  272SOL     OW10579   2.883   7.120   1.901
  272SOL    HW110580   2.930   7.032   1.897
  272SOL    HW210581   2.861   7.141   1.996
  273SOL     OW10582   2.335   8.291   1.442
  273SOL    HW110583   2.361   8.197   1.422
  273SOL    HW210584   2.359   8.313   1.536
  274SOL     OW10585   2.553   2.629   1.027
  274SOL    HW110586   2.596   2.711   0.987
  274SOL    HW210587   2.625   2.563   1.050
  275SOL     OW10588   4.147   2.945   1.441
  275SOL    HW110589   4.145   3.037   1.403
  275SOL    HW210590   4.198   2.885   1.380
  276SOL     OW10591   3.787   4.833   0.742
  276SOL    HW110592   3.772   4.890   0.823
  276SOL    HW210593   3.883   4.807   0.737
  277SOL     OW10594   4.100   0.543   0.717
  277SOL    HW110595   4.171   0.507   0.655
  277SOL    HW210596   4.139   0.557   0.808
  278SOL     OW10597   2.451   6.171   1.967
  278SOL    HW110598   2.367   6.152   1.917
  278SOL    HW210599   2.502   6.244   1.920
  279SOL     OW10600   4.578   3.991   0.434
  279SOL    HW110601   4.557   3.985   0.532
  279SOL    HW210602   4.672   4.024   0.423
  280SOL     OW10603   4.205   1.760   2.220
  280SOL    HW110604   4.166   1.794   2.306
  280SOL    HW210605   4.200   1.832   2.151
  281SOL     OW10606   4.815   3.039   1.189
  281SOL    HW110607   4.817   3.042   1.289
  281SOL    HW210608   4.755   2.964   1.159
  282SOL     OW10609   4.069   1.362   1.608
  282SOL    HW110610   4.128   1.403   1.538
  282SOL    HW210611   3.979   1.404   1.605
  283SOL     OW10612   3.646   1.756   0.890
  283SOL    HW110613   3.555   1.784   0.859
  283SOL    HW210614   3.647   1.658   0.907
  284SOL     OW10615   2.292   3.471   1.394
  284SOL    HW110616   2.210   3.481   1.337
  284SOL    HW210617   2.290   3.539   1.467
  285SOL     OW10618   3.332   2.070   1.746
  285SOL    HW110619   3.315   2.099   1.840
  285SOL    HW210620   3.422   2.027   1.740
  286SOL     OW10621   4.888   1.391   0.249
  286SOL    HW110622   4.940   1.426   0.171
  286SOL    HW210623   4.854   1.299   0.227
  287SOL     OW10624   3.043   7.845   0.594
  287SOL    HW110625   3.071   7.935   0.560
  287SOL    HW210626   3.118   7.804   0.646
  288SOL     OW10627   3.633   1.461   0.895
  288SOL    HW110628   3.592   1.481   0.806
  288SOL    HW210629   3.636   1.363   0.910
  289SOL     OW10630   4.616   4.041   2.328
  289SOL    HW110631   4.686   4.050   2.399
  289SOL    HW210632   4.530   4.009   2.370
  290SOL     OW10633   2.510   8.801   1.886
  290SOL    HW110634   2.604   8.786   1.857
  290SOL    HW210635   2.472   8.880   1.838
  291SOL     OW10636   3.103   1.027   0.460
  291SOL    HW110637   3.129   0.931   0.466
  291SOL    HW210638   3.024   1.044   0.519
  292SOL     OW10639   1.916   6.861   1.172
  292SOL    HW110640   1.838   6.814   1.130
  292SOL    HW210641   1.956   6.925   1.106
  293SOL     OW10642   3.078   8.498   1.553
  293SOL    HW110643   3.050   8.469   1.462
  293SOL    HW210644   3.008   8.471   1.620
  294SOL     OW10645   3.964   2.536   0.590
  294SOL    HW110646   4.005   2.560   0.503
  294SOL    HW210647   4.013   2.458   0.630
  295SOL     OW10648   3.956   4.541   0.319
  295SOL    HW110649   3.911   4.610   0.377
  295SOL    HW210650   4.054   4.557   0.318
  296SOL     OW10651   3.510   8.709   0.543
  296SOL    HW110652   3.545   8.627   0.498
  296SOL    HW210653   3.489   8.778   0.473
  297SOL     OW10654   2.657   5.810   1.598
  297SOL    HW110655   2.667   5.905   1.568
  297SOL    HW210656   2.673   5.749   1.521
  298SOL     OW10657   3.513   2.441   1.780
  298SOL    HW110658   3.469   2.509   1.721
  298SOL    HW210659   3.457   2.427   1.862
  299SOL     OW10660   2.765   2.576   1.345
  299SOL    HW110661   2.748   2.526   1.260
  299SOL    HW210662   2.679   2.585   1.396
  300SOL     OW10663   3.478   1.659   1.314
  300SOL    HW110664   3.436   1.643   1.404
  300SOL    HW210665   3.537   1.740   1.319
  301SOL     OW10666   1.898   4.391   2.155
  301SOL    HW110667   1.843   4.310   2.177
  301SOL    HW210668   1.850   4.473   2.187
  302SOL     OW10669   2.498   0.191   1.993
  302SOL    HW110670   2.474   0.257   2.064
  302SOL    HW210671   2.527   0.105   2.036
  303SOL     OW10672   3.540   2.108   0.795
  303SOL    HW110673   3.441   2.119   0.789
  303SOL    HW210674   3.564   2.070   0.884
  304SOL     OW10675   2.622   4.284   1.349
  304SOL    HW110676   2.528   4.274   1.317
  304SOL    HW210677   2.639   4.219   1.423
  305SOL     OW10678   2.632   4.709   0.340
  305SOL    HW110679   2.622   4.802   0.304
  305SOL    HW210680   2.578   4.700   0.424
  306SOL     OW10681   3.129   8.891   0.389
  306SOL    HW110682   3.142   8.977   0.438
  306SOL    HW210683   3.204   8.878   0.324
  307SOL     OW10684   2.827   4.994   0.410
  307SOL    HW110685   2.911   4.972   0.360
  307SOL    HW210686   2.749   4.990   0.347
  308SOL     OW10687   3.281   3.394   2.113
  308SOL    HW110688   3.272   3.312   2.168
  308SOL    HW210689   3.371   3.435   2.128
  309SOL     OW10690   3.116   0.080   0.441
  309SOL    HW110691   3.165   0.109   0.359
  309SOL    HW210692   3.180   0.078   0.519
  310SOL     OW10693   3.348   2.405   1.994
  310SOL    HW110694   3.279   2.448   1.937
  310SOL    HW210695   3.328   2.307   2.002
  311SOL     OW10696   3.814   9.848   1.740
  311SOL    HW110697   3.852   9.782   1.805
  311SOL    HW210698   3.823   9.940   1.777
  312SOL     OW10699   3.725   0.581   2.007
  312SOL    HW110700   3.732   0.482   2.000
  312SOL    HW210701   3.750   0.622   1.919
  313SOL     OW10702   2.518   0.623   2.253
  313SOL    HW110703   2.455   0.700   2.246
  313SOL    HW210704   2.585   0.640   2.325
  314SOL     OW10705   2.292   7.608   2.212
  314SOL    HW110706   2.336   7.688   2.172
  314SOL    HW210707   2.294   7.615   2.312
  315SOL     OW10708   2.383   4.675   1.672
  315SOL    HW110709   2.313   4.726   1.623
  315SOL    HW210710   2.474   4.698   1.637
  316SOL     OW10711   4.262   3.340   1.142
  316SOL    HW110712   4.221   3.295   1.063
  316SOL    HW210713   4.348   3.383   1.115
  317SOL     OW10714   2.492   0.743   0.666
  317SOL    HW110715   2.562   0.694   0.612
  317SOL    HW210716   2.414   0.763   0.607
  318SOL     OW10717   2.132   6.933   0.763
  318SOL    HW110718   2.170   6.841   0.773
  318SOL    HW210719   2.097   6.965   0.852
  319SOL     OW10720   2.966   9.211   0.660
  319SOL    HW110721   2.960   9.271   0.739
  319SOL    HW210722   2.902   9.135   0.672
  320SOL     OW10723   3.648   9.665   2.148
  320SOL    HW110724   3.572   9.602   2.133
  320SOL    HW210725   3.723   9.617   2.194
  321SOL     OW10726   2.740   9.600   1.198
  321SOL    HW110727   2.815   9.638   1.144
  321SOL    HW210728   2.658   9.656   1.186
  322SOL     OW10729   2.922   4.284   1.896
  322SOL    HW110730   3.020   4.265   1.895
  322SOL    HW210731   2.872   4.201   1.871
  323SOL     OW10732   3.705   8.791   1.929
  323SOL    HW110733   3.720   8.698   1.962
  323SOL    HW210734   3.627   8.831   1.977
  324SOL     OW10735   4.084   1.703   0.749
  324SOL    HW110736   4.004   1.762   0.749
  324SOL    HW210737   4.140   1.723   0.668
  325SOL     OW10738   2.403   1.846   2.160
  325SOL    HW110739   2.489   1.823   2.205
  325SOL    HW210740   2.339   1.770   2.169
  326SOL     OW10741   2.801   3.740   1.116
  326SOL    HW110742   2.830   3.757   1.022
  326SOL    HW210743   2.741   3.814   1.146
  327SOL     OW10744   4.846   1.984   0.720
  327SOL    HW110745   4.932   1.998   0.671
  327SOL    HW210746   4.796   1.907   0.679
  328SOL     OW10747   2.142   2.645   1.440
  328SOL    HW110748   2.212   2.680   1.502
  328SOL    HW210749   2.134   2.707   1.362
  329SOL     OW10750   3.597   4.949   1.382
  329SOL    HW110751   3.626   4.871   1.328
  329SOL    HW210752   3.543   4.918   1.460
  330SOL     OW10753   2.174   4.373   2.196
  330SOL    HW110754   2.075   4.379   2.187
  330SOL    HW210755   2.202   4.277   2.189
  331SOL     OW10756   3.054   7.853   1.040
  331SOL    HW110757   2.989   7.846   0.964
  331SOL    HW210758   3.016   7.807   1.120
  332SOL     OW10759   2.362   5.577   1.293
  332SOL    HW110760   2.345   5.481   1.315
  332SOL    HW210761   2.279   5.618   1.255
  333SOL     OW10762   2.330   1.186   0.387
  333SOL    HW110763   2.296   1.266   0.339
  333SOL    HW210764   2.313   1.196   0.485
  334SOL     OW10765   4.250   1.813   0.542
  334SOL    HW110766   4.330   1.841   0.596
  334SOL    HW210767   4.185   1.888   0.538
  335SOL     OW10768   3.894   4.146   1.940
  335SOL    HW110769   3.895   4.223   2.004
  335SOL    HW210770   3.987   4.129   1.907
  336SOL     OW10771   4.265   3.798   1.610
  336SOL    HW110772   4.268   3.773   1.706
  336SOL    HW210773   4.358   3.816   1.577
  337SOL     OW10774   3.038   7.098   0.641
  337SOL    HW110775   3.066   7.032   0.710
  337SOL    HW210776   3.119   7.142   0.602
  338SOL     OW10777   3.071   0.719   1.716
  338SOL    HW110778   3.128   0.636   1.718
  338SOL    HW210779   2.997   0.707   1.650
  339SOL     OW10780   2.351   9.650   2.009
  339SOL    HW110781   2.379   9.647   1.913
  339SOL    HW210782   2.278   9.717   2.020
  340SOL     OW10783   3.017   4.302   1.512
  340SOL    HW110784   2.959   4.382   1.530
  340SOL    HW210785   3.004   4.271   1.418
  341SOL     OW10786   3.424   0.030   1.948
  341SOL    HW110787   3.420   0.129   1.959
  341SOL    HW210788   3.332   9.992   1.951
  342SOL     OW10789   4.194   3.027   1.698
  342SOL    HW110790   4.172   2.974   1.616
  342SOL    HW210791   4.286   3.064   1.691
  343SOL     OW10792   3.211   5.582   0.829
  343SOL    HW110793   3.130   5.558   0.775
  343SOL    HW210794   3.184   5.599   0.924
  344SOL     OW10795   4.230   3.636   0.804
  344SOL    HW110796   4.249   3.646   0.901
  344SOL    HW210797   4.143   3.680   0.782
  345SOL     OW10798   3.447   4.850   1.585
  345SOL    HW110799   3.411   4.852   1.678
  345SOL    HW210800   3.431   4.760   1.545
  346SOL     OW10801   2.870   3.756   2.166
  346SOL    HW110802   2.949   3.697   2.181
  346SOL    HW210803   2.891   3.822   2.093
  347SOL     OW10804   3.482   9.463   0.668
  347SOL    HW110805   3.525   9.374   0.687
  347SOL    HW210806   3.392   9.466   0.711
  348SOL     OW10807   2.324   2.985   0.408
  348SOL    HW110808   2.405   2.927   0.409
  348SOL    HW210809   2.350   3.081   0.422
  349SOL     OW10810   4.507   1.815   0.339
  349SOL    HW110811   4.426   1.816   0.397
  349SOL    HW210812   4.507   1.732   0.283
  350SOL     OW10813   3.721   0.306   1.966
  350SOL    HW110814   3.696   0.260   2.051
  350SOL    HW210815   3.645   0.300   1.901
  351SOL     OW10816   2.672   8.006   0.909
  351SOL    HW110817   2.674   8.097   0.949
  351SOL    HW210818   2.589   7.995   0.854
  352SOL     OW10819   4.803   3.258   0.700
  352SOL    HW110820   4.781   3.203   0.620
  352SOL    HW210821   4.771   3.352   0.685
  353SOL     OW10822   5.161   3.116   0.529
  353SOL    HW110823   5.178   3.019   0.549
  353SOL    HW210824   5.135   3.125   0.432
  354SOL     OW10825   2.922   6.351   0.442
  354SOL    HW110826   2.944   6.448   0.455
  354SOL    HW210827   2.915   6.307   0.531
  355SOL     OW10828   3.430   4.281   0.831
  355SOL    HW110829   3.336   4.270   0.798
  355SOL    HW210830   3.454   4.204   0.889
  356SOL     OW10831   2.412   8.072   2.279
  356SOL    HW110832   2.387   8.051   2.373
  356SOL    HW210833   2.342   8.131   2.238
  357SOL     OW10834   3.912   9.190   1.926
  357SOL    HW110835   3.826   9.230   1.956
  357SOL    HW210836   3.897   9.137   1.842
  358SOL     OW10837   2.751   3.965   0.454
  358SOL    HW110838   2.749   4.060   0.425
  358SOL    HW210839   2.822   3.916   0.402
  359SOL     OW10840   2.236   8.412   1.225
  359SOL    HW110841   2.198   8.503   1.241
  359SOL    HW210842   2.267   8.372   1.311
  360SOL     OW10843   3.895   2.389   1.725
  360SOL    HW110844   3.831   2.361   1.797
  360SOL    HW210845   3.863   2.475   1.685
  361SOL     OW10846   2.503   2.576   1.447
  361SOL    HW110847   2.449   2.622   1.518
  361SOL    HW210848   2.465   2.486   1.429
  362SOL     OW10849   3.573   2.344   1.522
  362SOL    HW110850   3.560   2.365   1.619
  362SOL    HW210851   3.579   2.429   1.470
  363SOL     OW10852   2.745   9.961   1.677
  363SOL    HW110853   2.652   9.980   1.708
  363SOL    HW210854   2.743   9.897   1.600
  364SOL     OW10855   2.863   7.598   2.240
  364SOL    HW110856   2.831   7.509   2.208
  364SOL    HW210857   2.797   7.636   2.305
  365SOL     OW10858   3.585   1.961   1.767
  365SOL    HW110859   3.586   1.862   1.779
  365SOL    HW210860   3.627   2.005   1.846
  366SOL     OW10861   4.239   2.206   0.493
  366SOL    HW110862   4.178   2.130   0.514
  366SOL    HW210863   4.305   2.178   0.423
  367SOL     OW10864   2.658   1.356   0.600
  367SOL    HW110865   2.667   1.257   0.592
  367SOL    HW210866   2.724   1.391   0.667
  368SOL     OW10867   3.945   0.503   1.748
  368SOL    HW110868   4.004   0.505   1.829
  368SOL    HW210869   3.876   0.574   1.756
  369SOL     OW10870   3.113   8.604   0.429
  369SOL    HW110871   3.118   8.590   0.330
  369SOL    HW210872   3.121   8.701   0.449
  370SOL     OW10873   3.540   3.923   2.082
  370SOL    HW110874   3.520   3.853   2.150
  370SOL    HW210875   3.635   3.915   2.053
  371SOL     OW10876   3.188   8.830   0.861
  371SOL    HW110877   3.221   8.760   0.797
  371SOL    HW210878   3.265   8.865   0.914
  372SOL     OW10879   2.667   2.118   0.773
  372SOL    HW110880   2.661   2.127   0.674
  372SOL    HW210881   2.590   2.165   0.816
  373SOL     OW10882   3.707   8.455   1.163
  373SOL    HW110883   3.646   8.396   1.216
  373SOL    HW210884   3.802   8.436   1.187
  374SOL     OW10885   2.528   0.993   0.423
  374SOL    HW110886   2.471   1.064   0.381
  374SOL    HW210887   2.538   1.012   0.521
  375SOL     OW10888   2.545   5.295   1.015
  375SOL    HW110889   2.513   5.224   1.077
  375SOL    HW210890   2.496   5.289   0.928
  376SOL     OW10891   3.749   9.161   2.224
  376SOL    HW110892   3.846   9.160   2.249
  376SOL    HW210893   3.695   9.114   2.294
  377SOL     OW10894   3.035   3.263   1.697
  377SOL    HW110895   3.109   3.267   1.764
  377SOL    HW210896   2.977   3.345   1.705
  378SOL     OW10897   2.723   6.949   1.372
  378SOL    HW110898   2.775   6.902   1.301
  378SOL    HW210899   2.752   7.045   1.377
  379SOL     OW10900   3.393   7.663   0.491
  379SOL    HW110901   3.341   7.681   0.408
  379SOL    HW210902   3.337   7.684   0.571
  380SOL     OW10903   2.488   5.941   0.826
  380SOL    HW110904   2.568   5.990   0.791
  380SOL    HW210905   2.515   5.887   0.905
  381SOL     OW10906   3.174   4.707   0.774
  381SOL    HW110907   3.199   4.762   0.694
  381SOL    HW210908   3.168   4.767   0.854
  382SOL     OW10909   3.243   0.344   1.501
  382SOL    HW110910   3.168   0.279   1.513
  382SOL    HW210911   3.330   0.295   1.500
  383SOL     OW10912   3.368   1.791   0.841
  383SOL    HW110913   3.329   1.731   0.771
  383SOL    HW210914   3.353   1.750   0.932
  384SOL     OW10915   3.250   1.441   0.736
  384SOL    HW110916   3.168   1.387   0.715
  384SOL    HW210917   3.263   1.444   0.835
  385SOL     OW10918   2.955   0.953   2.185
  385SOL    HW110919   3.017   1.031   2.192
  385SOL    HW210920   2.991   0.889   2.117
  386SOL     OW10921   2.781   9.272   1.957
  386SOL    HW110922   2.854   9.284   2.024
  386SOL    HW210923   2.796   9.187   1.906
  387SOL     OW10924   3.434   9.651   1.870
  387SOL    HW110925   3.358   9.715   1.883
  387SOL    HW210926   3.489   9.680   1.792
  388SOL     OW10927   2.413   3.960   2.357
  388SOL    HW110928   2.438   3.979   2.451
  388SOL    HW210929   2.476   4.007   2.295
  389SOL     OW10930   3.107   2.603   0.482
  389SOL    HW110931   3.020   2.619   0.528
  389SOL    HW210932   3.135   2.686   0.434
  390SOL     OW10933   3.209   2.979   1.371
  390SOL    HW110934   3.220   2.923   1.453
  390SOL    HW210935   3.148   2.932   1.307
  391SOL     OW10936   3.685   3.812   1.392
  391SOL    HW110937   3.621   3.870   1.343
  391SOL    HW210938   3.689   3.841   1.488
  392SOL     OW10939   3.876   2.957   1.477
  392SOL    HW110940   3.972   2.930   1.487
  392SOL    HW210941   3.822   2.912   1.549
  393SOL     OW10942   2.296   2.100   2.181
  393SOL    HW110943   2.328   2.006   2.178
  393SOL    HW210944   2.240   2.120   2.101
  394SOL     OW10945   3.134   3.976   1.246
  394SOL    HW110946   3.203   3.981   1.319
  394SOL    HW210947   3.086   4.063   1.239
  395SOL     OW10948   2.882   1.514   2.030
  395SOL    HW110949   2.815   1.473   2.092
  395SOL    HW210950   2.911   1.447   1.963
  396SOL     OW10951   3.763   4.242   2.323
  396SOL    HW110952   3.747   4.272   2.418
  396SOL    HW210953   3.676   4.221   2.279
  397SOL     OW10954   1.893   4.818   1.365
  397SOL    HW110955   1.820   4.758   1.334
  397SOL    HW210956   1.907   4.806   1.463
  398SOL     OW10957   2.738   7.363   2.134
  398SOL    HW110958   2.639   7.353   2.123
  398SOL    HW210959   2.778   7.274   2.155
  399SOL     OW10960   2.287   8.342   0.726
  399SOL    HW110961   2.300   8.428   0.775
  399SOL    HW210962   2.220   8.285   0.776
  400SOL     OW10963   3.621   8.144   1.068
  400SOL    HW110964   3.611   8.188   1.158
  400SOL    HW210965   3.531   8.137   1.025
  401SOL     OW10966   3.818   2.151   0.783
  401SOL    HW110967   3.843   2.176   0.690
  401SOL    HW210968   3.718   2.155   0.793
  402SOL     OW10969   3.983   4.557   1.135
  402SOL    HW110970   4.023   4.648   1.147
  402SOL    HW210971   3.959   4.545   1.038
  403SOL     OW10972   4.045   4.321   0.803
  403SOL    HW110973   4.000   4.405   0.835
  403SOL    HW210974   4.014   4.244   0.858
  404SOL     OW10975   1.792   4.929   2.011
  404SOL    HW110976   1.728   4.857   1.986
  404SOL    HW210977   1.858   4.893   2.077
  405SOL     OW10978   2.000   4.461   1.908
  405SOL    HW110979   2.060   4.390   1.871
  405SOL    HW210980   1.964   4.431   1.997
  406SOL     OW10981   3.587   9.740   1.650
  406SOL    HW110982   3.607   9.668   1.584
  406SOL    HW210983   3.672   9.777   1.687
  407SOL     OW10984   4.901   4.145   0.656
  407SOL    HW110985   4.995   4.113   0.663
  407SOL    HW210986   4.870   4.136   0.561
  408SOL     OW10987   4.538   1.820   2.054
  408SOL    HW110988   4.521   1.767   1.970
  408SOL    HW210989   4.466   1.888   2.066
  409SOL     OW10990   3.817   4.790   1.737
  409SOL    HW110991   3.764   4.872   1.759
  409SOL    HW210992   3.858   4.801   1.646
  410SOL     OW10993   3.075   0.516   1.352
  410SOL    HW110994   3.116   0.561   1.273
  410SOL    HW210995   3.147   0.469   1.404
  411SOL     OW10996   2.459   5.112   1.207
  411SOL    HW110997   2.380   5.050   1.206
  411SOL    HW210998   2.543   5.058   1.203
  412SOL     OW10999   4.471   3.680   0.686
  412SOL    HW111000   4.459   3.691   0.587
  412SOL    HW211001   4.383   3.659   0.728
  413SOL     OW11002   2.629   6.007   0.443
  413SOL    HW111003   2.529   6.017   0.444
  413SOL    HW211004   2.655   5.936   0.379
  414SOL     OW11005   1.993   5.521   1.578
  414SOL    HW111006   1.937   5.445   1.611
  414SOL    HW211007   2.074   5.530   1.635
  415SOL     OW11008   3.164   1.850   1.180
  415SOL    HW111009   3.118   1.878   1.096
  415SOL    HW211010   3.224   1.773   1.161
  416SOL     OW11011   2.797   2.970   2.076
  416SOL    HW111012   2.743   2.889   2.098
  416SOL    HW211013   2.774   3.000   1.983
  417SOL     OW11014   5.081   4.070   0.303
  417SOL    HW111015   5.108   3.983   0.261
  417SOL    HW211016   5.162   4.114   0.342
  418SOL     OW11017   2.664   3.965   1.197
  418SOL    HW111018   2.649   3.982   1.295
  418SOL    HW211019   2.702   4.047   1.155
  419SOL     OW11020   2.362   8.562   0.871
  419SOL    HW111021   2.404   8.510   0.946
  419SOL    HW211022   2.378   8.659   0.885
  420SOL     OW11023   2.384   1.392   0.853
  420SOL    HW111024   2.430   1.460   0.797
  420SOL    HW211025   2.339   1.436   0.931
  421SOL     OW11026   2.128   2.152   1.682
  421SOL    HW111027   2.149   2.172   1.778
  421SOL    HW211028   2.127   2.237   1.629
  422SOL     OW11029   3.380   3.235   0.189
  422SOL    HW111030   3.283   3.240   0.214
  422SOL    HW211031   3.435   3.284   0.257
  423SOL     OW11032   3.525   0.315   1.762
  423SOL    HW111033   3.505   0.265   1.678
  423SOL    HW211034   3.444   0.316   1.820
  424SOL     OW11035   4.649   1.729   2.290
  424SOL    HW111036   4.631   1.801   2.357
  424SOL    HW211037   4.605   1.752   2.203
  425SOL     OW11038   2.540   6.567   1.320
  425SOL    HW111039   2.577   6.624   1.394
  425SOL    HW211040   2.473   6.620   1.268
  426SOL     OW11041   3.585   2.008   1.040
  426SOL    HW111042   3.514   2.007   1.111
  426SOL    HW211043   3.622   1.916   1.028
  427SOL     OW11044   4.605   1.405   0.909
  427SOL    HW111045   4.590   1.474   0.981
  427SOL    HW211046   4.688   1.428   0.858
  428SOL     OW11047   3.303   3.813   0.638
  428SOL    HW111048   3.344   3.887   0.583
  428SOL    HW211049   3.324   3.725   0.596
  429SOL     OW11050   3.903   0.684   0.416
  429SOL    HW111051   3.888   0.600   0.469
  429SOL    HW211052   3.906   0.762   0.478
  430SOL     OW11053   2.521   9.987   1.077
  430SOL    HW111054   2.586   9.996   1.001
  430SOL    HW211055   2.570   9.993   1.164
  431SOL     OW11056   1.649   4.684   1.995
  431SOL    HW111057   1.687   4.655   2.082
  431SOL    HW211058   1.551   4.663   1.991
  432SOL     OW11059   2.897   2.911   1.420
  432SOL    HW111060   2.836   2.976   1.375
  432SOL    HW211061   2.913   2.940   1.515
  433SOL     OW11062   2.928   3.008   1.677
  433SOL    HW111063   2.971   3.099   1.685
  433SOL    HW211064   2.974   2.945   1.740
  434SOL     OW11065   2.215   5.875   1.727
  434SOL    HW111066   2.285   5.806   1.711
  434SOL    HW211067   2.126   5.839   1.700
  435SOL     OW11068   3.690   1.849   0.412
  435SOL    HW111069   3.644   1.929   0.450
  435SOL    HW211070   3.784   1.872   0.387
  436SOL     OW11071   2.317   5.309   1.320
  436SOL    HW111072   2.232   5.305   1.268
  436SOL    HW211073   2.382   5.243   1.282
  437SOL     OW11074   2.527   9.179   1.968
  437SOL    HW111075   2.516   9.120   1.888
  437SOL    HW211076   2.618   9.220   1.968
  438SOL     OW11077   2.771   9.638   2.243
  438SOL    HW111078   2.783   9.729   2.284
  438SOL    HW211079   2.675   9.613   2.246
  439SOL     OW11080   3.175   9.138   0.499
  439SOL    HW111081   3.222   9.220   0.468
  439SOL    HW211082   3.097   9.164   0.556
  440SOL     OW11083   2.552   3.439   1.978
  440SOL    HW111084   2.628   3.375   1.964
  440SOL    HW211085   2.589   3.529   2.002
  441SOL     OW11086   2.552   1.903   1.427
  441SOL    HW111087   2.523   1.825   1.371
  441SOL    HW211088   2.590   1.869   1.513
  442SOL     OW11089   2.464   9.683   1.440
  442SOL    HW111090   2.460   9.706   1.343
  442SOL    HW211091   2.429   9.590   1.454
  443SOL     OW11092   2.862   2.034   1.675
  443SOL    HW111093   2.825   2.122   1.645
  443SOL    HW211094   2.791   1.964   1.668
  444SOL     OW11095   4.501   2.230   2.201
  444SOL    HW111096   4.526   2.325   2.219
  444SOL    HW211097   4.416   2.228   2.147
  445SOL     OW11098   3.828   0.179   1.405
  445SOL    HW111099   3.804   0.234   1.485
  445SOL    HW211100   3.928   0.174   1.396
  446SOL     OW11101   3.858   0.059   1.909
  446SOL    HW111102   3.947   0.049   1.954
  446SOL    HW211103   3.822   0.151   1.928
  447SOL     OW11104   5.032   3.414   0.393
  447SOL    HW111105   5.048   3.448   0.486
  447SOL    HW211106   4.939   3.437   0.365
  448SOL     OW11107   3.871   2.383   0.367
  448SOL    HW111108   3.931   2.437   0.309
  448SOL    HW211109   3.857   2.429   0.454
  449SOL     OW11110   3.957   0.154   0.773
  449SOL    HW111111   3.919   0.079   0.720
  449SOL    HW211112   3.953   0.238   0.720
  450SOL     OW11113   2.518   1.855   1.908
  450SOL    HW111114   2.466   1.857   1.993
  450SOL    HW211115   2.572   1.771   1.904
  451SOL     OW11116   3.136   1.578   2.132
  451SOL    HW111117   3.120   1.655   2.193
  451SOL    HW211118   3.051   1.552   2.087
  452SOL     OW11119   3.083   9.413   1.176
  452SOL    HW111120   3.117   9.320   1.190
  452SOL    HW211121   2.992   9.409   1.135
  453SOL     OW11122   2.650   1.768   2.256
  453SOL    HW111123   2.719   1.749   2.186
  453SOL    HW211124   2.689   1.830   2.325
  454SOL     OW11125   2.973   3.899   0.307
  454SOL    HW111126   3.017   3.970   0.362
  454SOL    HW211127   3.025   3.885   0.223
  455SOL     OW11128   2.167   5.981   1.144
  455SOL    HW111129   2.247   6.041   1.147
  455SOL    HW211130   2.091   6.024   1.193
  456SOL     OW11131   2.861   7.295   0.702
  456SOL    HW111132   2.932   7.226   0.685
  456SOL    HW211133   2.879   7.341   0.788
  457SOL     OW11134   3.545   2.532   1.019
  457SOL    HW111135   3.612   2.566   0.953
  457SOL    HW211136   3.576   2.445   1.056
  458SOL     OW11137   4.459   2.985   1.140
  458SOL    HW111138   4.541   2.930   1.125
  458SOL    HW211139   4.437   3.035   1.057
  459SOL     OW11140   2.874   5.423   1.095
  459SOL    HW111141   2.796   5.461   1.144
  459SOL    HW211142   2.954   5.481   1.108
  460SOL     OW11143   3.651   9.971   1.433
  460SOL    HW111144   3.724   0.039   1.427
  460SOL    HW211145   3.665   9.913   1.513
  461SOL     OW11146   2.473   3.055   1.228
  461SOL    HW111147   2.464   2.957   1.249
  461SOL    HW211148   2.433   3.109   1.301
  462SOL     OW11149   2.579   5.566   0.537
  462SOL    HW111150   2.523   5.640   0.574
  462SOL    HW211151   2.538   5.531   0.454
  463SOL     OW11152   2.885   7.843   0.834
  463SOL    HW111153   2.807   7.905   0.844
  463SOL    HW211154   2.921   7.850   0.741
  464SOL     OW11155   4.446   1.808   0.931
  464SOL    HW111156   4.482   1.725   0.974
  464SOL    HW211157   4.350   1.820   0.957
  465SOL     OW11158   2.987   2.685   1.571
  465SOL    HW111159   3.071   2.737   1.589
  465SOL    HW211160   2.931   2.734   1.505
  466SOL     OW11161   4.850   2.625   1.831
  466SOL    HW111162   4.907   2.652   1.754
  466SOL    HW211163   4.863   2.528   1.850
  467SOL     OW11164   2.367   7.120   2.317
  467SOL    HW111165   2.399   7.028   2.297
  467SOL    HW211166   2.340   7.126   2.413
  468SOL     OW11167   2.470   2.903   0.722
  468SOL    HW111168   2.391   2.841   0.718
  468SOL    HW211169   2.457   2.967   0.797
  469SOL     OW11170   2.858   8.501   0.451
  469SOL    HW111171   2.948   8.544   0.455
  469SOL    HW211172   2.796   8.546   0.515
  470SOL     OW11173   2.759   1.179   1.295
  470SOL    HW111174   2.820   1.200   1.219
  470SOL    HW211175   2.713   1.263   1.326
  471SOL     OW11176   2.347   6.514   0.979
  471SOL    HW111177   2.330   6.565   1.064
  471SOL    HW211178   2.271   6.452   0.962
  472SOL     OW11179   2.136   8.667   1.250
  472SOL    HW111180   2.177   8.744   1.201
  472SOL    HW211181   2.037   8.668   1.237
  473SOL     OW11182   2.788   4.708   1.162
  473SOL    HW111183   2.887   4.704   1.172
  473SOL    HW211184   2.745   4.650   1.232
  474SOL     OW11185   2.800   0.577   0.505
  474SOL    HW111186   2.857   0.556   0.426
  474SOL    HW211187   2.805   0.502   0.571
  475SOL     OW11188   2.912   7.735   2.009
  475SOL    HW111189   2.905   7.685   2.095
  475SOL    HW211190   2.849   7.813   2.010
  476SOL     OW11191   5.241   2.541   0.569
  476SOL    HW111192   5.303   2.595   0.625
  476SOL    HW211193   5.154   2.589   0.560
  477SOL     OW11194   3.043   9.718   1.672
  477SOL    HW111195   3.089   9.798   1.633
  477SOL    HW211196   2.978   9.681   1.605
  478SOL     OW11197   2.417   7.836   2.124
  478SOL    HW111198   2.418   7.920   2.179
  478SOL    HW211199   2.446   7.856   2.031
  479SOL     OW11200   4.517   3.885   1.522
  479SOL    HW111201   4.604   3.860   1.564
  479SOL    HW211202   4.501   3.983   1.534
  480SOL     OW11203   4.020   0.742   1.185
  480SOL    HW111204   3.943   0.746   1.249
  480SOL    HW211205   4.096   0.796   1.222
  481SOL     OW11206   3.039   2.835   1.866
  481SOL    HW111207   2.946   2.797   1.866
  481SOL    HW211208   3.094   2.787   1.935
  482SOL     OW11209   2.469   5.833   1.299
  482SOL    HW111210   2.415   5.750   1.318
  482SOL    HW211211   2.437   5.907   1.358
  483SOL     OW11212   2.993   5.491   0.686
  483SOL    HW111213   2.939   5.550   0.626
  483SOL    HW211214   2.932   5.437   0.744
  484SOL     OW11215   3.998   2.624   2.001
  484SOL    HW111216   4.011   2.650   1.905
  484SOL    HW211217   4.001   2.525   2.009
  485SOL     OW11218   2.523   0.710   1.220
  485SOL    HW111219   2.470   0.707   1.136
  485SOL    HW211220   2.579   0.793   1.221
  486SOL     OW11221   3.525   5.049   1.133
  486SOL    HW111222   3.486   4.977   1.076
  486SOL    HW211223   3.548   5.012   1.223
  487SOL     OW11224   3.051   8.827   2.126
  487SOL    HW111225   3.014   8.774   2.050
  487SOL    HW211226   3.137   8.787   2.156
  488SOL     OW11227   2.611   1.183   2.290
  488SOL    HW111228   2.645   1.138   2.373
  488SOL    HW211229   2.644   1.134   2.209
  489SOL     OW11230   4.065   2.593   0.344
  489SOL    HW111231   4.156   2.551   0.338
  489SOL    HW211232   4.075   2.693   0.349
  490SOL     OW11233   4.658   3.272   0.939
  490SOL    HW111234   4.710   3.302   1.018
  490SOL    HW211235   4.719   3.262   0.860
  491SOL     OW11236   2.866   6.270   0.698
  491SOL    HW111237   2.808   6.189   0.705
  491SOL    HW211238   2.901   6.294   0.789
  492SOL     OW11239   4.857   2.150   0.939
  492SOL    HW111240   4.858   2.076   0.872
  492SOL    HW211241   4.763   2.173   0.963
  493SOL     OW11242   2.805   1.064   0.886
  493SOL    HW111243   2.715   1.104   0.904
  493SOL    HW211244   2.810   0.973   0.926
  494SOL     OW11245   3.055   1.541   1.400
  494SOL    HW111246   3.088   1.619   1.452
  494SOL    HW211247   2.982   1.570   1.338
  495SOL     OW11248   2.784   4.692   1.785
  495SOL    HW111249   2.719   4.719   1.714
  495SOL    HW211250   2.848   4.768   1.801
  496SOL     OW11251   3.588   2.066   1.511
  496SOL    HW111252   3.595   2.031   1.605
  496SOL    HW211253   3.592   2.166   1.513
  497SOL     OW11254   3.325   8.900   1.745
  497SOL    HW111255   3.404   8.950   1.780
  497SOL    HW211256   3.318   8.811   1.791
  498SOL     OW11257   4.176   0.956   2.214
  498SOL    HW111258   4.168   1.043   2.167
  498SOL    HW211259   4.190   0.972   2.312
  499SOL     OW11260   2.672   1.436   1.011
  499SOL    HW111261   2.741   1.372   1.046
  499SOL    HW211262   2.586   1.422   1.061
  500SOL     OW11263   3.533   2.931   1.880
  500SOL    HW111264   3.435   2.943   1.861
  500SOL    HW211265   3.574   3.020   1.900
  501SOL     OW11266   3.021   1.508   1.019
  501SOL    HW111267   3.011   1.574   0.945
  501SOL    HW211268   3.115   1.475   1.023
  502SOL     OW11269   4.705   2.195   2.020
  502SOL    HW111270   4.641   2.206   2.096
  502SOL    HW211271   4.746   2.103   2.025
  503SOL     OW11272   3.001   7.059   1.079
  503SOL    HW111273   2.977   6.978   1.132
  503SOL    HW211274   2.919   7.114   1.062
  504SOL     OW11275   3.025   5.586   1.735
  504SOL    HW111276   3.076   5.569   1.819
  504SOL    HW211277   2.981   5.676   1.740
  505SOL     OW11278   3.346   8.427   0.911
  505SOL    HW111279   3.363   8.353   0.976
  505SOL    HW211280   3.267   8.404   0.855
  506SOL     OW11281   2.516   1.576   0.700
  506SOL    HW111282   2.585   1.644   0.726
  506SOL    HW211283   2.562   1.498   0.656
  507SOL     OW11284   2.183   4.455   0.430
  507SOL    HW111285   2.143   4.491   0.346
  507SOL    HW211286   2.201   4.530   0.494
  508SOL     OW11287   2.800   9.551   1.983
  508SOL    HW111288   2.789   9.569   2.081
  508SOL    HW211289   2.789   9.452   1.967
  509SOL     OW11290   5.025   3.647   1.063
  509SOL    HW111291   5.046   3.744   1.053
  509SOL    HW211292   5.003   3.607   0.974
  510SOL     OW11293   3.430   8.875   0.994
  510SOL    HW111294   3.431   8.972   1.018
  510SOL    HW211295   3.503   8.856   0.928
  511SOL     OW11296   2.345   8.058   1.050
  511SOL    HW111297   2.296   7.991   0.994
  511SOL    HW211298   2.405   8.113   0.993
  512SOL     OW11299   3.718   2.653   0.571
  512SOL    HW111300   3.680   2.675   0.661
  512SOL    HW211301   3.810   2.615   0.582
  513SOL     OW11302   3.211   0.765   0.493
  513SOL    HW111303   3.307   0.790   0.480
  513SOL    HW211304   3.200   0.666   0.485
  514SOL     OW11305   3.487   1.702   0.522
  514SOL    HW111306   3.405   1.752   0.495
  514SOL    HW211307   3.568   1.747   0.483
  515SOL     OW11308   2.399   6.333   1.354
  515SOL    HW111309   2.433   6.426   1.344
  515SOL    HW211310   2.350   6.324   1.440
  516SOL     OW11311   2.678   5.007   1.545
  516SOL    HW111312   2.662   5.076   1.616
  516SOL    HW211313   2.730   5.048   1.470
  517SOL     OW11314   4.138   2.444   0.997
  517SOL    HW111315   4.137   2.496   1.083
  517SOL    HW211316   4.083   2.361   1.009
  518SOL     OW11317   4.448   3.105   0.890
  518SOL    HW111318   4.523   3.167   0.911
  518SOL    HW211319   4.462   3.066   0.799
  519SOL     OW11320   3.443   4.270   1.866
  519SOL    HW111321   3.470   4.365   1.882
  519SOL    HW211322   3.524   4.217   1.842
  520SOL     OW11323   3.756   4.957   0.987
  520SOL    HW111324   3.756   4.885   1.057
  520SOL    HW211325   3.690   5.028   1.014
  521SOL     OW11326   2.292   3.685   1.580
  521SOL    HW111327   2.240   3.765   1.609
  521SOL    HW211328   2.323   3.634   1.660
  522SOL     OW11329   3.515   1.426   2.110
  522SOL    HW111330   3.485   1.516   2.079
  522SOL    HW211331   3.442   1.384   2.164
  523SOL     OW11332   4.200   3.672   0.316
  523SOL    HW111333   4.138   3.593   0.317
  523SOL    HW211334   4.150   3.754   0.342
  524SOL     OW11335   2.885   2.236   2.122
  524SOL    HW111336   2.915   2.317   2.072
  524SOL    HW211337   2.787   2.222   2.106
  525SOL     OW11338   3.300   2.136   2.004
  525SOL    HW111339   3.212   2.106   2.041
  525SOL    HW211340   3.373   2.117   2.070
  526SOL     OW11341   2.460   0.355   2.210
  526SOL    HW111342   2.471   0.311   2.299
  526SOL    HW211343   2.472   0.453   2.220
  527SOL     OW11344   3.792   3.672   1.815
  527SOL    HW111345   3.708   3.637   1.857
  527SOL    HW211346   3.870   3.652   1.875
  528SOL     OW11347   1.772   4.624   2.237
  528SOL    HW111348   1.846   4.690   2.223
  528SOL    HW211349   1.735   4.635   2.329
  529SOL     OW11350   3.019   8.533   2.169
  529SOL    HW111351   3.019   8.607   2.236
  529SOL    HW211352   3.041   8.447   2.214
  530SOL     OW11353   2.244   4.698   1.292
  530SOL    HW111354   2.231   4.744   1.380
  530SOL    HW211355   2.239   4.599   1.305
  531SOL     OW11356   3.445   4.870   0.405
  531SOL    HW111357   3.442   4.772   0.382
  531SOL    HW211358   3.518   4.914   0.352
  532SOL     OW11359   2.996   3.723   1.752
  532SOL    HW111360   2.949   3.635   1.743
  532SOL    HW211361   3.063   3.717   1.826
  533SOL     OW11362   2.914   1.683   0.537
  533SOL    HW111363   2.837   1.634   0.497
  533SOL    HW211364   2.999   1.634   0.518
  534SOL     OW11365   4.141   0.880   1.773
  534SOL    HW111366   4.148   0.827   1.858
  534SOL    HW211367   4.079   0.957   1.786
  535SOL     OW11368   2.281   7.972   1.628
  535SOL    HW111369   2.337   7.890   1.638
  535SOL    HW211370   2.191   7.947   1.593
  536SOL     OW11371   2.431   7.747   1.675
  536SOL    HW111372   2.483   7.704   1.600
  536SOL    HW211373   2.378   7.677   1.723
  537SOL     OW11374   3.542   2.949   1.471
  537SOL    HW111375   3.503   3.034   1.506
  537SOL    HW211376   3.522   2.941   1.373
  538SOL     OW11377   3.653   9.536   1.475
  538SOL    HW111378   3.708   9.470   1.527
  538SOL    HW211379   3.687   9.542   1.381
  539SOL     OW11380   3.636   2.871   0.426
  539SOL    HW111381   3.641   2.850   0.328
  539SOL    HW211382   3.671   2.794   0.478
  540SOL     OW11383   3.552   8.276   1.303
  540SOL    HW111384   3.453   8.289   1.306
  540SOL    HW211385   3.582   8.232   1.387
  541SOL     OW11386   3.169   0.725   0.882
  541SOL    HW111387   3.258   0.769   0.878
  541SOL    HW211388   3.112   0.757   0.806
  542SOL     OW11389   3.264   2.045   0.806
  542SOL    HW111390   3.230   2.050   0.713
  542SOL    HW211391   3.309   1.957   0.821
  543SOL     OW11392   3.280   2.887   0.814
  543SOL    HW111393   3.348   2.882   0.887
  543SOL    HW211394   3.326   2.878   0.725
  544SOL     OW11395   3.314   2.505   0.880
  544SOL    HW111396   3.331   2.535   0.786
  544SOL    HW211397   3.398   2.514   0.933
  545SOL     OW11398   3.203   6.391   1.565
  545SOL    HW111399   3.254   6.449   1.629
  545SOL    HW211400   3.194   6.438   1.477
  546SOL     OW11401   2.153   0.800   0.261
  546SOL    HW111402   2.139   0.731   0.191
  546SOL    HW211403   2.111   0.886   0.233
  547SOL     OW11404   3.767   9.596   0.463
  547SOL    HW111405   3.747   9.634   0.554
  547SOL    HW211406   3.779   9.497   0.470
  548SOL     OW11407   4.163   2.483   1.425
  548SOL    HW111408   4.092   2.415   1.442
  548SOL    HW211409   4.136   2.543   1.350
  549SOL     OW11410   1.857   5.335   2.192
  549SOL    HW111411   1.787   5.386   2.242
  549SOL    HW211412   1.948   5.367   2.220
  550SOL     OW11413   3.299   6.690   2.277
  550SOL    HW111414   3.392   6.666   2.304
  550SOL    HW211415   3.273   6.776   2.319
  551SOL     OW11416   3.583   1.485   1.682
  551SOL    HW111417   3.555   1.412   1.745
  551SOL    HW211418   3.504   1.516   1.630
  552SOL     OW11419   2.664   8.021   1.334
  552SOL    HW111420   2.681   8.071   1.419
  552SOL    HW211421   2.566   8.018   1.316
  553SOL     OW11422   2.480   0.275   1.558
  553SOL    HW111423   2.537   0.273   1.476
  553SOL    HW211424   2.418   0.196   1.557
  554SOL     OW11425   4.300   3.654   1.064
  554SOL    HW111426   4.371   3.585   1.056
  554SOL    HW211427   4.328   3.723   1.131
  555SOL     OW11428   2.393   8.033   1.317
  555SOL    HW111429   2.354   7.946   1.344
  555SOL    HW211430   2.377   8.048   1.219
  556SOL     OW11431   5.045   3.152   0.780
  556SOL    HW111432   5.084   3.129   0.691
  556SOL    HW211433   4.958   3.200   0.767
  557SOL     OW11434   2.478   7.734   0.654
  557SOL    HW111435   2.480   7.659   0.720
  557SOL    HW211436   2.541   7.715   0.579
  558SOL     OW11437   3.826   3.113   0.755
  558SOL    HW111438   3.791   3.118   0.662
  558SOL    HW211439   3.912   3.060   0.756
  559SOL     OW11440   3.180   4.272   0.730
  559SOL    HW111441   3.123   4.191   0.743
  559SOL    HW211442   3.124   4.354   0.739
  560SOL     OW11443   2.502   9.994   1.794
  560SOL    HW111444   2.527   9.916   1.852
  560SOL    HW211445   2.483   0.073   1.852
  561SOL     OW11446   4.392   3.536   1.341
  561SOL    HW111447   4.470   3.476   1.362
  561SOL    HW211448   4.316   3.480   1.308
  562SOL     OW11449   4.200   2.071   1.080
  562SOL    HW111450   4.196   1.979   1.042
  562SOL    HW211451   4.121   2.124   1.051
  563SOL     OW11452   4.409   4.142   1.529
  563SOL    HW111453   4.317   4.114   1.558
  563SOL    HW211454   4.404   4.178   1.436
  564SOL     OW11455   2.693   3.084   1.803
  564SOL    HW111456   2.765   3.043   1.748
  564SOL    HW211457   2.637   3.144   1.745
  565SOL     OW11458   3.290   4.612   1.752
  565SOL    HW111459   3.375   4.588   1.798
  565SOL    HW211460   3.223   4.643   1.819
  566SOL     OW11461   3.717   2.315   1.922
  566SOL    HW111462   3.640   2.359   1.875
  566SOL    HW211463   3.693   2.222   1.946
  567SOL     OW11464   2.657   9.186   0.439
  567SOL    HW111465   2.585   9.117   0.442
  567SOL    HW211466   2.744   9.142   0.414
  568SOL     OW11467   3.068   3.560   2.164
  568SOL    HW111468   2.992   3.509   2.203
  568SOL    HW211469   3.144   3.497   2.144
  569SOL     OW11470   2.606   3.831   1.820
  569SOL    HW111471   2.631   3.771   1.895
  569SOL    HW211472   2.602   3.779   1.735
  570SOL     OW11473   2.638   9.130   1.270
  570SOL    HW111474   2.583   9.205   1.233
  570SOL    HW211475   2.685   9.082   1.196
  571SOL     OW11476   2.486   0.701   0.935
  571SOL    HW111477   2.473   0.714   0.837
  571SOL    HW211478   2.571   0.650   0.951
  572SOL     OW11479   2.567   4.093   2.170
  572SOL    HW111480   2.648   4.047   2.134
  572SOL    HW211481   2.579   4.192   2.163
  573SOL     OW11482   2.953   3.791   1.338
  573SOL    HW111483   3.022   3.856   1.307
  573SOL    HW211484   2.894   3.764   1.261
  574SOL     OW11485   2.823   0.041   2.187
  574SOL    HW111486   2.900   9.979   2.199
  574SOL    HW211487   2.857   0.135   2.181
  575SOL     OW11488   3.910   4.125   0.937
  575SOL    HW111489   3.844   4.075   0.881
  575SOL    HW211490   3.863   4.166   1.015
  576SOL     OW11491   2.010   7.802   0.721
  576SOL    HW111492   1.999   7.848   0.633
  576SOL    HW211493   1.972   7.709   0.714
  577SOL     OW11494   2.183   6.344   0.815
  577SOL    HW111495   2.201   6.407   0.740
  577SOL    HW211496   2.173   6.251   0.779
  578SOL     OW11497   4.451   3.623   2.200
  578SOL    HW111498   4.393   3.696   2.165
  578SOL    HW211499   4.395   3.554   2.247
  579SOL     OW11500   5.058   2.035   0.550
  579SOL    HW111501   5.094   2.126   0.570
  579SOL    HW211502   5.003   2.038   0.466
  580SOL     OW11503   3.138   9.559   0.422
  580SOL    HW111504   3.119   9.657   0.421
  580SOL    HW211505   3.057   9.510   0.454
  581SOL     OW11506   2.776   4.496   1.976
  581SOL    HW111507   2.772   4.565   1.903
  581SOL    HW211508   2.835   4.421   1.947
  582SOL     OW11509   2.473   2.126   1.874
  582SOL    HW111510   2.490   2.027   1.874
  582SOL    HW211511   2.487   2.162   1.782
  583SOL     OW11512   2.455   6.870   2.241
  583SOL    HW111513   2.462   6.771   2.234
  583SOL    HW211514   2.456   6.910   2.149
  584SOL     OW11515   2.789   8.989   1.075
  584SOL    HW111516   2.855   8.996   1.149
  584SOL    HW211517   2.830   8.939   0.998
  585SOL     OW11518   2.680   0.933   1.224
  585SOL    HW111519   2.764   0.879   1.230
  585SOL    HW211520   2.700   1.029   1.246
  586SOL     OW11521   3.213   4.850   1.355
  586SOL    HW111522   3.301   4.806   1.371
  586SOL    HW211523   3.228   4.947   1.335
  587SOL     OW11524   4.008   3.452   0.347
  587SOL    HW111525   3.993   3.483   0.441
  587SOL    HW211526   3.926   3.405   0.315
  588SOL     OW11527   2.409   6.131   2.237
  588SOL    HW111528   2.420   6.153   2.140
  588SOL    HW211529   2.448   6.204   2.293
  589SOL     OW11530   3.019   2.480   1.326
  589SOL    HW111531   3.070   2.471   1.412
  589SOL    HW211532   2.932   2.526   1.344
  590SOL     OW11533   2.406   2.753   1.963
  590SOL    HW111534   2.336   2.684   1.944
  590SOL    HW211535   2.413   2.815   1.885
  591SOL     OW11536   3.906   0.378   0.619
  591SOL    HW111537   3.827   0.383   0.680
  591SOL    HW211538   3.977   0.441   0.650
  592SOL     OW11539   3.373   2.238   0.438
  592SOL    HW111540   3.289   2.279   0.402
  592SOL    HW211541   3.440   2.309   0.458
  593SOL     OW11542   4.155   2.312   1.797
  593SOL    HW111543   4.057   2.324   1.783
  593SOL    HW211544   4.204   2.394   1.767
  594SOL     OW11545   3.272   1.323   1.616
  594SOL    HW111546   3.300   1.228   1.631
  594SOL    HW211547   3.172   1.328   1.614
  595SOL     OW11548   3.476   8.900   0.345
  595SOL    HW111549   3.510   8.899   0.251
  595SOL    HW211550   3.481   8.993   0.381
  596SOL     OW11551   4.262   3.814   2.117
  596SOL    HW111552   4.180   3.778   2.160
  596SOL    HW211553   4.262   3.914   2.122
  597SOL     OW11554   2.541   1.400   1.787
  597SOL    HW111555   2.613   1.371   1.724
  597SOL    HW211556   2.462   1.339   1.778
  598SOL     OW11557   2.110   8.177   0.859
  598SOL    HW111558   2.121   8.078   0.844
  598SOL    HW211559   2.083   8.194   0.953
  599SOL     OW11560   3.549   9.071   1.794
  599SOL    HW111561   3.646   9.051   1.778
  599SOL    HW211562   3.517   9.136   1.725
  600SOL     OW11563   2.210   7.908   0.870
  600SOL    HW111564   2.137   7.859   0.822
  600SOL    HW211565   2.286   7.924   0.808
  601SOL     OW11566   3.452   4.502   1.180
  601SOL    HW111567   3.551   4.493   1.187
  601SOL    HW211568   3.427   4.517   1.084
  602SOL     OW11569   3.124   8.748   1.254
  602SOL    HW111570   3.196   8.709   1.197
  602SOL    HW211571   3.164   8.779   1.341
  603SOL     OW11572   2.843   5.631   0.510
  603SOL    HW111573   2.746   5.614   0.523
  603SOL    HW211574   2.865   5.623   0.413
  604SOL     OW11575   3.949   4.757   1.495
  604SOL    HW111576   3.925   4.831   1.432
  604SOL    HW211577   4.037   4.718   1.467
  605SOL     OW11578   2.827   5.167   1.380
  605SOL    HW111579   2.836   5.157   1.281
  605SOL    HW211580   2.918   5.178   1.421
  606SOL     OW11581   3.266   8.311   1.313
  606SOL    HW111582   3.175   8.348   1.294
  606SOL    HW211583   3.269   8.275   1.406
  607SOL     OW11584   3.341   2.679   1.227
  607SOL    HW111585   3.262   2.740   1.227
  607SOL    HW211586   3.313   2.587   1.199
  608SOL     OW11587   2.072   7.199   2.036
  608SOL    HW111588   2.122   7.124   1.993
  608SOL    HW211589   2.048   7.175   2.130
  609SOL     OW11590   2.883   1.951   0.698
  609SOL    HW111591   2.823   2.027   0.727
  609SOL    HW211592   2.900   1.958   0.600
  610SOL     OW11593   3.707   3.311   2.127
  610SOL    HW111594   3.694   3.258   2.043
  610SOL    HW211595   3.801   3.302   2.158
  611SOL     OW11596   2.448   9.035   1.745
  611SOL    HW111597   2.492   9.020   1.657
  611SOL    HW211598   2.366   9.090   1.732
  612SOL     OW11599   2.974   5.365   0.206
  612SOL    HW111600   3.056   5.319   0.172
  612SOL    HW211601   2.948   5.325   0.294
  613SOL     OW11602   3.883   2.960   1.901
  613SOL    HW111603   3.976   2.995   1.914
  613SOL    HW211604   3.882   2.893   1.827
  614SOL     OW11605   4.160   4.517   0.632
  614SOL    HW111606   4.152   4.434   0.686
  614SOL    HW211607   4.208   4.497   0.547
  615SOL     OW11608   3.729   9.122   0.240
  615SOL    HW111609   3.768   9.035   0.269
  615SOL    HW211610   3.652   9.145   0.300
  616SOL     OW11611   3.408   4.906   2.131
  616SOL    HW111612   3.493   4.889   2.181
  616SOL    HW211613   3.330   4.884   2.189
  617SOL     OW11614   2.663   3.486   1.549
  617SOL    HW111615   2.703   3.440   1.469
  617SOL    HW211616   2.620   3.571   1.520
  618SOL     OW11617   3.671   3.874   1.669
  618SOL    HW111618   3.580   3.861   1.708
  618SOL    HW211619   3.735   3.811   1.713
  619SOL     OW11620   3.179   0.724   2.212
  619SOL    HW111621   3.140   0.719   2.304
  619SOL    HW211622   3.246   0.798   2.208
  620SOL     OW11623   3.573   2.069   0.524
  620SOL    HW111624   3.565   2.076   0.623
  620SOL    HW211625   3.502   2.124   0.480
  621SOL     OW11626   3.279   9.863   1.283
  621SOL    HW111627   3.375   9.839   1.267
  621SOL    HW211628   3.256   9.946   1.231
  622SOL     OW11629   4.039   4.733   0.741
  622SOL    HW111630   4.103   4.779   0.803
  622SOL    HW211631   4.088   4.663   0.689
  623SOL     OW11632   3.882   4.227   0.605
  623SOL    HW111633   3.953   4.269   0.661
  623SOL    HW211634   3.793   4.265   0.631
  624SOL     OW11635   3.974   2.081   1.985
  624SOL    HW111636   3.987   2.177   2.009
  624SOL    HW211637   3.877   2.060   1.979
  625SOL     OW11638   2.715   1.042   2.088
  625SOL    HW111639   2.800   1.004   2.123
  625SOL    HW211640   2.710   1.030   1.989
  626SOL     OW11641   2.773   3.381   1.314
  626SOL    HW111642   2.779   3.398   1.216
  626SOL    HW211643   2.850   3.426   1.360
  627SOL     OW11644   3.184   9.046   2.027
  627SOL    HW111645   3.146   9.071   1.938
  627SOL    HW211646   3.127   8.975   2.069
  628SOL     OW11647   2.370   8.548   2.199
  628SOL    HW111648   2.377   8.516   2.294
  628SOL    HW211649   2.409   8.640   2.192
  629SOL     OW11650   2.549   4.472   1.078
  629SOL    HW111651   2.483   4.541   1.048
  629SOL    HW211652   2.623   4.466   1.011
  630SOL     OW11653   3.072   3.326   0.732
  630SOL    HW111654   3.146   3.350   0.794
  630SOL    HW211655   3.081   3.231   0.703
  631SOL     OW11656   2.379   2.495   0.845
  631SOL    HW111657   2.451   2.544   0.894
  631SOL    HW211658   2.322   2.561   0.795
  632SOL     OW11659   4.045   2.697   1.746
  632SOL    HW111660   3.974   2.668   1.681
  632SOL    HW211661   4.131   2.650   1.724
  633SOL     OW11662   3.211   8.622   1.768
  633SOL    HW111663   3.273   8.544   1.785
  633SOL    HW211664   3.159   8.604   1.685
  634SOL     OW11665   4.982   2.970   0.986
  634SOL    HW111666   4.928   3.010   1.060
  634SOL    HW211667   5.002   3.040   0.917
  635SOL     OW11668   3.877   1.881   0.784
  635SOL    HW111669   3.798   1.829   0.818
  635SOL    HW211670   3.858   1.979   0.793
  636SOL     OW11671   2.125   1.683   1.242
  636SOL    HW111672   2.148   1.751   1.312
  636SOL    HW211673   2.028   1.689   1.219
  637SOL     OW11674   3.243   4.420   0.279
  637SOL    HW111675   3.273   4.363   0.355
  637SOL    HW211676   3.185   4.368   0.218
  638SOL     OW11677   2.908   3.915   1.948
  638SOL    HW111678   2.842   3.976   1.906
  638SOL    HW211679   2.946   3.854   1.878
  639SOL     OW11680   2.115   8.173   1.143
  639SOL    HW111681   2.137   8.265   1.176
  639SOL    HW211682   2.199   8.128   1.111
  640SOL     OW11683   3.361   1.100   0.528
  640SOL    HW111684   3.267   1.094   0.496
  640SOL    HW211685   3.407   1.175   0.481
  641SOL     OW11686   2.576   2.923   1.500
  641SOL    HW111687   2.550   2.862   1.425
  641SOL    HW211688   2.638   2.994   1.466
  642SOL     OW11689   3.190   4.185   1.886
  642SOL    HW111690   3.150   4.143   1.805
  642SOL    HW211691   3.283   4.215   1.865
  643SOL     OW11692   2.407   5.764   0.629
  643SOL    HW111693   2.358   5.820   0.563
  643SOL    HW211694   2.443   5.822   0.702
  644SOL     OW11695   4.215   0.768   2.019
  644SOL    HW111696   4.308   0.779   1.985
  644SOL    HW211697   4.201   0.832   2.095
  645SOL     OW11698   2.741   8.330   0.276
  645SOL    HW111699   2.787   8.394   0.337
  645SOL    HW211700   2.647   8.362   0.260
  646SOL     OW11701   2.598   4.361   2.140
  646SOL    HW111702   2.659   4.406   2.075
  646SOL    HW211703   2.533   4.428   2.176
  647SOL     OW11704   2.150   4.001   1.926
  647SOL    HW111705   2.217   3.927   1.922
  647SOL    HW211706   2.152   4.042   2.018
  648SOL     OW11707   3.703   3.322   1.677
  648SOL    HW111708   3.764   3.398   1.655
  648SOL    HW211709   3.610   3.356   1.690
  649SOL     OW11710   2.880   5.147   1.110
  649SOL    HW111711   2.966   5.120   1.067
  649SOL    HW211712   2.869   5.246   1.104
  650SOL     OW11713   3.072   4.096   0.464
  650SOL    HW111714   3.057   4.073   0.560
  650SOL    HW211715   3.151   4.157   0.456
  651SOL     OW11716   3.535   1.774   2.211
  651SOL    HW111717   3.513   1.837   2.285
  651SOL    HW211718   3.631   1.786   2.185
  652SOL     OW11719   4.191   3.207   0.911
  652SOL    HW111720   4.278   3.158   0.902
  652SOL    HW211721   4.176   3.263   0.830
  653SOL     OW11722   2.886   1.926   0.418
  653SOL    HW111723   2.912   1.922   0.321
  653SOL    HW211724   2.894   1.835   0.458
  654SOL     OW11725   2.223   2.214   1.933
  654SOL    HW111726   2.312   2.173   1.909
  654SOL    HW211727   2.239   2.302   1.979
  655SOL     OW11728   4.081   3.623   1.497
  655SOL    HW111729   4.088   3.615   1.398
  655SOL    HW211730   4.151   3.686   1.531
  656SOL     OW11731   3.508   1.469   0.648
  656SOL    HW111732   3.415   1.450   0.679
  656SOL    HW211733   3.509   1.557   0.600
  657SOL     OW11734   2.336   7.283   1.331
  657SOL    HW111735   2.313   7.248   1.422
  657SOL    HW211736   2.306   7.378   1.324
  658SOL     OW11737   2.768   4.219   1.124
  658SOL    HW111738   2.751   4.270   1.040
  658SOL    HW211739   2.713   4.258   1.199
  659SOL     OW11740   3.595   1.698   1.856
  659SOL    HW111741   3.600   1.625   1.787
  659SOL    HW211742   3.512   1.686   1.909
  660SOL     OW11743   2.829   8.214   1.220
  660SOL    HW111744   2.783   8.137   1.265
  660SOL    HW211745   2.777   8.239   1.138
  661SOL     OW11746   2.130   4.694   1.991
  661SOL    HW111747   2.084   4.620   1.942
  661SOL    HW211748   2.214   4.660   2.033
  662SOL     OW11749   3.386   1.653   2.025
  662SOL    HW111750   3.293   1.627   2.051
  662SOL    HW211751   3.428   1.705   2.100
  663SOL     OW11752   2.879   2.239   1.343
  663SOL    HW111753   2.928   2.153   1.329
  663SOL    HW211754   2.937   2.316   1.314
  664SOL     OW11755   3.116   9.242   1.607
  664SOL    HW111756   3.142   9.332   1.643
  664SOL    HW211757   3.180   9.216   1.534
  665SOL     OW11758   3.159   1.569   0.494
  665SOL    HW111759   3.203   1.528   0.573
  665SOL    HW211760   3.203   1.657   0.473
  666SOL     OW11761   3.211   9.353   1.953
  666SOL    HW111762   3.298   9.384   1.992
  666SOL    HW211763   3.195   9.400   1.866
  667SOL     OW11764   3.495   2.107   2.192
  667SOL    HW111765   3.459   2.046   2.262
  667SOL    HW211766   3.514   2.196   2.232
  668SOL     OW11767   2.913   5.630   0.247
  668SOL    HW111768   3.003   5.672   0.256
  668SOL    HW211769   2.924   5.534   0.219
  669SOL     OW11770   4.649   3.326   1.873
  669SOL    HW111771   4.676   3.351   1.780
  669SOL    HW211772   4.677   3.232   1.892
  670SOL     OW11773   2.420   9.413   1.490
  670SOL    HW111774   2.419   9.392   1.588
  670SOL    HW211775   2.515   9.415   1.458
  671SOL     OW11776   5.028   2.335   0.836
  671SOL    HW111777   4.971   2.264   0.879
  671SOL    HW211778   5.046   2.407   0.902
  672SOL     OW11779   3.197   8.349   0.532
  672SOL    HW111780   3.175   8.339   0.630
  672SOL    HW211781   3.173   8.441   0.502
  673SOL     OW11782   3.289   9.506   1.027
  673SOL    HW111783   3.207   9.483   1.080
  673SOL    HW211784   3.277   9.475   0.932
  674SOL     OW11785   2.423   6.034   1.476
  674SOL    HW111786   2.521   6.045   1.491
  674SOL    HW211787   2.373   6.107   1.523
  675SOL     OW11788   4.418   2.151   0.298
  675SOL    HW111789   4.419   2.163   0.199
  675SOL    HW211790   4.506   2.114   0.329
  676SOL     OW11791   3.542   3.302   1.315
  676SOL    HW111792   3.512   3.253   1.397
  676SOL    HW211793   3.575   3.393   1.341
  677SOL     OW11794   2.994   3.255   2.115
  677SOL    HW111795   2.939   3.304   2.183
  677SOL    HW211796   3.078   3.222   2.157
  678SOL     OW11797   2.156   3.908   1.653
  678SOL    HW111798   2.135   3.947   1.742
  678SOL    HW211799   2.110   3.959   1.582
  679SOL     OW11800   4.518   3.052   0.623
  679SOL    HW111801   4.472   3.138   0.601
  679SOL    HW211802   4.607   3.050   0.579
  680SOL     OW11803   4.597   3.357   1.391
  680SOL    HW111804   4.635   3.366   1.483
  680SOL    HW211805   4.542   3.273   1.386
  681SOL     OW11806   2.665   6.277   0.409
  681SOL    HW111807   2.660   6.177   0.414
  681SOL    HW211808   2.760   6.307   0.415
  682SOL     OW11809   4.430   4.225   0.405
  682SOL    HW111810   4.477   4.136   0.401
  682SOL    HW211811   4.399   4.242   0.499
  683SOL     OW11812   2.801   7.904   0.479
  683SOL    HW111813   2.821   7.970   0.407
  683SOL    HW211814   2.886   7.878   0.525
  684SOL     OW11815   5.568   2.869   0.713
  684SOL    HW111816   5.624   2.944   0.678
  684SOL    HW211817   5.575   2.866   0.813
  685SOL     OW11818   3.459   5.261   1.303
  685SOL    HW111819   3.528   5.292   1.369
  685SOL    HW211820   3.503   5.204   1.233
  686SOL     OW11821   2.034   7.880   1.537
  686SOL    HW111822   1.955   7.923   1.580
  686SOL    HW211823   2.032   7.897   1.438
  687SOL     OW11824   2.243   9.267   1.343
  687SOL    HW111825   2.237   9.312   1.254
  687SOL    HW211826   2.302   9.321   1.404
  688SOL     OW11827   3.693   2.849   1.667
  688SOL    HW111828   3.644   2.867   1.752
  688SOL    HW211829   3.637   2.877   1.589
  689SOL     OW11830   2.649   7.674   0.455
  689SOL    HW111831   2.707   7.593   0.462
  689SOL    HW211832   2.706   7.756   0.456
  690SOL     OW11833   2.964   0.480   0.303
  690SOL    HW111834   2.985   0.523   0.216
  690SOL    HW211835   2.895   0.409   0.289
  691SOL     OW11836   3.890   9.404   0.840
  691SOL    HW111837   3.900   9.430   0.744
  691SOL    HW211838   3.865   9.484   0.894
  692SOL     OW11839   3.454   3.244   0.784
  692SOL    HW111840   3.384   3.286   0.843
  692SOL    HW211841   3.511   3.183   0.838
  693SOL     OW11842   2.254   4.659   0.602
  693SOL    HW111843   2.229   4.753   0.621
  693SOL    HW211844   2.353   4.653   0.587
  694SOL     OW11845   3.689   2.045   2.009
  694SOL    HW111846   3.619   2.069   2.077
  694SOL    HW211847   3.723   1.952   2.028
  695SOL     OW11848   2.494   6.947   1.143
  695SOL    HW111849   2.559   6.929   1.068
  695SOL    HW211850   2.530   7.020   1.201
  696SOL     OW11851   4.498   3.036   2.072
  696SOL    HW111852   4.579   3.040   2.013
  696SOL    HW211853   4.484   2.943   2.104
  697SOL     OW11854   2.709   0.023   0.893
  697SOL    HW111855   2.780   0.093   0.902
  697SOL    HW211856   2.718   9.979   0.804
  698SOL     OW11857   2.677   4.961   1.144
  698SOL    HW111858   2.749   5.028   1.126
  698SOL    HW211859   2.719   4.872   1.162
  699SOL     OW11860   2.157   4.256   1.827
  699SOL    HW111861   2.141   4.162   1.858
  699SOL    HW211862   2.253   4.267   1.802
  700SOL     OW11863   4.129   5.094   0.796
  700SOL    HW111864   4.047   5.119   0.847
  700SOL    HW211865   4.123   5.129   0.703
  701SOL     OW11866   2.081   3.952   0.725
  701SOL    HW111867   1.994   3.972   0.679
  701SOL    HW211868   2.129   4.038   0.743
  702SOL     OW11869   2.381   5.275   0.797
  702SOL    HW111870   2.305   5.220   0.832
  702SOL    HW211871   2.345   5.360   0.758
  703SOL     OW11872   2.714   6.041   0.706
  703SOL    HW111873   2.697   6.023   0.610
  703SOL    HW211874   2.778   5.973   0.742
  704SOL     OW11875   2.945   0.111   0.658
  704SOL    HW111876   2.999   0.121   0.574
  704SOL    HW211877   2.936   0.015   0.681
  705SOL     OW11878   2.799   7.444   0.480
  705SOL    HW111879   2.830   7.403   0.565
  705SOL    HW211880   2.754   7.374   0.424
  706SOL     OW11881   4.177   1.814   0.982
  706SOL    HW111882   4.112   1.777   1.049
  706SOL    HW211883   4.156   1.776   0.892
  707SOL     OW11884   3.660   4.896   2.262
  707SOL    HW111885   3.666   4.910   2.361
  707SOL    HW211886   3.719   4.820   2.235
  708SOL     OW11887   2.670   1.787   0.767
  708SOL    HW111888   2.758   1.827   0.741
  708SOL    HW211889   2.606   1.861   0.790
  709SOL     OW11890   4.265   2.539   1.680
  709SOL    HW111891   4.246   2.517   1.584
  709SOL    HW211892   4.364   2.543   1.693
  710SOL     OW11893   3.379   2.026   1.214
  710SOL    HW111894   3.365   2.112   1.263
  710SOL    HW211895   3.294   1.973   1.214
  711SOL     OW11896   2.374   6.313   0.282
  711SOL    HW111897   2.377   6.247   0.357
  711SOL    HW211898   2.320   6.275   0.206
  712SOL     OW11899   2.536   3.708   1.453
  712SOL    HW111900   2.449   3.710   1.502
  712SOL    HW211901   2.520   3.725   1.356
  713SOL     OW11902   3.109   8.298   2.284
  713SOL    HW111903   3.198   8.343   2.272
  713SOL    HW211904   3.117   8.202   2.258
  714SOL     OW11905   2.605   9.043   2.206
  714SOL    HW111906   2.578   9.085   2.119
  714SOL    HW211907   2.582   9.105   2.281
  715SOL     OW11908   3.224   5.138   0.408
  715SOL    HW111909   3.194   5.225   0.448
  715SOL    HW211910   3.319   5.120   0.435
  716SOL     OW11911   3.049   4.089   1.675
  716SOL    HW111912   3.043   4.170   1.617
  716SOL    HW211913   2.987   4.018   1.641
  717SOL     OW11914   3.397   4.637   1.417
  717SOL    HW111915   3.349   4.566   1.470
  717SOL    HW211916   3.428   4.599   1.330
  718SOL     OW11917   3.243   3.784   1.613
  718SOL    HW111918   3.279   3.703   1.566
  718SOL    HW211919   3.151   3.765   1.646
  719SOL     OW11920   2.219   3.802   1.338
  719SOL    HW111921   2.243   3.752   1.421
  719SOL    HW211922   2.294   3.798   1.273
  720SOL     OW11923   2.470   2.401   0.419
  720SOL    HW111924   2.496   2.328   0.356
  720SOL    HW211925   2.422   2.361   0.497
  721SOL     OW11926   3.053   1.924   0.948
  721SOL    HW111927   3.119   1.978   0.895
  721SOL    HW211928   2.967   1.976   0.956
  722SOL     OW11929   3.979   1.269   2.286
  722SOL    HW111930   3.985   1.324   2.369
  722SOL    HW211931   3.899   1.297   2.233
  723SOL     OW11932   2.991   1.690   0.810
  723SOL    HW111933   2.966   1.710   0.716
  723SOL    HW211934   3.008   1.776   0.859
  724SOL     OW11935   3.359   4.568   2.146
  724SOL    HW111936   3.351   4.469   2.158
  724SOL    HW211937   3.271   4.611   2.162
  725SOL     OW11938   3.615   3.534   0.981
  725SOL    HW111939   3.521   3.548   1.014
  725SOL    HW211940   3.651   3.449   1.019
  726SOL     OW11941   3.679   9.647   0.726
  726SOL    HW111942   3.715   9.634   0.818
  726SOL    HW211943   3.600   9.587   0.712
  727SOL     OW11944   3.163   4.855   0.999
  727SOL    HW111945   3.115   4.802   1.069
  727SOL    HW211946   3.144   4.952   1.012
  728SOL     OW11947   3.144   5.522   1.969
  728SOL    HW111948   3.157   5.427   1.995
  728SOL    HW211949   3.165   5.582   2.047
  729SOL     OW11950   2.176   7.307   1.007
  729SOL    HW111951   2.212   7.232   1.063
  729SOL    HW211952   2.105   7.355   1.059
  730SOL     OW11953   2.972   1.444   0.326
  730SOL    HW111954   2.998   1.355   0.290
  730SOL    HW211955   3.049   1.483   0.377
  731SOL     OW11956   3.070   8.095   0.480
  731SOL    HW111957   3.121   8.181   0.491
  731SOL    HW211958   3.006   8.104   0.404
  732SOL     OW11959   4.045   8.587   0.980
  732SOL    HW111960   4.022   8.557   1.073
  732SOL    HW211961   3.991   8.669   0.958
  733SOL     OW11962   2.339   2.706   1.622
  733SOL    HW111963   2.295   2.649   1.692
  733SOL    HW211964   2.376   2.789   1.665
  734SOL     OW11965   2.316   1.199   0.662
  734SOL    HW111966   2.322   1.273   0.729
  734SOL    HW211967   2.395   1.139   0.671
  735SOL     OW11968   3.182   2.724   2.072
  735SOL    HW111969   3.134   2.792   2.127
  735SOL    HW211970   3.253   2.681   2.127
  736SOL     OW11971   3.017   6.027   1.850
  736SOL    HW111972   3.031   6.102   1.785
  736SOL    HW211973   2.981   5.947   1.802
  737SOL     OW11974   2.539   0.557   1.664
  737SOL    HW111975   2.588   0.491   1.721
  737SOL    HW211976   2.468   0.509   1.612
  738SOL     OW11977   3.090   0.828   1.965
  738SOL    HW111978   3.140   0.770   2.029
  738SOL    HW211979   3.084   0.782   1.876
  739SOL     OW11980   3.266   2.994   1.822
  739SOL    HW111981   3.257   3.091   1.841
  739SOL    HW211982   3.184   2.946   1.853
  740SOL     OW11983   4.063   1.478   0.910
  740SOL    HW111984   4.075   1.557   0.849
  740SOL    HW211985   3.983   1.494   0.969
  741SOL     OW11986   2.928   7.191   1.646
  741SOL    HW111987   2.947   7.289   1.640
  741SOL    HW211988   2.918   7.165   1.742
  742SOL     OW11989   3.341   8.207   1.067
  742SOL    HW111990   3.308   8.233   1.158
  742SOL    HW211991   3.271   8.154   1.020
  743SOL     OW11992   2.804   8.980   0.680
  743SOL    HW111993   2.858   8.935   0.752
  743SOL    HW211994   2.709   8.948   0.685
  744SOL     OW11995   3.528   3.512   2.165
  744SOL    HW111996   3.597   3.442   2.147
  744SOL    HW211997   3.528   3.536   2.262
  745SOL     OW11998   2.603   8.096   0.549
  745SOL    HW111999   2.561   8.100   0.458
  745SOL    HW212000   2.679   8.031   0.548
  746SOL     OW12001   3.644   4.605   0.779
  746SOL    HW112002   3.553   4.600   0.737
  746SOL    HW212003   3.680   4.698   0.769
  747SOL     OW12004   4.286   2.200   2.022
  747SOL    HW112005   4.260   2.104   2.027
  747SOL    HW212006   4.223   2.249   1.962
  748SOL     OW12007   2.983   8.647   1.922
  748SOL    HW112008   2.989   8.590   2.004
  748SOL    HW212009   3.068   8.640   1.871
  749SOL     OW12010   3.179   2.070   0.549
  749SOL    HW112011   3.090   2.115   0.549
  749SOL    HW212012   3.247   2.130   0.508
  750SOL     OW12013   2.256   7.419   2.020
  750SOL    HW112014   2.178   7.358   2.034
  750SOL    HW212015   2.258   7.488   2.092
  751SOL     OW12016   4.498   2.334   1.896
  751SOL    HW112017   4.418   2.287   1.932
  751SOL    HW212018   4.581   2.285   1.923
  752SOL     OW12019   3.177   3.231   1.465
  752SOL    HW112020   3.115   3.239   1.542
  752SOL    HW212021   3.172   3.138   1.427
  753SOL     OW12022   2.395   8.309   0.275
  753SOL    HW112023   2.441   8.220   0.280
  753SOL    HW212024   2.318   8.310   0.338
  754SOL     OW12025   2.492   8.788   2.159
  754SOL    HW112026   2.495   8.794   2.060
  754SOL    HW212027   2.534   8.869   2.199
  755SOL     OW12028   2.865   3.903   1.579
  755SOL    HW112029   2.897   3.836   1.646
  755SOL    HW212030   2.883   3.869   1.487
  756SOL     OW12031   4.671   2.822   1.094
  756SOL    HW112032   4.726   2.786   1.019
  756SOL    HW212033   4.637   2.747   1.150
  757SOL     OW12034   3.129   2.346   0.391
  757SOL    HW112035   3.052   2.300   0.434
  757SOL    HW212036   3.125   2.444   0.410
  758SOL     OW12037   3.794   9.623   0.981
  758SOL    HW112038   3.782   9.573   1.067
  758SOL    HW212039   3.793   9.721   0.998
  759SOL     OW12040   2.168   2.399   1.559
  759SOL    HW112041   2.244   2.367   1.502
  759SOL    HW212042   2.130   2.483   1.520
  760SOL     OW12043   2.559   8.840   0.702
  760SOL    HW112044   2.508   8.880   0.626
  760SOL    HW212045   2.502   8.842   0.785
  761SOL     OW12046   2.978   8.977   1.267
  761SOL    HW112047   3.031   8.894   1.251
  761SOL    HW212048   2.958   8.985   1.365
  762SOL     OW12049   3.761   1.083   2.082
  762SOL    HW112050   3.767   1.183   2.091
  762SOL    HW212051   3.708   1.061   2.000
  763SOL     OW12052   2.401   4.822   2.229
  763SOL    HW112053   2.386   4.727   2.200
  763SOL    HW212054   2.336   4.882   2.182
  764SOL     OW12055   2.359   2.018   0.767
  764SOL    HW112056   2.347   1.928   0.810
  764SOL    HW212057   2.386   2.085   0.836
  765SOL     OW12058   2.151   5.702   1.173
  765SOL    HW112059   2.179   5.673   1.082
  765SOL    HW212060   2.150   5.802   1.178
  766SOL     OW12061   2.545   7.578   1.494
  766SOL    HW112062   2.519   7.496   1.545
  766SOL    HW212063   2.596   7.551   1.412
  767SOL     OW12064   2.663   1.838   1.673
  767SOL    HW112065   2.596   1.869   1.740
  767SOL    HW212066   2.706   1.754   1.704
  768SOL     OW12067   3.899   0.897   2.232
  768SOL    HW112068   3.846   0.965   2.181
  768SOL    HW212069   3.997   0.914   2.220
  769SOL     OW12070   2.340   2.069   1.384
  769SOL    HW112071   2.257   2.018   1.408
  769SOL    HW212072   2.420   2.012   1.402
  770SOL     OW12073   3.007   4.331   0.155
  770SOL    HW112074   2.983   4.420   0.194
  770SOL    HW212075   2.957   4.318   0.070
  771SOL     OW12076   2.268   6.496   0.600
  771SOL    HW112077   2.351   6.439   0.602
  771SOL    HW212078   2.251   6.527   0.506
  772SOL     OW12079   3.669   5.002   1.832
  772SOL    HW112080   3.683   5.028   1.927
  772SOL    HW212081   3.638   5.082   1.780
  773SOL     OW12082   2.262   4.940   0.667
  773SOL    HW112083   2.216   5.002   0.731
  773SOL    HW212084   2.355   4.922   0.699
  774SOL     OW12085   3.508   0.594   1.710
  774SOL    HW112086   3.532   0.498   1.723
  774SOL    HW212087   3.408   0.603   1.710
  775SOL     OW12088   3.872   3.227   1.472
  775SOL    HW112089   3.802   3.257   1.537
  775SOL    HW212090   3.869   3.128   1.463
  776SOL     OW12091   2.626   0.752   1.488
  776SOL    HW112092   2.577   0.736   1.402
  776SOL    HW212093   2.592   0.689   1.558
  777SOL     OW12094   4.970   3.553   0.814
  777SOL    HW112095   4.879   3.543   0.774
  777SOL    HW212096   5.039   3.546   0.742
  778SOL     OW12097   3.015   4.224   1.246
  778SOL    HW112098   2.930   4.224   1.193
  778SOL    HW212099   3.069   4.305   1.223
  779SOL     OW12100   2.643   0.266   1.338
  779SOL    HW112101   2.741   0.281   1.350
  779SOL    HW212102   2.610   0.322   1.261
  780SOL     OW12103   5.188   2.863   0.611
  780SOL    HW112104   5.117   2.798   0.587
  780SOL    HW212105   5.262   2.816   0.659
  781SOL     OW12106   2.762   8.763   1.797
  781SOL    HW112107   2.755   8.742   1.700
  781SOL    HW212108   2.840   8.714   1.837
  782SOL     OW12109   3.225   1.350   1.287
  782SOL    HW112110   3.194   1.265   1.330
  782SOL    HW212111   3.173   1.427   1.324
  783SOL     OW12112   4.147   4.397   1.288
  783SOL    HW112113   4.165   4.453   1.369
  783SOL    HW212114   4.090   4.448   1.224
  784SOL     OW12115   2.237   4.945   1.168
  784SOL    HW112116   2.241   4.853   1.208
  784SOL    HW212117   2.153   4.991   1.198
  785SOL     OW12118   1.920   7.616   0.404
  785SOL    HW112119   1.838   7.659   0.366
  785SOL    HW212120   1.902   7.586   0.497
  786SOL     OW12121   3.185   8.033   2.178
  786SOL    HW112122   3.147   7.957   2.230
  786SOL    HW212123   3.277   8.053   2.211
  787SOL     OW12124   3.063   4.080   2.102
  787SOL    HW112125   3.122   4.116   2.030
  787SOL    HW212126   3.001   4.011   2.062
  788SOL     OW12127   2.861   3.482   1.745
  788SOL    HW112128   2.828   3.424   1.820
  788SOL    HW212129   2.792   3.485   1.673
  789SOL     OW12130   1.971   4.802   2.183
  789SOL    HW112131   2.025   4.756   2.113
  789SOL    HW212132   2.029   4.868   2.232
  790SOL     OW12133   3.411   9.945   1.686
  790SOL    HW112134   3.419   9.973   1.781
  790SOL    HW212135   3.472   9.869   1.668
  791SOL     OW12136   2.994   1.329   1.560
  791SOL    HW112137   3.010   1.412   1.505
  791SOL    HW212138   3.016   1.248   1.505
  792SOL     OW12139   2.473   3.062   0.956
  792SOL    HW112140   2.465   3.066   1.056
  792SOL    HW212141   2.433   3.144   0.916
  793SOL     OW12142   3.435   3.193   1.542
  793SOL    HW112143   3.338   3.199   1.516
  793SOL    HW212144   3.452   3.249   1.622
  794SOL     OW12145   2.574   5.933   2.043
  794SOL    HW112146   2.510   5.857   2.028
  794SOL    HW212147   2.528   6.019   2.022
  795SOL     OW12148   2.577   9.074   0.924
  795SOL    HW112149   2.660   9.053   0.976
  795SOL    HW212150   2.512   8.998   0.932
  796SOL     OW12151   3.940   9.186   1.000
  796SOL    HW112152   3.935   9.266   0.940
  796SOL    HW212153   3.994   9.114   0.956
  797SOL     OW12154   2.660   1.426   1.355
  797SOL    HW112155   2.675   1.414   1.453
  797SOL    HW212156   2.725   1.492   1.319
  798SOL     OW12157   3.517   0.885   0.470
  798SOL    HW112158   3.462   0.965   0.493
  798SOL    HW212159   3.597   0.913   0.417
  799SOL     OW12160   3.090   1.126   1.401
  799SOL    HW112161   3.119   1.047   1.456
  799SOL    HW212162   3.077   1.097   1.306
  800SOL     OW12163   2.803   3.468   1.054
  800SOL    HW112164   2.803   3.563   1.084
  800SOL    HW212165   2.740   3.457   0.977
  801SOL     OW12166   2.101   5.278   1.143
  801SOL    HW112167   2.053   5.197   1.177
  801SOL    HW212168   2.057   5.360   1.181
  802SOL     OW12169   3.852   2.203   1.246
  802SOL    HW112170   3.860   2.103   1.250
  802SOL    HW212171   3.887   2.243   1.331
  803SOL     OW12172   3.301   0.307   1.918
  803SOL    HW112173   3.212   0.261   1.918
  803SOL    HW212174   3.322   0.339   2.010
  804SOL     OW12175   2.761   3.079   0.420
  804SOL    HW112176   2.814   3.144   0.366
  804SOL    HW212177   2.707   3.128   0.488
  805SOL     OW12178   2.303   4.218   0.492
  805SOL    HW112179   2.377   4.203   0.427
  805SOL    HW212180   2.253   4.301   0.467
  806SOL     OW12181   2.739   0.989   1.811
  806SOL    HW112182   2.708   0.895   1.828
  806SOL    HW212183   2.726   1.011   1.715
  807SOL     OW12184   2.962   1.336   1.841
  807SOL    HW112185   2.977   1.240   1.866
  807SOL    HW212186   2.977   1.348   1.743
  808SOL     OW12187   2.897   5.259   0.447
  808SOL    HW112188   2.829   5.299   0.509
  808SOL    HW212189   2.879   5.162   0.435
  809SOL     OW12190   4.120   1.188   2.070
  809SOL    HW112191   4.063   1.210   2.148
  809SOL    HW212192   4.167   1.270   2.037
  810SOL     OW12193   3.423   4.007   0.468
  810SOL    HW112194   3.513   4.016   0.510
  810SOL    HW212195   3.433   3.978   0.373
  811SOL     OW12196   2.492   6.341   0.610
  811SOL    HW112197   2.565   6.330   0.542
  811SOL    HW212198   2.532   6.349   0.701
  812SOL     OW12199   2.957   4.911   1.860
  812SOL    HW112200   3.035   4.969   1.838
  812SOL    HW212201   2.895   4.961   1.920
  813SOL     OW12202   2.767   0.850   0.511
  813SOL    HW112203   2.691   0.885   0.457
  813SOL    HW212204   2.773   0.750   0.499
  814SOL     OW12205   2.740   7.947   2.010
  814SOL    HW112206   2.715   8.017   2.077
  814SOL    HW212207   2.659   7.923   1.956
  815SOL     OW12208   3.050   2.933   2.187
  815SOL    HW112209   2.959   2.950   2.151
  815SOL    HW212210   3.103   3.018   2.185
  816SOL     OW12211   2.248   6.691   0.789
  816SOL    HW112212   2.246   6.632   0.708
  816SOL    HW212213   2.289   6.642   0.866
  817SOL     OW12214   2.824   3.412   0.666
  817SOL    HW112215   2.916   3.384   0.692
  817SOL    HW212216   2.788   3.477   0.733
  818SOL     OW12217   1.924   7.326   1.836
  818SOL    HW112218   1.977   7.283   1.909
  818SOL    HW212219   1.835   7.355   1.872
  819SOL     OW12220   2.837   5.393   1.794
  819SOL    HW112221   2.780   5.361   1.719
  819SOL    HW212222   2.900   5.464   1.761
  820SOL     OW12223   3.321   3.215   0.553
  820SOL    HW112224   3.252   3.146   0.575
  820SOL    HW212225   3.380   3.229   0.632
  821SOL     OW12226   3.689   3.986   0.841
  821SOL    HW112227   3.613   4.018   0.897
  821SOL    HW212228   3.717   3.895   0.873
  822SOL     OW12229   3.035   3.313   1.086
  822SOL    HW112230   2.953   3.367   1.067
  822SOL    HW212231   3.013   3.215   1.079
  823SOL     OW12232   4.146   3.202   1.347
  823SOL    HW112233   4.176   3.255   1.267
  823SOL    HW212234   4.055   3.233   1.375
  824SOL     OW12235   2.527   4.655   0.594
  824SOL    HW112236   2.532   4.731   0.660
  824SOL    HW212237   2.595   4.586   0.619
  825SOL     OW12238   2.626   3.729   0.554
  825SOL    HW112239   2.660   3.817   0.520
  825SOL    HW212240   2.528   3.723   0.537
  826SOL     OW12241   3.726   9.184   1.443
  826SOL    HW112242   3.745   9.214   1.350
  826SOL    HW212243   3.734   9.084   1.449
  827SOL     OW12244   3.175   9.943   1.932
  827SOL    HW112245   3.114   9.865   1.945
  827SOL    HW212246   3.123   0.028   1.934
  828SOL     OW12247   2.555   8.346   0.649
  828SOL    HW112248   2.574   8.261   0.601
  828SOL    HW212249   2.458   8.350   0.673
  829SOL     OW12250   2.243   8.901   1.141
  829SOL    HW112251   2.270   8.936   1.231
  829SOL    HW212252   2.190   8.970   1.093
  830SOL     OW12253   3.390   2.857   0.563
  830SOL    HW112254   3.318   2.863   0.493
  830SOL    HW212255   3.479   2.877   0.521
  831SOL     OW12256   3.031   4.047   0.737
  831SOL    HW112257   3.076   3.968   0.779
  831SOL    HW212258   2.932   4.034   0.741
  832SOL     OW12259   2.992   1.067   1.886
  832SOL    HW112260   2.898   1.051   1.856
  832SOL    HW212261   3.036   0.979   1.906
  833SOL     OW12262   3.059   4.691   1.198
  833SOL    HW112263   3.105   4.751   1.263
  833SOL    HW212264   3.094   4.598   1.208
  834SOL     OW12265   2.511   9.564   2.215
  834SOL    HW112266   2.477   9.475   2.244
  834SOL    HW212267   2.454   9.599   2.141
  835SOL     OW12268   3.459   0.169   1.539
  835SOL    HW112269   3.429   0.090   1.592
  835SOL    HW212270   3.522   0.139   1.467
  836SOL     OW12271   2.954   7.422   1.253
  836SOL    HW112272   2.957   7.521   1.239
  836SOL    HW212273   3.030   7.380   1.203
  837SOL     OW12274   4.714   3.043   1.902
  837SOL    HW112275   4.765   2.966   1.940
  837SOL    HW212276   4.695   3.026   1.805
  838SOL     OW12277   3.772   1.093   0.430
  838SOL    HW112278   3.693   1.138   0.472
  838SOL    HW212279   3.835   1.162   0.395
  839SOL     OW12280   3.705   0.360   0.797
  839SOL    HW112281   3.628   0.424   0.794
  839SOL    HW212282   3.673   0.272   0.833
  840SOL     OW12283   2.718   2.431   1.116
  840SOL    HW112284   2.801   2.402   1.070
  840SOL    HW212285   2.664   2.350   1.142
  841SOL     OW12286   2.259   5.663   0.927
  841SOL    HW112287   2.233   5.752   0.889
  841SOL    HW212288   2.261   5.595   0.854
  842SOL     OW12289   2.637   2.605   0.499
  842SOL    HW112290   2.574   2.536   0.465
  842SOL    HW212291   2.603   2.696   0.476
  843SOL     OW12292   3.730   0.157   1.148
  843SOL    HW112293   3.752   0.158   1.246
  843SOL    HW212294   3.811   0.184   1.095
  844SOL     OW12295   4.083   4.808   1.154
  844SOL    HW112296   4.043   4.892   1.191
  844SOL    HW212297   4.135   4.829   1.071
  845SOL     OW12298   3.155   7.385   0.311
  845SOL    HW112299   3.229   7.415   0.250
  845SOL    HW212300   3.098   7.463   0.335
  846SOL     OW12301   3.861   8.795   0.923
  846SOL    HW112302   3.831   8.774   1.015
  846SOL    HW212303   3.783   8.797   0.861
  847SOL     OW12304   2.426   7.142   0.393
  847SOL    HW112305   2.351   7.159   0.329
  847SOL    HW212306   2.397   7.073   0.460
  848SOL     OW12307   3.774   1.788   2.045
  848SOL    HW112308   3.869   1.756   2.035
  848SOL    HW212309   3.717   1.747   1.974
  849SOL     OW12310   2.531   1.024   0.691
  849SOL    HW112311   2.520   0.926   0.705
  849SOL    HW212312   2.544   1.070   0.779
  850SOL     OW12313   3.612   8.499   0.903
  850SOL    HW112314   3.653   8.482   0.993
  850SOL    HW212315   3.517   8.468   0.904
  851SOL     OW12316   3.170   7.844   1.967
  851SOL    HW112317   3.084   7.795   1.977
  851SOL    HW212318   3.176   7.915   2.038
  852SOL     OW12319   2.949   8.027   1.852
  852SOL    HW112320   2.965   8.118   1.890
  852SOL    HW212321   2.873   7.983   1.899
  853SOL     OW12322   3.757   1.311   0.653
  853SOL    HW112323   3.717   1.255   0.725
  853SOL    HW212324   3.692   1.382   0.626
  854SOL     OW12325   3.306   0.226   0.887
  854SOL    HW112326   3.405   0.219   0.887
  854SOL    HW212327   3.279   0.317   0.855
  855SOL     OW12328   4.168   4.072   2.149
  855SOL    HW112329   4.152   4.092   2.053
  855SOL    HW212330   4.081   4.066   2.198
  856SOL     OW12331   2.717   6.472   1.130
  856SOL    HW112332   2.659   6.504   1.205
  856SOL    HW212333   2.707   6.533   1.051
  857SOL     OW12334   2.189   5.118   0.923
  857SOL    HW112335   2.198   5.035   0.979
  857SOL    HW212336   2.153   5.192   0.980
  858SOL     OW12337   4.922   2.071   0.313
  858SOL    HW112338   4.985   2.021   0.254
  858SOL    HW212339   4.942   2.169   0.308
  859SOL     OW12340   3.433   4.604   0.355
  859SOL    HW112341   3.521   4.558   0.368
  859SOL    HW212342   3.369   4.542   0.309
  860SOL     OW12343   3.257   3.366   0.933
  860SOL    HW112344   3.304   3.441   0.980
  860SOL    HW212345   3.179   3.336   0.988
  861SOL     OW12346   3.385   7.910   1.798
  861SOL    HW112347   3.294   7.885   1.832
  861SOL    HW212348   3.451   7.905   1.872
  862SOL     OW12349   2.843   8.951   0.411
  862SOL    HW112350   2.833   8.958   0.510
  862SOL    HW212351   2.938   8.926   0.389
  863SOL     OW12352   2.209   4.203   0.751
  863SOL    HW112353   2.210   4.298   0.783
  863SOL    HW212354   2.240   4.200   0.656
  864SOL     OW12355   2.939   2.232   0.556
  864SOL    HW112356   2.850   2.200   0.525
  864SOL    HW212357   2.927   2.301   0.627
  865SOL     OW12358   3.029   9.533   2.240
  865SOL    HW112359   2.940   9.575   2.254
  865SOL    HW212360   3.017   9.442   2.200
  866SOL     OW12361   4.719   3.519   0.678
  866SOL    HW112362   4.631   3.545   0.718
  866SOL    HW212363   4.736   3.575   0.597
  867SOL     OW12364   3.071   2.829   1.187
  867SOL    HW112365   3.082   2.770   1.107
  867SOL    HW212366   2.998   2.794   1.246
  868SOL     OW12367   4.713   3.692   2.308
  868SOL    HW112368   4.623   3.665   2.274
  868SOL    HW212369   4.772   3.715   2.230
  869SOL     OW12370   2.494   9.722   1.162
  869SOL    HW112371   2.487   9.816   1.128
  869SOL    HW212372   2.478   9.658   1.087
  870SOL     OW12373   2.646   9.331   0.861
  870SOL    HW112374   2.651   9.353   0.763
  870SOL    HW212375   2.613   9.238   0.873
  871SOL     OW12376   3.842   0.758   0.973
  871SOL    HW112377   3.773   0.703   1.021
  871SOL    HW212378   3.918   0.777   1.035
  872SOL     OW12379   3.663   4.975   0.268
  872SOL    HW112380   3.662   5.069   0.302
  872SOL    HW212381   3.755   4.938   0.277
  873SOL     OW12382   2.446   1.081   1.153
  873SOL    HW112383   2.515   1.020   1.194
  873SOL    HW212384   2.381   1.026   1.100
  874SOL     OW12385   3.979   2.218   1.002
  874SOL    HW112386   3.921   2.199   0.924
  874SOL    HW212387   3.924   2.215   1.086
  875SOL     OW12388   3.586   0.716   0.673
  875SOL    HW112389   3.685   0.703   0.680
  875SOL    HW212390   3.566   0.775   0.594
  876SOL     OW12391   2.343   1.111   2.268
  876SOL    HW112392   2.437   1.145   2.279
  876SOL    HW212393   2.344   1.011   2.265
  877SOL     OW12394   2.870   3.779   0.858
  877SOL    HW112395   2.827   3.855   0.809
  877SOL    HW212396   2.968   3.781   0.843
  878SOL     OW12397   3.962   3.521   0.604
  878SOL    HW112398   3.976   3.611   0.645
  878SOL    HW212399   3.894   3.471   0.656
  879SOL     OW12400   4.337   1.217   0.331
  879SOL    HW112401   4.405   1.215   0.257
  879SOL    HW212402   4.311   1.123   0.354
  880SOL     OW12403   3.476   0.503   0.792
  880SOL    HW112404   3.380   0.491   0.768
  880SOL    HW212405   3.513   0.583   0.745
  881SOL     OW12406   2.996   9.291   2.119
  881SOL    HW112407   3.080   9.293   2.064
  881SOL    HW212408   2.982   9.199   2.155
  882SOL     OW12409   4.788   1.938   2.053
  882SOL    HW112410   4.701   1.889   2.049
  882SOL    HW212411   4.854   1.885   2.105
  883SOL     OW12412   3.416   4.551   0.627
  883SOL    HW112413   3.392   4.454   0.623
  883SOL    HW212414   3.415   4.590   0.534
  884SOL     OW12415   3.215   0.633   1.142
  884SOL    HW112416   3.178   0.676   1.060
  884SOL    HW212417   3.298   0.581   1.119
  885SOL     OW12418   3.289   8.707   2.206
  885SOL    HW112419   3.297   8.609   2.187
  885SOL    HW212420   3.334   8.728   2.293
  886SOL     OW12421   3.180   9.919   1.540
  886SOL    HW112422   3.209   9.896   1.447
  886SOL    HW212423   3.260   9.929   1.599
  887SOL     OW12424   2.433   7.616   0.286
  887SOL    HW112425   2.506   7.628   0.352
  887SOL    HW212426   2.353   7.576   0.331
  888SOL     OW12427   4.630   2.136   0.642
  888SOL    HW112428   4.629   2.115   0.544
  888SOL    HW212429   4.709   2.093   0.684
  889SOL     OW12430   3.908   4.018   2.259
  889SOL    HW112431   3.861   4.098   2.296
  889SOL    HW212432   3.857   3.982   2.181
  890SOL     OW12433   3.650   9.260   1.993
  890SOL    HW112434   3.596   9.191   1.944
  890SOL    HW212435   3.677   9.224   2.082
  891SOL     OW12436   2.640   3.217   0.622
  891SOL    HW112437   2.666   3.140   0.680
  891SOL    HW212438   2.702   3.293   0.637
  892SOL     OW12439   4.211   4.861   0.914
  892SOL    HW112440   4.295   4.820   0.879
  892SOL    HW212441   4.197   4.950   0.870
  893SOL     OW12442   3.018   4.323   2.218
  893SOL    HW112443   2.921   4.343   2.233
  893SOL    HW212444   3.027   4.230   2.184
  894SOL     OW12445   1.868   5.293   1.671
  894SOL    HW112446   1.823   5.282   1.760
  894SOL    HW212447   1.948   5.233   1.667
  895SOL     OW12448   2.582   7.194   1.246
  895SOL    HW112449   2.498   7.239   1.275
  895SOL    HW212450   2.656   7.218   1.309
  896SOL     OW12451   3.272   7.699   1.010
  896SOL    HW112452   3.326   7.698   1.094
  896SOL    HW212453   3.196   7.763   1.020
  897SOL     OW12454   2.288   5.519   0.689
  897SOL    HW112455   2.337   5.605   0.673
  897SOL    HW212456   2.256   5.482   0.602
  898SOL     OW12457   2.652   9.409   0.596
  898SOL    HW112458   2.645   9.329   0.535
  898SOL    HW212459   2.594   9.483   0.560
  899SOL     OW12460   1.886   5.260   1.389
  899SOL    HW112461   1.918   5.348   1.354
  899SOL    HW212462   1.858   5.270   1.484
  900SOL     OW12463   2.876   5.853   0.821
  900SOL    HW112464   2.819   5.771   0.835
  900SOL    HW212465   2.924   5.875   0.906
  901SOL     OW12466   3.195   2.274   0.950
  901SOL    HW112467   3.226   2.191   0.905
  901SOL    HW212468   3.243   2.353   0.911
  902SOL     OW12469   2.126   5.185   1.938
  902SOL    HW112470   2.164   5.274   1.960
  902SOL    HW212471   2.026   5.188   1.947
  903SOL     OW12472   2.901   0.697   1.502
  903SOL    HW112473   2.926   0.614   1.452
  903SOL    HW212474   2.802   0.709   1.499
  904SOL     OW12475   3.215   8.257   1.993
  904SOL    HW112476   3.219   8.171   2.044
  904SOL    HW212477   3.121   8.277   1.968
  905SOL     OW12478   4.420   2.193   1.186
  905SOL    HW112479   4.487   2.192   1.112
  905SOL    HW212480   4.337   2.145   1.156
  906SOL     OW12481   2.506   4.335   0.760
  906SOL    HW112482   2.418   4.380   0.773
  906SOL    HW212483   2.552   4.375   0.681
  907SOL     OW12484   2.683   7.488   1.274
  907SOL    HW112485   2.778   7.458   1.279
  907SOL    HW212486   2.663   7.524   1.183
  908SOL     OW12487   2.718   3.110   1.346
  908SOL    HW112488   2.634   3.098   1.292
  908SOL    HW212489   2.747   3.206   1.341
  909SOL     OW12490   4.479   2.549   0.564
  909SOL    HW112491   4.489   2.483   0.639
  909SOL    HW212492   4.545   2.528   0.492
  910SOL     OW12493   3.366   2.591   1.593
  910SOL    HW112494   3.434   2.599   1.520
  910SOL    HW212495   3.300   2.519   1.569
  911SOL     OW12496   3.654   4.771   1.184
  911SOL    HW112497   3.574   4.771   1.124
  911SOL    HW212498   3.681   4.676   1.202
  912SOL     OW12499   4.495   3.462   1.053
  912SOL    HW112500   4.567   3.486   1.118
  912SOL    HW212501   4.530   3.396   0.987
  913SOL     OW12502   1.854   5.191   1.957
  913SOL    HW112503   1.844   5.244   2.041
  913SOL    HW212504   1.820   5.098   1.972
  914SOL     OW12505   2.902   8.619   1.149
  914SOL    HW112506   2.903   8.609   1.050
  914SOL    HW212507   2.979   8.676   1.178
  915SOL     OW12508   2.211   4.953   2.073
  915SOL    HW112509   2.186   5.038   2.026
  915SOL    HW212510   2.180   4.875   2.018
  916SOL     OW12511   2.182   2.507   0.500
  916SOL    HW112512   2.227   2.427   0.539
  916SOL    HW212513   2.228   2.533   0.415
  917SOL     OW12514   3.804   1.286   1.775
  917SOL    HW112515   3.716   1.281   1.824
  917SOL    HW212516   3.800   1.360   1.708
  918SOL     OW12517   3.546   9.841   1.213
  918SOL    HW112518   3.577   9.885   1.297
  918SOL    HW212519   3.619   9.841   1.146
  919SOL     OW12520   3.777   0.320   1.628
  919SOL    HW112521   3.847   0.375   1.674
  919SOL    HW212522   3.696   0.316   1.686
  920SOL     OW12523   4.145   4.092   1.865
  920SOL    HW112524   4.240   4.110   1.889
  920SOL    HW212525   4.139   4.071   1.767
  921SOL     OW12526   2.494   2.780   1.267
  921SOL    HW112527   2.512   2.747   1.175
  921SOL    HW212528   2.491   2.703   1.330
  922SOL     OW12529   3.377   9.485   1.501
  922SOL    HW112530   3.308   9.531   1.445
  922SOL    HW212531   3.467   9.523   1.481
  923SOL     OW12532   2.609   5.486   1.192
  923SOL    HW112533   2.594   5.415   1.124
  923SOL    HW212534   2.520   5.522   1.222
  924SOL     OW12535   3.005   8.408   1.297
  924SOL    HW112536   2.947   8.329   1.275
  924SOL    HW212537   2.973   8.488   1.246
  925SOL     OW12538   3.785   3.751   0.943
  925SOL    HW112539   3.824   3.765   1.034
  925SOL    HW212540   3.726   3.670   0.944
  926SOL     OW12541   3.334   0.731   1.370
  926SOL    HW112542   3.282   0.701   1.289
  926SOL    HW212543   3.405   0.664   1.390
  927SOL     OW12544   2.517   4.067   0.810
  927SOL    HW112545   2.455   4.049   0.886
  927SOL    HW212546   2.513   4.165   0.786
  928SOL     OW12547   2.464   7.016   2.003
  928SOL    HW112548   2.552   6.977   1.977
  928SOL    HW212549   2.476   7.113   2.026
  929SOL     OW12550   2.717   9.784   1.475
  929SOL    HW112551   2.627   9.742   1.467
  929SOL    HW212552   2.787   9.715   1.459
  930SOL     OW12553   3.686   3.290   1.086
  930SOL    HW112554   3.663   3.211   1.029
  930SOL    HW212555   3.632   3.287   1.171
  931SOL     OW12556   2.865   7.423   0.943
  931SOL    HW112557   2.958   7.455   0.962
  931SOL    HW212558   2.800   7.493   0.971
  932SOL     OW12559   2.687   5.685   1.359
  932SOL    HW112560   2.670   5.599   1.310
  932SOL    HW212561   2.616   5.751   1.335
  933SOL     OW12562   3.266   8.213   1.566
  933SOL    HW112563   3.288   8.117   1.546
  933SOL    HW212564   3.172   8.219   1.597
  934SOL     OW12565   3.094   7.802   2.309
  934SOL    HW112566   3.147   7.768   2.386
  934SOL    HW212567   3.029   7.732   2.279
  935SOL     OW12568   3.307   8.633   0.715
  935SOL    HW112569   3.374   8.660   0.646
  935SOL    HW212570   3.346   8.561   0.774
  936SOL     OW12571   2.365   6.124   0.499
  936SOL    HW112572   2.416   6.196   0.545
  936SOL    HW212573   2.280   6.106   0.549
  937SOL     OW12574   3.305   9.873   2.302
  937SOL    HW112575   3.393   9.900   2.264
  937SOL    HW212576   3.294   9.774   2.293
  938SOL     OW12577   3.355   3.557   1.484
  938SOL    HW112578   3.452   3.561   1.461
  938SOL    HW212579   3.305   3.513   1.410
  939SOL     OW12580   2.908   9.888   1.164
  939SOL    HW112581   2.960   9.973   1.159
  939SOL    HW212582   2.820   9.905   1.208
  940SOL     OW12583   3.694   3.159   1.899
  940SOL    HW112584   3.703   3.214   1.816
  940SOL    HW212585   3.764   3.087   1.900
  941SOL     OW12586   4.115   2.344   0.698
  941SOL    HW112587   4.170   2.293   0.632
  941SOL    HW212588   4.150   2.327   0.790
  942SOL     OW12589   2.461   2.231   0.920
  942SOL    HW112590   2.494   2.223   1.014
  942SOL    HW212591   2.431   2.325   0.903
  943SOL     OW12592   2.481   0.247   0.951
  943SOL    HW112593   2.476   0.158   0.997
  943SOL    HW212594   2.504   0.317   1.019
  944SOL     OW12595   3.587   0.882   1.091
  944SOL    HW112596   3.614   0.788   1.111
  944SOL    HW212597   3.663   0.944   1.108
  945SOL     OW12598   3.640   1.873   1.330
  945SOL    HW112599   3.611   1.945   1.393
  945SOL    HW212600   3.727   1.899   1.287
  946SOL     OW12601   2.445   9.376   1.757
  946SOL    HW112602   2.442   9.475   1.766
  946SOL    HW212603   2.468   9.335   1.846
  947SOL     OW12604   4.417   3.151   1.369
  947SOL    HW112605   4.319   3.172   1.361
  947SOL    HW212606   4.445   3.095   1.290
  948SOL     OW12607   3.175   2.495   1.813
  948SOL    HW112608   3.181   2.574   1.753
  948SOL    HW212609   3.127   2.421   1.766
  949SOL     OW12610   2.703   5.820   0.250
  949SOL    HW112611   2.780   5.757   0.257
  949SOL    HW212612   2.678   5.832   0.153
  950SOL     OW12613   3.159   3.728   1.967
  950SOL    HW112614   3.209   3.802   2.012
  950SOL    HW212615   3.127   3.663   2.036
  951SOL     OW12616   3.178   0.892   1.529
  951SOL    HW112617   3.129   0.839   1.597
  951SOL    HW212618   3.234   0.831   1.472
  952SOL     OW12619   2.735   3.510   0.430
  952SOL    HW112620   2.703   3.600   0.459
  952SOL    HW212621   2.768   3.459   0.509
  953SOL     OW12622   2.983   1.979   1.342
  953SOL    HW112623   3.050   1.932   1.286
  953SOL    HW212624   3.006   1.968   1.438
  954SOL     OW12625   3.296   9.825   0.728
  954SOL    HW112626   3.356   9.794   0.654
  954SOL    HW212627   3.338   9.802   0.816
  955SOL     OW12628   1.733   7.801   0.331
  955SOL    HW112629   1.795   7.875   0.360
  955SOL    HW212630   1.651   7.841   0.290
  956SOL     OW12631   4.153   4.050   1.593
  956SOL    HW112632   4.177   3.953   1.587
  956SOL    HW212633   4.104   4.077   1.510
  957SOL     OW12634   2.682   1.630   1.869
  957SOL    HW112635   2.632   1.550   1.836
  957SOL    HW212636   2.762   1.600   1.921
  958SOL     OW12637   1.964   5.782   1.659
  958SOL    HW112638   1.879   5.791   1.711
  958SOL    HW212639   1.969   5.692   1.618
  959SOL     OW12640   2.490   9.534   0.959
  959SOL    HW112641   2.549   9.460   0.925
  959SOL    HW212642   2.455   9.587   0.882
  960SOL     OW12643   2.829   7.020   0.467
  960SOL    HW112644   2.904   7.048   0.526
  960SOL    HW212645   2.779   7.101   0.435
  961SOL     OW12646   3.993   1.101   1.831
  961SOL    HW112647   3.929   1.174   1.808
  961SOL    HW212648   4.036   1.121   1.919
  962SOL     OW12649   3.844   3.534   1.589
  962SOL    HW112650   3.932   3.557   1.548
  962SOL    HW212651   3.827   3.593   1.668
  963SOL     OW12652   2.220   5.933   0.876
  963SOL    HW112653   2.196   5.955   0.970
  963SOL    HW212654   2.318   5.949   0.862
  964SOL     OW12655   3.493   9.237   1.579
  964SOL    HW112656   3.455   9.328   1.563
  964SOL    HW212657   3.581   9.229   1.532
  965SOL     OW12658   2.875   5.811   1.763
  965SOL    HW112659   2.795   5.809   1.703
  965SOL    HW212660   2.845   5.799   1.858
  966SOL     OW12661   3.004   7.607   0.389
  966SOL    HW112662   3.017   7.678   0.458
  966SOL    HW212663   2.928   7.548   0.415
  967SOL     OW12664   3.781   1.362   2.121
  967SOL    HW112665   3.686   1.388   2.132
  967SOL    HW212666   3.826   1.425   2.058
  968SOL     OW12667   2.311   1.565   1.079
  968SOL    HW112668   2.236   1.598   1.136
  968SOL    HW212669   2.355   1.486   1.124
  969SOL     OW12670   3.886   3.789   1.198
  969SOL    HW112671   3.820   3.791   1.273
  969SOL    HW212672   3.952   3.715   1.214
  970SOL     OW12673   2.446   8.821   0.970
  970SOL    HW112674   2.521   8.782   1.024
  970SOL    HW212675   2.371   8.846   1.030
  971SOL     OW12676   2.458   1.360   1.182
  971SOL    HW112677   2.521   1.384   1.255
  971SOL    HW212678   2.442   1.261   1.182
  972SOL     OW12679   4.045   4.006   0.638
  972SOL    HW112680   4.133   4.044   0.668
  972SOL    HW212681   3.979   4.080   0.625
  973SOL     OW12682   2.111   7.368   0.610
  973SOL    HW112683   2.074   7.276   0.600
  973SOL    HW212684   2.184   7.367   0.679
  974SOL     OW12685   2.358   2.463   1.150
  974SOL    HW112686   2.286   2.454   1.081
  974SOL    HW212687   2.428   2.526   1.118
  975SOL     OW12688   2.972   3.528   1.423
  975SOL    HW112689   3.066   3.497   1.409
  975SOL    HW212690   2.965   3.626   1.405
  976SOL     OW12691   3.292   4.303   2.147
  976SOL    HW112692   3.202   4.307   2.189
  976SOL    HW212693   3.283   4.275   2.051
  977SOL     OW12694   3.537   0.791   2.018
  977SOL    HW112695   3.600   0.713   2.018
  977SOL    HW212696   3.572   0.862   1.958
  978SOL     OW12697   3.755   0.694   1.759
  978SOL    HW112698   3.776   0.785   1.725
  978SOL    HW212699   3.661   0.669   1.734
  979SOL     OW12700   3.830   2.623   1.593
  979SOL    HW112701   3.769   2.696   1.624
  979SOL    HW212702   3.823   2.615   1.493
  980SOL     OW12703   3.470   2.841   1.017
  980SOL    HW112704   3.460   2.751   1.059
  980SOL    HW212705   3.457   2.912   1.087
  981SOL     OW12706   3.067   5.975   0.322
  981SOL    HW112707   3.024   5.956   0.410
  981SOL    HW212708   3.037   6.065   0.290
  982SOL     OW12709   3.653   8.700   2.251
  982SOL    HW112710   3.598   8.765   2.201
  982SOL    HW212711   3.741   8.741   2.276
  983SOL     OW12712   2.510   1.719   0.457
  983SOL    HW112713   2.584   1.671   0.409
  983SOL    HW212714   2.488   1.671   0.542
  984SOL     OW12715   2.893   4.538   1.575
  984SOL    HW112716   2.846   4.564   1.659
  984SOL    HW212717   2.970   4.600   1.559
  985SOL     OW12718   4.055   3.997   1.133
  985SOL    HW112719   4.000   3.917   1.157
  985SOL    HW212720   4.014   4.043   1.055
  986SOL     OW12721   3.546   9.921   2.171
  986SOL    HW112722   3.584   9.828   2.165
  986SOL    HW212723   3.511   9.948   2.081
  987SOL     OW12724   2.589   9.558   0.257
  987SOL    HW112725   2.577   9.498   0.178
  987SOL    HW212726   2.686   9.585   0.263
  988SOL     OW12727   3.782   0.965   0.795
  988SOL    HW112728   3.805   0.899   0.866
  988SOL    HW212729   3.836   0.946   0.712
  989SOL     OW12730   2.624   6.296   1.513
  989SOL    HW112731   2.594   6.344   1.595
  989SOL    HW212732   2.556   6.307   1.441
  990SOL     OW12733   2.677   1.439   2.207
  990SOL    HW112734   2.655   1.347   2.240
  990SOL    HW212735   2.659   1.505   2.280
  991SOL     OW12736   2.477   0.241   0.673
  991SOL    HW112737   2.489   0.237   0.772
  991SOL    HW212738   2.391   0.288   0.652
  992SOL     OW12739   4.200   0.896   1.344
  992SOL    HW112740   4.222   0.831   1.417
  992SOL    HW212741   4.161   0.979   1.384
  993SOL     OW12742   2.393   4.283   1.182
  993SOL    HW112743   2.367   4.212   1.116
  993SOL    HW212744   2.454   4.349   1.139
  994SOL     OW12745   2.824   2.068   0.991
  994SOL    HW112746   2.756   2.078   0.918
  994SOL    HW212747   2.779   2.032   1.073
  995SOL     OW12748   3.820   1.481   1.549
  995SOL    HW112749   3.732   1.499   1.593
  995SOL    HW212750   3.805   1.449   1.455
  996SOL     OW12751   3.009   9.727   1.944
  996SOL    HW112752   3.022   9.725   1.844
  996SOL    HW212753   2.945   9.655   1.971
  997SOL     OW12754   3.994   0.623   1.508
  997SOL    HW112755   4.088   0.658   1.512
  997SOL    HW212756   3.976   0.566   1.588
  998SOL     OW12757   3.191   9.486   1.707
  998SOL    HW112758   3.271   9.494   1.648
  998SOL    HW212759   3.139   9.571   1.706
  999SOL     OW12760   3.786   3.394   0.761
  999SOL    HW112761   3.793   3.294   0.766
  999SOL    HW212762   3.706   3.424   0.813
 1000SOL     OW12763   2.845   3.429   2.270
 1000SOL    HW112764   2.821   3.426   2.366
 1000SOL    HW212765   2.764   3.450   2.215
 1001SOL     OW12766   2.572   2.872   0.468
 1001SOL    HW112767   2.640   2.941   0.440
 1001SOL    HW212768   2.544   2.890   0.563
 1002SOL     OW12769   2.841   5.323   0.842
 1002SOL    HW112770   2.885   5.234   0.842
 1002SOL    HW212771   2.842   5.362   0.934
 1003SOL     OW12772   2.798   6.099   1.999
 1003SOL    HW112773   2.730   6.026   2.010
 1003SOL    HW212774   2.878   6.063   1.950
 1004SOL     OW12775   3.209   3.421   1.276
 1004SOL    HW112776   3.145   3.395   1.204
 1004SOL    HW212777   3.212   3.348   1.345
 1005SOL     OW12778   3.806   4.301   1.385
 1005SOL    HW112779   3.759   4.312   1.473
 1005SOL    HW212780   3.889   4.248   1.399
 1006SOL     OW12781   2.586   0.445   1.133
 1006SOL    HW112782   2.549   0.522   1.186
 1006SOL    HW212783   2.650   0.479   1.064
 1007SOL     OW12784   4.789   3.492   0.299
 1007SOL    HW112785   4.766   3.570   0.358
 1007SOL    HW212786   4.782   3.520   0.203
 1008SOL     OW12787   2.260   7.795   0.497
 1008SOL    HW112788   2.234   7.706   0.461
 1008SOL    HW212789   2.337   7.785   0.561
 1009SOL     OW12790   4.521   2.809   0.472
 1009SOL    HW112791   4.473   2.729   0.507
 1009SOL    HW212792   4.482   2.892   0.514
 1010SOL     OW12793   2.820   5.281   2.296
 1010SOL    HW112794   2.845   5.273   2.200
 1010SOL    HW212795   2.752   5.211   2.319
 1011SOL     OW12796   2.271   4.472   0.808
 1011SOL    HW112797   2.248   4.534   0.733
 1011SOL    HW212798   2.285   4.525   0.892
 1012SOL     OW12799   3.065   1.199   0.249
 1012SOL    HW112800   3.118   1.165   0.171
 1012SOL    HW212801   3.075   1.135   0.326
 1013SOL     OW12802   3.175   0.489   0.489
 1013SOL    HW112803   3.099   0.474   0.425
 1013SOL    HW212804   3.243   0.416   0.476
 1014SOL     OW12805   4.329   4.010   1.108
 1014SOL    HW112806   4.229   4.002   1.112
 1014SOL    HW212807   4.371   3.938   1.164
 1015SOL     OW12808   2.190   7.542   0.411
 1015SOL    HW112809   2.177   7.472   0.481
 1015SOL    HW212810   2.101   7.569   0.375
 1016SOL     OW12811   2.623   4.745   1.567
 1016SOL    HW112812   2.643   4.841   1.550
 1016SOL    HW212813   2.646   4.691   1.486
 1017SOL     OW12814   2.571   2.206   1.175
 1017SOL    HW112815   2.634   2.132   1.198
 1017SOL    HW212816   2.511   2.224   1.253
 1018SOL     OW12817   2.725   1.536   0.401
 1018SOL    HW112818   2.806   1.503   0.352
 1018SOL    HW212819   2.689   1.464   0.459
 1019SOL     OW12820   2.344   4.572   2.122
 1019SOL    HW112821   2.380   4.543   2.033
 1019SOL    HW212822   2.285   4.500   2.159
 1020SOL     OW12823   3.853   0.665   0.721
 1020SOL    HW112824   3.846   0.699   0.814
 1020SOL    HW212825   3.945   0.628   0.706
 1021SOL     OW12826   2.930   0.825   1.247
 1021SOL    HW112827   3.002   0.891   1.225
 1021SOL    HW212828   2.944   0.791   1.340
 1022SOL     OW12829   4.494   1.584   1.090
 1022SOL    HW112830   4.416   1.522   1.078
 1022SOL    HW212831   4.484   1.633   1.177
 1023SOL     OW12832   4.453   3.738   0.417
 1023SOL    HW112833   4.471   3.834   0.400
 1023SOL    HW212834   4.366   3.712   0.373
 1024SOL     OW12835   4.241   0.736   1.564
 1024SOL    HW112836   4.198   0.783   1.641
 1024SOL    HW212837   4.324   0.690   1.596
 1025SOL     OW12838   4.496   4.290   1.736
 1025SOL    HW112839   4.558   4.364   1.709
 1025SOL    HW212840   4.470   4.237   1.655
 1026SOL     OW12841   2.681   8.605   0.628
 1026SOL    HW112842   2.638   8.690   0.657
 1026SOL    HW212843   2.614   8.531   0.633
 1027SOL     OW12844   3.478   2.551   2.182
 1027SOL    HW112845   3.533   2.622   2.139
 1027SOL    HW212846   3.428   2.501   2.112
 1028SOL     OW12847   3.113   4.697   1.934
 1028SOL    HW112848   3.050   4.771   1.913
 1028SOL    HW212849   3.096   4.663   2.026
 1029SOL     OW12850   2.197   5.955   2.264
 1029SOL    HW112851   2.279   6.011   2.252
 1029SOL    HW212852   2.138   5.998   2.333
 1030SOL     OW12853   3.623   3.548   1.422
 1030SOL    HW112854   3.702   3.521   1.478
 1030SOL    HW212855   3.636   3.642   1.389
 1031SOL     OW12856   4.637   2.998   1.641
 1031SOL    HW112857   4.606   2.904   1.630
 1031SOL    HW212858   4.558   3.059   1.647
 1032SOL     OW12859   2.800   7.093   2.162
 1032SOL    HW112860   2.754   7.025   2.104
 1032SOL    HW212861   2.820   7.052   2.251
 1033SOL     OW12862   3.667   0.167   2.192
 1033SOL    HW112863   3.730   0.175   2.269
 1033SOL    HW212864   3.626   0.076   2.192
 1034SOL     OW12865   2.273   6.572   0.340
 1034SOL    HW112866   2.317   6.490   0.303
 1034SOL    HW212867   2.337   6.649   0.335
 1035SOL     OW12868   3.331   5.441   1.145
 1035SOL    HW112869   3.405   5.450   1.078
 1035SOL    HW212870   3.361   5.381   1.220
 1036SOL     OW12871   3.298   9.104   1.441
 1036SOL    HW112872   3.288   9.006   1.456
 1036SOL    HW212873   3.374   9.138   1.498
 1037SOL     OW12874   4.424   3.163   1.647
 1037SOL    HW112875   4.397   3.248   1.693
 1037SOL    HW212876   4.418   3.176   1.548
 1038SOL     OW12877   3.811   3.901   2.030
 1038SOL    HW112878   3.841   3.985   1.984
 1038SOL    HW212879   3.871   3.826   2.005
 1039SOL     OW12880   2.764   3.989   0.725
 1039SOL    HW112881   2.675   4.015   0.764
 1039SOL    HW212882   2.755   3.978   0.626
 1040SOL     OW12883   3.342   8.377   1.778
 1040SOL    HW112884   3.303   8.332   1.859
 1040SOL    HW212885   3.318   8.324   1.697
 1041SOL     OW12886   2.911   0.302   1.352
 1041SOL    HW112887   2.961   0.388   1.344
 1041SOL    HW212888   2.954   0.244   1.422
 1042SOL     OW12889   5.187   3.820   0.209
 1042SOL    HW112890   5.199   3.724   0.234
 1042SOL    HW212891   5.178   3.827   0.109
 1043SOL     OW12892   3.038   1.854   1.781
 1043SOL    HW112893   2.972   1.921   1.748
 1043SOL    HW212894   3.073   1.884   1.870
 1044SOL     OW12895   3.459   9.870   0.252
 1044SOL    HW112896   3.395   9.809   0.206
 1044SOL    HW212897   3.548   9.866   0.206
 1045SOL     OW12898   2.372   3.462   2.193
 1045SOL    HW112899   2.429   3.437   2.115
 1045SOL    HW212900   2.317   3.384   2.220
 1046SOL     OW12901   3.672   4.130   1.786
 1046SOL    HW112902   3.672   4.043   1.737
 1046SOL    HW212903   3.752   4.135   1.846
 1047SOL     OW12904   2.639   3.685   2.051
 1047SOL    HW112905   2.724   3.708   2.098
 1047SOL    HW212906   2.561   3.707   2.110
 1048SOL     OW12907   3.457   9.768   0.516
 1048SOL    HW112908   3.522   9.692   0.513
 1048SOL    HW212909   3.458   9.817   0.429
 1049SOL     OW12910   2.380   2.331   1.388
 1049SOL    HW112911   2.362   2.377   1.301
 1049SOL    HW212912   2.354   2.235   1.381
 1050SOL     OW12913   2.967   6.613   0.507
 1050SOL    HW112914   2.899   6.671   0.463
 1050SOL    HW212915   3.058   6.650   0.492
 1051SOL     OW12916   3.533   2.444   0.512
 1051SOL    HW112917   3.614   2.504   0.509
 1051SOL    HW212918   3.459   2.491   0.559
 1052SOL     OW12919   2.822   9.032   1.840
 1052SOL    HW112920   2.787   8.938   1.832
 1052SOL    HW212921   2.919   9.033   1.817
 1053SOL     OW12922   2.239   5.437   0.432
 1053SOL    HW112923   2.326   5.440   0.384
 1053SOL    HW212924   2.170   5.394   0.374
 1054SOL     OW12925   2.338   2.443   2.034
 1054SOL    HW112926   2.370   2.429   2.128
 1054SOL    HW212927   2.417   2.450   1.973
 1055SOL     OW12928   3.745   8.776   1.660
 1055SOL    HW112929   3.729   8.771   1.758
 1055SOL    HW212930   3.680   8.718   1.612
 1056SOL     OW12931   2.269   1.611   2.177
 1056SOL    HW112932   2.193   1.553   2.207
 1056SOL    HW212933   2.334   1.556   2.125
 1057SOL     OW12934   3.247   7.707   0.265
 1057SOL    HW112935   3.265   7.779   0.199
 1057SOL    HW212936   3.149   7.692   0.274
 1058SOL     OW12937   3.241   7.256   0.536
 1058SOL    HW112938   3.340   7.268   0.529
 1058SOL    HW212939   3.197   7.290   0.452
 1059SOL     OW12940   2.221   6.914   1.935
 1059SOL    HW112941   2.308   6.960   1.953
 1059SOL    HW212942   2.224   6.821   1.971
 1060SOL     OW12943   2.319   0.916   0.976
 1060SOL    HW112944   2.264   0.930   0.894
 1060SOL    HW212945   2.372   0.832   0.967
 1061SOL     OW12946   3.534   4.176   2.200
 1061SOL    HW112947   3.529   4.089   2.150
 1061SOL    HW212948   3.448   4.226   2.188
 1062SOL     OW12949   2.816   1.473   0.785
 1062SOL    HW112950   2.866   1.560   0.787
 1062SOL    HW212951   2.758   1.466   0.866
 1063SOL     OW12952   4.403   0.680   0.609
 1063SOL    HW112953   4.363   0.767   0.637
 1063SOL    HW212954   4.437   0.631   0.689
 1064SOL     OW12955   3.083   9.027   1.758
 1064SOL    HW112956   3.093   9.114   1.710
 1064SOL    HW212957   3.170   8.978   1.757
 1065SOL     OW12958   3.867   2.812   0.916
 1065SOL    HW112959   3.940   2.752   0.885
 1065SOL    HW212960   3.906   2.899   0.948
 1066SOL     OW12961   2.002   7.876   0.450
 1066SOL    HW112962   1.973   7.785   0.421
 1066SOL    HW212963   2.102   7.878   0.459
 1067SOL     OW12964   2.774   2.275   1.587
 1067SOL    HW112965   2.816   2.356   1.630
 1067SOL    HW212966   2.807   2.266   1.493
 1068SOL     OW12967   3.131   2.697   0.954
 1068SOL    HW112968   3.190   2.618   0.942
 1068SOL    HW212969   3.166   2.774   0.900
 1069SOL     OW12970   2.873   0.799   0.982
 1069SOL    HW112971   2.896   0.806   1.079
 1069SOL    HW212972   2.957   0.804   0.927
 1070SOL     OW12973   3.178   9.159   1.208
 1070SOL    HW112974   3.225   9.145   1.295
 1070SOL    HW212975   3.097   9.101   1.204
 1071SOL     OW12976   3.428   0.833   0.868
 1071SOL    HW112977   3.487   0.793   0.798
 1071SOL    HW212978   3.482   0.851   0.951
 1072SOL     OW12979   3.813   8.877   0.345
 1072SOL    HW112980   3.741   8.820   0.383
 1072SOL    HW212981   3.902   8.833   0.358
 1073SOL     OW12982   2.955   5.879   0.555
 1073SOL    HW112983   2.953   5.888   0.654
 1073SOL    HW212984   2.915   5.791   0.528
 1074SOL     OW12985   3.929   1.328   0.439
 1074SOL    HW112986   3.876   1.323   0.524
 1074SOL    HW212987   4.027   1.333   0.460
 1075SOL     OW12988   3.760   3.319   0.294
 1075SOL    HW112989   3.744   3.303   0.197
 1075SOL    HW212990   3.675   3.346   0.338
 1076SOL     OW12991   3.267   0.111   1.139
 1076SOL    HW112992   3.169   0.124   1.156
 1076SOL    HW212993   3.287   0.136   1.044
 1077SOL     OW12994   2.909   9.430   0.503
 1077SOL    HW112995   2.816   9.442   0.536
 1077SOL    HW212996   2.948   9.347   0.543
 1078SOL     OW12997   3.416   9.128   2.134
 1078SOL    HW112998   3.328   9.104   2.094
 1078SOL    HW212999   3.421   9.227   2.149
 1079SOL     OW13000   2.359   3.719   0.497
 1079SOL    HW113001   2.371   3.818   0.510
 1079SOL    HW213002   2.273   3.690   0.538
 1080SOL     OW13003   2.457   3.488   0.369
 1080SOL    HW113004   2.557   3.494   0.373
 1080SOL    HW213005   2.417   3.572   0.403
 1081SOL     OW13006   3.181   2.852   0.381
 1081SOL    HW113007   3.181   2.881   0.285
 1081SOL    HW213008   3.097   2.882   0.426
 1082SOL     OW13009   2.659   8.260   1.008
 1082SOL    HW113010   2.585   8.318   1.044
 1082SOL    HW213011   2.702   8.306   0.930
 1083SOL     OW13012   2.886   1.269   1.071
 1083SOL    HW113013   2.895   1.200   0.999
 1083SOL    HW213014   2.945   1.347   1.051
 1084SOL     OW13015   2.953   2.908   0.515
 1084SOL    HW113016   2.915   2.824   0.554
 1084SOL    HW213017   2.878   2.965   0.481
 1085SOL     OW13018   3.479   5.118   0.565
 1085SOL    HW113019   3.481   5.018   0.565
 1085SOL    HW213020   3.428   5.150   0.644
 1086SOL     OW13021   2.218   6.122   1.828
 1086SOL    HW113022   2.136   6.131   1.886
 1086SOL    HW213023   2.221   6.031   1.789
 1087SOL     OW13024   3.094   2.208   1.698
 1087SOL    HW113025   3.014   2.147   1.699
 1087SOL    HW213026   3.176   2.153   1.713
 1088SOL     OW13027   2.643   2.736   2.091
 1088SOL    HW113028   2.552   2.743   2.052
 1088SOL    HW213029   2.639   2.679   2.174
 1089SOL     OW13030   3.431   4.799   1.020
 1089SOL    HW113031   3.439   4.710   0.975
 1089SOL    HW213032   3.336   4.830   1.017
 1090SOL     OW13033   4.405   2.439   1.299
 1090SOL    HW113034   4.318   2.445   1.348
 1090SOL    HW213035   4.415   2.347   1.262
 1091SOL     OW13036   3.968   2.296   1.477
 1091SOL    HW113037   3.927   2.327   1.563
 1091SOL    HW213038   4.026   2.217   1.495
 1092SOL     OW13039   2.209   8.260   0.474
 1092SOL    HW113040   2.132   8.197   0.487
 1092SOL    HW213041   2.238   8.296   0.563
 1093SOL     OW13042   3.445   8.259   0.434
 1093SOL    HW113043   3.505   8.339   0.432
 1093SOL    HW213044   3.356   8.285   0.471
 1094SOL     OW13045   3.252   4.436   1.545
 1094SOL    HW113046   3.260   4.492   1.628
 1094SOL    HW213047   3.166   4.384   1.550
 1095SOL     OW13048   4.576   2.571   1.795
 1095SOL    HW113049   4.672   2.584   1.818
 1095SOL    HW213050   4.543   2.485   1.834
 1096SOL     OW13051   3.811   0.951   1.680
 1096SOL    HW113052   3.820   0.972   1.583
 1096SOL    HW213053   3.882   1.000   1.731
 1097SOL     OW13054   2.301   9.006   1.386
 1097SOL    HW113055   2.270   9.101   1.376
 1097SOL    HW213056   2.392   9.005   1.427
 1098SOL     OW13057   2.720   1.306   1.602
 1098SOL    HW113058   2.820   1.318   1.599
 1098SOL    HW213059   2.699   1.208   1.592
 1099SOL     OW13060   2.146   6.092   0.669
 1099SOL    HW113061   2.168   6.029   0.743
 1099SOL    HW213062   2.048   6.085   0.648
 1100SOL     OW13063   2.325   6.267   1.617
 1100SOL    HW113064   2.270   6.217   1.684
 1100SOL    HW213065   2.388   6.328   1.665
 1101SOL     OW13066   4.071   3.591   1.225
 1101SOL    HW113067   4.145   3.592   1.157
 1101SOL    HW213068   4.021   3.504   1.218
 1102SOL     OW13069   2.464   5.474   2.075
 1102SOL    HW113070   2.520   5.524   2.141
 1102SOL    HW213071   2.505   5.385   2.058
 1103SOL     OW13072   2.698   2.108   0.496
 1103SOL    HW113073   2.604   2.075   0.488
 1103SOL    HW213074   2.760   2.041   0.455
 1104SOL     OW13075   2.451   7.982   0.749
 1104SOL    HW113076   2.485   8.045   0.679
 1104SOL    HW213077   2.461   7.888   0.716
 1105SOL     OW13078   2.905   3.302   0.333
 1105SOL    HW113079   2.994   3.330   0.369
 1105SOL    HW213080   2.840   3.377   0.342
 1106SOL     OW13081   2.291   7.537   1.774
 1106SOL    HW113082   2.273   7.502   1.866
 1106SOL    HW213083   2.355   7.475   1.728
 1107SOL     OW13084   3.274   1.387   1.021
 1107SOL    HW113085   3.286   1.298   0.977
 1107SOL    HW213086   3.261   1.374   1.120
 1108SOL     OW13087   2.790   4.495   0.374
 1108SOL    HW113088   2.726   4.568   0.349
 1108SOL    HW213089   2.884   4.524   0.355
 1109SOL     OW13090   2.672   3.602   0.809
 1109SOL    HW113091   2.744   3.666   0.835
 1109SOL    HW213092   2.633   3.629   0.720
 1110SOL     OW13093   3.653   4.349   0.686
 1110SOL    HW113094   3.577   4.303   0.732
 1110SOL    HW213095   3.665   4.440   0.726
 1111SOL     OW13096   2.295   8.741   1.468
 1111SOL    HW113097   2.231   8.698   1.404
 1111SOL    HW213098   2.290   8.840   1.457
 1112SOL     OW13099   2.514   9.358   1.181
 1112SOL    HW113100   2.493   9.420   1.105
 1112SOL    HW213101   2.565   9.407   1.251
 1113SOL     OW13102   3.330   8.435   2.174
 1113SOL    HW113103   3.425   8.408   2.182
 1113SOL    HW213104   3.287   8.385   2.098
 1114SOL     OW13105   3.836   2.147   0.496
 1114SOL    HW113106   3.850   2.227   0.437
 1114SOL    HW213107   3.739   2.124   0.497
 1115SOL     OW13108   3.149   1.744   1.557
 1115SOL    HW113109   3.105   1.769   1.644
 1115SOL    HW213110   3.201   1.821   1.523
 1116SOL     OW13111   3.015   1.298   0.714
 1116SOL    HW113112   2.972   1.226   0.659
 1116SOL    HW213113   2.946   1.366   0.740
 1117SOL     OW13114   3.303   4.256   0.490
 1117SOL    HW113115   3.264   4.265   0.582
 1117SOL    HW213116   3.358   4.173   0.485
 1118SOL     OW13117   3.099   4.710   1.562
 1118SOL    HW113118   3.170   4.693   1.632
 1118SOL    HW213119   3.136   4.771   1.492
 1119SOL     OW13120   2.331   0.829   2.229
 1119SOL    HW113121   2.329   0.859   2.133
 1119SOL    HW213122   2.240   0.798   2.257
 1120SOL     OW13123   2.356   6.711   1.187
 1120SOL    HW113124   2.404   6.796   1.165
 1120SOL    HW213125   2.268   6.733   1.230
 1121SOL     OW13126   2.415   3.735   2.192
 1121SOL    HW113127   2.384   3.643   2.216
 1121SOL    HW213128   2.399   3.796   2.270
 1122SOL     OW13129   3.965   3.054   1.026
 1122SOL    HW113130   4.054   3.086   0.995
 1122SOL    HW213131   3.894   3.116   0.992
 1123SOL     OW13132   3.822   9.047   1.711
 1123SOL    HW113133   3.818   8.948   1.696
 1123SOL    HW213134   3.827   9.094   1.622
 1124SOL     OW13135   3.433   3.028   1.217
 1124SOL    HW113136   3.461   3.124   1.225
 1124SOL    HW213137   3.349   3.014   1.269
 1125SOL     OW13138   3.364   2.262   1.351
 1125SOL    HW113139   3.346   2.329   1.280
 1125SOL    HW213140   3.451   2.285   1.396
 1126SOL     OW13141   4.301   2.458   0.375
 1126SOL    HW113142   4.356   2.501   0.446
 1126SOL    HW213143   4.272   2.367   0.404
 1127SOL     OW13144   2.264   4.111   2.166
 1127SOL    HW113145   2.353   4.129   2.124
 1127SOL    HW213146   2.277   4.052   2.246
 1128SOL     OW13147   3.298   0.141   0.246
 1128SOL    HW113148   3.369   0.071   0.259
 1128SOL    HW213149   3.315   0.190   0.161
 1129SOL     OW13150   3.974   2.512   2.277
 1129SOL    HW113151   3.935   2.585   2.220
 1129SOL    HW213152   4.064   2.541   2.310
 1130SOL     OW13153   2.922   8.844   0.883
 1130SOL    HW113154   3.021   8.854   0.878
 1130SOL    HW213155   2.897   8.748   0.876
 1131SOL     OW13156   3.926   2.855   1.224
 1131SOL    HW113157   3.939   2.921   1.150
 1131SOL    HW213158   3.899   2.902   1.307
 1132SOL     OW13159   3.631   1.181   0.859
 1132SOL    HW113160   3.690   1.101   0.847
 1132SOL    HW213161   3.535   1.154   0.848
 1133SOL     OW13162   2.586   9.953   2.092
 1133SOL    HW113163   2.589   9.853   2.084
 1133SOL    HW213164   2.673   9.985   2.130
 1134SOL     OW13165   1.933   7.240   1.364
 1134SOL    HW113166   1.919   7.142   1.382
 1134SOL    HW213167   1.967   7.284   1.447
 1135SOL     OW13168   3.007   0.791   0.677
 1135SOL    HW113169   2.918   0.811   0.635
 1135SOL    HW213170   3.076   0.780   0.605
 1136SOL     OW13171   3.986   3.264   2.158
 1136SOL    HW113172   3.988   3.196   2.085
 1136SOL    HW213173   4.056   3.242   2.226
 1137SOL     OW13174   2.895   9.046   2.197
 1137SOL    HW113175   2.797   9.031   2.200
 1137SOL    HW213176   2.942   8.959   2.180
 1138SOL     OW13177   2.219   2.545   1.801
 1138SOL    HW113178   2.241   2.498   1.887
 1138SOL    HW213179   2.186   2.479   1.734
 1139SOL     OW13180   2.037   7.355   1.591
 1139SOL    HW113181   1.991   7.345   1.680
 1139SOL    HW213182   2.060   7.451   1.576
 1140SOL     OW13183   3.255   1.826   0.441
 1140SOL    HW113184   3.266   1.848   0.344
 1140SOL    HW213185   3.220   1.906   0.489
 1141SOL     OW13186   2.895   5.281   2.030
 1141SOL    HW113187   2.995   5.268   2.035
 1141SOL    HW213188   2.872   5.331   1.947
 1142SOL     OW13189   3.333   9.370   0.447
 1142SOL    HW113190   3.263   9.436   0.419
 1142SOL    HW213191   3.391   9.410   0.517
 1143SOL     OW13192   2.480   1.751   1.211
 1143SOL    HW113193   2.424   1.677   1.172
 1143SOL    HW213194   2.489   1.824   1.143
 1144SOL     OW13195   3.255   3.275   1.860
 1144SOL    HW113196   3.249   3.314   1.952
 1144SOL    HW213197   3.327   3.322   1.809
 1145SOL     OW13198   3.209   0.470   0.767
 1145SOL    HW113199   3.179   0.474   0.672
 1145SOL    HW213200   3.180   0.552   0.815
 1146SOL     OW13201   3.729   4.510   1.225
 1146SOL    HW113202   3.818   4.531   1.185
 1146SOL    HW213203   3.739   4.440   1.296
 1147SOL     OW13204   2.727   1.983   1.234
 1147SOL    HW113205   2.662   1.954   1.305
 1147SOL    HW213206   2.820   1.981   1.271
 1148SOL     OW13207   4.118   2.649   1.209
 1148SOL    HW113208   4.042   2.714   1.200
 1148SOL    HW213209   4.203   2.698   1.225
 1149SOL     OW13210   2.550   8.988   1.493
 1149SOL    HW113211   2.608   8.908   1.509
 1149SOL    HW213212   2.588   9.042   1.418
 1150SOL     OW13213   3.624   8.479   0.439
 1150SOL    HW113214   3.687   8.457   0.365
 1150SOL    HW213215   3.668   8.461   0.527
 1151SOL     OW13216   2.849   1.595   1.225
 1151SOL    HW113217   2.905   1.561   1.149
 1151SOL    HW213218   2.788   1.667   1.192
 1152SOL     OW13219   2.876   1.077   0.621
 1152SOL    HW113220   2.854   1.073   0.719
 1152SOL    HW213221   2.828   1.003   0.573
 1153SOL     OW13222   3.544   2.585   1.387
 1153SOL    HW113223   3.478   2.623   1.322
 1153SOL    HW213224   3.637   2.607   1.357
 1154SOL     OW13225   3.629   2.286   1.111
 1154SOL    HW113226   3.592   2.200   1.077
 1154SOL    HW213227   3.707   2.269   1.170
 1155SOL     OW13228   2.508   2.276   1.641
 1155SOL    HW113229   2.606   2.271   1.618
 1155SOL    HW213230   2.455   2.285   1.557
 1156SOL     OW13231   2.261   7.199   1.579
 1156SOL    HW113232   2.178   7.255   1.585
 1156SOL    HW213233   2.242   7.108   1.615
 1157SOL     OW13234   3.193   2.387   1.524
 1157SOL    HW113235   3.148   2.323   1.587
 1157SOL    HW213236   3.251   2.336   1.460
 1158SOL     OW13237   2.623   0.321   1.784
 1158SOL    HW113238   2.580   0.283   1.866
 1158SOL    HW213239   2.569   0.297   1.704
 1159SOL     OW13240   3.865   9.767   2.007
 1159SOL    HW113241   3.866   9.867   2.002
 1159SOL    HW213242   3.782   9.737   2.054
 1160SOL     OW13243   3.899   4.544   0.876
 1160SOL    HW113244   3.801   4.554   0.857
 1160SOL    HW213245   3.950   4.613   0.827
 1161SOL     OW13246   3.806   2.623   1.315
 1161SOL    HW113247   3.832   2.545   1.258
 1161SOL    HW213248   3.840   2.708   1.275
 1162SOL     OW13249   3.360   0.930   2.168
 1162SOL    HW113250   3.413   0.978   2.239
 1162SOL    HW213251   3.423   0.879   2.109
 1163SOL     OW13252   2.370   1.756   0.875
 1163SOL    HW113253   2.337   1.697   0.949
 1163SOL    HW213254   2.413   1.700   0.805
 1164SOL     OW13255   2.516   4.145   0.338
 1164SOL    HW113256   2.609   4.177   0.324
 1164SOL    HW213257   2.518   4.051   0.371
 1165SOL     OW13258   4.756   3.401   1.172
 1165SOL    HW113259   4.703   3.377   1.253
 1165SOL    HW213260   4.849   3.426   1.199
 1166SOL     OW13261   4.828   4.120   0.391
 1166SOL    HW113262   4.918   4.095   0.356
 1166SOL    HW213263   4.786   4.188   0.331
 1167SOL     OW13264   3.612   8.760   0.800
 1167SOL    HW113265   3.578   8.754   0.707
 1167SOL    HW213266   3.614   8.669   0.841
 1168SOL     OW13267   3.290   9.610   2.231
 1168SOL    HW113268   3.195   9.581   2.238
 1168SOL    HW213269   3.341   9.543   2.177
 1169SOL     OW13270   3.354   7.981   0.743
 1169SOL    HW113271   3.342   7.886   0.716
 1169SOL    HW213272   3.434   8.019   0.698
 1170SOL     OW13273   3.361   1.569   1.550
 1170SOL    HW113274   3.286   1.635   1.561
 1170SOL    HW213275   3.327   1.477   1.567
 1171SOL     OW13276   2.786   3.300   1.940
 1171SOL    HW113277   2.865   3.279   1.999
 1171SOL    HW213278   2.754   3.215   1.898
 1172SOL     OW13279   3.253   7.709   0.731
 1172SOL    HW113280   3.236   7.612   0.716
 1172SOL    HW213281   3.270   7.725   0.828
 1173SOL     OW13282   2.707   7.840   1.126
 1173SOL    HW113283   2.700   7.898   1.045
 1173SOL    HW213284   2.693   7.895   1.208
 1174SOL     OW13285   3.000   0.144   1.147
 1174SOL    HW113286   2.958   0.202   1.216
 1174SOL    HW213287   2.964   0.168   1.057
 1175SOL     OW13288   3.375   1.091   0.801
 1175SOL    HW113289   3.391   0.995   0.825
 1175SOL    HW213290   3.371   1.099   0.701
 1176SOL     OW13291   2.510   3.455   1.216
 1176SOL    HW113292   2.433   3.456   1.280
 1176SOL    HW213293   2.589   3.414   1.261
 1177SOL     OW13294   3.496   8.868   2.098
 1177SOL    HW113295   3.480   8.966   2.107
 1177SOL    HW213296   3.411   8.818   2.113
 1178SOL     OW13297   3.396   4.939   1.861
 1178SOL    HW113298   3.492   4.953   1.836
 1178SOL    HW213299   3.390   4.915   1.957
 1179SOL     OW13300   2.864   6.831   1.165
 1179SOL    HW113301   2.797   6.859   1.096
 1179SOL    HW213302   2.916   6.753   1.132
 1180SOL     OW13303   4.056   2.009   0.576
 1180SOL    HW113304   4.024   1.970   0.663
 1180SOL    HW213305   3.981   2.061   0.534
 1181SOL     OW13306   2.536   3.281   1.680
 1181SOL    HW113307   2.582   3.356   1.632
 1181SOL    HW213308   2.473   3.318   1.748
 1182SOL     OW13309   2.175   5.719   2.114
 1182SOL    HW113310   2.256   5.731   2.058
 1182SOL    HW213311   2.166   5.796   2.177
 1183SOL     OW13312   2.355   3.825   1.943
 1183SOL    HW113313   2.371   3.799   2.038
 1183SOL    HW213314   2.443   3.846   1.899
 1184SOL     OW13315   3.167   1.123   2.105
 1184SOL    HW113316   3.232   1.048   2.113
 1184SOL    HW213317   3.115   1.115   2.020
 1185SOL     OW13318   3.676   9.924   0.773
 1185SOL    HW113319   3.655   9.828   0.751
 1185SOL    HW213320   3.722   9.967   0.696
 1186SOL     OW13321   4.200   3.391   0.681
 1186SOL    HW113322   4.113   3.408   0.636
 1186SOL    HW213323   4.228   3.472   0.733
 1187SOL     OW13324   2.402   3.218   1.435
 1187SOL    HW113325   2.353   3.305   1.423
 1187SOL    HW213326   2.445   3.216   1.524
 1188SOL     OW13327   4.163   2.818   2.106
 1188SOL    HW113328   4.159   2.901   2.050
 1188SOL    HW213329   4.108   2.746   2.063
 1189SOL     OW13330   2.417   3.234   0.463
 1189SOL    HW113331   2.494   3.227   0.526
 1189SOL    HW213332   2.420   3.323   0.417
 1190SOL     OW13333   3.495   3.156   2.233
 1190SOL    HW113334   3.536   3.067   2.253
 1190SOL    HW213335   3.566   3.219   2.203
 1191SOL     OW13336   2.414   4.496   1.875
 1191SOL    HW113337   2.404   4.565   1.803
 1191SOL    HW213338   2.425   4.406   1.833
 1192SOL     OW13339   3.750   9.890   1.033
 1192SOL    HW113340   3.728   9.906   0.936
 1192SOL    HW213341   3.770   9.977   1.078
 1193SOL     OW13342   3.618   9.217   0.688
 1193SOL    HW113343   3.696   9.259   0.643
 1193SOL    HW213344   3.644   9.185   0.779
 1194SOL     OW13345   3.337   9.165   0.725
 1194SOL    HW113346   3.286   9.124   0.649
 1194SOL    HW213347   3.435   9.154   0.709
 1195SOL     OW13348   3.573   0.145   0.909
 1195SOL    HW113349   3.592   0.063   0.856
 1195SOL    HW213350   3.618   0.138   0.998
 1196SOL     OW13351   3.068   4.602   2.188
 1196SOL    HW113352   3.061   4.503   2.204
 1196SOL    HW213353   2.977   4.643   2.197
 1197SOL     OW13354   3.053   0.190   1.932
 1197SOL    HW113355   3.007   0.218   2.016
 1197SOL    HW213356   2.988   0.191   1.856
 1198SOL     OW13357   3.505   4.538   1.915
 1198SOL    HW113358   3.455   4.557   2.000
 1198SOL    HW213359   3.595   4.580   1.919
 1199SOL     OW13360   2.690   5.303   1.585
 1199SOL    HW113361   2.731   5.268   1.501
 1199SOL    HW213362   2.590   5.307   1.574
 1200SOL     OW13363   2.207   5.459   1.995
 1200SOL    HW113364   2.161   5.539   2.036
 1200SOL    HW213365   2.300   5.452   2.031
 1201SOL     OW13366   3.263   8.831   1.488
 1201SOL    HW113367   3.298   8.739   1.473
 1201SOL    HW213368   3.278   8.858   1.583
 1202SOL     OW13369   2.616   2.225   2.088
 1202SOL    HW113370   2.554   2.248   2.162
 1202SOL    HW213371   2.564   2.190   2.010
 1203SOL     OW13372   1.913   7.545   0.674
 1203SOL    HW113373   1.987   7.481   0.653
 1203SOL    HW213374   1.860   7.510   0.752
 1204SOL     OW13375   2.369   6.161   1.142
 1204SOL    HW113376   2.460   6.165   1.099
 1204SOL    HW213377   2.368   6.221   1.221
 1205SOL     OW13378   4.065   2.643   0.829
 1205SOL    HW113379   4.092   2.564   0.884
 1205SOL    HW213380   4.030   2.612   0.741
 1206SOL     OW13381   2.412   5.726   1.975
 1206SOL    HW113382   2.433   5.634   2.009
 1206SOL    HW213383   2.411   5.725   1.875
 1207SOL     OW13384   2.784   4.220   0.342
 1207SOL    HW113385   2.775   4.319   0.352
 1207SOL    HW213386   2.875   4.198   0.306
 1208SOL     OW13387   4.094   1.122   1.471
 1208SOL    HW113388   4.084   1.198   1.535
 1208SOL    HW213389   4.003   1.084   1.451
 1209SOL     OW13390   4.864   2.360   1.871
 1209SOL    HW113391   4.804   2.307   1.931
 1209SOL    HW213392   4.939   2.301   1.839
 1210SOL     OW13393   3.133   1.144   0.910
 1210SOL    HW113394   3.220   1.116   0.871
 1210SOL    HW213395   3.080   1.195   0.842
 1211SOL     OW13396   2.666   7.276   1.805
 1211SOL    HW113397   2.731   7.205   1.831
 1211SOL    HW213398   2.704   7.366   1.828
 1212SOL     OW13399   3.120   3.062   0.666
 1212SOL    HW113400   3.168   3.003   0.731
 1212SOL    HW213401   3.053   3.009   0.616
 1213SOL     OW13402   4.222   3.248   2.294
 1213SOL    HW113403   4.247   3.335   2.336
 1213SOL    HW213404   4.267   3.240   2.205
 1214SOL     OW13405   3.667   4.031   0.574
 1214SOL    HW113406   3.674   4.010   0.672
 1214SOL    HW213407   3.745   4.086   0.545
 1215SOL     OW13408   3.188   4.448   1.259
 1215SOL    HW113409   3.278   4.459   1.218
 1215SOL    HW213410   3.197   4.443   1.359
 1216SOL     OW13411   3.654   4.468   0.436
 1216SOL    HW113412   3.712   4.412   0.377
 1216SOL    HW213413   3.642   4.423   0.524
 1217SOL     OW13414   3.439   0.501   1.063
 1217SOL    HW113415   3.453   0.489   0.964
 1217SOL    HW213416   3.448   0.413   1.108
 1218SOL     OW13417   3.715   1.455   0.319
 1218SOL    HW113418   3.802   1.416   0.348
 1218SOL    HW213419   3.721   1.555   0.318
 1219SOL     OW13420   3.339   2.595   0.627
 1219SOL    HW113421   3.251   2.583   0.580
 1219SOL    HW213422   3.371   2.688   0.613
 1220SOL     OW13423   3.046   0.162   1.541
 1220SOL    HW113424   2.984   0.172   1.618
 1220SOL    HW213425   3.085   0.069   1.542
 1221SOL     OW13426   2.930   2.319   0.981
 1221SOL    HW113427   2.887   2.229   0.986
 1221SOL    HW213428   3.029   2.308   0.972
 1222SOL     OW13429   2.931   6.608   0.784
 1222SOL    HW113430   2.947   6.597   0.686
 1222SOL    HW213431   2.832   6.608   0.802
 1223SOL     OW13432   2.467   2.920   1.745
 1223SOL    HW113433   2.500   2.923   1.651
 1223SOL    HW213434   2.528   2.973   1.804
 1224SOL     OW13435   3.789   4.710   0.484
 1224SOL    HW113436   3.772   4.745   0.576
 1224SOL    HW213437   3.733   4.628   0.469
 1225SOL     OW13438   2.210   0.947   0.723
 1225SOL    HW113439   2.218   1.044   0.704
 1225SOL    HW213440   2.227   0.895   0.639
 1226SOL     OW13441   3.482   0.278   1.216
 1226SOL    HW113442   3.565   0.227   1.194
 1226SOL    HW213443   3.403   0.217   1.207
 1227SOL     OW13444   3.485   0.592   2.238
 1227SOL    HW113445   3.577   0.608   2.274
 1227SOL    HW213446   3.465   0.659   2.166
 1228SOL     OW13447   3.904   2.930   2.179
 1228SOL    HW113448   3.884   2.936   2.081
 1228SOL    HW213449   3.998   2.897   2.191
 1229SOL     OW13450   2.683   5.322   0.615
 1229SOL    HW113451   2.641   5.412   0.603
 1229SOL    HW213452   2.725   5.316   0.706
 1230SOL     OW13453   1.985   7.416   1.160
 1230SOL    HW113454   1.964   7.510   1.188
 1230SOL    HW213455   1.960   7.353   1.233
 1231SOL     OW13456   3.743   9.488   1.215
 1231SOL    HW113457   3.647   9.480   1.187
 1231SOL    HW213458   3.786   9.398   1.211
 1232SOL     OW13459   2.417   8.407   1.697
 1232SOL    HW113460   2.416   8.445   1.790
 1232SOL    HW213461   2.448   8.476   1.633
 1233SOL     OW13462   2.488   5.433   0.311
 1233SOL    HW113463   2.524   5.457   0.221
 1233SOL    HW213464   2.522   5.343   0.338
 1234SOL     OW13465   3.326   8.642   1.105
 1234SOL    HW113466   3.368   8.726   1.068
 1234SOL    HW213467   3.331   8.570   1.037
 1235SOL     OW13468   1.917   7.671   1.245
 1235SOL    HW113469   1.955   7.764   1.240
 1235SOL    HW213470   1.823   7.676   1.277
 1236SOL     OW13471   2.511   7.917   1.872
 1236SOL    HW113472   2.488   7.846   1.804
 1236SOL    HW213473   2.500   8.007   1.831
 1237SOL     OW13474   3.361   0.963   1.221
 1237SOL    HW113475   3.355   0.892   1.291
 1237SOL    HW213476   3.444   0.949   1.166
 1238SOL     OW13477   3.094   6.931   0.850
 1238SOL    HW113478   3.094   6.832   0.866
 1238SOL    HW213479   3.070   6.978   0.935
 1239SOL     OW13480   4.202   2.857   0.926
 1239SOL    HW113481   4.161   2.771   0.894
 1239SOL    HW213482   4.272   2.837   0.994
 1240SOL     OW13483   2.456   1.460   2.044
 1240SOL    HW113484   2.484   1.450   1.948
 1240SOL    HW213485   2.537   1.457   2.103
 1241SOL     OW13486   3.620   3.077   0.930
 1241SOL    HW113487   3.591   2.984   0.952
 1241SOL    HW213488   3.694   3.073   0.862
 1242SOL     OW13489   3.436   3.837   1.805
 1242SOL    HW113490   3.356   3.830   1.745
 1242SOL    HW213491   3.422   3.913   1.869
 1243SOL     OW13492   3.342   1.653   1.078
 1243SOL    HW113493   3.331   1.556   1.056
 1243SOL    HW213494   3.398   1.662   1.160
 1244SOL     OW13495   2.446   9.651   1.747
 1244SOL    HW113496   2.531   9.690   1.783
 1244SOL    HW213497   2.431   9.686   1.654
 1245SOL     OW13498   2.562   6.384   0.876
 1245SOL    HW113499   2.477   6.422   0.912
 1245SOL    HW213500   2.589   6.304   0.930
 1246SOL     OW13501   2.660   7.589   1.019
 1246SOL    HW113502   2.592   7.582   0.945
 1246SOL    HW213503   2.669   7.685   1.046
 1247SOL     OW13504   3.510   3.362   0.401
 1247SOL    HW113505   3.476   3.288   0.459
 1247SOL    HW213506   3.472   3.449   0.432
 1248SOL     OW13507   2.263   7.092   1.151
 1248SOL    HW113508   2.283   7.157   1.225
 1248SOL    HW213509   2.340   7.030   1.139
 1249SOL     OW13510   3.989   3.756   0.748
 1249SOL    HW113511   4.001   3.848   0.711
 1249SOL    HW213512   3.914   3.757   0.815
 1250SOL     OW13513   4.057   8.978   0.860
 1250SOL    HW113514   4.117   8.944   0.788
 1250SOL    HW213515   3.990   8.907   0.884
 1251SOL     OW13516   2.328   2.308   0.635
 1251SOL    HW113517   2.320   2.212   0.663
 1251SOL    HW213518   2.349   2.365   0.714
 1252SOL     OW13519   3.162   9.611   1.353
 1252SOL    HW113520   3.194   9.697   1.314
 1252SOL    HW213521   3.138   9.548   1.279
 1253SOL     OW13522   3.289   0.090   0.652
 1253SOL    HW113523   3.305   9.992   0.667
 1253SOL    HW213524   3.281   0.136   0.740
 1254SOL     OW13525   4.084   0.008   2.047
 1254SOL    HW113526   4.136   9.931   2.085
 1254SOL    HW213527   4.101   0.090   2.102
 1255SOL     OW13528   2.336   6.951   0.573
 1255SOL    HW113529   2.417   6.941   0.631
 1255SOL    HW213530   2.254   6.947   0.629
 1256SOL     OW13531   4.466   1.905   0.682
 1256SOL    HW113532   4.460   1.870   0.775
 1256SOL    HW213533   4.502   1.998   0.683
 1257SOL     OW13534   2.335   4.640   1.022
 1257SOL    HW113535   2.291   4.650   1.112
 1257SOL    HW213536   2.382   4.725   0.998
 1258SOL     OW13537   3.372   4.541   0.922
 1258SOL    HW113538   3.312   4.585   0.855
 1258SOL    HW213539   3.402   4.453   0.885
 1259SOL     OW13540   2.416   3.975   0.565
 1259SOL    HW113541   2.452   3.992   0.657
 1259SOL    HW213542   2.360   4.053   0.537
  10.00000  10.00000   2.85800
