chitosan Film  in water:acetic acid 2%
27904
    1CHTO  H203    1   5.560   6.294   2.760  0.1317  0.9163 -0.4965
    1CHTO   O82    2   5.615   6.267   2.689  0.1422  0.1321 -0.1886
    1CHTO  C123    3   5.730   6.199   2.738 -1.1198 -0.6935 -0.6178
    1CHTO  H227    4   5.774   6.258   2.820  0.8499 -2.6130 -0.2526
    1CHTO   O77    5   5.678   6.075   2.797  0.4740 -0.4550 -0.4993
    1CHTO  C118    6   5.764   5.996   2.878  0.0113 -0.2305 -0.0049
    1CHTO  H222    7   5.799   6.054   2.964 -0.8437 -0.2774  0.3809
    1CHTO  C125    8   5.674   5.883   2.933  0.1428 -0.6854  0.7075
    1CHTO   O84    9   5.721   5.822   3.055 -0.0610  0.5839 -0.0016
    1CHTO  H205   10   5.744   5.734   3.032  2.2719  1.4345 -1.0813
    1CHTO  C114   11   5.884   5.943   2.796  0.5575  0.0332  0.3513
    1CHTO  H218   12   5.840   5.872   2.725  0.2543 -1.4039  1.9505
    1CHTO  C116   13   5.950   6.057   2.705  0.0886 -0.4469 -0.5841
    1CHTO  H220   14   6.022   6.110   2.771  0.2241 -0.4714 -0.7129
    1CHTO   O79   15   6.028   5.995   2.603  0.4622 -0.0118 -0.0028
    1CHTO  H201   16   6.079   5.924   2.637 -1.7196 -1.2886  0.6929
    1CHTO  C120   17   5.847   6.156   2.640  0.2938 -0.2015 -0.2552
    1CHTO  H224   18   5.794   6.110   2.554  0.4931 -1.0496  0.0772
    1CHTO   N21   19   5.906   6.277   2.580 -0.3528 -0.2549 -0.1773
    1CHTO  H211   20   5.994   6.301   2.637 -2.1216  0.1898  2.4298
    1CHTO  H212   21   5.918   6.277   2.472 -4.2238 -1.6370 -0.7019
    1CHTO   O75   22   5.973   5.891   2.891 -0.0072 -0.7223 -0.4787
    1CHTO  C112   23   6.054   5.754   2.852  0.4151  0.1212  0.4728
    1CHTO  H216   24   6.051   5.740   2.743 -1.0806 -0.7406  0.6019
    1CHTO   O73   25   5.982   5.651   2.917 -0.5609  0.2348  0.0345
    1CHTO  C113   26   6.031   5.519   2.908  0.7554 -0.5340  0.0476
    1CHTO  H217   27   6.038   5.495   2.800 -0.3686 -1.7996  0.2442
    1CHTO  C124   28   5.928   5.424   2.976  0.3521  0.0235 -0.4644
    1CHTO   O83   29   5.866   5.471   3.093  0.1135 -0.2075 -0.4219
    1CHTO  H204   30   5.805   5.403   3.115  0.7354 -0.6529 -0.0843
    1CHTO  C109   31   6.171   5.512   2.982  0.0601 -0.0268  0.0930
    1CHTO  H213   32   6.151   5.532   3.088 -2.4757  3.7714 -1.0067
    1CHTO  C110   33   6.266   5.618   2.910 -0.1062  0.3106 -0.5416
    1CHTO  H214   34   6.285   5.584   2.808 -1.5202 -0.8881 -0.4275
    1CHTO   O78   35   6.392   5.629   2.974  0.0372 -0.3403  0.3282
    1CHTO  H200   36   6.450   5.695   2.940 -1.2729  1.3503  1.3086
    1CHTO  C111   37   6.202   5.762   2.898  1.0273  0.5504 -0.0270
    1CHTO  H215   38   6.199   5.802   3.001 -1.1217  1.8221 -0.5467
    1CHTO   N19   39   6.272   5.863   2.817  0.3293 -0.3881  0.3449
    1CHTO  H207   40   6.230   5.883   2.720  0.1473  0.2514  0.5553
    1CHTO  H208   41   6.269   5.954   2.875 -0.5627 -0.9358  1.1753
    1CHTO   O74   42   6.231   5.377   2.972 -0.5386 -0.2473  0.6757
    1CHTO  C115   43   6.316   5.338   3.117  0.0398 -0.8269 -0.3525
    1CHTO  H219   44   6.353   5.430   3.163 -3.8542  1.2859 -1.1818
    1CHTO   O76   45   6.215   5.271   3.231 -0.9175  0.0295 -0.6627
    1CHTO  C122   46   6.169   5.143   3.177 -0.2361 -0.0219 -0.0469
    1CHTO  H226   47   6.120   5.169   3.083 -2.9307 -1.2192  0.9832
    1CHTO  C126   48   6.054   5.091   3.269  0.1841 -0.4230  0.4638
    1CHTO   O85   49   6.086   5.076   3.409  0.9782  0.3270  0.2132
    1CHTO  H206   50   6.131   5.151   3.443  0.5317  0.7525 -0.1353
    1CHTO  C121   51   6.285   5.038   3.153 -0.8931 -0.1239  0.2266
    1CHTO  H225   52   6.279   4.966   3.237 -0.1281  0.4408  0.7680
    1CHTO   O81   53   6.257   4.956   3.038  0.6019 -0.2459  0.0173
    1CHTO  H202   54   6.331   4.902   3.017 -0.6248 -2.1096  0.3849
    1CHTO  C119   55   6.424   5.107   3.147 -0.2224  0.0053  0.2394
    1CHTO  H223   56   6.449   5.135   3.250 -0.1995  0.9132 -0.0109
    1CHTO  C117   57   6.437   5.246   3.074  0.3386  0.2587  0.1562
    1CHTO  H221   58   6.434   5.234   2.966 -0.6092 -0.0624  0.2176
    1CHTO   N20   59   6.573   5.312   3.098 -0.6312  0.3232  0.0933
    1CHTO  H209   60   6.599   5.315   3.203 -2.7249 -1.1680  0.6939
    1CHTO  H210   61   6.595   5.397   3.035  1.7489  0.6913  1.3457
    1CHTO   O80   62   6.542   5.006   3.110  0.0136 -0.6753 -0.0952
    1CHTO  C103   63   6.538   4.926   2.965  0.2643 -0.5675 -0.0463
    1CHTO  H190   64   6.468   4.843   2.963  0.6050 -0.8855  1.1120
    1CHTO  C101   65   6.523   5.026   2.833 -0.9559  0.2614  0.0577
    1CHTO  H188   66   6.580   5.118   2.843 -2.1606  0.9025  1.1591
    1CHTO   O68   67   6.359   5.063   2.820 -0.6871  0.2601  0.8007
    1CHTO  H168   68   6.309   4.991   2.853 -0.6589 -0.0151  0.2367
    1CHTO   C99   69   6.564   4.957   2.694  0.0729  0.6402  0.0690
    1CHTO  H186   70   6.502   4.869   2.667 -0.7527  1.5376 -0.9636
    1CHTO   N17   71   6.560   5.042   2.573  0.1836  0.3545  0.0409
    1CHTO  H174   72   6.456   5.051   2.545  0.9906  2.3907 -2.5544
    1CHTO  H175   73   6.600   5.141   2.593 -0.0416  0.8756 -1.9346
    1CHTO   C97   74   6.705   4.899   2.716  0.0250 -0.1543 -0.3895
    1CHTO  H184   75   6.773   4.984   2.732 -1.7828  0.7612  2.8601
    1CHTO   O64   76   6.707   4.808   2.824 -0.1404 -0.6750 -0.2152
    1CHTO  C104   77   6.678   4.871   2.952 -0.3050  0.8571 -0.1605
    1CHTO  H191   78   6.752   4.949   2.969  0.6788 -0.0916 -0.0368
    1CHTO  C108   79   6.695   4.760   3.059 -0.5899 -0.3833  0.3842
    1CHTO   O71   80   6.833   4.716   3.068  0.2645 -0.5147 -0.8323
    1CHTO  H171   81   6.879   4.774   3.125 -0.5448 -0.3842 -0.2945
    1CHTO   O62   82   6.752   4.808   2.614 -0.2816 -0.6988 -0.1571
    1CHTO   C91   83   6.852   4.851   2.527  0.0967 -0.2396 -0.0390
    1CHTO  H178   84   6.854   4.960   2.528 -0.3414 -0.2082 -2.1218
    1CHTO   C92   85   6.813   4.816   2.380  1.1599 -0.1416 -0.6323
    1CHTO  H179   86   6.712   4.850   2.352  1.0255  0.1862  0.2540
    1CHTO   O66   87   6.895   4.903   2.296  0.3965  0.5797  0.7853
    1CHTO  H166   88   6.862   4.991   2.303 -0.1733  0.5592 -1.2799
    1CHTO   C93   89   6.847   4.668   2.339  0.1039 -0.1629 -0.0849
    1CHTO  H180   90   6.848   4.669   2.229 -2.6684  2.8050 -0.1411
    1CHTO   N16   91   6.754   4.560   2.376 -0.3628 -0.4351 -0.5473
    1CHTO  H172   92   6.686   4.601   2.449 -1.6056 -0.9333 -1.3978
    1CHTO  H173   93   6.698   4.535   2.287  2.2421  0.9962 -2.6295
    1CHTO   C94   94   6.991   4.622   2.387  0.4656 -0.1330  0.0568
    1CHTO  H181   95   6.986   4.541   2.460  0.2268 -1.1611 -1.0961
    1CHTO   O61   96   7.059   4.735   2.441  0.3391  0.0979 -0.0832
    1CHTO   C95   97   6.997   4.791   2.558  0.2403 -1.2811 -0.7564
    1CHTO  H182   98   6.978   4.714   2.633 -0.2894  0.2143  0.6714
    1CHTO  C106   99   7.103   4.898   2.622  0.0853 -0.3034  0.2084
    1CHTO   O69  100   7.238   4.849   2.639 -0.3470 -0.3447 -0.1142
    1CHTO  H169  101   7.276   4.829   2.555  1.6643  1.6036  0.2845
    1CHTO   O63  102   7.084   4.579   2.256  0.2585  0.5051 -0.5435
    1CHTO   C96  103   7.211   4.488   2.306 -0.0220  0.3199 -0.1954
    1CHTO  H183  104   7.198   4.482   2.414 -1.7343  2.2398 -0.2752
    1CHTO   C98  105   7.347   4.550   2.271  0.5163 -0.4087 -0.4195
    1CHTO  H185  106   7.344   4.660   2.273 -0.3938 -0.4343  0.2503
    1CHTO   O67  107   7.460   4.507   2.357 -0.2851  0.3955 -0.2126
    1CHTO  H167  108   7.472   4.414   2.355  1.7953  0.6459  0.0240
    1CHTO  C102  109   7.395   4.509   2.127 -0.7803  0.4826 -0.5385
    1CHTO  H189  110   7.500   4.539   2.117 -0.1578 -1.5532 -0.3039
    1CHTO   N18  111   7.326   4.585   2.020  0.2767  0.4684 -0.0346
    1CHTO  H176  112   7.220   4.595   2.035  0.3842 -0.1120  1.1627
    1CHTO  H177  113   7.341   4.542   1.922  0.1843  1.6641 -0.5838
    1CHTO  C105  114   7.388   4.350   2.111  0.6522 -0.4583 -0.4804
    1CHTO  H192  115   7.347   4.329   2.012 -1.4132 -0.4543  0.3478
    1CHTO   O65  116   7.307   4.285   2.211 -0.0870 -0.1100 -0.3193
    1CHTO  C100  117   7.185   4.351   2.244  0.4794 -1.1588 -0.6392
    1CHTO  H187  118   7.126   4.360   2.151  0.8545  1.1620 -0.6977
    1CHTO  C107  119   7.113   4.254   2.343 -0.4867 -0.4588  0.2403
    1CHTO   O70  120   7.210   4.220   2.441  0.3950 -0.0179 -0.4372
    1CHTO  H170  121   7.210   4.127   2.439 -1.3990 -0.0726  0.8446
    1CHTO   O57  122   7.526   4.304   2.116  0.2449 -0.4085 -0.5482
    1CHTO   C85  123   7.560   4.177   2.058 -0.5537 -0.0959 -0.1654
    1CHTO  H157  124   7.498   4.169   1.966 -1.9115 -1.6261  0.8614
    1CHTO   C83  125   7.519   4.065   2.167  0.1433 -0.8111  0.3261
    1CHTO  H155  126   7.412   4.071   2.186 -0.0278  0.5231 -0.9931
    1CHTO   O56  127   7.576   4.098   2.295  0.5481 -0.6109  0.3436
    1CHTO  H135  128   7.602   4.188   2.294 -0.3544 -0.3430 -2.1818
    1CHTO   C81  129   7.560   3.930   2.112 -0.1923 -0.2391  0.0997
    1CHTO  H153  130   7.515   3.922   2.013 -0.2465 -1.6084  0.2282
    1CHTO   N14  131   7.513   3.814   2.189 -0.2313 -0.0644  0.0917
    1CHTO  H141  132   7.418   3.829   2.236 -0.0065 -1.3383  0.9648
    1CHTO  H142  133   7.581   3.770   2.259 -1.3126  0.8794  1.7862
    1CHTO   C79  134   7.714   3.934   2.090  0.6331  0.0058  0.0961
    1CHTO  H151  135   7.748   3.836   2.057 -0.1955 -0.3728  0.3554
    1CHTO   O52  136   7.758   4.034   1.993 -0.4486  0.3943 -0.0242
    1CHTO   C86  137   7.714   4.170   2.018 -0.1694 -0.1593 -0.0289
    1CHTO  H158  138   7.777   4.202   2.103  0.4886  0.5554 -0.7797
    1CHTO   C90  139   7.755   4.258   1.899  0.4572  0.4997  0.1862
    1CHTO   O60  140   7.720   4.394   1.916  0.3471  0.5517 -0.2790
    1CHTO  H138  141   7.782   4.442   1.865  1.3461 -0.8665 -0.4307
    1CHTO   O50  142   7.796   3.966   2.209  0.4712  0.6228 -0.3624
    1CHTO   C73  143   7.915   3.946   2.280 -0.5951  0.5819  0.1058
    1CHTO  H145  144   7.990   3.931   2.200  0.6985  0.6037  1.2997
    1CHTO   C74  145   7.912   3.821   2.363 -0.4822  0.2258  0.0425
    1CHTO  H146  146   7.887   3.740   2.293 -1.2450 -0.2656  0.8684
    1CHTO   O54  147   8.044   3.806   2.422  0.3904  0.7093  0.2326
    1CHTO  H133  148   8.027   3.754   2.498  0.3521  0.2005 -0.1222
    1CHTO   C75  149   7.796   3.839   2.471  0.2001 -0.3729  0.1713
    1CHTO  H147  150   7.700   3.832   2.419 -0.1992  0.2949  0.8179
    1CHTO   N13  151   7.796   3.720   2.562 -0.9290 -0.1739  0.3432
    1CHTO  H139  152   7.891   3.709   2.611 -0.2157 -0.1151 -1.0160
    1CHTO  H140  153   7.789   3.628   2.505  0.2921 -0.5269  0.7459
    1CHTO   C76  154   7.807   3.982   2.549 -0.1971 -0.3373 -0.4212
    1CHTO  H148  155   7.877   3.966   2.630  0.0955  0.3334 -0.5395
    1CHTO   O49  156   7.844   4.088   2.463  0.3951  0.3693 -0.2288
    1CHTO   C77  157   7.952   4.067   2.375 -0.5016  0.2816  0.7714
    1CHTO  H149  158   8.051   4.049   2.417 -0.2645  0.0531  0.1337
    1CHTO   C88  159   7.972   4.196   2.297  0.1727  0.0277 -0.0605
    1CHTO   O58  160   8.089   4.168   2.202  0.4454 -0.2705  0.2045
    1CHTO  H136  161   8.157   4.230   2.223 -1.4033  1.5625  1.0077
    1CHTO   O51  162   7.679   4.016   2.613 -0.1719 -0.1834  0.0674
    1CHTO   C78  163   7.701   4.121   2.728 -0.9032 -0.3995 -0.5142
    1CHTO  H150  164   7.795   4.180   2.715 -1.1740 -0.0494 -0.8746
    1CHTO   C80  165   7.715   4.057   2.872  0.4900  0.1853  0.3106
    1CHTO  H152  166   7.618   4.012   2.900  0.0239  0.9256 -0.0988
    1CHTO   O55  167   7.813   3.951   2.877  0.1079 -0.2813  0.5933
    1CHTO  H134  168   7.899   3.985   2.866 -0.6047  0.9105 -1.5775
    1CHTO   C84  169   7.735   4.175   2.976 -0.7208  0.1653 -0.5685
    1CHTO  H156  170   7.837   4.213   2.962 -0.7170  0.0206 -0.9647
    1CHTO   N15  171   7.736   4.123   3.121  0.3196  0.4479 -0.4868
    1CHTO  H143  172   7.647   4.130   3.179  0.0771 -0.3448 -0.7534
    1CHTO  H144  173   7.817   4.170   3.173 -0.2919  0.0647  0.8211
    1CHTO   C87  174   7.634   4.295   2.957 -0.5215  0.4950 -0.6443
    1CHTO  H159  175   7.539   4.265   3.001 -1.8505  3.2751 -1.5009
    1CHTO   O53  176   7.621   4.331   2.814  0.2537 -0.9326 -0.2912
    1CHTO   C82  177   7.592   4.230   2.719 -0.3856 -0.2368 -0.7335
    1CHTO  H154  178   7.493   4.189   2.736 -1.4243  2.9209  1.1679
    1CHTO   C89  179   7.589   4.307   2.587 -0.4757  0.1542 -0.4504
    1CHTO   O59  180   7.711   4.379   2.552  0.4267 -0.3148 -0.1243
    1CHTO  H137  181   7.709   4.422   2.469  1.4264  0.6345  0.3209
    1CHTO   O45  182   7.682   4.424   3.031  0.4918 -0.6072 -0.4963
    1CHTO   C67  183   7.617   4.551   2.977 -0.8963  0.3496 -0.1092
    1CHTO  H124  184   7.646   4.570   2.874 -2.3930  3.1055 -0.0640
    1CHTO   C65  185   7.459   4.543   2.985  0.6703  0.1658 -0.3137
    1CHTO  H122  186   7.425   4.441   3.006  1.6602  0.3694  2.5654
    1CHTO   O44  187   7.414   4.577   2.853  0.1297 -0.6672 -0.0537
    1CHTO  H102  188   7.437   4.507   2.795 -0.9787  0.4519 -1.8946
    1CHTO   C63  189   7.402   4.641   3.096 -0.3879 -0.5231  0.1344
    1CHTO  H120  190   7.445   4.621   3.194  0.2580  1.3739  0.2533
    1CHTO   N11  191   7.258   4.631   3.126  0.2781  0.2147  0.1511
    1CHTO  H108  192   7.222   4.531   3.137 -0.5290  0.2783 -1.6243
    1CHTO  H109  193   7.207   4.685   3.049 -2.0346 -1.3876  0.5054
    1CHTO   C61  194   7.451   4.786   3.063  0.1719 -0.7212  0.3330
    1CHTO  H118  195   7.436   4.849   3.152  1.8747  0.5064 -0.2278
    1CHTO   O40  196   7.592   4.793   3.033 -0.1135 -0.2884 -0.7299
    1CHTO   C68  197   7.671   4.671   3.058 -0.2086 -0.0091 -0.3241
    1CHTO  H125  198   7.660   4.649   3.166 -3.1344 -1.8805 -0.9546
    1CHTO   C72  199   7.821   4.704   3.026  1.3187 -0.5810 -0.2120
    1CHTO   O48  200   7.895   4.607   3.084 -0.2911 -0.5141  0.1552
    1CHTO  H105  201   7.879   4.526   3.038 -0.6491  0.3663 -1.2923
    1CHTO   O38  202   7.384   4.854   2.961 -0.2918  0.6842  0.2122
    1CHTO   C55  203   7.333   4.986   2.992 -0.0168  0.2949  0.0884
    1CHTO  H112  204   7.372   5.029   3.086 -0.4940  1.7089 -0.3490
    1CHTO   C56  205   7.174   4.990   2.993  0.3217  0.0297  0.7202
    1CHTO  H113  206   7.128   4.946   2.903 -0.4243  2.2006  0.0071
    1CHTO   O42  207   7.109   4.922   3.101  0.4414 -0.0679  0.3848
    1CHTO  H100  208   7.142   4.835   3.114 -0.1252 -0.1842  1.0349
    1CHTO   C57  209   7.117   5.141   3.003  0.3503 -0.2587 -0.1442
    1CHTO  H114  210   7.131   5.172   3.106  0.1983  1.6288 -0.6631
    1CHTO   N10  211   6.970   5.162   2.970  0.9910  0.3074 -0.1068
    1CHTO  H106  212   6.929   5.077   2.918  1.2497 -0.4313  0.8831
    1CHTO  H107  213   6.912   5.191   3.057  0.2432 -0.9290 -0.1727
    1CHTO   C58  214   7.201   5.237   2.913  0.0864  0.7828 -0.1742
    1CHTO  H115  215   7.161   5.232   2.810  1.3718 -0.2898 -0.6267
    1CHTO   O37  216   7.342   5.215   2.909  0.6395 -0.5584 -0.2434
    1CHTO   C59  217   7.380   5.080   2.877 -0.2150  0.3672  0.4148
    1CHTO  H116  218   7.345   5.051   2.778  1.4042  0.9185 -0.3465
    1CHTO   C70  219   7.532   5.085   2.868  0.0812 -0.0122  0.2998
    1CHTO   O46  220   7.584   4.966   2.800  0.8776  0.0894  0.2837
    1CHTO  H103  221   7.634   4.911   2.857  0.2151  0.0944  0.8823
    1CHTO   O39  222   7.184   5.393   2.979  0.4299  0.0691  0.1908
    1CHTO   C60  223   7.119   5.490   2.895  0.5677  0.3295 -0.0356
    1CHTO  H117  224   7.098   5.433   2.804  0.5896  1.1318 -0.5507
    1CHTO   C62  225   6.991   5.549   2.955 -0.2524 -0.2416  0.7689
    1CHTO  H119  226   6.924   5.464   2.979 -1.3190  0.8101  1.6053
    1CHTO   O43  227   7.022   5.616   3.075  0.5003 -0.1244 -0.0836
    1CHTO  H101  228   7.065   5.699   3.066 -0.0811  0.1043 -0.8138
    1CHTO   C66  229   6.918   5.646   2.850 -0.3536  0.5664 -0.4534
    1CHTO  H123  230   6.881   5.591   2.764 -0.0759  0.1825 -0.3286
    1CHTO   N12  231   6.787   5.697   2.905  0.0821  0.1985  0.0716
    1CHTO  H110  232   6.737   5.749   2.825  3.1950  0.3595 -1.8799
    1CHTO  H111  233   6.725   5.616   2.940 -1.5085  0.9529 -0.9671
    1CHTO   C69  234   7.007   5.761   2.809  0.8373  0.2790 -0.3466
    1CHTO  H126  235   7.020   5.825   2.899  0.2270 -1.0317  0.6808
    1CHTO   O41  236   7.153   5.704   2.759  0.0553 -0.6062 -0.4075
    1CHTO   C64  237   7.223   5.599   2.856  0.2092 -0.6473  0.9503
    1CHTO  H121  238   7.264   5.650   2.946  1.1227  0.9767 -0.3590
    1CHTO   C71  239   7.347   5.533   2.775  0.2253  0.0356 -0.2541
    1CHTO   O47  240   7.452   5.632   2.750 -0.0743  0.1793 -0.2074
    1CHTO  H104  241   7.536   5.595   2.732  0.6339  0.8190  1.6540
    1CHTO   O34  242   6.941   5.852   2.691  0.2435 -0.6731 -0.0893
    1CHTO   C49  243   6.864   6.005   2.669 -0.2005 -0.5478 -0.3955
    1CHTO   H91  244   6.835   6.004   2.563  2.1083  1.0369 -1.0626
    1CHTO   C47  245   6.967   6.120   2.691  0.6665 -0.0636  0.0661
    1CHTO   H89  246   6.910   6.209   2.655  1.1312  0.8492  1.5440
    1CHTO   O33  247   7.077   6.095   2.596  0.5426  0.1385 -0.6464
    1CHTO   H70  248   7.145   6.158   2.609  0.7168 -0.0807 -0.4878
    1CHTO   C45  249   7.001   6.132   2.845  0.3475  0.1145 -0.3460
    1CHTO   H87  250   7.027   6.032   2.883 -1.0787 -0.1728 -0.0995
    1CHTO    N8  251   7.110   6.232   2.874 -0.4474  0.4406 -0.5347
    1CHTO   H75  252   7.102   6.314   2.804  1.8098  1.1094 -0.0572
    1CHTO   H76  253   7.098   6.269   2.975  0.0429  0.3255 -0.4356
    1CHTO   C43  254   6.856   6.162   2.919  0.1557  0.2098 -0.1344
    1CHTO   H85  255   6.887   6.172   3.024  0.6864 -2.4219  0.0001
    1CHTO   O29  256   6.769   6.049   2.901 -0.2501  0.0156 -0.2371
    1CHTO   C50  257   6.740   6.020   2.763 -0.3935  0.3126 -0.2196
    1CHTO   H92  258   6.696   5.920   2.766  0.3192  0.0096  0.3894
    1CHTO   C54  259   6.628   6.111   2.711 -0.2190 -0.0967 -0.3029
    1CHTO   O36  260   6.586   6.073   2.581 -0.2704  0.0676  0.0163
    1CHTO   H72  261   6.506   6.118   2.559 -0.3325 -0.6319 -1.2116
    1CHTO   O27  262   6.808   6.296   2.889 -0.2254 -0.0940 -0.6573
    1CHTO   C37  263   6.806   6.440   2.866  0.5304 -0.1809  0.5066
    1CHTO   H79  264   6.900   6.472   2.820  0.7236 -0.5523  0.6375
    1CHTO   C38  265   6.694   6.489   2.765  0.6336  0.8104 -0.0448
    1CHTO   H80  266   6.598   6.444   2.793 -0.4190  3.4911  0.7499
    1CHTO   O31  267   6.736   6.428   2.642 -0.2884  0.2602  0.0051
    1CHTO   H68  268   6.826   6.451   2.633 -0.3627  0.1667 -1.0936
    1CHTO   C39  269   6.677   6.642   2.762 -0.5087  0.7757 -0.4586
    1CHTO   H81  270   6.763   6.667   2.700 -0.2892  0.2123 -0.3792
    1CHTO    N7  271   6.548   6.684   2.702 -0.3933  0.5109  0.0131
    1CHTO   H73  272   6.549   6.664   2.596 -0.0850  3.3438 -0.5687
    1CHTO   H74  273   6.471   6.623   2.747  0.0536  0.3223  0.5182
    1CHTO   C40  274   6.693   6.717   2.902  0.1585 -0.5941  0.4153
    1CHTO   H82  275   6.595   6.714   2.950 -0.0055  3.1165  0.4374
    1CHTO   O26  276   6.797   6.662   2.987 -0.3915 -0.1039  0.4487
    1CHTO   C41  277   6.779   6.520   3.004  0.2367 -0.1272  0.2268
    1CHTO   H83  278   6.680   6.491   3.042  1.3394 -1.4321  2.1765
    1CHTO   C52  279   6.880   6.477   3.116 -0.4691 -0.6675 -0.1539
    1CHTO   O35  280   7.023   6.513   3.103  0.0963 -0.5474  0.2452
    1CHTO   H71  281   7.032   6.603   3.127 -1.5302 -0.0990 -0.7414
    1CHTO   O28  282   6.746   6.849   2.869 -0.4421  0.1989 -0.5077
    1CHTO   C42  283   6.874   6.888   2.800 -0.5844  0.3407 -0.0811
    1CHTO   H84  284   6.914   6.800   2.750  1.9285  0.9875  0.6688
    1CHTO   C44  285   6.993   6.933   2.891  0.2133 -0.5022 -0.3287
    1CHTO   H86  286   6.982   7.037   2.923  1.8390  0.1208 -1.6825
    1CHTO   O32  287   6.996   6.845   3.004 -0.1482  0.4153  0.1391
    1CHTO   H69  288   7.069   6.865   3.059 -0.7322 -0.3810  1.2160
    1CHTO   C48  289   7.120   6.939   2.802 -1.1900 -0.4703 -0.5427
    1CHTO   H90  290   7.142   6.838   2.768  0.5767  0.1886 -1.3959
    1CHTO    N9  291   7.243   6.987   2.876  0.7907  0.1655  0.0516
    1CHTO   H77  292   7.254   6.947   2.976 -0.7871 -1.2490 -0.3247
    1CHTO   H78  293   7.336   6.984   2.820 -0.5272  2.3687 -2.3830
    1CHTO   C51  294   7.102   7.014   2.666 -0.3137  0.1302 -0.6195
    1CHTO   H93  295   7.086   7.120   2.687 -1.4572  0.1445 -1.4855
    1CHTO   O30  296   6.983   6.963   2.603  0.3039 -0.6353 -0.0207
    1CHTO   C46  297   6.858   6.992   2.688  0.6846  0.2133 -0.2427
    1CHTO   H88  298   6.861   7.096   2.723  1.9663 -0.1841  0.8829
    1CHTO   C53  299   6.742   6.961   2.589  0.7697  0.3162  0.1551
    1CHTO   O72  300   6.621   7.031   2.615  0.3331  0.6281 -0.3810
    1CHTO  H199  301   6.549   6.997   2.564  0.3975 -1.0206  0.5933
    1CHTO   O22  302   7.213   6.994   2.576 -0.1906  0.0777  0.0724
    1CHTO   C31  303   7.211   7.038   2.435  0.6464 -0.1873 -0.2202
    1CHTO   H59  304   7.104   7.047   2.407 -0.1005 -2.3922  1.7485
    1CHTO   C29  305   7.266   7.180   2.417  1.0052 -0.0354 -0.5147
    1CHTO   H57  306   7.372   7.170   2.446  1.4344  2.2625 -1.1088
    1CHTO   O21  307   7.205   7.268   2.514 -0.2825  0.4257 -0.4240
    1CHTO   H37  308   7.235   7.235   2.597 -0.6318  0.3264 -0.3369
    1CHTO   C27  309   7.259   7.239   2.267  0.4935  0.0438  0.2285
    1CHTO   H55  310   7.154   7.266   2.251  0.0832 -1.8139 -0.2720
    1CHTO    N5  311   7.336   7.362   2.243  0.5611  0.4130 -0.0148
    1CHTO   H43  312   7.440   7.344   2.265  1.1135  1.6577 -1.5313
    1CHTO   H44  313   7.296   7.440   2.306  0.1747  0.4323 -0.2845
    1CHTO   C25  314   7.293   7.129   2.162  0.1408 -0.2236  0.0571
    1CHTO   H53  315   7.402   7.118   2.156  0.3346  0.5785  1.6298
    1CHTO   O17  316   7.234   6.999   2.198 -0.4470  0.0778 -0.5434
    1CHTO   C32  317   7.278   6.949   2.325  0.4334  0.2637  0.3243
    1CHTO   H60  318   7.386   6.959   2.335  0.3674  0.1166  1.2257
    1CHTO   C36  319   7.234   6.801   2.336 -0.0622  0.3951 -0.3811
    1CHTO   O25  320   7.285   6.713   2.236 -0.1415  0.2223 -0.1372
    1CHTO   H40  321   7.378   6.699   2.238 -0.0864  0.7227  1.4899
    1CHTO   O15  322   7.244   7.163   2.015 -0.0830 -0.4880  0.9634
    1CHTO   C19  323   7.245   7.094   1.896  0.8414  0.2952  0.3593
    1CHTO   H47  324   7.220   7.169   1.820  0.0665 -0.5425 -0.2286
    1CHTO   C20  325   7.384   7.036   1.856  0.2272  0.3521 -0.7397
    1CHTO   H48  326   7.414   6.956   1.926 -2.6948  1.4239  1.8607
    1CHTO   O19  327   7.477   7.140   1.888 -0.3521 -0.0696 -0.1570
    1CHTO   H35  328   7.567   7.112   1.889 -0.2994  0.1043  1.9225
    1CHTO   C21  329   7.377   6.988   1.708 -0.1687 -0.3275  1.0155
    1CHTO   H49  330   7.353   7.075   1.646  1.3869  2.2116  3.8188
    1CHTO    N4  331   7.506   6.925   1.654  0.0538  0.5484 -0.1911
    1CHTO   H41  332   7.588   6.995   1.662 -0.1587  0.8519 -0.6343
    1CHTO   H42  333   7.487   6.891   1.553 -2.1699 -0.1583  0.4400
    1CHTO   C22  334   7.260   6.891   1.687  0.1617 -0.4150  0.4967
    1CHTO   H50  335   7.284   6.789   1.715  1.4885 -0.4866 -0.8503
    1CHTO   O14  336   7.138   6.932   1.746 -0.3871  0.0852 -0.0352
    1CHTO   C23  337   7.142   6.971   1.883  0.5693 -0.8736  0.0964
    1CHTO   H51  338   7.179   6.881   1.935  1.3617 -0.2645  0.6006
    1CHTO   C34  339   6.996   7.003   1.931 -0.2502  0.2345 -0.1462
    1CHTO   O23  340   6.907   6.907   1.887  0.5907  0.0728  0.3215
    1CHTO   H38  341   6.913   6.835   1.947  1.4835 -1.0599 -1.1011
    1CHTO   O16  342   7.224   6.896   1.546  0.3404  0.5067  0.0576
    1CHTO   C24  343   7.183   6.748   1.478 -0.0234 -0.1770 -0.7153
    1CHTO   H52  344   7.200   6.666   1.548 -1.3317 -0.7539 -1.0698
    1CHTO   C26  345   7.270   6.723   1.348  0.1095 -0.1268 -0.0803
    1CHTO   H54  346   7.269   6.820   1.293 -1.3304  0.7807  1.4948
    1CHTO   O20  347   7.405   6.700   1.384 -0.6688 -0.0884  0.1231
    1CHTO   H36  348   7.454   6.749   1.320  0.5077  0.1128  1.1668
    1CHTO   C30  349   7.217   6.611   1.256 -0.4081  0.7398 -0.7086
    1CHTO   H58  350   7.238   6.513   1.302  0.2310  1.0885 -0.2518
    1CHTO    N6  351   7.279   6.611   1.125  0.0125 -0.2350 -0.3360
    1CHTO   H45  352   7.380   6.648   1.123 -0.1389  0.4398  2.4313
    1CHTO   H46  353   7.287   6.507   1.095  1.6365 -0.3698  0.5338
    1CHTO   C33  354   7.065   6.612   1.241  0.0321 -0.7976  0.0313
    1CHTO   H61  355   7.036   6.702   1.184 -1.0516 -1.5702 -0.6496
    1CHTO   O18  356   7.006   6.623   1.369  0.0013  0.1065 -0.1625
    1CHTO   C28  357   7.030   6.747   1.443 -0.6482  0.0727 -0.1621
    1CHTO   H56  358   7.015   6.836   1.381  1.6503  0.9070  0.4102
    1CHTO   C35  359   6.923   6.753   1.558  0.1533 -0.2215  0.4705
    1CHTO   O24  360   6.789   6.736   1.520  0.7233  0.1582 -0.2467
    1CHTO   H39  361   6.781   6.650   1.483  0.7905 -0.4143  1.0435
    1CHTO    O9  362   7.015   6.498   1.166 -0.1201 -0.4018 -0.4656
    1CHTO   C13  363   6.837   6.499   1.143  0.1784  0.0260  0.6093
    1CHTO   H26  364   6.813   6.604   1.117  2.0355 -0.5002 -3.6331
    1CHTO   C11  365   6.764   6.446   1.269  0.5543 -0.2782 -0.2129
    1CHTO   H24  366   6.775   6.514   1.355  0.0513 -1.5569  0.8824
    1CHTO    O8  367   6.838   6.331   1.317  0.0584 -0.5670 -0.2879
    1CHTO    H3  368   6.820   6.262   1.255  0.3744 -0.0591 -0.9556
    1CHTO    C9  369   6.616   6.419   1.232  0.6385 -0.3237 -0.3808
    1CHTO   H22  370   6.585   6.509   1.176  1.0319 -0.2695 -0.5170
    1CHTO    N2  371   6.525   6.424   1.349 -0.3440 -0.4555 -0.0897
    1CHTO   H10  372   6.493   6.526   1.361 -0.5370 -0.5475  0.1769
    1CHTO   H11  373   6.557   6.384   1.444  2.9903  1.3366 -0.3796
    1CHTO    C7  374   6.608   6.299   1.142  0.3857 -0.2459  0.6286
    1CHTO   H20  375   6.523   6.325   1.077  1.0600 -0.7602 -0.4618
    1CHTO    O4  376   6.727   6.286   1.062  0.0388 -0.0377  0.0864
    1CHTO   C14  377   6.785   6.409   1.016  0.0736 -0.2848  0.0027
    1CHTO   H27  378   6.703   6.468   0.971  1.2643  2.1983  1.0257
    1CHTO   C18  379   6.887   6.375   0.908  0.7324 -0.5488 -0.2332
    1CHTO   O13  380   6.832   6.299   0.803  0.2988  0.4582 -0.3636
    1CHTO    H7  381   6.909   6.254   0.776  0.8983  0.7493  0.8080
    1CHTO    O2  382   6.581   6.139   1.230  0.7918 -0.4877  0.2437
    1CHTO    C1  383   6.634   6.027   1.163  0.5879  0.6649  0.3618
    1CHTO   H14  384   6.726   6.064   1.112  0.3554  0.8136  0.0462
    1CHTO    C2  385   6.542   5.958   1.059  0.4705 -0.9273  0.7414
    1CHTO   H15  386   6.457   5.928   1.123 -0.8266  1.9061  0.4085
    1CHTO    O6  387   6.506   6.059   0.961 -0.2988 -0.4386 -0.3432
    1CHTO    H1  388   6.439   6.122   0.978 -0.2752 -0.6197  0.4380
    1CHTO    C3  389   6.635   5.843   0.987 -0.6711 -0.1773 -0.4637
    1CHTO   H16  390   6.722   5.891   0.939  1.1207 -0.6487  2.1963
    1CHTO    N1  391   6.559   5.762   0.888  0.4267  0.2843  0.1220
    1CHTO    H8  392   6.502   5.682   0.931 -0.5140 -0.7277 -2.8573
    1CHTO    H9  393   6.625   5.717   0.815  0.9130  2.6977 -0.9784
    1CHTO    C4  394   6.710   5.752   1.089  0.6627 -0.2762 -0.4989
    1CHTO   H17  395   6.636   5.684   1.132 -0.7918  0.7437 -1.3446
    1CHTO    O1  396   6.768   5.829   1.194 -0.3604 -0.7156  0.5039
    1CHTO    C5  397   6.687   5.920   1.267  0.3345  0.1520 -0.3294
    1CHTO   H18  398   6.601   5.872   1.312 -0.1673  0.7467 -0.6431
    1CHTO   C16  399   6.781   5.986   1.371  0.0820 -0.0743 -0.0155
    1CHTO   O11  400   6.736   6.087   1.463 -0.5004  0.2062  0.2204
    1CHTO    H5  401   6.722   6.166   1.415  1.5934  0.8802  0.6991
    1CHTO    O3  402   6.817   5.680   1.025 -0.2641 -0.0502  0.0598
    1CHTO    C6  403   6.862   5.551   1.084  0.2324 -0.2698 -0.1458
    1CHTO   H19  404   6.833   5.544   1.189 -0.5705 -0.5053 -0.3727
    1CHTO    C8  405   6.793   5.419   1.025 -0.9326 -0.1700  0.1083
    1CHTO   H21  406   6.801   5.423   0.917  2.9847  0.8031  0.3591
    1CHTO    O7  407   6.652   5.432   1.061  0.1896  0.6171 -0.2534
    1CHTO    H2  408   6.600   5.406   0.988  0.0045 -0.3396  0.2132
    1CHTO   C12  409   6.856   5.291   1.088  0.6124  0.1016 -0.1391
    1CHTO   H25  410   6.841   5.295   1.198 -0.3182  0.9104 -0.2999
    1CHTO    N3  411   6.795   5.166   1.029  0.5218  0.0896 -0.1060
    1CHTO   H12  412   6.742   5.118   1.110  1.6533 -3.2857 -1.2606
    1CHTO   H13  413   6.871   5.104   0.984 -0.2921 -0.9495 -0.0596
    1CHTO   C15  414   7.011   5.300   1.064  0.1786 -0.7730 -0.0252
    1CHTO   H28  415   7.029   5.308   0.957 -0.4156 -1.3678 -0.1688
    1CHTO   O10  416   7.101   5.182   1.139 -0.2530  0.1168  0.0474
    1CHTO    H4  417   7.193   5.199   1.130 -0.2627  0.6347  0.9361
    1CHTO    O5  418   7.057   5.415   1.131  0.1381  0.1553 -0.5180
    1CHTO   C10  419   7.015   5.538   1.069 -0.2431  0.3792  0.0431
    1CHTO   H23  420   7.041   5.530   0.963  1.3766 -2.1110  0.5760
    1CHTO   C17  421   7.093   5.655   1.130  0.3804  0.3633 -0.1933
    1CHTO   O12  422   7.231   5.648   1.088  0.3109 -0.5065 -0.4232
    1CHTO    H6  423   7.273   5.717   1.136  1.1970 -0.0374 -1.8288
    2CHTO  H203  424   6.222   3.713   0.420  0.6328 -0.0780 -0.5663
    2CHTO   O82  425   6.175   3.655   0.363 -0.1961 -0.2196  0.2612
    2CHTO  C123  426   6.109   3.732   0.264  0.5556 -0.0622 -0.2999
    2CHTO  H227  427   6.177   3.762   0.183 -0.7193 -0.1570 -1.4222
    2CHTO   O77  428   6.021   3.630   0.211 -0.2523 -0.4368  0.1669
    2CHTO  C118  429   5.945   3.677   0.098  0.2802 -0.0672  0.4029
    2CHTO  H222  430   6.021   3.699   0.023  1.1428 -1.7628  0.7443
    2CHTO  C125  431   5.858   3.557   0.049  0.0019 -0.5423 -0.1196
    2CHTO   O84  432   5.934   3.458  -0.009  0.3834 -0.5693  0.6497
    2CHTO  H205  433   5.914   3.384   0.046  0.6912 -2.5507 -1.7903
    2CHTO  C114  434   5.863   3.802   0.136  0.3395 -0.2479  0.1189
    2CHTO  H218  435   5.784   3.773   0.205  0.0886 -1.3613 -0.6256
    2CHTO  C116  436   5.943   3.918   0.195 -0.8162 -0.4626 -0.5595
    2CHTO  H220  437   6.006   3.965   0.116 -1.1015 -0.8140 -0.9926
    2CHTO   O79  438   5.859   4.027   0.244  0.7133 -0.4699 -0.2826
    2CHTO  H201  439   5.818   4.074   0.173 -1.1965 -1.3739  0.1965
    2CHTO  C120  440   6.032   3.861   0.318  0.1076  0.3573  0.1128
    2CHTO  H224  441   5.970   3.818   0.400  1.3053 -2.9480 -0.6368
    2CHTO   N21  442   6.120   3.960   0.379 -0.0303 -0.1922  0.0770
    2CHTO  H211  443   6.065   4.050   0.404 -0.0575 -0.6661  1.7290
    2CHTO  H212  444   6.203   3.980   0.311 -0.3195 -0.4674 -0.3581
    2CHTO   O75  445   5.799   3.833   0.015 -0.0836 -0.1190  0.3025
    2CHTO  C112  446   5.650   3.910   0.009 -0.7429  0.1650  0.0651
    2CHTO  H216  447   5.653   3.995   0.079 -0.5090  0.8156 -0.7270
    2CHTO   O73  448   5.546   3.812   0.044 -0.1228  0.2499  0.1875
    2CHTO  C113  449   5.407   3.867   0.039 -0.3852 -0.0566  0.0895
    2CHTO  H217  450   5.389   3.954   0.106  0.3281  0.1785 -0.0188
    2CHTO  C124  451   5.318   3.766   0.108  0.1807 -0.0068 -0.1830
    2CHTO   O83  452   5.347   3.636   0.038  0.3481  0.3593 -0.4512
    2CHTO  H204  453   5.300   3.568   0.083  1.5874  0.5585  1.2090
    2CHTO  C109  454   5.362   3.918  -0.104 -0.2883 -0.3106 -0.2665
    2CHTO  H213  455   5.361   3.827  -0.165  0.9038 -0.7425  0.3371
    2CHTO  C110  456   5.472   4.017  -0.147  0.8264 -0.5810  0.9398
    2CHTO  H214  457   5.461   4.108  -0.088  1.0425 -0.3288  0.5981
    2CHTO   O78  458   5.444   4.044  -0.289  0.1766 -0.1501  0.0347
    2CHTO  H200  459   5.518   4.092  -0.322 -0.2572  1.2857  1.1249
    2CHTO  C111  460   5.622   3.966  -0.136  0.4939 -0.0097 -0.2048
    2CHTO  H215  461   5.634   3.886  -0.210 -0.0529  0.5537 -0.9158
    2CHTO   N19  462   5.719   4.072  -0.165  0.2524  0.8672 -0.0676
    2CHTO  H207  463   5.707   4.161  -0.105  2.3019  1.5413 -0.5954
    2CHTO  H208  464   5.814   4.027  -0.141 -0.4198 -0.9738 -0.7729
    2CHTO   O74  465   5.223   3.972  -0.092 -0.1031 -0.1893  0.1432
    2CHTO  C115  466   5.133   3.979  -0.238 -0.2340 -0.0260 -0.0853
    2CHTO  H219  467   5.196   4.005  -0.322 -0.6567 -0.7595 -0.6319
    2CHTO   O76  468   5.076   3.855  -0.271 -0.4895 -0.1133 -0.8057
    2CHTO  C122  469   4.961   3.820  -0.196  0.7693 -0.1821  0.4644
    2CHTO  H226  470   4.997   3.794  -0.097 -1.0428  0.2180  1.2566
    2CHTO  C126  471   4.914   3.695  -0.262 -0.1372  0.0940  0.3322
    2CHTO   O85  472   4.800   3.642  -0.188  0.5343  0.0574 -0.4893
    2CHTO  H206  473   4.723   3.680  -0.225 -0.4026 -2.5089 -1.2596
    2CHTO  C121  474   4.840   3.928  -0.180  0.6546 -0.6337 -0.2917
    2CHTO  H225  475   4.754   3.882  -0.234  0.9254 -2.4084  0.7594
    2CHTO   O81  476   4.804   3.950  -0.044  0.1965 -0.3459 -0.1014
    2CHTO  H202  477   4.718   3.912  -0.032 -1.4783  2.7295 -1.6877
    2CHTO  C119  478   4.885   4.056  -0.255  0.1912  0.2036  0.1454
    2CHTO  H223  479   4.876   4.040  -0.363 -0.5357  0.7763  0.1163
    2CHTO  C117  480   5.025   4.091  -0.215 -0.5632  0.2031  0.1094
    2CHTO  H221  481   5.032   4.116  -0.109 -0.3099  0.9051 -0.0713
    2CHTO   N20  482   5.072   4.215  -0.288  0.0867 -0.4978 -0.2189
    2CHTO  H209  483   4.994   4.289  -0.275  0.2705 -0.6517  2.0685
    2CHTO  H210  484   5.163   4.254  -0.244 -0.0427 -1.1802  0.6764
    2CHTO   O80  485   4.769   4.182  -0.229 -0.2729 -0.0825 -0.4715
    2CHTO  C103  486   4.712   4.257  -0.340  0.0474 -0.7166 -0.3617
    2CHTO  H190  487   4.794   4.271  -0.410 -0.2693 -1.4511 -0.8865
    2CHTO  C101  488   4.588   4.190  -0.411  0.4935  0.3335  0.1719
    2CHTO  H188  489   4.520   4.149  -0.336  0.2678 -1.3680 -0.9425
    2CHTO   O68  490   4.629   4.082  -0.475  0.0936 -0.1977  0.6857
    2CHTO  H168  491   4.668   4.019  -0.418 -0.5111 -0.7333  0.5095
    2CHTO   C99  492   4.513   4.287  -0.506  0.3172  0.0402  0.2009
    2CHTO  H186  493   4.575   4.298  -0.598  0.5938 -3.6294 -0.1328
    2CHTO   N17  494   4.379   4.235  -0.555 -0.3040 -0.0908 -0.1760
    2CHTO  H174  495   4.301   4.309  -0.563  0.5792  0.7122 -1.4967
    2CHTO  H175  496   4.400   4.207  -0.657  0.7971 -1.7356  0.4759
    2CHTO   C97  497   4.490   4.426  -0.437 -0.5017 -0.0277 -0.5337
    2CHTO  H184  498   4.407   4.422  -0.365 -0.6690  0.6881 -0.6885
    2CHTO   O64  499   4.613   4.478  -0.379  0.0003  0.4285 -0.4554
    2CHTO  C104  500   4.671   4.396  -0.281  0.6113  0.3661  0.1162
    2CHTO  H191  501   4.599   4.384  -0.200 -1.9918  0.4868 -2.1215
    2CHTO  C108  502   4.791   4.471  -0.218  0.2808 -0.1068  0.3923
    2CHTO   O71  503   4.751   4.572  -0.123  0.2512  0.3931 -0.0496
    2CHTO  H171  504   4.778   4.552  -0.036  0.6510  0.6394 -0.1123
    2CHTO   O62  505   4.476   4.527  -0.538  0.6576 -0.1973  0.1583
    2CHTO   C91  506   4.349   4.584  -0.544  0.0222  0.9657  0.7699
    2CHTO  H178  507   4.282   4.497  -0.544  0.7929  0.3535 -0.3604
    2CHTO   C92  508   4.347   4.643  -0.695 -0.0191 -0.1959  0.2190
    2CHTO  H179  509   4.408   4.577  -0.758  2.7151  2.3360  0.1357
    2CHTO   O66  510   4.222   4.642  -0.761  0.0496  0.2119 -0.0116
    2CHTO  H166  511   4.225   4.619  -0.851 -0.7070 -2.4651  0.6023
    2CHTO   C93  512   4.401   4.793  -0.705 -1.0054  0.1327 -0.0882
    2CHTO  H180  513   4.385   4.834  -0.806  2.2394  1.4173 -0.1375
    2CHTO   N16  514   4.546   4.804  -0.678  0.2463 -0.0433  0.2364
    2CHTO  H172  515   4.591   4.841  -0.769  0.0122  0.1008  0.1795
    2CHTO  H173  516   4.578   4.860  -0.591  1.7677 -1.1216  0.3845
    2CHTO   C94  517   4.327   4.885  -0.604 -0.1420  0.6490 -0.1408
    2CHTO  H181  518   4.396   4.942  -0.542 -1.2125  1.9535 -0.0936
    2CHTO   O61  519   4.241   4.811  -0.507 -0.0051  0.1408  0.2340
    2CHTO   C95  520   4.299   4.695  -0.445 -0.6630 -0.1261  0.1108
    2CHTO  H182  521   4.385   4.731  -0.388 -1.2143  0.4967  0.5501
    2CHTO  C106  522   4.193   4.655  -0.335  0.3395 -0.7915  0.5790
    2CHTO   O69  523   4.079   4.591  -0.396  0.1637  0.6848 -0.5216
    2CHTO  H169  524   4.003   4.601  -0.341 -0.1510 -1.5928 -0.4821
    2CHTO   O63  525   4.238   4.977  -0.669 -0.6006 -0.2567  0.3194
    2CHTO   C96  526   4.301   5.099  -0.747 -0.2401 -0.3399 -0.1980
    2CHTO  H183  527   4.404   5.083  -0.776 -0.7788 -1.0968 -1.7415
    2CHTO   C98  528   4.294   5.225  -0.652 -0.2958  0.0641  0.7660
    2CHTO  H185  529   4.190   5.244  -0.621  0.0335  0.8286  1.4322
    2CHTO   O67  530   4.369   5.188  -0.533 -0.4380 -0.2227 -0.1385
    2CHTO  H167  531   4.316   5.189  -0.456  0.0954  0.0073  0.2311
    2CHTO  C102  532   4.353   5.349  -0.731  0.7219 -0.0314 -0.2468
    2CHTO  H189  533   4.455   5.321  -0.762  0.7452 -1.0416  0.6907
    2CHTO   N18  534   4.367   5.470  -0.646  0.4935  0.1174  0.0828
    2CHTO  H176  535   4.442   5.535  -0.687  0.2182  0.0258 -0.5730
    2CHTO  H177  536   4.271   5.518  -0.641  0.7710  0.7301 -0.4568
    2CHTO  C105  537   4.271   5.376  -0.860 -0.7736  0.4210 -0.7252
    2CHTO  H192  538   4.171   5.410  -0.833 -1.4627 -1.4504 -0.8757
    2CHTO   O65  539   4.267   5.257  -0.942  0.5809 -0.0873  0.4809
    2CHTO  C100  540   4.220   5.137  -0.880  0.1448 -0.4742 -0.4087
    2CHTO  H187  541   4.113   5.146  -0.856  0.0026 -1.0490 -0.8057
    2CHTO  C107  542   4.241   5.024  -0.981  0.0632  0.0805  0.9731
    2CHTO   O70  543   4.161   4.907  -0.951  0.2732  0.0827 -0.1647
    2CHTO  H170  544   4.125   4.861  -1.025 -2.5638 -0.4285  1.4518
    2CHTO   O57  545   4.349   5.486  -0.943  0.3002  0.0693 -0.0075
    2CHTO   C85  546   4.285   5.562  -1.050  0.3461  0.0680  1.0418
    2CHTO  H157  547   4.178   5.540  -1.033 -0.7786  2.0774 -2.9182
    2CHTO   C83  548   4.324   5.504  -1.193 -0.2451  0.4432 -0.7263
    2CHTO  H155  549   4.293   5.402  -1.211  0.0404  0.3230 -0.5398
    2CHTO   O56  550   4.461   5.513  -1.208 -0.1177  0.4991 -0.2464
    2CHTO  H135  551   4.483   5.471  -1.289  1.2876  1.3291 -0.3105
    2CHTO   C81  552   4.264   5.596  -1.302  0.2457  0.0282 -0.1698
    2CHTO  H153  553   4.156   5.600  -1.287  0.2333 -0.4491 -0.1383
    2CHTO   N14  554   4.272   5.546  -1.441 -0.8603  0.5211 -0.0277
    2CHTO  H141  555   4.185   5.494  -1.475 -0.5651 -0.7076  1.0311
    2CHTO  H142  556   4.352   5.475  -1.431 -0.4312  1.1044  0.7395
    2CHTO   C79  557   4.310   5.745  -1.281  0.1150  0.1473 -0.4856
    2CHTO  H151  558   4.258   5.804  -1.356 -1.8646  0.0251  0.7538
    2CHTO   O52  559   4.293   5.800  -1.150 -0.0999  0.2451 -0.2997
    2CHTO   C86  560   4.318   5.713  -1.033  0.0901 -0.0816  0.3126
    2CHTO  H158  561   4.426   5.727  -1.014 -0.2955  0.5095  2.1935
    2CHTO   C90  562   4.248   5.766  -0.912  0.0902  0.6118 -0.3477
    2CHTO   O60  563   4.308   5.882  -0.856  0.2205 -0.3620 -0.5581
    2CHTO  H138  564   4.245   5.944  -0.825 -1.2956 -1.5386 -1.2133
    2CHTO   O50  565   4.455   5.774  -1.316  0.0418 -0.4541  0.2400
    2CHTO   C73  566   4.561   5.866  -1.345 -0.6532  0.1541 -0.2098
    2CHTO  H145  567   4.519   5.957  -1.391  0.5868  2.1201  2.3534
    2CHTO   C74  568   4.652   5.790  -1.450  0.4341  1.0920  0.2947
    2CHTO  H146  569   4.592   5.762  -1.537 -0.0444 -2.3812  1.6837
    2CHTO   O54  570   4.754   5.878  -1.489 -0.2488 -0.3008 -0.1833
    2CHTO  H133  571   4.742   5.931  -1.565 -0.1032  1.5814  1.0582
    2CHTO   C75  572   4.719   5.663  -1.380 -0.2882  0.5037  0.2404
    2CHTO  H147  573   4.638   5.593  -1.356 -0.6274  1.4951  2.0662
    2CHTO   N13  574   4.815   5.588  -1.471  0.4537 -0.1255  0.9732
    2CHTO  H139  575   4.774   5.532  -1.554  0.8440  0.9976  0.0013
    2CHTO  H140  576   4.867   5.666  -1.526  2.2705 -2.2560 -0.4408
    2CHTO   C76  577   4.781   5.701  -1.245 -0.3719  0.5749 -0.1083
    2CHTO  H148  578   4.876   5.748  -1.270 -1.1175  0.5998 -3.0733
    2CHTO   O49  579   4.702   5.793  -1.161 -0.5764 -0.4325 -0.0650
    2CHTO   C77  580   4.652   5.906  -1.227  0.2153 -0.6862 -0.4897
    2CHTO  H149  581   4.738   5.965  -1.257  1.1701 -1.7453  0.0958
    2CHTO   C88  582   4.579   5.999  -1.128  0.8217  1.1020 -0.1042
    2CHTO   O58  583   4.694   6.058  -1.015 -0.2582 -0.1350 -0.3404
    2CHTO  H136  584   4.730   6.140  -1.043 -0.6294 -1.3778 -4.7866
    2CHTO   O51  585   4.792   5.557  -1.152  0.5517  0.6753  0.1166
    2CHTO   C78  586   4.914   5.559  -1.025 -0.7823 -0.1350 -0.3939
    2CHTO  H150  587   4.945   5.665  -1.016  0.8668 -0.6305 -0.0156
    2CHTO   C80  588   5.031   5.475  -1.074 -0.2474  0.0374  0.2949
    2CHTO  H152  589   4.997   5.381  -1.123 -0.0577  0.9858 -1.7172
    2CHTO   O55  590   5.105   5.550  -1.176  0.0621  0.0836  0.7375
    2CHTO  H134  591   5.046   5.575  -1.244 -0.2977 -0.4157  0.8629
    2CHTO   C84  592   5.130   5.448  -0.950  0.1387 -0.2123  0.0230
    2CHTO  H156  593   5.192   5.536  -0.938  0.7435 -0.8780  2.0492
    2CHTO   N15  594   5.232   5.341  -0.984  0.2022  0.3007 -0.7562
    2CHTO  H143  595   5.297   5.338  -0.899 -2.4388 -0.1328  1.3008
    2CHTO  H144  596   5.293   5.373  -1.066 -0.6622  1.4928 -0.9446
    2CHTO   C87  597   5.055   5.406  -0.822  0.0249 -0.1110  0.1273
    2CHTO  H159  598   5.002   5.312  -0.841 -2.6246  1.3609 -0.0512
    2CHTO   O53  599   4.949   5.519  -0.794  0.1893 -0.2189  0.2412
    2CHTO   C82  600   4.850   5.506  -0.895 -0.6357 -0.4962  0.4845
    2CHTO  H154  601   4.821   5.402  -0.909 -0.0933 -0.4381 -1.0995
    2CHTO   C89  602   4.728   5.579  -0.840 -0.8336 -0.0290 -0.3181
    2CHTO   O59  603   4.625   5.557  -0.936  0.1158 -0.3300  0.1900
    2CHTO  H137  604   4.633   5.610  -1.013 -0.3723  0.0330  0.3943
    2CHTO   O45  605   5.143   5.385  -0.684 -0.2004 -0.4573  0.1485
    2CHTO   C67  606   5.064   5.325  -0.580 -1.0122  0.2479  0.1262
    2CHTO  H124  607   4.963   5.328  -0.621 -0.6092 -0.7714 -0.9674
    2CHTO   C65  608   5.113   5.172  -0.558 -0.0602 -0.1156  0.8301
    2CHTO  H122  609   5.220   5.168  -0.578 -0.4455 -1.7175 -1.0356
    2CHTO   O44  610   5.058   5.092  -0.666 -0.1701  1.1441 -0.2433
    2CHTO  H102  611   5.056   5.137  -0.748 -0.3737 -0.8984 -1.3916
    2CHTO   C63  612   5.091   5.129  -0.407 -0.1296 -0.4744 -0.1480
    2CHTO  H120  613   5.184   5.156  -0.356 -0.4762 -0.2286  0.3542
    2CHTO   N11  614   5.093   4.982  -0.385 -0.2774  0.6047 -0.1599
    2CHTO  H108  615   5.052   4.929  -0.469 -0.7258  1.2046 -0.3245
    2CHTO  H109  616   5.187   4.942  -0.355  0.8695  1.2465 -2.7650
    2CHTO   C61  617   4.988   5.212  -0.329 -0.1762 -0.6141  0.2379
    2CHTO  H118  618   5.000   5.187  -0.223  3.1746  1.5207  0.4029
    2CHTO   O40  619   5.000   5.358  -0.328  0.1925  0.3852 -0.3018
    2CHTO   C68  620   5.064   5.418  -0.449 -0.6805  0.4353  0.0256
    2CHTO  H125  621   5.172   5.437  -0.437 -0.1103 -3.5720  2.1675
    2CHTO   C72  622   4.993   5.557  -0.472 -0.2014 -0.1534 -0.5453
    2CHTO   O48  623   5.073   5.667  -0.430 -0.0513  0.5588  0.3605
    2CHTO  H105  624   5.025   5.728  -0.378  0.0521 -1.4736  2.9248
    2CHTO   O38  625   4.858   5.175  -0.380  0.1201  0.2841  0.4423
    2CHTO   C55  626   4.753   5.168  -0.288  0.0801  0.4451 -0.9056
    2CHTO  H112  627   4.768   5.227  -0.196 -2.2543  0.1654 -0.3125
    2CHTO   C56  628   4.722   5.016  -0.253  0.0740 -0.5728  0.6595
    2CHTO  H113  629   4.720   4.972  -0.353  0.3049  1.8996 -0.4840
    2CHTO   O42  630   4.834   4.957  -0.185  0.0648  0.4981  0.6535
    2CHTO  H100  631   4.863   4.891  -0.244 -0.0797  1.0140 -0.0015
    2CHTO   C57  632   4.587   5.011  -0.171 -0.6135 -0.0434  0.4192
    2CHTO  H114  633   4.618   5.040  -0.070  1.4430 -0.8901  0.0624
    2CHTO   N10  634   4.534   4.876  -0.151 -0.1500  0.1691 -0.5688
    2CHTO  H106  635   4.464   4.864  -0.070  2.2837  0.2364  1.6315
    2CHTO  H107  636   4.493   4.848  -0.247  3.0727  0.0336 -1.9846
    2CHTO   C58  637   4.473   5.110  -0.222  0.5238 -0.0450 -0.0224
    2CHTO  H115  638   4.428   5.069  -0.315 -1.5173  1.5165  0.2334
    2CHTO   O37  639   4.524   5.240  -0.252  0.1788 -0.3550 -0.1940
    2CHTO   C59  640   4.632   5.236  -0.347 -0.1777 -0.5306 -0.4580
    2CHTO  H116  641   4.610   5.180  -0.438  2.2205  1.0745 -2.0956
    2CHTO   C70  642   4.663   5.376  -0.399 -0.2867 -0.1131 -0.5927
    2CHTO   O46  643   4.711   5.465  -0.297 -0.2627  0.2290  0.3615
    2CHTO  H103  644   4.663   5.468  -0.216  1.5048  2.3254  1.3760
    2CHTO   O39  645   4.346   5.122  -0.103  0.1788  0.3199 -0.4753
    2CHTO   C60  646   4.234   5.191  -0.165  0.3730 -0.3519  0.5374
    2CHTO  H117  647   4.266   5.287  -0.204  1.6244 -1.2206 -0.6369
    2CHTO   C62  648   4.161   5.106  -0.277 -0.0686  0.7335  0.2485
    2CHTO  H119  649   4.227   5.059  -0.352  0.3484  1.4855  0.1445
    2CHTO   O43  650   4.097   4.998  -0.210 -0.1190  0.2362 -0.2885
    2CHTO  H101  651   4.152   4.936  -0.168 -1.5642  0.1432  1.5025
    2CHTO   C66  652   4.041   5.188  -0.353  0.1512 -0.1094 -0.2382
    2CHTO  H123  653   4.085   5.278  -0.394  0.5716 -0.5503 -0.7528
    2CHTO   N12  654   3.978   5.115  -0.470 -0.2208 -0.5264  0.2525
    2CHTO  H110  655   4.038   5.148  -0.554  1.8052 -1.0016  1.4632
    2CHTO  H111  656   3.959   5.009  -0.465  0.1726 -0.6261 -0.2456
    2CHTO   C69  657   3.934   5.235  -0.252  0.4008 -0.1768  0.0580
    2CHTO  H126  658   3.871   5.149  -0.220 -0.2799  0.0880 -0.5595
    2CHTO   O41  659   4.006   5.292  -0.118  0.3683  0.5507 -0.1533
    2CHTO   C64  660   4.133   5.226  -0.051 -0.6291  0.2427 -0.1118
    2CHTO  H121  661   4.109   5.138   0.012  1.5741 -0.3884 -0.0872
    2CHTO   C71  662   4.195   5.345   0.021  0.5823 -0.4669  0.4540
    2CHTO   O47  663   4.110   5.397   0.120  0.2451  0.0525 -0.1599
    2CHTO  H104  664   4.146   5.478   0.151  0.1798 -0.2874  0.8334
    2CHTO   O34  665   3.847   5.333  -0.304  0.2026  0.1738 -0.3042
    2CHTO   C49  666   3.826   5.495  -0.325  0.0101 -0.2595 -0.1132
    2CHTO   H91  667   3.735   5.530  -0.277  0.3680  1.2266 -0.4753
    2CHTO   C47  668   3.807   5.503  -0.473  0.1143  0.1585 -0.8763
    2CHTO   H89  669   3.764   5.604  -0.491 -1.7671 -0.5936 -0.6677
    2CHTO   O33  670   3.705   5.411  -0.512 -0.8097 -0.1132 -0.3154
    2CHTO   H70  671   3.672   5.448  -0.591  0.6274  1.3566 -0.2693
    2CHTO   C45  672   3.953   5.501  -0.560 -0.0776 -0.7395  0.0187
    2CHTO   H87  673   4.005   5.405  -0.545 -0.5164 -1.1651 -1.1034
    2CHTO    N8  674   3.933   5.513  -0.703 -0.1626  0.1267  0.3154
    2CHTO   H75  675   3.831   5.533  -0.732 -0.3487 -0.7248  0.3750
    2CHTO   H76  676   4.000   5.586  -0.746  2.2103 -0.8244  2.2962
    2CHTO   C43  677   4.055   5.614  -0.499 -0.0647 -0.4225  0.0574
    2CHTO   H85  678   4.148   5.591  -0.550 -0.1258  1.1970 -0.8175
    2CHTO   O29  679   4.062   5.591  -0.360  0.2285  0.0385  0.5176
    2CHTO   C50  680   3.945   5.585  -0.278 -0.3614 -0.1808 -0.3709
    2CHTO   H92  681   3.967   5.539  -0.181 -1.6935  0.2681  0.1615
    2CHTO   C54  682   3.886   5.730  -0.254  0.5439  1.1210 -0.4952
    2CHTO   O36  683   3.790   5.723  -0.148 -0.8144  0.1337 -0.5374
    2CHTO   H72  684   3.851   5.732  -0.078  2.1479 -0.5455 -2.9119
    2CHTO   O27  685   4.011   5.751  -0.525  0.0519  0.6929  1.0007
    2CHTO   C37  686   3.996   5.875  -0.605 -0.6817  0.2845  0.3070
    2CHTO   H79  687   4.022   5.861  -0.711 -2.8454 -1.5469 -0.0102
    2CHTO   C38  688   3.849   5.922  -0.596 -0.0304 -0.0207  0.1439
    2CHTO   H80  689   3.814   5.911  -0.492 -0.7732 -0.3303 -0.1391
    2CHTO   O31  690   3.764   5.836  -0.681 -0.3037  0.2099 -0.1164
    2CHTO   H68  691   3.747   5.867  -0.768 -0.8000 -1.8631 -0.7788
    2CHTO   C39  692   3.829   6.074  -0.639  0.0132 -0.0103  0.2053
    2CHTO   H81  693   3.852   6.081  -0.745  0.2058 -0.0959  0.2412
    2CHTO    N7  694   3.687   6.124  -0.617  1.4314  0.5112 -0.0524
    2CHTO   H73  695   3.669   6.136  -0.511  0.8992  0.4365 -0.1317
    2CHTO   H74  696   3.669   6.218  -0.666 -3.4685  1.0386  2.4069
    2CHTO   C40  697   3.931   6.155  -0.553  0.0006  0.1896  0.0473
    2CHTO   H82  698   3.900   6.143  -0.449 -1.1470  0.1490 -0.3025
    2CHTO   O26  699   4.063   6.110  -0.578 -0.1306 -0.3302  0.1902
    2CHTO   C41  700   4.094   5.979  -0.540  0.1146 -0.3787 -0.1560
    2CHTO   H83  701   4.090   5.962  -0.431 -0.8573  3.2130  0.4173
    2CHTO   C52  702   4.244   5.951  -0.586 -0.2466  0.4031 -0.2464
    2CHTO   O35  703   4.290   5.832  -0.552  0.3444 -0.0935  0.6740
    2CHTO   H71  704   4.249   5.807  -0.472 -2.8992  1.5957 -0.3832
    2CHTO   O28  705   3.933   6.289  -0.592  0.3393  0.2109 -0.8157
    2CHTO   C42  706   3.978   6.401  -0.513 -0.4337 -0.0246 -0.1257
    2CHTO   H84  707   3.964   6.488  -0.578  1.7085 -0.2293 -0.9066
    2CHTO   C44  708   4.131   6.395  -0.472  0.3254 -0.6064  0.2651
    2CHTO   H86  709   4.151   6.310  -0.407  1.3222 -0.8029 -0.2896
    2CHTO   O32  710   4.217   6.388  -0.587 -0.5467 -0.1775 -0.3365
    2CHTO   H69  711   4.177   6.403  -0.671 -0.8236 -0.1229 -0.1952
    2CHTO   C48  712   4.160   6.527  -0.385 -0.0290  0.6922 -0.9988
    2CHTO   H90  713   4.148   6.619  -0.443 -1.9346  0.6501 -0.6891
    2CHTO    N9  714   4.302   6.528  -0.338  0.5809  0.2125  0.0980
    2CHTO   H77  715   4.315   6.456  -0.259 -1.0060 -0.2384 -0.0277
    2CHTO   H78  716   4.324   6.630  -0.310  1.1601 -0.4137  2.0247
    2CHTO   C51  717   4.054   6.531  -0.267 -0.3328 -0.4054  0.3160
    2CHTO   H93  718   4.068   6.436  -0.215 -1.1521 -0.2982  0.7438
    2CHTO   O30  719   3.924   6.545  -0.310 -0.1798  0.1273  0.5067
    2CHTO   C46  720   3.885   6.426  -0.385  0.8611 -0.1466 -0.5621
    2CHTO   H88  721   3.885   6.337  -0.322  0.0241  0.2992  0.0741
    2CHTO   C53  722   3.745   6.447  -0.435  0.0614  0.3009 -0.3998
    2CHTO   O72  723   3.644   6.412  -0.337 -0.7396  0.9442  0.2052
    2CHTO  H199  724   3.645   6.318  -0.334 -0.7700  0.9633  0.9775
    2CHTO   O22  725   4.086   6.644  -0.180  0.3401 -0.2468  0.2799
    2CHTO   C31  726   4.027   6.670  -0.048  0.4310  0.5206 -0.5324
    2CHTO   H59  727   4.113   6.681   0.021  0.3262  1.9744 -0.5989
    2CHTO   C29  728   3.950   6.807  -0.047  0.3546  0.6026 -0.4623
    2CHTO   H57  729   3.883   6.801  -0.134 -1.4047 -1.6891  0.9797
    2CHTO   O21  730   4.049   6.911  -0.080  0.3056  0.4420 -0.5289
    2CHTO   H37  731   4.134   6.901  -0.041 -0.8778 -0.1284  2.0022
    2CHTO   C27  732   3.863   6.830   0.081  0.2884  0.5453 -0.4439
    2CHTO   H55  733   3.929   6.840   0.168 -0.1400 -2.3519  0.2613
    2CHTO    N5  734   3.780   6.951   0.070 -0.4565  0.1052 -1.0419
    2CHTO   H43  735   3.842   7.039   0.063  0.0286  0.0140  1.5726
    2CHTO   H44  736   3.717   6.947  -0.018 -0.4133  2.8749 -1.2347
    2CHTO   C25  737   3.780   6.704   0.129  0.2858 -0.5060 -0.1027
    2CHTO   H53  738   3.695   6.679   0.063 -2.5204  1.4028  2.6599
    2CHTO   O17  739   3.868   6.592   0.134  0.0267 -0.1768  0.0111
    2CHTO   C32  740   3.930   6.556   0.013 -0.0413  0.3656 -0.1661
    2CHTO   H60  741   3.855   6.538  -0.064 -1.3092  2.8491  0.4229
    2CHTO   C36  742   4.019   6.435   0.033  0.2272 -0.0772  0.3066
    2CHTO   O25  743   3.934   6.322   0.017  0.4578 -0.4318 -0.4478
    2CHTO   H40  744   3.987   6.245   0.021  0.6937 -0.4212 -2.8078
    2CHTO   O15  745   3.738   6.727   0.259 -1.0162  0.0780  0.4058
    2CHTO   C19  746   3.648   6.718   0.373 -0.1528 -0.3722 -0.0501
    2CHTO   H47  747   3.566   6.790   0.359 -1.0155 -0.6889  2.9338
    2CHTO   C20  748   3.588   6.581   0.382 -0.6154  0.1025  0.1822
    2CHTO   H48  749   3.664   6.504   0.403 -3.7218 -2.5566  1.9836
    2CHTO   O19  750   3.524   6.544   0.256  0.1989 -0.7069 -0.0764
    2CHTO   H35  751   3.524   6.452   0.235  1.2660 -0.7840  0.1872
    2CHTO   C21  752   3.491   6.575   0.499  0.3696 -0.1131  0.4222
    2CHTO   H49  753   3.418   6.655   0.482 -0.3569 -0.5735  1.2932
    2CHTO    N4  754   3.430   6.438   0.511  0.4426  0.1963 -0.0348
    2CHTO   H41  755   3.508   6.363   0.515  1.9766  1.7924  0.4458
    2CHTO   H42  756   3.371   6.416   0.424  0.6685 -1.2750  0.1601
    2CHTO   C22  757   3.562   6.626   0.629 -0.1536 -0.3155 -0.1870
    2CHTO   H50  758   3.641   6.552   0.646  0.2901  0.3291  0.5589
    2CHTO   O14  759   3.621   6.756   0.613 -0.4612 -0.3196  0.7107
    2CHTO   C23  760   3.714   6.760   0.505 -0.3991  0.0833 -0.1797
    2CHTO   H51  761   3.799   6.694   0.526 -0.3131 -0.1159 -1.1038
    2CHTO   C34  762   3.767   6.900   0.492 -0.2616 -0.6506 -0.2575
    2CHTO   O23  763   3.846   6.957   0.592  0.5607 -0.1824 -0.1840
    2CHTO   H38  764   3.870   7.046   0.573  0.6432 -0.2102 -0.2110
    2CHTO   O16  765   3.477   6.637   0.745  0.2609  0.0841  0.5183
    2CHTO   C24  766   3.539   6.583   0.878  0.2258 -0.5990 -0.1405
    2CHTO   H52  767   3.647   6.596   0.877  0.7319 -4.2277 -0.9129
    2CHTO   C26  768   3.496   6.438   0.917 -0.2493  0.2528 -0.7864
    2CHTO   H54  769   3.388   6.423   0.894 -0.2976 -1.4968  0.4735
    2CHTO   O20  770   3.562   6.342   0.827 -0.3078 -0.5516  0.3440
    2CHTO   H36  771   3.651   6.343   0.857  0.7528  0.3287 -2.6743
    2CHTO   C30  772   3.512   6.399   1.068  0.0581  0.4958  0.8464
    2CHTO   H58  773   3.619   6.406   1.095 -0.3851  3.0398  2.0041
    2CHTO    N6  774   3.464   6.262   1.092  0.6397  0.4836 -0.7867
    2CHTO   H45  775   3.369   6.235   1.047  0.5077 -0.1894 -0.1177
    2CHTO   H46  776   3.542   6.190   1.070 -0.4762 -0.2994 -2.3171
    2CHTO   C33  777   3.442   6.508   1.155  0.1067  0.0208  0.3528
    2CHTO   H61  778   3.337   6.519   1.126  0.0880 -1.8003 -0.2933
    2CHTO   O18  779   3.516   6.634   1.123  0.4742  0.1231 -0.4817
    2CHTO   C28  780   3.480   6.682   0.990  0.3315  0.2168 -0.4870
    2CHTO   H56  781   3.371   6.686   0.983  0.4363  2.7104 -1.0744
    2CHTO   C35  782   3.541   6.826   0.971  0.0173  0.2525 -0.0400
    2CHTO   O24  783   3.491   6.893   0.857 -0.2322 -0.1686  0.2824
    2CHTO   H39  784   3.517   6.835   0.788  1.5880 -0.7590  1.4339
    2CHTO    O9  785   3.432   6.485   1.294 -0.0555  0.2364  0.1982
    2CHTO   C13  786   3.353   6.592   1.395 -0.1513  0.3435 -0.2914
    2CHTO   H26  787   3.259   6.623   1.344  0.7339  0.6528 -1.7574
    2CHTO   C11  788   3.448   6.717   1.416 -0.2587  0.0179  0.6734
    2CHTO   H24  789   3.450   6.783   1.328 -0.9192  1.0595  1.4243
    2CHTO    O8  790   3.584   6.669   1.430 -0.3919 -0.3560  0.1153
    2CHTO    H3  791   3.615   6.648   1.344  0.4076 -1.6009  0.7051
    2CHTO    C9  792   3.399   6.802   1.534  0.5096 -0.1338 -0.4555
    2CHTO   H22  793   3.289   6.809   1.523  0.6009  1.9309 -0.3495
    2CHTO    N2  794   3.449   6.946   1.529  0.2236  0.1636 -0.0508
    2CHTO   H10  795   3.512   6.961   1.442  1.2461  0.4073  0.7295
    2CHTO   H11  796   3.504   6.976   1.617  0.3333 -0.2809  0.0350
    2CHTO    C7  797   3.417   6.718   1.666  0.1105 -0.2203 -0.0206
    2CHTO   H20  798   3.330   6.751   1.726 -0.7523 -0.5917 -1.0523
    2CHTO    O4  799   3.408   6.577   1.642 -0.3885  0.4545 -0.1545
    2CHTO   C14  800   3.312   6.532   1.543 -0.3576  0.7562  0.2945
    2CHTO   H27  801   3.206   6.563   1.560 -0.1422  1.0872  1.0694
    2CHTO   C18  802   3.306   6.383   1.540 -0.1901 -0.2917 -0.6420
    2CHTO   O13  803   3.248   6.314   1.653  0.4698  0.1105  0.0193
    2CHTO    H7  804   3.156   6.331   1.660  0.5930  1.0036 -0.5928
    2CHTO    O2  805   3.568   6.755   1.742  0.2184 -0.6608 -0.1658
    2CHTO    C1  806   3.563   6.767   1.885  0.1290 -0.1122  1.1567
    2CHTO   H14  807   3.480   6.715   1.936  0.5738 -0.9163  1.0620
    2CHTO    C2  808   3.563   6.912   1.943  0.7880  0.2415  0.4644
    2CHTO   H15  809   3.652   6.964   1.905  0.9489  0.0500  0.5876
    2CHTO    O6  810   3.443   6.983   1.892 -0.1704 -0.2852 -0.7205
    2CHTO    H1  811   3.418   7.051   1.951 -0.5175  0.1066 -1.3106
    2CHTO    C3  812   3.568   6.907   2.106 -0.8134 -0.4806 -0.6926
    2CHTO   H16  813   3.474   6.860   2.140 -1.0359  0.0314 -0.5960
    2CHTO    N1  814   3.564   7.036   2.171 -0.5119 -0.1127  0.8745
    2CHTO    H8  815   3.523   7.107   2.101 -0.7674 -2.1926 -1.1365
    2CHTO    H9  816   3.659   7.064   2.215  0.4809 -2.0658  0.0521
    2CHTO    C4  817   3.689   6.820   2.154  0.1883 -0.0883 -0.0911
    2CHTO   H17  818   3.784   6.872   2.139 -0.3350  1.5207  1.9179
    2CHTO    O1  819   3.683   6.694   2.088 -0.4262  0.1003 -0.4659
    2CHTO    C5  820   3.691   6.700   1.943 -0.3359 -0.3669 -0.6679
    2CHTO   H18  821   3.774   6.764   1.913 -1.3027 -0.1718 -3.0327
    2CHTO   C16  822   3.711   6.556   1.890  0.6359  0.5169 -0.0552
    2CHTO   O11  823   3.745   6.549   1.752 -0.5402 -0.5252 -0.6584
    2CHTO    H5  824   3.837   6.559   1.734  0.2093 -1.5507  2.1689
    2CHTO    O3  825   3.680   6.797   2.299 -0.5041 -0.4687  0.1219
    2CHTO    C6  826   3.799   6.738   2.354  0.0434 -0.2426  0.8717
    2CHTO   H19  827   3.876   6.704   2.284 -0.4170 -1.7117  1.0793
    2CHTO    C8  828   3.866   6.844   2.445  0.0584  1.1471  0.0511
    2CHTO   H21  829   3.802   6.869   2.530 -1.5583  0.5582 -0.9645
    2CHTO    O7  830   3.892   6.960   2.369 -0.1722  0.6221  0.4161
    2CHTO    H2  831   3.891   7.040   2.419 -1.0546  0.7590  0.1998
    2CHTO   C12  832   3.999   6.788   2.509 -0.4094  0.6940  0.7727
    2CHTO   H25  833   4.057   6.775   2.415 -0.5157 -0.7811  0.9033
    2CHTO    N3  834   4.077   6.876   2.595  0.2780 -0.5076  0.1087
    2CHTO   H12  835   4.080   6.845   2.699 -0.1855  0.3948  0.3888
    2CHTO   H13  836   4.180   6.884   2.562  0.2602  2.0979  0.6103
    2CHTO   C15  837   3.972   6.639   2.569  0.1708  0.1611 -0.2746
    2CHTO   H28  838   3.923   6.639   2.667 -0.1994  0.6387 -0.4607
    2CHTO   O10  839   4.107   6.548   2.577 -0.1851 -0.2775 -0.3019
    2CHTO    H4  840   4.163   6.565   2.504  0.2148  2.1499  0.5343
    2CHTO    O5  841   3.891   6.558   2.474  0.3481 -0.3081  0.3796
    2CHTO   C10  842   3.759   6.614   2.443 -0.5131 -0.1218 -0.9965
    2CHTO   H23  843   3.705   6.639   2.534 -0.5674  0.2504 -1.1279
    2CHTO   C17  844   3.692   6.494   2.368  0.3300 -0.2766  0.1571
    2CHTO   O12  845   3.564   6.527   2.318 -0.0711  0.2270  0.2557
    2CHTO    H6  846   3.502   6.510   2.387 -0.4877 -1.0292 -0.4365
    3CHTO  H203  847   5.851   1.831   1.635  0.1489 -1.1987  0.1037
    3CHTO   O82  848   5.920   1.824   1.697  0.0992 -0.2038  0.2805
    3CHTO  C123  849   6.036   1.740   1.659 -0.9544 -0.0776  0.4660
    3CHTO  H227  850   6.011   1.667   1.580  1.4919 -3.1802  2.4314
    3CHTO   O77  851   6.132   1.841   1.629 -0.1650  0.1973  0.3348
    3CHTO  C118  852   6.259   1.801   1.585 -0.5942  0.3245  0.3490
    3CHTO  H222  853   6.244   1.727   1.505  0.2807 -0.5074  0.9350
    3CHTO  C125  854   6.349   1.909   1.529  0.1635  0.0706 -0.6425
    3CHTO   O84  855   6.468   1.872   1.454  0.0761 -0.0078  0.0977
    3CHTO  H205  856   6.459   1.896   1.364  0.9392  0.7257  0.2056
    3CHTO  C114  857   6.329   1.731   1.704 -0.3675  0.2309  0.6671
    3CHTO  H218  858   6.333   1.803   1.786  1.1055  0.4592  0.4131
    3CHTO  C116  859   6.243   1.612   1.754 -0.7071 -0.4347 -0.1657
    3CHTO  H220  860   6.244   1.538   1.671  0.6321 -2.3071  1.4698
    3CHTO   O79  861   6.299   1.544   1.865 -0.0908  0.2860  0.2272
    3CHTO  H201  862   6.310   1.605   1.936 -0.8884  0.1214  0.4919
    3CHTO  C120  863   6.090   1.656   1.783 -0.6416 -0.4967  0.4224
    3CHTO  H224  864   6.081   1.715   1.876 -1.7090 -0.5384  0.3483
    3CHTO   N21  865   5.997   1.541   1.814  0.1026 -0.1181 -0.4107
    3CHTO  H211  866   5.996   1.458   1.746 -1.7052  0.9151 -1.6839
    3CHTO  H212  867   5.899   1.574   1.845  0.4326  0.1192  0.4154
    3CHTO   O75  868   6.468   1.708   1.666 -0.2373 -0.3193  0.1485
    3CHTO  C112  869   6.544   1.563   1.707 -0.5807  0.6033  0.0715
    3CHTO  H216  870   6.473   1.479   1.709 -0.6070  0.5558 -1.6000
    3CHTO   O73  871   6.612   1.587   1.836  0.2992  0.0804  0.3036
    3CHTO  C113  872   6.649   1.466   1.903  0.1263  0.6080  0.7425
    3CHTO  H217  873   6.553   1.432   1.948 -1.2977  2.9541 -0.4224
    3CHTO  C124  874   6.744   1.510   2.013  0.1065 -0.8187  0.3450
    3CHTO   O83  875   6.780   1.412   2.103  0.2960  0.8570  0.3143
    3CHTO  H204  876   6.842   1.355   2.062 -1.1246  0.6862 -1.6685
    3CHTO  C109  877   6.695   1.347   1.806 -0.0533  0.0972  0.6523
    3CHTO  H213  878   6.778   1.297   1.857  0.9584  0.4872 -0.5924
    3CHTO  C110  879   6.736   1.390   1.668  0.5047 -0.1949  0.7891
    3CHTO  H214  880   6.730   1.304   1.601  1.9174  0.1884  0.1464
    3CHTO   O78  881   6.877   1.418   1.669  0.0551 -0.4823  0.1238
    3CHTO  H200  882   6.918   1.340   1.703  0.8746 -0.1333 -0.0561
    3CHTO  C111  883   6.661   1.516   1.611  0.4618  0.3682 -0.4190
    3CHTO  H215  884   6.730   1.602   1.609  0.7488  0.1468 -0.1861
    3CHTO   N19  885   6.612   1.496   1.471 -0.1231  0.0830  0.2173
    3CHTO  H207  886   6.638   1.397   1.438  0.6042  0.1782  0.4950
    3CHTO  H208  887   6.632   1.579   1.405 -1.6052  0.4583  0.2118
    3CHTO   O74  888   6.577   1.262   1.782 -0.1017  0.4737 -0.0247
    3CHTO  C115  889   6.606   1.127   1.812 -0.4184 -0.1193  0.8408
    3CHTO  H219  890   6.708   1.101   1.783 -0.0248  1.2116  1.0203
    3CHTO   O76  891   6.595   1.096   1.961 -0.0163  0.1275 -0.0769
    3CHTO  C122  892   6.463   1.116   2.012  0.0085 -0.1126 -0.7260
    3CHTO  H226  893   6.447   1.223   2.026 -0.7348 -0.4601  1.1087
    3CHTO  C126  894   6.447   1.067   2.154  0.4378 -0.4562  0.0828
    3CHTO   O85  895   6.502   1.161   2.250  0.3575 -0.1931  0.3241
    3CHTO  H206  896   6.590   1.141   2.275  0.4154  0.3159  0.5362
    3CHTO  C121  897   6.343   1.069   1.921  0.4074 -1.0167 -0.0717
    3CHTO  H225  898   6.266   1.029   1.990 -0.4386  0.3605 -0.1854
    3CHTO   O81  899   6.291   1.187   1.854  0.1564  0.1356 -0.4519
    3CHTO  H202  900   6.213   1.170   1.804 -1.3209 -1.4919  2.2827
    3CHTO  C119  901   6.394   0.964   1.828 -0.0748 -0.5207 -0.2810
    3CHTO  H223  902   6.444   0.895   1.896 -1.2679  0.7317  1.9382
    3CHTO  C117  903   6.506   1.028   1.726 -0.0480 -0.9016  0.5410
    3CHTO  H221  904   6.472   1.096   1.648 -0.8802  2.0915  3.3946
    3CHTO   N20  905   6.583   0.926   1.653 -0.0593  0.7185  0.4512
    3CHTO  H209  906   6.557   0.920   1.548 -0.6877 -1.4485  0.7041
    3CHTO  H210  907   6.557   0.830   1.695 -0.4461  0.3527 -0.6010
    3CHTO   O80  908   6.288   0.868   1.759  0.0499  0.0653 -0.4084
    3CHTO  C103  909   6.210   0.766   1.841 -0.1080  0.4217 -0.1927
    3CHTO  H190  910   6.254   0.754   1.940  0.2018 -1.0653 -0.5097
    3CHTO  C101  911   6.055   0.804   1.870  0.4669  0.3613  0.5664
    3CHTO  H188  912   6.015   0.855   1.782 -0.4022  1.1383  1.3897
    3CHTO   O68  913   6.050   0.906   2.005  0.1333 -0.2319  0.2692
    3CHTO  H168  914   5.966   0.913   2.047  0.1807  2.4275  0.0406
    3CHTO   C99  915   5.970   0.667   1.896  0.0812  0.0092  0.4964
    3CHTO  H186  916   6.004   0.622   1.991 -1.0705  1.2757  1.5311
    3CHTO   N17  917   5.822   0.695   1.901  0.2540 -0.2678  0.1644
    3CHTO  H174  918   5.791   0.789   1.943  1.0151  0.6763 -1.3191
    3CHTO  H175  919   5.784   0.685   1.800 -0.0259  3.1234 -0.1230
    3CHTO   C97  920   6.007   0.564   1.789 -0.4356 -0.9180  0.2741
    3CHTO  H184  921   5.985   0.599   1.687 -1.9942 -0.9899  0.5843
    3CHTO   O64  922   6.146   0.525   1.807  0.1326 -0.0092 -0.0477
    3CHTO  C104  923   6.232   0.629   1.760 -0.6399  0.0798 -0.1830
    3CHTO  H191  924   6.205   0.642   1.655 -3.2976 -1.4535  0.2605
    3CHTO  C108  925   6.385   0.590   1.761 -0.0617 -0.2774 -0.3038
    3CHTO   O71  926   6.416   0.463   1.706 -0.2679 -0.7169  0.0117
    3CHTO  H171  927   6.506   0.440   1.723 -0.3798  0.3211  2.1724
    3CHTO   O62  928   5.937   0.434   1.813  0.7903  0.1404 -0.0302
    3CHTO   C91  929   5.907   0.351   1.695  0.1212 -0.6466 -0.1536
    3CHTO  H178  930   5.975   0.383   1.616  0.5529 -1.4560 -0.1181
    3CHTO   C92  931   5.760   0.381   1.640 -0.4261 -0.1746 -0.2831
    3CHTO  H179  932   5.693   0.368   1.726 -0.0614  2.2948  0.3978
    3CHTO   O66  933   5.761   0.516   1.595  0.4283  0.2803  0.5858
    3CHTO  H166  934   5.669   0.536   1.592  0.5920  1.3402  2.2085
    3CHTO   C93  935   5.729   0.288   1.518  0.4615  0.2538  0.4420
    3CHTO  H180  936   5.780   0.330   1.430 -1.6652 -0.2197 -1.0391
    3CHTO   N16  937   5.586   0.289   1.472  0.3624  0.7049  0.3882
    3CHTO  H172  938   5.514   0.243   1.539  0.1919  0.6376  0.1583
    3CHTO  H173  939   5.570   0.247   1.374 -1.8290  1.3079  0.4703
    3CHTO   C94  940   5.777   0.141   1.532  0.3798 -0.0639 -0.0436
    3CHTO  H181  941   5.717   0.079   1.599  1.1011  0.2499  0.9033
    3CHTO   O61  942   5.912   0.132   1.579 -0.6621 -0.4511 -1.2937
    3CHTO   C95  943   5.924   0.196   1.710 -0.9740  0.0198  0.0335
    3CHTO  H182  944   5.844   0.166   1.778  0.4361 -1.2563  1.1801
    3CHTO  C106  945   6.062   0.158   1.777  0.0434 -0.6231 -0.3190
    3CHTO   O69  946   6.176   0.223   1.718 -0.6340 -0.0716  0.3073
    3CHTO  H169  947   6.246   0.189   1.769  1.5215  1.4466 -1.5734
    3CHTO   O63  948   5.784   0.072   1.396 -0.1405 -0.0508 -0.3592
    3CHTO   C96  949   5.786  -0.087   1.390  0.3991  0.0694  0.1284
    3CHTO  H183  950   5.732  -0.130   1.474  0.2414 -0.3607 -0.1886
    3CHTO   C98  951   5.930  -0.156   1.383 -0.7049 -0.2042 -1.1540
    3CHTO  H185  952   5.994  -0.123   1.299 -0.5128  0.9023 -0.5785
    3CHTO   O67  953   6.006  -0.119   1.505 -0.5894  0.3326 -0.6379
    3CHTO  H167  954   6.030  -0.029   1.510 -0.7262  0.3553 -0.3499
    3CHTO  C102  955   5.917  -0.314   1.380  0.2602  0.2035 -0.6978
    3CHTO  H189  956   5.928  -0.346   1.485 -2.2549  0.3062 -0.3779
    3CHTO   N18  957   6.031  -0.377   1.310 -0.8780 -0.4965 -0.2268
    3CHTO  H176  958   6.040  -0.483   1.325  2.4331 -0.6428 -2.6019
    3CHTO  H177  959   6.121  -0.318   1.320 -0.8455 -0.8218  1.5747
    3CHTO  C105  960   5.774  -0.355   1.328 -0.2793 -0.6685  0.1049
    3CHTO  H192  961   5.770  -0.455   1.284 -0.7839 -0.6984  0.2249
    3CHTO   O65  962   5.726  -0.269   1.221  0.1522  0.0848 -0.1572
    3CHTO  C100  963   5.701  -0.134   1.266  0.0955 -0.8084  0.2546
    3CHTO  H187  964   5.724  -0.067   1.182 -2.2944 -1.5133 -0.9983
    3CHTO  C107  965   5.549  -0.118   1.290  0.3134  0.2840 -0.3686
    3CHTO   O70  966   5.497  -0.119   1.155 -0.1669  0.4507  0.3065
    3CHTO  H170  967   5.405  -0.131   1.160 -0.0975  0.0392  0.6194
    3CHTO   O57  968   5.697  -0.353   1.458 -0.0342  0.0998  0.1582
    3CHTO   C85  969   5.630  -0.474   1.504  0.2810 -0.9342 -0.0514
    3CHTO  H157  970   5.692  -0.563   1.478 -0.5961 -1.7792  0.7222
    3CHTO   C83  971   5.493  -0.504   1.433 -0.1274 -0.4040  0.4473
    3CHTO  H155  972   5.510  -0.525   1.328 -1.2160 -1.1896  0.4217
    3CHTO   O56  973   5.421  -0.384   1.419  0.1726  1.0178 -0.1543
    3CHTO  H135  974   5.416  -0.336   1.339 -3.7980 -0.9388 -1.2145
    3CHTO   C81  975   5.429  -0.631   1.493  0.2787 -0.1496  0.0767
    3CHTO  H153  976   5.500  -0.713   1.485  0.5817  0.0097  1.0039
    3CHTO   N14  977   5.316  -0.682   1.408  0.2696  0.0846  0.0143
    3CHTO  H141  978   5.355  -0.759   1.344 -0.1014  0.1876 -0.3417
    3CHTO  H142  979   5.255  -0.734   1.479  1.3496 -1.5365 -0.2099
    3CHTO   C79  980   5.394  -0.616   1.639  0.1371  0.3739  0.2855
    3CHTO  H151  981   5.376  -0.715   1.680 -1.3972  0.2658 -0.6191
    3CHTO   O52  982   5.518  -0.573   1.716 -0.0227  0.3445 -0.1833
    3CHTO   C86  983   5.605  -0.467   1.660  0.1240  0.7112  0.3984
    3CHTO  H158  984   5.548  -0.376   1.689  0.4832  1.6918 -1.9217
    3CHTO   C90  985   5.738  -0.469   1.744  0.7005  0.2291  0.6972
    3CHTO   O60  986   5.804  -0.595   1.763  0.2198  0.1881 -0.7161
    3CHTO  H138  987   5.747  -0.664   1.735 -0.3611  0.5260 -0.3861
    3CHTO   O50  988   5.282  -0.529   1.665 -0.3740 -0.4332 -0.1424
    3CHTO   C73  989   5.191  -0.463   1.754 -0.7997 -0.6504  0.8594
    3CHTO  H145  990   5.105  -0.530   1.771  0.2564 -1.3760  3.7040
    3CHTO   C74  991   5.155  -0.319   1.692  0.6955 -0.6248  0.3242
    3CHTO  H146  992   5.109  -0.336   1.593  1.7846 -0.4287 -0.2214
    3CHTO   O54  993   5.056  -0.255   1.777 -0.5894  0.3589  0.1098
    3CHTO  H133  994   5.078  -0.260   1.868 -0.2010  1.1646  0.0686
    3CHTO   C75  995   5.287  -0.241   1.682 -0.3136  0.9585 -0.1147
    3CHTO  H147  996   5.359  -0.301   1.624 -0.4789  1.7105 -1.1012
    3CHTO   N13  997   5.287  -0.120   1.605  0.2496 -0.2247  0.3034
    3CHTO  H139  998   5.381  -0.067   1.610 -0.3169  0.7280  1.2508
    3CHTO  H140  999   5.269  -0.143   1.501 -0.4197  0.0645  0.3557
    3CHTO   C76 1000   5.345  -0.223   1.828  0.3137 -0.1020 -0.2724
    3CHTO  H148 1001   5.270  -0.169   1.884  0.9029  0.4660 -0.0214
    3CHTO   O49 1002   5.368  -0.359   1.894  0.3921 -0.7311  0.2208
    3CHTO   C77 1003   5.253  -0.441   1.894 -0.1974  0.5485  0.4143
    3CHTO  H149 1004   5.176  -0.405   1.962  0.3451  2.5792  0.0064
    3CHTO   C88 1005   5.284  -0.576   1.955 -0.6173  0.1615 -0.1228
    3CHTO   O58 1006   5.329  -0.561   2.104 -0.0859 -0.3010  0.5339
    3CHTO  H136 1007   5.421  -0.541   2.104 -0.1572  0.1837 -1.5958
    3CHTO   O51 1008   5.502  -0.150   1.828  0.2061 -0.3559 -0.3675
    3CHTO   C78 1009   5.524  -0.071   1.934 -0.8960 -0.4123  0.0634
    3CHTO  H150 1010   5.469  -0.108   2.024  1.6007 -2.5405  0.7619
    3CHTO   C80 1011   5.492   0.079   1.909 -0.9864 -0.4678  0.1458
    3CHTO  H152 1012   5.552   0.113   1.822  0.5967  0.4805  1.5946
    3CHTO   O55 1013   5.352   0.086   1.881 -0.5352  0.0451  0.6810
    3CHTO  H134 1014   5.330   0.067   1.792  3.7653 -0.2310 -0.4384
    3CHTO   C84 1015   5.542   0.172   2.027 -0.1667  0.0548 -0.4961
    3CHTO  H156 1016   5.482   0.150   2.115 -1.7331 -2.4485 -2.1208
    3CHTO   N15 1017   5.517   0.316   1.992  0.1037  0.4870 -0.3006
    3CHTO  H143 1018   5.565   0.332   1.897 -0.0876  1.7977 -0.1847
    3CHTO  H144 1019   5.411   0.327   1.981 -0.1136  0.6691  1.8238
    3CHTO   C87 1020   5.693   0.143   2.054  0.5220 -0.1463 -0.3932
    3CHTO  H159 1021   5.763   0.169   1.975 -0.7369 -1.4070 -1.9746
    3CHTO   O53 1022   5.706  -0.016   2.086 -0.1062 -0.2455  0.8657
    3CHTO   C82 1023   5.672  -0.098   1.974  0.1864  0.0370  0.2784
    3CHTO  H154 1024   5.733  -0.088   1.884 -0.3379 -1.0026 -0.1985
    3CHTO   C89 1025   5.693  -0.240   2.024 -0.0948  0.8992 -0.3473
    3CHTO   O59 1026   5.832  -0.270   2.009  0.3603 -0.0986  0.0490
    3CHTO  H137 1027   5.843  -0.358   2.039 -0.3912  0.4230  1.9781
    3CHTO   O45 1028   5.732   0.206   2.172  0.0393 -0.3580  0.7789
    3CHTO   C67 1029   5.860   0.276   2.180  0.1645  0.0463 -0.4636
    3CHTO  H124 1030   5.902   0.298   2.082  4.1360  1.8642  1.5476
    3CHTO   C65 1031   5.831   0.413   2.254 -0.9386 -0.3587 -0.3954
    3CHTO  H122 1032   5.722   0.413   2.262 -0.7725 -1.3479  2.7529
    3CHTO   O44 1033   5.882   0.515   2.175 -0.0538  0.4639  0.7159
    3CHTO  H102 1034   5.961   0.547   2.213  0.1455  1.0306 -0.1612
    3CHTO   C63 1035   5.892   0.401   2.404  0.4631 -0.8842  1.0765
    3CHTO  H120 1036   5.855   0.313   2.457  1.4411 -1.1652  1.3107
    3CHTO   N11 1037   5.856   0.520   2.492  0.4600  1.0309 -0.1351
    3CHTO  H108 1038   5.792   0.593   2.446  1.8162  2.2719 -0.0966
    3CHTO  H109 1039   5.952   0.557   2.523 -0.1738  2.4893  0.1571
    3CHTO   C61 1040   6.050   0.385   2.399  0.5413 -0.3118 -0.0069
    3CHTO  H118 1041   6.075   0.376   2.506 -2.5845  2.6542  1.0671
    3CHTO   O40 1042   6.079   0.261   2.333 -0.4088  0.1753 -0.0548
    3CHTO   C68 1043   5.973   0.187   2.255  0.0316 -0.9443 -0.4030
    3CHTO  H125 1044   5.919   0.122   2.328 -0.7488 -1.3747 -1.3380
    3CHTO   C72 1045   6.049   0.091   2.163  0.7975 -0.3900  0.0248
    3CHTO   O48 1046   5.979   0.027   2.055  0.1932 -0.4910 -0.5444
    3CHTO  H105 1047   6.015  -0.059   2.047  0.1105 -0.5969  0.2180
    3CHTO   O38 1048   6.114   0.498   2.336  0.2222  0.1359 -0.5903
    3CHTO   C55 1049   6.250   0.521   2.377 -0.8440 -0.5048 -0.1215
    3CHTO  H112 1050   6.306   0.426   2.387  0.4136  0.2799  0.3738
    3CHTO   C56 1051   6.254   0.609   2.510  0.0758  0.1987 -1.0736
    3CHTO  H113 1052   6.211   0.706   2.481 -0.8786 -0.4242 -1.7831
    3CHTO   O42 1053   6.183   0.545   2.619  0.1024  0.4746  0.0276
    3CHTO  H100 1054   6.145   0.614   2.670 -1.9558 -0.8479  0.3281
    3CHTO   C57 1055   6.413   0.628   2.544  0.5017 -0.4522  0.2454
    3CHTO  H114 1056   6.452   0.527   2.556 -1.5736 -1.4281 -0.7959
    3CHTO   N10 1057   6.445   0.696   2.669  0.2380  0.2308 -0.3020
    3CHTO  H106 1058   6.463   0.801   2.648  0.9375  0.3369  0.7867
    3CHTO  H107 1059   6.526   0.651   2.725 -1.2786  0.0744  1.8445
    3CHTO   C58 1060   6.480   0.694   2.418 -0.1355  0.8513  0.3142
    3CHTO  H115 1061   6.444   0.798   2.404 -1.3770  0.3603 -0.2954
    3CHTO   O37 1062   6.464   0.613   2.299 -0.2120 -0.0539  0.4906
    3CHTO   C59 1063   6.322   0.596   2.266  0.1107 -0.2959 -1.1814
    3CHTO  H116 1064   6.274   0.692   2.245 -0.2855 -0.7556 -2.4673
    3CHTO   C70 1065   6.315   0.522   2.131 -0.2108 -0.0059  0.4345
    3CHTO   O46 1066   6.401   0.413   2.124  0.8553  0.6068  0.1537
    3CHTO  H103 1067   6.455   0.408   2.201  1.3103  0.8076 -0.1488
    3CHTO   O39 1068   6.665   0.704   2.464  0.5462  0.0411 -0.1022
    3CHTO   C60 1069   6.742   0.772   2.364 -0.1198  0.7044 -0.4054
    3CHTO  H117 1070   6.694   0.762   2.266  0.1431 -0.1121 -0.4597
    3CHTO   C62 1071   6.770   0.915   2.393 -0.0774 -0.3035 -0.6903
    3CHTO  H119 1072   6.670   0.959   2.412 -0.7022 -1.4692 -1.1936
    3CHTO   O43 1073   6.845   0.930   2.516 -0.3284 -0.0436 -0.0728
    3CHTO  H101 1074   6.894   1.009   2.526  1.2532 -0.6268 -2.7547
    3CHTO   C66 1075   6.849   0.984   2.264 -0.1479  0.5158 -0.1196
    3CHTO  H123 1076   6.784   0.972   2.178  0.3616 -1.4477 -0.2606
    3CHTO   N12 1077   6.889   1.132   2.268  0.2023  0.1080  0.6581
    3CHTO  H110 1078   6.911   1.181   2.175 -0.0885  0.8969  1.0023
    3CHTO  H111 1079   6.929   1.176   2.358 -0.3417  1.1093  0.4079
    3CHTO   C69 1080   6.977   0.897   2.232  0.3054  0.0783 -0.7853
    3CHTO  H126 1081   7.065   0.929   2.291  0.0124 -0.0341 -0.2848
    3CHTO   O41 1082   6.955   0.743   2.243 -0.1595  0.1065  0.3456
    3CHTO   C64 1083   6.877   0.691   2.352  0.5932  0.2074 -0.0787
    3CHTO  H121 1084   6.932   0.715   2.445 -0.0597  0.5616  0.2217
    3CHTO   C71 1085   6.867   0.541   2.332  0.1353 -0.1300 -0.1193
    3CHTO   O47 1086   6.811   0.466   2.438 -0.2816 -0.6017 -0.2110
    3CHTO  H104 1087   6.726   0.497   2.464  0.1839  0.3843  0.1928
    3CHTO   O34 1088   7.012   0.917   2.084  0.1834 -0.7736  0.1070
    3CHTO   C49 1089   6.948   0.907   1.938 -0.1886 -0.1778  0.0300
    3CHTO   H91 1090   6.877   0.987   1.917 -0.5187 -0.2486  0.8786
    3CHTO   C47 1091   6.874   0.775   1.920  0.5020  0.8162  0.1893
    3CHTO   H89 1092   6.830   0.773   1.818 -1.3276  1.1463  0.9594
    3CHTO   O33 1093   6.770   0.772   2.020  0.0134  0.0145  0.9541
    3CHTO   H70 1094   6.731   0.858   2.022 -2.8152 -1.2193  0.4126
    3CHTO   C45 1095   6.985   0.656   1.939 -0.4402 -0.1086 -0.1547
    3CHTO   H87 1096   7.042   0.673   2.032 -1.5836  0.1638  0.5089
    3CHTO    N8 1097   6.930   0.518   1.943  0.0453 -0.1905  0.0848
    3CHTO   H75 1098   7.004   0.449   1.980  0.5531  0.1959 -0.2089
    3CHTO   H76 1099   6.847   0.523   2.013 -0.1278  2.4122 -0.2779
    3CHTO   C43 1100   7.088   0.669   1.824 -1.0440  0.3878 -0.5538
    3CHTO   H85 1101   7.166   0.594   1.836 -0.3876  1.0408 -0.6442
    3CHTO   O29 1102   7.144   0.802   1.823 -0.2684 -0.2037  0.6817
    3CHTO   C50 1103   7.065   0.920   1.827  0.2654 -0.4236 -0.3900
    3CHTO   H92 1104   7.118   1.014   1.847 -2.4333  1.0910 -0.2327
    3CHTO   C54 1105   6.999   0.956   1.694 -0.4275  0.2589  0.3847
    3CHTO   O36 1106   7.090   0.998   1.588  0.2797  0.0247  0.4734
    3CHTO   H72 1107   7.056   0.957   1.511 -1.4350  0.7390  0.8202
    3CHTO   O27 1108   7.034   0.629   1.696  0.1161  0.0003  0.0723
    3CHTO   C37 1109   7.024   0.530   1.594 -0.1642 -0.0982 -0.5365
    3CHTO   H79 1110   7.074   0.566   1.503 -0.6882  0.1683 -0.7197
    3CHTO   C38 1111   7.110   0.402   1.636  0.2748 -0.6078  0.3800
    3CHTO   H80 1112   7.095   0.382   1.743 -0.9708  0.1761  0.3684
    3CHTO   O31 1113   7.248   0.423   1.610 -0.3574  0.8124 -0.6376
    3CHTO   H68 1114   7.265   0.487   1.543  2.5660  2.3128  1.4305
    3CHTO   C39 1115   7.070   0.274   1.553 -0.1741 -0.0421 -0.2050
    3CHTO   H81 1116   7.108   0.283   1.451  1.3942 -0.8884  0.2897
    3CHTO    N7 1117   7.128   0.149   1.609  0.6725  0.8335 -0.6190
    3CHTO   H73 1118   7.050   0.080   1.639  0.8255  0.6384 -0.6713
    3CHTO   H74 1119   7.183   0.085   1.542 -0.7285 -0.1825 -0.8323
    3CHTO   C40 1120   6.909   0.260   1.553 -0.3402  0.0327  0.3391
    3CHTO   H82 1121   6.863   0.243   1.650 -2.0081  1.3792 -0.1869
    3CHTO   O26 1122   6.856   0.374   1.491 -0.1002  0.3210  0.3320
    3CHTO   C41 1123   6.878   0.494   1.569  0.1356 -0.3311  0.3716
    3CHTO   H83 1124   6.830   0.478   1.667  0.7361 -0.0291  0.7180
    3CHTO   C52 1125   6.801   0.604   1.503  0.5759  0.2376 -0.3946
    3CHTO   O35 1126   6.650   0.600   1.541  0.0705  0.4351  0.7370
    3CHTO   H71 1127   6.638   0.554   1.622  1.2963  1.6438  1.6235
    3CHTO   O28 1128   6.874   0.143   1.480  0.1412  0.2178  0.4694
    3CHTO   C42 1129   6.802   0.112   1.355 -0.3856  0.3914  0.3241
    3CHTO   H84 1130   6.824   0.007   1.338  1.9119  0.9952 -0.7493
    3CHTO   C44 1131   6.848   0.185   1.227 -0.4349 -0.1314 -0.1054
    3CHTO   H86 1132   6.838   0.293   1.242  0.1070 -0.0001 -0.6594
    3CHTO   O32 1133   6.978   0.134   1.214 -0.4175 -0.1027 -0.2744
    3CHTO   H69 1134   7.037   0.204   1.192 -0.8341  0.4351  0.2963
    3CHTO   C48 1135   6.764   0.159   1.102 -0.0116 -0.3800 -0.3106
    3CHTO   H90 1136   6.770   0.057   1.063 -3.0456 -0.2979 -1.0913
    3CHTO    N9 1137   6.816   0.240   0.986  0.0058  0.3614 -0.1701
    3CHTO   H77 1138   6.814   0.347   1.001  0.4257  0.1822  1.1863
    3CHTO   H78 1139   6.761   0.223   0.894  0.0834 -0.7814 -0.0166
    3CHTO   C51 1140   6.614   0.180   1.147  0.2742 -0.2962  0.0866
    3CHTO   H93 1141   6.606   0.281   1.185  0.3554 -0.6517  1.0593
    3CHTO   O30 1142   6.583   0.084   1.245  0.0402  0.1716 -0.3761
    3CHTO   C46 1143   6.649   0.124   1.383  0.2615 -0.0689  0.1906
    3CHTO   H88 1144   6.622   0.228   1.396  0.0864 -0.3612  2.2826
    3CHTO   C53 1145   6.590   0.027   1.491 -0.4872  0.9782 -0.3303
    3CHTO   O72 1146   6.615   0.077   1.625 -0.6448 -0.2228  0.5952
    3CHTO  H199 1147   6.647   0.165   1.621  1.7535 -0.9173  2.5816
    3CHTO   O22 1148   6.514   0.164   1.044  0.2850  0.3425 -0.1315
    3CHTO   C31 1149   6.370   0.211   1.049  0.1297 -0.1137  0.2684
    3CHTO   H59 1150   6.323   0.159   0.962  0.5488 -2.3941  1.3632
    3CHTO   C29 1151   6.289   0.167   1.178 -0.0135 -0.7629 -0.5800
    3CHTO   H57 1152   6.355   0.211   1.254  1.7334 -0.9361 -1.9632
    3CHTO   O21 1153   6.293   0.025   1.192 -0.0722  0.2167  0.4474
    3CHTO   H37 1154   6.255  -0.001   1.274  0.2250 -0.1288  0.4781
    3CHTO   C27 1155   6.137   0.222   1.184 -1.1258 -0.0112 -0.3029
    3CHTO   H55 1156   6.075   0.150   1.129  1.1744  0.0702 -3.0924
    3CHTO    N5 1157   6.096   0.217   1.326  0.1131  0.4515  0.0494
    3CHTO   H43 1158   6.116   0.118   1.364 -0.5210 -0.8700 -2.8697
    3CHTO   H44 1159   5.990   0.229   1.313 -0.5720 -1.8383  3.0661
    3CHTO   C25 1160   6.130   0.358   1.109 -0.1151  0.4290 -0.6382
    3CHTO   H53 1161   6.147   0.434   1.187 -0.4619 -0.2148  0.0687
    3CHTO   O17 1162   6.219   0.385   0.999 -0.4712  0.3487 -0.1058
    3CHTO   C32 1163   6.354   0.361   1.029 -0.2471 -0.6783  0.3576
    3CHTO   H60 1164   6.382   0.417   1.119 -3.9166  1.1892  0.4252
    3CHTO   C36 1165   6.429   0.424   0.905 -0.6892  0.1915  0.0712
    3CHTO   O25 1166   6.414   0.566   0.894 -0.6714  0.5614  0.5122
    3CHTO   H40 1167   6.373   0.594   0.814 -0.3116 -0.1037  0.0886
    3CHTO   O15 1168   5.987   0.375   1.067  0.4618 -0.2540 -0.1175
    3CHTO   C19 1169   5.889   0.479   1.034 -0.1211  0.1457 -0.1999
    3CHTO   H47 1170   5.849   0.456   0.934 -0.6678 -1.0986  0.2973
    3CHTO   C20 1171   5.760   0.494   1.131 -0.1161 -0.2021  0.2109
    3CHTO   H48 1172   5.790   0.500   1.237  1.4326 -0.2675 -0.2119
    3CHTO   O19 1173   5.685   0.377   1.110  0.1713 -0.0455  0.3396
    3CHTO   H35 1174   5.732   0.316   1.164 -0.8634 -2.3309 -1.2684
    3CHTO   C21 1175   5.674   0.619   1.097  0.5369  0.3368 -0.4975
    3CHTO   H49 1176   5.620   0.597   1.005  2.5169 -0.4199 -1.4895
    3CHTO    N4 1177   5.568   0.653   1.200 -0.1619  1.1940 -0.4756
    3CHTO   H41 1178   5.610   0.639   1.299 -0.7109 -0.3250 -0.4403
    3CHTO   H42 1179   5.484   0.586   1.190  0.4519  0.5905 -1.6886
    3CHTO   C22 1180   5.776   0.740   1.083  0.6991 -0.3365 -0.3029
    3CHTO   H50 1181   5.837   0.749   1.174  0.4093 -3.9267  0.3255
    3CHTO   O14 1182   5.866   0.716   0.977  0.1100  0.5127 -0.3179
    3CHTO   C23 1183   5.961   0.615   1.008  0.2899 -0.4397 -0.2587
    3CHTO   H51 1184   6.022   0.645   1.094  0.6816 -1.1904 -0.2653
    3CHTO   C34 1185   6.065   0.614   0.888 -0.1454  0.1785 -0.7018
    3CHTO   O23 1186   6.128   0.743   0.893  0.5375  0.2278  0.3613
    3CHTO   H38 1187   6.071   0.817   0.903  0.5024  0.2942 -0.3250
    3CHTO   O16 1188   5.718   0.864   1.054  0.1746  0.2627  0.0920
    3CHTO   C24 1189   5.800   0.972   0.992 -0.2201  0.3663  0.3253
    3CHTO   H52 1190   5.879   0.932   0.929 -2.4027 -1.0266 -1.5959
    3CHTO   C26 1191   5.865   1.065   1.096 -0.3520  0.3404  0.3424
    3CHTO   H54 1192   5.791   1.102   1.170 -0.0403  1.7809 -0.0507
    3CHTO   O20 1193   5.957   0.980   1.163 -0.2279 -0.0901 -0.1672
    3CHTO   H36 1194   5.979   1.013   1.247  0.4365 -1.1886  0.0915
    3CHTO   C30 1195   5.936   1.196   1.037  0.1527  0.1610 -0.4084
    3CHTO   H58 1196   6.036   1.168   1.000  0.3897  1.2188 -0.5885
    3CHTO    N6 1197   5.975   1.290   1.149 -0.0713 -0.0430  0.3005
    3CHTO   H45 1198   6.017   1.382   1.112  0.0183  0.4566  1.6043
    3CHTO   H46 1199   6.047   1.237   1.210 -0.6658 -1.9142 -0.5542
    3CHTO   C33 1200   5.858   1.260   0.923  0.4779  0.1457 -0.2663
    3CHTO   H61 1201   5.780   1.325   0.965  0.4284  0.0850 -0.2663
    3CHTO   O18 1202   5.799   1.160   0.840  0.3527 -0.2152  0.4375
    3CHTO   C28 1203   5.714   1.057   0.901  0.5272  0.9631 -0.7058
    3CHTO   H56 1204   5.635   1.110   0.954  0.1506  2.4899 -2.7157
    3CHTO   C35 1205   5.662   0.967   0.793 -0.5275  0.9185  0.2319
    3CHTO   O24 1206   5.563   0.873   0.825 -0.6066 -0.4083 -0.0188
    3CHTO   H39 1207   5.495   0.865   0.761  0.7033 -1.8874 -1.2450
    3CHTO    O9 1208   5.947   1.344   0.851 -0.1297 -0.0228 -0.0505
    3CHTO   C13 1209   5.941   1.499   0.869 -0.1902 -0.3066 -0.3929
    3CHTO   H26 1210   5.861   1.509   0.945  1.6608  1.0361  1.4290
    3CHTO   C11 1211   5.897   1.570   0.733 -0.3516 -0.3171 -0.8554
    3CHTO   H24 1212   5.787   1.567   0.726 -0.4689 -0.2767  0.7735
    3CHTO    O8 1213   5.951   1.488   0.624  0.6016 -0.1912  0.5138
    3CHTO    H3 1214   5.889   1.470   0.556  0.6260  4.1784 -0.8284
    3CHTO    C9 1215   5.936   1.723   0.732 -0.3947 -0.4302 -0.0801
    3CHTO   H22 1216   5.877   1.764   0.815  1.4107 -1.2349  1.6261
    3CHTO    N2 1217   5.880   1.799   0.617  0.1381  0.5980  0.7651
    3CHTO   H10 1218   5.944   1.782   0.532  1.1620  1.0107  1.4430
    3CHTO   H11 1219   5.880   1.903   0.648  0.9331  0.9745 -0.4271
    3CHTO    C7 1220   6.087   1.740   0.759  0.4724 -0.2800  0.1509
    3CHTO   H20 1221   6.099   1.850   0.767 -0.0484 -0.1962 -0.2586
    3CHTO    O4 1222   6.117   1.686   0.889 -0.0512  0.2468  0.5188
    3CHTO   C14 1223   6.087   1.548   0.915 -0.1857 -0.1502  0.1670
    3CHTO   H27 1224   6.083   1.534   1.025 -2.0567  0.1857  0.1571
    3CHTO   C18 1225   6.195   1.456   0.861  0.8414  0.5041  0.4110
    3CHTO   O13 1226   6.297   1.463   0.966  0.0265 -0.0370 -0.4491
    3CHTO    H7 1227   6.367   1.518   0.938  0.1517 -0.5190 -1.0916
    3CHTO    O2 1228   6.194   1.674   0.634  0.0546  0.4511 -0.1286
    3CHTO    C1 1229   6.300   1.769   0.598  0.2979 -0.2884 -0.0785
    3CHTO   H14 1230   6.314   1.855   0.666  2.0470 -2.0204  1.8120
    3CHTO    C2 1231   6.272   1.825   0.453 -0.0229  0.1265  0.0826
    3CHTO   H15 1232   6.253   1.736   0.391  1.2049 -1.2526  1.6463
    3CHTO    O6 1233   6.155   1.911   0.441 -0.4497  0.4054  0.0209
    3CHTO    H1 1234   6.180   2.001   0.427  2.4956 -0.1235  1.5886
    3CHTO    C3 1235   6.406   1.907   0.400  0.3735 -0.5579 -0.1387
    3CHTO   H16 1236   6.420   1.994   0.465  1.3772 -0.0988 -0.9546
    3CHTO    N1 1237   6.398   1.955   0.257 -0.1010 -0.2812 -0.0161
    3CHTO    H8 1238   6.294   1.957   0.229 -0.1224 -4.3579 -0.4207
    3CHTO    H9 1239   6.441   2.053   0.271  0.0746 -0.1308 -1.5866
    3CHTO    C4 1240   6.541   1.820   0.420  0.3821 -0.0175 -0.2676
    3CHTO   H17 1241   6.540   1.733   0.353 -1.5264 -1.5204  1.6484
    3CHTO    O1 1242   6.547   1.779   0.560 -0.3760  0.5179  0.3470
    3CHTO    C5 1243   6.441   1.689   0.597 -0.1412 -0.3084  0.5230
    3CHTO   H18 1244   6.432   1.604   0.530  1.8532  0.0386 -0.2227
    3CHTO   C16 1245   6.475   1.634   0.733 -0.0692 -0.3269 -0.2164
    3CHTO   O11 1246   6.455   1.731   0.836 -0.3239  0.0947 -0.2873
    3CHTO    H5 1247   6.515   1.802   0.823  0.9433 -1.0185 -0.5972
    3CHTO    O3 1248   6.657   1.902   0.402  0.1851  0.0782 -0.2074
    3CHTO    C6 1249   6.782   1.833   0.385 -0.1146  0.7127  0.7531
    3CHTO   H19 1250   6.776   1.729   0.418 -0.7379  0.7692  0.8321
    3CHTO    C8 1251   6.830   1.833   0.242  0.4473 -0.4383 -0.1802
    3CHTO   H21 1252   6.820   1.936   0.207  0.6744 -0.2055  0.4304
    3CHTO    O7 1253   6.741   1.751   0.167 -0.1270 -0.3916  0.2877
    3CHTO    H2 1254   6.719   1.671   0.210 -0.9305 -1.0228 -1.2406
    3CHTO   C12 1255   6.978   1.789   0.230 -0.6464 -0.2890 -0.2930
    3CHTO   H25 1256   6.971   1.680   0.253 -2.5537  0.2827  2.0120
    3CHTO    N3 1257   7.038   1.806   0.090  0.3325  0.8803 -0.4557
    3CHTO   H12 1258   7.090   1.721   0.048  1.5028  1.1995  0.3334
    3CHTO   H13 1259   6.973   1.862   0.025 -0.0241 -0.3078 -1.1431
    3CHTO   C15 1260   7.065   1.846   0.340 -0.8182  0.6669  0.1230
    3CHTO   H28 1261   7.094   1.950   0.324 -0.6096  0.8521  1.6541
    3CHTO   O10 1262   7.199   1.752   0.354  0.1868 -0.0052 -0.3729
    3CHTO    H4 1263   7.182   1.683   0.292 -1.0494 -1.1756  1.2097
    3CHTO    O5 1264   7.010   1.838   0.473 -0.1727 -0.7456 -0.4646
    3CHTO   C10 1265   6.883   1.901   0.486 -0.2503  0.1335  1.7581
    3CHTO   H23 1266   6.897   2.005   0.457 -1.2868 -0.0323  0.6235
    3CHTO   C17 1267   6.848   1.883   0.630 -0.1957 -0.2321 -0.2713
    3CHTO   O12 1268   6.925   1.970   0.708  0.1383 -0.2820 -0.2499
    3CHTO    H6 1269   6.901   1.956   0.797 -1.3470 -1.3164 -0.8025
    4CHTO  H203 1270   6.321   7.107   2.395  0.6550  0.3041  0.1385
    4CHTO   O82 1271   6.398   7.110   2.342  0.0877  0.4243 -0.6843
    4CHTO  C123 1272   6.455   7.243   2.351 -0.3571 -0.1355 -0.4739
    4CHTO  H227 1273   6.436   7.277   2.454 -0.4961  2.1497 -1.2263
    4CHTO   O77 1274   6.603   7.208   2.339 -0.5230  0.0063  0.0048
    4CHTO  C118 1275   6.688   7.317   2.369 -0.3058 -0.2763 -0.0296
    4CHTO  H222 1276   6.661   7.353   2.469  0.7527 -1.3317  0.6399
    4CHTO  C125 1277   6.833   7.262   2.381 -0.2508  0.2263  0.1172
    4CHTO   O84 1278   6.875   7.216   2.249 -0.4584 -0.0186  0.2924
    4CHTO  H205 1279   6.941   7.151   2.263 -0.4467 -0.1278 -0.2807
    4CHTO  C114 1280   6.666   7.431   2.264  0.4021 -0.3670 -0.1252
    4CHTO  H218 1281   6.689   7.390   2.166 -1.3423 -0.6135 -0.4539
    4CHTO  C116 1282   6.510   7.473   2.259  0.2799 -0.2687 -0.1612
    4CHTO  H220 1283   6.483   7.518   2.357  1.6272  1.0648 -0.3879
    4CHTO   O79 1284   6.489   7.573   2.163  0.2928  0.0731 -0.7049
    4CHTO  H201 1285   6.514   7.658   2.195  0.2958 -0.3225  0.3703
    4CHTO  C120 1286   6.412   7.349   2.238 -0.2278  0.4512 -0.3256
    4CHTO  H224 1287   6.429   7.311   2.135  1.8101 -0.1477  0.2089
    4CHTO   N21 1288   6.269   7.380   2.243  0.4246  0.3201 -0.1971
    4CHTO  H211 1289   6.239   7.411   2.144  0.1747  0.1503 -0.1745
    4CHTO  H212 1290   6.244   7.455   2.316 -0.3045 -1.6924  1.6709
    4CHTO   O75 1291   6.759   7.538   2.293  0.2349  0.1189 -0.6541
    4CHTO  C112 1292   6.797   7.637   2.160 -0.0780 -0.9079  0.1161
    4CHTO  H216 1293   6.705   7.664   2.106 -0.0329  1.1805  1.0249
    4CHTO   O73 1294   6.888   7.563   2.075  0.2996 -0.0329  0.0971
    4CHTO  C113 1295   6.908   7.627   1.945  0.1783  0.4977  0.2530
    4CHTO  H217 1296   6.811   7.646   1.895  2.3227  1.6596 -3.7519
    4CHTO  C124 1297   6.954   7.511   1.852  0.3041 -0.2231  0.1640
    4CHTO   O83 1298   7.082   7.454   1.885 -0.0194  0.2611  0.0278
    4CHTO  H204 1299   7.112   7.405   1.811 -0.9708  1.8164 -1.4245
    4CHTO  C109 1300   6.989   7.751   1.960  0.1309  0.1390 -0.5916
    4CHTO  H213 1301   7.083   7.719   2.008  1.5802  2.7659 -1.5779
    4CHTO  C110 1302   6.904   7.842   2.052  0.1448  0.0079  0.1620
    4CHTO  H214 1303   6.812   7.874   2.003  0.0242 -0.1709  0.2715
    4CHTO   O78 1304   6.972   7.968   2.072  0.0636  0.2795  0.4405
    4CHTO  H200 1305   7.048   7.950   2.123  0.3200 -1.1273 -0.4181
    4CHTO  C111 1306   6.868   7.777   2.191  0.8080  0.1542  0.4550
    4CHTO  H215 1307   6.962   7.762   2.246  0.1699  1.4683  1.9464
    4CHTO   N19 1308   6.779   7.859   2.278  0.7403 -0.0612  0.7923
    4CHTO  H207 1309   6.686   7.884   2.230  1.6996  1.4900 -0.2963
    4CHTO  H208 1310   6.756   7.813   2.373 -0.6439 -1.9300 -0.4031
    4CHTO   O74 1311   7.016   7.805   1.826 -0.0504  0.1665  0.1008
    4CHTO  C115 1312   7.134   7.915   1.825 -0.3124  0.1518  0.1282
    4CHTO  H219 1313   7.118   7.994   1.897  0.8798 -1.7378  2.5317
    4CHTO   O76 1314   7.284   7.847   1.856 -0.1830  0.6071 -0.1406
    4CHTO  C122 1315   7.305   7.718   1.783  0.1557  0.3613 -0.4573
    4CHTO  H226 1316   7.246   7.637   1.825  0.6131  0.2201 -0.0785
    4CHTO  C126 1317   7.459   7.676   1.804  0.2460 -0.4609  0.1168
    4CHTO   O85 1318   7.549   7.776   1.757 -0.0016 -0.7994 -0.1404
    4CHTO  H206 1319   7.629   7.763   1.804 -0.6830  1.2044  1.6376
    4CHTO  C121 1320   7.268   7.736   1.625  0.0454 -0.1528  0.1261
    4CHTO  H225 1321   7.335   7.685   1.553 -0.4040 -0.7278  0.1089
    4CHTO   O81 1322   7.141   7.672   1.604 -0.0821 -0.0616 -0.4350
    4CHTO  H202 1323   7.163   7.583   1.584  0.1211  0.2576 -1.7061
    4CHTO  C119 1324   7.250   7.885   1.583  0.0675  0.0337 -0.8573
    4CHTO  H223 1325   7.351   7.925   1.581 -0.7464  2.2285  0.1982
    4CHTO  C117 1326   7.150   7.969   1.676 -0.2409 -0.7538  0.3593
    4CHTO  H221 1327   7.047   7.970   1.641 -0.4485  1.9026  0.9659
    4CHTO   N20 1328   7.190   8.109   1.670 -0.2790  0.1915  0.4117
    4CHTO  H209 1329   7.107   8.168   1.706  0.1760  1.1964 -0.1548
    4CHTO  H210 1330   7.233   8.141   1.576  0.5781  0.5128  0.9041
    4CHTO   O80 1331   7.214   7.903   1.415 -0.3853 -0.0979 -0.3180
    4CHTO  C103 1332   7.316   7.949   1.328 -0.0545 -0.3019  0.0582
    4CHTO  H190 1333   7.378   8.025   1.376 -1.1231 -1.6291  3.7472
    4CHTO  C101 1334   7.410   7.841   1.271 -0.1552  0.0413  0.5350
    4CHTO  H188 1335   7.351   7.757   1.234 -1.3847 -0.0954  2.6773
    4CHTO   O68 1336   7.519   7.792   1.393  0.0229 -0.1335 -0.0091
    4CHTO  H168 1337   7.564   7.869   1.422 -2.3416  1.3178 -0.0324
    4CHTO   C99 1338   7.498   7.898   1.156  0.7075  0.0806 -0.4614
    4CHTO  H186 1339   7.563   7.982   1.188  2.7088 -1.4467 -0.4151
    4CHTO   N17 1340   7.590   7.793   1.098  0.2176  0.4183  0.4576
    4CHTO  H174 1341   7.682   7.840   1.065 -0.2890  0.5563 -0.7933
    4CHTO  H175 1342   7.541   7.749   1.013 -0.3354  0.2207  0.8809
    4CHTO   C97 1343   7.397   7.952   1.048  0.0738  0.1250 -0.4790
    4CHTO  H184 1344   7.338   7.871   1.001 -0.3193  0.1512 -0.0344
    4CHTO   O64 1345   7.314   8.057   1.097  0.1779 -0.2282  0.7402
    4CHTO  C104 1346   7.234   8.016   1.209  0.4235 -0.6882  0.5202
    4CHTO  H191 1347   7.156   7.947   1.175 -0.7254  1.3620 -1.1151
    4CHTO  C108 1348   7.162   8.141   1.257  0.6660 -0.2039 -0.3786
    4CHTO   O71 1349   7.034   8.171   1.197  0.1486 -0.2181  0.0123
    4CHTO  H171 1350   6.979   8.124   1.257  1.8172 -1.7450  0.3842
    4CHTO   O62 1351   7.480   8.010   0.944  0.3543 -0.8344 -0.1414
    4CHTO   C91 1352   7.448   7.999   0.803 -0.2669  0.2789  0.3044
    4CHTO  H178 1353   7.343   7.980   0.783 -0.4132  1.3795 -0.0219
    4CHTO   C92 1354   7.530   7.878   0.744  0.1085  0.4671 -0.3540
    4CHTO  H179 1355   7.633   7.876   0.781 -0.6371 -0.2457  1.7241
    4CHTO   O66 1356   7.471   7.761   0.801  0.3500  0.4515 -0.1557
    4CHTO  H166 1357   7.380   7.760   0.777  0.6725  0.1759 -1.3931
    4CHTO   C93 1358   7.521   7.870   0.584  0.4759 -0.2792 -0.1594
    4CHTO  H180 1359   7.420   7.852   0.545  0.7107  0.7964 -1.2791
    4CHTO   N16 1360   7.595   7.752   0.534  0.4704 -0.4002  0.0061
    4CHTO  H172 1361   7.693   7.740   0.576  1.3654 -1.6136 -2.3338
    4CHTO  H173 1362   7.536   7.663   0.544 -0.6965  0.3238 -0.2709
    4CHTO   C94 1363   7.582   8.006   0.534  0.3427  0.3389 -1.0948
    4CHTO  H181 1364   7.678   8.029   0.580  0.6490 -0.5277 -1.2830
    4CHTO   O61 1365   7.492   8.107   0.576 -0.4573  0.4497  0.0487
    4CHTO   C95 1366   7.491   8.130   0.716 -0.4002  0.4864  0.0080
    4CHTO  H182 1367   7.591   8.153   0.752  0.2561 -2.4275  0.1704
    4CHTO  C106 1368   7.403   8.263   0.746 -0.7964  0.5989  0.0424
    4CHTO   O69 1369   7.297   8.283   0.658  0.3750 -0.3138  0.3509
    4CHTO  H169 1370   7.213   8.263   0.696  0.0995  1.4382  0.7445
    4CHTO   O63 1371   7.605   8.009   0.359  0.3689 -0.1653  0.0723
    4CHTO   C96 1372   7.481   8.028   0.272  0.0410  0.1329  0.1501
    4CHTO  H183 1373   7.388   8.039   0.328 -0.5936 -2.3444 -0.3786
    4CHTO   C98 1374   7.440   7.904   0.185  0.3072 -0.1660  0.1319
    4CHTO  H185 1375   7.529   7.881   0.125  0.9657 -0.5255  1.2399
    4CHTO   O67 1376   7.417   7.787   0.268  0.2680  0.4070  0.0999
    4CHTO  H167 1377   7.496   7.763   0.314 -0.2218  1.2222  1.4152
    4CHTO  C102 1378   7.322   7.926   0.085  0.0742 -0.0501  0.2502
    4CHTO  H189 1379   7.228   7.898   0.133  1.2203  0.5614  2.9143
    4CHTO   N18 1380   7.322   7.848  -0.046 -0.4185 -0.1787 -0.1516
    4CHTO  H176 1381   7.274   7.898  -0.128 -0.2466 -2.4596 -1.6867
    4CHTO  H177 1382   7.269   7.755  -0.035 -0.9970  0.0998 -0.5689
    4CHTO  C105 1383   7.306   8.081   0.055  0.1405  0.1214  0.2898
    4CHTO  H192 1384   7.272   8.097  -0.048  0.4045  2.0420  0.4733
    4CHTO   O65 1385   7.434   8.149   0.057 -0.4188 -0.2541  0.5139
    4CHTO  C100 1386   7.507   8.156   0.180  0.3726 -0.4667  0.0667
    4CHTO  H187 1387   7.616   8.161   0.167  0.3255  1.0022  0.1758
    4CHTO  C107 1388   7.464   8.292   0.243  0.4763 -0.2605 -0.4559
    4CHTO   O70 1389   7.528   8.322   0.367 -0.3907  0.7339 -0.2541
    4CHTO  H170 1390   7.485   8.275   0.436  0.6904 -0.3841 -0.3147
    4CHTO   O57 1391   7.197   8.138   0.163 -0.5424 -0.1230 -0.4054
    4CHTO   C85 1392   7.092   8.224   0.119  0.8333  0.2665 -0.6490
    4CHTO  H157 1393   7.114   8.261   0.017 -2.2263  3.8365 -0.1366
    4CHTO   C83 1394   7.085   8.344   0.220 -0.2898 -0.4967 -0.1422
    4CHTO  H155 1395   7.173   8.406   0.205  0.9178 -1.8613  1.2155
    4CHTO   O56 1396   7.092   8.301   0.356 -0.4637  0.4953  0.3022
    4CHTO  H135 1397   7.139   8.221   0.370 -0.6544  0.5727  1.4217
    4CHTO   C81 1398   6.962   8.427   0.184  0.0011 -1.2034 -0.1919
    4CHTO  H153 1399   6.962   8.450   0.077  0.7283 -1.6951 -0.2993
    4CHTO   N14 1400   6.964   8.563   0.250  0.0059  0.2198  0.2876
    4CHTO  H141 1401   7.008   8.635   0.185  1.4427 -0.9257 -0.0252
    4CHTO  H142 1402   7.011   8.572   0.345  0.7461 -0.3147 -0.0249
    4CHTO   C79 1403   6.830   8.338   0.209  0.2082  0.5090 -0.0038
    4CHTO  H151 1404   6.747   8.406   0.189 -0.5653 -0.5824 -0.5388
    4CHTO   O52 1405   6.833   8.229   0.110 -0.1134  0.0151  0.2748
    4CHTO   C86 1406   6.956   8.146   0.122 -1.1834  0.2469 -0.4011
    4CHTO  H158 1407   6.941   8.086   0.214 -1.3377 -1.2128 -1.3602
    4CHTO   C90 1408   6.943   8.040   0.006 -0.1531  0.2550 -0.4859
    4CHTO   O60 1409   6.996   8.081  -0.122 -0.1803  0.1632 -0.1317
    4CHTO  H138 1410   7.023   8.171  -0.129  1.5540 -0.1504  2.0654
    4CHTO   O50 1411   6.810   8.297   0.348 -0.1433  0.4990 -0.2607
    4CHTO   C73 1412   6.694   8.293   0.439  0.4738  0.1535 -0.1476
    4CHTO  H145 1413   6.611   8.354   0.401  0.7664  0.6435  0.0010
    4CHTO   C74 1414   6.733   8.351   0.582 -0.1205  0.6886 -0.3159
    4CHTO  H146 1415   6.768   8.452   0.556  0.5583  0.3672 -0.6685
    4CHTO   O54 1416   6.628   8.356   0.677 -0.4948 -0.2707 -0.1162
    4CHTO  H133 1417   6.643   8.429   0.733 -2.1072 -1.0896  1.4240
    4CHTO   C75 1418   6.857   8.265   0.625  0.5095  0.5434 -0.4752
    4CHTO  H147 1419   6.933   8.265   0.545 -1.1257  0.2285 -2.0620
    4CHTO   N13 1420   6.917   8.316   0.750 -0.2293 -0.3175 -0.1417
    4CHTO  H139 1421   6.857   8.308   0.839 -0.5439  0.2157 -0.3011
    4CHTO  H140 1422   6.949   8.419   0.735 -0.3252 -0.0699  1.3045
    4CHTO   C76 1423   6.813   8.117   0.641  0.1214 -0.1520 -0.8266
    4CHTO  H148 1424   6.735   8.113   0.717  0.6922 -1.5963 -0.2914
    4CHTO   O49 1425   6.753   8.068   0.515 -0.3623 -0.0915 -0.2254
    4CHTO   C77 1426   6.651   8.144   0.450 -0.3478 -0.0242 -0.3579
    4CHTO  H149 1427   6.559   8.135   0.507  0.5582 -0.6866  0.9975
    4CHTO   C88 1428   6.629   8.077   0.310  0.0553  0.3747 -0.1632
    4CHTO   O58 1429   6.518   8.124   0.237 -0.1720  0.1898  0.0205
    4CHTO  H136 1430   6.501   8.067   0.165 -3.0359  2.6417 -1.3392
    4CHTO   O51 1431   6.941   8.023   0.666 -0.1247  0.0242  0.0535
    4CHTO   C78 1432   6.928   7.879   0.638  0.0633 -0.4855  0.4805
    4CHTO  H150 1433   6.859   7.849   0.556 -0.0580 -0.9660  0.7541
    4CHTO   C80 1434   6.877   7.798   0.764  0.3505  0.1938 -0.0104
    4CHTO  H152 1435   6.935   7.834   0.852  0.0076  0.9723 -0.0934
    4CHTO   O55 1436   6.736   7.823   0.793 -0.4050 -0.6770  0.4175
    4CHTO  H134 1437   6.677   7.752   0.773 -1.3156  0.9682 -3.0973
    4CHTO   C84 1438   6.901   7.640   0.752  0.0370  0.7129  0.4214
    4CHTO  H156 1439   6.834   7.595   0.679 -0.4702  0.4422  1.0497
    4CHTO   N15 1440   6.875   7.563   0.877 -0.2812  0.0072 -0.0046
    4CHTO  H143 1441   6.960   7.500   0.897  1.5311  2.6265  0.8109
    4CHTO  H144 1442   6.785   7.505   0.872 -1.0311  1.2471 -0.8697
    4CHTO   C87 1443   7.044   7.607   0.697 -0.2789  0.1553  0.7488
    4CHTO  H159 1444   7.124   7.632   0.766 -0.4539 -1.6550  1.6248
    4CHTO   O53 1445   7.061   7.688   0.559  0.0809  0.0800  0.2690
    4CHTO   C82 1446   7.060   7.826   0.580 -0.1530 -0.1127  0.7335
    4CHTO  H154 1447   7.146   7.858   0.639  0.6922 -0.2006 -0.4437
    4CHTO   C89 1448   7.082   7.887   0.445 -0.3395  0.7679  0.9926
    4CHTO   O59 1449   7.110   8.024   0.441  0.3820 -0.1428  0.2028
    4CHTO  H137 1450   7.116   8.062   0.355  0.3729 -1.7579 -0.5382
    4CHTO   O45 1451   7.071   7.449   0.674 -0.2297 -0.5252 -0.6655
    4CHTO   C67 1452   7.192   7.420   0.601 -0.4765 -0.7615 -0.0716
    4CHTO  H124 1453   7.234   7.511   0.558 -0.3237 -0.7190  0.1647
    4CHTO   C65 1454   7.297   7.348   0.691 -0.3280  0.3391  0.0707
    4CHTO  H122 1455   7.314   7.411   0.779  1.0268 -1.4960  1.1754
    4CHTO   O44 1456   7.422   7.320   0.624 -0.3160  0.3441 -0.1179
    4CHTO  H102 1457   7.485   7.272   0.674 -0.2068 -0.0477 -0.6205
    4CHTO   C63 1458   7.232   7.205   0.743  0.5853  0.3280 -0.2867
    4CHTO  H120 1459   7.136   7.225   0.791  1.5640  1.2078  1.3617
    4CHTO   N11 1460   7.314   7.145   0.854 -0.1558 -0.3971 -0.2582
    4CHTO  H108 1461   7.417   7.163   0.831  0.0795 -1.1297  0.2078
    4CHTO  H109 1462   7.289   7.202   0.940  0.6165 -2.4120  1.3338
    4CHTO   C61 1463   7.202   7.117   0.618 -0.6252 -0.2531 -0.2700
    4CHTO  H118 1464   7.134   7.041   0.659  0.4513 -1.1919 -0.2028
    4CHTO   O40 1465   7.128   7.187   0.514 -0.2291  0.3728 -0.2594
    4CHTO   C68 1466   7.157   7.328   0.479  0.1894  0.1839 -0.4054
    4CHTO  H125 1467   7.059   7.365   0.441  0.9944  1.5943 -1.1519
    4CHTO   C72 1468   7.259   7.335   0.362  0.2274  0.0372  0.0451
    4CHTO   O48 1469   7.214   7.279   0.236  0.4956  0.0244 -0.3518
    4CHTO  H105 1470   7.192   7.192   0.263 -1.7642  0.7222  0.1049
    4CHTO   O38 1471   7.325   7.064   0.563  0.2506  0.1718 -0.2818
    4CHTO   C55 1472   7.297   6.926   0.514 -0.6864  0.1182 -0.0007
    4CHTO  H112 1473   7.195   6.917   0.473 -0.4071 -2.5354 -0.1939
    4CHTO   C56 1474   7.322   6.816   0.622 -0.0157  0.0996  0.2510
    4CHTO  H113 1475   7.431   6.808   0.640  0.0069  1.1728  0.6064
    4CHTO   O42 1476   7.267   6.851   0.749  0.2448  0.2818  0.6670
    4CHTO  H100 1477   7.259   6.775   0.804  0.0880 -1.8869 -2.2162
    4CHTO   C57 1478   7.275   6.672   0.577  0.7109  0.4328  0.1736
    4CHTO  H114 1479   7.167   6.672   0.563  0.6670 -2.4341  0.2877
    4CHTO   N10 1480   7.292   6.558   0.669  0.2665 -0.3811  0.0011
    4CHTO  H106 1481   7.379   6.496   0.657  0.3330 -0.0665 -1.1683
    4CHTO  H107 1482   7.205   6.498   0.689 -0.2420 -0.7122 -2.9490
    4CHTO   C58 1483   7.340   6.638   0.440  0.4178  0.2641 -0.2570
    4CHTO  H115 1484   7.447   6.610   0.454  0.0399 -0.8771  0.3589
    4CHTO   O37 1485   7.333   6.752   0.351  0.2123  0.2321  0.0787
    4CHTO   C59 1486   7.378   6.884   0.392  0.3799  0.7185  0.1983
    4CHTO  H116 1487   7.484   6.875   0.416  0.4776  1.8655  0.1965
    4CHTO   C70 1488   7.354   6.986   0.280  0.1556 -0.0095  0.0078
    4CHTO   O46 1489   7.420   6.965   0.155 -0.0318  0.3235  0.4502
    4CHTO  H103 1490   7.350   6.958   0.093  1.0977 -1.6172 -0.6246
    4CHTO   O39 1491   7.268   6.516   0.370 -0.7833 -0.0633 -0.6104
    4CHTO   C60 1492   7.348   6.438   0.281  0.4603  0.2367 -0.2883
    4CHTO  H117 1493   7.410   6.508   0.225  1.6227  0.1895  0.9030
    4CHTO   C62 1494   7.441   6.332   0.357 -0.1442  0.2515  0.5641
    4CHTO  H119 1495   7.518   6.394   0.408 -0.6884  0.9838  0.5087
    4CHTO   O43 1496   7.361   6.276   0.463  0.1056 -0.0113 -0.2811
    4CHTO  H101 1497   7.386   6.311   0.547  1.5807 -0.3535 -0.5639
    4CHTO   C66 1498   7.512   6.227   0.259  0.9783 -0.2360  0.6384
    4CHTO  H123 1499   7.575   6.283   0.190  1.1876 -0.6398  0.5016
    4CHTO   N12 1500   7.598   6.125   0.324 -0.5126 -0.1943  0.0646
    4CHTO  H110 1501   7.647   6.058   0.255  3.5078  1.5073  1.0812
    4CHTO  H111 1502   7.551   6.059   0.394 -0.3174 -1.4997 -1.0140
    4CHTO   C69 1503   7.396   6.165   0.176 -0.7000 -0.2782 -0.3119
    4CHTO  H126 1504   7.319   6.134   0.248 -1.0564 -1.3636 -1.1459
    4CHTO   O41 1505   7.339   6.275   0.091 -1.0287 -0.6148 -0.0466
    4CHTO   C64 1506   7.253   6.367   0.177 -0.1524 -0.5502 -0.0110
    4CHTO  H121 1507   7.179   6.305   0.231 -1.8794  0.0076 -1.7048
    4CHTO   C71 1508   7.176   6.473   0.084  0.3174  0.0147 -0.8432
    4CHTO   O47 1509   7.076   6.544   0.145 -0.5234  0.4026 -0.3097
    4CHTO  H104 1510   7.002   6.487   0.152 -2.2595  2.3203 -2.2294
    4CHTO   O34 1511   7.436   6.050   0.083  0.2719  0.5607 -0.1806
    4CHTO   C49 1512   7.350   5.994  -0.049 -0.3413 -0.6292 -0.3759
    4CHTO   H91 1513   7.331   6.082  -0.110 -0.2567 -0.6641 -0.4536
    4CHTO   C47 1514   7.219   5.928   0.004  0.1596 -0.0684 -0.2994
    4CHTO   H89 1515   7.153   5.891  -0.077 -0.3738  0.0467  0.0783
    4CHTO   O33 1516   7.147   6.036   0.070  0.1259  0.0641  0.7436
    4CHTO   H70 1517   7.087   6.083   0.015 -1.8624 -2.3711  0.7639
    4CHTO   C45 1518   7.265   5.808   0.102 -0.3167  0.1521  0.2769
    4CHTO   H87 1519   7.335   5.847   0.178 -0.3360  2.6905 -0.9513
    4CHTO    N8 1520   7.148   5.746   0.165  0.3923  0.2531 -0.3845
    4CHTO   H75 1521   7.057   5.773   0.113 -0.3371  0.2743  0.8882
    4CHTO   H76 1522   7.161   5.639   0.176  1.8305  0.6332  2.0872
    4CHTO   C43 1523   7.358   5.697   0.021  0.3053  0.7295 -0.6193
    4CHTO   H85 1524   7.408   5.631   0.092  0.7085  1.9564  0.2532
    4CHTO   O29 1525   7.455   5.760  -0.064  0.1758 -0.3386  0.6416
    4CHTO   C50 1526   7.418   5.886  -0.127 -0.7313  0.0789  0.8192
    4CHTO   H92 1527   7.516   5.929  -0.155 -1.2154  0.0759 -0.9030
    4CHTO   C54 1528   7.352   5.859  -0.268 -0.2165  0.1362 -0.1114
    4CHTO   O36 1529   7.447   5.798  -0.363  0.3133 -0.2625  0.2684
    4CHTO   H72 1530   7.481   5.870  -0.412  1.7671  1.6698  3.8857
    4CHTO   O27 1531   7.282   5.605  -0.060 -0.4240  0.3884  0.1144
    4CHTO   C37 1532   7.280   5.477  -0.128  0.6910  0.2628  0.2375
    4CHTO   H79 1533   7.223   5.489  -0.221  0.5192  1.3656  0.4690
    4CHTO   C38 1534   7.421   5.430  -0.172  0.5479 -0.0400 -0.2074
    4CHTO   H80 1535   7.491   5.456  -0.091 -1.7145 -0.9519  2.1149
    4CHTO   O31 1536   7.466   5.493  -0.289  0.0311 -0.0674 -0.3462
    4CHTO   H68 1537   7.478   5.585  -0.277 -2.5762  0.3610 -0.6595
    4CHTO   C39 1538   7.434   5.275  -0.191 -0.2215  0.1866  0.5332
    4CHTO   H81 1539   7.384   5.252  -0.286 -0.6807 -0.6404  0.9654
    4CHTO    N7 1540   7.570   5.220  -0.204  0.4794 -0.3575  0.0014
    4CHTO   H73 1541   7.643   5.300  -0.204  0.1447 -0.0433 -0.7751
    4CHTO   H74 1542   7.587   5.177  -0.301 -0.0248  1.1230 -0.7537
    4CHTO   C40 1543   7.352   5.199  -0.076  0.4811 -0.2637  0.2704
    4CHTO   H82 1544   7.393   5.209   0.024  0.5520 -3.6301  0.6440
    4CHTO   O26 1545   7.210   5.248  -0.085 -0.0999 -0.2259  0.2412
    4CHTO   C41 1546   7.205   5.384  -0.033  0.0488 -0.3766  0.7188
    4CHTO   H83 1547   7.256   5.395   0.063 -0.6263  3.8769  0.7138
    4CHTO   C52 1548   7.059   5.415  -0.013 -0.6330 -0.2730  0.1077
    4CHTO   O35 1549   6.969   5.407  -0.130  0.1034  0.8238 -0.6552
    4CHTO   H71 1550   7.014   5.451  -0.199  0.2193  1.8807  0.0850
    4CHTO   O28 1551   7.325   5.059  -0.100 -0.2570  0.0016  0.1349
    4CHTO   C42 1552   7.308   4.963   0.007 -0.3200  0.2837 -0.0162
    4CHTO   H84 1553   7.295   4.872  -0.051 -0.0346 -1.3911  2.4483
    4CHTO   C44 1554   7.182   4.992   0.096  0.4922 -0.0310 -0.0991
    4CHTO   H86 1555   7.189   5.090   0.144 -1.0001  0.1352 -0.2063
    4CHTO   O32 1556   7.067   5.003   0.013  0.0634 -0.6374  0.1511
    4CHTO   H69 1557   6.987   4.994   0.062  0.5321 -0.2282  1.0083
    4CHTO   C48 1558   7.175   4.887   0.212  1.0320  0.1977  0.6783
    4CHTO   H90 1559   7.147   4.794   0.162 -2.6871  1.0865  0.9535
    4CHTO    N9 1560   7.064   4.924   0.306  0.3015  0.6533 -0.3332
    4CHTO   H77 1561   6.979   4.953   0.245  0.7139  1.0390 -0.7282
    4CHTO   H78 1562   7.025   4.841   0.363  0.5187 -0.4386 -1.7468
    4CHTO   C51 1563   7.316   4.867   0.279 -1.0228  0.4483  0.5209
    4CHTO   H93 1564   7.344   4.957   0.333  0.9855  0.5603 -0.6749
    4CHTO   O30 1565   7.417   4.824   0.184  0.1145 -0.1336 -0.6288
    4CHTO   C46 1566   7.438   4.940   0.093 -0.2412 -0.4275  0.1553
    4CHTO   H88 1567   7.465   5.031   0.145  0.8871 -1.0880  0.7393
    4CHTO   C53 1568   7.562   4.907   0.009  0.0555  0.3163 -0.7744
    4CHTO   O72 1569   7.536   4.792  -0.065  0.4470  0.2603  0.3566
    4CHTO  H199 1570   7.500   4.803  -0.151  1.1709 -0.4390 -0.0411
    4CHTO   O22 1571   7.315   4.758   0.373 -0.1303 -0.2157 -0.8013
    4CHTO   C31 1572   7.373   4.758   0.508  0.0721  0.2307  0.9231
    4CHTO   H59 1573   7.464   4.821   0.501 -0.9695  1.6393 -0.2580
    4CHTO   C29 1574   7.280   4.823   0.614 -0.3814  0.3516  0.0481
    4CHTO   H57 1575   7.181   4.775   0.611 -0.2599 -0.0811  1.9613
    4CHTO   O21 1576   7.254   4.959   0.577 -0.3976  0.3749  0.4161
    4CHTO   H37 1577   7.212   4.965   0.493 -0.9468 -0.5371  0.6175
    4CHTO   C27 1578   7.343   4.812   0.760  0.4607 -0.0431  0.3463
    4CHTO   H55 1579   7.435   4.873   0.754  0.4749  0.1471  2.2135
    4CHTO    N5 1580   7.266   4.854   0.872  0.0719  0.0158  0.2691
    4CHTO   H43 1581   7.285   4.958   0.892  0.0620 -0.3431  2.2092
    4CHTO   H44 1582   7.164   4.823   0.852  0.2967 -0.5317 -0.0568
    4CHTO   C25 1583   7.405   4.668   0.786  0.1174  0.5665 -0.5545
    4CHTO   H53 1584   7.328   4.593   0.811  0.2890  0.5681 -0.0220
    4CHTO   O17 1585   7.488   4.616   0.674 -0.0969 -0.7906 -0.1205
    4CHTO   C32 1586   7.416   4.616   0.549 -0.3199 -0.2664  0.4309
    4CHTO   H60 1587   7.323   4.563   0.568 -0.3134 -0.2881  0.4028
    4CHTO   C36 1588   7.489   4.525   0.441  0.4102  0.5405  0.2801
    4CHTO   O25 1589   7.525   4.398   0.505  0.1803 -0.2149  0.1860
    4CHTO   H40 1590   7.468   4.366   0.572 -0.6809  0.8775 -0.0074
    4CHTO   O15 1591   7.500   4.671   0.913 -0.2862 -0.1374 -0.1288
    4CHTO   C19 1592   7.584   4.715   1.024 -0.3712 -0.6606 -0.0333
    4CHTO   H47 1593   7.646   4.627   1.049 -0.9226 -1.2800 -0.8216
    4CHTO   C20 1594   7.680   4.832   0.983 -0.2777 -0.4044  0.4049
    4CHTO   H48 1595   7.621   4.919   0.950 -1.2969 -0.5302  1.8041
    4CHTO   O19 1596   7.760   4.780   0.878  0.1842 -0.0289  0.2982
    4CHTO   H35 1597   7.728   4.818   0.799 -0.6077 -0.5953  0.3416
    4CHTO   C21 1598   7.762   4.882   1.105 -0.4125 -0.1886  0.4579
    4CHTO   H49 1599   7.827   4.802   1.138  1.4657  0.5710 -1.2899
    4CHTO    N4 1600   7.852   4.994   1.069 -0.1319  0.2788 -0.0100
    4CHTO   H41 1601   7.810   5.093   1.082  0.1060  0.5290 -1.0797
    4CHTO   H42 1602   7.944   4.986   1.125 -0.4526 -1.0680  0.3505
    4CHTO   C22 1603   7.663   4.923   1.218 -0.0798 -0.0790  0.8080
    4CHTO   H50 1604   7.591   4.998   1.185 -3.3492 -2.7342  1.6749
    4CHTO   O14 1605   7.592   4.807   1.253  0.6172  0.0269  0.2406
    4CHTO   C23 1606   7.503   4.754   1.148  0.2143  0.0007 -0.5200
    4CHTO   H51 1607   7.441   4.843   1.129  0.3454  0.9004  2.9971
    4CHTO   C34 1608   7.421   4.640   1.208  0.0834 -0.7443 -0.1000
    4CHTO   O23 1609   7.474   4.553   1.307 -0.2169  0.0293  0.6218
    4CHTO   H38 1610   7.403   4.520   1.358  0.8917 -0.8473  1.6495
    4CHTO   O16 1611   7.729   4.962   1.341  0.1705 -0.2651 -0.2838
    4CHTO   C24 1612   7.673   5.110   1.397 -0.2781  0.1329 -0.2639
    4CHTO   H52 1613   7.600   5.152   1.329 -0.1703 -1.3351 -1.3095
    4CHTO   C26 1614   7.791   5.211   1.406 -0.0235 -0.0133  0.1054
    4CHTO   H54 1615   7.871   5.156   1.459 -1.0409 -1.4782  0.1850
    4CHTO   O20 1616   7.837   5.243   1.270  0.4811 -0.2848  0.3015
    4CHTO   H36 1617   7.767   5.277   1.217  0.0969 -0.7055  0.5397
    4CHTO   C30 1618   7.749   5.340   1.478 -0.2311  0.1110  0.3843
    4CHTO   H58 1619   7.664   5.385   1.424  0.9475  1.4181 -0.4079
    4CHTO    N6 1620   7.863   5.436   1.494  0.7227 -0.9441 -0.1142
    4CHTO   H45 1621   7.824   5.516   1.555 -2.9695 -1.5369 -1.6213
    4CHTO   H46 1622   7.884   5.475   1.395  0.2042 -1.8962 -0.5992
    4CHTO   C33 1623   7.674   5.308   1.612  0.2444  0.4185  0.4375
    4CHTO   H61 1624   7.747   5.284   1.691  0.6036  1.5034  0.4392
    4CHTO   O18 1625   7.579   5.203   1.595 -0.2911  0.3164 -0.1175
    4CHTO   C28 1626   7.604   5.084   1.534  0.8007 -0.3327 -0.3562
    4CHTO   H56 1627   7.662   5.022   1.604 -1.4118  1.5560  3.2959
    4CHTO   C35 1628   7.468   5.011   1.511  0.3409  0.0370 -0.2263
    4CHTO   O24 1629   7.355   5.081   1.456  0.4105 -0.5559 -0.4962
    4CHTO   H39 1630   7.303   5.118   1.524 -0.1453  2.4158 -2.4371
    4CHTO    O9 1631   7.611   5.433   1.659 -0.3795 -0.5152  0.6279
    4CHTO   C13 1632   7.545   5.412   1.821  0.5213 -0.7866 -0.3932
    4CHTO   H26 1633   7.579   5.313   1.860 -0.2671 -1.0486 -0.3604
    4CHTO   C11 1634   7.385   5.421   1.814 -0.0896 -0.2542 -0.1446
    4CHTO   H24 1635   7.352   5.316   1.809  0.9266 -0.5906  0.1251
    4CHTO    O8 1636   7.343   5.479   1.689  0.3942 -0.7528 -0.0280
    4CHTO    H3 1637   7.358   5.572   1.691  0.0822 -0.7201  1.3038
    4CHTO    C9 1638   7.326   5.478   1.948 -0.1287  0.1367 -0.6196
    4CHTO   H22 1639   7.375   5.422   2.029  0.0520  0.3894 -0.5537
    4CHTO    N2 1640   7.184   5.460   1.970 -0.0353  0.3340 -0.2455
    4CHTO   H10 1641   7.169   5.413   2.066 -0.0649 -0.1175 -0.4672
    4CHTO   H11 1642   7.132   5.418   1.885 -1.3126  1.2672  0.0696
    4CHTO    C7 1643   7.376   5.627   1.947  0.1320  0.3987  0.1328
    4CHTO   H20 1644   7.372   5.642   2.057 -0.6897  0.3364  0.1122
    4CHTO    O4 1645   7.512   5.647   1.895 -0.3437  0.4152  0.3493
    4CHTO   C14 1646   7.601   5.531   1.907  0.1930  0.1919 -0.2317
    4CHTO   H27 1647   7.603   5.501   2.014  0.8055  3.1018  0.6198
    4CHTO   C18 1648   7.746   5.563   1.872  0.0779  0.2467 -0.2772
    4CHTO   O13 1649   7.828   5.450   1.886 -0.0543 -0.2376  0.2383
    4CHTO    H7 1650   7.819   5.391   1.957 -0.7705  0.4190  0.6954
    4CHTO    O2 1651   7.271   5.721   1.856 -0.2428  0.1183  0.0235
    4CHTO    C1 1652   7.255   5.858   1.883  0.4987  0.1773 -0.1249
    4CHTO   H14 1653   7.212   5.908   1.794  1.3227  2.4790  0.7091
    4CHTO    C2 1654   7.386   5.929   1.925  0.5539  0.0399  0.2692
    4CHTO   H15 1655   7.431   5.879   2.012  0.9878 -1.5849 -0.8556
    4CHTO    O6 1656   7.475   5.913   1.815  0.3418  0.4631 -0.1476
    4CHTO    H1 1657   7.485   5.822   1.792 -0.3474 -0.0535  1.5169
    4CHTO    C3 1658   7.354   6.080   1.953 -0.0099  0.0109 -0.1594
    4CHTO   H16 1659   7.303   6.125   1.867 -0.4379  1.1027  0.6471
    4CHTO    N1 1660   7.482   6.153   1.991 -0.2047  0.0366  0.0390
    4CHTO    H8 1661   7.534   6.106   2.073 -1.1940  0.1592  0.7423
    4CHTO    H9 1662   7.547   6.174   1.908  1.1123  1.6936  1.4533
    4CHTO    C4 1663   7.248   6.077   2.070  0.4658  0.5637 -0.0703
    4CHTO   H17 1664   7.297   6.032   2.157  0.2206  0.3111 -0.0604
    4CHTO    O1 1665   7.131   6.004   2.041 -0.1480 -0.3258 -0.0781
    4CHTO    C5 1666   7.150   5.867   2.000  0.2699  0.6251 -0.5877
    4CHTO   H18 1667   7.193   5.807   2.080 -0.1775  0.6085 -0.3598
    4CHTO   C16 1668   7.008   5.814   1.956  0.3202  0.2055  0.3215
    4CHTO   O11 1669   6.924   5.829   2.070  0.1666 -0.0833  0.5304
    4CHTO    H5 1670   6.888   5.914   2.084  0.5600  0.1308  0.2604
    4CHTO    O3 1671   7.196   6.212   2.108 -0.3100  0.1337  0.3295
    4CHTO    C6 1672   7.175   6.225   2.254  0.4316 -0.3873  0.4646
    4CHTO   H19 1673   7.179   6.130   2.307  0.1890 -0.4222  0.4216
    4CHTO    C8 1674   7.283   6.328   2.304 -0.1529 -0.7614  0.3335
    4CHTO   H21 1675   7.275   6.419   2.245  0.7218 -0.5707  0.4972
    4CHTO    O7 1676   7.407   6.251   2.295  0.2889 -0.0386 -0.5767
    4CHTO    H2 1677   7.467   6.301   2.242  0.1009  1.0354  0.1929
    4CHTO   C12 1678   7.254   6.372   2.452 -0.0666  0.0820  0.2916
    4CHTO   H25 1679   7.259   6.282   2.517  1.9768 -0.2530 -0.2899
    4CHTO    N3 1680   7.358   6.469   2.502 -0.3942 -0.0923 -0.1707
    4CHTO   H12 1681   7.344   6.563   2.453  0.0626 -1.2052 -2.4929
    4CHTO   H13 1682   7.337   6.486   2.607  1.3898  0.0524  0.1792
    4CHTO   C15 1683   7.103   6.419   2.459  0.0126 -0.0156 -0.3262
    4CHTO   H28 1684   7.085   6.512   2.405 -0.4027  0.0350 -0.1029
    4CHTO   O10 1685   7.063   6.436   2.601 -0.0337  0.7548 -0.2031
    4CHTO    H4 1686   7.129   6.412   2.663  0.9897 -0.7685 -1.8373
    4CHTO    O5 1687   7.013   6.321   2.411  0.2430  0.0366 -0.0360
    4CHTO   C10 1688   7.029   6.281   2.271 -0.2099 -0.8017 -0.2662
    4CHTO   H23 1689   7.008   6.365   2.204  1.4990 -1.0476 -1.1491
    4CHTO   C17 1690   6.921   6.183   2.238 -0.3140 -0.1778  0.3580
    4CHTO   O12 1691   6.917   6.077   2.335  0.4317  0.4625  0.4077
    4CHTO    H6 1692   6.826   6.068   2.356  0.5905  0.0410  0.9273
    5CHTO  H203 1693   7.850   2.526   1.725 -2.2319 -0.7446  0.4533
    5CHTO   O82 1694   7.819   2.606   1.764  0.1716  0.2443  0.3859
    5CHTO  C123 1695   7.776   2.569   1.897  0.7866 -0.5007  0.4713
    5CHTO  H227 1696   7.851   2.498   1.935  2.8289  0.4611 -1.6448
    5CHTO   O77 1697   7.784   2.694   1.959 -0.6918  0.1528 -0.9185
    5CHTO  C118 1698   7.774   2.694   2.107  0.3527  0.2236 -0.2801
    5CHTO  H222 1699   7.852   2.631   2.153  1.1474 -0.0704 -1.9629
    5CHTO  C125 1700   7.786   2.844   2.162 -0.4157 -0.0881  0.1678
    5CHTO   O84 1701   7.865   2.927   2.075 -0.0615 -0.3029 -0.0118
    5CHTO  H205 1702   7.820   3.009   2.071 -1.2175 -0.9586 -0.7893
    5CHTO  C114 1703   7.638   2.638   2.147  0.3349 -0.8708 -0.6806
    5CHTO  H218 1704   7.557   2.703   2.114  0.8875  0.7242  1.0809
    5CHTO  C116 1705   7.610   2.497   2.080  0.7924  0.9978  0.2488
    5CHTO  H220 1706   7.673   2.418   2.127  0.3522 -0.3911 -1.4443
    5CHTO   O79 1707   7.476   2.455   2.121 -0.1274 -0.1707  0.0620
    5CHTO  H201 1708   7.459   2.363   2.125 -0.4132 -0.0115  3.1057
    5CHTO  C120 1709   7.632   2.505   1.916  0.5717 -0.0413  0.1573
    5CHTO  H224 1710   7.556   2.579   1.881 -1.4851 -0.5991  3.2217
    5CHTO   N21 1711   7.616   2.372   1.855 -1.0604  0.3468 -0.7067
    5CHTO  H211 1712   7.541   2.317   1.909 -0.9653  0.7095 -0.2009
    5CHTO  H212 1713   7.599   2.377   1.748  1.8710  0.2284 -1.2360
    5CHTO   O75 1714   7.641   2.629   2.292 -0.0098  0.9328  0.0572
    5CHTO  C112 1715   7.492   2.659   2.353 -0.0101  0.5622  0.1472
    5CHTO  H216 1716   7.422   2.597   2.297  0.1337  0.2452  0.3156
    5CHTO   O73 1717   7.470   2.795   2.339 -0.4920  0.1864 -0.1203
    5CHTO  C113 1718   7.340   2.839   2.378  0.1981 -0.2223  0.2616
    5CHTO  H217 1719   7.266   2.791   2.310  0.7481  0.1783 -0.6327
    5CHTO  C124 1720   7.343   2.995   2.351  0.3560 -0.1000 -0.4260
    5CHTO   O83 1721   7.230   3.066   2.411  0.5561 -0.0330  0.5201
    5CHTO  H204 1722   7.272   3.125   2.470  0.6609  0.4765 -0.0525
    5CHTO  C109 1723   7.309   2.807   2.526  0.6470  0.2122 -0.1022
    5CHTO  H213 1724   7.373   2.870   2.590  1.4469  0.4102 -1.0820
    5CHTO  C110 1725   7.351   2.660   2.561  0.0066 -0.2264 -1.1739
    5CHTO  H214 1726   7.267   2.595   2.538  0.0130  0.0475 -1.9948
    5CHTO   O78 1727   7.358   2.648   2.708  0.3165  0.1548  0.8838
    5CHTO  H200 1728   7.426   2.592   2.741 -1.5386 -1.2516  2.4612
    5CHTO  C111 1729   7.492   2.617   2.507  0.1029 -0.5895 -0.5907
    5CHTO  H215 1730   7.575   2.671   2.555  0.5624 -0.8001 -1.1388
    5CHTO   N19 1731   7.521   2.475   2.530 -0.5283  0.2647  0.0925
    5CHTO  H207 1732   7.498   2.450   2.633  1.2107  2.8156  1.1551
    5CHTO  H208 1733   7.455   2.409   2.477  0.9456 -2.1433  1.1884
    5CHTO   O74 1734   7.165   2.825   2.557 -0.0855 -0.5934  0.1015
    5CHTO  C115 1735   7.132   2.891   2.701 -0.2170  0.1637 -0.1180
    5CHTO  H219 1736   7.154   2.822   2.782  1.3372 -0.7533 -1.2955
    5CHTO   O76 1737   7.218   3.021   2.730 -0.8052  0.1073  0.1763
    5CHTO  C122 1738   7.169   3.123   2.818 -0.2037  0.1566  0.0948
    5CHTO  H226 1739   7.233   3.209   2.799 -0.1099 -0.0318 -0.4801
    5CHTO  C126 1740   7.186   3.090   2.967  0.3447 -0.0487 -0.2140
    5CHTO   O85 1741   7.325   3.112   3.012 -0.2077  0.2976  0.1461
    5CHTO  H206 1742   7.390   3.071   2.958  0.3719  1.2245  0.1222
    5CHTO  C121 1743   7.020   3.158   2.793 -0.0255 -0.7379  0.0676
    5CHTO  H225 1744   6.988   3.228   2.873  0.0988 -0.8474  0.2122
    5CHTO   O81 1745   7.005   3.232   2.669  0.2503 -0.2661  0.6135
    5CHTO  H202 1746   7.088   3.267   2.643  0.3410 -0.0968  1.1192
    5CHTO  C119 1747   6.935   3.034   2.801  0.4035  0.5067  0.1337
    5CHTO  H223 1748   6.953   2.995   2.902  2.0888 -0.9524 -0.6859
    5CHTO  C117 1749   6.976   2.919   2.703  0.3668 -0.1434 -0.0943
    5CHTO  H221 1750   6.949   2.933   2.599  0.6360  3.4184  0.2659
    5CHTO   N20 1751   6.901   2.795   2.742  0.8435 -0.2834 -0.1510
    5CHTO  H209 1752   6.881   2.719   2.668 -0.6864 -0.3308  0.2979
    5CHTO  H210 1753   6.937   2.754   2.835 -1.1202  0.6684  1.0555
    5CHTO   O80 1754   6.782   3.072   2.806 -0.1798  0.4566  0.2838
    5CHTO  C103 1755   6.695   3.132   2.663 -0.7804  0.3408  1.0091
    5CHTO  H190 1756   6.720   3.237   2.646  1.1356 -0.0429  1.3072
    5CHTO  C101 1757   6.702   3.054   2.523 -0.3792  0.0500 -0.0456
    5CHTO  H188 1758   6.694   2.946   2.535  0.6432  0.2095  2.4306
    5CHTO   O68 1759   6.833   3.086   2.451  0.1041 -0.5782  0.0296
    5CHTO  H168 1760   6.884   3.009   2.439  1.3891 -0.2611  3.0053
    5CHTO   C99 1761   6.576   3.093   2.424  0.2370  0.3063  0.6160
    5CHTO  H186 1762   6.581   3.199   2.391  1.9919 -0.4402 -1.6402
    5CHTO   N17 1763   6.582   3.013   2.294  0.3113  0.0768 -0.0359
    5CHTO  H174 1764   6.646   2.926   2.305  0.2090  0.0304  0.2048
    5CHTO  H175 1765   6.619   3.072   2.212 -1.0456 -0.3389 -0.9563
    5CHTO   C97 1766   6.441   3.075   2.498 -0.0751  0.1649 -0.7552
    5CHTO  H184 1767   6.432   2.970   2.530  1.2045  0.2024 -0.2419
    5CHTO   O64 1768   6.458   3.162   2.614 -0.6235  0.5748  0.5895
    5CHTO  C104 1769   6.548   3.123   2.721  0.1884 -0.1229  0.0494
    5CHTO  H191 1770   6.527   3.025   2.763  1.5915 -0.4438  0.0257
    5CHTO  C108 1771   6.533   3.223   2.834  0.4532 -0.2457  0.0373
    5CHTO   O71 1772   6.404   3.224   2.891  0.2373 -0.2575  0.0389
    5CHTO  H171 1773   6.389   3.152   2.950  1.3779 -1.1618 -0.7388
    5CHTO   O62 1774   6.324   3.106   2.418  0.4840 -0.1566  0.4135
    5CHTO   C91 1775   6.204   3.065   2.484  0.5275 -0.5022  0.5717
    5CHTO  H178 1776   6.226   3.034   2.586  1.7147 -0.7802  0.2348
    5CHTO   C92 1777   6.148   2.934   2.410  0.4034  0.4131 -0.2072
    5CHTO  H179 1778   6.229   2.881   2.359  0.0376  1.4523 -1.9251
    5CHTO   O66 1779   6.090   2.837   2.505 -0.3057 -0.1568  0.5312
    5CHTO  H166 1780   6.135   2.756   2.520 -0.8503 -1.0285 -2.2674
    5CHTO   C93 1781   6.030   2.956   2.307 -0.3276  0.0085  0.1366
    5CHTO  H180 1782   5.999   2.852   2.290  0.2545 -0.1453 -0.0166
    5CHTO   N16 1783   6.075   3.012   2.179  0.0566  0.1597 -0.4530
    5CHTO  H172 1784   6.000   3.000   2.102 -0.5748 -0.6925  0.2864
    5CHTO  H173 1785   6.169   2.975   2.141  0.4534 -1.6730  2.2019
    5CHTO   C94 1786   5.918   3.028   2.384  0.8183 -0.5861 -0.6005
    5CHTO  H181 1787   5.871   3.106   2.325 -1.2375 -1.7259 -0.4998
    5CHTO   O61 1788   5.963   3.094   2.502 -0.4828 -0.1267 -0.3443
    5CHTO   C95 1789   6.085   3.166   2.487  0.4305 -0.2174 -0.1390
    5CHTO  H182 1790   6.084   3.217   2.391 -1.6145 -0.2796 -0.1870
    5CHTO  C106 1791   6.097   3.273   2.601  0.4154  0.9824 -0.4858
    5CHTO   O69 1792   5.998   3.372   2.589 -0.1738 -1.0451 -0.4002
    5CHTO  H169 1793   6.041   3.443   2.546 -2.0258  0.4042  0.1257
    5CHTO   O63 1794   5.814   2.918   2.423 -0.0869  0.5599 -0.1805
    5CHTO   C96 1795   5.717   2.859   2.314  0.0630  0.2492  0.3825
    5CHTO  H183 1796   5.782   2.855   2.226 -0.5851 -3.8817 -0.0142
    5CHTO   C98 1797   5.593   2.939   2.282  0.1352  0.4138 -0.6503
    5CHTO  H185 1798   5.541   2.968   2.374  1.2262  1.5290 -0.3731
    5CHTO   O67 1799   5.634   3.060   2.228  0.4306 -0.3886 -0.3971
    5CHTO  H167 1800   5.562   3.112   2.200 -0.3963  0.0523  2.3866
    5CHTO  C102 1801   5.495   2.859   2.185  0.3751 -0.0883  0.0947
    5CHTO  H189 1802   5.530   2.887   2.085 -0.3619  1.3264  0.2280
    5CHTO   N18 1803   5.356   2.911   2.199 -0.3502  0.3627 -0.2272
    5CHTO  H176 1804   5.341   2.962   2.293  1.6632 -1.5683  1.1907
    5CHTO  H177 1805   5.274   2.848   2.169  0.7523 -0.7968 -0.8513
    5CHTO  C105 1806   5.502   2.700   2.201  0.2410 -0.6166  0.8237
    5CHTO  H192 1807   5.432   2.664   2.277  1.7731 -3.0198  1.1688
    5CHTO   O65 1808   5.627   2.638   2.247  1.0990 -0.6115 -0.4522
    5CHTO  C100 1809   5.683   2.715   2.358  0.1007  0.2192  0.4582
    5CHTO  H187 1810   5.611   2.729   2.439  1.1655  0.2867  1.4064
    5CHTO  C107 1811   5.804   2.627   2.420 -0.5559 -0.3491 -0.2798
    5CHTO   O70 1812   5.913   2.616   2.322  0.4659 -0.3617 -0.4984
    5CHTO  H170 1813   5.993   2.581   2.354  0.0523 -0.5957  0.2888
    5CHTO   O57 1814   5.471   2.644   2.054  0.1782 -0.1125  0.1851
    5CHTO   C85 1815   5.371   2.542   2.016 -0.1294 -0.0229 -0.3610
    5CHTO  H157 1816   5.283   2.569   2.078 -0.6837 -2.3926 -0.0956
    5CHTO   C83 1817   5.415   2.402   2.073  0.1001  0.1260  0.5841
    5CHTO  H155 1818   5.411   2.416   2.181 -2.4024 -0.8159  0.6474
    5CHTO   O56 1819   5.551   2.366   2.040 -0.0007  0.0464  0.1100
    5CHTO  H135 1820   5.570   2.371   1.948  0.9741  0.0437  0.3073
    5CHTO   C81 1821   5.307   2.300   2.026 -0.3986  0.2835 -0.6362
    5CHTO  H153 1822   5.211   2.336   2.064  0.8205  0.5070  2.3368
    5CHTO   N14 1823   5.328   2.166   2.088 -0.2198  0.4323 -0.1138
    5CHTO  H141 1824   5.390   2.102   2.028 -1.0613  0.1337 -0.6710
    5CHTO  H142 1825   5.233   2.117   2.094  0.8662 -1.5420  1.7435
    5CHTO   C79 1826   5.310   2.295   1.869  0.0756 -0.0265 -0.2399
    5CHTO  H151 1827   5.238   2.220   1.837 -1.3184  0.3801  1.8742
    5CHTO   O52 1828   5.267   2.419   1.816 -0.3137 -0.4770  0.2098
    5CHTO   C86 1829   5.338   2.537   1.867  0.2796  0.1881 -0.3682
    5CHTO  H158 1830   5.430   2.538   1.804 -0.5425  0.2745 -1.5944
    5CHTO   C90 1831   5.257   2.662   1.824  0.3986  1.1114  0.3071
    5CHTO   O60 1832   5.265   2.676   1.680 -0.2459 -0.3533  0.1422
    5CHTO  H138 1833   5.348   2.656   1.639 -0.0388  2.6052 -1.0071
    5CHTO   O50 1834   5.434   2.257   1.804 -0.4562  0.1910 -0.4906
    5CHTO   C73 1835   5.492   2.174   1.701  0.1969  0.5159 -0.2035
    5CHTO  H145 1836   5.432   2.182   1.609 -0.4938  0.6216  0.2481
    5CHTO   C74 1837   5.492   2.024   1.758 -0.5279  0.2004  0.2319
    5CHTO  H146 1838   5.393   2.001   1.799 -1.1712  0.3588 -1.2030
    5CHTO   O54 1839   5.511   1.934   1.645 -0.0721  0.3434  0.5050
    5CHTO  H133 1840   5.461   1.855   1.656  0.4880 -0.3119 -1.5782
    5CHTO   C75 1841   5.603   2.010   1.869  0.5650  0.4124  0.8378
    5CHTO  H147 1842   5.569   2.073   1.952  0.9997  0.5623  0.9033
    5CHTO   N13 1843   5.608   1.875   1.927 -0.2044  0.3612 -0.3705
    5CHTO  H139 1844   5.552   1.801   1.872 -0.5512  0.6143 -0.3551
    5CHTO  H140 1845   5.588   1.884   2.033  1.5851  0.7771 -0.0428
    5CHTO   C76 1846   5.745   2.074   1.828 -0.5460 -0.1672 -0.6247
    5CHTO  H148 1847   5.791   2.019   1.746  0.9013  0.7916 -0.4806
    5CHTO   O49 1848   5.723   2.207   1.785 -0.5035  0.3480  0.1918
    5CHTO   C77 1849   5.642   2.221   1.669 -0.2371 -1.0965  0.0575
    5CHTO  H149 1850   5.677   2.165   1.582  0.3764  0.9850 -1.0619
    5CHTO   C88 1851   5.641   2.371   1.636  0.2387  0.1925  0.2901
    5CHTO   O58 1852   5.541   2.407   1.541  0.1082 -0.1366 -0.4032
    5CHTO  H136 1853   5.570   2.487   1.502 -0.9546  0.2762 -0.3513
    5CHTO   O51 1854   5.847   2.075   1.956 -0.0193  0.3085  0.7587
    5CHTO   C78 1855   5.966   2.185   1.948 -0.1291  0.0154  0.0934
    5CHTO  H150 1856   5.940   2.269   1.880  0.0822  0.5295  0.6497
    5CHTO   C80 1857   6.097   2.124   1.890  0.2556  0.4842  0.2934
    5CHTO  H152 1858   6.106   2.027   1.943 -1.7505 -0.0479 -0.2908
    5CHTO   O55 1859   6.072   2.095   1.752  0.1270  0.4733  0.3923
    5CHTO  H134 1860   5.993   2.043   1.754  1.6802 -1.9593  0.8330
    5CHTO   C84 1861   6.220   2.209   1.908 -0.5649  0.0666 -0.3632
    5CHTO  H156 1862   6.194   2.305   1.862 -2.1912 -1.3604 -2.5658
    5CHTO   N15 1863   6.348   2.139   1.862  0.4006 -0.3300  0.0562
    5CHTO  H143 1864   6.420   2.218   1.868  1.5005 -1.4452  2.1850
    5CHTO  H144 1865   6.375   2.068   1.937 -1.5205 -2.6449 -1.3640
    5CHTO   C87 1866   6.231   2.261   2.049 -0.8917  0.0144  0.0759
    5CHTO  H159 1867   6.258   2.179   2.116 -0.3197 -1.5322 -1.9921
    5CHTO   O53 1868   6.093   2.334   2.097 -0.1302  0.1240 -0.2046
    5CHTO   C82 1869   5.987   2.238   2.091 -0.0879 -0.0074  0.1228
    5CHTO  H154 1870   6.008   2.154   2.158  0.6032 -1.6302 -2.0977
    5CHTO   C89 1871   5.855   2.298   2.137 -0.3049 -0.3878 -0.3657
    5CHTO   O59 1872   5.858   2.319   2.276 -0.2698  0.1954  0.1349
    5CHTO  H137 1873   5.804   2.253   2.316  0.8115  0.3206  1.8609
    5CHTO   O45 1874   6.356   2.375   2.062  0.1440  0.0141  0.2705
    5CHTO   C67 1875   6.378   2.438   2.187 -0.0839  0.1276  0.3016
    5CHTO  H124 1876   6.284   2.463   2.234  0.8981  2.0066  1.3145
    5CHTO   C65 1877   6.465   2.344   2.273 -0.5103  0.6466 -0.2240
    5CHTO  H122 1878   6.507   2.271   2.203  0.2207  1.4427 -0.6245
    5CHTO   O44 1879   6.380   2.278   2.369  0.3456 -0.3111 -0.5689
    5CHTO  H102 1880   6.311   2.228   2.329  1.7180 -2.1878 -0.6904
    5CHTO   C63 1881   6.580   2.424   2.337  0.1620 -0.5753  0.1574
    5CHTO  H120 1882   6.647   2.452   2.256  0.7118 -3.5248 -0.4747
    5CHTO   N11 1883   6.670   2.345   2.432  0.2845  0.0213  0.4469
    5CHTO  H108 1884   6.765   2.332   2.385 -0.2975  2.4615 -1.4837
    5CHTO  H109 1885   6.627   2.252   2.462 -0.0356 -0.9319 -2.8108
    5CHTO   C61 1886   6.530   2.560   2.394 -0.1615  0.2767 -0.9313
    5CHTO  H118 1887   6.613   2.620   2.435  0.6280 -0.1906 -1.8228
    5CHTO   O40 1888   6.468   2.648   2.294  0.5536  0.8280 -0.2740
    5CHTO   C68 1889   6.453   2.587   2.165  0.2280 -0.0123 -0.3271
    5CHTO  H125 1890   6.554   2.578   2.120  0.2107 -0.6268 -0.2484
    5CHTO   C72 1891   6.371   2.684   2.081  0.5128  0.7840 -0.2396
    5CHTO   O48 1892   6.458   2.796   2.047  0.1225  0.2762  0.0576
    5CHTO  H105 1893   6.405   2.857   2.000 -1.4891  0.9310  2.6489
    5CHTO   O38 1894   6.453   2.527   2.508 -0.2549 -0.4212  0.3683
    5CHTO   C55 1895   6.370   2.630   2.573  0.4956  0.5979  0.0780
    5CHTO  H112 1896   6.327   2.710   2.511  1.9549  0.2761 -1.3726
    5CHTO   C56 1897   6.457   2.689   2.698 -0.0663  0.7998  0.2269
    5CHTO  H113 1898   6.506   2.598   2.736  1.8156  1.3295 -0.8674
    5CHTO   O42 1899   6.563   2.766   2.644 -0.7889 -0.3381 -0.1786
    5CHTO  H100 1900   6.604   2.720   2.574  0.6833  0.4691  0.1332
    5CHTO   C57 1901   6.367   2.762   2.800 -0.3240  0.1999 -0.1494
    5CHTO  H114 1902   6.344   2.852   2.742  0.5736  1.2985  1.1486
    5CHTO   N10 1903   6.432   2.788   2.929 -0.1678  0.4869  0.4087
    5CHTO  H106 1904   6.485   2.883   2.928  0.7933 -0.0117  1.6451
    5CHTO  H107 1905   6.363   2.785   3.012  1.2281 -0.9751  1.5701
    5CHTO   C58 1906   6.232   2.686   2.826 -0.9370  0.5662 -0.1696
    5CHTO  H115 1907   6.263   2.596   2.884  2.3972  2.3370  0.9060
    5CHTO   O37 1908   6.174   2.645   2.700 -0.2218 -0.1543 -0.3224
    5CHTO   C59 1909   6.249   2.556   2.629  0.2632  0.1927 -0.5005
    5CHTO  H116 1910   6.282   2.473   2.692 -0.4135 -1.2330 -1.9844
    5CHTO   C70 1911   6.156   2.476   2.533 -0.2551  0.1275 -0.2998
    5CHTO   O46 1912   6.048   2.405   2.597  0.4811 -0.6850  0.0540
    5CHTO  H103 1913   6.018   2.332   2.547 -2.2307  0.1892  0.3385
    5CHTO   O39 1914   6.121   2.787   2.908 -0.1891 -0.4563  0.2563
    5CHTO   C60 1915   5.997   2.814   2.845 -0.2730 -0.1085 -0.0008
    5CHTO  H117 1916   6.005   2.826   2.737  0.9221  0.7954  0.1791
    5CHTO   C62 1917   5.917   2.688   2.862  0.0698  0.5853  0.3042
    5CHTO  H119 1918   5.966   2.604   2.808  0.0532 -0.6405  2.1406
    5CHTO   O43 1919   5.909   2.641   2.997  0.2515 -0.3660  0.5255
    5CHTO  H101 1920   5.836   2.582   3.000  0.8029 -1.0494  0.7379
    5CHTO   C66 1921   5.771   2.712   2.799  0.5415 -0.1746  0.0170
    5CHTO  H123 1922   5.775   2.751   2.697  0.0882  1.1059  0.4804
    5CHTO   N12 1923   5.699   2.581   2.786  0.5064 -0.1442 -0.8953
    5CHTO  H110 1924   5.743   2.525   2.704  0.9987  0.5970 -1.1396
    5CHTO  H111 1925   5.707   2.529   2.880 -0.1588  1.1445 -0.1188
    5CHTO   C69 1926   5.694   2.816   2.889 -0.0675  0.3924 -0.3115
    5CHTO  H126 1927   5.712   2.771   2.989 -0.5572  0.5704 -0.1417
    5CHTO   O41 1928   5.768   2.947   2.858  0.6545 -0.4714 -0.4774
    5CHTO   C64 1929   5.913   2.941   2.902  0.0263  0.1421  0.3581
    5CHTO  H121 1930   5.911   2.936   3.013 -3.2466  0.7405  0.3941
    5CHTO   C71 1931   5.980   3.067   2.849  0.1313  0.6290  1.0132
    5CHTO   O47 1932   6.110   3.074   2.909  0.0388 -0.0124  0.0655
    5CHTO  H104 1933   6.160   2.997   2.887  0.2573  0.2472 -0.3414
    5CHTO   O34 1934   5.545   2.829   2.863  0.1868  0.4507  0.3052
    5CHTO   C49 1935   5.425   2.945   2.851 -0.2601 -0.3403  0.6348
    5CHTO   H91 1936   5.328   2.897   2.861 -0.6755 -0.2479 -2.5782
    5CHTO   C47 1937   5.423   3.014   2.707  0.0007  0.0772 -0.7189
    5CHTO   H89 1938   5.359   2.947   2.646 -1.8373  1.3294 -0.2217
    5CHTO   O33 1939   5.552   3.015   2.643  0.7109 -0.0007  0.3676
    5CHTO   H70 1940   5.559   3.067   2.565 -1.1762  1.0026  0.8495
    5CHTO   C45 1941   5.358   3.158   2.716  0.4248  0.5630  0.7193
    5CHTO   H87 1942   5.448   3.220   2.727  0.1771  0.8035  1.4311
    5CHTO    N8 1943   5.292   3.191   2.589 -0.0419  0.1021 -0.1430
    5CHTO   H75 1944   5.248   3.286   2.564  1.7251  0.1422 -3.4562
    5CHTO   H76 1945   5.320   3.137   2.499 -1.7264 -1.9929  0.5491
    5CHTO   C43 1946   5.266   3.178   2.848 -0.5805 -0.3289 -0.7835
    5CHTO   H85 1947   5.229   3.280   2.850 -0.4270 -0.2888  0.0552
    5CHTO   O29 1948   5.347   3.162   2.966 -0.2751 -0.0475  0.0109
    5CHTO   C50 1949   5.431   3.051   2.969  0.3998  0.4488 -0.4580
    5CHTO   H92 1950   5.533   3.092   2.969  0.3938  0.4637 -0.5165
    5CHTO   C54 1951   5.414   2.977   3.108  0.7999  0.6455 -0.4369
    5CHTO   O36 1952   5.275   2.934   3.125 -0.2782 -0.0996  0.0375
    5CHTO   H72 1953   5.266   2.880   3.201 -0.5228  0.1960  0.2203
    5CHTO   O27 1954   5.154   3.096   2.850  0.4761 -1.0502  0.3359
    5CHTO   C37 1955   5.008   3.106   2.873  0.0807 -0.4291  0.3568
    5CHTO   H79 1956   4.981   3.138   2.974  1.4167 -2.5031  1.4095
    5CHTO   C38 1957   4.942   3.208   2.777  0.1418 -0.0538 -0.7447
    5CHTO   H80 1958   4.966   3.178   2.674  1.2925 -1.1812 -0.1637
    5CHTO   O31 1959   4.990   3.341   2.795  0.4450  0.5197  0.2885
    5CHTO   H68 1960   5.055   3.347   2.863  0.6270 -2.2411  0.3953
    5CHTO   C39 1961   4.784   3.200   2.801 -0.2643  0.4773 -0.5595
    5CHTO   H81 1962   4.769   3.245   2.899  1.2843 -2.2031  0.9799
    5CHTO    N7 1963   4.703   3.287   2.703  0.0331  1.3995 -0.2195
    5CHTO   H73 1964   4.599   3.274   2.732  0.0839  2.8735  0.6689
    5CHTO   H74 1965   4.724   3.249   2.605  1.1392 -0.9086  0.8584
    5CHTO   C40 1966   4.738   3.049   2.809 -0.0496 -0.5601 -0.2889
    5CHTO   H82 1967   4.747   3.011   2.707  2.9502  0.7134 -0.5355
    5CHTO   O26 1968   4.818   2.971   2.900 -0.4791  0.4983  0.0651
    5CHTO   C41 1969   4.960   2.958   2.861  0.4750 -0.0498  0.0495
    5CHTO   H83 1970   4.960   2.925   2.756 -0.7333  1.0643 -0.3159
    5CHTO   C52 1971   5.018   2.837   2.947  0.5116  0.3098  0.9494
    5CHTO   O35 1972   4.941   2.701   2.922 -0.0286  0.2538  0.0205
    5CHTO   H71 1973   4.973   2.620   2.956 -0.8314 -0.6432 -1.3367
    5CHTO   O28 1974   4.597   3.041   2.856  0.0831  0.9222  0.1824
    5CHTO   C42 1975   4.557   3.009   2.994  0.1408  0.3438  0.2041
    5CHTO   H84 1976   4.450   3.032   2.989  0.3539  1.2266 -0.2867
    5CHTO   C44 1977   4.612   3.099   3.112 -0.2467 -0.7835 -0.0677
    5CHTO   H86 1978   4.720   3.084   3.113 -0.0779  0.4269  0.3098
    5CHTO   O32 1979   4.582   3.232   3.077 -0.1374 -0.2109  0.4899
    5CHTO   H69 1980   4.654   3.277   3.036  0.5446 -0.8652  0.9529
    5CHTO   C48 1981   4.563   3.055   3.252 -0.0708  0.3901 -1.0550
    5CHTO   H90 1982   4.455   3.056   3.266  0.1203  0.1445  0.5871
    5CHTO    N9 1983   4.613   3.138   3.366 -0.5582 -0.0160  0.6746
    5CHTO   H77 1984   4.657   3.075   3.442  1.2136 -0.1992 -0.4656
    5CHTO   H78 1985   4.524   3.186   3.403 -0.5916  0.0280  0.5361
    5CHTO   C51 1986   4.602   2.897   3.270  0.0834 -0.1803 -0.1095
    5CHTO   H93 1987   4.709   2.879   3.262 -0.0765 -0.7393 -1.1951
    5CHTO   O30 1988   4.534   2.818   3.174 -0.4868  0.0516  0.0950
    5CHTO   C46 1989   4.575   2.856   3.026  0.0657  0.1485  0.3619
    5CHTO   H88 1990   4.678   2.825   3.011 -0.2061 -0.8143  0.4783
    5CHTO   C53 1991   4.484   2.759   2.939  0.3699  0.0406 -0.2140
    5CHTO   O72 1992   4.531   2.624   2.948 -0.0160  0.5230 -0.2207
    5CHTO  H199 1993   4.468   2.578   2.895 -0.6569  1.3088 -0.1620
    5CHTO   O22 1994   4.555   2.840   3.396  0.0520 -0.4356 -0.9195
    5CHTO   C31 1995   4.648   2.738   3.469  0.2574 -0.3562 -0.3361
    5CHTO   H59 1996   4.592   2.699   3.556 -1.4070  0.2408 -1.1178
    5CHTO   C29 1997   4.683   2.615   3.383  0.0893 -0.7881  0.6530
    5CHTO   H57 1998   4.709   2.652   3.283 -0.9355 -0.5197  0.4790
    5CHTO   O21 1999   4.563   2.543   3.350 -0.6062  0.3430  0.1524
    5CHTO   H37 2000   4.502   2.594   3.300 -0.7970 -1.3704 -1.4257
    5CHTO   C27 2001   4.798   2.526   3.445  0.0784  0.0932  0.1155
    5CHTO   H55 2002   4.755   2.470   3.530 -0.2870 -0.3453 -0.3581
    5CHTO    N5 2003   4.848   2.429   3.348  0.1127 -0.0318 -0.1856
    5CHTO   H43 2004   4.781   2.356   3.306  0.6431 -0.1456 -0.8431
    5CHTO   H44 2005   4.945   2.389   3.374  0.0806  0.6037  0.9475
    5CHTO   C25 2006   4.920   2.613   3.492  0.6617 -0.2793  0.2534
    5CHTO   H53 2007   4.956   2.666   3.402  0.6464  0.7346  0.8386
    5CHTO   O17 2008   4.871   2.707   3.593  0.0438 -0.3812 -0.4376
    5CHTO   C32 2009   4.779   2.806   3.533  0.0920  0.1272 -0.4094
    5CHTO   H60 2010   4.831   2.863   3.457  0.9212 -0.0320  0.0271
    5CHTO   C36 2011   4.727   2.902   3.643 -0.7681  0.3720  0.3441
    5CHTO   O25 2012   4.668   2.827   3.750  0.3003 -0.5718 -0.3803
    5CHTO   H40 2013   4.576   2.813   3.739 -0.1218 -0.0819  2.0737
    5CHTO   O15 2014   5.049   2.524   3.555  0.5635 -0.3037 -0.7032
    5CHTO   C19 2015   5.186   2.563   3.578  0.5333  0.5033  0.2147
    5CHTO   H47 2016   5.174   2.673   3.580  1.4323  0.6058  0.3630
    5CHTO   C20 2017   5.229   2.505   3.717 -0.3514 -0.1754 -0.0236
    5CHTO   H48 2018   5.212   2.396   3.721 -1.2041 -0.1648 -2.7659
    5CHTO   O19 2019   5.154   2.560   3.828 -0.2263  0.2296  0.2287
    5CHTO   H35 2020   5.152   2.653   3.816 -0.2030  0.0011 -1.6412
    5CHTO   C21 2021   5.386   2.523   3.734  0.4292  0.1302  1.0718
    5CHTO   H49 2022   5.411   2.623   3.769  1.8721 -0.8652  2.9304
    5CHTO    N4 2023   5.446   2.441   3.841 -0.7289 -0.0439  0.4933
    5CHTO   H41 2024   5.373   2.391   3.902  0.5728 -1.0730  1.2303
    5CHTO   H42 2025   5.502   2.509   3.904  1.3452 -0.0795 -1.2591
    5CHTO   C22 2026   5.463   2.491   3.601  0.4255 -0.7543  0.2385
    5CHTO   H50 2027   5.464   2.385   3.577 -0.8769 -0.6753 -0.1772
    5CHTO   O14 2028   5.409   2.559   3.491 -0.4735  0.1440 -0.1620
    5CHTO   C23 2029   5.276   2.525   3.453  0.4593 -0.0550 -0.1711
    5CHTO   H51 2030   5.276   2.419   3.425  0.3316  0.0821 -0.7048
    5CHTO   C34 2031   5.244   2.599   3.324 -0.1077  0.3540  0.0886
    5CHTO   O23 2032   5.127   2.552   3.258  0.3060  0.0585  0.3897
    5CHTO   H38 2033   5.062   2.620   3.261 -2.3571 -2.3686 -0.1870
    5CHTO   O16 2034   5.600   2.541   3.605 -0.2990 -0.4989  0.0660
    5CHTO   C24 2035   5.694   2.445   3.508  0.0103  0.1565  0.0409
    5CHTO   H52 2036   5.632   2.374   3.454 -0.1333  0.4405 -0.1700
    5CHTO   C26 2037   5.788   2.366   3.603 -0.1276  0.8680 -0.2517
    5CHTO   H54 2038   5.843   2.436   3.668 -0.0030 -0.6890  1.3673
    5CHTO   O20 2039   5.704   2.281   3.691 -0.2189 -0.3819 -0.0507
    5CHTO   H36 2040   5.754   2.225   3.747 -1.0212 -3.2230 -2.0379
    5CHTO   C30 2041   5.894   2.290   3.515 -0.4141  0.2525 -0.0729
    5CHTO   H58 2042   5.843   2.212   3.456  2.5441 -1.3924 -0.5368
    5CHTO    N6 2043   5.986   2.210   3.599 -0.3011  0.3465  0.3029
    5CHTO   H45 2044   5.936   2.141   3.666 -0.6445  0.7406  0.4491
    5CHTO   H46 2045   6.058   2.267   3.656  1.6975 -3.5653  1.9573
    5CHTO   C33 2046   5.960   2.375   3.410 -0.4633  0.1780 -0.0227
    5CHTO   H61 2047   6.023   2.447   3.465 -0.1412 -0.0562 -0.0843
    5CHTO   O18 2048   5.866   2.451   3.332 -0.3082 -0.5877 -0.0743
    5CHTO   C28 2049   5.771   2.527   3.402  0.2998  0.3999 -0.1718
    5CHTO   H56 2050   5.824   2.606   3.455  0.2963  1.0452 -1.1175
    5CHTO   C35 2051   5.683   2.589   3.298 -0.6915  0.2334  0.1144
    5CHTO   O24 2052   5.723   2.719   3.259  0.2325  0.7665  0.1907
    5CHTO   H39 2053   5.812   2.716   3.228 -0.0217  1.3553 -0.6283
    5CHTO    O9 2054   6.047   2.298   3.328 -0.3133 -0.7725 -0.1296
    5CHTO   C13 2055   6.131   2.365   3.206  0.4969  0.2767  0.2493
    5CHTO   H26 2056   6.056   2.402   3.133  2.0686 -0.3904 -1.7520
    5CHTO   C11 2057   6.215   2.246   3.143  0.1458 -0.1531  0.5208
    5CHTO   H24 2058   6.145   2.180   3.090  2.3865 -1.8582 -0.4386
    5CHTO    O8 2059   6.290   2.169   3.241 -0.3960 -0.6420  0.0734
    5CHTO    H3 2060   6.382   2.157   3.226 -0.1138 -0.8094  1.8736
    5CHTO    C9 2061   6.305   2.295   3.024  0.7611 -0.4585 -0.1656
    5CHTO   H22 2062   6.235   2.338   2.951 -0.7496 -1.9168  0.3869
    5CHTO    N2 2063   6.369   2.184   2.943 -0.0212 -0.8767  0.2698
    5CHTO   H10 2064   6.343   2.085   2.978  0.4348 -1.2923 -0.5553
    5CHTO   H11 2065   6.350   2.189   2.837 -0.6891 -0.3431  0.4146
    5CHTO    C7 2066   6.393   2.416   3.075  0.2660  0.0775 -0.5026
    5CHTO   H20 2067   6.425   2.470   2.984  0.1868  0.6201 -0.2104
    5CHTO    O4 2068   6.314   2.515   3.148  0.6542  0.6275 -0.3671
    5CHTO   C14 2069   6.220   2.482   3.248  0.2498  0.0099 -0.2704
    5CHTO   H27 2070   6.161   2.576   3.249  1.1461  0.6301 -2.3360
    5CHTO   C18 2071   6.294   2.464   3.381  0.3661 -0.1810 -0.0897
    5CHTO   O13 2072   6.336   2.594   3.420  0.0747 -0.3931 -0.2566
    5CHTO    H7 2073   6.359   2.593   3.511  0.2319 -1.2338 -0.3069
    5CHTO    O2 2074   6.544   2.376   3.160  0.2512 -0.7462 -0.3293
    5CHTO    C1 2075   6.651   2.455   3.111 -0.6054  0.2657  0.5447
    5CHTO   H14 2076   6.626   2.561   3.089  4.7450  2.0394  2.2394
    5CHTO    C2 2077   6.726   2.396   2.984  0.1139 -0.2650 -0.3106
    5CHTO   H15 2078   6.767   2.296   3.006 -0.6498 -0.6766 -0.7186
    5CHTO    O6 2079   6.642   2.389   2.868 -0.8316  0.7872  0.6504
    5CHTO    H1 2080   6.605   2.307   2.840  1.4361  0.2668 -1.0139
    5CHTO    C3 2081   6.856   2.480   2.952 -0.4827  0.6751 -0.2866
    5CHTO   H16 2082   6.814   2.581   2.938  0.9286  1.3243 -0.0170
    5CHTO    N1 2083   6.923   2.436   2.824 -0.2539 -0.7288  0.1439
    5CHTO    H8 2084   6.948   2.521   2.761  0.5305 -0.2577  1.0727
    5CHTO    H9 2085   7.014   2.383   2.850  0.6256  0.4899 -0.3705
    5CHTO    C4 2086   6.949   2.482   3.079  0.5014 -0.2915  0.7355
    5CHTO   H17 2087   6.997   2.386   3.097  1.1827 -0.1800 -0.4145
    5CHTO    O1 2088   6.879   2.527   3.195  0.5297  0.3668  0.1253
    5CHTO    C5 2089   6.756   2.453   3.223 -0.8723 -0.2210 -0.4114
    5CHTO   H18 2090   6.795   2.352   3.234 -0.7193 -0.2159 -0.8794
    5CHTO   C16 2091   6.702   2.502   3.359  0.4134  0.3915  0.2973
    5CHTO   O11 2092   6.703   2.647   3.353 -0.3336 -0.1845  0.5314
    5CHTO    H5 2093   6.655   2.688   3.283  2.0581  1.0049 -0.4684
    5CHTO    O3 2094   7.043   2.590   3.060 -0.2372 -0.0983 -0.2657
    5CHTO    C6 2095   7.174   2.564   3.116  0.8679 -1.1186  0.0464
    5CHTO   H19 2096   7.184   2.478   3.182  0.0285 -0.8179  0.5669
    5CHTO    C8 2097   7.284   2.539   3.006  0.5254 -0.2753  0.3701
    5CHTO   H21 2098   7.273   2.613   2.926  0.4870 -2.5019 -1.7355
    5CHTO    O7 2099   7.262   2.409   2.945 -0.1623  0.0019  0.0383
    5CHTO    H2 2100   7.270   2.408   2.851  0.8723 -2.0706  0.1178
    5CHTO   C12 2101   7.436   2.538   3.063  0.8417 -0.5373 -0.3458
    5CHTO   H25 2102   7.439   2.444   3.122  0.7432 -0.2145  0.1804
    5CHTO    N3 2103   7.540   2.523   2.964 -0.7321  0.3486  0.3304
    5CHTO   H12 2104   7.578   2.614   2.920  1.2167 -0.2549  0.7102
    5CHTO   H13 2105   7.525   2.445   2.892  1.0503 -1.0826  1.4637
    5CHTO   C15 2106   7.449   2.652   3.169 -0.0504 -0.1471  0.4014
    5CHTO   H28 2107   7.458   2.748   3.119 -0.0682 -1.5308 -2.3403
    5CHTO   O10 2108   7.562   2.623   3.271 -0.0940 -0.2698  0.2019
    5CHTO    H4 2109   7.539   2.574   3.347  1.0374  2.2749  2.2673
    5CHTO    O5 2110   7.339   2.661   3.263  0.4850 -0.0081 -0.5746
    5CHTO   C10 2111   7.218   2.689   3.197 -0.7810  0.2557  0.1999
    5CHTO   H23 2112   7.226   2.772   3.127 -1.5601  0.2678  0.1245
    5CHTO   C17 2113   7.116   2.736   3.303 -0.8121 -0.5503  0.4574
    5CHTO   O12 2114   7.105   2.632   3.410  0.2666 -0.1997  0.3849
    5CHTO    H6 2115   7.048   2.669   3.474  1.9604  1.8022  0.7817
    6CHTO  H203 2116   6.706   4.070   0.493 -0.2330  0.8425  1.1498
    6CHTO   O82 2117   6.625   4.069   0.445  0.0830  0.5614  0.6028
    6CHTO  C123 2118   6.563   4.200   0.454  0.4418  0.4133 -0.1409
    6CHTO  H227 2119   6.637   4.276   0.425 -0.9096  0.8231 -2.6873
    6CHTO   O77 2120   6.453   4.181   0.359  0.1310 -0.4841 -0.3707
    6CHTO  C118 2121   6.374   4.297   0.349 -0.0476  0.3146  0.8217
    6CHTO  H222 2122   6.444   4.382   0.346 -0.1051  0.3410  0.0097
    6CHTO  C125 2123   6.295   4.286   0.220  0.2768  0.5567 -0.0669
    6CHTO   O84 2124   6.368   4.303   0.102 -0.3695 -0.2698  0.0730
    6CHTO  H205 2125   6.383   4.227   0.049  0.4990 -0.3268  0.3985
    6CHTO  C114 2126   6.292   4.312   0.481 -0.3987 -0.0255  0.1771
    6CHTO  H218 2127   6.252   4.215   0.511 -1.5368  0.8769  1.6228
    6CHTO  C116 2128   6.390   4.348   0.593  0.4607  0.3607  0.6116
    6CHTO  H220 2129   6.443   4.440   0.558  2.3604 -1.0344 -0.2622
    6CHTO   O79 2130   6.321   4.370   0.716  0.3968  0.2108  0.5437
    6CHTO  H201 2131   6.280   4.455   0.710 -1.4943 -0.3921  3.8913
    6CHTO  C120 2132   6.502   4.234   0.601 -0.1811  0.1457  0.1378
    6CHTO  H224 2133   6.454   4.143   0.643 -0.4738  0.1015 -0.2968
    6CHTO   N21 2134   6.610   4.269   0.692 -0.6197  0.5676  0.3782
    6CHTO  H211 2135   6.595   4.227   0.790  0.7187 -0.9469 -0.0376
    6CHTO  H212 2136   6.613   4.377   0.695  0.0681  0.6403 -1.6556
    6CHTO   O75 2137   6.192   4.412   0.457 -0.4630 -0.7467  0.3021
    6CHTO  C112 2138   6.064   4.410   0.566  0.0406 -0.4925  0.6692
    6CHTO  H216 2139   6.097   4.399   0.671 -1.5219 -2.2153  1.0166
    6CHTO   O73 2140   5.986   4.298   0.529  0.2927 -0.4968 -0.5036
    6CHTO  C113 2141   5.883   4.271   0.634 -0.0875 -0.2194  0.2849
    6CHTO  H217 2142   5.945   4.284   0.725  0.9258  0.0445 -0.4345
    6CHTO  C124 2143   5.848   4.127   0.607 -0.3593 -0.9086 -0.5053
    6CHTO   O83 2144   5.745   4.088   0.703  0.0853  0.4323  0.3792
    6CHTO  H204 2145   5.697   4.019   0.662  0.1784  1.3100 -1.2477
    6CHTO  C109 2146   5.773   4.385   0.612  0.1644  0.1827 -0.0867
    6CHTO  H213 2147   5.735   4.373   0.510  0.4550  0.0753 -0.1806
    6CHTO  C110 2148   5.846   4.523   0.635  0.4575  0.2394 -0.6825
    6CHTO  H214 2149   5.872   4.528   0.741 -0.8322  0.1433 -0.3492
    6CHTO   O78 2150   5.749   4.623   0.611 -0.1544 -0.1032  0.2042
    6CHTO  H200 2151   5.719   4.614   0.522 -1.9349  1.3166  0.6473
    6CHTO  C111 2152   5.972   4.537   0.549 -0.0678 -0.2643  0.1378
    6CHTO  H215 2153   5.948   4.545   0.442  0.2035  1.1078  0.1771
    6CHTO   N19 2154   6.053   4.658   0.587  0.6167 -0.2687 -0.2852
    6CHTO  H207 2155   5.990   4.743   0.564 -0.2324 -1.5653 -2.9873
    6CHTO  H208 2156   6.074   4.658   0.693 -1.1844 -0.2915  0.0916
    6CHTO   O74 2157   5.655   4.379   0.701  0.2604  0.3446 -0.0287
    6CHTO  C115 2158   5.678   4.342   0.857  0.6378  0.3949  0.2323
    6CHTO  H219 2159   5.768   4.282   0.870  1.0447  1.2415  1.4082
    6CHTO   O76 2160   5.716   4.476   0.949 -0.3459 -0.0525 -0.0599
    6CHTO  C122 2161   5.612   4.576   0.942  0.4608 -0.3026  0.0006
    6CHTO  H226 2162   5.623   4.639   0.855 -1.3927 -0.9643 -0.7458
    6CHTO  C126 2163   5.623   4.670   1.059 -0.1656  0.4781  0.2254
    6CHTO   O85 2164   5.732   4.765   1.059  0.0734  0.5036 -0.7864
    6CHTO  H206 2165   5.749   4.797   0.972 -0.0899  0.9641 -0.6461
    6CHTO  C121 2166   5.468   4.512   0.945  0.0658  0.2446  0.5200
    6CHTO  H225 2167   5.399   4.578   1.001 -1.2637  0.1394 -0.9340
    6CHTO   O81 2168   5.411   4.516   0.809  0.1266 -0.6889 -0.2423
    6CHTO  H202 2169   5.321   4.489   0.809  0.0590 -0.5335  0.9858
    6CHTO  C119 2170   5.462   4.365   1.000  0.1662  0.3085 -0.7318
    6CHTO  H223 2171   5.500   4.381   1.101  1.2849 -1.1636 -0.9010
    6CHTO  C117 2172   5.552   4.268   0.913  0.7705 -0.2264 -0.0088
    6CHTO  H221 2173   5.501   4.226   0.826  0.2846  0.0380  0.1440
    6CHTO   N20 2174   5.590   4.149   0.992  0.0767 -0.1895 -0.3485
    6CHTO  H209 2175   5.519   4.070   1.011  1.4753 -1.1421  1.0622
    6CHTO  H210 2176   5.655   4.158   1.078 -2.0383 -1.3950  1.4185
    6CHTO   O80 2177   5.330   4.318   1.031 -0.0753  0.1863 -0.5552
    6CHTO  C103 2178   5.277   4.299   1.179 -0.1497 -1.2212  0.1627
    6CHTO  H190 2179   5.352   4.247   1.239 -1.1295 -1.4675  1.1997
    6CHTO  C101 2180   5.233   4.430   1.270 -0.2151  0.0871  0.3391
    6CHTO  H188 2181   5.158   4.487   1.215 -0.0722  1.0277  1.1070
    6CHTO   O68 2182   5.345   4.521   1.298 -0.0652  0.5312 -0.1356
    6CHTO  H168 2183   5.343   4.557   1.384  0.1908  1.5622 -0.5522
    6CHTO   C99 2184   5.171   4.374   1.406  0.0084 -0.3611 -0.2596
    6CHTO  H186 2185   5.243   4.301   1.449 -0.3594 -1.2092 -1.0389
    6CHTO   N17 2186   5.126   4.474   1.505 -0.0790  0.3784  0.3069
    6CHTO  H174 2187   5.145   4.432   1.603 -0.7332 -1.0235 -0.1599
    6CHTO  H175 2188   5.167   4.572   1.486  0.0092 -0.0135 -1.5573
    6CHTO   C97 2189   5.046   4.284   1.371 -0.2847 -0.7050 -0.6351
    6CHTO  H184 2190   4.968   4.342   1.320 -0.0236  0.4466  0.2567
    6CHTO   O64 2191   5.088   4.172   1.296 -0.4262  0.6796  0.4418
    6CHTO  C104 2192   5.157   4.200   1.174 -0.0558  0.2348 -0.8097
    6CHTO  H191 2193   5.083   4.243   1.106  0.8893 -0.1189 -2.0968
    6CHTO  C108 2194   5.202   4.067   1.119 -0.0207 -0.0863 -0.4799
    6CHTO   O71 2195   5.297   3.997   1.198  0.2355 -0.0859 -0.1626
    6CHTO  H171 2196   5.275   3.969   1.285 -0.0220  2.8850  0.8112
    6CHTO   O62 2197   4.986   4.213   1.486 -0.4187 -0.4195  0.5570
    6CHTO   C91 2198   4.843   4.205   1.499  0.0949  0.3458 -0.3510
    6CHTO  H178 2199   4.818   4.296   1.555  0.4290  0.6296 -0.6568
    6CHTO   C92 2200   4.821   4.081   1.600  0.4549 -0.3588 -0.4084
    6CHTO  H179 2201   4.883   4.100   1.689  0.5894 -0.8637 -0.3951
    6CHTO   O66 2202   4.681   4.081   1.646  0.1328 -0.5131  0.4786
    6CHTO  H166 2203   4.669   4.029   1.724  0.6280  1.6624  2.0541
    6CHTO   C93 2204   4.841   3.937   1.525 -0.4308 -0.0525 -0.3483
    6CHTO  H180 2205   4.770   3.868   1.572  1.1045 -1.2084  0.3142
    6CHTO   N16 2206   4.973   3.868   1.535  0.3159 -0.5348 -0.5628
    6CHTO  H172 2207   4.977   3.792   1.459 -1.1552  0.2992 -1.4924
    6CHTO  H173 2208   4.989   3.828   1.634  2.2294  2.3357  0.3512
    6CHTO   C94 2209   4.808   3.951   1.370 -0.1009  0.6212  0.3808
    6CHTO  H181 2210   4.895   3.982   1.312  0.6863 -0.1925  1.1067
    6CHTO   O61 2211   4.709   4.051   1.353  0.0458 -0.2236 -0.1190
    6CHTO   C95 2212   4.749   4.187   1.372  0.0551 -0.1089  0.4916
    6CHTO  H182 2213   4.799   4.220   1.281 -0.5834 -1.0738 -0.2199
    6CHTO  C106 2214   4.623   4.281   1.385  0.4233  0.3701  0.4443
    6CHTO   O69 2215   4.550   4.286   1.259 -0.1349  0.1932 -0.0379
    6CHTO  H169 2216   4.548   4.198   1.228  3.0173  0.6269 -1.7569
    6CHTO   O63 2217   4.763   3.805   1.311  0.4014 -1.3107 -0.2822
    6CHTO   C96 2218   4.863   3.753   1.211 -0.1520  0.2057  0.1650
    6CHTO  H183 2219   4.960   3.782   1.251 -0.3073 -1.2531  1.6468
    6CHTO   C98 2220   4.862   3.807   1.064  0.4684 -0.2310  0.5698
    6CHTO  H185 2221   4.761   3.785   1.027  0.0264  1.5400  0.6803
    6CHTO   O67 2222   4.871   3.951   1.059  0.0729  0.0839 -0.3733
    6CHTO  H167 2223   4.862   3.990   0.974 -0.3340  1.5856  0.3289
    6CHTO  C102 2224   4.971   3.734   0.968 -0.3270 -0.7548 -0.4255
    6CHTO  H189 2225   5.051   3.808   0.961 -2.8115  2.2418  1.3609
    6CHTO   N18 2226   4.932   3.710   0.829  0.1909  0.5049 -0.0998
    6CHTO  H176 2227   4.908   3.802   0.777 -0.8304 -0.3833 -1.2539
    6CHTO  H177 2228   4.862   3.629   0.809  0.5821 -0.0297  0.6711
    6CHTO  C105 2229   5.024   3.599   1.029  0.2984 -0.1792  0.0264
    6CHTO  H192 2230   5.062   3.532   0.952 -0.0911  0.7211 -0.9535
    6CHTO   O65 2231   4.932   3.526   1.117 -0.3341 -0.1512 -0.2135
    6CHTO  C100 2232   4.845   3.594   1.209 -0.0291 -0.1164 -0.1525
    6CHTO  H187 2233   4.740   3.579   1.181 -0.3090  0.4252  0.5801
    6CHTO  C107 2234   4.861   3.530   1.350 -0.1347  0.0758 -0.5632
    6CHTO   O70 2235   4.816   3.397   1.346  0.3292 -0.1226  0.3556
    6CHTO  H170 2236   4.864   3.344   1.286 -0.1779 -0.0362 -0.1328
    6CHTO   O57 2237   5.149   3.640   1.120 -0.0653  0.2961 -0.0185
    6CHTO   C85 2238   5.252   3.536   1.144  0.2201 -0.2580  0.2466
    6CHTO  H157 2239   5.247   3.461   1.062 -0.5068  1.3019 -1.1576
    6CHTO   C83 2240   5.216   3.459   1.274 -0.1537 -0.3172  0.8190
    6CHTO  H155 2241   5.115   3.418   1.279 -0.7118  1.0815  1.2506
    6CHTO   O56 2242   5.216   3.541   1.388  0.2750  0.0355 -0.4653
    6CHTO  H135 2243   5.300   3.584   1.390  0.2948 -0.0301  0.0506
    6CHTO   C81 2244   5.313   3.339   1.278  0.5379 -0.2131 -0.3727
    6CHTO  H153 2245   5.303   3.293   1.180  0.3788 -0.1012 -0.4089
    6CHTO   N14 2246   5.270   3.232   1.373  0.1543 -0.0585  0.4025
    6CHTO  H141 2247   5.167   3.204   1.368  0.7695 -2.3153 -0.1879
    6CHTO  H142 2248   5.289   3.271   1.471  3.1940  1.0615 -0.5722
    6CHTO   C79 2249   5.465   3.393   1.289  0.1531 -0.4432  0.1595
    6CHTO  H151 2250   5.527   3.311   1.253  2.5024  2.1189 -1.8182
    6CHTO   O52 2251   5.495   3.524   1.206 -0.6403  0.2954 -0.2751
    6CHTO   C86 2252   5.391   3.601   1.151  0.1962 -0.3511  0.3522
    6CHTO  H158 2253   5.385   3.693   1.213 -3.2773  0.1847 -0.6714
    6CHTO   C90 2254   5.443   3.655   1.008  0.1417  0.1175 -0.9165
    6CHTO   O60 2255   5.340   3.747   0.963 -0.1449 -0.3825  0.3351
    6CHTO  H138 2256   5.366   3.785   0.882  0.2973 -0.9011  0.2283
    6CHTO   O50 2257   5.512   3.419   1.425 -0.5566  0.2709  0.3336
    6CHTO   C73 2258   5.595   3.473   1.525  0.3244 -0.0746 -0.7211
    6CHTO  H145 2259   5.620   3.387   1.589 -2.1835 -0.7640 -0.6128
    6CHTO   C74 2260   5.507   3.567   1.613  0.0124  0.5603  0.2226
    6CHTO  H146 2261   5.416   3.508   1.632 -0.1057  0.1891 -1.4151
    6CHTO   O54 2262   5.575   3.589   1.737  0.0534  0.8709  0.5738
    6CHTO  H133 2263   5.530   3.557   1.812  0.7433 -0.0889  0.5829
    6CHTO   C75 2264   5.479   3.694   1.524 -0.0628 -0.6729 -0.0922
    6CHTO  H147 2265   5.415   3.665   1.439  0.0028 -0.6646 -0.1442
    6CHTO   N13 2266   5.390   3.787   1.592 -0.3368  0.1951  0.6827
    6CHTO  H139 2267   5.415   3.800   1.696 -0.2426  2.8414  0.3629
    6CHTO  H140 2268   5.396   3.885   1.546  0.0881 -0.0454  0.2215
    6CHTO   C76 2269   5.616   3.762   1.481 -0.6372  0.4307  0.1311
    6CHTO  H148 2270   5.657   3.796   1.577  1.0478  0.7508 -0.6924
    6CHTO   O49 2271   5.702   3.669   1.407  0.2726  0.5092  0.2312
    6CHTO   C77 2272   5.729   3.541   1.476  0.5913 -0.3084 -0.2945
    6CHTO  H149 2273   5.792   3.556   1.563  0.7399  2.6908 -0.8845
    6CHTO   C88 2274   5.819   3.445   1.389  0.2735 -0.0222 -0.3041
    6CHTO   O58 2275   5.939   3.495   1.378  0.2818 -0.0248 -0.0029
    6CHTO  H136 2276   6.000   3.429   1.350  1.3034 -0.1633  2.4508
    6CHTO   O51 2277   5.597   3.873   1.380  0.0191 -0.1055 -0.4601
    6CHTO   C78 2278   5.678   3.994   1.429  0.5166 -0.0580 -0.4693
    6CHTO  H150 2279   5.724   3.976   1.529 -1.6147  0.9085  0.7115
    6CHTO   C80 2280   5.587   4.123   1.439 -0.2156  0.1459  0.4176
    6CHTO  H152 2281   5.533   4.132   1.342 -1.4887 -0.5880  1.0552
    6CHTO   O55 2282   5.486   4.087   1.538 -0.1407  0.0794 -0.7635
    6CHTO  H134 2283   5.407   4.089   1.488 -1.5871 -1.1219  1.3990
    6CHTO   C84 2284   5.671   4.254   1.470 -0.2456  0.1042  0.4314
    6CHTO  H156 2285   5.686   4.236   1.576  0.1062 -0.1756  0.3322
    6CHTO   N15 2286   5.585   4.375   1.459 -0.3641 -0.5565 -0.2878
    6CHTO  H143 2287   5.517   4.367   1.377 -1.0497  1.1069  0.1106
    6CHTO  H144 2288   5.653   4.455   1.438  1.3535 -1.1655  2.6938
    6CHTO   C87 2289   5.796   4.258   1.378  0.2845  0.3507 -0.1574
    6CHTO  H159 2290   5.760   4.283   1.278 -0.9474 -2.6675 -0.5378
    6CHTO   O53 2291   5.860   4.138   1.371 -0.7806 -0.1289 -0.4276
    6CHTO   C82 2292   5.783   4.027   1.327 -0.2025  0.6038 -0.2500
    6CHTO  H154 2293   5.743   4.042   1.227 -0.7624  0.9719  0.0328
    6CHTO   C89 2294   5.894   3.910   1.322  0.4502  0.2707  0.0155
    6CHTO   O59 2295   5.988   3.932   1.219 -0.0224  0.1793 -0.7737
    6CHTO  H137 2296   6.070   3.903   1.253  0.1385 -0.9495 -2.0748
    6CHTO   O45 2297   5.906   4.364   1.438 -0.1546 -0.0331 -0.1465
    6CHTO   C67 2298   6.023   4.380   1.350  0.0006 -0.0352  0.0332
    6CHTO  H124 2299   6.079   4.287   1.352  1.0611  0.6255  1.1325
    6CHTO   C65 2300   5.982   4.417   1.205 -0.1390  0.3812 -0.2741
    6CHTO  H122 2301   5.875   4.440   1.202  0.1216  1.8512  0.8231
    6CHTO   O44 2302   6.003   4.303   1.119  0.3512  0.2674  0.2617
    6CHTO  H102 2303   5.929   4.246   1.126  0.8062 -0.1942  1.2827
    6CHTO   C63 2304   6.053   4.552   1.161 -0.2009  0.2803  0.2222
    6CHTO  H120 2305   6.009   4.631   1.221 -0.2895  1.2930 -1.1365
    6CHTO   N11 2306   6.035   4.593   1.022 -0.5238  0.1227 -0.3846
    6CHTO  H108 2307   5.967   4.673   1.002 -0.1488  0.6440  0.4057
    6CHTO  H109 2308   6.005   4.518   0.951  0.8710 -0.0067 -0.8577
    6CHTO   C61 2309   6.213   4.541   1.205  0.4056  1.1424  1.0361
    6CHTO  H118 2310   6.255   4.639   1.182  0.4302  0.7588 -0.6193
    6CHTO   O40 2311   6.229   4.521   1.343  0.0337 -0.5603 -0.0269
    6CHTO   C68 2312   6.109   4.484   1.425 -0.1205  0.1692 -0.4647
    6CHTO  H125 2313   6.050   4.576   1.443 -0.2201 -0.1354  0.8523
    6CHTO   C72 2314   6.155   4.427   1.565 -0.1317 -0.4484  0.4705
    6CHTO   O48 2315   6.271   4.483   1.619 -0.4367 -0.1755  0.3668
    6CHTO  H105 2316   6.344   4.481   1.559 -0.4249 -1.6953  0.4206
    6CHTO   O38 2317   6.284   4.436   1.141 -0.3384 -0.2135 -0.1654
    6CHTO   C55 2318   6.426   4.445   1.157 -0.2121  0.1876  0.5587
    6CHTO  H112 2319   6.446   4.490   1.255  1.4223  2.2448 -0.6734
    6CHTO   C56 2320   6.502   4.530   1.039 -1.0057 -0.7243  0.3422
    6CHTO  H113 2321   6.471   4.484   0.944  0.0721  1.5182 -1.1379
    6CHTO   O42 2322   6.455   4.667   1.044  0.7635  0.2328  0.3789
    6CHTO  H100 2323   6.379   4.686   0.992  1.0286  1.0302  0.2690
    6CHTO   C57 2324   6.657   4.536   1.063  0.3934  0.8729 -0.1710
    6CHTO  H114 2325   6.668   4.594   1.154  2.1617 -1.3351  1.0997
    6CHTO   N10 2326   6.738   4.592   0.950 -0.1417  0.1446  0.0820
    6CHTO  H106 2327   6.731   4.699   0.941  0.3953  0.1563 -0.2125
    6CHTO  H107 2328   6.705   4.545   0.858  0.0616 -1.0037  0.5834
    6CHTO   C58 2329   6.712   4.392   1.096 -0.1511 -0.0828  0.0208
    6CHTO  H115 2330   6.735   4.337   1.003 -1.1363 -2.9654  1.4012
    6CHTO   O37 2331   6.628   4.306   1.179 -0.1061 -0.4230 -0.6416
    6CHTO   C59 2332   6.487   4.300   1.160 -0.2326 -0.8472  0.1339
    6CHTO  H116 2333   6.466   4.244   1.069 -0.2207 -1.2587  0.3857
    6CHTO   C70 2334   6.421   4.220   1.272 -0.2669  0.8430 -0.0825
    6CHTO   O46 2335   6.447   4.277   1.403 -0.3395 -0.1389  0.4214
    6CHTO  H103 2336   6.404   4.360   1.411 -1.0595 -0.5132  0.3933
    6CHTO   O39 2337   6.843   4.410   1.197  0.0529  0.3517 -0.4457
    6CHTO   C60 2338   6.951   4.315   1.183  0.0403 -0.1589 -0.4047
    6CHTO  H117 2339   6.925   4.236   1.113 -0.4887  0.0068 -0.4034
    6CHTO   C62 2340   7.080   4.388   1.124  0.7222 -0.4739  0.3131
    6CHTO  H119 2341   7.051   4.442   1.031 -0.6803 -0.5613  0.6928
    6CHTO   O43 2342   7.126   4.492   1.210 -0.1064 -0.0118 -0.3458
    6CHTO  H101 2343   7.138   4.452   1.294  0.3294 -1.8002 -1.2370
    6CHTO   C66 2344   7.183   4.276   1.082  1.1986 -0.4694 -0.1333
    6CHTO  H123 2345   7.134   4.201   1.020  0.8768 -1.0451  0.8098
    6CHTO   N12 2346   7.284   4.326   0.983  0.2505  0.0102  0.0148
    6CHTO  H110 2347   7.364   4.256   0.963 -0.7788 -1.0729 -0.3473
    6CHTO  H111 2348   7.314   4.427   1.002  1.4407 -0.3868  0.2812
    6CHTO   C69 2349   7.247   4.218   1.207  0.2564 -0.8010 -0.8406
    6CHTO  H126 2350   7.298   4.302   1.258 -2.5155 -1.0615  2.5612
    6CHTO   O41 2351   7.141   4.155   1.303  0.2027  0.0074 -0.4485
    6CHTO   C64 2352   6.991   4.247   1.322  0.5025 -0.2832 -0.1821
    6CHTO  H121 2353   6.997   4.320   1.406  0.9774 -0.8031  0.2403
    6CHTO   C71 2354   6.868   4.167   1.370  0.0879  0.2047  0.1861
    6CHTO   O47 2355   6.899   4.127   1.506 -0.4366  0.1523  0.4447
    6CHTO  H104 2356   6.871   4.039   1.520 -0.4701 -0.3432 -2.5689
    6CHTO   O34 2357   7.342   4.093   1.171  0.0660 -0.0650  0.0446
    6CHTO   C49 2358   7.379   3.990   1.102 -0.3900 -0.6032 -0.1315
    6CHTO   H91 2359   7.288   3.967   1.047 -1.2906  1.6887  0.3569
    6CHTO   C47 2360   7.419   3.876   1.199  0.0317  0.4292 -0.2420
    6CHTO   H89 2361   7.432   3.780   1.144 -0.7411  0.3228 -0.2447
    6CHTO   O33 2362   7.308   3.856   1.286 -0.1886  0.3771 -0.5953
    6CHTO   H70 2363   7.329   3.781   1.338  1.4514  0.7669 -0.6824
    6CHTO   C45 2364   7.551   3.911   1.284 -0.3973 -0.2814 -0.3247
    6CHTO   H87 2365   7.520   3.951   1.382  0.2612 -0.9540  0.1758
    6CHTO    N8 2366   7.625   3.783   1.307 -0.0106 -0.3101 -0.5125
    6CHTO   H75 2367   7.569   3.714   1.369 -1.1288  1.4132  0.4366
    6CHTO   H76 2368   7.627   3.738   1.209 -2.4880  2.1320 -1.7397
    6CHTO   C43 2369   7.634   4.033   1.221  0.8037  0.1296  0.1998
    6CHTO   H85 2370   7.579   4.121   1.252 -3.0193 -1.2946 -2.1793
    6CHTO   O29 2371   7.636   4.016   1.077  0.6154  0.1413 -0.3432
    6CHTO   C50 2372   7.503   4.021   1.013 -1.2488  0.6623  0.0897
    6CHTO   H92 2373   7.498   4.120   0.965 -1.7525  0.9489  0.7187
    6CHTO   C54 2374   7.514   3.932   0.890  0.6124 -0.0064  0.1035
    6CHTO   O36 2375   7.394   3.938   0.808 -0.3261 -0.5541 -0.1194
    6CHTO   H72 2376   7.370   4.028   0.796 -0.0810 -0.2389  1.5950
    6CHTO   O27 2377   7.766   4.044   1.281  0.6728  0.2029  0.6050
    6CHTO   C37 2378   7.871   4.145   1.287  0.1310  0.0481  0.1686
    6CHTO   H79 2379   7.958   4.127   1.222 -0.6724 -0.3729 -0.7976
    6CHTO   C38 2380   7.813   4.283   1.253  0.1079  0.2949 -0.2790
    6CHTO   H80 2381   7.729   4.297   1.323  0.7029  0.5395  0.3821
    6CHTO   O31 2382   7.770   4.282   1.119  0.2118  0.0095 -0.0022
    6CHTO   H68 2383   7.681   4.252   1.116  0.3683 -0.3892 -0.8106
    6CHTO   C39 2384   7.919   4.393   1.279  0.2354 -0.9551  0.0201
    6CHTO   H81 2385   8.002   4.378   1.210  1.8924  3.1601  0.9960
    6CHTO    N7 2386   7.859   4.520   1.251 -0.3201 -0.4296  0.0297
    6CHTO   H73 2387   7.753   4.512   1.269  0.0523  0.1879  2.7640
    6CHTO   H74 2388   7.884   4.552   1.151 -0.9742 -0.6082 -0.1965
    6CHTO   C40 2389   7.979   4.378   1.423 -0.3898 -0.3370 -0.0302
    6CHTO   H82 2390   7.902   4.396   1.498 -0.0206  1.0115  0.0283
    6CHTO   O26 2391   8.036   4.245   1.438  0.0841  0.2304 -0.7132
    6CHTO   C41 2392   7.926   4.150   1.429 -0.1040 -0.2180 -0.1292
    6CHTO   H83 2393   7.852   4.172   1.507 -0.7749 -0.2029 -0.7660
    6CHTO   C52 2394   7.991   4.013   1.466  0.0164  0.2777  0.4136
    6CHTO   O35 2395   7.990   3.998   1.611  0.4553 -0.1988  0.4247
    6CHTO   H71 2396   8.033   4.064   1.662 -2.2314 -0.2624  2.8915
    6CHTO   O28 2397   8.087   4.469   1.457  0.2423 -0.0800  0.5148
    6CHTO   C42 2398   8.096   4.519   1.594 -0.0126  0.3730 -0.0599
    6CHTO   H84 2399   8.198   4.558   1.594  0.3371 -0.5139  0.4472
    6CHTO   C44 2400   8.084   4.415   1.711 -0.3484 -0.1738  1.2124
    6CHTO   H86 2401   7.980   4.380   1.717  0.4161 -2.2684  2.8428
    6CHTO   O32 2402   8.170   4.305   1.674 -0.0572  0.3472 -0.1036
    6CHTO   H69 2403   8.139   4.252   1.603 -0.5934  0.3040  0.1541
    6CHTO   C48 2404   8.121   4.489   1.849  0.0025  0.3058 -0.6137
    6CHTO   H90 2405   8.223   4.526   1.837 -0.6280  1.3024 -3.2079
    6CHTO    N9 2406   8.126   4.405   1.971  0.2548 -0.8160 -0.1178
    6CHTO   H77 2407   8.048   4.434   2.040  0.3158  0.4205 -0.5576
    6CHTO   H78 2408   8.224   4.423   2.013 -0.0391  2.2899 -0.6781
    6CHTO   C51 2409   8.015   4.608   1.865  0.0204 -0.5168 -1.0185
    6CHTO   H93 2410   7.916   4.562   1.871 -0.0997 -0.0297  0.8905
    6CHTO   O30 2411   8.028   4.697   1.753  0.0490 -0.3082 -0.5809
    6CHTO   C46 2412   8.007   4.642   1.627 -0.0428 -0.2540 -0.6944
    6CHTO   H88 2413   7.903   4.610   1.631 -0.3967  0.7555 -1.6831
    6CHTO   C53 2414   8.015   4.751   1.517 -0.1935  0.0185  0.0640
    6CHTO   O72 2415   7.917   4.851   1.532  0.0398 -0.0035 -0.3181
    6CHTO  H199 2416   7.835   4.825   1.494  0.5627 -0.5987 -1.0620
    6CHTO   O22 2417   8.027   4.689   1.984  0.3999  0.1529 -0.4567
    6CHTO   C31 2418   7.906   4.756   2.044  0.8549 -0.6075  0.1175
    6CHTO   H59 2419   7.951   4.832   2.111 -0.5963  0.3404  0.0423
    6CHTO   C29 2420   7.809   4.835   1.951  0.4515  0.0434 -0.2749
    6CHTO   H57 2421   7.759   4.776   1.872  0.0717  0.4369 -0.3363
    6CHTO   O21 2422   7.888   4.933   1.872  0.0204 -0.2724 -0.3546
    6CHTO   H37 2423   7.841   4.947   1.792  2.5773  0.7554 -1.7414
    6CHTO   C27 2424   7.691   4.915   2.032 -0.1649 -0.2694 -0.6374
    6CHTO   H55 2425   7.735   4.986   2.104  0.0129  0.3877 -1.3859
    6CHTO    N5 2426   7.596   4.990   1.949  0.5328 -0.0446  0.5914
    6CHTO   H43 2427   7.535   4.922   1.890  0.5380  2.6472 -2.6687
    6CHTO   H44 2428   7.651   5.066   1.895  1.5029 -1.2093 -0.0981
    6CHTO   C25 2429   7.628   4.811   2.129 -0.2311  0.4553  0.3152
    6CHTO   H53 2430   7.586   4.733   2.063 -0.8760  1.2603 -0.2327
    6CHTO   O17 2431   7.725   4.742   2.212  0.7620 -0.6558  0.0453
    6CHTO   C32 2432   7.821   4.670   2.129 -0.9929  0.6540  0.4900
    6CHTO   H60 2433   7.759   4.605   2.067  1.0299 -1.2841  0.3865
    6CHTO   C36 2434   7.906   4.586   2.230 -0.3486  0.0568 -0.7469
    6CHTO   O25 2435   7.815   4.506   2.302 -0.4968 -0.4629 -0.0193
    6CHTO   H40 2436   7.852   4.472   2.381 -1.1028 -0.3019  0.3319
    6CHTO   O15 2437   7.519   4.871   2.220  0.1186 -0.4109 -0.2666
    6CHTO   C19 2438   7.467   4.972   2.318 -0.2530 -0.9034  0.4251
    6CHTO   H47 2439   7.423   4.913   2.399  1.6062 -2.5137  0.2872
    6CHTO   C20 2440   7.567   5.070   2.377 -0.0691  0.2786 -0.3323
    6CHTO   H48 2441   7.624   5.122   2.298  0.4866  0.5256  0.2287
    6CHTO   O19 2442   7.674   4.997   2.440 -0.2199 -0.3690 -0.1573
    6CHTO   H35 2443   7.735   5.063   2.467  0.2124  0.6323 -3.3690
    6CHTO   C21 2444   7.499   5.179   2.468  0.0494 -0.5726 -0.1522
    6CHTO   H49 2445   7.466   5.131   2.559 -3.1967  0.5075 -0.6970
    6CHTO    N4 2446   7.598   5.288   2.504  0.5360 -0.4590 -0.7101
    6CHTO   H41 2447   7.691   5.254   2.546 -0.7375 -1.8310  1.1119
    6CHTO   H42 2448   7.616   5.356   2.422 -0.6154  1.3518  0.5165
    6CHTO   C22 2449   7.376   5.248   2.397 -0.1951 -0.2924  0.6691
    6CHTO   H50 2450   7.402   5.293   2.300 -0.1318  0.9833  1.2588
    6CHTO   O14 2451   7.289   5.141   2.360  0.0919  0.3993  0.4796
    6CHTO   C23 2452   7.348   5.059   2.255  0.5286 -0.1656  0.4677
    6CHTO   H51 2453   7.378   5.120   2.169 -2.2323 -2.3688 -2.2005
    6CHTO   C34 2454   7.227   4.980   2.207 -0.2232 -0.6389  0.2515
    6CHTO   O23 2455   7.264   4.891   2.098 -0.5597  0.0719 -0.2697
    6CHTO   H38 2456   7.302   4.813   2.134  0.9976  0.4084 -1.1270
    6CHTO   O16 2457   7.295   5.331   2.482  0.3519 -0.5559  0.3655
    6CHTO   C24 2458   7.188   5.423   2.400  0.0616 -0.0648  0.0713
    6CHTO   H52 2459   7.187   5.400   2.294  2.1203  1.1086 -0.2295
    6CHTO   C26 2460   7.227   5.568   2.416 -0.0506  0.1071 -0.1607
    6CHTO   H54 2461   7.243   5.592   2.523 -1.1093 -0.4071  0.1186
    6CHTO   O20 2462   7.349   5.589   2.350  0.0627  0.6150 -0.3813
    6CHTO   H36 2463   7.409   5.650   2.389 -1.4972  1.5809  0.5816
    6CHTO   C30 2464   7.114   5.658   2.352  0.0235  0.1132  0.7629
    6CHTO   H58 2465   7.099   5.643   2.244  1.1604  3.1360  0.1228
    6CHTO    N6 2466   7.142   5.805   2.368 -0.0516 -0.3928  0.3929
    6CHTO   H45 2467   7.132   5.852   2.271 -0.8843  1.2043  1.2298
    6CHTO   H46 2468   7.241   5.825   2.406 -0.3293 -0.9606  1.4404
    6CHTO   C33 2469   6.976   5.624   2.412  0.4266 -0.2799 -0.0126
    6CHTO   H61 2470   6.985   5.644   2.520  2.2070 -2.4366  0.2701
    6CHTO   O18 2471   6.955   5.485   2.393  0.1234  0.1672  0.2461
    6CHTO   C28 2472   7.052   5.399   2.452 -0.0582 -0.1830 -0.3802
    6CHTO   H56 2473   7.058   5.413   2.560 -0.9222 -0.6079 -0.2696
    6CHTO   C35 2474   6.983   5.261   2.421 -0.3359  0.4014 -0.3042
    6CHTO   O24 2475   6.995   5.216   2.286 -0.2262 -0.5774  0.0946
    6CHTO   H39 2476   6.936   5.145   2.270 -0.2845 -0.3969 -0.5000
    6CHTO    O9 2477   6.864   5.698   2.368 -0.2439 -0.9187  0.1308
    6CHTO   C13 2478   6.726   5.711   2.479  0.0791 -0.5217 -0.2315
    6CHTO   H26 2479   6.758   5.775   2.563 -0.9880  0.1863 -0.3468
    6CHTO   C11 2480   6.673   5.570   2.519  0.4398  0.0693  0.1776
    6CHTO   H24 2481   6.752   5.527   2.583 -1.5004 -1.9045  1.3485
    6CHTO    O8 2482   6.659   5.490   2.404 -0.0240  0.2735 -0.1774
    6CHTO    H3 2483   6.724   5.422   2.406 -0.0110  0.1479 -3.1949
    6CHTO    C9 2484   6.549   5.586   2.607  0.3035  0.6251 -0.3141
    6CHTO   H22 2485   6.576   5.660   2.683 -0.5368  2.2559 -1.5885
    6CHTO    N2 2486   6.517   5.460   2.679 -0.0869  0.1178  0.1976
    6CHTO   H10 2487   6.437   5.477   2.750 -1.7278 -1.2838 -1.2864
    6CHTO   H11 2488   6.599   5.411   2.730  0.5333  1.1444  0.2003
    6CHTO    C7 2489   6.439   5.662   2.526  0.5189  0.3476  0.2423
    6CHTO   H20 2490   6.359   5.685   2.599 -0.4236 -0.4931 -0.5143
    6CHTO    O4 2491   6.489   5.790   2.467 -0.0506 -0.0394 -0.3770
    6CHTO   C14 2492   6.619   5.801   2.402  0.5887  0.4210 -0.0623
    6CHTO   H27 2493   6.646   5.909   2.407 -0.7276  0.7472  0.3359
    6CHTO   C18 2494   6.619   5.758   2.255 -0.2636 -0.4212 -0.3895
    6CHTO   O13 2495   6.507   5.820   2.191  0.4135 -0.0598  0.4553
    6CHTO    H7 2496   6.465   5.755   2.139 -0.9677  1.6665 -0.6544
    6CHTO    O2 2497   6.373   5.568   2.403 -0.7727  0.2205  0.5798
    6CHTO    C1 2498   6.234   5.544   2.389  0.8928 -0.2987 -0.5636
    6CHTO   H14 2499   6.214   5.507   2.287 -3.0744 -3.1339  1.1327
    6CHTO    C2 2500   6.146   5.678   2.410 -0.4362 -0.3735  0.1375
    6CHTO   H15 2501   6.170   5.709   2.513 -0.8851  0.0617  0.1125
    6CHTO    O6 2502   6.199   5.775   2.317  0.1327 -0.1623 -0.3331
    6CHTO    H1 2503   6.291   5.767   2.303  0.0255 -2.3190  0.0394
    6CHTO    C3 2504   5.991   5.653   2.402 -0.3116  0.2094 -0.2746
    6CHTO   H16 2505   5.964   5.615   2.302 -0.7885  0.7711 -0.3643
    6CHTO    N1 2506   5.906   5.776   2.415  0.2799  0.3886  0.1423
    6CHTO    H8 2507   5.924   5.820   2.512 -1.1363 -1.0635  1.1096
    6CHTO    H9 2508   5.801   5.752   2.410  0.1135  1.1205  0.1252
    6CHTO    C4 2509   5.961   5.538   2.503  0.1577 -0.1755  0.0921
    6CHTO   H17 2510   5.978   5.577   2.604 -2.2772  2.1166 -0.3259
    6CHTO    O1 2511   6.047   5.420   2.485 -0.0295  0.2610 -0.4075
    6CHTO    C5 2512   6.191   5.439   2.496 -0.0692  0.6675 -0.4692
    6CHTO   H18 2513   6.216   5.476   2.596 -1.0054  3.1043 -1.0881
    6CHTO   C16 2514   6.253   5.301   2.480 -0.6502  0.1121 -0.7964
    6CHTO   O11 2515   6.210   5.223   2.587  0.0442 -0.6756 -0.3892
    6CHTO    H5 2516   6.231   5.254   2.673  2.1604 -1.1901 -0.7067
    6CHTO    O3 2517   5.824   5.484   2.485  0.4155  0.7931  0.7692
    6CHTO    C6 2518   5.758   5.399   2.588 -0.6977  0.4835 -0.0620
    6CHTO   H19 2519   5.832   5.362   2.659 -0.2899  0.3428 -0.5583
    6CHTO    C8 2520   5.650   5.487   2.656 -0.2335 -0.2865 -0.5199
    6CHTO   H21 2521   5.590   5.534   2.578  0.6361 -0.5402 -1.3583
    6CHTO    O7 2522   5.731   5.594   2.721 -0.4192  0.8132 -0.0572
    6CHTO    H2 2523   5.770   5.658   2.665 -0.2886  0.2070 -0.6734
    6CHTO   C12 2524   5.568   5.402   2.760 -0.6782 -0.1680 -0.5283
    6CHTO   H25 2525   5.646   5.376   2.835 -0.1972  0.8245 -0.6802
    6CHTO    N3 2526   5.464   5.482   2.828  0.7725  0.2511  0.3710
    6CHTO   H12 2527   5.396   5.526   2.757  0.2060 -1.1069  0.0689
    6CHTO   H13 2528   5.418   5.430   2.911  1.2064  1.6496  1.5220
    6CHTO   C15 2529   5.513   5.263   2.702  0.0464 -0.0762 -0.5720
    6CHTO   H28 2530   5.428   5.274   2.635 -1.5643 -0.5776  1.3390
    6CHTO   O10 2531   5.472   5.157   2.805 -0.6995  0.6529 -0.1902
    6CHTO    H4 2532   5.524   5.156   2.883  0.0631  0.5111 -0.6921
    6CHTO    O5 2533   5.612   5.197   2.627  0.4529 -0.0768 -0.3344
    6CHTO   C10 2534   5.687   5.277   2.528 -0.2980  0.4937  0.1699
    6CHTO   H23 2535   5.616   5.304   2.450  0.5095 -1.0796 -1.1240
    6CHTO   C17 2536   5.785   5.181   2.453 -0.0819  0.2587  0.2326
    6CHTO   O12 2537   5.715   5.077   2.382 -0.1472  0.5370 -0.1102
    6CHTO    H6 2538   5.654   5.111   2.319 -0.5175  1.4215  0.7282
    7CHTO  H203 2539   4.888   1.341   2.825  1.5049  0.1590 -0.5357
    7CHTO   O82 2540   4.894   1.435   2.823  0.0046  0.2815 -0.1891
    7CHTO  C123 2541   4.964   1.481   2.713  0.7205 -0.1069 -0.0164
    7CHTO  H227 2542   4.908   1.461   2.620 -0.1089  0.0271  0.4518
    7CHTO   O77 2543   4.967   1.626   2.736  0.4046  0.0175 -0.0521
    7CHTO  C118 2544   5.037   1.701   2.636 -0.2788  0.4771 -0.0056
    7CHTO  H222 2545   4.982   1.682   2.543 -1.4470  0.6968  0.6374
    7CHTO  C125 2546   5.017   1.851   2.674  0.0718  0.1343 -0.1045
    7CHTO   O84 2547   5.030   1.945   2.563 -0.2590 -0.0052 -0.4208
    7CHTO  H205 2548   5.038   2.031   2.600 -1.5354  1.2526 -2.9762
    7CHTO  C114 2549   5.187   1.658   2.636 -0.1668  0.8870 -0.1013
    7CHTO  H218 2550   5.232   1.685   2.731 -1.0209 -1.1638  0.9119
    7CHTO  C116 2551   5.209   1.511   2.620 -0.5066  0.5781 -0.0546
    7CHTO  H220 2552   5.192   1.484   2.513 -1.3852 -1.1637  0.5002
    7CHTO   O79 2553   5.343   1.477   2.650  0.5789  0.7429  0.8176
    7CHTO  H201 2554   5.349   1.385   2.630 -1.5705  0.4542  1.4499
    7CHTO  C120 2555   5.112   1.423   2.710  0.7560 -0.1239  0.3330
    7CHTO  H224 2556   5.156   1.429   2.812 -1.1687 -0.3193  1.1907
    7CHTO   N21 2557   5.115   1.276   2.677  0.1069 -0.4646 -0.4508
    7CHTO  H211 2558   5.040   1.259   2.602  2.0708 -1.4270 -2.2585
    7CHTO  H212 2559   5.215   1.240   2.653  0.3532 -1.5358  2.0189
    7CHTO   O75 2560   5.239   1.742   2.533 -0.4944 -0.3255 -0.0474
    7CHTO  C112 2561   5.386   1.796   2.561 -0.6057 -0.1255  0.0504
    7CHTO  H216 2562   5.453   1.715   2.591  0.0704  0.6924  0.7847
    7CHTO   O73 2563   5.382   1.902   2.657  0.5729 -0.3324  0.5850
    7CHTO  C113 2564   5.517   1.928   2.693  0.3165  0.2394  0.6340
    7CHTO  H217 2565   5.555   1.835   2.738 -0.3582 -0.2810  0.1505
    7CHTO  C124 2566   5.532   2.034   2.801  0.0011 -0.4144 -0.2001
    7CHTO   O83 2567   5.478   2.001   2.930  0.0861  0.0881  0.3283
    7CHTO  H204 2568   5.553   2.017   2.983  0.4020  2.2621 -0.7028
    7CHTO  C109 2569   5.614   1.971   2.574 -0.0316  0.3643 -0.4021
    7CHTO  H213 2570   5.595   2.079   2.560  0.4028  0.4489 -0.3612
    7CHTO  C110 2571   5.591   1.890   2.445 -0.0623  0.4052 -0.0497
    7CHTO  H214 2572   5.651   1.800   2.458  0.2427  1.0077  3.2605
    7CHTO   O78 2573   5.654   1.961   2.332 -0.4669 -0.1986 -1.0772
    7CHTO  H200 2574   5.586   2.004   2.284 -0.7136  0.9751  0.3044
    7CHTO  C111 2575   5.442   1.852   2.427  0.3227  0.1789  0.7029
    7CHTO  H215 2576   5.385   1.943   2.406  2.4068  1.2650 -0.4134
    7CHTO   N19 2577   5.424   1.760   2.307  0.6194  0.2598  0.5769
    7CHTO  H207 2578   5.462   1.811   2.219  0.1329 -0.1143  0.1530
    7CHTO  H208 2579   5.480   1.668   2.315 -1.4005 -1.0209  0.1411
    7CHTO   O74 2580   5.754   1.950   2.618  0.0279  0.0394  0.5978
    7CHTO  C115 2581   5.863   2.062   2.570 -0.3194 -0.3311 -0.1432
    7CHTO  H219 2582   5.828   2.115   2.481  0.9504 -0.1021 -0.5093
    7CHTO   O76 2583   5.878   2.178   2.678  0.0192  0.1732 -0.2225
    7CHTO  C122 2584   5.907   2.122   2.802  0.0496  0.7306  0.2688
    7CHTO  H226 2585   5.825   2.054   2.825  1.4997 -0.2947  2.5939
    7CHTO  C126 2586   5.904   2.238   2.906 -0.6555 -0.2905 -0.7216
    7CHTO   O85 2587   5.915   2.200   3.045 -0.3321  0.3227 -0.3235
    7CHTO  H206 2588   5.995   2.152   3.041 -1.1228 -0.9115 -1.4075
    7CHTO  C121 2589   6.048   2.036   2.792  0.2574 -0.0621 -0.8799
    7CHTO  H225 2590   6.128   2.112   2.776  1.6358 -0.8465  1.9328
    7CHTO   O81 2591   6.070   1.984   2.922  0.1641 -0.0496  0.0565
    7CHTO  H202 2592   6.144   1.930   2.904 -0.9348 -1.1444 -1.3441
    7CHTO  C119 2593   6.052   1.931   2.676 -0.0764 -0.5942 -0.2252
    7CHTO  H223 2594   6.157   1.905   2.663 -0.4417 -1.5307 -1.2893
    7CHTO  C117 2595   6.001   1.989   2.538 -0.4537  0.5886 -0.2655
    7CHTO  H221 2596   5.979   1.917   2.460  1.2035  1.7883 -1.8793
    7CHTO   N20 2597   6.093   2.078   2.475 -0.1175  0.4653  0.8801
    7CHTO  H209 2598   6.045   2.109   2.384 -1.6754 -1.4230  1.0345
    7CHTO  H210 2599   6.181   2.025   2.442 -0.1608  0.8410  0.1421
    7CHTO   O80 2600   5.996   1.801   2.713  0.0038  0.0967 -0.1507
    7CHTO  C103 2601   6.051   1.668   2.640  0.2690 -0.2935 -0.4094
    7CHTO  H190 2602   6.069   1.673   2.532 -1.4489 -0.3098 -0.7051
    7CHTO  C101 2603   6.178   1.605   2.701  0.0043  0.8831  0.4110
    7CHTO  H188 2604   6.167   1.597   2.809 -0.5041  0.4633  0.3269
    7CHTO   O68 2605   6.299   1.696   2.681 -0.2321  0.4255  0.2386
    7CHTO  H168 2606   6.304   1.772   2.736  0.3972 -1.7197  3.2611
    7CHTO   C99 2607   6.202   1.451   2.652  0.1830 -0.7533  0.3768
    7CHTO  H186 2608   6.249   1.455   2.552  2.1359  0.9726  1.3104
    7CHTO   N17 2609   6.300   1.371   2.737 -0.5333 -0.8256 -0.2409
    7CHTO  H174 2610   6.302   1.271   2.696  0.1197 -1.7132  1.8873
    7CHTO  H175 2611   6.270   1.380   2.841 -1.9650  0.0144 -0.7115
    7CHTO   C97 2612   6.068   1.372   2.649 -0.6141 -0.0260 -0.6520
    7CHTO  H184 2613   6.036   1.346   2.751 -1.4942  1.6921 -0.4552
    7CHTO   O64 2614   5.968   1.448   2.580 -0.7594 -0.3031  0.8283
    7CHTO  C104 2615   5.932   1.567   2.645  0.6408  0.0436 -0.3457
    7CHTO  H191 2616   5.902   1.548   2.748  0.6392 -0.1662 -0.3834
    7CHTO  C108 2617   5.810   1.628   2.573  0.4992  0.3981 -0.7352
    7CHTO   O71 2618   5.685   1.554   2.585 -1.0464  0.3020  0.4957
    7CHTO  H171 2619   5.622   1.608   2.629 -3.5506 -2.2356  0.1222
    7CHTO   O62 2620   6.072   1.254   2.562  0.0863  0.0214 -0.5149
    7CHTO   C91 2621   6.022   1.120   2.608  0.2533  0.3447 -0.3859
    7CHTO  H178 2622   6.011   1.066   2.514  0.2516 -0.7574  0.2396
    7CHTO   C92 2623   5.881   1.135   2.669 -0.4575 -0.7017  0.3824
    7CHTO  H179 2624   5.893   1.204   2.755 -1.0535  2.0633 -1.6870
    7CHTO   O66 2625   5.795   1.195   2.575  0.6215  0.0723 -0.1818
    7CHTO  H166 2626   5.784   1.286   2.595 -0.1156 -0.3407  1.3365
    7CHTO   C93 2627   5.823   0.993   2.720 -0.4819  0.0158 -0.5708
    7CHTO  H180 2628   5.805   0.935   2.628 -0.9363 -2.9988  1.3178
    7CHTO   N16 2629   5.696   1.008   2.787  0.7759 -0.4627  0.4979
    7CHTO  H172 2630   5.665   0.917   2.837 -1.9111 -0.0091 -0.2752
    7CHTO  H173 2631   5.708   1.085   2.862 -1.4172 -0.0252  0.4287
    7CHTO   C94 2632   5.924   0.914   2.812  0.4472  0.7396 -0.0335
    7CHTO  H181 2633   5.938   0.958   2.911 -2.4569 -0.5133  1.0099
    7CHTO   O61 2634   6.050   0.927   2.741  0.5476  0.2476 -0.1404
    7CHTO   C95 2635   6.115   1.052   2.718 -0.2003  0.2603 -0.1495
    7CHTO  H182 2636   6.113   1.103   2.814 -0.9631  1.1782 -0.6511
    7CHTO  C106 2637   6.265   1.015   2.663  0.2846 -0.3627 -0.0466
    7CHTO   O69 2638   6.257   0.946   2.539  0.1274 -0.6667 -0.2299
    7CHTO  H169 2639   6.345   0.934   2.509  0.2014  0.7394 -0.5937
    7CHTO   O63 2640   5.886   0.760   2.810 -0.2768  0.0095 -0.0010
    7CHTO   C96 2641   5.918   0.699   2.942 -0.2145 -1.0576 -0.4817
    7CHTO  H183 2642   5.918   0.770   3.024 -1.4421 -0.7026 -0.7814
    7CHTO   C98 2643   6.057   0.640   2.951 -0.4588  0.1131 -0.5362
    7CHTO  H185 2644   6.084   0.577   2.866  0.5437 -1.2515  0.7687
    7CHTO   O67 2645   6.146   0.754   2.940  0.5649  0.2323 -0.2516
    7CHTO  H167 2646   6.139   0.810   3.015  1.8232 -1.3786  1.1332
    7CHTO  C102 2647   6.089   0.553   3.084  0.7456 -0.6813  0.2307
    7CHTO  H189 2648   6.100   0.624   3.168  0.4075 -0.3963  0.0339
    7CHTO   N18 2649   6.220   0.476   3.084  0.4582 -0.1859  0.4848
    7CHTO  H176 2650   6.274   0.512   2.997 -0.8683 -1.3478 -0.8457
    7CHTO  H177 2651   6.210   0.369   3.070  2.0350 -0.4337  1.1036
    7CHTO  C105 2652   5.964   0.469   3.116 -0.7501 -0.1960 -0.4755
    7CHTO  H192 2653   5.959   0.386   3.045 -0.4398 -1.0207  0.4466
    7CHTO   O65 2654   5.841   0.537   3.114 -0.0861  0.4017 -0.5162
    7CHTO  C100 2655   5.813   0.593   2.982  0.0243  0.6966 -0.0496
    7CHTO  H187 2656   5.822   0.519   2.902 -3.3130  2.0890 -1.8204
    7CHTO  C107 2657   5.664   0.636   2.966  0.2833  0.0458  0.0408
    7CHTO   O70 2658   5.633   0.739   3.064  0.1128  0.2637  0.5941
    7CHTO  H170 2659   5.568   0.710   3.126  0.1345  1.0308  0.9832
    7CHTO   O57 2660   5.990   0.409   3.247  0.2273  0.0769 -0.3648
    7CHTO   C85 2661   5.949   0.269   3.269  0.4161 -0.7459  0.2083
    7CHTO  H157 2662   5.989   0.199   3.191  0.3241 -0.2942 -0.2465
    7CHTO   C83 2663   5.797   0.264   3.246 -0.5530 -0.0701  0.8862
    7CHTO  H155 2664   5.777   0.295   3.144  0.3830 -1.9452  0.0990
    7CHTO   O56 2665   5.739   0.358   3.334 -0.1948 -0.4746 -0.1952
    7CHTO  H135 2666   5.743   0.332   3.424 -2.5205 -1.4716 -0.3544
    7CHTO   C81 2667   5.747   0.116   3.270  0.1558 -0.1650  0.5128
    7CHTO  H153 2668   5.792   0.052   3.194  1.6217 -0.1272  1.3398
    7CHTO   N14 2669   5.603   0.104   3.230  0.5042 -0.6127 -0.6344
    7CHTO  H141 2670   5.595   0.057   3.134  2.2392  1.2602 -1.7312
    7CHTO  H142 2671   5.550   0.196   3.226 -0.2005 -1.0330 -1.0092
    7CHTO   C79 2672   5.782   0.059   3.410  0.7499  0.6774  0.4689
    7CHTO  H151 2673   5.770  -0.049   3.406  1.0138  0.6472  0.5578
    7CHTO   O52 2674   5.924   0.076   3.424  0.5354 -0.1861 -0.3031
    7CHTO   C86 2675   5.979   0.216   3.408 -0.2812 -0.3337  0.1562
    7CHTO  H158 2676   5.929   0.274   3.488 -1.6203 -0.3531 -0.6469
    7CHTO   C90 2677   6.132   0.217   3.439  0.0958  0.1355  0.4991
    7CHTO   O60 2678   6.209   0.127   3.359 -0.2250 -0.1934 -0.0889
    7CHTO  H138 2679   6.296   0.162   3.353  0.2706 -1.3378  0.3085
    7CHTO   O50 2680   5.713   0.111   3.528 -0.0469  0.2074  0.1685
    7CHTO   C73 2681   5.681   0.047   3.654  0.0860 -0.0369 -0.7882
    7CHTO  H145 2682   5.756  -0.029   3.684  0.4756  0.9277  0.7695
    7CHTO   C74 2683   5.542  -0.028   3.642  0.3322  0.0991 -0.7446
    7CHTO  H146 2684   5.550  -0.094   3.554  1.7590 -2.5418  1.3037
    7CHTO   O54 2685   5.541  -0.113   3.757 -0.7884 -0.1464  0.3023
    7CHTO  H133 2686   5.459  -0.160   3.754 -1.5677  1.1957  0.3711
    7CHTO   C75 2687   5.426   0.071   3.629 -0.1089  0.3006 -0.4377
    7CHTO  H147 2688   5.444   0.124   3.534 -0.3024  1.2093  0.0225
    7CHTO   N13 2689   5.290   0.011   3.620 -0.4382 -0.7945  0.0208
    7CHTO  H139 2690   5.300  -0.060   3.540 -0.4299 -0.7569 -0.0111
    7CHTO  H140 2691   5.251  -0.042   3.706  2.0948  0.4149  1.9964
    7CHTO   C76 2692   5.433   0.178   3.746 -0.4412  0.3201 -0.3349
    7CHTO  H148 2693   5.420   0.130   3.843  0.6753 -0.1666 -0.4097
    7CHTO   O49 2694   5.566   0.239   3.753  0.0881 -0.3361 -0.2349
    7CHTO   C77 2695   5.675   0.152   3.771 -0.2812 -0.0159 -0.3017
    7CHTO  H149 2696   5.668   0.097   3.865 -0.2460  0.7440  0.1495
    7CHTO   C88 2697   5.810   0.219   3.785 -0.7428 -0.6319 -0.2273
    7CHTO   O58 2698   5.805   0.329   3.893  0.2836  0.5683 -0.1749
    7CHTO  H136 2699   5.787   0.286   3.974  1.4354 -0.2690 -0.3419
    7CHTO   O51 2700   5.340   0.283   3.728  0.2755 -0.0080  0.6290
    7CHTO   C78 2701   5.301   0.322   3.876 -0.0749 -0.3252 -0.9879
    7CHTO  H150 2702   5.382   0.306   3.951 -1.0313 -0.2273  0.0851
    7CHTO   C80 2703   5.168   0.247   3.918 -0.4804  0.1095  0.0178
    7CHTO  H152 2704   5.089   0.273   3.845 -0.9444  2.5313  1.3394
    7CHTO   O55 2705   5.199   0.105   3.912  0.0680 -0.6697  0.2226
    7CHTO  H134 2706   5.231   0.086   3.826  2.7648 -0.5728  1.1761
    7CHTO   C84 2707   5.113   0.283   4.065  0.2179 -0.5566 -0.0201
    7CHTO  H156 2708   5.174   0.232   4.140 -0.1058 -0.9809 -0.0456
    7CHTO   N15 2709   4.979   0.213   4.095 -0.3526  0.1660  0.1875
    7CHTO  H143 2710   4.901   0.251   4.032 -0.2144 -0.5194 -0.4059
    7CHTO  H144 2711   4.984   0.107   4.080 -1.2096  0.1875 -0.2815
    7CHTO   C87 2712   5.104   0.438   4.080 -0.0448  0.1070  0.2248
    7CHTO  H159 2713   5.019   0.471   4.020 -0.4476  1.9650  1.7584
    7CHTO   O53 2714   5.244   0.506   4.022 -0.8849  0.1844 -0.6102
    7CHTO   C82 2715   5.278   0.473   3.886  0.2475 -0.1828 -0.3259
    7CHTO  H154 2716   5.200   0.512   3.819 -0.5930  2.8081  2.2647
    7CHTO   C89 2717   5.413   0.533   3.843 -0.2318  0.1396 -0.2513
    7CHTO   O59 2718   5.427   0.674   3.847  0.0162  0.1682  0.3986
    7CHTO  H137 2719   5.361   0.716   3.795 -0.7038 -0.7246  0.5891
    7CHTO   O45 2720   5.077   0.493   4.231  0.5129  0.1674  0.0661
    7CHTO   C67 2721   5.051   0.635   4.231  0.2291  0.5429  0.7249
    7CHTO  H124 2722   5.117   0.681   4.158 -0.6263  0.4334 -0.1191
    7CHTO   C65 2723   4.899   0.663   4.192  0.0199  0.7909 -0.8123
    7CHTO  H122 2724   4.843   0.574   4.220  2.4607 -0.5961 -0.1777
    7CHTO   O44 2725   4.899   0.673   4.048  0.8782 -0.1569 -0.4497
    7CHTO  H102 2726   4.834   0.728   4.008 -0.9045 -2.1694 -0.3851
    7CHTO   C63 2727   4.831   0.783   4.270  0.0211  0.0387  0.3897
    7CHTO  H120 2728   4.796   0.752   4.369 -1.7912  1.3416  0.2014
    7CHTO   N11 2729   4.693   0.824   4.222  0.3940 -0.2684  1.0318
    7CHTO  H108 2730   4.715   0.852   4.121  1.0736 -1.0550  0.9525
    7CHTO  H109 2731   4.656   0.906   4.280  0.1519 -2.5218  4.1796
    7CHTO   C61 2732   4.935   0.898   4.285  0.6980 -0.9437 -0.2807
    7CHTO  H118 2733   4.894   0.977   4.350  1.3796 -0.7749 -0.0492
    7CHTO   O40 2734   5.064   0.854   4.353 -0.0737 -0.1788  0.6277
    7CHTO   C68 2735   5.086   0.712   4.365  0.4734 -0.4344 -0.5909
    7CHTO  H125 2736   5.022   0.684   4.451 -0.2012  1.5334 -0.4278
    7CHTO   C72 2737   5.233   0.686   4.414  0.1614  0.2889  0.6484
    7CHTO   O48 2738   5.329   0.752   4.332  0.0569 -0.1341  0.2853
    7CHTO  H105 2739   5.363   0.832   4.367 -0.6290  0.0208  0.6067
    7CHTO   O38 2740   4.957   0.960   4.163 -0.3135 -0.2586  0.2531
    7CHTO   C55 2741   5.050   1.068   4.157  1.1359 -0.6325 -0.9133
    7CHTO  H112 2742   5.110   1.076   4.249 -1.9858  0.3811  1.1317
    7CHTO   C56 2743   4.957   1.194   4.135 -0.2424 -0.2370  0.5430
    7CHTO  H113 2744   4.908   1.171   4.039 -0.0642 -0.3564  0.4795
    7CHTO   O42 2745   4.870   1.205   4.252  0.2435 -0.1024 -0.1731
    7CHTO  H100 2746   4.811   1.133   4.251 -0.6653  0.6431 -0.4349
    7CHTO   C57 2747   5.053   1.324   4.120  0.0675  0.1231 -0.1781
    7CHTO  H114 2748   5.103   1.327   4.217  0.0490  0.5930 -0.1783
    7CHTO   N10 2749   4.978   1.453   4.096  0.4735  0.2855 -0.4134
    7CHTO  H106 2750   5.037   1.523   4.039  1.0437 -0.7516 -1.1264
    7CHTO  H107 2751   4.882   1.441   4.047  1.8187  1.8140 -3.5514
    7CHTO   C58 2752   5.155   1.293   4.011 -0.3928  0.1759  0.0792
    7CHTO  H115 2753   5.101   1.279   3.915  0.9289 -2.1333 -0.3901
    7CHTO   O37 2754   5.229   1.175   4.051 -0.4700 -0.5841  0.7102
    7CHTO   C59 2755   5.149   1.056   4.039  0.1193 -0.6699  0.3541
    7CHTO  H116 2756   5.095   1.050   3.944  1.2063 -0.5675 -0.2791
    7CHTO   C70 2757   5.235   0.928   4.056  0.4745  0.4219  0.3774
    7CHTO   O46 2758   5.362   0.945   3.993  0.0210  0.0556  0.3253
    7CHTO  H103 2759   5.363   0.890   3.917  1.0586 -0.1645  0.4883
    7CHTO   O39 2760   5.253   1.399   3.979 -0.6823  0.1592 -0.4363
    7CHTO   C60 2761   5.367   1.383   3.890  0.3021 -0.2391  0.0507
    7CHTO  H117 2762   5.391   1.277   3.875  0.3160 -0.3691  0.9627
    7CHTO   C62 2763   5.320   1.448   3.755 -0.3264  0.2464 -0.8520
    7CHTO  H119 2764   5.233   1.386   3.726 -0.6283  0.9820 -1.5162
    7CHTO   O43 2765   5.286   1.592   3.778 -0.2237 -0.3815  0.1601
    7CHTO  H101 2766   5.359   1.649   3.762  1.0227 -2.3295 -1.2924
    7CHTO   C66 2767   5.434   1.425   3.649 -0.6716 -1.0470 -0.4638
    7CHTO  H123 2768   5.453   1.318   3.646  1.3843 -0.6550 -2.0712
    7CHTO   N12 2769   5.387   1.461   3.515  0.0410  0.1646  0.5212
    7CHTO  H110 2770   5.406   1.565   3.494 -2.4816  0.7638  1.0365
    7CHTO  H111 2771   5.423   1.388   3.444  1.7722  1.0967  0.4310
    7CHTO   C69 2772   5.567   1.496   3.698 -0.7563  0.1379  1.1415
    7CHTO  H126 2773   5.559   1.606   3.690 -0.2786  0.1164  0.3378
    7CHTO   O41 2774   5.612   1.433   3.852  0.2415  0.1445  0.0402
    7CHTO   C64 2775   5.496   1.446   3.942  0.4298  0.1368  0.1003
    7CHTO  H121 2776   5.466   1.553   3.950  1.0065  0.3981 -1.1517
    7CHTO   C71 2777   5.537   1.386   4.081 -0.1592 -0.4183 -0.3463
    7CHTO   O47 2778   5.449   1.428   4.184 -0.0334  0.0102  0.5160
    7CHTO  H104 2779   5.358   1.419   4.162  0.3033 -0.6180 -0.6673
    7CHTO   O34 2780   5.685   1.447   3.600 -0.2233  0.4497 -0.2966
    7CHTO   C49 2781   5.813   1.505   3.577  0.1702 -0.1291 -0.1356
    7CHTO   H91 2782   5.782   1.587   3.512 -1.5225 -1.0745 -0.5623
    7CHTO   C47 2783   5.915   1.413   3.520  0.1639 -0.4000 -0.3250
    7CHTO   H89 2784   5.994   1.484   3.488  0.6394  0.7745  3.1805
    7CHTO   O33 2785   5.849   1.355   3.405  0.3974 -0.2193 -0.0859
    7CHTO   H70 2786   5.779   1.304   3.440 -0.2701  1.7515  1.6231
    7CHTO   C45 2787   5.972   1.299   3.624  0.9967 -0.3289  0.0863
    7CHTO   H87 2788   5.910   1.209   3.610 -0.2140  0.3122  1.1177
    7CHTO    N8 2789   6.112   1.266   3.603 -0.7052 -0.0477 -0.5074
    7CHTO   H75 2790   6.181   1.349   3.606 -1.2283  0.3112  2.6375
    7CHTO   H76 2791   6.117   1.229   3.501 -0.1235 -0.1239 -0.4551
    7CHTO   C43 2792   5.925   1.339   3.770  0.5268 -1.0920  0.3491
    7CHTO   H85 2793   5.817   1.329   3.785  0.1896  1.7834  0.1116
    7CHTO   O29 2794   5.964   1.478   3.790  0.5134  0.2279  0.2782
    7CHTO   C50 2795   5.885   1.567   3.706  0.0458 -0.3737  0.4803
    7CHTO   H92 2796   5.806   1.612   3.768  0.9321  1.3761  0.3850
    7CHTO   C54 2797   5.976   1.692   3.679 -0.4774 -0.2309 -1.1111
    7CHTO   O36 2798   6.103   1.667   3.618 -0.0071  0.3560 -0.4333
    7CHTO   H72 2799   6.166   1.627   3.676 -0.3222 -0.4751 -0.6575
    7CHTO   O27 2800   5.977   1.261   3.877  0.5231  0.1678  0.1267
    7CHTO   C37 2801   6.011   1.144   3.954  0.1389  0.2617  0.6246
    7CHTO   H79 2802   5.985   1.158   4.060 -1.6707  0.7656  0.1311
    7CHTO   C38 2803   5.915   1.019   3.908 -0.0371 -0.6895 -0.3131
    7CHTO   H80 2804   5.913   1.016   3.798  0.0734 -0.3989 -0.3235
    7CHTO   O31 2805   5.787   1.049   3.966  0.0055  0.5552  0.6035
    7CHTO   H68 2806   5.723   0.985   3.943 -0.7240  0.7317  2.0689
    7CHTO   C39 2807   5.969   0.884   3.980 -0.0302 -0.2325  0.7456
    7CHTO   H81 2808   5.943   0.883   4.086 -0.2020 -0.3056  0.7047
    7CHTO    N7 2809   5.889   0.762   3.936  0.2128 -0.3072  0.7836
    7CHTO   H73 2810   5.787   0.784   3.962  0.6850  1.6510  1.1398
    7CHTO   H74 2811   5.920   0.741   3.835 -0.0579  2.1493  0.1405
    7CHTO   C40 2812   6.116   0.862   3.957  0.2625  0.6080 -0.8206
    7CHTO   H82 2813   6.132   0.852   3.850  0.3112 -1.2200 -0.6746
    7CHTO   O26 2814   6.181   0.975   4.008  0.3356 -0.5693 -0.4785
    7CHTO   C41 2815   6.162   1.102   3.944  0.2596 -0.1369 -0.2897
    7CHTO   H83 2816   6.197   1.088   3.841 -1.4154  0.3434 -0.9370
    7CHTO   C52 2817   6.257   1.208   4.010 -0.7209 -0.0349 -0.0107
    7CHTO   O35 2818   6.244   1.358   3.948  0.1942  0.4037  0.1401
    7CHTO   H71 2819   6.197   1.359   3.867  0.6561  0.4553 -0.1250
    7CHTO   O28 2820   6.176   0.760   4.040 -0.2363  0.3401  0.2793
    7CHTO   C42 2821   6.314   0.698   4.010 -0.4436  0.5936  0.6467
    7CHTO   H84 2822   6.334   0.634   4.096 -0.0252  0.4861  0.4675
    7CHTO   C44 2823   6.444   0.786   3.992 -0.9172 -0.2363  0.6362
    7CHTO   H86 2824   6.427   0.858   3.912  0.5522 -1.1499 -0.5042
    7CHTO   O32 2825   6.454   0.864   4.113  0.5284 -0.3869  0.2999
    7CHTO   H69 2826   6.518   0.842   4.178 -0.1795  1.1013  1.5197
    7CHTO   C48 2827   6.572   0.709   3.960  0.0675 -0.4673 -0.0699
    7CHTO   H90 2828   6.593   0.643   4.044 -1.1171  0.3378  0.8775
    7CHTO    N9 2829   6.689   0.804   3.946  0.6661  0.3667  0.9182
    7CHTO   H77 2830   6.709   0.828   3.843  1.9100 -3.4174  0.2232
    7CHTO   H78 2831   6.686   0.889   4.012  0.1865  1.1779 -0.1319
    7CHTO   C51 2832   6.560   0.631   3.829 -0.3709  0.1130 -0.0789
    7CHTO   H93 2833   6.535   0.701   3.749 -0.1151  1.8916  1.3602
    7CHTO   O30 2834   6.457   0.537   3.855 -0.0088 -0.3534  0.2324
    7CHTO   C46 2835   6.305   0.606   3.885  0.4713 -0.4205  0.5000
    7CHTO   H88 2836   6.274   0.660   3.795 -0.9292  1.9766  2.3270
    7CHTO   C53 2837   6.210   0.489   3.922 -0.0179  0.0168  0.9185
    7CHTO   O72 2838   6.136   0.438   3.809 -0.4090  0.2036  0.1860
    7CHTO  H199 2839   6.147   0.493   3.734  0.7188  0.8737  0.8361
    7CHTO   O22 2840   6.676   0.551   3.790 -0.0428  0.5209 -0.6807
    7CHTO   C31 2841   6.735   0.545   3.654  0.2550 -0.1385 -0.7652
    7CHTO   H59 2842   6.803   0.457   3.649  0.0816 -0.3135 -0.0875
    7CHTO   C29 2843   6.632   0.520   3.537 -0.4811  0.1347  0.5202
    7CHTO   H57 2844   6.560   0.603   3.532  2.5915  2.8219 -1.4767
    7CHTO   O21 2845   6.565   0.398   3.573 -0.0021 -0.2313 -0.1101
    7CHTO   H37 2846   6.627   0.333   3.598  1.5963  1.9408  1.7744
    7CHTO   C27 2847   6.696   0.514   3.392  0.4716  0.6745  0.2368
    7CHTO   H55 2848   6.779   0.441   3.392 -0.5829 -0.5274  0.3320
    7CHTO    N5 2849   6.600   0.495   3.276 -0.0398  0.2983 -0.5382
    7CHTO   H43 2850   6.498   0.479   3.308 -0.7814  1.3268 -2.2977
    7CHTO   H44 2851   6.630   0.424   3.200 -0.6532 -0.6665  0.1101
    7CHTO   C25 2852   6.785   0.639   3.375 -0.2245 -1.0841 -0.7151
    7CHTO   H53 2853   6.721   0.728   3.382  0.5200 -0.5439 -0.7370
    7CHTO   O17 2854   6.878   0.656   3.485 -0.1375 -0.1485  0.1690
    7CHTO   C32 2855   6.818   0.667   3.618 -0.9311 -0.9228  0.1116
    7CHTO   H60 2856   6.755   0.756   3.622  0.4694  0.0980 -0.4193
    7CHTO   C36 2857   6.934   0.686   3.718  0.7300 -0.4038 -0.3397
    7CHTO   O25 2858   6.972   0.822   3.713  0.2391 -0.4069 -0.3612
    7CHTO   H40 2859   7.058   0.840   3.679  0.4401 -0.0745  0.3252
    7CHTO   O15 2860   6.869   0.633   3.251  0.1441  0.4937 -0.2490
    7CHTO   C19 2861   6.903   0.717   3.141  0.1268 -0.5549 -0.0364
    7CHTO   H47 2862   7.008   0.694   3.117 -0.2558 -0.6677 -1.7131
    7CHTO   C20 2863   6.826   0.672   3.017  0.1258 -0.7364  0.2823
    7CHTO   H48 2864   6.718   0.669   3.039  0.5335 -0.6820  2.4456
    7CHTO   O19 2865   6.859   0.527   3.000  0.5818 -0.8822 -0.2602
    7CHTO   H35 2866   6.782   0.473   3.001 -0.5705  0.6462 -1.9676
    7CHTO   C21 2867   6.860   0.764   2.897 -0.4772 -0.4097  0.0074
    7CHTO   H49 2868   6.964   0.743   2.872 -1.2411 -1.2600 -2.5937
    7CHTO    N4 2869   6.789   0.732   2.773 -0.7155 -0.0544  0.0642
    7CHTO   H41 2870   6.821   0.631   2.749 -0.5577  0.4267 -1.8088
    7CHTO   H42 2871   6.683   0.728   2.794 -0.0265  1.0379  3.9972
    7CHTO   C22 2872   6.849   0.913   2.934  0.1472 -0.1841  0.7608
    7CHTO   H50 2873   6.744   0.937   2.948 -0.1049 -1.4860  1.1644
    7CHTO   O14 2874   6.925   0.941   3.054  0.2856 -0.4851 -0.3984
    7CHTO   C23 2875   6.893   0.867   3.171  0.0537  0.3238 -0.2227
    7CHTO   H51 2876   6.791   0.895   3.201  0.4269  0.1147  1.2804
    7CHTO   C34 2877   6.984   0.903   3.282  0.0329 -0.1044 -0.3639
    7CHTO   O23 2878   6.946   1.025   3.354  0.0264  1.0168  0.0930
    7CHTO   H38 2879   6.872   1.006   3.407  0.4204 -1.4048 -0.1748
    7CHTO   O16 2880   6.910   1.004   2.832 -0.0753  0.0723  0.5650
    7CHTO   C24 2881   6.848   1.151   2.841 -0.3594  0.1769 -0.9286
    7CHTO   H52 2882   6.772   1.160   2.919  0.6533  0.6869  0.0145
    7CHTO   C26 2883   6.784   1.193   2.710  0.2360  0.3210  0.3028
    7CHTO   H54 2884   6.859   1.176   2.629  0.6874  2.0865  0.3419
    7CHTO   O20 2885   6.676   1.107   2.676 -0.1414  0.2845  0.5373
    7CHTO   H36 2886   6.669   1.098   2.583 -0.2938  0.9601  0.4780
    7CHTO   C30 2887   6.732   1.339   2.701 -0.3221 -0.2764 -0.2329
    7CHTO   H58 2888   6.643   1.338   2.765 -0.0412 -0.4400  0.1599
    7CHTO    N6 2889   6.685   1.378   2.568  1.1863  0.3472 -0.3671
    7CHTO   H45 2890   6.767   1.341   2.508  0.1444 -0.1776 -1.4829
    7CHTO   H46 2891   6.688   1.485   2.564  0.8713  0.3247 -1.3649
    7CHTO   C33 2892   6.821   1.447   2.766  0.2389  0.0741  0.3447
    7CHTO   H61 2893   6.889   1.482   2.686 -0.6135  0.9487 -0.0056
    7CHTO   O18 2894   6.897   1.392   2.870 -0.0041 -0.0676 -0.0722
    7CHTO   C28 2895   6.952   1.260   2.867  0.3186  0.0272  0.6093
    7CHTO   H56 2896   7.030   1.250   2.791 -0.6573 -0.3567 -0.3367
    7CHTO   C35 2897   7.033   1.234   3.000  0.3344  0.1001 -0.4944
    7CHTO   O24 2898   6.954   1.236   3.122 -0.0404 -0.1198  0.1572
    7CHTO   H39 2899   7.009   1.204   3.192 -1.8867 -4.9084 -0.3789
    7CHTO    O9 2900   6.749   1.564   2.813 -0.0558  0.3568  0.1676
    7CHTO   C13 2901   6.837   1.716   2.822  0.0586 -0.3370  0.0350
    7CHTO   H26 2902   6.856   1.758   2.721  0.7735 -2.1290 -0.5846
    7CHTO   C11 2903   6.971   1.700   2.909  0.3435 -0.1882 -0.5087
    7CHTO   H24 2904   7.042   1.632   2.860 -1.7456 -1.2581 -2.1409
    7CHTO    O8 2905   6.950   1.655   3.043 -0.5749 -0.3984 -0.9664
    7CHTO    H3 2906   6.884   1.712   3.076 -0.7180 -0.9407 -0.3173
    7CHTO    C9 2907   7.043   1.836   2.904 -0.7026 -0.2169 -0.7295
    7CHTO   H22 2908   7.044   1.854   2.796 -2.1155 -0.1948 -0.7475
    7CHTO    N2 2909   7.184   1.833   2.955  0.0964  0.3255 -0.1295
    7CHTO   H10 2910   7.208   1.928   3.001  0.9063  0.4396 -0.7753
    7CHTO   H11 2911   7.189   1.768   3.041 -1.3652 -1.3709 -1.2737
    7CHTO    C7 2912   6.947   1.950   2.968 -0.0940  0.2044 -0.0941
    7CHTO   H20 2913   7.012   2.035   2.938  0.4911  0.0559  0.7292
    7CHTO    O4 2914   6.816   1.956   2.900 -0.5560 -0.0580  0.1551
    7CHTO   C14 2915   6.740   1.835   2.883 -0.1231 -0.1876  0.9511
    7CHTO   H27 2916   6.661   1.854   2.807  1.2893 -0.2788 -0.5592
    7CHTO   C18 2917   6.669   1.792   3.019  0.2831 -0.1131 -0.2309
    7CHTO   O13 2918   6.598   1.673   2.998 -0.2214  0.5301  0.8322
    7CHTO    H7 2919   6.618   1.605   3.059  0.9002 -1.5601 -1.7470
    7CHTO    O2 2920   6.922   1.938   3.130  0.3723 -0.0876 -0.0854
    7CHTO    C1 2921   6.914   2.064   3.200  0.8586  0.4797  0.3716
    7CHTO   H14 2922   6.863   2.146   3.146  0.0564  0.1134  0.5570
    7CHTO    C2 2923   7.060   2.109   3.245  0.7245  0.8142 -0.1879
    7CHTO   H15 2924   7.106   2.016   3.281  1.6433  1.4673  0.3558
    7CHTO    O6 2925   7.133   2.137   3.125  0.4330 -0.2863 -0.0587
    7CHTO    H1 2926   7.093   2.095   3.052  0.9631 -0.4045 -0.2800
    7CHTO    C3 2927   7.074   2.228   3.344  0.6009  0.8688 -1.2033
    7CHTO   H16 2928   7.019   2.320   3.317 -2.7210 -0.5553  0.5397
    7CHTO    N1 2929   7.206   2.271   3.385  0.2970 -0.0694  0.4714
    7CHTO    H8 2930   7.264   2.322   3.309 -0.9025  3.6456  1.9625
    7CHTO    H9 2931   7.260   2.187   3.426  1.8101  0.7014  0.1133
    7CHTO    C4 2932   6.989   2.180   3.468 -0.3153 -0.2779 -0.8806
    7CHTO   H17 2933   7.035   2.088   3.503 -0.2832 -0.9174 -2.5412
    7CHTO    O1 2934   6.855   2.155   3.421 -0.2159 -0.3353  1.2497
    7CHTO    C5 2935   6.831   2.053   3.324  0.5819  0.6500 -0.7901
    7CHTO   H18 2936   6.850   1.960   3.376  0.2118 -0.0519 -1.8910
    7CHTO   C16 2937   6.679   2.066   3.292  0.2604  0.0705 -0.5660
    7CHTO   O11 2938   6.595   2.066   3.405  0.4965 -0.2360 -0.1458
    7CHTO    H5 2939   6.599   2.148   3.448 -1.5994 -1.1810  1.9786
    7CHTO    O3 2940   6.974   2.287   3.567  0.1423  0.0738  0.4748
    7CHTO    C6 2941   6.962   2.259   3.708  0.9080 -0.4424 -0.0727
    7CHTO   H19 2942   6.928   2.157   3.729 -3.6125  1.1548  0.8005
    7CHTO    C8 2943   7.091   2.285   3.788  0.0235  0.3948 -0.5844
    7CHTO   H21 2944   7.134   2.379   3.753 -2.1144  1.6132 -0.0012
    7CHTO    O7 2945   7.169   2.173   3.748  0.0866  0.0678  0.8037
    7CHTO    H2 2946   7.144   2.098   3.798  0.9148 -2.6626 -2.6788
    7CHTO   C12 2947   7.080   2.289   3.945  0.8507 -0.1187 -0.0991
    7CHTO   H25 2948   7.051   2.189   3.983 -0.9219 -0.0684 -1.2983
    7CHTO    N3 2949   7.207   2.331   4.006  0.2401 -0.4980 -0.1385
    7CHTO   H12 2950   7.194   2.347   4.111 -1.5806  0.6730 -0.5301
    7CHTO   H13 2951   7.290   2.267   3.979  0.1788 -0.7051  0.1678
    7CHTO   C15 2952   6.956   2.392   3.974 -0.4360  0.4012  0.2803
    7CHTO   H28 2953   6.984   2.497   3.965  3.4728 -0.5552  0.4033
    7CHTO   O10 2954   6.908   2.368   4.132  0.5842  0.0771  0.1805
    7CHTO    H4 2955   6.910   2.278   4.158 -0.7445 -0.0244 -0.0530
    7CHTO    O5 2956   6.838   2.358   3.899 -0.3976  0.1312 -0.1476
    7CHTO   C10 2957   6.845   2.356   3.754 -0.9403 -0.1992  0.5418
    7CHTO   H23 2958   6.874   2.457   3.727  0.2267 -0.1738  1.8702
    7CHTO   C17 2959   6.712   2.318   3.687 -0.0184 -0.1714  0.2638
    7CHTO   O12 2960   6.604   2.412   3.708  0.2624  0.1262  0.0470
    7CHTO    H6 2961   6.633   2.501   3.699 -1.0945  0.6146  0.4168
    8CHTO  H203 2962   7.822   7.034   1.187 -0.8486 -0.5943  0.1909
    8CHTO   O82 2963   7.780   7.116   1.203  0.0509  0.0098 -0.4793
    8CHTO  C123 2964   7.667   7.106   1.289 -0.3502 -0.2153  0.5557
    8CHTO  H227 2965   7.702   7.044   1.373  1.3992 -0.1141 -0.0703
    8CHTO   O77 2966   7.647   7.240   1.322 -0.0366  0.0141  0.6321
    8CHTO  C118 2967   7.535   7.259   1.411  0.4412  0.1837  0.2640
    8CHTO  H222 2968   7.551   7.195   1.499 -1.0134 -0.1233  0.3191
    8CHTO  C125 2969   7.539   7.408   1.459  0.0188  0.0283  0.3308
    8CHTO   O84 2970   7.475   7.421   1.590  0.0655  0.6893  0.3100
    8CHTO  H205 2971   7.402   7.480   1.585 -1.5026 -1.2007  0.1827
    8CHTO  C114 2972   7.404   7.218   1.351  0.1351  0.3129 -0.0132
    8CHTO  H218 2973   7.380   7.286   1.269  0.6833  0.2094 -0.2650
    8CHTO  C116 2974   7.414   7.077   1.296  0.0324  0.0668 -0.3701
    8CHTO  H220 2975   7.406   7.006   1.380  0.2925  0.7153  0.2065
    8CHTO   O79 2976   7.304   7.054   1.210  0.0526  0.0883  0.0020
    8CHTO  H201 2977   7.315   7.077   1.119 -2.0338 -0.5192 -0.4500
    8CHTO  C120 2978   7.544   7.047   1.216 -0.0439 -0.4980  0.7415
    8CHTO  H224 2979   7.533   7.103   1.121  1.5888 -2.8958 -0.9387
    8CHTO   N21 2980   7.562   6.902   1.183 -0.4375 -0.1533  0.7503
    8CHTO  H211 2981   7.516   6.829   1.248  0.4462  0.9823  2.6776
    8CHTO  H212 2982   7.667   6.891   1.158 -0.3392  0.1044  1.0485
    8CHTO   O75 2983   7.305   7.232   1.452  0.8461 -0.1777 -0.1925
    8CHTO  C112 2984   7.152   7.301   1.381 -0.5864 -0.0781 -0.2667
    8CHTO  H216 2985   7.113   7.223   1.313 -2.5588 -0.6413  1.4763
    8CHTO   O73 2986   7.185   7.420   1.309  0.2968 -0.1130 -0.0606
    8CHTO  C113 2987   7.078   7.482   1.237  0.5461 -0.2872  0.3452
    8CHTO  H217 2988   7.030   7.410   1.168 -1.5136  0.2175  1.2439
    8CHTO  C124 2989   7.140   7.600   1.154 -0.2151  0.1758 -0.2261
    8CHTO   O83 2990   7.227   7.558   1.049 -0.3390  0.1822  0.1159
    8CHTO  H204 2991   7.175   7.584   0.975 -1.4487 -0.6691  0.5882
    8CHTO  C109 2992   6.970   7.532   1.336  0.1274 -0.7193 -0.1485
    8CHTO  H213 2993   7.015   7.616   1.390  2.6009 -2.0708 -0.0054
    8CHTO  C110 2994   6.927   7.410   1.433  0.6275 -0.2643  0.2545
    8CHTO  H214 2995   6.861   7.342   1.378 -0.9360  1.7773 -0.4561
    8CHTO   O78 2996   6.842   7.455   1.546  0.0480  0.0196 -0.2438
    8CHTO  H200 2997   6.755   7.475   1.516 -1.3571 -5.0057  0.1113
    8CHTO  C111 2998   7.049   7.329   1.497  0.2527  0.0310  0.4718
    8CHTO  H215 2999   7.097   7.392   1.573 -1.7238  0.3256  1.5274
    8CHTO   N19 3000   7.006   7.201   1.565  0.2645 -0.3828 -0.5916
    8CHTO  H207 3001   6.901   7.177   1.558 -0.5751  2.7456  0.2495
    8CHTO  H208 3002   7.024   7.207   1.672  0.2051 -0.2765 -0.5866
    8CHTO   O74 3003   6.857   7.586   1.251 -0.0118 -0.0393 -0.0328
    8CHTO  C115 3004   6.759   7.695   1.331  0.1201  0.2484  0.3833
    8CHTO  H219 3005   6.659   7.654   1.346  0.0714 -0.0555 -0.7670
    8CHTO   O76 3006   6.816   7.728   1.492  0.7002 -0.4761 -0.0852
    8CHTO  C122 3007   6.746   7.840   1.554 -0.7723 -0.3289  0.9046
    8CHTO  H226 3008   6.797   7.876   1.643  0.3469  0.8092 -0.1938
    8CHTO  C126 3009   6.601   7.803   1.598 -0.0309  0.4397  0.5133
    8CHTO   O85 3010   6.514   7.770   1.490  0.4442  0.4509  0.0459
    8CHTO  H206 3011   6.545   7.692   1.449 -2.9003 -0.4831 -0.9192
    8CHTO  C121 3012   6.762   7.971   1.460 -0.3797  0.1753 -0.4531
    8CHTO  H225 3013   6.696   8.042   1.514 -1.1972 -0.9489  0.0496
    8CHTO   O81 3014   6.896   8.017   1.469  0.8733  0.0235 -0.2663
    8CHTO  H202 3015   6.902   8.108   1.450 -1.0985 -0.1033 -1.6778
    8CHTO  C119 3016   6.708   7.958   1.313  0.0549  0.2183  0.2209
    8CHTO  H223 3017   6.600   7.952   1.328 -0.0075 -2.1410 -0.8804
    8CHTO  C117 3018   6.756   7.825   1.237  0.1311 -0.2174 -0.3936
    8CHTO  H221 3019   6.860   7.835   1.206  0.1478 -0.1438 -0.3134
    8CHTO   N20 3020   6.682   7.799   1.114 -0.0150  0.0689  0.1124
    8CHTO  H209 3021   6.584   7.782   1.155 -1.1281  0.1675 -2.4076
    8CHTO  H210 3022   6.728   7.717   1.062  0.7519 -1.2967  2.8431
    8CHTO   O80 3023   6.713   8.081   1.225 -0.2226  0.1139  0.0376
    8CHTO  C103 3024   6.653   8.227   1.268 -0.4583  0.2090  0.4947
    8CHTO  H190 3025   6.569   8.214   1.336  0.0813 -1.9843  0.7864
    8CHTO  C101 3026   6.756   8.338   1.319 -0.0228 -0.1229 -0.1104
    8CHTO  H188 3027   6.848   8.347   1.262  0.5723  1.6214  1.0885
    8CHTO   O68 3028   6.776   8.298   1.461  0.6859 -0.1390 -0.4539
    8CHTO  H168 3029   6.817   8.215   1.472  0.9523 -0.1374 -1.4483
    8CHTO   C99 3030   6.704   8.487   1.307  0.0470  0.0436  0.1088
    8CHTO  H186 3031   6.621   8.495   1.381  1.8140 -0.5685  2.2147
    8CHTO   N17 3032   6.807   8.590   1.354 -0.0673 -0.5546 -0.3223
    8CHTO  H174 3033   6.838   8.569   1.456  1.0065  1.9994 -0.0768
    8CHTO  H175 3034   6.771   8.691   1.345  1.0864 -0.1164 -0.1708
    8CHTO   C97 3035   6.643   8.517   1.170 -0.0888 -0.0118 -0.2512
    8CHTO  H184 3036   6.723   8.513   1.095 -0.2237 -0.1180 -0.3908
    8CHTO   O64 3037   6.543   8.415   1.150 -0.0547 -0.0356 -0.4215
    8CHTO  C104 3038   6.597   8.283   1.127  0.5518 -0.3919  0.2523
    8CHTO  H191 3039   6.676   8.273   1.053  1.2221 -0.2300  0.9387
    8CHTO  C108 3040   6.476   8.201   1.075 -0.0303 -0.1808 -0.4196
    8CHTO   O71 3041   6.457   8.217   0.933  0.3314 -0.2599 -0.3460
    8CHTO  H171 3042   6.431   8.303   0.907 -3.2306 -1.5867 -1.4593
    8CHTO   O62 3043   6.555   8.633   1.160 -0.0366  0.1929  0.6003
    8CHTO   C91 3044   6.605   8.749   1.087  0.4635  0.2336  0.3002
    8CHTO  H178 3045   6.714   8.753   1.088  0.4985 -0.2589 -0.5437
    8CHTO   C92 3046   6.558   8.880   1.163  0.3118 -0.6935 -0.3984
    8CHTO  H179 3047   6.449   8.878   1.166  0.1938  1.9954 -1.2267
    8CHTO   O66 3048   6.603   8.883   1.299  0.3674  0.9528  0.1410
    8CHTO  H166 3049   6.690   8.848   1.304  0.4135  0.9296 -0.7671
    8CHTO   C93 3050   6.606   9.011   1.086 -0.1205 -0.3314 -0.1817
    8CHTO  H180 3051   6.716   9.012   1.082  0.0055  0.7533  2.7777
    8CHTO   N16 3052   6.561   9.136   1.150  0.9041  0.0832 -0.3539
    8CHTO  H172 3053   6.467   9.125   1.202  0.5737  4.2418  0.0869
    8CHTO  H173 3054   6.571   9.220   1.084  0.7882 -1.2046 -2.0383
    8CHTO   C94 3055   6.554   9.009   0.940  0.2699 -0.0553 -0.7130
    8CHTO  H181 3056   6.446   9.016   0.937  0.2939  1.4345  0.7870
    8CHTO   O61 3057   6.601   8.890   0.879  0.4883 -0.2628 -0.3379
    8CHTO   C95 3058   6.556   8.763   0.933  0.3801 -0.0434  0.1887
    8CHTO  H182 3059   6.447   8.758   0.941  0.3065  1.8405  0.4949
    8CHTO  C106 3060   6.597   8.642   0.845 -0.3455 -0.0002  0.0475
    8CHTO   O69 3061   6.739   8.635   0.832  0.8312 -0.3899  0.3898
    8CHTO  H169 3062   6.775   8.707   0.783  0.6058 -2.0348 -2.2662
    8CHTO   O63 3063   6.617   9.123   0.853 -0.2054  0.4677 -0.6390
    8CHTO   C96 3064   6.542   9.137   0.716  0.3282 -0.1217  0.0432
    8CHTO  H183 3065   6.465   9.060   0.711  0.0854  0.1042  0.3000
    8CHTO   C98 3066   6.617   9.114   0.579 -0.8923  0.2207  0.3057
    8CHTO  H185 3067   6.698   9.187   0.565 -0.7630  0.3503  1.6516
    8CHTO   O67 3068   6.676   8.984   0.584  0.3456 -0.4322  0.1452
    8CHTO  H167 3069   6.619   8.914   0.560 -1.0195  0.6842  0.0398
    8CHTO  C102 3070   6.516   9.123   0.449  0.5786 -0.3555  0.0082
    8CHTO  H189 3071   6.449   9.035   0.452 -0.3179  0.3154 -0.1579
    8CHTO   N18 3072   6.588   9.118   0.319  0.0637 -0.3063  0.0562
    8CHTO  H176 3073   6.628   9.217   0.299  1.4473 -0.8830 -0.1124
    8CHTO  H177 3074   6.663   9.044   0.296 -1.3150 -1.0083 -2.2497
    8CHTO  C105 3075   6.428   9.249   0.464 -0.0376 -0.2842  0.0171
    8CHTO  H192 3076   6.481   9.336   0.425 -1.4845 -0.1739 -1.7325
    8CHTO   O65 3077   6.374   9.263   0.594 -0.2844  0.1544  0.2339
    8CHTO  C100 3078   6.466   9.274   0.706 -0.3087 -0.3412  0.1463
    8CHTO  H187 3079   6.529   9.359   0.676 -1.0218  0.4599  0.8648
    8CHTO  C107 3080   6.371   9.301   0.832 -0.1941  0.7004  0.3059
    8CHTO   O70 3081   6.308   9.432   0.828 -0.3011 -0.3479 -0.3975
    8CHTO  H170 3082   6.272   9.440   0.742 -1.3407  1.7815  0.2134
    8CHTO   O57 3083   6.307   9.231   0.361 -0.2428 -0.1998  0.5397
    8CHTO   C85 3084   6.280   9.323   0.257 -0.1493  0.0697 -0.2777
    8CHTO  H157 3085   6.377   9.341   0.206  0.0693  0.7057  0.3594
    8CHTO   C83 3086   6.253   9.469   0.320  0.0348  0.0343  0.2555
    8CHTO  H155 3087   6.349   9.509   0.354  0.0007  0.6329 -0.3537
    8CHTO   O56 3088   6.157   9.459   0.428  0.3311 -0.1279 -0.1673
    8CHTO  H135 3089   6.072   9.436   0.395  0.7804 -1.9671 -0.1128
    8CHTO   C81 3090   6.203   9.552   0.197  0.3886  0.2056 -0.0992
    8CHTO  H153 3091   6.283   9.549   0.123  0.6734  1.3584  0.1600
    8CHTO   N14 3092   6.185   9.693   0.239  0.2413 -0.4979 -0.0876
    8CHTO  H141 3093   6.211   9.703   0.343  0.5606  1.7166 -0.3603
    8CHTO  H142 3094   6.091   9.742   0.231  0.5272 -0.0978 -1.0339
    8CHTO   C79 3095   6.073   9.491   0.130  0.1101 -0.1475  0.4484
    8CHTO  H151 3096   6.042   9.561   0.052 -1.6768 -0.6093  0.7099
    8CHTO   O52 3097   6.106   9.365   0.064  0.3956 -0.3573  0.5602
    8CHTO   C86 3098   6.166   9.270   0.155 -0.6295  0.2155  0.6747
    8CHTO  H158 3099   6.086   9.212   0.206 -0.7625  0.6758  0.9870
    8CHTO   C90 3100   6.236   9.166   0.066  0.8940 -0.1734  0.0737
    8CHTO   O60 3101   6.133   9.087   0.003 -0.3157 -0.0160 -0.3076
    8CHTO  H138 3102   6.094   9.144  -0.060  0.1805 -0.0482 -0.6445
    8CHTO   O50 3103   5.968   9.462   0.221 -0.6347 -0.5240  0.0465
    8CHTO   C73 3104   5.834   9.503   0.231 -0.6289 -0.3121  0.0723
    8CHTO  H145 3105   5.791   9.492   0.130 -0.0971  0.7692 -0.2862
    8CHTO   C74 3106   5.825   9.648   0.272  0.2402 -0.4145  0.2649
    8CHTO  H146 3107   5.883   9.713   0.204 -1.8112  1.5533  0.3187
    8CHTO   O54 3108   5.689   9.683   0.248  0.3431 -0.5720  0.0974
    8CHTO  H133 3109   5.636   9.636   0.310  1.5816 -0.6091  1.1360
    8CHTO   C75 3110   5.867   9.670   0.427  0.0677 -0.0659 -0.3065
    8CHTO  H147 3111   5.970   9.634   0.440  0.0889  0.3359  0.7280
    8CHTO   N13 3112   5.866   9.809   0.477  0.7546 -0.1717 -0.1478
    8CHTO  H139 3113   5.883   9.825   0.582  1.5243  0.5411 -0.3815
    8CHTO  H140 3114   5.938   9.869   0.423  0.5906 -0.1444 -0.3375
    8CHTO   C76 3115   5.779   9.582   0.519  0.0075  0.2755  0.9327
    8CHTO  H148 3116   5.675   9.613   0.504 -0.3935 -0.1682  2.7130
    8CHTO   O49 3117   5.790   9.445   0.475  0.0998 -0.2772  0.4816
    8CHTO   C77 3118   5.757   9.418   0.338  0.2041  0.6715  0.0513
    8CHTO  H149 3119   5.649   9.432   0.327  0.1461  0.2402  0.0519
    8CHTO   C88 3120   5.785   9.272   0.316  0.4044  0.2090  0.4644
    8CHTO   O58 3121   5.774   9.215   0.173  0.0258 -0.7135  0.4011
    8CHTO  H136 3122   5.829   9.140   0.160  1.8043  0.0726  2.9749
    8CHTO   O51 3123   5.823   9.580   0.680 -0.3397  0.4404  0.2204
    8CHTO   C78 3124   5.762   9.478   0.769 -0.3286 -0.1359  0.3338
    8CHTO  H150 3125   5.707   9.400   0.712 -3.3706  2.8963 -1.1171
    8CHTO   C80 3126   5.654   9.550   0.855  0.1584  0.2554 -0.3797
    8CHTO  H152 3127   5.707   9.619   0.923  0.0825 -0.4732  0.4394
    8CHTO   O55 3128   5.565   9.624   0.764 -0.0396 -0.8341 -0.3391
    8CHTO  H134 3129   5.615   9.687   0.716  1.8074 -2.5993 -0.8274
    8CHTO   C84 3130   5.585   9.447   0.948  0.0708  0.0172 -0.2061
    8CHTO  H156 3131   5.523   9.377   0.892  0.2738 -1.0800  0.9319
    8CHTO   N15 3132   5.491   9.514   1.041 -0.4871 -0.0385 -0.3111
    8CHTO  H143 3133   5.544   9.575   1.111 -3.3655  0.8517  1.2095
    8CHTO  H144 3134   5.426   9.575   0.981 -2.1903 -0.6292  0.9036
    8CHTO   C87 3135   5.689   9.362   1.024 -0.2514 -0.2295  0.1772
    8CHTO  H159 3136   5.740   9.413   1.107  2.0123  0.1865 -1.4132
    8CHTO   O53 3137   5.795   9.307   0.932 -0.0239  0.2956 -0.0596
    8CHTO   C82 3138   5.866   9.407   0.856  0.0026 -0.0054  0.5746
    8CHTO  H154 3139   5.923   9.480   0.913 -1.4535  0.9102  0.8648
    8CHTO   C89 3140   5.959   9.341   0.748  0.0295 -0.3214  0.5978
    8CHTO   O59 3141   6.054   9.252   0.808 -0.1694  0.4899  0.4269
    8CHTO  H137 3142   6.017   9.166   0.810  1.3215 -0.1813 -0.5390
    8CHTO   O45 3143   5.631   9.237   1.076  0.1722 -0.3836  0.0293
    8CHTO   C67 3144   5.713   9.144   1.148  0.5357 -0.1787 -0.4788
    8CHTO  H124 3145   5.803   9.124   1.091  0.7580  0.4719 -0.3676
    8CHTO   C65 3146   5.749   9.205   1.293 -0.3816 -0.0127  0.2347
    8CHTO  H122 3147   5.659   9.262   1.320 -0.6497  0.0575 -0.7775
    8CHTO   O44 3148   5.864   9.287   1.264  0.3062  0.1872 -0.3926
    8CHTO  H102 3149   5.845   9.356   1.204 -0.1555  0.2934 -0.1282
    8CHTO   C63 3150   5.765   9.093   1.407  0.9171 -0.5624 -0.6232
    8CHTO  H120 3151   5.670   9.068   1.454 -0.7825  1.0283 -3.1335
    8CHTO   N11 3152   5.845   9.131   1.524 -0.0204 -0.3439 -0.3796
    8CHTO  H108 3153   5.779   9.178   1.594  1.1314 -0.0307  0.4932
    8CHTO  H109 3154   5.927   9.195   1.498 -1.8760  2.8642  1.3961
    8CHTO   C61 3155   5.809   8.957   1.343  0.0772 -0.2010  0.0976
    8CHTO  H118 3156   5.803   8.881   1.423  1.9183 -0.4515  0.0132
    8CHTO   O40 3157   5.733   8.901   1.236  0.0681  0.0886  0.3286
    8CHTO   C68 3158   5.644   9.001   1.174  0.0972 -0.1294  0.4298
    8CHTO  H125 3159   5.560   9.006   1.245  1.6767 -0.8073  2.3974
    8CHTO   C72 3160   5.589   8.931   1.048 -0.4324  0.3909  0.3576
    8CHTO   O48 3161   5.478   9.003   1.003 -0.0322  0.3025  0.3597
    8CHTO  H105 3162   5.399   8.965   1.036 -0.4716  1.4253  0.6629
    8CHTO   O38 3163   5.940   8.973   1.291  0.0175  0.0721 -0.4045
    8CHTO   C55 3164   6.001   8.849   1.255 -0.1264 -0.1634 -0.0748
    8CHTO  H112 3165   5.929   8.776   1.213  0.2154  0.2520 -1.4302
    8CHTO   C56 3166   6.086   8.789   1.372  0.3343  1.0129 -1.3922
    8CHTO  H113 3167   6.161   8.865   1.399 -0.7438  1.1825  1.1660
    8CHTO   O42 3168   6.009   8.771   1.487 -0.0774  0.1969  0.1027
    8CHTO  H100 3169   6.063   8.733   1.554  0.4234  0.4500 -0.1559
    8CHTO   C57 3170   6.153   8.654   1.334 -0.4843  0.4279  0.1643
    8CHTO  H114 3171   6.070   8.584   1.342 -0.4535  0.2833 -0.7787
    8CHTO   N10 3172   6.259   8.611   1.433 -0.1780  0.2122  0.5218
    8CHTO  H106 3173   6.314   8.689   1.483 -2.3207  0.2961  2.8129
    8CHTO  H107 3174   6.210   8.549   1.506  0.6911 -2.1827 -0.8617
    8CHTO   C58 3175   6.211   8.642   1.189  0.1246  0.5120 -0.8776
    8CHTO  H115 3176   6.316   8.679   1.192  0.0523  0.9338 -2.6903
    8CHTO   O37 3177   6.141   8.729   1.090  0.4799  0.6910 -0.2880
    8CHTO   C59 3178   6.098   8.863   1.134  0.7694  0.1905 -0.3232
    8CHTO  H116 3179   6.185   8.925   1.157  1.1314 -0.2884 -0.4029
    8CHTO   C70 3180   6.032   8.927   1.006 -0.0449 -0.2047 -0.6388
    8CHTO   O46 3181   5.896   8.880   0.984  0.0448  0.2207 -0.3535
    8CHTO  H103 3182   5.841   8.955   0.967  0.5311  0.5318 -0.5653
    8CHTO   O39 3183   6.212   8.474   1.131  0.7135  0.0187 -0.0088
    8CHTO   C60 3184   6.084   8.415   1.092  0.1471 -0.5312 -0.6366
    8CHTO  H117 3185   6.005   8.468   1.147  1.2076 -0.3410  0.7260
    8CHTO   C62 3186   6.064   8.427   0.941  0.0087 -0.3870 -0.4964
    8CHTO  H119 3187   6.088   8.532   0.914  1.1057 -0.6127 -0.4311
    8CHTO   O43 3188   6.166   8.349   0.876 -0.1118 -0.0004 -0.7602
    8CHTO  H101 3189   6.178   8.261   0.906  2.1698  0.7435  0.6640
    8CHTO   C66 3190   5.916   8.384   0.905  0.2211 -0.6381 -0.8640
    8CHTO  H123 3191   5.843   8.438   0.965  1.9751 -0.3868  1.0890
    8CHTO   N12 3192   5.878   8.418   0.767 -0.4976  0.6228 -0.0216
    8CHTO  H110 3193   5.951   8.401   0.689  2.4347 -0.2876  2.8063
    8CHTO  H111 3194   5.788   8.361   0.746  0.1415 -0.4195  0.0442
    8CHTO   C69 3195   5.905   8.230   0.930  0.4498  0.4324 -0.0177
    8CHTO  H126 3196   5.961   8.168   0.857 -0.8106 -1.4498  0.5678
    8CHTO   O41 3197   5.939   8.201   1.079 -0.0492 -0.6290  0.2007
    8CHTO   C64 3198   6.074   8.262   1.133  0.3623  0.2857  0.1320
    8CHTO  H121 3199   6.167   8.213   1.097  1.4762  1.0387  1.8743
    8CHTO   C71 3200   6.079   8.254   1.286 -0.4291  0.0386 -0.6072
    8CHTO   O47 3201   6.054   8.123   1.337  0.5063  0.0069  0.6452
    8CHTO  H104 3202   6.060   8.122   1.430  1.2748 -0.4865  0.5971
    8CHTO   O34 3203   5.758   8.179   0.908  0.1979  0.0024  0.9618
    8CHTO   C49 3204   5.625   8.167   0.973  0.0610  1.1105  0.9159
    8CHTO   H91 3205   5.636   8.076   1.033  0.1415  0.1991 -0.4419
    8CHTO   C47 3206   5.516   8.143   0.862  1.0780  0.1768  0.7352
    8CHTO   H89 3207   5.425   8.112   0.916  1.3799 -2.2160 -0.0789
    8CHTO   O33 3208   5.563   8.029   0.783 -0.0306  0.3758 -0.0105
    8CHTO   H70 3209   5.493   7.967   0.779  1.1971 -1.0018 -0.6646
    8CHTO   C45 3210   5.492   8.275   0.782 -0.3849  0.3132 -0.0718
    8CHTO   H87 3211   5.584   8.305   0.730 -0.0203 -1.0073 -0.2060
    8CHTO    N8 3212   5.389   8.258   0.682 -0.2705 -0.1041 -0.0161
    8CHTO   H75 3213   5.370   8.354   0.636 -1.6218 -0.1576  0.3997
    8CHTO   H76 3214   5.438   8.207   0.600  0.4222  2.2452 -1.1202
    8CHTO   C43 3215   5.464   8.395   0.893 -0.2233  0.3087 -0.1227
    8CHTO   H85 3216   5.455   8.485   0.833  1.0557  1.4267  1.3205
    8CHTO   O29 3217   5.558   8.410   0.996 -0.3692 -0.0138  0.2975
    8CHTO   C50 3218   5.598   8.291   1.064  0.3281  0.5227  0.1706
    8CHTO   H92 3219   5.696   8.314   1.108  1.2448  1.6285 -2.3345
    8CHTO   C54 3220   5.510   8.255   1.192 -0.1508  0.4720 -0.3450
    8CHTO   O36 3221   5.382   8.192   1.162  0.1660 -0.1082  0.4091
    8CHTO   H72 3222   5.331   8.248   1.106  3.0909  0.7748 -1.4639
    8CHTO   O27 3223   5.337   8.390   0.959 -0.3403  0.5057 -0.1778
    8CHTO   C37 3224   5.232   8.474   1.019  0.5598 -0.3981 -0.6144
    8CHTO   H79 3225   5.158   8.406   1.064  1.8219 -0.3683  1.5803
    8CHTO   C38 3226   5.283   8.566   1.136  0.2674 -0.1316  0.3268
    8CHTO   H80 3227   5.381   8.609   1.113  0.5464 -2.2475 -2.6603
    8CHTO   O31 3228   5.292   8.481   1.255 -0.1831  0.5323 -0.2313
    8CHTO   H68 3229   5.384   8.463   1.259 -0.3312 -0.5252 -1.2766
    8CHTO   C39 3230   5.194   8.691   1.174 -0.4312 -0.3243 -0.2751
    8CHTO   H81 3231   5.112   8.652   1.234 -0.1801 -0.1187  0.1978
    8CHTO    N7 3232   5.250   8.795   1.256 -0.0775  0.3637  0.0136
    8CHTO   H73 3233   5.328   8.858   1.215  1.0026 -1.9708 -1.6819
    8CHTO   H74 3234   5.269   8.765   1.358  0.9256 -1.6950 -0.7483
    8CHTO   C40 3235   5.140   8.753   1.041 -0.6401 -0.0133 -0.6049
    8CHTO   H82 3236   5.223   8.803   0.991 -0.2169  0.1127  0.2170
    8CHTO   O26 3237   5.077   8.654   0.961  0.2058 -0.3270  0.2729
    8CHTO   C41 3238   5.168   8.553   0.911 -0.3075  0.4237  0.3875
    8CHTO   H83 3239   5.238   8.601   0.840 -2.4079  1.8470 -0.7637
    8CHTO   C52 3240   5.084   8.481   0.811  0.2693 -0.1880 -0.8195
    8CHTO   O35 3241   4.957   8.430   0.876  0.2456 -0.2545  0.1358
    8CHTO   H71 3242   4.886   8.465   0.826  0.5245 -0.6760 -0.5660
    8CHTO   O28 3243   5.042   8.852   1.058  0.1000 -0.2979  0.1164
    8CHTO   C42 3244   4.994   8.953   0.962 -0.6042  0.2800  0.0318
    8CHTO   H84 3245   4.909   8.995   1.016  1.1939 -0.2308  3.4273
    8CHTO   C44 3246   4.940   8.905   0.818 -0.6944 -0.5890 -0.8794
    8CHTO   H86 3247   5.022   8.866   0.758 -0.5802 -0.2803 -0.9261
    8CHTO   O32 3248   4.852   8.794   0.848 -0.2000 -0.9380 -0.1913
    8CHTO   H69 3249   4.820   8.748   0.773 -0.5122 -1.3549  0.1902
    8CHTO   C48 3250   4.875   9.030   0.742 -0.7123 -0.7977  0.0954
    8CHTO   H90 3251   4.793   9.066   0.804 -1.0680 -0.8452 -0.3411
    8CHTO    N9 3252   4.806   8.990   0.621  0.0017 -0.1339  0.1696
    8CHTO   H77 3253   4.721   9.051   0.594 -0.1973 -1.0628 -1.3689
    8CHTO   H78 3254   4.863   8.964   0.533 -0.3864  1.7122 -0.6468
    8CHTO   C51 3255   4.989   9.140   0.715 -0.1359  0.9247 -0.4318
    8CHTO   H93 3256   5.056   9.091   0.644 -0.1478 -0.2365  0.3440
    8CHTO   O30 3257   5.060   9.179   0.841 -0.1090  0.0787  0.2219
    8CHTO   C46 3258   5.105   9.060   0.946 -0.5410 -0.6106 -0.1762
    8CHTO   H88 3259   5.194   9.011   0.906  0.1646  0.3334  0.1974
    8CHTO   C53 3260   5.138   9.120   1.088  0.5950 -0.1901  0.2323
    8CHTO   O72 3261   5.241   9.220   1.076 -0.1957  0.4514  0.1123
    8CHTO  H199 3262   5.322   9.175   1.089 -0.2266  0.4156  0.1789
    8CHTO   O22 3263   4.935   9.264   0.663  0.0647 -0.1707 -0.5563
    8CHTO   C31 3264   4.995   9.355   0.563 -0.2097  0.1144  0.2824
    8CHTO   H59 3265   4.915   9.429   0.542 -0.2401 -0.1238 -0.4832
    8CHTO   C29 3266   5.118   9.434   0.610 -0.2921  0.3680  0.0130
    8CHTO   H57 3267   5.189   9.354   0.636 -1.1431 -0.9963 -1.7703
    8CHTO   O21 3268   5.087   9.501   0.729  0.4427 -0.4600  0.3568
    8CHTO   H37 3269   5.159   9.545   0.771 -2.0135  2.5192  1.6767
    8CHTO   C27 3270   5.187   9.524   0.498  0.1834 -0.7325 -0.1880
    8CHTO   H55 3271   5.111   9.598   0.467 -0.5168 -2.1694 -2.0774
    8CHTO    N5 3272   5.321   9.589   0.527  0.2450  0.6159  0.1812
    8CHTO   H43 3273   5.358   9.643   0.441  2.4084 -2.5813 -0.9725
    8CHTO   H44 3274   5.398   9.522   0.561 -0.6735  0.3075  1.6930
    8CHTO   C25 3275   5.201   9.422   0.378 -0.7539 -0.3154  0.2414
    8CHTO   H53 3276   5.273   9.343   0.404 -1.3675 -1.4253 -1.3944
    8CHTO   O17 3277   5.073   9.375   0.339 -0.1841 -0.5617 -0.1361
    8CHTO   C32 3278   5.020   9.280   0.431  0.3698 -0.5505  0.1451
    8CHTO   H60 3279   5.095   9.203   0.451  0.1442 -0.6600  0.5792
    8CHTO   C36 3280   4.892   9.233   0.369 -0.4836  0.5372 -0.0791
    8CHTO   O25 3281   4.915   9.138   0.265  0.4340 -0.0648  0.4243
    8CHTO   H40 3282   4.973   9.183   0.207 -0.1138  0.4019  0.2439
    8CHTO   O15 3283   5.255   9.495   0.250  0.3725 -0.3296  0.4688
    8CHTO   C19 3284   5.316   9.483   0.119  0.0580 -0.3422 -0.2415
    8CHTO   H47 3285   5.237   9.446   0.052 -2.4762  3.6306  0.4353
    8CHTO   C20 3286   5.368   9.619   0.070 -0.2591  0.1450 -0.3661
    8CHTO   H48 3287   5.434   9.666   0.144  1.4571 -2.0090 -0.4788
    8CHTO   O19 3288   5.263   9.707   0.049  0.1228  0.0467  0.2874
    8CHTO   H35 3289   5.219   9.719   0.130  0.3715 -0.6744  0.5387
    8CHTO   C21 3290   5.440   9.612  -0.068  0.0660 -0.0714 -0.3104
    8CHTO   H49 3291   5.362   9.587  -0.140  1.6422 -0.8070 -1.8036
    8CHTO    N4 3292   5.504   9.733  -0.124  0.4334  0.4230 -0.3109
    8CHTO   H41 3293   5.603   9.721  -0.166  0.6064  1.0537 -0.0950
    8CHTO   H42 3294   5.507   9.817  -0.056 -1.9881  0.5292 -0.3026
    8CHTO   C22 3295   5.546   9.495  -0.057 -0.1986  0.5309  0.0407
    8CHTO   H50 3296   5.622   9.525   0.015 -0.4086 -0.1971  0.5768
    8CHTO   O14 3297   5.489   9.376  -0.009  0.1255  0.1583  0.4799
    8CHTO   C23 3298   5.425   9.377   0.118  0.7938 -0.4806 -0.2779
    8CHTO   H51 3299   5.498   9.397   0.198  1.4940 -1.5290 -0.6414
    8CHTO   C34 3300   5.365   9.238   0.147  0.2127 -0.3521  0.5081
    8CHTO   O23 3301   5.468   9.147   0.183  0.4259 -0.3341 -0.4138
    8CHTO   H38 3302   5.466   9.134   0.276 -0.1351 -0.9955 -0.5133
    8CHTO   O16 3303   5.606   9.455  -0.182 -0.8329  0.2743  0.3893
    8CHTO   C24 3304   5.759   9.418  -0.167 -0.1858  0.3876  0.2138
    8CHTO   H52 3305   5.796   9.426  -0.065  1.7978  1.2090 -0.5263
    8CHTO   C26 3306   5.843   9.512  -0.261  0.3480 -0.7310 -0.4160
    8CHTO   H54 3307   5.800   9.502  -0.363 -0.4240 -2.0128  0.0239
    8CHTO   O20 3308   5.837   9.647  -0.207  0.0021 -0.5731  0.4508
    8CHTO   H36 3309   5.860   9.713  -0.269  1.9706 -0.9799  0.7066
    8CHTO   C30 3310   5.995   9.469  -0.258  0.3256  0.0701  0.2130
    8CHTO   H58 3311   6.033   9.479  -0.156 -0.7661  1.0551  0.5336
    8CHTO    N6 3312   6.082   9.554  -0.343  0.0105  0.2461  0.2613
    8CHTO   H45 3313   6.167   9.592  -0.287  0.3214 -1.0829  0.7097
    8CHTO   H46 3314   6.027   9.637  -0.385 -0.0228  0.4276  0.6595
    8CHTO   C33 3315   5.999   9.317  -0.303 -0.2090  0.2445  0.5095
    8CHTO   H61 3316   5.949   9.307  -0.401 -0.4433  0.4827  0.6022
    8CHTO   O18 3317   5.915   9.248  -0.208 -0.6976 -0.5118 -0.3323
    8CHTO   C28 3318   5.778   9.278  -0.212 -0.3651  0.1156 -0.1793
    8CHTO   H56 3319   5.730   9.264  -0.309  0.9568 -0.2077 -0.7996
    8CHTO   C35 3320   5.709   9.167  -0.127  0.1832 -0.1111  0.5072
    8CHTO   O24 3321   5.721   9.031  -0.180  0.2574  0.0169 -0.3333
    8CHTO   H39 3322   5.669   9.015  -0.257  0.5374 -0.5332 -0.4067
    8CHTO    O9 3323   6.132   9.261  -0.311  0.8924  0.5875  0.0832
    8CHTO   C13 3324   6.156   9.159  -0.423 -0.3245  0.3243  0.0284
    8CHTO   H26 3325   6.135   9.214  -0.518 -0.6963  1.3226  0.6841
    8CHTO   C11 3326   6.057   9.037  -0.402 -0.1370 -0.1378  0.2616
    8CHTO   H24 3327   5.956   9.077  -0.418  0.4835  1.1693 -0.5291
    8CHTO    O8 3328   6.074   8.982  -0.273  0.3393  0.1410 -0.1835
    8CHTO    H3 3329   6.073   9.054  -0.212 -0.9293 -0.0688  0.0454
    8CHTO    C9 3330   6.089   8.937  -0.513  0.1471 -0.4104 -0.4062
    8CHTO   H22 3331   6.080   8.999  -0.604  3.0832 -0.6148 -0.8869
    8CHTO    N2 3332   5.979   8.837  -0.522  0.1303 -0.0194  0.3850
    8CHTO   H10 3333   6.013   8.756  -0.585 -0.5500 -0.9206  1.1551
    8CHTO   H11 3334   5.886   8.877  -0.560 -1.0408 -1.5500  1.6026
    8CHTO    C7 3335   6.237   8.885  -0.508  0.9030 -0.1174 -0.3343
    8CHTO   H20 3336   6.250   8.821  -0.598 -0.1930 -0.8766  0.0347
    8CHTO    O4 3337   6.329   8.996  -0.514  0.0927  0.1580 -0.1877
    8CHTO   C14 3338   6.310   9.110  -0.426  0.9731 -0.1777  0.5023
    8CHTO   H27 3339   6.362   9.197  -0.471 -0.5797  1.7815  2.3781
    8CHTO   C18 3340   6.364   9.083  -0.285 -0.2492 -0.1767  0.0970
    8CHTO   O13 3341   6.507   9.087  -0.275  0.9266  0.3232  0.0520
    8CHTO    H7 3342   6.529   9.140  -0.201 -0.0947 -0.2448  0.7919
    8CHTO    O2 3343   6.282   8.788  -0.361  0.4668  0.1254  0.6424
    8CHTO    C1 3344   6.344   8.657  -0.390 -0.6431  0.2463  0.0193
    8CHTO   H14 3345   6.380   8.611  -0.296  2.5742  0.9156 -0.8131
    8CHTO    C2 3346   6.470   8.656  -0.491  0.2393  0.3533 -0.3797
    8CHTO   H15 3347   6.426   8.700  -0.582  0.6011  0.7649 -0.3558
    8CHTO    O6 3348   6.568   8.742  -0.437  0.5064 -0.2147 -0.4617
    8CHTO    H1 3349   6.627   8.710  -0.372  0.7496 -0.3648 -0.7561
    8CHTO    C3 3350   6.522   8.510  -0.519  0.0004 -0.3623  0.5375
    8CHTO   H16 3351   6.565   8.464  -0.428  0.3213 -2.4687 -0.6498
    8CHTO    N1 3352   6.634   8.523  -0.625 -0.0299 -0.0945  0.4173
    8CHTO    H8 3353   6.667   8.435  -0.677  0.7805  0.4026  0.0868
    8CHTO    H9 3354   6.615   8.604  -0.694  1.1019  0.0003  0.2022
    8CHTO    C4 3355   6.400   8.423  -0.567 -0.4893 -0.5126 -0.2446
    8CHTO   H17 3356   6.376   8.440  -0.672 -0.1735 -2.5650 -0.6767
    8CHTO    O1 3357   6.288   8.431  -0.479 -0.0880  0.3532 -0.1745
    8CHTO    C5 3358   6.235   8.559  -0.441  0.4815 -0.6841 -0.8033
    8CHTO   H18 3359   6.194   8.601  -0.532  1.1578 -0.2222 -0.8972
    8CHTO   C16 3360   6.118   8.543  -0.340  0.3239 -0.3718  0.5391
    8CHTO   O11 3361   6.170   8.476  -0.229  0.4209  0.3874 -0.1127
    8CHTO    H5 3362   6.098   8.435  -0.186  1.6003  1.2365  2.8122
    8CHTO    O3 3363   6.433   8.279  -0.557  0.5143  0.4450 -0.2057
    8CHTO    C6 3364   6.361   8.194  -0.649 -0.3943 -0.8555  0.2441
    8CHTO   H19 3365   6.277   8.246  -0.695  0.2305 -0.0122  0.0658
    8CHTO    C8 3366   6.451   8.156  -0.769  0.3826  0.5977  0.3034
    8CHTO   H21 3367   6.547   8.121  -0.731  0.9937  0.1498 -1.5941
    8CHTO    O7 3368   6.473   8.275  -0.847  0.1920 -0.5061 -0.4938
    8CHTO    H2 3369   6.519   8.341  -0.799 -0.9771 -1.7218  2.3759
    8CHTO   C12 3370   6.390   8.044  -0.861 -0.2481  0.0548  0.2430
    8CHTO   H25 3371   6.329   8.097  -0.937 -0.6033 -1.1677 -0.3482
    8CHTO    N3 3372   6.493   7.982  -0.954  0.1257  0.2329  0.5574
    8CHTO   H12 3373   6.441   7.944  -1.041  0.5661  1.4954 -0.2877
    8CHTO   H13 3374   6.541   7.899  -0.906 -2.2100 -0.9463  0.8819
    8CHTO   C15 3375   6.296   7.939  -0.786  0.0180  0.7203  0.1877
    8CHTO   H28 3376   6.356   7.860  -0.740 -0.2419  0.4056 -0.0095
    8CHTO   O10 3377   6.197   7.869  -0.887  0.0420  0.4296 -0.1287
    8CHTO    H4 3378   6.237   7.791  -0.919  2.6299  1.3016  0.8724
    8CHTO    O5 3379   6.219   8.006  -0.680  0.1559 -0.1073  0.0527
    8CHTO   C10 3380   6.304   8.068  -0.582 -0.0842 -0.7103  0.5164
    8CHTO   H23 3381   6.381   7.997  -0.552  0.2980 -0.0075  1.2213
    8CHTO   C17 3382   6.210   8.096  -0.467  0.6623 -0.6595  0.0875
    8CHTO   O12 3383   6.290   8.098  -0.347 -0.2796  0.5629  0.3959
    8CHTO    H6 3384   6.236   8.144  -0.286 -0.6423  0.9654 -0.2284
    9CHTO  H203 3385   7.585   3.454   0.458 -2.0070  0.7254  1.0946
    9CHTO   O82 3386   7.623   3.532   0.493  0.4033 -0.0927  0.4183
    9CHTO  C123 3387   7.654   3.615   0.370  0.3289  0.0515 -0.6385
    9CHTO  H227 3388   7.690   3.714   0.401 -0.5738  0.5340 -1.0999
    9CHTO   O77 3389   7.767   3.542   0.309 -0.0731 -0.4729 -0.0663
    9CHTO  C118 3390   7.816   3.581   0.178 -0.1925 -0.2974 -0.4089
    9CHTO  H222 3391   7.844   3.688   0.185 -0.1571 -0.4074  1.2598
    9CHTO  C125 3392   7.939   3.494   0.158  0.1566 -0.5263  0.2027
    9CHTO   O84 3393   8.039   3.573   0.084 -0.4573 -0.0235 -0.0093
    9CHTO  H205 3394   8.066   3.653   0.125 -2.0997  2.0391 -2.7312
    9CHTO  C114 3395   7.697   3.567   0.080 -0.4325 -0.8539 -0.0172
    9CHTO  H218 3396   7.657   3.466   0.090 -0.6144 -0.6667  1.2633
    9CHTO  C116 3397   7.578   3.659   0.121  0.4978  0.7139  0.5822
    9CHTO  H220 3398   7.618   3.762   0.107 -0.9784  1.2188  0.0558
    9CHTO   O79 3399   7.462   3.639   0.035 -0.7273 -0.4080 -0.1062
    9CHTO  H201 3400   7.473   3.673  -0.052  0.9040 -0.0577  0.2321
    9CHTO  C120 3401   7.535   3.636   0.272 -0.8222  0.5490 -0.0522
    9CHTO  H224 3402   7.470   3.546   0.277 -0.6581  0.5301  2.3194
    9CHTO   N21 3403   7.442   3.741   0.325  0.2212  0.3473  0.3606
    9CHTO  H211 3404   7.509   3.821   0.353  1.4250 -1.0880  1.6023
    9CHTO  H212 3405   7.370   3.774   0.251  0.3384  0.0903  0.1292
    9CHTO   O75 3406   7.739   3.605  -0.052  0.3458  0.6395 -0.1873
    9CHTO  C112 3407   7.655   3.527  -0.186  1.1285 -0.3118 -0.5006
    9CHTO  H216 3408   7.546   3.536  -0.174  1.4860 -0.4586  3.4446
    9CHTO   O73 3409   7.698   3.390  -0.189 -0.0749  0.5588 -0.2523
    9CHTO  C113 3410   7.630   3.313  -0.285  0.1596 -0.2300  0.1795
    9CHTO  H217 3411   7.522   3.333  -0.271  0.6283  1.3515  1.7025
    9CHTO  C124 3412   7.651   3.164  -0.265 -0.1506  0.3785  0.1744
    9CHTO   O83 3413   7.581   3.108  -0.158  0.2261  0.5345  0.7633
    9CHTO  H204 3414   7.591   3.014  -0.159  1.6480  0.6822 -1.0647
    9CHTO  C109 3415   7.682   3.358  -0.426 -1.2240 -0.3711  0.5467
    9CHTO  H213 3416   7.790   3.339  -0.427 -1.0765  0.5317 -1.9347
    9CHTO  C110 3417   7.657   3.516  -0.447  0.4861 -0.1914 -0.0960
    9CHTO  H214 3418   7.550   3.526  -0.465  0.2495  0.6140  1.6367
    9CHTO   O78 3419   7.714   3.559  -0.572 -0.5247 -0.1133  0.3702
    9CHTO  H200 3420   7.805   3.538  -0.572 -0.2059  1.2064 -0.2250
    9CHTO  C111 3421   7.701   3.597  -0.319  0.1522 -0.5473 -0.8199
    9CHTO  H215 3422   7.811   3.600  -0.316  0.1422  3.0441 -0.7386
    9CHTO   N19 3423   7.665   3.740  -0.327  0.2586  0.2559 -0.1088
    9CHTO  H207 3424   7.753   3.801  -0.314  1.9242 -1.5337 -2.4546
    9CHTO  H208 3425   7.625   3.765  -0.424  1.5726  0.0595 -0.7135
    9CHTO   O74 3426   7.619   3.283  -0.531 -0.2723 -0.1676  0.7171
    9CHTO  C115 3427   7.725   3.172  -0.616 -0.7020 -0.0189  0.5825
    9CHTO  H219 3428   7.799   3.129  -0.548  0.0845 -0.6633 -0.6685
    9CHTO   O76 3429   7.648   3.055  -0.668 -0.4117 -0.3108 -0.0538
    9CHTO  C122 3430   7.688   2.965  -0.774  0.5871  0.2589 -0.6424
    9CHTO  H226 3431   7.606   2.904  -0.812  1.7126 -1.5561 -0.2648
    9CHTO  C126 3432   7.795   2.861  -0.714 -0.8221  0.0073 -0.1574
    9CHTO   O85 3433   7.820   2.762  -0.817 -0.2677 -0.5678 -0.2049
    9CHTO  H206 3434   7.865   2.689  -0.777 -0.7284 -1.1217 -0.6893
    9CHTO  C121 3435   7.759   3.056  -0.887 -0.0450  0.1086 -0.0649
    9CHTO  H225 3436   7.868   3.037  -0.896 -0.1339  0.5136 -2.1941
    9CHTO   O81 3437   7.707   3.011  -1.018 -0.4082 -0.3353 -0.6034
    9CHTO  H202 3438   7.625   2.965  -1.018 -1.1697  0.9900 -1.9354
    9CHTO  C119 3439   7.745   3.210  -0.861  0.5617  0.2202  0.4348
    9CHTO  H223 3440   7.793   3.255  -0.947  1.2563 -1.1495  0.0860
    9CHTO  C117 3441   7.800   3.258  -0.722  0.4334 -0.4118 -0.1560
    9CHTO  H221 3442   7.776   3.362  -0.702 -0.0736 -0.3692 -0.9432
    9CHTO   N20 3443   7.955   3.251  -0.712 -1.0701 -0.1221  0.1447
    9CHTO  H209 3444   8.002   3.195  -0.633  0.9116 -0.6739 -1.3908
    9CHTO  H210 3445   7.996   3.351  -0.716  0.3589 -0.7447 -1.3013
    9CHTO   O80 3446   7.596   3.247  -0.884  0.3959  0.0698  0.1856
    9CHTO  C103 3447   7.565   3.346  -0.966  1.0942  0.0200  0.3946
    9CHTO  H190 3448   7.611   3.436  -0.925  3.2467 -0.9229  0.1017
    9CHTO  C101 3449   7.585   3.325  -1.125  0.7519 -0.1242 -0.4984
    9CHTO  H188 3450   7.548   3.225  -1.148  0.6242 -0.2733  0.3341
    9CHTO   O68 3451   7.745   3.347  -1.166  0.2206  0.3632  0.3377
    9CHTO  H168 3452   7.808   3.283  -1.139  0.7839  0.9215  0.3669
    9CHTO   C99 3453   7.497   3.435  -1.203  0.0937 -0.1103  0.3215
    9CHTO  H186 3454   7.538   3.534  -1.172  0.3535 -0.4474  1.0488
    9CHTO   N17 3455   7.506   3.422  -1.348 -0.3665  0.4031  0.3579
    9CHTO  H174 3456   7.408   3.411  -1.393 -0.0718  0.2978 -0.2672
    9CHTO  H175 3457   7.541   3.518  -1.384 -0.7188 -0.1931 -1.6178
    9CHTO   C97 3458   7.351   3.441  -1.163  0.1478 -0.2977 -0.1091
    9CHTO  H184 3459   7.292   3.358  -1.202 -1.0214 -0.0426  1.0734
    9CHTO   O64 3460   7.336   3.454  -1.019 -0.3729 -0.7980  0.2132
    9CHTO  C104 3461   7.409   3.358  -0.934 -0.3728 -0.0541  0.1708
    9CHTO  H191 3462   7.366   3.258  -0.942  0.9938 -0.6322 -0.1113
    9CHTO  C108 3463   7.398   3.394  -0.785  0.5797 -0.0115  0.6138
    9CHTO   O71 3464   7.261   3.393  -0.738 -0.1024  0.0524 -0.4541
    9CHTO  H171 3465   7.230   3.305  -0.732  1.0419 -0.3763 -0.6788
    9CHTO   O62 3466   7.295   3.569  -1.206  0.5953  0.4345 -0.9270
    9CHTO   C91 3467   7.166   3.563  -1.275  0.0563 -0.3022  0.2931
    9CHTO  H178 3468   7.175   3.502  -1.365 -2.9119 -0.1044 -0.1942
    9CHTO   C92 3469   7.140   3.709  -1.327 -0.3755 -0.4869 -0.5771
    9CHTO  H179 3470   7.238   3.745  -1.362  0.5785 -3.0501 -0.6831
    9CHTO   O66 3471   7.055   3.709  -1.446 -0.3174  0.4751 -0.4563
    9CHTO  H166 3472   7.064   3.790  -1.494  0.1158  1.5259  1.3426
    9CHTO   C93 3473   7.072   3.807  -1.226 -0.7161  0.2826 -0.4561
    9CHTO  H180 3474   7.030   3.886  -1.290 -1.1169  1.0824  0.7646
    9CHTO   N16 3475   7.165   3.868  -1.131  0.7363 -0.3748 -0.2543
    9CHTO  H172 3476   7.228   3.935  -1.186 -1.5424  1.3644 -0.8164
    9CHTO  H173 3477   7.222   3.787  -1.087  1.9460  0.6532  0.0935
    9CHTO   C94 3478   6.953   3.735  -1.154  0.4743 -0.3256 -0.3395
    9CHTO  H181 3479   6.956   3.739  -1.046 -2.0469 -1.3527 -0.1797
    9CHTO   O61 3480   6.932   3.595  -1.189  0.2255  0.0582  0.5458
    9CHTO   C95 3481   7.049   3.514  -1.179 -0.0486 -0.6822  0.1441
    9CHTO  H182 3482   7.088   3.526  -1.078  0.4116  0.2455 -0.1411
    9CHTO  C106 3483   7.007   3.363  -1.208  0.1053 -0.6131  0.0673
    9CHTO   O69 3484   6.922   3.323  -1.104 -0.5198  0.2176 -0.2321
    9CHTO  H169 3485   6.938   3.236  -1.075 -0.1932  0.3108 -0.1255
    9CHTO   O63 3486   6.819   3.807  -1.184  0.2775  0.0283 -0.0887
    9CHTO   C96 3487   6.720   3.819  -1.070 -0.5880 -0.0516  0.0482
    9CHTO  H183 3488   6.775   3.869  -0.991  0.9950  0.4861 -1.3567
    9CHTO   C98 3489   6.654   3.684  -1.029  0.6961  0.0840  0.5113
    9CHTO  H185 3490   6.642   3.626  -1.122  1.4210  0.1005  0.4079
    9CHTO   O67 3491   6.749   3.610  -0.951 -0.0994  0.1089  0.3094
    9CHTO  H167 3492   6.832   3.621  -0.993 -0.6205 -1.1885 -1.0894
    9CHTO  C102 3493   6.515   3.693  -0.941  0.1393  1.5825  0.4599
    9CHTO  H189 3494   6.547   3.712  -0.838  0.0801  0.9598  0.5939
    9CHTO   N18 3495   6.437   3.568  -0.931  0.0131  0.6389 -0.5144
    9CHTO  H176 3496   6.492   3.481  -0.900 -2.3219 -0.1012  1.7574
    9CHTO  H177 3497   6.400   3.540  -1.029 -0.4334 -1.4098  0.2226
    9CHTO  C105 3498   6.430   3.819  -0.974 -0.2786  0.4051  0.4716
    9CHTO  H192 3499   6.372   3.800  -1.064  1.0615  0.3805 -0.4025
    9CHTO   O65 3500   6.519   3.934  -0.992 -0.0334 -0.5540  0.3075
    9CHTO  C100 3501   6.610   3.923  -1.103  0.2698  0.0433 -0.3833
    9CHTO  H187 3502   6.547   3.886  -1.185  1.4854 -1.1172 -0.8065
    9CHTO  C107 3503   6.658   4.065  -1.140 -0.1022  0.0472  0.2111
    9CHTO   O70 3504   6.537   4.134  -1.176  0.2081 -0.3381  0.6921
    9CHTO  H170 3505   6.516   4.096  -1.259  2.1840  0.3546 -0.1375
    9CHTO   O57 3506   6.328   3.851  -0.846 -0.4186  0.2604 -0.3129
    9CHTO   C85 3507   6.209   3.934  -0.848 -0.4861  0.3968  0.6456
    9CHTO  H157 3508   6.150   3.874  -0.921 -0.3064  1.1904 -0.1562
    9CHTO   C83 3509   6.246   4.069  -0.914  0.5798 -0.1912 -0.2216
    9CHTO  H155 3510   6.290   4.044  -1.011  0.2869  0.5612 -0.5530
    9CHTO   O56 3511   6.358   4.132  -0.845 -0.3798 -0.8558  0.5297
    9CHTO  H135 3512   6.331   4.183  -0.772 -0.8291  2.7304 -1.9906
    9CHTO   C81 3513   6.116   4.149  -0.934 -0.1986 -0.5527  0.0337
    9CHTO  H153 3514   6.046   4.085  -0.987  0.8371 -1.1718 -0.6109
    9CHTO   N14 3515   6.129   4.267  -1.026 -0.7302  0.5198 -0.2637
    9CHTO  H141 3516   6.062   4.252  -1.108  0.2237  0.8721 -1.1185
    9CHTO  H142 3517   6.104   4.359  -0.977  0.5164  0.0994  1.2023
    9CHTO   C79 3518   6.060   4.182  -0.794 -0.1476  0.3610 -0.1314
    9CHTO  H151 3519   5.963   4.228  -0.810  0.0572  0.4747 -1.0536
    9CHTO   O52 3520   6.031   4.066  -0.711 -0.1888  0.4526  0.1422
    9CHTO   C86 3521   6.127   3.956  -0.710  0.1668 -0.0444 -0.7912
    9CHTO  H158 3522   6.196   3.986  -0.629 -0.0770  0.3672 -0.7406
    9CHTO   C90 3523   6.051   3.826  -0.660 -0.8015  0.0963  0.2250
    9CHTO   O60 3524   5.940   3.784  -0.744  0.7527  0.0587 -1.0784
    9CHTO  H138 3525   5.861   3.791  -0.695  0.9775  2.6410 -1.0372
    9CHTO   O50 3526   6.149   4.264  -0.709 -0.0690  0.4810  0.2905
    9CHTO   C73 3527   6.192   4.363  -0.615  0.5189  0.0406  0.4308
    9CHTO  H145 3528   6.104   4.385  -0.554  1.2821  1.8424  0.9389
    9CHTO   C74 3529   6.237   4.491  -0.692  0.4279 -0.4509  0.2651
    9CHTO  H146 3530   6.150   4.529  -0.747 -1.1670  0.9897  3.6257
    9CHTO   O54 3531   6.274   4.588  -0.594  0.5580 -0.0457 -0.4045
    9CHTO  H133 3532   6.335   4.566  -0.526  0.3594 -1.5990 -0.7079
    9CHTO   C75 3533   6.360   4.461  -0.780  0.7124 -0.2265  0.2066
    9CHTO  H147 3534   6.333   4.382  -0.850 -0.2450 -0.9803  1.4100
    9CHTO   N13 3535   6.408   4.571  -0.863  0.2032 -0.1218 -0.3314
    9CHTO  H139 3536   6.410   4.663  -0.806  1.1175  0.1105 -0.7325
    9CHTO  H140 3537   6.345   4.593  -0.948 -0.3883  1.5508  0.5153
    9CHTO   C76 3538   6.477   4.398  -0.686  0.2030 -0.3257  0.3665
    9CHTO  H148 3539   6.522   4.479  -0.627 -3.4429  2.1532 -0.1364
    9CHTO   O49 3540   6.426   4.298  -0.596 -0.7473 -0.0824 -0.2411
    9CHTO   C77 3541   6.309   4.321  -0.516  0.1651 -0.7080 -0.2792
    9CHTO  H149 3542   6.333   4.400  -0.444 -0.3382 -0.2820 -0.5755
    9CHTO   C88 3543   6.261   4.203  -0.430 -0.4694  0.3510 -0.4641
    9CHTO   O58 3544   6.348   4.152  -0.323  0.2910  0.5263 -0.5941
    9CHTO  H136 3545   6.397   4.075  -0.344  0.2665  0.7747 -1.5536
    9CHTO   O51 3546   6.593   4.336  -0.778  0.1103  0.5169 -0.1810
    9CHTO   C78 3547   6.741   4.305  -0.690 -0.0735 -0.3868 -0.2019
    9CHTO  H150 3548   6.716   4.307  -0.582 -2.1408 -2.1626 -0.6002
    9CHTO   C80 3549   6.844   4.419  -0.720  0.1130  0.2467 -0.0145
    9CHTO  H152 3550   6.863   4.417  -0.830 -1.1746 -0.4851 -0.2438
    9CHTO   O55 3551   6.780   4.543  -0.688 -0.2136  0.1551 -0.4104
    9CHTO  H134 3552   6.742   4.544  -0.603 -0.0739 -0.2235 -0.3477
    9CHTO   C84 3553   6.984   4.381  -0.649 -0.0736  0.7145  0.7225
    9CHTO  H156 3554   6.964   4.381  -0.541 -1.2147 -0.1245  0.5143
    9CHTO   N15 3555   7.085   4.487  -0.685 -0.0766 -0.6250 -0.3268
    9CHTO  H143 3556   7.077   4.593  -0.683  0.6722 -0.4338 -3.7878
    9CHTO  H144 3557   7.187   4.455  -0.686  0.0273 -0.3300  0.6464
    9CHTO   C87 3558   7.025   4.236  -0.692  0.4163 -0.4070  0.2040
    9CHTO  H159 3559   7.049   4.222  -0.797 -0.9542  1.2114 -0.3306
    9CHTO   O53 3560   6.902   4.130  -0.654  0.2692 -0.2564 -0.0379
    9CHTO   C82 3561   6.788   4.164  -0.729  0.0064  0.2684  0.3086
    9CHTO  H154 3562   6.798   4.158  -0.838  0.4437 -0.1973  0.3706
    9CHTO   C89 3563   6.673   4.070  -0.697 -0.8823 -0.2737  0.0481
    9CHTO   O59 3564   6.714   3.930  -0.724 -0.3442 -0.0578  0.5242
    9CHTO  H137 3565   6.796   3.906  -0.685  0.3898  0.0861 -0.9094
    9CHTO   O45 3566   7.167   4.199  -0.616 -0.4925 -0.2287 -0.1037
    9CHTO   C67 3567   7.183   4.064  -0.580 -0.1382  0.2406 -0.5406
    9CHTO  H124 3568   7.086   4.036  -0.541  0.2171  1.2016  1.0975
    9CHTO   C65 3569   7.224   3.973  -0.704  0.7173  0.7026  0.2442
    9CHTO  H122 3570   7.245   4.041  -0.786  2.1366 -0.5400 -0.4538
    9CHTO   O44 3571   7.109   3.900  -0.756 -0.1343  0.5170  0.3940
    9CHTO  H102 3572   7.039   3.962  -0.764 -0.4868  0.5065  2.9976
    9CHTO   C63 3573   7.355   3.884  -0.677  0.2634 -0.2508  1.0104
    9CHTO  H120 3574   7.439   3.953  -0.663  0.2688  0.6261 -2.7914
    9CHTO   N11 3575   7.392   3.787  -0.786  0.1403  0.0909  0.4939
    9CHTO  H108 3576   7.301   3.742  -0.820  0.5581 -0.1948 -0.2634
    9CHTO  H109 3577   7.445   3.839  -0.864 -0.0935 -3.6560 -2.2880
    9CHTO   C61 3578   7.338   3.810  -0.536 -0.1812 -0.0308  0.1953
    9CHTO  H118 3579   7.433   3.759  -0.516 -0.7808 -1.2421  0.0340
    9CHTO   O40 3580   7.314   3.893  -0.433  0.4219  0.1779 -0.3682
    9CHTO   C68 3581   7.278   4.044  -0.458  0.1330 -0.6895 -0.2142
    9CHTO  H125 3582   7.372   4.100  -0.478  0.6044 -1.8508 -1.2674
    9CHTO   C72 3583   7.212   4.108  -0.330  0.1261 -0.7976  0.3080
    9CHTO   O48 3584   7.245   4.251  -0.319  0.8415 -0.0840  0.2800
    9CHTO  H105 3585   7.170   4.307  -0.312  2.0081  1.1955  3.0278
    9CHTO   O38 3586   7.235   3.706  -0.545 -0.0668 -0.0980  0.1713
    9CHTO   C55 3587   7.161   3.652  -0.442  0.2380 -0.6532 -0.0452
    9CHTO  H112 3588   7.099   3.730  -0.394  0.2480 -0.7057  0.0543
    9CHTO   C56 3589   7.260   3.575  -0.332  0.0300 -0.4117  0.3807
    9CHTO  H113 3590   7.330   3.510  -0.386  1.9763  0.1345  2.1856
    9CHTO   O42 3591   7.346   3.672  -0.267  0.2520  0.1636  0.0474
    9CHTO  H100 3592   7.289   3.729  -0.219  1.9870  0.4534  1.8467
    9CHTO   C57 3593   7.170   3.499  -0.224  0.0800  0.3921  0.5126
    9CHTO  H114 3594   7.134   3.576  -0.157 -0.5644  1.7829 -1.3840
    9CHTO   N10 3595   7.243   3.394  -0.156  0.0503  0.4562 -0.4066
    9CHTO  H106 3596   7.318   3.444  -0.097  1.8218  0.8299 -2.8816
    9CHTO  H107 3597   7.295   3.329  -0.226  3.6730 -0.6048  3.0835
    9CHTO   C58 3598   7.047   3.432  -0.284  0.4847  0.3920 -0.1087
    9CHTO  H115 3599   7.074   3.337  -0.335 -0.2120  0.3038 -0.3212
    9CHTO   O37 3600   6.978   3.515  -0.381  0.0863  0.1222  0.0135
    9CHTO   C59 3601   7.062   3.540  -0.496  0.0816 -0.0426 -0.2646
    9CHTO  H116 3602   7.121   3.454  -0.527  0.3012  0.2789 -0.7483
    9CHTO   C70 3603   6.975   3.595  -0.610  0.6729 -0.2531 -0.1708
    9CHTO   O46 3604   7.032   3.581  -0.740 -0.3930 -0.0166 -0.0338
    9CHTO  H103 3605   7.125   3.590  -0.734  0.0520 -3.2739 -0.7296
    9CHTO   O39 3606   6.933   3.399  -0.156  0.6632 -0.9021 -0.0209
    9CHTO   C60 3607   6.826   3.316  -0.200 -0.1341 -0.7586 -0.0886
    9CHTO  H117 3608   6.778   3.358  -0.288 -0.9690  1.1133  1.1997
    9CHTO   C62 3609   6.875   3.176  -0.237 -0.2583  0.7710 -0.2509
    9CHTO  H119 3610   6.940   3.175  -0.327 -0.7336 -1.6919 -0.6051
    9CHTO   O43 3611   6.957   3.114  -0.133 -0.4948 -0.2439  0.6439
    9CHTO  H101 3612   7.010   3.170  -0.080 -0.4995 -0.2180  0.6205
    9CHTO   C66 3613   6.749   3.086  -0.285  0.3634 -0.7929  0.0526
    9CHTO  H123 3614   6.716   3.122  -0.383  0.2395  1.1450  0.7849
    9CHTO   N12 3615   6.777   2.945  -0.310 -0.1247 -0.0051  0.4584
    9CHTO  H110 3616   6.684   2.890  -0.307  1.1400 -2.4318 -2.0859
    9CHTO  H111 3617   6.844   2.902  -0.237  1.4511  0.2634 -0.7944
    9CHTO   C69 3618   6.623   3.101  -0.186 -0.0499  0.0470  0.3659
    9CHTO  H126 3619   6.631   3.048  -0.088  1.3439  1.1683  0.8914
    9CHTO   O41 3620   6.611   3.241  -0.157  0.1052  0.2596  0.6965
    9CHTO   C64 3621   6.716   3.312  -0.095 -0.4399 -0.0207 -0.7227
    9CHTO  H121 3622   6.747   3.245  -0.012 -1.1785 -0.4273 -0.7654
    9CHTO   C71 3623   6.676   3.454  -0.057 -0.1094 -0.3996  0.1488
    9CHTO   O47 3624   6.595   3.468   0.059 -0.6344  0.2163 -0.0075
    9CHTO  H104 3625   6.637   3.524   0.121  0.5417 -0.5501 -0.0985
    9CHTO   O34 3626   6.488   3.050  -0.256 -0.1223 -0.2121 -0.5422
    9CHTO   C49 3627   6.325   3.065  -0.244  0.7970  1.2601  0.2520
    9CHTO   H91 3628   6.292   3.091  -0.345  1.4965 -0.5423 -0.4621
    9CHTO   C47 3629   6.285   3.179  -0.153  0.0712 -0.6136  0.2589
    9CHTO   H89 3630   6.175   3.185  -0.166  0.2056  0.2246 -0.5197
    9CHTO   O33 3631   6.358   3.302  -0.191 -0.3169 -0.1585 -0.4258
    9CHTO   H70 3632   6.331   3.379  -0.145  0.4979  0.0002 -0.2091
    9CHTO   C45 3633   6.318   3.142   0.003 -0.4867 -0.5834 -0.8826
    9CHTO   H87 3634   6.413   3.193   0.026 -1.5623  0.5764  1.1929
    9CHTO    N8 3635   6.209   3.193   0.095 -0.5884 -0.3479  0.3662
    9CHTO   H75 3636   6.250   3.254   0.174 -0.3248  0.1716 -0.1759
    9CHTO   H76 3637   6.153   3.107   0.131 -0.2545 -0.5122  0.4887
    9CHTO   C43 3638   6.364   2.987   0.018 -0.7228  0.2775 -0.2508
    9CHTO   H85 3639   6.468   2.975  -0.013 -0.5178  0.8785  0.2096
    9CHTO   O29 3640   6.278   2.904  -0.061  0.2525 -0.3234  0.8462
    9CHTO   C50 3641   6.251   2.938  -0.196  0.1033 -0.3478 -0.1850
    9CHTO   H92 3642   6.291   2.857  -0.260 -1.2514 -0.7996 -0.4891
    9CHTO   C54 3643   6.102   2.936  -0.226 -0.1439 -0.6464  0.3704
    9CHTO   O36 3644   6.051   2.806  -0.225  0.6377 -0.1599 -0.1417
    9CHTO   H72 3645   6.043   2.781  -0.315  0.7930 -0.7805  0.0138
    9CHTO   O27 3646   6.366   2.952   0.155 -0.5139  0.0090 -0.5608
    9CHTO   C37 3647   6.468   2.930   0.251  0.0847 -0.4760  0.6237
    9CHTO   H79 3648   6.420   2.888   0.340  0.3943 -0.2307  0.9084
    9CHTO   C38 3649   6.567   2.817   0.204 -0.5235 -0.5344 -0.2615
    9CHTO   H80 3650   6.581   2.823   0.095  0.7267 -1.5685 -0.1594
    9CHTO   O31 3651   6.507   2.691   0.229  0.0215 -0.2440  0.1786
    9CHTO   H68 3652   6.521   2.630   0.159  0.4111  2.2231 -1.9824
    9CHTO   C39 3653   6.714   2.830   0.270  0.7444 -0.4143 -0.3676
    9CHTO   H81 3654   6.701   2.787   0.369 -0.9578  1.3196  0.2068
    9CHTO    N7 3655   6.821   2.748   0.206 -0.1301 -0.3636  0.4811
    9CHTO   H73 3656   6.840   2.663   0.269  1.1210 -0.0907  0.4969
    9CHTO   H74 3657   6.781   2.705   0.116 -0.9803 -0.5067  0.9251
    9CHTO   C40 3658   6.757   2.978   0.310  0.1523 -0.3459  0.4977
    9CHTO   H82 3659   6.780   3.031   0.217  1.3551  0.7945  1.4164
    9CHTO   O26 3660   6.652   3.042   0.384 -0.1229 -0.1817  0.6371
    9CHTO   C41 3661   6.541   3.061   0.292  0.7389  0.2506  0.7746
    9CHTO   H83 3662   6.565   3.123   0.204  0.4739 -1.2316 -0.3690
    9CHTO   C52 3663   6.442   3.144   0.372 -0.2377 -0.7833  0.5192
    9CHTO   O35 3664   6.479   3.279   0.391  0.1360  0.4765  0.3654
    9CHTO   H71 3665   6.517   3.312   0.312 -1.4327  1.3330 -0.0338
    9CHTO   O28 3666   6.867   2.986   0.406  0.2282  0.4064 -0.1979
    9CHTO   C42 3667   6.916   3.118   0.451  0.3872 -0.2541 -0.2939
    9CHTO   H84 3668   7.016   3.092   0.485  0.2718 -1.1545 -0.6222
    9CHTO   C44 3669   6.837   3.178   0.578  0.1530  0.3004  0.5269
    9CHTO   H86 3670   6.731   3.187   0.555  0.3255 -1.5421 -1.1228
    9CHTO   O32 3671   6.849   3.075   0.670  0.2667 -0.4795  0.4490
    9CHTO   H69 3672   6.819   3.099   0.755 -2.2557  2.1170 -1.0660
    9CHTO   C48 3673   6.894   3.321   0.615 -0.5624 -0.0161 -0.9437
    9CHTO   H90 3674   7.001   3.313   0.634 -0.9186  1.5999  2.1551
    9CHTO    N9 3675   6.827   3.376   0.740 -0.2181 -0.1837 -0.0654
    9CHTO   H77 3676   6.722   3.352   0.747 -0.5589  1.2714 -0.0854
    9CHTO   H78 3677   6.832   3.483   0.734 -1.5884 -0.1359 -0.6062
    9CHTO   C51 3678   6.869   3.406   0.484  0.1789  0.4046 -0.0929
    9CHTO   H93 3679   6.766   3.387   0.454 -1.0665  3.4143  1.9186
    9CHTO   O30 3680   6.967   3.356   0.390  0.3113  0.1240 -0.4148
    9CHTO   C46 3681   6.928   3.223   0.344 -0.3830  0.2684  0.1081
    9CHTO   H88 3682   6.831   3.231   0.295 -0.5772 -0.2913  0.3909
    9CHTO   C53 3683   7.034   3.182   0.231 -0.0635  0.1677  0.0691
    9CHTO   O72 3684   7.018   3.272   0.120  0.2454 -0.3060 -0.1606
    9CHTO  H199 3685   6.940   3.248   0.074 -0.4904 -0.8114  1.3084
    9CHTO   O22 3686   6.894   3.548   0.490  0.0120  0.1438 -0.0897
    9CHTO   C31 3687   6.887   3.644   0.378 -0.2556  0.0014 -0.3887
    9CHTO   H59 3688   6.895   3.744   0.427  0.3355  0.3139 -1.1297
    9CHTO   C29 3689   7.004   3.638   0.271  0.5934 -0.5026 -0.0388
    9CHTO   H57 3690   6.992   3.541   0.221  0.5269 -2.3174  3.3229
    9CHTO   O21 3691   7.130   3.631   0.339  0.0160  0.1436  0.0281
    9CHTO   H37 3692   7.209   3.637   0.289 -0.0149  1.2665  0.1158
    9CHTO   C27 3693   6.996   3.758   0.175  0.1886 -0.1414 -0.7652
    9CHTO   H55 3694   6.995   3.851   0.233 -0.0873 -0.4453 -0.2731
    9CHTO    N5 3695   7.099   3.765   0.069 -0.4221  0.8308 -0.4639
    9CHTO   H43 3696   7.143   3.670   0.042 -0.9915  0.1159  1.1057
    9CHTO   H44 3697   7.177   3.833   0.102 -1.3992  1.2341  1.0355
    9CHTO   C25 3698   6.852   3.758   0.105  0.7700  0.7347 -0.0804
    9CHTO   H53 3699   6.846   3.664   0.048 -1.4171  0.6691  0.2270
    9CHTO   O17 3700   6.747   3.748   0.200  0.0175 -0.7969  0.2729
    9CHTO   C32 3701   6.756   3.645   0.301 -0.1035 -0.4981 -0.2029
    9CHTO   H60 3702   6.737   3.547   0.256 -0.5816 -0.5650  0.1381
    9CHTO   C36 3703   6.646   3.668   0.403  0.3495 -0.6359 -0.9569
    9CHTO   O25 3704   6.517   3.666   0.343  0.1491 -0.2056  0.0952
    9CHTO   H40 3705   6.465   3.745   0.348  2.0047  1.2446 -2.4188
    9CHTO   O15 3706   6.837   3.887   0.018  0.5020 -0.5686  0.1158
    9CHTO   C19 3707   6.748   3.903  -0.094  0.2087  0.1106 -0.9551
    9CHTO   H47 3708   6.764   4.007  -0.127 -0.6856  0.3125 -0.7515
    9CHTO   C20 3709   6.777   3.807  -0.213 -0.5173 -0.1495  0.2362
    9CHTO   H48 3710   6.762   3.703  -0.183 -1.4273  0.0615  0.5383
    9CHTO   O19 3711   6.908   3.816  -0.261  0.3104  0.8387  0.0050
    9CHTO   H35 3712   6.943   3.903  -0.271 -0.0929  0.8149 -1.6945
    9CHTO   C21 3713   6.672   3.833  -0.329 -0.1207  0.7659  0.3476
    9CHTO   H49 3714   6.670   3.939  -0.356  1.9019  0.8484  0.4449
    9CHTO    N4 3715   6.696   3.761  -0.458 -0.3619 -0.0312 -0.4847
    9CHTO   H41 3716   6.724   3.807  -0.552 -1.6335 -1.9356 -1.8247
    9CHTO   H42 3717   6.623   3.684  -0.475  0.0490 -0.3321 -0.9161
    9CHTO   C22 3718   6.534   3.797  -0.272 -0.4269  0.3151 -0.5330
    9CHTO   H50 3719   6.546   3.691  -0.250  3.7441  0.6974 -0.4748
    9CHTO   O14 3720   6.505   3.886  -0.163 -0.0343 -0.1229  0.7008
    9CHTO   C23 3721   6.591   3.886  -0.048 -0.3416  0.3958 -0.6388
    9CHTO   H51 3722   6.573   3.792   0.008  1.7313  1.7968  2.5253
    9CHTO   C34 3723   6.559   4.006   0.041 -0.1804  0.1773  0.3463
    9CHTO   O23 3724   6.436   3.974   0.110 -0.4332  0.3182 -0.3444
    9CHTO   H38 3725   6.364   3.949   0.055 -1.2588  1.7904  0.0423
    9CHTO   O16 3726   6.430   3.822  -0.363  0.2072 -0.6462 -0.2292
    9CHTO   C24 3727   6.298   3.718  -0.311  0.6528  0.3442 -0.5188
    9CHTO   H52 3728   6.316   3.667  -0.216 -0.1298 -2.1428 -1.6431
    9CHTO   C26 3729   6.274   3.606  -0.421  0.3746  0.1006  0.9833
    9CHTO   H54 3730   6.259   3.658  -0.519  1.0563 -0.8682  0.3655
    9CHTO   O20 3731   6.391   3.525  -0.448 -0.0523 -0.3834  0.3451
    9CHTO   H36 3732   6.364   3.464  -0.514  2.4400  2.0071 -3.0907
    9CHTO   C30 3733   6.152   3.517  -0.383  0.3263 -0.0699  0.3013
    9CHTO   H58 3734   6.182   3.469  -0.289  1.4207  0.5889  0.2921
    9CHTO    N6 3735   6.119   3.406  -0.479  0.1261  0.3671  0.2779
    9CHTO   H45 3736   6.011   3.407  -0.488  0.1968  2.0708 -0.4327
    9CHTO   H46 3737   6.153   3.311  -0.441 -1.2873 -0.7954 -1.2875
    9CHTO   C33 3738   6.025   3.603  -0.340 -0.6045 -0.2783  0.5325
    9CHTO   H61 3739   5.979   3.651  -0.428 -0.1845  1.0183  1.0030
    9CHTO   O18 3740   6.062   3.706  -0.247 -0.5191 -0.2075  0.2665
    9CHTO   C28 3741   6.164   3.797  -0.294 -0.3762  0.2261  0.4535
    9CHTO   H56 3742   6.143   3.840  -0.392 -0.8506  0.1747  0.5318
    9CHTO   C35 3743   6.174   3.918  -0.206  0.1629 -0.7099 -0.6605
    9CHTO   O24 3744   6.221   3.875  -0.077  0.5398 -0.0274 -0.0923
    9CHTO   H39 3745   6.227   3.952  -0.025  0.5114  0.6780 -1.1105
    9CHTO    O9 3746   5.925   3.515  -0.285  0.3921 -0.0124 -0.0101
    9CHTO   C13 3747   5.782   3.517  -0.385  0.8237  0.4036 -0.3659
    9CHTO   H26 3748   5.812   3.529  -0.491  1.2029 -0.5899 -0.3756
    9CHTO   C11 3749   5.681   3.626  -0.341  0.7549 -0.4946  0.2686
    9CHTO   H24 3750   5.725   3.721  -0.375  1.4972 -0.6176  0.8563
    9CHTO    O8 3751   5.673   3.636  -0.203 -0.6791  0.0550 -0.2917
    9CHTO    H3 3752   5.641   3.553  -0.172  0.5201 -0.2152  0.2316
    9CHTO    C9 3753   5.542   3.597  -0.409  0.5105  0.2755  0.1216
    9CHTO   H22 3754   5.564   3.584  -0.516 -0.7067 -2.5358  0.1536
    9CHTO    N2 3755   5.438   3.700  -0.387 -0.2871 -0.3874  0.4340
    9CHTO   H10 3756   5.482   3.799  -0.389 -1.6368  0.2536  1.6115
    9CHTO   H11 3757   5.373   3.687  -0.303  0.6065  0.8062  1.3337
    9CHTO    C7 3758   5.487   3.452  -0.365 -0.2656 -0.2901 -0.4362
    9CHTO   H20 3759   5.408   3.430  -0.440  0.1491 -1.2355 -0.6095
    9CHTO    O4 3760   5.584   3.349  -0.374  0.1802  0.4514  0.3388
    9CHTO   C14 3761   5.725   3.367  -0.387 -0.7468  0.4223 -0.6122
    9CHTO   H27 3762   5.750   3.322  -0.486 -0.0825  1.1191 -0.7565
    9CHTO   C18 3763   5.790   3.281  -0.279 -0.3328  0.0599  0.0013
    9CHTO   O13 3764   5.757   3.143  -0.291  0.3724  0.3651  0.1541
    9CHTO    H7 3765   5.816   3.088  -0.243  0.3025  1.4718  1.5208
    9CHTO    O2 3766   5.428   3.467  -0.209 -0.2902 -0.3107 -0.2518
    9CHTO    C1 3767   5.337   3.362  -0.161  0.3264  0.1145 -0.0378
    9CHTO   H14 3768   5.347   3.271  -0.224 -0.0702  1.0217 -1.4346
    9CHTO    C2 3769   5.187   3.412  -0.172 -0.6001  0.0413 -0.3641
    9CHTO   H15 3770   5.171   3.504  -0.114  0.7642  0.4270 -0.5817
    9CHTO    O6 3771   5.163   3.436  -0.311 -0.0863 -0.1745 -0.1082
    9CHTO    H1 3772   5.072   3.456  -0.327 -0.2316 -1.6344 -1.1745
    9CHTO    C3 3773   5.090   3.300  -0.110  0.0631  0.0871 -0.5215
    9CHTO   H16 3774   5.111   3.206  -0.162  0.8023 -0.4627  0.7609
    9CHTO    N1 3775   4.944   3.333  -0.140 -0.3494  0.4735 -0.3055
    9CHTO    H8 3776   4.925   3.432  -0.100 -0.6499  0.6704 -0.9378
    9CHTO    H9 3777   4.920   3.324  -0.245 -0.9146 -1.9569  0.0076
    9CHTO    C4 3778   5.130   3.280   0.042 -0.0179 -0.3041  0.2618
    9CHTO   H17 3779   5.123   3.374   0.096 -1.5414 -0.8092  0.9746
    9CHTO    O1 3780   5.271   3.233   0.041  0.3907  0.2211 -0.1092
    9CHTO    C5 3781   5.365   3.325  -0.013  0.7257 -0.0364 -0.2220
    9CHTO   H18 3782   5.355   3.406   0.059 -0.8576  0.6629 -1.1945
    9CHTO   C16 3783   5.501   3.258   0.003  0.0838  0.2132  0.4712
    9CHTO   O11 3784   5.533   3.243   0.142  0.1374 -0.7659 -0.5355
    9CHTO    H5 3785   5.473   3.185   0.185  0.1901 -1.5367 -1.4776
    9CHTO    O3 3786   5.051   3.178   0.116  0.6458  0.0386  0.2994
    9CHTO    C6 3787   5.095   3.145   0.252 -0.1430  0.0907 -0.6700
    9CHTO   H19 3788   5.178   3.208   0.282  0.9253 -0.5854 -2.1202
    9CHTO    C8 3789   4.969   3.175   0.346 -0.2952  0.4230 -0.2438
    9CHTO   H21 3790   4.887   3.105   0.324 -0.4261  0.2282  0.8164
    9CHTO    O7 3791   4.920   3.312   0.319 -0.7677  0.5310 -0.5032
    9CHTO    H2 3792   4.878   3.323   0.236  2.0926  0.6841 -2.0006
    9CHTO   C12 3793   5.026   3.161   0.492 -0.0122  0.4370 -0.6439
    9CHTO   H25 3794   5.105   3.237   0.510 -0.0270  0.6568 -1.4710
    9CHTO    N3 3795   4.916   3.189   0.596  0.1477 -0.1865 -0.2470
    9CHTO   H12 3796   4.850   3.267   0.563 -0.8983 -0.4311  1.2071
    9CHTO   H13 3797   4.967   3.220   0.686 -3.2776  1.3933  1.2479
    9CHTO   C15 3798   5.087   3.021   0.508 -1.0591  0.1682  0.2345
    9CHTO   H28 3799   5.013   2.941   0.503 -3.7209  2.4588  1.9304
    9CHTO   O10 3800   5.171   3.013   0.638 -0.2392 -0.2092 -0.4633
    9CHTO    H4 3801   5.205   2.926   0.645 -1.5670 -0.6852  0.2142
    9CHTO    O5 3802   5.192   2.992   0.413  0.0480  0.2001 -0.2015
    9CHTO   C10 3803   5.143   2.998   0.274  0.4607 -0.4577  0.5566
    9CHTO   H23 3804   5.064   2.925   0.257  0.3224 -0.1128 -0.3062
    9CHTO   C17 3805   5.255   2.949   0.178  0.1569 -0.2631 -0.0492
    9CHTO   O12 3806   5.212   2.929   0.044 -0.1651  0.3783 -0.2649
    9CHTO    H6 3807   5.246   2.854  -0.002 -1.8253 -0.5873  0.0227
   10CHTO  H203 3808   5.479   6.143   2.639 -1.0995  1.0095 -2.3575
   10CHTO   O82 3809   5.414   6.077   2.652  0.5004 -0.1408  0.3050
   10CHTO  C123 3810   5.289   6.137   2.687 -0.6187  0.0885  0.0023
   10CHTO  H227 3811   5.261   6.211   2.610  0.5461 -0.2344 -0.7462
   10CHTO   O77 3812   5.201   6.021   2.672  0.1663  0.1501 -0.2419
   10CHTO  C118 3813   5.060   6.037   2.675 -0.6328  0.1410 -0.1350
   10CHTO  H222 3814   5.033   6.100   2.590 -1.2894 -2.5894 -1.9953
   10CHTO  C125 3815   4.984   5.901   2.654  0.2149 -0.3335  0.0213
   10CHTO   O84 3816   4.976   5.828   2.779  1.4350 -0.1197 -1.0195
   10CHTO  H205 3817   4.936   5.746   2.759  0.7388  0.1128 -0.6006
   10CHTO  C114 3818   5.022   6.109   2.814  0.7247 -0.2808 -0.2056
   10CHTO  H218 3819   5.049   6.042   2.895 -0.0854  1.1394  1.2850
   10CHTO  C116 3820   5.114   6.238   2.842 -0.1330  0.2394 -0.1366
   10CHTO  H220 3821   5.094   6.323   2.774 -0.1933 -1.2287 -1.9921
   10CHTO   O79 3822   5.069   6.288   2.968  0.2242  0.4181  0.6640
   10CHTO  H201 3823   4.991   6.335   2.946 -0.3713 -0.0127  1.8185
   10CHTO  C120 3824   5.268   6.192   2.830 -0.1623 -0.2678 -0.1425
   10CHTO  H224 3825   5.288   6.117   2.910  0.4549 -0.2800 -0.3053
   10CHTO   N21 3826   5.357   6.309   2.861 -0.0390  0.0439 -0.4062
   10CHTO  H211 3827   5.321   6.403   2.821  2.1605  1.4328  0.7491
   10CHTO  H212 3828   5.352   6.321   2.969 -0.9885 -0.1574 -0.4233
   10CHTO   O75 3829   4.883   6.143   2.798  0.3368  1.0611 -0.0393
   10CHTO  C112 3830   4.793   6.135   2.916 -0.4831 -0.2771 -0.2737
   10CHTO  H216 3831   4.840   6.187   3.000 -0.3787 -2.3263  0.9748
   10CHTO   O73 3832   4.781   6.001   2.942 -0.0737  0.3042 -0.0041
   10CHTO  C113 3833   4.714   5.974   3.068 -0.0405 -0.3742  0.8036
   10CHTO  H217 3834   4.771   6.027   3.146  0.4546 -1.0631  0.9170
   10CHTO  C124 3835   4.729   5.823   3.100 -0.3007 -0.2235 -0.0586
   10CHTO   O83 3836   4.692   5.745   2.993 -0.0312 -0.4044 -0.3221
   10CHTO  H204 3837   4.599   5.735   3.001 -0.3081  2.1255  0.0382
   10CHTO  C109 3838   4.566   6.026   3.061  0.4696 -0.7674  0.5758
   10CHTO  H213 3839   4.507   5.970   2.987 -0.9543  1.7037 -0.2233
   10CHTO  C110 3840   4.566   6.183   3.026 -0.1708  1.0954 -0.4753
   10CHTO  H214 3841   4.618   6.227   3.110 -1.6439  0.1827  0.9386
   10CHTO   O78 3842   4.435   6.237   3.011  0.3927 -0.3301 -0.2334
   10CHTO  H200 3843   4.376   6.189   2.956  1.2176 -0.5383 -0.9434
   10CHTO  C111 3844   4.656   6.199   2.898  0.7130  0.1078  0.8395
   10CHTO  H215 3845   4.611   6.146   2.813 -0.0357  2.5562 -0.3328
   10CHTO   N19 3846   4.672   6.346   2.851  0.0540 -0.5322  0.1324
   10CHTO  H207 3847   4.741   6.392   2.920  0.6228 -0.2577 -0.6175
   10CHTO  H208 3848   4.576   6.395   2.853 -0.3972 -1.4381  1.5855
   10CHTO   O74 3849   4.521   6.002   3.199  0.2217  0.1344 -0.0232
   10CHTO  C115 3850   4.373   5.988   3.201  0.3640 -0.3708 -0.6023
   10CHTO  H219 3851   4.325   6.046   3.123 -0.1851 -1.1873 -0.8769
   10CHTO   O76 3852   4.334   5.836   3.176  0.3644  0.3648  0.0854
   10CHTO  C122 3853   4.396   5.749   3.274 -0.3174 -0.7413  0.6527
   10CHTO  H226 3854   4.505   5.761   3.271 -0.3486 -0.6404 -0.2449
   10CHTO  C126 3855   4.377   5.601   3.231  0.6835  0.6555  0.4168
   10CHTO   O85 3856   4.437   5.516   3.329 -0.0949 -0.3389 -0.4040
   10CHTO  H206 3857   4.385   5.510   3.407  2.9726  1.8400  1.9136
   10CHTO  C121 3858   4.329   5.774   3.418 -1.0065  0.6397  0.2862
   10CHTO  H225 3859   4.265   5.684   3.427  0.8332 -0.6427  1.0202
   10CHTO   O81 3860   4.430   5.769   3.519  0.9659 -0.3433 -0.3607
   10CHTO  H202 3861   4.498   5.829   3.497 -0.4300  0.8210 -1.6516
   10CHTO  C119 3862   4.246   5.903   3.416 -0.5058 -0.2873 -0.0477
   10CHTO  H223 3863   4.161   5.885   3.350 -0.7592  2.1005 -0.4408
   10CHTO  C117 3864   4.325   6.021   3.350  0.6389 -1.0130  0.3301
   10CHTO  H221 3865   4.414   6.052   3.405 -0.1895  1.0351  0.5967
   10CHTO   N20 3866   4.238   6.145   3.345  0.0157 -0.2372  0.8296
   10CHTO  H209 3867   4.164   6.153   3.423  0.1742 -0.0598  0.9585
   10CHTO  H210 3868   4.297   6.233   3.365 -3.7313  2.4067  0.7912
   10CHTO   O80 3869   4.175   5.929   3.553  0.1093 -0.5641  0.1575
   10CHTO  C103 3870   4.053   5.822   3.600  0.0420  0.4725 -0.2936
   10CHTO  H190 3871   4.024   5.757   3.517 -1.0519  1.2701 -0.5505
   10CHTO  C101 3872   4.088   5.726   3.716  0.0093 -0.3183 -0.5335
   10CHTO  H188 3873   4.124   5.783   3.802  2.2330 -0.5718 -1.2761
   10CHTO   O68 3874   4.201   5.651   3.667 -0.1640 -0.0226 -0.1214
   10CHTO  H168 3875   4.246   5.603   3.733  2.6788  0.8372 -1.3445
   10CHTO   C99 3876   3.954   5.649   3.762 -0.0089 -0.1176 -0.2897
   10CHTO  H186 3877   3.918   5.587   3.678 -2.6766 -0.7744  1.2680
   10CHTO   N17 3878   3.972   5.556   3.880 -0.1209 -0.2210  0.5074
   10CHTO  H174 3879   4.062   5.498   3.867 -1.9168 -3.0228  0.0697
   10CHTO  H175 3880   3.879   5.502   3.892  0.0064 -0.7880 -0.9297
   10CHTO   C97 3881   3.837   5.748   3.800 -0.8205 -0.2755 -0.0284
   10CHTO  H184 3882   3.874   5.804   3.887 -0.4150  0.9375 -0.9608
   10CHTO   O64 3883   3.815   5.833   3.683 -0.2128  0.2469  0.1169
   10CHTO  C104 3884   3.927   5.917   3.645  0.2326  0.0467  0.5478
   10CHTO  H191 3885   3.957   5.971   3.735 -0.5177  0.9691  0.2457
   10CHTO  C108 3886   3.882   6.026   3.543 -0.4280  0.1239 -0.5479
   10CHTO   O71 3887   3.813   6.124   3.616 -0.0330 -0.7486  0.2425
   10CHTO  H171 3888   3.755   6.078   3.674 -0.2034 -0.9355 -0.0728
   10CHTO   O62 3889   3.709   5.683   3.813 -0.4615 -0.7231  0.8645
   10CHTO   C91 3890   3.629   5.682   3.936  0.0566 -0.4518  0.8488
   10CHTO  H178 3891   3.697   5.677   4.021 -0.9125 -0.5383  1.6236
   10CHTO   C92 3892   3.543   5.544   3.941 -0.5994  0.2416  0.9147
   10CHTO  H179 3893   3.486   5.537   3.847 -1.8074  0.7298  1.5955
   10CHTO   O66 3894   3.647   5.438   3.937 -0.3388 -0.2755  0.2149
   10CHTO  H166 3895   3.679   5.424   3.849 -0.5749  2.7041 -0.3843
   10CHTO   C93 3896   3.456   5.546   4.075 -0.1104  0.5869 -0.1502
   10CHTO  H180 3897   3.524   5.533   4.161 -1.7676 -1.5040  0.9087
   10CHTO   N16 3898   3.355   5.443   4.076 -1.2084  0.4108  0.1492
   10CHTO  H172 3899   3.396   5.344   4.090 -0.6571  0.4971 -0.8503
   10CHTO  H173 3900   3.303   5.437   3.982 -0.5083 -1.0608 -0.1514
   10CHTO   C94 3901   3.382   5.685   4.093  0.2472  0.5982 -0.5363
   10CHTO  H181 3902   3.323   5.714   4.005 -1.1548  2.6908  1.0391
   10CHTO   O61 3903   3.476   5.791   4.091  0.0464  0.4124  0.3042
   10CHTO   C95 3904   3.532   5.803   3.966  0.0725  0.9235 -0.3300
   10CHTO  H182 3905   3.457   5.799   3.887  1.1755 -0.7138 -1.3316
   10CHTO  C106 3906   3.607   5.933   3.952  0.3142 -0.3773  0.0918
   10CHTO   O69 3907   3.523   6.042   3.971  0.0491 -0.1246 -0.5817
   10CHTO  H169 3908   3.581   6.116   3.974 -0.1772  0.0177  0.4667
   10CHTO   O63 3909   3.298   5.689   4.235 -0.1851  0.1732 -0.1232
   10CHTO   C96 3910   3.393   5.713   4.382  0.0174  0.1324  0.0218
   10CHTO  H183 3911   3.496   5.719   4.345 -0.0664 -0.0553 -0.2392
   10CHTO   C98 3912   3.395   5.597   4.481  0.1608 -0.7428 -0.0404
   10CHTO  H185 3913   3.289   5.572   4.496  0.4677 -1.0740  1.7153
   10CHTO   O67 3914   3.450   5.488   4.407 -0.5924 -0.2374 -0.1301
   10CHTO  H167 3915   3.382   5.424   4.394 -0.0795 -1.1011  1.3503
   10CHTO  C102 3916   3.475   5.625   4.613  0.3624  0.0283  0.0934
   10CHTO  H189 3917   3.579   5.641   4.580  0.7889  0.7826  1.8053
   10CHTO   N18 3918   3.491   5.518   4.715  0.0758 -0.2020  0.1739
   10CHTO  H176 3919   3.568   5.549   4.784  1.7275 -0.5451 -1.4656
   10CHTO  H177 3920   3.532   5.434   4.661  0.4728  0.9484 -1.3455
   10CHTO  C105 3921   3.421   5.756   4.671  0.0646  0.4890 -0.9734
   10CHTO  H192 3922   3.319   5.745   4.709 -0.0538  2.5385 -0.6457
   10CHTO   O65 3923   3.411   5.860   4.578  0.2526  0.2729 -0.4423
   10CHTO  C100 3924   3.354   5.847   4.452 -0.0156  0.2239 -0.3803
   10CHTO  H187 3925   3.244   5.846   4.455  0.0106 -0.6954  0.6549
   10CHTO  C107 3926   3.392   5.962   4.369  0.1014  0.4016 -0.0451
   10CHTO   O70 3927   3.533   5.976   4.341  0.1438  0.3473  0.2620
   10CHTO  H170 3928   3.544   5.957   4.249  0.4433 -0.4382  0.4532
   10CHTO   O57 3929   3.528   5.794   4.804 -0.1215 -0.5329  0.2082
   10CHTO   C85 3930   3.498   5.887   4.913 -0.4220  0.2155 -0.0438
   10CHTO  H157 3931   3.433   5.960   4.861 -1.2679 -2.2016 -2.5116
   10CHTO   C83 3932   3.630   5.971   4.954  0.0745 -0.0781 -0.1930
   10CHTO  H155 3933   3.668   6.019   4.864 -0.7032 -0.4578 -0.7271
   10CHTO   O56 3934   3.733   5.879   4.987  0.2805 -0.1019  0.5550
   10CHTO  H135 3935   3.749   5.820   4.916 -3.4658 -0.4953 -0.0435
   10CHTO   C81 3936   3.602   6.079   5.061 -0.4445 -0.1826  0.2031
   10CHTO  H153 3937   3.522   6.141   5.020 -0.1994  2.2013  3.1965
   10CHTO   N14 3938   3.719   6.162   5.090  0.3216 -0.4267 -0.1805
   10CHTO  H141 3939   3.700   6.267   5.098 -0.6482 -0.5238 -1.1458
   10CHTO  H142 3940   3.803   6.148   5.024  1.2330 -2.6553  1.4154
   10CHTO   C79 3941   3.549   6.010   5.194 -0.2575  0.4799  0.0095
   10CHTO  H151 3942   3.521   6.089   5.263  0.2751  0.2209  0.5314
   10CHTO   O52 3943   3.423   5.930   5.161  0.2075  0.2651  0.0879
   10CHTO   C86 3944   3.441   5.834   5.048 -0.0821 -0.3395 -0.7395
   10CHTO  H158 3945   3.511   5.758   5.089  2.8727  3.2220  1.0968
   10CHTO   C90 3946   3.309   5.767   5.022  0.3886  0.9959  0.2226
   10CHTO   O60 3947   3.210   5.848   4.953  0.4011 -0.2028 -0.2274
   10CHTO  H138 3948   3.152   5.794   4.903  0.4945  0.5294 -1.1519
   10CHTO   O50 3949   3.634   5.920   5.264  0.6654  0.2121  0.1052
   10CHTO   C73 3950   3.656   5.823   5.370 -0.4248  1.1391 -0.2586
   10CHTO  H145 3951   3.633   5.721   5.337  0.8904  0.6116  0.4030
   10CHTO   C74 3952   3.572   5.853   5.497  0.2990 -0.0058  0.4558
   10CHTO  H146 3953   3.469   5.846   5.457 -0.0683  0.9330  1.2233
   10CHTO   O54 3954   3.586   5.744   5.589 -0.1135 -0.0840  0.2943
   10CHTO  H133 3955   3.605   5.782   5.673  1.8018 -1.1442  0.3572
   10CHTO   C75 3956   3.605   5.994   5.547 -0.4089  0.4238  0.2892
   10CHTO  H147 3957   3.572   6.070   5.475 -0.8823  0.7891  0.8836
   10CHTO   N13 3958   3.527   6.036   5.665  0.4249 -0.1749 -0.1365
   10CHTO  H139 3959   3.421   6.035   5.650  0.2657  0.9592  0.8680
   10CHTO  H140 3960   3.544   5.967   5.747 -2.1285  0.3345  0.8356
   10CHTO   C76 3961   3.761   6.012   5.571  0.6454 -0.3194 -0.4375
   10CHTO  H148 3962   3.789   5.961   5.663  0.2152  1.0031  0.4506
   10CHTO   O49 3963   3.839   5.956   5.465 -0.1694 -0.1438 -0.3157
   10CHTO   C77 3964   3.803   5.828   5.415  0.0096 -0.0383 -0.9996
   10CHTO  H149 3965   3.817   5.750   5.489  0.5839  0.4109 -0.6393
   10CHTO   C88 3966   3.887   5.768   5.300  0.2599  0.3519  0.8008
   10CHTO   O58 3967   4.018   5.734   5.342 -0.1571 -0.2406 -0.7415
   10CHTO  H136 3968   4.074   5.719   5.268  0.5475 -2.1744  0.1454
   10CHTO   O51 3969   3.794   6.139   5.574  0.1995  0.2426  0.0311
   10CHTO   C78 3970   3.952   6.165   5.599  0.4787 -0.2022  0.3271
   10CHTO  H150 3971   4.021   6.084   5.565 -0.3116 -1.2350  1.1497
   10CHTO   C80 3972   3.965   6.182   5.749  0.0367  0.5128 -0.3610
   10CHTO  H152 3973   3.892   6.258   5.783 -1.3994 -1.1927  0.5130
   10CHTO   O55 3974   3.922   6.056   5.814  0.2367  0.6666  0.0192
   10CHTO  H134 3975   3.829   6.055   5.825 -0.0007  0.3647 -1.8844
   10CHTO   C84 3976   4.115   6.210   5.790 -0.3140 -0.3798  0.0750
   10CHTO  H156 3977   4.173   6.122   5.759  0.2102 -0.1041  0.2632
   10CHTO   N15 3978   4.139   6.231   5.934  0.2213 -0.0659 -0.3412
   10CHTO  H143 3979   4.204   6.151   5.965  0.5043 -0.6064 -2.2308
   10CHTO  H144 3980   4.187   6.321   5.964 -3.4077  1.3937  1.3647
   10CHTO   C87 3981   4.174   6.330   5.709 -0.1028  0.7113 -0.2145
   10CHTO  H159 3982   4.134   6.424   5.745 -2.2657 -0.2890  0.1002
   10CHTO   O53 3983   4.136   6.310   5.551  0.0458 -0.0962  0.0992
   10CHTO   C82 3984   3.996   6.286   5.522 -0.3998  0.1526  0.0893
   10CHTO  H154 3985   3.940   6.375   5.550  1.0535  0.6942  1.3394
   10CHTO   C89 3986   3.983   6.261   5.369 -0.0654 -0.2564  0.1082
   10CHTO   O59 3987   4.064   6.148   5.329 -0.4306  0.4339  0.1773
   10CHTO  H137 3988   4.012   6.073   5.306  0.6499  0.2249 -1.6489
   10CHTO   O45 3989   4.328   6.328   5.709 -0.1755  0.2673 -0.0173
   10CHTO   C67 3990   4.392   6.434   5.788 -0.1218 -0.1922 -0.1901
   10CHTO  H124 3991   4.356   6.438   5.890  1.5181 -0.9999  0.4426
   10CHTO   C65 3992   4.547   6.400   5.785 -0.3307  0.2112 -0.8294
   10CHTO  H122 3993   4.550   6.295   5.814  1.7887  0.3792 -0.3277
   10CHTO   O44 3994   4.622   6.482   5.889  0.4849 -0.0127 -0.2977
   10CHTO  H102 3995   4.636   6.569   5.854  1.6711 -0.1019 -0.0763
   10CHTO   C63 3996   4.598   6.404   5.635  0.4301 -0.4202  0.1140
   10CHTO  H120 3997   4.533   6.342   5.574  0.2967  0.3933 -0.5760
   10CHTO   N11 3998   4.731   6.344   5.615  0.5379  1.2748  0.3418
   10CHTO  H108 3999   4.765   6.288   5.700 -0.3927  0.3200  0.0939
   10CHTO  H109 4000   4.801   6.424   5.600  0.1185  2.2710  3.3506
   10CHTO   C61 4001   4.578   6.551   5.574  0.1127  0.4654 -0.0538
   10CHTO  H118 4002   4.589   6.528   5.467  1.2256  2.3224 -0.3495
   10CHTO   O40 4003   4.441   6.594   5.596 -0.1920 -0.0831  0.6336
   10CHTO   C68 4004   4.371   6.580   5.723  0.3393 -0.6894 -0.8122
   10CHTO  H125 4005   4.266   6.594   5.689  0.4439 -0.8292 -1.1947
   10CHTO   C72 4006   4.393   6.690   5.819 -0.3172  0.2609  0.2585
   10CHTO   O48 4007   4.343   6.812   5.769 -0.5313 -0.1177 -0.2205
   10CHTO  H105 4008   4.414   6.855   5.727 -0.1823  0.2704  0.7412
   10CHTO   O38 4009   4.676   6.650   5.620 -0.1240  0.5027  0.1672
   10CHTO   C55 4010   4.724   6.749   5.526  0.3053  0.3385  0.1683
   10CHTO  H112 4011   4.645   6.786   5.458 -1.3765  0.4440  2.1301
   10CHTO   C56 4012   4.856   6.701   5.451  0.0223  0.7478  0.7857
   10CHTO  H113 4013   4.935   6.695   5.527  0.5092 -1.8775  0.1055
   10CHTO   O42 4014   4.844   6.574   5.388 -0.0610  0.1734  0.4159
   10CHTO  H100 4015   4.803   6.514   5.447  0.8199 -0.7474  0.1073
   10CHTO   C57 4016   4.895   6.816   5.343  0.3203 -0.0634 -0.3658
   10CHTO  H114 4017   4.815   6.823   5.269 -0.4635 -0.0990  0.4694
   10CHTO   N10 4018   5.021   6.786   5.272 -0.1886 -0.2268  0.4845
   10CHTO  H106 4019   5.003   6.728   5.182 -0.2217  0.1774  0.2291
   10CHTO  H107 4020   5.084   6.727   5.337  2.1014 -0.6268 -1.9845
   10CHTO   C58 4021   4.915   6.952   5.421  0.2737 -0.0950  0.0733
   10CHTO  H115 4022   5.006   6.950   5.484 -0.4594  2.2143  1.2488
   10CHTO   O37 4023   4.807   6.983   5.506 -0.0041 -0.0731  0.1314
   10CHTO   C59 4024   4.766   6.879   5.593  0.3880 -0.2824  0.4756
   10CHTO  H116 4025   4.848   6.868   5.663 -0.3804 -0.4183  1.3735
   10CHTO   C70 4026   4.651   6.936   5.684 -0.2560 -0.4540 -0.3578
   10CHTO   O46 4027   4.531   6.965   5.614  0.5153 -0.4533 -0.3801
   10CHTO  H103 4028   4.548   7.027   5.545  2.3980 -0.9254 -0.3727
   10CHTO   O39 4029   4.927   7.069   5.312  0.9998 -0.5497  0.7777
   10CHTO   C60 4030   4.977   7.196   5.363 -0.5115 -0.3086  0.1676
   10CHTO  H117 4031   4.937   7.213   5.463 -0.8457 -0.0547 -0.0093
   10CHTO   C62 4032   5.134   7.189   5.367  0.7873 -0.5205 -0.2039
   10CHTO  H119 4033   5.157   7.114   5.445 -1.8895  1.1646  2.3109
   10CHTO   O43 4034   5.181   7.155   5.236 -0.3069 -0.3278  0.4582
   10CHTO  H101 4035   5.273   7.136   5.234  0.3215  2.3838  1.6583
   10CHTO   C66 4036   5.187   7.335   5.415 -0.2950 -0.0275 -0.2619
   10CHTO  H123 4037   5.157   7.355   5.518  1.0982  1.3298 -0.0950
   10CHTO   N12 4038   5.336   7.342   5.413  0.5785  0.1604  0.6716
   10CHTO  H110 4039   5.374   7.440   5.439 -0.5784 -0.1648  3.7951
   10CHTO  H111 4040   5.378   7.268   5.478 -0.4911 -1.5307 -0.5252
   10CHTO   C69 4041   5.128   7.452   5.330  0.5296  0.3278  0.4781
   10CHTO  H126 4042   5.174   7.458   5.229  4.1037 -3.2768  1.7597
   10CHTO   O41 4043   4.971   7.433   5.316 -0.4404 -0.4431 -0.4892
   10CHTO   C64 4044   4.929   7.308   5.271 -0.0317 -0.0931  0.4599
   10CHTO  H121 4045   4.976   7.291   5.172 -1.0765 -1.0275  0.1176
   10CHTO   C71 4046   4.776   7.305   5.250  0.0859  0.4390 -0.3012
   10CHTO   O47 4047   4.713   7.359   5.373 -0.3162 -0.0155  0.5743
   10CHTO  H104 4048   4.621   7.338   5.367  0.1093 -1.7620 -0.1286
   10CHTO   O34 4049   5.169   7.603   5.388  0.2867  0.0463  0.2439
   10CHTO   C49 4050   5.176   7.753   5.389 -0.0822  0.3488 -0.3072
   10CHTO   H91 4051   5.225   7.772   5.484  0.2829  1.9409 -0.8033
   10CHTO   C47 4052   5.030   7.805   5.394  0.4665  0.8765  0.2068
   10CHTO   H89 4053   5.041   7.913   5.418  2.6362  1.0389 -1.3420
   10CHTO   O33 4054   4.967   7.737   5.516 -0.0728 -0.0898 -0.1500
   10CHTO   H70 4055   4.883   7.774   5.535 -0.4495 -1.1432  0.3257
   10CHTO   C45 4056   4.963   7.787   5.249 -0.2653  0.6967 -0.6760
   10CHTO   H87 4057   4.963   7.679   5.227 -1.6147  0.6921 -0.6973
   10CHTO    N8 4058   4.820   7.831   5.244  0.3963 -0.3106 -0.2490
   10CHTO   H75 4059   4.771   7.787   5.159  0.5164 -3.6758  1.3494
   10CHTO   H76 4060   4.821   7.938   5.230  2.2129 -0.3163 -0.2756
   10CHTO   C43 4061   5.054   7.846   5.130 -0.6785 -0.0062  0.6471
   10CHTO   H85 4062   5.008   7.811   5.037  1.6272 -2.0642  0.2146
   10CHTO   O29 4063   5.191   7.799   5.139 -0.0069  0.2348 -0.6248
   10CHTO   C50 4064   5.259   7.808   5.269  1.0790  0.3012  0.4333
   10CHTO   H92 4065   5.357   7.758   5.265  1.4516  1.1093 -0.9832
   10CHTO   C54 4066   5.309   7.949   5.308 -0.0478 -0.4433 -0.1328
   10CHTO   O36 4067   5.415   7.990   5.228  0.2208  0.0470 -0.1332
   10CHTO   H72 4068   5.477   8.014   5.294 -0.1306  2.1048 -0.5270
   10CHTO   O27 4069   5.065   7.990   5.133  0.1386  0.0250  0.0471
   10CHTO   C37 4070   5.089   8.112   5.060  0.2266 -0.2768  0.1781
   10CHTO   H79 4071   5.188   8.149   5.092 -0.6063  0.9476  1.3847
   10CHTO   C38 4072   5.092   8.089   4.907 -0.7137  0.0419  0.0415
   10CHTO   H80 4073   5.005   8.025   4.884 -0.5218 -0.3663  0.4399
   10CHTO   O31 4074   5.216   8.028   4.878 -0.3083 -0.5062 -0.7207
   10CHTO   H68 4075   5.275   8.099   4.865 -0.1687 -0.4311  0.2688
   10CHTO   C39 4076   5.079   8.229   4.832  0.4036 -0.4043  0.0820
   10CHTO   H81 4077   5.176   8.278   4.823 -0.2961  1.3974  1.9317
   10CHTO    N7 4078   5.036   8.203   4.686 -0.1570 -0.3866  0.2275
   10CHTO   H73 4079   4.938   8.158   4.681  0.7288 -2.1802 -2.1597
   10CHTO   H74 4080   5.110   8.143   4.634 -0.6121 -2.0204  1.4226
   10CHTO   C40 4081   4.984   8.344   4.900 -0.2601  0.6903  0.8141
   10CHTO   H82 4082   4.880   8.314   4.883  0.8154 -3.7847  1.3351
   10CHTO   O26 4083   5.014   8.347   5.040  0.0408 -0.0455  0.4842
   10CHTO   C41 4084   4.976   8.219   5.097 -0.2762  0.0444  0.3147
   10CHTO   H83 4085   4.885   8.180   5.049  0.7082 -1.5848 -0.2720
   10CHTO   C52 4086   4.951   8.222   5.247 -0.0495 -0.2890  0.6004
   10CHTO   O35 4087   4.840   8.302   5.278 -0.2457 -0.0574 -0.4440
   10CHTO   H71 4088   4.760   8.262   5.251 -0.2195  0.2119 -0.9406
   10CHTO   O28 4089   4.992   8.477   4.849 -0.6734  0.5280 -0.1868
   10CHTO   C42 4090   4.882   8.578   4.841  0.3261  0.0519  0.1710
   10CHTO   H84 4091   4.800   8.530   4.895 -1.0663  2.7095  0.4997
   10CHTO   C44 4092   4.830   8.621   4.700 -0.1359  0.1308  0.2718
   10CHTO   H86 4093   4.918   8.662   4.649 -0.1703 -1.0772 -0.7886
   10CHTO   O32 4094   4.781   8.499   4.641 -0.2729  0.1637 -0.2789
   10CHTO   H69 4095   4.749   8.507   4.553  1.5568 -1.1643 -1.1150
   10CHTO   C48 4096   4.721   8.734   4.702 -0.5156 -0.7185 -0.8614
   10CHTO   H90 4097   4.631   8.695   4.751 -0.2626  0.5246  0.6273
   10CHTO    N9 4098   4.676   8.783   4.565 -0.2497 -0.0940 -0.1251
   10CHTO   H77 4099   4.578   8.739   4.554 -0.6869  0.7917  0.2165
   10CHTO   H78 4100   4.674   8.891   4.569  0.0115 -0.0634 -0.7577
   10CHTO   C51 4101   4.769   8.859   4.790 -0.1094 -0.4808 -0.3529
   10CHTO   H93 4102   4.855   8.899   4.735  1.3670 -1.7698  0.9787
   10CHTO   O30 4103   4.808   8.813   4.919  0.4115 -0.2224  0.5484
   10CHTO   C46 4104   4.919   8.706   4.926  0.4718 -0.3550 -0.2827
   10CHTO   H88 4105   5.011   8.746   4.881 -0.5779 -0.0208 -2.2090
   10CHTO   C53 4106   4.951   8.682   5.065 -0.3004 -0.3089  0.2482
   10CHTO   O72 4107   4.837   8.647   5.138  0.0611 -0.1544  0.1400
   10CHTO  H199 4108   4.787   8.726   5.149 -1.7171 -0.8273 -2.6945
   10CHTO   O22 4109   4.660   8.948   4.810  0.5368 -0.2336  0.3644
   10CHTO   C31 4110   4.677   9.093   4.823 -0.2672 -0.6624  0.0877
   10CHTO   H59 4111   4.578   9.136   4.849 -1.0932 -0.9546 -2.4306
   10CHTO   C29 4112   4.780   9.144   4.927 -0.2735 -0.4650 -0.7080
   10CHTO   H57 4113   4.877   9.103   4.896  0.5329  0.4238  0.6201
   10CHTO   O21 4114   4.759   9.073   5.051  0.1460  0.0923  0.0356
   10CHTO   H37 4115   4.678   9.099   5.091 -0.5149  1.0075 -1.8127
   10CHTO   C27 4116   4.794   9.300   4.939  0.4278 -0.0020 -0.2974
   10CHTO   H55 4117   4.703   9.345   4.982  1.2252  1.1471  0.2009
   10CHTO    N5 4118   4.902   9.342   5.032  0.0202  0.4370 -0.3221
   10CHTO   H43 4119   4.883   9.448   5.045  0.2688  0.7475 -2.2321
   10CHTO   H44 4120   4.890   9.277   5.117 -1.9872  1.4220  0.1868
   10CHTO   C25 4121   4.815   9.361   4.791  0.0721  0.4358  0.5354
   10CHTO   H53 4122   4.922   9.355   4.767 -0.0161  0.6296  0.1057
   10CHTO   O17 4123   4.727   9.308   4.686  0.1875  0.1899 -0.5268
   10CHTO   C32 4124   4.725   9.163   4.686  0.2341  0.1710 -0.2202
   10CHTO   H60 4125   4.824   9.125   4.661 -1.0108 -2.5824 -1.2109
   10CHTO   C36 4126   4.643   9.121   4.558  0.1822 -0.1367 -0.5714
   10CHTO   O25 4127   4.696   9.164   4.435  0.0900  0.2280  0.4846
   10CHTO   H40 4128   4.680   9.105   4.364 -1.2595  0.3751  0.6529
   10CHTO   O15 4129   4.799   9.496   4.796 -0.5763 -0.2216 -0.2348
   10CHTO   C19 4130   4.835   9.627   4.736  0.1242 -0.7214 -0.2884
   10CHTO   H47 4131   4.748   9.649   4.673  0.4093 -0.5057 -0.6068
   10CHTO   C20 4132   4.842   9.741   4.850 -0.4745  0.3215 -0.7412
   10CHTO   H48 4133   4.919   9.719   4.926 -0.0219  0.8183 -1.0446
   10CHTO   O19 4134   4.724   9.744   4.921  0.5844 -0.4328 -0.1398
   10CHTO   H35 4135   4.729   9.674   4.983  2.5224 -0.7312 -0.6013
   10CHTO   C21 4136   4.872   9.883   4.781 -0.5040  0.3310  0.7580
   10CHTO   H49 4137   4.782   9.917   4.729  0.0902 -0.0352 -0.5191
   10CHTO    N4 4138   4.898   9.977   4.894 -0.4316 -0.6041 -0.6988
   10CHTO   H41 4139   4.836   9.946   4.977  2.3854 -0.3187  1.5847
   10CHTO   H42 4140   5.002   9.975   4.923 -0.0289 -0.6342 -2.0932
   10CHTO   C22 4141   4.984   9.870   4.671  0.2513 -0.2041 -0.2951
   10CHTO   H50 4142   5.079   9.867   4.724  0.7583  0.0722 -1.1664
   10CHTO   O14 4143   4.969   9.765   4.585  0.5542  0.3695 -0.4676
   10CHTO   C23 4144   4.956   9.638   4.646  0.4516  0.0526  0.1675
   10CHTO   H51 4145   5.052   9.613   4.692  0.3633 -0.2170  0.2087
   10CHTO   C34 4146   4.962   9.539   4.527 -0.2537  0.4739 -0.8547
   10CHTO   O23 4147   5.090   9.506   4.463  0.7827 -0.2906 -0.1903
   10CHTO   H38 4148   5.142   9.461   4.526  2.0303  1.5528  0.1423
   10CHTO   O16 4149   4.991   9.986   4.586 -0.0925 -0.4287 -0.3122
   10CHTO   C24 4150   5.136  10.028   4.538  0.6178  0.2966  0.1127
   10CHTO   H52 4151   5.212   9.953   4.560 -1.7464 -1.3600  3.1388
   10CHTO   C26 4152   5.173  10.159   4.614 -0.3944 -0.6552  0.5070
   10CHTO   H54 4153   5.081  10.221   4.614 -0.6451 -0.9355 -2.4568
   10CHTO   O20 4154   5.207  10.140   4.752  0.1765  0.2099 -0.0692
   10CHTO   H36 4155   5.275  10.076   4.757  1.4761  1.4993 -1.0405
   10CHTO   C30 4156   5.286  10.243   4.552 -0.5590 -0.6765  0.2303
   10CHTO   H58 4157   5.381  10.195   4.579  0.8714  2.2102  0.4653
   10CHTO    N6 4158   5.297  10.383   4.605 -0.2486  0.3860  0.4996
   10CHTO   H45 4159   5.284  10.391   4.712 -1.1434  0.8534  0.3616
   10CHTO   H46 4160   5.388  10.430   4.572 -0.3035 -0.4258 -0.8159
   10CHTO   C33 4161   5.272  10.244   4.400  0.2887  0.4547  0.1518
   10CHTO   H61 4162   5.189  10.306   4.365 -0.8023 -1.3674 -0.5798
   10CHTO   O18 4163   5.244  10.113   4.345 -0.3532 -0.1902 -0.3124
   10CHTO   C28 4164   5.128  10.046   4.387 -0.2029 -0.7296 -0.2500
   10CHTO   H56 4165   5.046  10.115   4.363  0.4619  0.4818  0.8603
   10CHTO   C35 4166   5.126   9.903   4.324 -0.4485  0.2832 -0.2105
   10CHTO   O24 4167   5.103   9.913   4.186  0.1823 -0.1722 -1.0124
   10CHTO   H39 4168   5.186   9.920   4.143  1.2021  2.4013  1.2459
   10CHTO    O9 4169   5.379  10.307   4.330 -0.0839  0.3662 -0.3550
   10CHTO   C13 4170   5.481  10.220   4.223 -0.0273 -0.0329  0.1490
   10CHTO   H26 4171   5.418  10.188   4.136 -0.0918 -3.8777  1.4882
   10CHTO   C11 4172   5.540  10.088   4.293 -0.0481 -0.5741 -0.6460
   10CHTO   H24 4173   5.463  10.010   4.302  2.3054 -2.8435  0.5008
   10CHTO    O8 4174   5.569  10.127   4.431 -0.1128  0.3703  0.6026
   10CHTO    H3 4175   5.529  10.064   4.488 -0.9659  0.2843 -0.0784
   10CHTO    C9 4176   5.662  10.034   4.222 -0.1240  1.1318 -0.1784
   10CHTO   H22 4177   5.627   9.996   4.125  0.5353  1.6986 -0.6481
   10CHTO    N2 4178   5.713   9.908   4.283  0.3929 -0.1610  0.1286
   10CHTO   H10 4179   5.795   9.867   4.226  2.6421  0.1111  3.0473
   10CHTO   H11 4180   5.753   9.933   4.381 -1.8211  0.7899  0.7991
   10CHTO    C7 4181   5.773  10.148   4.201  0.4410 -0.1997  0.4202
   10CHTO   H20 4182   5.814  10.137   4.099  0.9696 -0.2036  0.6317
   10CHTO    O4 4183   5.724  10.282   4.214 -0.0119 -0.5009 -0.2506
   10CHTO   C14 4184   5.596  10.316   4.162 -0.4956 -0.2144 -0.5349
   10CHTO   H27 4185   5.594  10.309   4.052 -2.0869  0.5018 -0.5652
   10CHTO   C18 4186   5.568  10.470   4.201  0.1428  0.5489  0.0592
   10CHTO   O13 4187   5.675  10.551   4.153 -0.4681 -0.0587  0.2535
   10CHTO    H7 4188   5.753  10.563   4.204 -0.0024  1.0112 -0.6976
   10CHTO    O2 4189   5.917  10.128   4.321 -0.1497  0.0482  0.0113
   10CHTO    C1 4190   6.043  10.086   4.266  0.5327 -0.2346 -0.0918
   10CHTO   H14 4191   6.124  10.134   4.326  0.6977 -0.7334  0.0856
   10CHTO    C2 4192   6.070  10.116   4.108  1.0188  0.7521 -0.6614
   10CHTO   H15 4193   6.006  10.046   4.052  2.1566 -0.6083 -0.2999
   10CHTO    O6 4194   6.042  10.254   4.078 -0.6405  0.0453 -0.4274
   10CHTO    H1 4195   6.120  10.303   4.099 -0.6244  1.6387 -3.8676
   10CHTO    C3 4196   6.229  10.096   4.088  0.6619 -0.1610 -0.5000
   10CHTO   H16 4197   6.287  10.163   4.154  0.0086  0.9147 -1.0077
   10CHTO    N1 4198   6.274  10.119   3.940 -0.3639  0.5082 -0.2456
   10CHTO    H8 4199   6.362  10.181   3.942 -0.1671  0.2190  3.2868
   10CHTO    H9 4200   6.311  10.025   3.903 -1.0895 -0.3697  1.1713
   10CHTO    C4 4201   6.266   9.951   4.141 -0.5172  0.7320  0.5291
   10CHTO   H17 4202   6.224   9.879   4.071 -0.3930  1.0571  0.1137
   10CHTO    O1 4203   6.211   9.917   4.271 -0.2937 -0.0825 -0.1955
   10CHTO    C5 4204   6.069   9.932   4.285  1.0311 -0.3221 -0.2795
   10CHTO   H18 4205   6.009   9.888   4.205 -0.0580 -2.4102  1.6438
   10CHTO   C16 4206   6.031   9.876   4.413  0.1157  0.1034  0.1218
   10CHTO   O11 4207   6.065   9.736   4.424 -0.3370  0.0524 -0.5534
   10CHTO    H5 4208   6.149   9.701   4.402  0.3603  0.1758  1.7916
   10CHTO    O3 4209   6.409   9.936   4.143  0.2952 -0.6298 -0.0305
   10CHTO    C6 4210   6.469   9.802   4.132  0.2683 -0.7502 -0.6485
   10CHTO   H19 4211   6.398   9.724   4.161  0.9742 -1.0559  0.2783
   10CHTO    C8 4212   6.516   9.774   3.987  0.1991  0.3349 -0.6401
   10CHTO   H21 4213   6.580   9.856   3.957 -0.5290  0.6441 -1.3498
   10CHTO    O7 4214   6.398   9.767   3.906  0.3713 -0.2866  0.3375
   10CHTO    H2 4215   6.358   9.683   3.909  0.0554 -0.1111  1.6896
   10CHTO   C12 4216   6.591   9.637   3.988 -0.7594  0.0648  0.5040
   10CHTO   H25 4217   6.518   9.563   4.027  1.2037 -1.9095  0.5235
   10CHTO    N3 4218   6.632   9.602   3.842  0.2456 -0.2922 -0.2591
   10CHTO   H12 4219   6.541   9.573   3.791  0.1698  1.4659 -1.1379
   10CHTO   H13 4220   6.705   9.523   3.854  0.0087 -0.6758 -1.2816
   10CHTO   C15 4221   6.711   9.648   4.092 -0.2801 -0.3636  0.3259
   10CHTO   H28 4222   6.776   9.733   4.068 -0.3638 -0.3619  0.1050
   10CHTO   O10 4223   6.779   9.523   4.106 -0.1770  0.2140  0.0517
   10CHTO    H4 4224   6.858   9.538   4.155 -0.5462 -0.2278  0.8003
   10CHTO    O5 4225   6.661   9.668   4.226  0.8261 -0.0724  0.0994
   10CHTO   C10 4226   6.587   9.788   4.236  0.6013  0.1660 -0.2499
   10CHTO   H23 4227   6.660   9.867   4.221 -0.0601  0.5306 -1.6853
   10CHTO   C17 4228   6.544   9.808   4.380  0.0234  0.3104  0.2400
   10CHTO   O12 4229   6.657   9.808   4.464  0.1516 -0.0263  0.0152
   10CHTO    H6 4230   6.628   9.825   4.551  1.9172  0.4371  0.5248
   11CHTO  H203 4231   6.901   4.169   0.368 -1.8490 -0.7346  0.5912
   11CHTO   O82 4232   6.895   4.208   0.453  0.1431  0.3658  0.2560
   11CHTO  C123 4233   6.950   4.339   0.460  0.2697  0.2058  0.7380
   11CHTO  H227 4234   7.038   4.342   0.394 -1.2860 -1.2210 -1.4418
   11CHTO   O77 4235   6.847   4.417   0.394  0.0130 -0.1714 -0.1236
   11CHTO  C118 4236   6.854   4.560   0.385 -0.1707 -0.2957 -0.1291
   11CHTO  H222 4237   6.939   4.595   0.325 -0.2419  0.6934  0.3438
   11CHTO  C125 4238   6.722   4.606   0.316 -0.3640  0.7614 -0.0459
   11CHTO   O84 4239   6.695   4.552   0.186 -0.5440 -0.6114  0.6388
   11CHTO  H205 4240   6.605   4.528   0.175 -1.0102  1.4395 -0.2353
   11CHTO  C114 4241   6.861   4.619   0.528  0.3681 -0.6358  0.7367
   11CHTO  H218 4242   6.772   4.584   0.580 -1.4630  2.2467 -0.3275
   11CHTO  C116 4243   6.985   4.557   0.600  0.1974 -0.0550 -0.2984
   11CHTO  H220 4244   7.075   4.593   0.545  0.8620  0.9566  1.4264
   11CHTO   O79 4245   6.985   4.608   0.735  0.4243 -0.2783  0.5212
   11CHTO  H201 4246   6.900   4.615   0.774 -1.4390  1.5530 -3.4966
   11CHTO  C120 4247   6.985   4.395   0.602 -0.0295 -0.1807  0.1540
   11CHTO  H224 4248   6.901   4.368   0.669  0.2795 -0.3962  0.4583
   11CHTO   N21 4249   7.109   4.339   0.652  0.1917 -0.6470 -0.0064
   11CHTO  H211 4250   7.154   4.403   0.727  1.9997 -1.6428 -0.2229
   11CHTO  H212 4251   7.102   4.240   0.695 -0.5931 -0.0084  1.3740
   11CHTO   O75 4252   6.857   4.764   0.515  0.1963 -0.0976  0.0107
   11CHTO  C112 4253   6.747   4.837   0.643  0.3388 -0.4663 -0.3236
   11CHTO  H216 4254   6.792   4.825   0.743 -1.0328 -1.0689  0.2374
   11CHTO   O73 4255   6.625   4.764   0.631 -0.2561 -0.5830 -0.3283
   11CHTO  C113 4256   6.521   4.815   0.722  0.2914  0.6939 -0.0456
   11CHTO  H217 4257   6.563   4.803   0.824 -2.7007 -0.4016  1.0926
   11CHTO  C124 4258   6.400   4.721   0.716 -0.6616 -0.6592 -0.4524
   11CHTO   O83 4259   6.294   4.754   0.812 -1.0501 -0.1726  0.3820
   11CHTO  H204 4260   6.226   4.792   0.758  0.2010  0.5708 -0.7254
   11CHTO  C109 4261   6.491   4.971   0.698  0.5535 -0.2174 -0.4550
   11CHTO  H213 4262   6.464   4.984   0.592 -0.3263  1.5707 -0.0319
   11CHTO  C110 4263   6.614   5.047   0.713 -0.4798 -0.1337 -0.5185
   11CHTO  H214 4264   6.649   5.041   0.816 -0.4360  0.6960 -0.4736
   11CHTO   O78 4265   6.589   5.189   0.689  0.0456 -0.0076  0.3319
   11CHTO  H200 4266   6.669   5.237   0.697 -0.9477  1.7386 -0.0720
   11CHTO  C111 4267   6.724   4.991   0.616  0.3572 -0.5526  0.1150
   11CHTO  H215 4268   6.688   5.009   0.514 -1.2843  3.3234  1.2498
   11CHTO   N19 4269   6.852   5.067   0.630 -0.7236  0.3172 -0.3772
   11CHTO  H207 4270   6.929   5.027   0.565 -0.4771 -2.0113  1.2395
   11CHTO  H208 4271   6.832   5.167   0.596  0.0719 -0.0650 -1.9826
   11CHTO   O74 4272   6.381   5.025   0.782  0.0840  0.3388 -0.5289
   11CHTO  C115 4273   6.267   5.099   0.697  0.0898 -0.2373  0.4266
   11CHTO  H219 4274   6.292   5.101   0.591 -1.9182 -1.5390 -0.1050
   11CHTO   O76 4275   6.116   5.016   0.704 -0.4447  0.1535 -0.1233
   11CHTO  C122 4276   6.079   4.995   0.843 -0.2824  0.4060  0.3189
   11CHTO  H226 4277   6.137   4.914   0.886 -1.9847 -0.1592  1.5900
   11CHTO  C126 4278   5.925   4.950   0.855 -0.3119  0.2762 -0.0342
   11CHTO   O85 4279   5.832   5.045   0.796  0.1085 -0.5331 -0.0977
   11CHTO  H206 4280   5.866   5.047   0.708 -0.4359  0.1312 -0.2916
   11CHTO  C121 4281   6.112   5.124   0.935  0.1477 -0.0983 -0.0222
   11CHTO  H225 4282   6.021   5.133   0.998  1.1183 -3.3925  1.9990
   11CHTO   O81 4283   6.222   5.106   1.025 -0.2693 -0.2915  0.1139
   11CHTO  H202 4284   6.254   5.018   1.025  0.1092 -0.1741  1.8233
   11CHTO  C119 4285   6.118   5.245   0.838  0.1721  0.1429 -0.3804
   11CHTO  H223 4286   6.033   5.239   0.770  0.9647  3.1940 -1.7207
   11CHTO  C117 4287   6.250   5.242   0.751  0.2516 -0.0250 -0.4932
   11CHTO  H221 4288   6.342   5.256   0.808  1.7640  1.0624 -3.1231
   11CHTO   N20 4289   6.252   5.346   0.645 -0.8545  0.0856 -0.2675
   11CHTO  H209 4290   6.155   5.380   0.611 -0.7144  0.5078 -0.2537
   11CHTO  H210 4291   6.317   5.317   0.564 -1.3332 -1.9948  0.0612
   11CHTO   O80 4292   6.094   5.380   0.899 -0.5549  0.4505  0.2273
   11CHTO  C103 4293   6.130   5.406   1.062 -0.1667 -0.5084  0.4996
   11CHTO  H190 4294   6.123   5.315   1.121 -0.4042  0.2385  1.6414
   11CHTO  C101 4295   6.273   5.461   1.096  0.1815  0.1578 -0.2297
   11CHTO  H188 4296   6.311   5.527   1.018  0.7809  1.9034  1.5092
   11CHTO   O68 4297   6.376   5.323   1.107  0.7201  0.3317 -0.6038
   11CHTO  H168 4298   6.380   5.279   1.024 -0.1010 -1.0178  0.0454
   11CHTO   C99 4299   6.268   5.543   1.237  0.5164 -0.0361  0.2980
   11CHTO  H186 4300   6.247   5.469   1.318  1.0380  1.7556  2.1112
   11CHTO   N17 4301   6.399   5.611   1.272  0.1362  0.2755 -0.2752
   11CHTO  H174 4302   6.481   5.541   1.283 -0.4899 -0.1318  2.1410
   11CHTO  H175 4303   6.421   5.691   1.203 -0.2321  0.4458 -0.1904
   11CHTO   C97 4304   6.151   5.640   1.235 -0.4180  0.0341  0.1457
   11CHTO  H184 4305   6.162   5.696   1.141 -2.4552 -0.7954 -0.6292
   11CHTO   O64 4306   6.029   5.562   1.231 -0.4814  0.3171 -0.0001
   11CHTO  C104 4307   6.009   5.500   1.102  0.1107  0.1511  0.1779
   11CHTO  H191 4308   5.988   5.580   1.031 -1.6215 -0.1937  0.2729
   11CHTO  C108 4309   5.878   5.419   1.109 -0.3798 -0.0918 -0.0630
   11CHTO   O71 4310   5.760   5.499   1.100 -0.2335  0.5577  0.5898
   11CHTO  H171 4311   5.726   5.532   1.181 -1.5081  0.5114  0.0854
   11CHTO   O62 4312   6.134   5.735   1.345 -0.0085 -0.4118 -0.3532
   11CHTO   C91 4313   6.046   5.844   1.329  0.0563  0.1637  0.2602
   11CHTO  H178 4314   5.984   5.824   1.241  0.8767  0.8042 -0.4721
   11CHTO   C92 4315   6.124   5.976   1.300  1.0136  0.3769  0.6376
   11CHTO  H179 4316   6.185   5.952   1.211 -0.1467 -0.1266 -0.0303
   11CHTO   O66 4317   6.023   6.069   1.260 -0.7888 -0.6582 -0.4248
   11CHTO  H166 4318   6.048   6.124   1.188 -1.5430 -0.4783 -0.5595
   11CHTO   C93 4319   6.190   6.041   1.425 -0.2285  0.0611 -0.3550
   11CHTO  H180 4320   6.193   6.150   1.409  0.7309 -0.0606 -1.0528
   11CHTO   N16 4321   6.328   5.999   1.453 -0.5645 -0.4125  0.0996
   11CHTO  H172 4322   6.401   6.025   1.377  1.0192 -0.8787  1.4229
   11CHTO  H173 4323   6.366   6.010   1.554 -0.1190  0.5791 -0.1762
   11CHTO   C94 4324   6.094   6.010   1.553  0.0893  0.3539 -0.1972
   11CHTO  H181 4325   6.125   5.919   1.603  0.2273  0.4488 -0.1083
   11CHTO   O61 4326   5.957   5.991   1.518 -0.4677  0.2321 -0.1962
   11CHTO   C95 4327   5.937   5.867   1.454  0.0780 -0.8984 -0.1184
   11CHTO  H182 4328   5.943   5.783   1.524 -0.3563 -3.0026 -2.5377
   11CHTO  C106 4329   5.786   5.872   1.415 -0.2290 -0.2057  0.5858
   11CHTO   O69 4330   5.737   5.751   1.355  0.0267  0.0745  0.1835
   11CHTO  H169 4331   5.718   5.778   1.267 -1.2833  0.3477  0.5482
   11CHTO   O63 4332   6.103   6.132   1.651 -0.1159 -0.6985  0.3437
   11CHTO   C96 4333   6.147   6.109   1.801  0.3160 -0.2689  0.0169
   11CHTO  H183 4334   6.203   6.015   1.800  1.6006  0.4625  0.8401
   11CHTO   C98 4335   6.028   6.089   1.903  0.3937 -0.3961 -0.4484
   11CHTO  H185 4336   5.951   6.164   1.884  1.8856  1.5246  0.8888
   11CHTO   O67 4337   5.974   5.966   1.864 -0.3861 -0.1426  0.5249
   11CHTO  H167 4338   5.900   5.970   1.807 -1.0868  1.3927  1.5012
   11CHTO  C102 4339   6.059   6.091   2.063 -0.3637 -0.1134  0.3765
   11CHTO  H189 4340   6.126   6.006   2.084 -0.3168 -0.5871 -1.5956
   11CHTO   N18 4341   5.938   6.069   2.144  0.1502 -0.5834  0.0583
   11CHTO  H176 4342   5.892   5.975   2.119 -1.9348 -0.3292  2.7619
   11CHTO  H177 4343   5.872   6.149   2.113  1.9136  0.0403 -2.3218
   11CHTO  C105 4344   6.138   6.219   2.082 -0.1781  0.3233  0.2554
   11CHTO  H192 4345   6.077   6.306   2.061  1.1579  1.2805  0.2686
   11CHTO   O65 4346   6.256   6.220   2.001 -0.4225  0.5011 -0.0203
   11CHTO  C100 4347   6.239   6.232   1.859  0.0427 -0.3141  0.1700
   11CHTO  H187 4348   6.184   6.326   1.850  0.1233 -0.4188 -1.5870
   11CHTO  C107 4349   6.380   6.238   1.794  0.0614  0.7077  0.4459
   11CHTO   O70 4350   6.363   6.273   1.658  0.1333  0.0810  0.0806
   11CHTO  H170 4351   6.441   6.276   1.606 -1.2050 -0.5675 -2.0471
   11CHTO   O57 4352   6.192   6.217   2.240 -0.5184 -0.2724 -1.0113
   11CHTO   C85 4353   6.271   6.323   2.297  0.0540 -0.3400 -0.0459
   11CHTO  H157 4354   6.250   6.309   2.405 -0.3928  0.9028  0.0405
   11CHTO   C83 4355   6.219   6.466   2.258 -0.0127  0.3505 -0.4414
   11CHTO  H155 4356   6.113   6.470   2.285 -0.2391 -0.5876 -1.1837
   11CHTO   O56 4357   6.236   6.496   2.125 -0.7632 -0.2561 -0.3483
   11CHTO  H135 4358   6.177   6.457   2.064 -1.0813  1.9174 -1.4946
   11CHTO   C81 4359   6.296   6.568   2.355  0.1112 -0.3013  0.1178
   11CHTO  H153 4360   6.276   6.538   2.458  0.2522 -0.5789  0.0630
   11CHTO   N14 4361   6.243   6.706   2.345  0.4963  0.0460  0.1874
   11CHTO  H141 4362   6.138   6.713   2.364  0.9545 -0.6497  3.2248
   11CHTO  H142 4363   6.294   6.752   2.428  0.2567 -1.8417  1.4277
   11CHTO   C79 4364   6.451   6.560   2.318  0.5195 -0.3215  0.1223
   11CHTO  H151 4365   6.502   6.638   2.376 -0.4732  0.7093 -0.3680
   11CHTO   O52 4366   6.507   6.428   2.334 -0.6712  0.3187  0.0034
   11CHTO   C86 4367   6.434   6.318   2.268 -0.6297 -0.8962 -0.0148
   11CHTO  H158 4368   6.456   6.340   2.161  1.5723 -0.1233  0.5767
   11CHTO   C90 4369   6.512   6.185   2.295 -0.2471 -0.1733  0.6113
   11CHTO   O60 4370   6.425   6.072   2.254 -0.6091  0.1267  0.2441
   11CHTO  H138 4371   6.427   6.070   2.160  2.5345  2.8329  0.1588
   11CHTO   O50 4372   6.490   6.597   2.184 -0.3452  0.3571 -0.1817
   11CHTO   C73 4373   6.571   6.697   2.126 -0.4237 -0.5985  0.6506
   11CHTO  H145 4374   6.557   6.787   2.186 -1.2145 -0.7594  0.7029
   11CHTO   C74 4375   6.517   6.718   1.982 -0.0602 -0.1226 -0.7858
   11CHTO  H146 4376   6.409   6.734   1.997  0.3009 -0.2751  2.1108
   11CHTO   O54 4377   6.584   6.828   1.928 -0.2794  0.6763 -0.8594
   11CHTO  H133 4378   6.574   6.833   1.835 -2.7635 -0.2417 -0.6969
   11CHTO   C75 4379   6.545   6.585   1.898 -0.2669  0.1556  0.2383
   11CHTO  H147 4380   6.470   6.512   1.932 -0.3700  0.7737  1.3839
   11CHTO   N13 4381   6.498   6.603   1.757 -0.0934  0.5185  0.4337
   11CHTO  H139 4382   6.391   6.597   1.744  0.1116 -2.1026 -0.3147
   11CHTO  H140 4383   6.543   6.691   1.714 -1.2992  1.0241  0.1724
   11CHTO   C76 4384   6.698   6.537   1.915 -0.5439  0.1073 -0.4148
   11CHTO  H148 4385   6.767   6.608   1.870 -0.4499 -0.2722 -0.8758
   11CHTO   O49 4386   6.739   6.529   2.051  0.1395 -0.0806 -0.0221
   11CHTO   C77 4387   6.719   6.651   2.128 -0.4201 -0.1631 -0.2242
   11CHTO  H149 4388   6.779   6.731   2.085 -0.3108 -0.1465 -0.0445
   11CHTO   C88 4389   6.789   6.617   2.257  0.5049 -0.0405 -0.5319
   11CHTO   O58 4390   6.803   6.708   2.339 -0.3027 -0.6677 -0.3560
   11CHTO  H136 4391   6.786   6.669   2.423 -1.4104  0.1186 -0.2076
   11CHTO   O51 4392   6.719   6.410   1.854  0.5864 -0.0877  0.1649
   11CHTO   C78 4393   6.862   6.339   1.850 -0.2592  0.1886  0.6653
   11CHTO  H150 4394   6.885   6.296   1.949  1.5102 -1.8459 -0.5873
   11CHTO   C80 4395   6.977   6.438   1.814 -0.2297 -0.3201 -0.1930
   11CHTO  H152 4396   6.950   6.498   1.725  0.4276  1.0633  0.5201
   11CHTO   O55 4397   6.994   6.535   1.922 -0.0381 -0.2934  0.4565
   11CHTO  H134 4398   6.923   6.596   1.917 -0.1244 -0.5034 -1.1734
   11CHTO   C84 4399   7.105   6.356   1.779 -0.2222 -0.1651  0.1945
   11CHTO  H156 4400   7.141   6.311   1.872  2.2313  1.0452 -0.1057
   11CHTO   N15 4401   7.214   6.442   1.735  0.7034 -0.3611  0.0283
   11CHTO  H143 4402   7.164   6.523   1.686  0.5226 -0.0449  0.7292
   11CHTO  H144 4403   7.257   6.478   1.827  1.4940 -2.4405  0.4972
   11CHTO   C87 4404   7.074   6.246   1.675  0.3022  0.5244  0.2519
   11CHTO  H159 4405   7.036   6.282   1.580  1.5279  0.7429 -0.1632
   11CHTO   O53 4406   6.977   6.153   1.734 -0.4288  0.4706  0.3738
   11CHTO   C82 4407   6.849   6.221   1.758 -0.0156 -0.5016 -0.1186
   11CHTO  H154 4408   6.808   6.261   1.665  0.9768 -0.6042 -0.6070
   11CHTO   C89 4409   6.750   6.120   1.815  0.0763 -0.1291  0.3923
   11CHTO   O59 4410   6.794   6.053   1.936 -0.2107  0.5037  0.1631
   11CHTO  H137 4411   6.734   5.987   1.965 -1.0191  0.8786 -0.6423
   11CHTO   O45 4412   7.207   6.144   1.648 -0.4016  0.1525  0.4409
   11CHTO   C67 4413   7.251   6.124   1.511 -0.0873  0.3309  0.5118
   11CHTO  H124 4414   7.179   6.163   1.439  0.7860 -0.0221 -0.5625
   11CHTO   C65 4415   7.392   6.189   1.479  0.2746 -0.2778  0.1501
   11CHTO  H122 4416   7.439   6.210   1.575 -0.6964  0.2462  0.5190
   11CHTO   O44 4417   7.366   6.314   1.409 -0.4167  0.0610  0.2149
   11CHTO  H102 4418   7.401   6.389   1.452  2.4142  0.2414 -2.2230
   11CHTO   C63 4419   7.487   6.085   1.401 -0.0169 -0.5072  0.3091
   11CHTO  H120 4420   7.511   6.004   1.470 -1.3746 -0.8730  0.3788
   11CHTO   N11 4421   7.620   6.134   1.352 -0.2129 -0.2212 -0.4223
   11CHTO  H108 4422   7.673   6.165   1.440 -0.1513  0.7989 -0.8233
   11CHTO  H109 4423   7.614   6.218   1.286 -0.7769 -2.0197 -2.7249
   11CHTO   C61 4424   7.406   6.007   1.290 -0.3996  0.4592  0.1954
   11CHTO  H118 4425   7.474   5.932   1.247 -0.3328  0.8788 -0.4457
   11CHTO   O40 4426   7.291   5.932   1.346  0.0472 -0.3834 -0.2093
   11CHTO   C68 4427   7.252   5.965   1.486  0.8696  0.5560 -0.2275
   11CHTO  H125 4428   7.324   5.913   1.553 -0.7171 -0.8908  0.3761
   11CHTO   C72 4429   7.110   5.904   1.517  0.3585 -0.0228 -0.2407
   11CHTO   O48 4430   7.105   5.761   1.518  0.6526 -0.5038 -0.0736
   11CHTO  H105 4431   7.149   5.731   1.595 -0.5806  0.3968  0.9972
   11CHTO   O38 4432   7.357   6.098   1.188 -0.4015  0.3187  0.2782
   11CHTO   C55 4433   7.311   6.037   1.061  0.4353 -1.0477 -0.4311
   11CHTO  H112 4434   7.287   5.929   1.069 -1.1090 -0.6117  1.1497
   11CHTO   C56 4435   7.424   6.073   0.952  0.2137 -0.0804 -0.4500
   11CHTO  H113 4436   7.428   6.183   0.954 -0.3183 -0.0698  0.8489
   11CHTO   O42 4437   7.552   6.025   0.996 -0.4145  0.3994 -0.0523
   11CHTO  H100 4438   7.621   6.042   0.935  1.2563 -1.8429  1.1589
   11CHTO   C57 4439   7.383   6.022   0.811 -1.1084  0.2089  0.7181
   11CHTO  H114 4440   7.395   5.914   0.806  1.2542  0.4084  1.3193
   11CHTO   N10 4441   7.467   6.076   0.695  0.1183 -0.3003 -0.4675
   11CHTO  H106 4442   7.409   6.089   0.605 -1.1266  0.6377  0.4557
   11CHTO  H107 4443   7.558   6.021   0.675  1.2919  1.6308 -0.4937
   11CHTO   C58 4444   7.233   6.059   0.786  0.2898  0.9285 -0.6870
   11CHTO  H115 4445   7.231   6.163   0.748 -0.9326  0.5013 -1.8190
   11CHTO   O37 4446   7.138   6.043   0.894  0.2998 -0.0731 -0.4826
   11CHTO   C59 4447   7.177   6.100   1.015 -0.2644  0.2160 -0.2514
   11CHTO  H116 4448   7.187   6.207   1.003 -1.9733  0.4230  0.0754
   11CHTO   C70 4449   7.054   6.080   1.109 -0.0236 -0.6243 -0.1698
   11CHTO   O46 4450   7.057   6.162   1.227  0.0988  0.4682 -0.1625
   11CHTO  H103 4451   7.066   6.254   1.210 -0.1922  1.1258  2.8618
   11CHTO   O39 4452   7.176   5.968   0.661 -0.2781 -0.1173 -0.4827
   11CHTO   C60 4453   7.042   6.000   0.615 -0.3214 -0.0336 -0.4123
   11CHTO  H117 4454   6.995   6.055   0.696 -0.3520 -0.6189 -0.0241
   11CHTO   C62 4455   7.044   6.100   0.487 -0.5000  0.2933 -0.1421
   11CHTO  H119 4456   7.082   6.201   0.513  0.1498 -0.1852  0.8025
   11CHTO   O43 4457   7.128   6.038   0.390 -0.3075 -0.1916  0.5405
   11CHTO  H101 4458   7.218   6.050   0.412 -0.8691  0.5729  2.4848
   11CHTO   C66 4459   6.888   6.120   0.448 -0.2030  0.4124  0.1354
   11CHTO  H123 4460   6.831   6.142   0.538 -1.5155  1.5528 -0.9449
   11CHTO   N12 4461   6.867   6.226   0.349  0.2467  0.7703 -0.6055
   11CHTO  H110 4462   6.897   6.181   0.255 -0.1954  0.4311 -0.5863
   11CHTO  H111 4463   6.914   6.321   0.371 -0.5728  0.7950  1.0488
   11CHTO   C69 4464   6.832   5.985   0.403  1.0823 -0.1864  0.5212
   11CHTO  H126 4465   6.891   5.939   0.321 -0.5157 -0.7690 -0.3226
   11CHTO   O41 4466   6.829   5.898   0.520 -0.0800  0.4551 -0.0730
   11CHTO   C64 4467   6.951   5.871   0.585 -0.7302 -0.2246 -0.1668
   11CHTO  H121 4468   7.016   5.800   0.528  2.8400  0.6860  2.5706
   11CHTO   C71 4469   6.921   5.800   0.723  0.1062 -0.1848 -0.2378
   11CHTO   O47 4470   6.849   5.680   0.703  0.2954 -0.0683  0.2473
   11CHTO  H104 4471   6.840   5.633   0.784  0.1802  0.0046  0.2768
   11CHTO   O34 4472   6.678   6.006   0.342  0.3299 -0.6092 -0.1519
   11CHTO   C49 4473   6.568   5.918   0.316 -0.2547  0.1126 -0.1849
   11CHTO   H91 4474   6.607   5.848   0.242 -2.7683 -0.8101 -0.6922
   11CHTO   C47 4475   6.447   5.994   0.254 -0.7641 -0.8378 -0.2007
   11CHTO   H89 4476   6.377   5.915   0.221 -0.7693 -0.2865 -1.5188
   11CHTO   O33 4477   6.485   6.067   0.141 -0.0949 -0.2694  0.4508
   11CHTO   H70 4478   6.552   6.131   0.153 -0.1608  0.1602 -1.3615
   11CHTO   C45 4479   6.376   6.091   0.365 -0.2287  0.4676  0.2583
   11CHTO   H87 4480   6.450   6.170   0.388 -1.8013  1.4429  2.0926
   11CHTO    N8 4481   6.258   6.156   0.307 -0.2353  0.0404 -0.2641
   11CHTO   H75 4482   6.172   6.146   0.371 -0.0708 -0.2209 -0.0768
   11CHTO   H76 4483   6.258   6.263   0.300 -0.6342  0.0015 -0.8941
   11CHTO   C43 4484   6.359   6.021   0.509  0.9350  0.2748 -0.1290
   11CHTO   H85 4485   6.356   6.097   0.587  2.9088 -0.5528  0.7941
   11CHTO   O29 4486   6.464   5.932   0.546 -0.3159  0.1898  0.0413
   11CHTO   C50 4487   6.530   5.846   0.447 -0.9551 -0.1454 -0.4035
   11CHTO   H92 4488   6.622   5.811   0.495 -0.3090  1.9739 -0.0066
   11CHTO   C54 4489   6.448   5.717   0.412  0.2542  0.2777 -0.2514
   11CHTO   O36 4490   6.439   5.639   0.534 -0.1234  0.4132  0.0196
   11CHTO   H72 4491   6.498   5.567   0.532  0.3771  0.7938  0.9354
   11CHTO   O27 4492   6.237   5.953   0.526 -0.2155  0.3451 -0.0088
   11CHTO   C37 4493   6.154   5.878   0.609 -0.2816 -0.7133 -0.0111
   11CHTO   H79 4494   6.209   5.785   0.632  0.0104 -0.9220 -1.5314
   11CHTO   C38 4495   6.125   5.944   0.746  0.2084 -0.1780  0.0918
   11CHTO   H80 4496   6.094   6.048   0.731 -0.2180 -0.0413  1.7695
   11CHTO   O31 4497   6.252   5.944   0.816 -0.4751  0.0352  0.4469
   11CHTO   H68 4498   6.245   5.997   0.893 -1.6734  0.8406 -0.1975
   11CHTO   C39 4499   6.022   5.857   0.829 -0.3175  0.1780  0.7599
   11CHTO   H81 4500   6.070   5.766   0.865  0.7225  0.5107  0.2479
   11CHTO    N7 4501   5.975   5.932   0.953  0.0799 -0.4942 -0.2918
   11CHTO   H73 4502   5.997   5.878   1.044  0.6126  1.6788  0.8912
   11CHTO   H74 4503   6.023   6.029   0.956  0.3884 -0.5016 -3.3012
   11CHTO   C40 4504   5.897   5.802   0.745  0.8066 -0.0950  0.4657
   11CHTO   H82 4505   5.819   5.878   0.737  0.5357 -0.4677 -0.4859
   11CHTO   O26 4506   5.944   5.751   0.620 -0.2982 -0.2469 -0.4731
   11CHTO   C41 4507   6.025   5.836   0.533  0.0549 -0.1220  0.0648
   11CHTO   H83 4508   5.971   5.931   0.519 -1.4228 -1.1676 -1.3631
   11CHTO   C52 4509   6.051   5.771   0.396 -0.1896  0.4323  0.2463
   11CHTO   O35 4510   5.931   5.730   0.329  0.5968  0.3477  0.2525
   11CHTO   H71 4511   5.897   5.805   0.285  0.8144  1.5868  2.1476
   11CHTO   O28 4512   5.846   5.682   0.806 -0.0838 -0.1687 -0.1466
   11CHTO   C42 4513   5.707   5.651   0.778  0.2752  0.7379 -0.1492
   11CHTO   H84 4514   5.695   5.683   0.675  1.2728 -0.6159 -0.7014
   11CHTO   C44 4515   5.598   5.723   0.862  0.0843  0.4849 -0.5847
   11CHTO   H86 4516   5.620   5.711   0.969 -0.1885 -0.4996 -0.6335
   11CHTO   O32 4517   5.607   5.862   0.830 -0.1255  0.0950  0.1844
   11CHTO   H69 4518   5.542   5.916   0.871  0.1850  0.4434  0.2160
   11CHTO   C48 4519   5.451   5.665   0.835 -0.1882  0.8718 -0.6803
   11CHTO   H90 4520   5.437   5.687   0.729 -1.5315 -0.2572 -0.7457
   11CHTO    N9 4521   5.346   5.740   0.918 -0.2271  0.0390  0.6256
   11CHTO   H77 4522   5.253   5.690   0.941 -1.1825  1.4473 -0.0920
   11CHTO   H78 4523   5.389   5.772   1.012 -0.4915  0.8208  0.4820
   11CHTO   C51 4524   5.451   5.515   0.862 -0.3245 -0.2004  0.7170
   11CHTO   H93 4525   5.492   5.500   0.961 -0.0632  2.1309  1.0000
   11CHTO   O30 4526   5.539   5.458   0.764  0.3315 -0.1952  0.6633
   11CHTO   C46 4527   5.688   5.493   0.773 -0.4008 -0.4541  0.2199
   11CHTO   H88 4528   5.732   5.444   0.860  2.3961  1.8187  0.1891
   11CHTO   C53 4529   5.763   5.441   0.648 -0.1539 -0.1417  0.4218
   11CHTO   O72 4530   5.906   5.471   0.661  0.0260  0.4413 -0.1859
   11CHTO  H199 4531   5.942   5.423   0.589 -1.0394 -1.2343  0.3952
   11CHTO   O22 4532   5.319   5.454   0.845 -0.7264 -0.3018  0.3887
   11CHTO   C31 4533   5.289   5.344   0.935 -0.5971  0.5430  0.5755
   11CHTO   H59 4534   5.387   5.299   0.964 -1.1224 -0.6803  0.4843
   11CHTO   C29 4535   5.210   5.365   1.068 -0.4958  0.0907 -0.0728
   11CHTO   H57 4536   5.109   5.403   1.045 -1.3882 -0.0078  3.4674
   11CHTO   O21 4537   5.276   5.462   1.146  0.3523  0.1270  0.1017
   11CHTO   H37 4538   5.228   5.473   1.226 -0.3450 -1.0853 -0.1235
   11CHTO   C27 4539   5.200   5.227   1.152  0.7872 -0.6227  0.2894
   11CHTO   H55 4540   5.303   5.191   1.167  0.7212 -0.5805  0.8592
   11CHTO    N5 4541   5.131   5.236   1.283 -0.3808  0.6331 -0.2351
   11CHTO   H43 4542   5.038   5.290   1.272 -0.5649  0.4548  0.4494
   11CHTO   H44 4543   5.181   5.282   1.367  0.4321 -0.7911  0.0759
   11CHTO   C25 4544   5.134   5.119   1.059  0.1821 -0.0298 -0.2279
   11CHTO   H53 4545   5.026   5.140   1.057 -0.5161 -3.2118  0.0506
   11CHTO   O17 4546   5.192   5.112   0.931  0.0230  0.8320  0.3995
   11CHTO   C32 4547   5.218   5.236   0.857  0.2249  0.0918  0.8150
   11CHTO   H60 4548   5.123   5.275   0.819 -0.5793 -2.8949 -0.3837
   11CHTO   C36 4549   5.296   5.179   0.734 -0.2087 -0.5124 -0.0530
   11CHTO   O25 4550   5.426   5.121   0.752  0.1105 -0.5627  0.3734
   11CHTO   H40 4551   5.445   5.066   0.679 -3.4271 -1.6177  0.1365
   11CHTO   O15 4552   5.150   4.977   1.131  0.3132 -0.6585 -0.3437
   11CHTO   C19 4553   5.101   4.838   1.122 -0.0085  0.3225  0.6078
   11CHTO   H47 4554   5.178   4.775   1.170  0.9227  1.2923  0.4044
   11CHTO   C20 4555   4.959   4.811   1.192  0.0900  0.1461  0.1344
   11CHTO   H48 4556   4.876   4.861   1.139 -1.1458 -1.4644  0.5238
   11CHTO   O19 4557   4.962   4.869   1.325  0.3248  0.0967 -0.2597
   11CHTO   H35 4558   4.879   4.905   1.349  0.8793  0.2930  1.4311
   11CHTO   C21 4559   4.933   4.659   1.199 -0.2149  0.0317 -0.0639
   11CHTO   H49 4560   5.016   4.610   1.249 -1.1946 -1.7489 -0.1543
   11CHTO    N4 4561   4.811   4.620   1.279 -0.6299  0.0369 -0.0687
   11CHTO   H41 4562   4.803   4.514   1.266  1.0616 -0.0805 -0.3509
   11CHTO   H42 4563   4.830   4.645   1.383 -0.8218 -1.4802  0.3397
   11CHTO   C22 4564   4.932   4.615   1.050 -0.2505  0.1759 -0.3615
   11CHTO   H50 4565   4.847   4.663   1.002 -1.4250  0.5054  1.9826
   11CHTO   O14 4566   5.054   4.643   0.984  0.4000  0.2224  0.3301
   11CHTO   C23 4567   5.085   4.780   0.977 -0.1507 -0.4020  0.1440
   11CHTO   H51 4568   5.014   4.839   0.918 -0.0549 -0.5263 -0.0953
   11CHTO   C34 4569   5.225   4.792   0.911  0.3397  0.5658 -0.0497
   11CHTO   O23 4570   5.221   4.777   0.767  0.1116  0.0395 -0.4553
   11CHTO   H38 4571   5.193   4.857   0.728  0.6969 -1.0397 -3.1955
   11CHTO   O16 4572   4.918   4.472   1.041 -0.5619  0.4071 -0.9779
   11CHTO   C24 4573   4.853   4.426   0.910 -0.7222  0.7557  0.3179
   11CHTO   H52 4574   4.863   4.503   0.833  1.6594  0.8334  0.6779
   11CHTO   C26 4575   4.708   4.385   0.925 -0.1258  0.2399  0.2945
   11CHTO   H54 4576   4.703   4.302   0.998 -1.6794  0.3311  0.3259
   11CHTO   O20 4577   4.633   4.494   0.976 -0.3644  0.3516  0.2347
   11CHTO   H36 4578   4.650   4.568   0.920  1.9259  1.1137  1.8309
   11CHTO   C30 4579   4.647   4.330   0.792  0.0187 -0.1427  0.2698
   11CHTO   H58 4580   4.630   4.426   0.742 -0.8240  0.7045  2.1556
   11CHTO    N6 4581   4.512   4.274   0.813 -0.3734  0.1242 -0.1580
   11CHTO   H45 4582   4.448   4.350   0.854 -2.3092 -1.6662  0.2375
   11CHTO   H46 4583   4.469   4.244   0.719 -1.6690  1.6991 -0.0898
   11CHTO   C33 4584   4.734   4.235   0.716 -0.5224  0.4096  0.2227
   11CHTO   H61 4585   4.724   4.130   0.748  1.4491 -0.2174 -1.0750
   11CHTO   O18 4586   4.871   4.270   0.730 -0.4321  0.6436  0.5699
   11CHTO   C28 4587   4.929   4.299   0.856  0.0113  0.4283 -0.6024
   11CHTO   H56 4588   4.907   4.212   0.918 -0.0904  0.8262 -0.0778
   11CHTO   C35 4589   5.079   4.317   0.835  0.4316  0.0589 -0.2867
   11CHTO   O24 4590   5.158   4.195   0.851 -0.0437 -0.1833 -0.1009
   11CHTO   H39 4591   5.166   4.154   0.767 -0.3680 -2.2257  0.8513
   11CHTO    O9 4592   4.693   4.233   0.580 -0.0524 -0.1621  0.2900
   11CHTO   C13 4593   4.777   4.365   0.488  0.3749  0.1140  0.3130
   11CHTO   H26 4594   4.812   4.446   0.556 -1.4543  1.6886 -0.5748
   11CHTO   C11 4595   4.672   4.421   0.383  0.1762  0.1938 -0.3913
   11CHTO   H24 4596   4.593   4.460   0.448  1.5347 -0.7727  1.8936
   11CHTO    O8 4597   4.619   4.303   0.308 -0.3195  0.0024  0.1421
   11CHTO    H3 4598   4.569   4.254   0.371 -1.7106  0.9579 -0.2099
   11CHTO    C9 4599   4.745   4.538   0.310 -0.0100 -0.3660  0.1432
   11CHTO   H22 4600   4.740   4.623   0.380  2.2065  0.0588 -0.1778
   11CHTO    N2 4601   4.653   4.590   0.203  0.5968 -0.2194 -0.0979
   11CHTO   H10 4602   4.709   4.618   0.115 -0.0991 -0.2797 -0.5686
   11CHTO   H11 4603   4.580   4.515   0.175  0.8726 -0.3196 -0.5632
   11CHTO    C7 4604   4.897   4.502   0.276 -0.3970 -0.6013 -0.0982
   11CHTO   H20 4605   4.948   4.542   0.367 -1.7969  0.0829  0.3903
   11CHTO    O4 4606   4.921   4.360   0.281  0.1781 -0.3318 -0.0067
   11CHTO   C14 4607   4.909   4.311   0.414 -0.0842  0.4204  0.4696
   11CHTO   H27 4608   5.001   4.346   0.465  1.2497  0.9477 -2.1919
   11CHTO   C18 4609   4.918   4.152   0.403 -0.4266 -0.6346  0.2330
   11CHTO   O13 4610   5.025   4.090   0.332 -0.1329 -0.3890  0.0725
   11CHTO    H7 4611   5.003   4.000   0.320 -0.4957 -0.2419 -0.3992
   11CHTO    O2 4612   4.946   4.549   0.138 -0.1462 -1.2922 -0.1130
   11CHTO    C1 4613   5.069   4.627   0.136  0.0080 -0.5521 -0.4346
   11CHTO   H14 4614   5.119   4.620   0.234 -0.0026  0.8101 -0.3205
   11CHTO    C2 4615   5.032   4.781   0.119  0.0344  0.1145 -0.1355
   11CHTO   H15 4616   4.981   4.789   0.022  0.8638 -1.3162 -0.7058
   11CHTO    O6 4617   4.936   4.832   0.212 -0.2284  0.6533  0.0006
   11CHTO    H1 4618   4.958   4.792   0.294  0.3333  0.1107 -0.4028
   11CHTO    C3 4619   5.168   4.874   0.098 -0.9289  0.1711  0.5856
   11CHTO   H16 4620   5.216   4.871   0.197 -0.0232 -0.5581  0.1343
   11CHTO    N1 4621   5.132   5.016   0.077  0.3142  0.1210  0.3556
   11CHTO    H8 4622   5.192   5.053  -0.005 -0.4831  0.2929 -0.1541
   11CHTO    H9 4623   5.161   5.075   0.162  1.5860 -0.7948  0.5637
   11CHTO    C4 4624   5.265   4.814  -0.004 -0.0964  0.2643 -0.4435
   11CHTO   H17 4625   5.218   4.818  -0.102 -4.2917  0.0963  1.4490
   11CHTO    O1 4626   5.282   4.677   0.027 -0.1157  0.0611  0.3611
   11CHTO    C5 4627   5.168   4.589   0.022  0.4156  0.3243  0.3927
   11CHTO   H18 4628   5.114   4.601  -0.072 -0.2005  1.6700  0.9168
   11CHTO   C16 4629   5.207   4.435   0.044  0.3829  0.8303 -1.0382
   11CHTO   O11 4630   5.285   4.381  -0.065  0.2257 -0.2269 -0.0149
   11CHTO    H5 4631   5.348   4.319  -0.033  1.8730  1.0664 -0.6380
   11CHTO    O3 4632   5.397   4.871   0.005  0.3556 -0.2081 -0.0768
   11CHTO    C6 4633   5.461   4.890  -0.128 -0.1087 -0.5500  0.3283
   11CHTO   H19 4634   5.412   4.834  -0.208  1.6215 -1.7698  0.1194
   11CHTO    C8 4635   5.464   5.041  -0.160 -0.7430 -0.4001 -0.0478
   11CHTO   H21 4636   5.508   5.098  -0.078  0.2196 -0.1089 -0.7608
   11CHTO    O7 4637   5.328   5.093  -0.170 -0.1342 -0.0398 -0.2637
   11CHTO    H2 4638   5.325   5.186  -0.173  2.3441  0.1176  0.3328
   11CHTO   C12 4639   5.551   5.074  -0.287 -0.0627  0.6136 -0.3285
   11CHTO   H25 4640   5.494   5.027  -0.371  1.7289 -0.2993 -1.0518
   11CHTO    N3 4641   5.559   5.219  -0.312  0.2412  0.2438 -0.6431
   11CHTO   H12 4642   5.623   5.256  -0.233 -1.1831 -0.0890  0.6884
   11CHTO   H13 4643   5.579   5.243  -0.416 -1.6275 -0.6869 -1.2459
   11CHTO   C15 4644   5.693   5.006  -0.277  0.1934  0.6452  0.7944
   11CHTO   H28 4645   5.763   5.051  -0.207  1.4237  0.2124 -0.1421
   11CHTO   O10 4646   5.765   5.010  -0.429  0.2473 -0.1925  0.1745
   11CHTO    H4 4647   5.798   4.923  -0.447  0.3484 -0.6121  2.2918
   11CHTO    O5 4648   5.683   4.862  -0.246 -0.0162  0.1602  0.4090
   11CHTO   C10 4649   5.608   4.837  -0.122 -0.1392 -0.8286  0.2903
   11CHTO   H23 4650   5.659   4.878  -0.034  1.0300 -0.8041 -0.4012
   11CHTO   C17 4651   5.604   4.687  -0.095  0.3874  0.1852  0.0372
   11CHTO   O12 4652   5.730   4.632  -0.057  0.0227 -0.0822  0.0663
   11CHTO    H6 4653   5.730   4.540  -0.071 -4.2483 -0.1549 -0.2201
   12CHTO  H203 4654   4.115   1.972   0.108  1.8019  0.1434 -0.3374
   12CHTO   O82 4655   4.095   1.936   0.024 -0.3205  0.1092  0.1395
   12CHTO  C123 4656   4.201   1.867  -0.046 -0.3747 -0.9859 -0.0573
   12CHTO  H227 4657   4.269   1.940  -0.092 -0.6409 -1.4536 -1.2271
   12CHTO   O77 4658   4.267   1.801   0.065 -1.1656  0.8518 -0.6186
   12CHTO  C118 4659   4.391   1.739   0.023  0.0791  0.5689  0.6651
   12CHTO  H222 4660   4.455   1.820  -0.014 -0.0603  0.1746 -0.4683
   12CHTO  C125 4661   4.450   1.665   0.149  0.0353 -1.0524 -0.1405
   12CHTO   O84 4662   4.494   1.766   0.242 -0.2031  0.0691  0.0388
   12CHTO  H205 4663   4.456   1.738   0.323  0.8676 -3.2934 -0.5532
   12CHTO  C114 4664   4.370   1.638  -0.093 -0.5616  0.4530  0.0590
   12CHTO  H218 4665   4.314   1.551  -0.060  1.6796 -1.2916 -0.6136
   12CHTO  C116 4666   4.283   1.696  -0.212 -0.4851 -0.1855  0.0093
   12CHTO  H220 4667   4.347   1.763  -0.273 -1.2218 -0.9200 -1.5949
   12CHTO   O79 4668   4.246   1.588  -0.298  0.1943  0.0189 -0.7343
   12CHTO  H201 4669   4.176   1.532  -0.271 -1.1717  2.1282  0.2379
   12CHTO  C120 4670   4.157   1.772  -0.162  0.0327 -0.2934 -0.2822
   12CHTO  H224 4671   4.081   1.697  -0.129  2.8277 -2.7965  0.6524
   12CHTO   N21 4672   4.086   1.849  -0.266 -1.1830 -0.3854 -0.0052
   12CHTO  H211 4673   4.127   1.944  -0.298 -1.3984 -0.4851 -0.5899
   12CHTO  H212 4674   3.981   1.850  -0.239 -0.6023  1.1339  2.3068
   12CHTO   O75 4675   4.497   1.589  -0.143 -0.0218 -0.1132  0.6305
   12CHTO  C112 4676   4.496   1.428  -0.144  0.3626  0.6752  0.6187
   12CHTO  H216 4677   4.399   1.389  -0.178  2.1141 -3.0140 -0.4047
   12CHTO   O73 4678   4.528   1.377  -0.015  0.4645  0.1314  0.2703
   12CHTO  C113 4679   4.545   1.235  -0.014  0.2492  0.2007 -0.1980
   12CHTO  H217 4680   4.450   1.181  -0.032  1.5118 -1.6753 -1.3796
   12CHTO  C124 4681   4.592   1.208   0.127  0.3333  0.5351  0.4199
   12CHTO   O83 4682   4.489   1.170   0.213  0.5974 -0.3787 -0.8751
   12CHTO  H204 4683   4.525   1.140   0.294  0.1321 -0.3556 -0.6605
   12CHTO  C109 4684   4.653   1.179  -0.117  0.5307 -0.3878  0.1918
   12CHTO  H213 4685   4.751   1.222  -0.093  0.8491  0.6297 -2.7510
   12CHTO  C110 4686   4.610   1.230  -0.264 -0.4778  0.7486  0.0930
   12CHTO  H214 4687   4.505   1.204  -0.278 -0.2441 -0.1352 -0.0556
   12CHTO   O78 4688   4.702   1.170  -0.356 -0.7467  0.0397  0.1810
   12CHTO  H200 4689   4.696   1.078  -0.340 -0.5781  0.0278  0.1819
   12CHTO  C111 4690   4.600   1.384  -0.253 -0.5146 -0.6057  0.4223
   12CHTO  H215 4691   4.697   1.420  -0.214  0.5316 -2.2076 -0.6068
   12CHTO   N19 4692   4.582   1.443  -0.385 -0.1531  0.0560 -0.2503
   12CHTO  H207 4693   4.645   1.528  -0.407 -0.5863  0.1502 -1.1494
   12CHTO  H208 4694   4.601   1.375  -0.466  2.2833 -0.6164  0.8401
   12CHTO   O74 4695   4.662   1.031  -0.107  0.3687 -0.1076  0.0225
   12CHTO  C115 4696   4.809   0.967  -0.126  0.3585 -0.0049 -0.5408
   12CHTO  H219 4697   4.868   1.028  -0.195  0.2412 -0.1514 -0.7659
   12CHTO   O76 4698   4.893   0.966   0.003  0.5774  0.0588  0.5111
   12CHTO  C122 4699   4.825   0.896   0.104  0.4472 -0.4709  0.3989
   12CHTO  H226 4700   4.742   0.957   0.140  1.3102 -0.0098  1.6396
   12CHTO  C126 4701   4.921   0.888   0.231  0.6987 -0.1111  0.0015
   12CHTO   O85 4702   4.861   0.831   0.342 -0.4564 -0.7643  0.2600
   12CHTO  H206 4703   4.787   0.885   0.363 -0.7094 -0.2803 -1.7378
   12CHTO  C121 4704   4.769   0.751   0.063  0.4167 -0.2292  0.2732
   12CHTO  H225 4705   4.805   0.670   0.130  0.1715  0.9167  1.8257
   12CHTO   O81 4706   4.626   0.752   0.069 -0.0249  0.0734  0.2725
   12CHTO  H202 4707   4.585   0.689   0.126 -1.1046  1.6557  1.2968
   12CHTO  C119 4708   4.819   0.716  -0.079  0.6383 -0.1734  1.3763
   12CHTO  H223 4709   4.927   0.715  -0.063  1.1476  0.3362 -1.6845
   12CHTO  C117 4710   4.787   0.822  -0.190  0.6088 -0.1957  0.2415
   12CHTO  H221 4711   4.683   0.821  -0.223  0.5346  1.6879  0.4131
   12CHTO   N20 4712   4.866   0.807  -0.315 -0.2289 -0.6114 -0.1873
   12CHTO  H209 4713   4.872   0.701  -0.335 -0.7317 -1.2517  2.7569
   12CHTO  H210 4714   4.827   0.868  -0.395  0.0897  0.4258  0.4352
   12CHTO   O80 4715   4.789   0.551  -0.119  0.4350 -0.7793 -0.0282
   12CHTO  C103 4716   4.881   0.431  -0.052  0.1497 -0.6542  0.2854
   12CHTO  H190 4717   4.984   0.458  -0.074 -0.0409  0.6850  0.9627
   12CHTO  C101 4718   4.866   0.387   0.098  0.2132 -0.5809  0.9199
   12CHTO  H188 4719   4.758   0.384   0.116  0.0676 -2.8034 -0.1809
   12CHTO   O68 4720   4.937   0.483   0.190 -0.5079 -0.3817  0.1885
   12CHTO  H168 4721   4.888   0.563   0.185  0.0370 -0.0700 -0.2046
   12CHTO   C99 4722   4.916   0.232   0.127  0.0548 -0.2801  0.7388
   12CHTO  H186 4723   5.026   0.244   0.135  0.0218 -0.0179  0.8089
   12CHTO   N17 4724   4.860   0.172   0.254 -0.4421  0.9972  0.1120
   12CHTO  H174 4725   4.921   0.200   0.339  1.1500 -0.4031 -0.5476
   12CHTO  H175 4726   4.754   0.178   0.272 -0.7256 -1.7550 -0.4710
   12CHTO   C97 4727   4.895   0.135   0.010  0.3081  0.3951  0.3151
   12CHTO  H184 4728   4.791   0.101   0.010  0.3971  0.1192  0.2544
   12CHTO   O64 4729   4.931   0.203  -0.111  0.7386  0.2385  0.0673
   12CHTO  C104 4730   4.843   0.315  -0.141  0.3991  0.1438 -0.9878
   12CHTO  H191 4731   4.742   0.282  -0.119  0.7154 -0.0722  0.1975
   12CHTO  C108 4732   4.855   0.334  -0.294  0.2400 -0.1518 -0.6182
   12CHTO   O71 4733   4.763   0.245  -0.358  0.2698  0.5286 -0.2705
   12CHTO  H171 4734   4.724   0.266  -0.441 -0.5365  1.3834  0.3157
   12CHTO   O62 4735   4.981   0.019   0.007  0.1270  0.6741 -0.0374
   12CHTO   C91 4736   4.928  -0.109  -0.038 -0.0567  0.2025 -1.1267
   12CHTO  H178 4737   4.828  -0.093  -0.078  0.0913  2.6660 -0.5863
   12CHTO   C92 4738   4.917  -0.201   0.092  0.1541 -0.3224  0.2280
   12CHTO  H179 4739   5.010  -0.192   0.150 -1.1678 -1.5352  2.6154
   12CHTO   O66 4740   4.812  -0.142   0.174  0.0442  0.0909 -0.3177
   12CHTO  H166 4741   4.830  -0.166   0.263  0.3379  1.2324 -0.0639
   12CHTO   C93 4742   4.883  -0.357   0.056 -0.4436 -0.1891 -0.0231
   12CHTO  H180 4743   4.777  -0.356   0.025 -0.1825  0.7938 -0.9422
   12CHTO   N16 4744   4.893  -0.446   0.174 -0.0005  0.0580  0.1539
   12CHTO  H172 4745   4.887  -0.550   0.145  2.2749 -0.2115  0.5531
   12CHTO  H173 4746   4.991  -0.435   0.218  0.7655  1.5192 -1.8513
   12CHTO   C94 4747   4.966  -0.399  -0.067 -0.1417 -0.3890  0.2995
   12CHTO  H181 4748   5.073  -0.401  -0.046  0.5263  1.1933 -2.7087
   12CHTO   O61 4749   4.948  -0.308  -0.175 -0.1927  0.3150 -0.4690
   12CHTO   C95 4750   5.000  -0.176  -0.158  0.4922  0.1872  0.2642
   12CHTO  H182 4751   5.108  -0.176  -0.143  0.6165  1.8493 -0.5626
   12CHTO  C106 4752   4.970  -0.097  -0.286 -0.0146  0.5500 -0.1416
   12CHTO   O69 4753   5.021  -0.171  -0.398  0.4865 -0.0263 -0.0799
   12CHTO  H169 4754   5.079  -0.108  -0.437  1.2664 -0.1732  0.8189
   12CHTO   O63 4755   4.911  -0.550  -0.121  0.0916  0.2273 -0.0029
   12CHTO   C96 4756   5.004  -0.666  -0.107 -0.8062  0.2886  0.3036
   12CHTO  H183 4757   5.059  -0.641  -0.016  2.0572  2.3977 -1.8873
   12CHTO   C98 4758   5.108  -0.692  -0.218 -0.4353 -0.3954  0.2797
   12CHTO  H185 4759   5.060  -0.710  -0.315 -2.3909  1.7666  0.8191
   12CHTO   O67 4760   5.194  -0.575  -0.234  0.3699 -0.2227  0.6682
   12CHTO  H167 4761   5.221  -0.538  -0.152  0.6036 -1.5215  1.1870
   12CHTO  C102 4762   5.194  -0.819  -0.172 -0.3509  0.0583 -0.7827
   12CHTO  H189 4763   5.264  -0.783  -0.095 -1.6187  0.7582  0.0730
   12CHTO   N18 4764   5.284  -0.864  -0.280 -0.0626 -0.0814 -0.4566
   12CHTO  H176 4765   5.318  -0.786  -0.346 -1.0240 -1.1831 -2.3058
   12CHTO  H177 4766   5.247  -0.949  -0.337 -0.0703 -0.8232  0.6437
   12CHTO  C105 4767   5.120  -0.940  -0.110 -0.0318 -0.4863  0.7743
   12CHTO  H192 4768   5.085  -1.004  -0.191 -1.5042  0.7173  0.4226
   12CHTO   O65 4769   5.005  -0.902  -0.035 -0.5396  0.2235 -0.1823
   12CHTO  C100 4770   4.916  -0.804  -0.097 -0.6323  0.3666 -1.0745
   12CHTO  H187 4771   4.875  -0.842  -0.192 -0.5325  0.2462 -1.0689
   12CHTO  C107 4772   4.782  -0.788  -0.004  0.1587  0.6646 -0.1555
   12CHTO   O70 4773   4.722  -0.905   0.033 -0.3999  0.2103  0.0305
   12CHTO  H170 4774   4.663  -0.941  -0.031 -0.5867 -1.3417  1.0634
   12CHTO   O57 4775   5.248  -1.012  -0.020  0.7148 -0.0034  0.0596
   12CHTO   C85 4776   5.226  -1.140   0.041  0.9287 -0.7001  0.4405
   12CHTO  H157 4777   5.181  -1.202  -0.039  0.2675 -1.8827  1.7147
   12CHTO   C83 4778   5.124  -1.130   0.156  0.2217 -0.2510  0.9090
   12CHTO  H155 4779   5.027  -1.107   0.113  0.6891  0.2195  0.0904
   12CHTO   O56 4780   5.160  -1.022   0.249  0.0804  0.2123  0.3141
   12CHTO  H135 4781   5.088  -0.997   0.304 -1.8225 -1.0005 -1.5804
   12CHTO   C81 4782   5.115  -1.270   0.229  0.4807  0.1255 -0.3628
   12CHTO  H153 4783   5.082  -1.346   0.158 -1.3294 -1.6605  2.3152
   12CHTO   N14 4784   5.006  -1.264   0.332  0.2885 -0.1556  0.1538
   12CHTO  H141 4785   5.018  -1.185   0.403 -0.8315 -0.3757  0.5944
   12CHTO  H142 4786   4.906  -1.259   0.293 -1.4443 -2.7733  3.9297
   12CHTO   C79 4787   5.249  -1.312   0.284  0.1424  0.4327 -0.3633
   12CHTO  H151 4788   5.234  -1.408   0.332 -0.8882  0.0642 -1.3892
   12CHTO   O52 4789   5.345  -1.330   0.173  0.2380 -0.2049 -0.5430
   12CHTO   C86 4790   5.362  -1.202   0.095  0.0273 -1.3549  0.0546
   12CHTO  H158 4791   5.407  -1.126   0.162 -2.1130 -0.8252  0.9502
   12CHTO   C90 4792   5.466  -1.229  -0.008 -0.1449 -0.2206 -0.3831
   12CHTO   O60 4793   5.422  -1.301  -0.130  0.3532 -0.6042  0.2914
   12CHTO  H138 4794   5.463  -1.384  -0.145  0.4946 -0.7473  1.4225
   12CHTO   O50 4795   5.317  -1.225   0.384  0.0769  0.1548  0.2948
   12CHTO   C73 4796   5.346  -1.245   0.522 -0.0883  0.6537  0.6928
   12CHTO  H145 4797   5.268  -1.306   0.572 -0.2157  0.9898  0.9037
   12CHTO   C74 4798   5.338  -1.101   0.593  0.7721 -0.0977 -0.0806
   12CHTO  H146 4799   5.239  -1.062   0.564  1.7027  1.4451 -1.2901
   12CHTO   O54 4800   5.349  -1.127   0.730  0.3529 -0.5817  0.8157
   12CHTO  H133 4801   5.298  -1.067   0.781 -0.5793 -1.3291  0.7744
   12CHTO   C75 4802   5.455  -1.013   0.527 -0.4365 -0.3283  0.5490
   12CHTO  H147 4803   5.446  -1.018   0.417  1.1284 -1.0247  0.4361
   12CHTO   N13 4804   5.467  -0.868   0.581  0.2812  0.2580  0.6626
   12CHTO  H139 4805   5.387  -0.850   0.652 -0.2723 -0.1374  0.1479
   12CHTO  H140 4806   5.561  -0.863   0.634  0.7970  2.1993 -0.4182
   12CHTO   C76 4807   5.597  -1.085   0.548 -0.3534  0.0047  0.2482
   12CHTO  H148 4808   5.621  -1.082   0.654  0.6771 -1.9234  0.0924
   12CHTO   O49 4809   5.588  -1.219   0.499 -0.1442  0.4669 -0.5880
   12CHTO   C77 4810   5.484  -1.309   0.556  0.1745  0.5915 -0.1100
   12CHTO  H149 4811   5.491  -1.324   0.664  0.7272  0.0472 -0.2186
   12CHTO   C88 4812   5.502  -1.448   0.492 -0.2933 -0.0030 -0.0522
   12CHTO   O58 4813   5.646  -1.529   0.523 -0.8147  0.1945 -0.4145
   12CHTO  H136 4814   5.723  -1.515   0.472 -0.6124 -2.4202 -0.8639
   12CHTO   O51 4815   5.710  -1.013   0.463  0.4065  0.9689  0.0396
   12CHTO   C78 4816   5.862  -1.095   0.453 -0.4147  0.3965  0.0676
   12CHTO  H150 4817   5.863  -1.205   0.465  0.0649  0.1720 -1.8810
   12CHTO   C80 4818   5.961  -1.036   0.557 -0.1545  0.8172  0.1596
   12CHTO  H152 4819   5.976  -0.928   0.535 -1.5849  0.7718 -1.1719
   12CHTO   O55 4820   5.898  -1.051   0.684  0.3875 -0.4503 -0.4111
   12CHTO  H134 4821   5.948  -1.008   0.750 -0.6792  1.0961 -0.5996
   12CHTO   C84 4822   6.106  -1.105   0.551 -0.3721  0.4511  0.1304
   12CHTO  H156 4823   6.100  -1.214   0.560  0.8680  0.5178  1.9661
   12CHTO   N15 4824   6.194  -1.051   0.659  0.2089 -0.7080  0.4885
   12CHTO  H143 4825   6.177  -1.097   0.754  2.2600  1.7738  2.1184
   12CHTO  H144 4826   6.296  -1.075   0.635  1.0981  1.2835  2.0987
   12CHTO   C87 4827   6.159  -1.077   0.411  0.3830 -0.6284  0.7630
   12CHTO  H159 4828   6.177  -0.971   0.395  0.7238 -0.7668  0.2097
   12CHTO   O53 4829   6.045  -1.122   0.296 -0.1977 -0.1829  0.8137
   12CHTO   C82 4830   5.912  -1.067   0.311 -0.2968  0.5559 -0.1726
   12CHTO  H154 4831   5.918  -0.960   0.290 -4.2379  0.9530  0.2881
   12CHTO   C89 4832   5.815  -1.135   0.210 -0.4273 -0.0472 -0.2414
   12CHTO   O59 4833   5.835  -1.097   0.072  0.7359 -0.2320  0.1474
   12CHTO  H137 4834   5.769  -1.142   0.023 -0.6738 -0.3974  2.0994
   12CHTO   O45 4835   6.313  -1.167   0.404  0.1178 -0.2020  0.8249
   12CHTO   C67 4836   6.317  -1.257   0.295  0.4236 -0.3038 -0.1215
   12CHTO  H124 4837   6.221  -1.303   0.270  0.3153 -0.0496 -0.1744
   12CHTO   C65 4838   6.369  -1.202   0.159  0.1897  0.4966  0.2066
   12CHTO  H122 4839   6.357  -1.093   0.161 -0.6610  0.4132 -0.1241
   12CHTO   O44 4840   6.278  -1.256   0.056  0.0828  0.2229 -0.4500
   12CHTO  H102 4841   6.282  -1.210  -0.026  0.8579 -0.8281 -1.0131
   12CHTO   C63 4842   6.519  -1.231   0.143 -0.8146 -0.2357  0.1443
   12CHTO  H120 4843   6.579  -1.189   0.223  2.9561 -2.1735 -1.5564
   12CHTO   N11 4844   6.580  -1.156   0.028  0.3873 -0.4220 -0.0033
   12CHTO  H108 4845   6.640  -1.228  -0.024  0.7794 -0.4707  0.5194
   12CHTO  H109 4846   6.643  -1.076   0.059  0.0210  1.2651 -3.4346
   12CHTO   C61 4847   6.531  -1.387   0.131 -0.4096 -0.7630 -0.1629
   12CHTO  H118 4848   6.639  -1.409   0.140 -0.4139 -1.1959 -1.1728
   12CHTO   O40 4849   6.458  -1.465   0.231 -0.0807 -0.0758 -0.2505
   12CHTO   C68 4850   6.412  -1.377   0.338  0.2163  0.7459 -0.3582
   12CHTO  H125 4851   6.502  -1.326   0.378  0.5345  0.5403 -0.8062
   12CHTO   C72 4852   6.365  -1.474   0.448  0.0980 -0.4055 -0.4442
   12CHTO   O48 4853   6.236  -1.536   0.424  0.2467  0.3166 -0.1075
   12CHTO  H105 4854   6.242  -1.613   0.371  0.0792  0.2506 -0.0323
   12CHTO   O38 4855   6.481  -1.450   0.013  0.2229  0.4024 -0.4212
   12CHTO   C55 4856   6.545  -1.571  -0.032 -0.5100  0.6105 -0.7138
   12CHTO  H112 4857   6.578  -1.633   0.053  2.4872  1.4592 -1.2030
   12CHTO   C56 4858   6.666  -1.535  -0.132 -0.4205 -0.0214  0.1247
   12CHTO  H113 4859   6.621  -1.468  -0.207  0.2949  0.6869  0.3245
   12CHTO   O42 4860   6.760  -1.453  -0.065 -0.0127 -0.0643 -0.2663
   12CHTO  H100 4861   6.823  -1.415  -0.123  1.0893 -2.1018 -0.4719
   12CHTO   C57 4862   6.736  -1.662  -0.200 -0.5252  0.3768  0.1762
   12CHTO  H114 4863   6.800  -1.704  -0.123  0.1311  0.9742 -0.0383
   12CHTO   N10 4864   6.832  -1.642  -0.311  0.1109 -0.2443 -0.0683
   12CHTO  H106 4865   6.785  -1.581  -0.387  0.8298  1.9182  1.2069
   12CHTO  H107 4866   6.917  -1.590  -0.271  0.8997  0.0450 -2.0434
   12CHTO   C58 4867   6.626  -1.764  -0.244 -0.3922 -0.0238  0.1551
   12CHTO  H115 4868   6.576  -1.733  -0.338  1.0387 -0.3504 -0.7343
   12CHTO   O37 4869   6.531  -1.782  -0.142  0.2835  0.2866 -0.1599
   12CHTO   C59 4870   6.451  -1.671  -0.109  0.8500  0.1059 -0.1522
   12CHTO  H116 4871   6.411  -1.632  -0.202  0.0649  2.0684  0.9934
   12CHTO   C70 4872   6.341  -1.716  -0.010  0.2921  0.3018 -0.3677
   12CHTO   O46 4873   6.244  -1.794  -0.080  0.0365  0.0749 -0.5870
   12CHTO  H103 4874   6.274  -1.882  -0.092  0.9293  0.1213  1.2023
   12CHTO   O39 4875   6.705  -1.901  -0.255 -0.0698  0.0654 -0.0474
   12CHTO   C60 4876   6.647  -2.005  -0.340  0.3541  0.2075  0.2936
   12CHTO  H117 4877   6.550  -1.970  -0.376  0.4056  2.0356  1.8702
   12CHTO   C62 4878   6.746  -2.040  -0.460  0.0886 -0.7104 -0.4976
   12CHTO  H119 4879   6.758  -1.959  -0.536  1.3558 -0.3104  0.1185
   12CHTO   O43 4880   6.880  -2.070  -0.412 -0.4665  0.1066  0.1445
   12CHTO  H101 4881   6.914  -2.004  -0.355 -0.6862  0.3725 -0.0345
   12CHTO   C66 4882   6.690  -2.163  -0.547  0.3748 -0.2648 -0.3940
   12CHTO  H123 4883   6.588  -2.141  -0.580 -0.1553 -2.0193  0.0363
   12CHTO   N12 4884   6.766  -2.185  -0.667 -0.0948  0.1075  0.7208
   12CHTO  H110 4885   6.832  -2.104  -0.693  1.8629 -2.2530 -1.9606
   12CHTO  H111 4886   6.705  -2.198  -0.755  0.8799 -2.5866  0.3897
   12CHTO   C69 4887   6.687  -2.294  -0.466 -0.5640  0.4991  0.1945
   12CHTO  H126 4888   6.787  -2.314  -0.420  0.0452  1.9764 -0.4355
   12CHTO   O41 4889   6.585  -2.262  -0.347  0.4769 -0.5959 -0.4903
   12CHTO   C64 4890   6.621  -2.132  -0.252  0.2383  0.4270 -0.3442
   12CHTO  H121 4891   6.707  -2.153  -0.186 -1.0744 -1.1625  0.9182
   12CHTO   C71 4892   6.494  -2.115  -0.162 -0.3267  0.3411 -0.0501
   12CHTO   O47 4893   6.473  -2.241  -0.089 -0.3494  0.0859 -0.2635
   12CHTO  H104 4894   6.440  -2.221  -0.003 -1.8026 -1.4633 -0.4263
   12CHTO   O34 4895   6.644  -2.431  -0.551 -0.8771 -0.0821 -0.3581
   12CHTO   C49 4896   6.716  -2.560  -0.610  0.0121  0.0586  0.0127
   12CHTO   H91 4897   6.730  -2.541  -0.716 -0.8646 -0.6236 -0.2273
   12CHTO   C47 4898   6.613  -2.680  -0.609 -0.2800 -0.4754 -0.6290
   12CHTO   H89 4899   6.666  -2.757  -0.669  0.4112 -2.2813  2.2167
   12CHTO   O33 4900   6.490  -2.644  -0.677 -0.4853 -0.3954 -0.3576
   12CHTO   H70 4901   6.429  -2.713  -0.659 -1.9284  1.5393  2.6946
   12CHTO   C45 4902   6.588  -2.721  -0.457  0.0371  0.2659  0.1729
   12CHTO   H87 4903   6.503  -2.657  -0.429  0.3911  0.9213 -0.2556
   12CHTO    N8 4904   6.533  -2.868  -0.448  0.4497 -0.0086  0.4179
   12CHTO   H75 4905   6.477  -2.877  -0.356 -0.8331 -0.3115 -0.3908
   12CHTO   H76 4906   6.617  -2.936  -0.441  0.4858  0.0232  0.2845
   12CHTO   C43 4907   6.706  -2.676  -0.361  0.0264  0.5791 -0.7295
   12CHTO   H85 4908   6.686  -2.573  -0.330  2.2108  1.3716 -1.8480
   12CHTO   O29 4909   6.832  -2.683  -0.421  0.3619  0.3650  0.3741
   12CHTO   C50 4910   6.850  -2.596  -0.534 -0.0720  0.0135  0.5352
   12CHTO   H92 4911   6.880  -2.504  -0.482 -1.0440  0.0182  1.0906
   12CHTO   C54 4912   6.961  -2.647  -0.618 -0.2814 -0.6509  0.3577
   12CHTO   O36 4913   7.084  -2.658  -0.540  0.6890  0.3135  0.2633
   12CHTO   H72 4914   7.151  -2.697  -0.593 -1.0057 -2.0643 -0.2015
   12CHTO   O27 4915   6.710  -2.755  -0.242  0.4102  0.2567 -0.1439
   12CHTO   C37 4916   6.706  -2.721  -0.099 -0.1978  0.0892  0.0544
   12CHTO   H79 4917   6.705  -2.819  -0.049  0.6253 -0.4121 -0.8930
   12CHTO   C38 4918   6.829  -2.642  -0.054 -0.2451 -0.4624  0.1054
   12CHTO   H80 4919   6.838  -2.560  -0.127  0.4137  0.9444  1.7421
   12CHTO   O31 4920   6.941  -2.729  -0.071 -0.2473  0.6033 -0.7482
   12CHTO   H68 4921   7.014  -2.704  -0.018 -1.4257 -0.6842  1.5503
   12CHTO   C39 4922   6.816  -2.582   0.093 -0.2628  0.4810 -0.1675
   12CHTO   H81 4923   6.842  -2.666   0.158  0.7837  1.9702  1.3801
   12CHTO    N7 4924   6.920  -2.479   0.118  1.1305  0.0700 -0.1230
   12CHTO   H73 4925   6.975  -2.486   0.211  2.5441 -1.3060 -1.0301
   12CHTO   H74 4926   6.877  -2.381   0.109 -1.5589 -0.8323  2.2885
   12CHTO   C40 4927   6.668  -2.550   0.140  0.3660 -0.8573  0.7665
   12CHTO   H82 4928   6.633  -2.449   0.120 -2.2676 -1.6994  0.9034
   12CHTO   O26 4929   6.574  -2.647   0.082 -0.1991  0.1981 -0.5650
   12CHTO   C41 4930   6.580  -2.647  -0.064 -0.0472 -0.3045  0.1448
   12CHTO   H83 4931   6.592  -2.545  -0.103  1.7269 -0.2887  0.6587
   12CHTO   C52 4932   6.451  -2.702  -0.128  0.1845  0.4332  0.4846
   12CHTO   O35 4933   6.338  -2.617  -0.091 -0.1401 -0.4263 -0.2767
   12CHTO   H71 4934   6.258  -2.661  -0.072  0.9956 -2.5579 -0.2544
   12CHTO   O28 4935   6.660  -2.564   0.282  0.0387 -0.3564 -0.2715
   12CHTO   C42 4936   6.547  -2.511   0.360  0.3522  0.8237  0.0182
   12CHTO   H84 4937   6.565  -2.540   0.463 -1.7906  0.8880  0.4251
   12CHTO   C44 4938   6.412  -2.587   0.318 -0.0964 -0.3940  0.2463
   12CHTO   H86 4939   6.399  -2.570   0.211  0.3346 -1.1566  0.0655
   12CHTO   O32 4940   6.418  -2.730   0.352 -0.1327  0.4534 -0.5121
   12CHTO   H69 4941   6.472  -2.774   0.289  1.4616  0.9588  0.4678
   12CHTO   C48 4942   6.281  -2.520   0.377 -0.4388 -0.0228 -0.4517
   12CHTO   H90 4943   6.285  -2.538   0.485 -0.9060  1.2266 -0.2243
   12CHTO    N9 4944   6.149  -2.579   0.335  0.6861 -0.5967  0.5879
   12CHTO   H77 4945   6.128  -2.555   0.232  3.1256  1.9480  0.6266
   12CHTO   H78 4946   6.161  -2.686   0.342 -1.6788 -0.9008  0.5403
   12CHTO   C51 4947   6.299  -2.365   0.347  0.1084  0.2614  0.2488
   12CHTO   H93 4948   6.313  -2.350   0.240  1.9284  1.2421  0.6170
   12CHTO   O30 4949   6.413  -2.316   0.421  0.0089  0.2201  0.3376
   12CHTO   C46 4950   6.539  -2.358   0.356 -0.2699  0.4164  0.3643
   12CHTO   H88 4951   6.540  -2.319   0.255  0.0315 -1.5641 -0.4129
   12CHTO   C53 4952   6.657  -2.299   0.444 -0.2853 -0.4171  0.3392
   12CHTO   O72 4953   6.786  -2.333   0.384  0.4685 -0.2786  0.3909
   12CHTO  H199 4954   6.814  -2.267   0.323 -0.8575 -0.2114 -0.1758
   12CHTO   O22 4955   6.184  -2.295   0.398 -0.3441 -0.0483 -0.2404
   12CHTO   C31 4956   6.150  -2.153   0.390 -0.5257  0.7221 -0.1491
   12CHTO   H59 4957   6.041  -2.150   0.411 -0.4616  0.5381  0.2062
   12CHTO   C29 4958   6.215  -2.072   0.498 -0.5599  0.7056 -0.6426
   12CHTO   H57 4959   6.322  -2.075   0.472 -0.4214 -1.0230  0.0660
   12CHTO   O21 4960   6.190  -2.127   0.628  0.6488  0.2634  0.4686
   12CHTO   H37 4961   6.096  -2.133   0.632  0.3764  3.3272  0.2861
   12CHTO   C27 4962   6.161  -1.925   0.493 -0.3637 -0.2009  0.3943
   12CHTO   H55 4963   6.058  -1.924   0.533 -0.3683 -2.3438  0.4774
   12CHTO    N5 4964   6.235  -1.832   0.580 -0.3660 -0.3055  0.0270
   12CHTO   H43 4965   6.227  -1.731   0.542  1.0447 -0.5981 -1.1216
   12CHTO   H44 4966   6.337  -1.862   0.600 -0.9135 -0.8882  2.0413
   12CHTO   C25 4967   6.164  -1.862   0.347  0.2795  0.4233  0.0232
   12CHTO   H53 4968   6.268  -1.849   0.315 -0.2323  0.7543 -1.5308
   12CHTO   O17 4969   6.112  -1.956   0.251 -0.1424 -0.3187 -0.0562
   12CHTO   C32 4970   6.172  -2.088   0.250 -0.8666 -0.1580  0.1282
   12CHTO   H60 4971   6.280  -2.080   0.239 -0.7150  0.6040  2.0978
   12CHTO   C36 4972   6.115  -2.165   0.134  0.6730  0.1517  0.3881
   12CHTO   O25 4973   6.142  -2.092   0.012 -0.0512 -0.0351 -0.5306
   12CHTO   H40 4974   6.104  -2.139  -0.060 -0.0099 -0.4893 -0.2592
   12CHTO   O15 4975   6.071  -1.739   0.350  0.7589  0.1919  0.7653
   12CHTO   C19 4976   5.939  -1.679   0.304 -0.0923  0.2338 -0.7209
   12CHTO   H47 4977   5.897  -1.621   0.388 -0.8271 -0.1468 -0.8283
   12CHTO   C20 4978   5.947  -1.583   0.181  0.2030  0.2438  0.6701
   12CHTO   H48 4979   6.010  -1.626   0.101  0.8258  0.7471  0.8891
   12CHTO   O19 4980   6.005  -1.463   0.231 -0.0945  0.3819  0.0247
   12CHTO   H35 4981   6.023  -1.402   0.162  0.7823 -0.0745 -0.1565
   12CHTO   C21 4982   5.807  -1.538   0.112  0.3790  0.1747 -0.4154
   12CHTO   H49 4983   5.765  -1.458   0.173 -0.1123 -0.8773  0.6596
   12CHTO    N4 4984   5.825  -1.483  -0.025 -0.1068  1.0799 -0.1183
   12CHTO   H41 4985   5.866  -1.555  -0.094  1.5031  0.0054  1.9088
   12CHTO   H42 4986   5.727  -1.452  -0.059 -0.3200 -1.5013 -2.0281
   12CHTO   C22 4987   5.705  -1.655   0.119 -0.0149 -0.3406 -0.0783
   12CHTO   H50 4988   5.723  -1.725   0.037  0.3930 -0.7762  0.3800
   12CHTO   O14 4989   5.703  -1.731   0.241 -0.0577 -0.7154 -0.7753
   12CHTO   C23 4990   5.832  -1.788   0.280  0.6148  0.1227 -0.3965
   12CHTO   H51 4991   5.856  -1.850   0.193  2.2768 -0.9072  0.7574
   12CHTO   C34 4992   5.809  -1.875   0.404 -0.1397  0.2321 -0.3208
   12CHTO   O23 4993   5.733  -1.996   0.378 -0.0255  0.0288  0.6792
   12CHTO   H38 4994   5.645  -1.974   0.353  0.3472  0.0365 -0.6616
   12CHTO   O16 4995   5.570  -1.603   0.087 -0.7361 -0.2369  0.3672
   12CHTO   C24 4996   5.471  -1.705   0.029 -0.8884 -0.2356  0.4440
   12CHTO   H52 4997   5.508  -1.806   0.046  0.4533 -0.0614 -1.3489
   12CHTO   C26 4998   5.459  -1.678  -0.127 -0.3934 -0.1173  0.1304
   12CHTO   H54 4999   5.438  -1.571  -0.145 -1.5894 -0.4546 -0.5793
   12CHTO   O20 5000   5.587  -1.706  -0.186 -0.1436 -0.0965 -0.0218
   12CHTO   H36 5001   5.580  -1.723  -0.278  0.3753 -0.9254  0.0862
   12CHTO   C30 5002   5.347  -1.761  -0.193  0.1596 -0.5486 -0.3126
   12CHTO   H58 5003   5.368  -1.869  -0.183 -0.7908 -0.6668  0.5572
   12CHTO    N6 5004   5.325  -1.711  -0.329 -0.3740  0.4584 -0.4753
   12CHTO   H45 5005   5.375  -1.782  -0.394  0.3055  1.0678 -0.6187
   12CHTO   H46 5006   5.368  -1.613  -0.343 -1.1760  0.8947  0.1046
   12CHTO   C33 5007   5.215  -1.756  -0.107 -0.6285  0.3494  0.5625
   12CHTO   H61 5008   5.176  -1.653  -0.117  0.3447  0.5211 -1.9172
   12CHTO   O18 5009   5.245  -1.789   0.032  0.4463 -0.0196  0.8190
   12CHTO   C28 5010   5.335  -1.699   0.097 -0.0292 -0.2679 -0.0354
   12CHTO   H56 5011   5.296  -1.599   0.080  0.2916 -0.4930 -2.2980
   12CHTO   C35 5012   5.352  -1.730   0.247 -0.0109 -0.3398  0.9555
   12CHTO   O24 5013   5.234  -1.696   0.319  0.3202  0.0944  0.2000
   12CHTO   H39 5014   5.237  -1.608   0.349  1.2269  0.2883 -0.4183
   12CHTO    O9 5015   5.108  -1.836  -0.155 -0.0869 -0.4789 -0.0076
   12CHTO   C13 5016   5.128  -2.005  -0.140 -0.6041 -0.1631 -0.1003
   12CHTO   H26 5017   5.221  -2.019  -0.081 -0.3317 -2.7173 -1.0672
   12CHTO   C11 5018   5.141  -2.077  -0.279  0.1294  0.3524 -0.4597
   12CHTO   H24 5019   5.240  -2.052  -0.320  0.4808 -0.1812  0.0539
   12CHTO    O8 5020   5.040  -2.024  -0.368  0.1089 -0.2893 -0.8043
   12CHTO    H3 5021   4.983  -1.962  -0.325 -1.7881 -0.7822 -2.5340
   12CHTO    C9 5022   5.130  -2.235  -0.268  0.2235 -0.1658  0.3101
   12CHTO   H22 5023   5.213  -2.258  -0.199 -0.4633 -0.2817  1.1137
   12CHTO    N2 5024   5.168  -2.304  -0.390  0.0918  0.2982  0.8814
   12CHTO   H10 5025   5.091  -2.289  -0.464  0.6759 -1.0014 -0.0231
   12CHTO   H11 5026   5.164  -2.410  -0.369  0.2756 -0.1824 -1.2990
   12CHTO    C7 5027   4.997  -2.266  -0.185  0.1491  0.0010  0.1843
   12CHTO   H20 5028   5.032  -2.341  -0.111 -0.5527  0.4939  1.0309
   12CHTO    O4 5029   4.932  -2.152  -0.124  0.0813  0.2355 -0.0271
   12CHTO   C14 5030   5.016  -2.068  -0.051  0.7938  0.2410  0.6552
   12CHTO   H27 5031   5.062  -2.134   0.025 -1.4754  0.1747  2.0110
   12CHTO   C18 5032   4.941  -1.955   0.029  0.7658  0.2040  0.4663
   12CHTO   O13 5033   4.856  -2.012   0.126  0.9071 -0.0307  0.3481
   12CHTO    H7 5034   4.889  -1.987   0.211 -1.1754 -0.1497  1.2084
   12CHTO    O2 5035   4.878  -2.336  -0.287 -0.5924 -0.1549  1.5388
   12CHTO    C1 5036   4.823  -2.460  -0.244  0.1663  0.5029  0.1992
   12CHTO   H14 5037   4.819  -2.458  -0.133  0.8949 -1.9412  0.3002
   12CHTO    C2 5038   4.910  -2.590  -0.289  0.1220 -0.1835  0.2605
   12CHTO   H15 5039   4.940  -2.572  -0.393  2.1941 -1.8543  0.5639
   12CHTO    O6 5040   5.025  -2.600  -0.201  0.1715  0.2660 -0.3493
   12CHTO    H1 5041   5.104  -2.580  -0.248  0.0190  3.7302  0.7104
   12CHTO    C3 5042   4.833  -2.731  -0.267 -0.2662 -0.0900  0.0986
   12CHTO   H16 5043   4.837  -2.754  -0.159  0.7518 -1.7783 -0.2723
   12CHTO    N1 5044   4.904  -2.842  -0.340  0.3630  0.0091 -0.1443
   12CHTO    H8 5045   4.948  -2.904  -0.264  0.0732 -0.3194 -0.2410
   12CHTO    H9 5046   4.988  -2.806  -0.399  0.1931 -2.3819 -1.9111
   12CHTO    C4 5047   4.685  -2.717  -0.303 -0.0534 -0.1862 -0.0349
   12CHTO   H17 5048   4.670  -2.721  -0.411 -0.0972 -1.8645  0.0191
   12CHTO    O1 5049   4.624  -2.602  -0.253  0.3918  0.0127 -0.3896
   12CHTO    C5 5050   4.677  -2.474  -0.288  0.0183  0.5962 -0.7579
   12CHTO   H18 5051   4.665  -2.464  -0.396  1.8282  2.4596 -0.7981
   12CHTO   C16 5052   4.596  -2.368  -0.218 -0.7406  0.7081  0.0885
   12CHTO   O11 5053   4.495  -2.323  -0.305 -0.1669 -0.1238 -0.0904
   12CHTO    H5 5054   4.407  -2.350  -0.286 -1.0509  2.1092 -0.7620
   12CHTO    O3 5055   4.609  -2.820  -0.244 -0.0717  0.6971 -0.3138
   12CHTO    C6 5056   4.504  -2.887  -0.328  0.1061  0.5347  0.5539
   12CHTO   H19 5057   4.447  -2.817  -0.389  0.1406 -0.5318 -0.7233
   12CHTO    C8 5058   4.554  -3.010  -0.417  0.3604 -0.5752  0.5463
   12CHTO   H21 5059   4.609  -3.077  -0.351  0.9582 -1.3252 -0.6867
   12CHTO    O7 5060   4.638  -2.953  -0.515  0.4032 -0.5088  1.1869
   12CHTO    H2 5061   4.722  -2.993  -0.503  0.6442  0.0126  1.2689
   12CHTO   C12 5062   4.424  -3.078  -0.485  0.1539 -0.3519 -0.0149
   12CHTO   H25 5063   4.382  -2.993  -0.543  2.2900  1.0016  0.3821
   12CHTO    N3 5064   4.458  -3.195  -0.571  0.7401 -0.2490 -0.3490
   12CHTO   H12 5065   4.511  -3.161  -0.658  0.1713  1.1011 -0.1782
   12CHTO   H13 5066   4.374  -3.254  -0.604  0.4546  0.8255 -1.5591
   12CHTO   C15 5067   4.321  -3.112  -0.373 -0.6577 -0.3547  0.2152
   12CHTO   H28 5068   4.354  -3.199  -0.315 -1.9448 -0.8229  0.2489
   12CHTO   O10 5069   4.176  -3.137  -0.435 -0.4134 -0.0247  0.1200
   12CHTO    H4 5070   4.158  -3.229  -0.429 -1.8038  0.3687  3.1883
   12CHTO    O5 5071   4.294  -3.002  -0.288  0.1862 -0.2103 -0.5502
   12CHTO   C10 5072   4.407  -2.944  -0.220  0.1904 -0.0049 -0.3338
   12CHTO   H23 5073   4.448  -3.026  -0.161  1.1224  1.5116  1.1919
   12CHTO   C17 5074   4.363  -2.847  -0.113 -0.7165  0.1294 -0.7552
   12CHTO   O12 5075   4.322  -2.725  -0.166  0.4915 -0.5010 -0.2216
   12CHTO    H6 5076   4.333  -2.653  -0.107 -0.3621  0.4919 -1.2476
   13CHTO  H203 5077   7.548   3.438   1.762  0.5760  2.0516 -1.2305
   13CHTO   O82 5078   7.458   3.465   1.762  0.0062  0.2313  0.2277
   13CHTO  C123 5079   7.472   3.590   1.686 -0.1563  0.1639  0.1890
   13CHTO  H227 5080   7.501   3.562   1.583 -0.7519  0.6612 -0.1173
   13CHTO   O77 5081   7.332   3.633   1.680  0.4595 -0.1252  0.0782
   13CHTO  C118 5082   7.321   3.759   1.609  0.6195 -0.1469  0.1853
   13CHTO  H222 5083   7.361   3.762   1.507  0.0262 -0.2814 -0.0556
   13CHTO  C125 5084   7.166   3.777   1.604 -0.5619  0.4824  0.4679
   13CHTO   O84 5085   7.099   3.660   1.557 -0.0808 -0.1604 -0.1898
   13CHTO  H205 5086   7.006   3.664   1.569 -0.0380 -0.8903  0.4498
   13CHTO  C114 5087   7.391   3.871   1.686 -0.5595 -0.0319 -0.0001
   13CHTO  H218 5088   7.353   3.871   1.789 -0.8412  0.0589 -0.1027
   13CHTO  C116 5089   7.547   3.839   1.689 -0.3224 -0.5253 -0.0903
   13CHTO  H220 5090   7.598   3.837   1.590  0.4831  2.8679  0.1871
   13CHTO   O79 5091   7.607   3.946   1.765 -0.3063  0.2277  0.1912
   13CHTO  H201 5092   7.624   3.917   1.853  1.7840 -0.8007 -0.5268
   13CHTO  C120 5093   7.568   3.699   1.757  0.3156  0.3627 -0.1245
   13CHTO  H224 5094   7.543   3.708   1.865  1.7168 -0.6300  0.3061
   13CHTO   N21 5095   7.712   3.665   1.750  0.0897 -0.2794  0.3828
   13CHTO  H211 5096   7.734   3.620   1.654  0.9156  0.4949  0.1959
   13CHTO  H212 5097   7.744   3.603   1.832  0.6146  1.2514  1.3601
   13CHTO   O75 5098   7.357   3.995   1.617 -0.6866  0.1187 -0.1540
   13CHTO  C112 5099   7.291   4.103   1.713 -0.5122 -0.0391 -0.4736
   13CHTO  H216 5100   7.368   4.126   1.788 -0.8454  1.3799 -0.5523
   13CHTO   O73 5101   7.176   4.046   1.774 -0.0801  0.5035 -0.4800
   13CHTO  C113 5102   7.108   4.132   1.867  0.3434  0.3364  0.2711
   13CHTO  H217 5103   7.174   4.151   1.955 -1.5427 -0.1134  1.8300
   13CHTO  C124 5104   6.986   4.049   1.919  0.0028 -0.1630  0.2434
   13CHTO   O83 5105   6.902   4.115   2.013  0.0583 -0.0248 -0.6964
   13CHTO  H204 5106   6.874   4.199   1.983  0.2657  0.4068  0.2996
   13CHTO  C109 5107   7.068   4.263   1.791 -0.2254 -0.3867 -0.0045
   13CHTO  H213 5108   6.995   4.230   1.715 -0.5221  0.1279  0.0579
   13CHTO  C110 5109   7.194   4.331   1.737  0.0704  0.3227  0.0845
   13CHTO  H214 5110   7.266   4.353   1.815 -0.3422  1.0980  0.2466
   13CHTO   O78 5111   7.160   4.451   1.662 -0.5991 -0.4391  0.0431
   13CHTO  H200 5112   7.235   4.498   1.630  0.1706  0.5426  3.1032
   13CHTO  C111 5113   7.261   4.231   1.636 -0.6603 -0.8397 -0.0280
   13CHTO  H215 5114   7.194   4.209   1.551 -2.4175  1.7368  0.6463
   13CHTO   N19 5115   7.390   4.282   1.579  0.1241  0.2750 -0.7210
   13CHTO  H207 5116   7.365   4.376   1.531  0.5612  0.3502 -0.8037
   13CHTO  H208 5117   7.475   4.290   1.645 -1.0917  2.3213  0.6748
   13CHTO   O74 5118   7.001   4.351   1.886  0.4878  0.1062  0.1980
   13CHTO  C115 5119   6.898   4.462   1.825 -0.5641  0.1446 -0.0684
   13CHTO  H219 5120   6.950   4.527   1.755  1.2788 -0.3624  0.7950
   13CHTO   O76 5121   6.785   4.402   1.744  0.4191 -0.2479 -0.1061
   13CHTO  C122 5122   6.681   4.339   1.824 -1.0808  0.0920 -0.4639
   13CHTO  H226 5123   6.729   4.252   1.868  0.4396  1.6527  1.0710
   13CHTO  C126 5124   6.573   4.282   1.724  0.2587 -0.3042  0.1840
   13CHTO   O85 5125   6.455   4.232   1.781 -0.0780 -0.0307 -0.0221
   13CHTO  H206 5126   6.428   4.276   1.859  0.2304 -0.0174  0.0744
   13CHTO  C121 5127   6.629   4.434   1.942  0.1003  0.7979 -0.1083
   13CHTO  H225 5128   6.521   4.444   1.917  0.3049 -0.5858 -1.6216
   13CHTO   O81 5129   6.650   4.376   2.073 -0.2081 -0.5859 -0.0992
   13CHTO  H202 5130   6.577   4.379   2.132  0.4867 -0.6134  0.7863
   13CHTO  C119 5131   6.693   4.573   1.937  0.0837  0.3120 -0.2274
   13CHTO  H223 5132   6.669   4.624   1.844  0.9319 -0.1250 -0.6907
   13CHTO  C117 5133   6.849   4.560   1.941  0.0252  0.4089 -0.1866
   13CHTO  H221 5134   6.891   4.516   2.031  1.0642  0.6640 -0.5434
   13CHTO   N20 5135   6.916   4.696   1.936 -0.0758  0.0304 -0.3164
   13CHTO  H209 5136   6.900   4.757   2.024 -0.9275  2.6203 -2.1863
   13CHTO  H210 5137   7.022   4.677   1.936 -0.1111 -0.1921  1.0671
   13CHTO   O80 5138   6.637   4.685   2.067  0.4190 -0.5075  0.3294
   13CHTO  C103 5139   6.513   4.773   2.038  0.0952 -0.5510 -0.2248
   13CHTO  H190 5140   6.502   4.849   2.116  0.1123  0.0909 -0.8364
   13CHTO  C101 5141   6.508   4.862   1.908  0.0392 -0.3635  0.8971
   13CHTO  H188 5142   6.537   4.805   1.819  0.1244  1.9523 -0.6206
   13CHTO   O68 5143   6.640   4.953   1.921 -0.1156 -0.1720  0.1259
   13CHTO  H168 5144   6.628   5.015   1.991  1.2101  0.7416 -0.4290
   13CHTO   C99 5145   6.372   4.934   1.891 -0.0658  0.0467 -0.5180
   13CHTO  H186 5146   6.350   4.993   1.982  0.1437  1.0799 -1.1307
   13CHTO   N17 5147   6.368   5.030   1.779  0.2558 -0.4670  0.4760
   13CHTO  H174 5148   6.275   5.076   1.750  0.7365  0.4085  0.2653
   13CHTO  H175 5149   6.424   4.990   1.696 -1.8342 -0.5557 -0.9221
   13CHTO   C97 5150   6.260   4.825   1.886 -0.3869 -0.0175 -0.3950
   13CHTO  H184 5151   6.272   4.760   1.798  1.1421  1.2270 -1.1296
   13CHTO   O64 5152   6.259   4.748   2.013  0.3092 -0.1720  0.0620
   13CHTO  C104 5153   6.387   4.679   2.046  0.6499  0.2018  0.2399
   13CHTO  H191 5154   6.402   4.601   1.971  0.4779  0.6660 -0.2765
   13CHTO  C108 5155   6.372   4.603   2.176 -0.2340 -0.1671 -0.2166
   13CHTO   O71 5156   6.308   4.478   2.157  0.4682  0.1840 -0.6968
   13CHTO  H171 5157   6.358   4.413   2.202 -2.0423 -1.0223  0.4877
   13CHTO   O62 5158   6.124   4.876   1.888 -0.1772  0.2391 -0.0264
   13CHTO   C91 5159   6.015   4.794   1.841 -0.0474 -0.5346  0.2271
   13CHTO  H178 5160   6.040   4.689   1.860  2.7953  0.3289  1.6207
   13CHTO   C92 5161   5.983   4.803   1.689  0.3931 -0.5988 -0.0245
   13CHTO  H179 5162   5.975   4.910   1.666  1.2678 -0.2754  1.1224
   13CHTO   O66 5163   6.097   4.767   1.620 -0.4612 -0.3448  0.6619
   13CHTO  H166 5164   6.070   4.719   1.544  2.1478  1.0518 -1.2220
   13CHTO   C93 5165   5.850   4.722   1.648 -0.0514  0.1724  0.0200
   13CHTO  H180 5166   5.877   4.623   1.687  0.0736  0.7909  1.5276
   13CHTO   N16 5167   5.807   4.712   1.507 -0.6346 -0.4836  0.1425
   13CHTO  H172 5168   5.881   4.646   1.465  0.8218  0.5808  0.9671
   13CHTO  H173 5169   5.708   4.671   1.503 -0.6401 -0.6355  1.4626
   13CHTO   C94 5170   5.734   4.787   1.735 -0.2797 -0.4738  0.3271
   13CHTO  H181 5171   5.732   4.896   1.732 -0.8687 -0.4849  0.3152
   13CHTO   O61 5172   5.762   4.765   1.873 -0.4132 -0.0835 -0.2927
   13CHTO   C95 5173   5.882   4.825   1.926 -0.5156  0.1737  0.3063
   13CHTO  H182 5174   5.857   4.929   1.950  0.3990  0.3255  0.6298
   13CHTO  C106 5175   5.905   4.764   2.069 -0.4694  0.0583 -0.5242
   13CHTO   O69 5176   5.805   4.803   2.165  0.4739 -0.7512 -0.2020
   13CHTO  H169 5177   5.804   4.750   2.242  0.5033 -0.6603 -0.1404
   13CHTO   O63 5178   5.583   4.710   1.702  0.0007 -0.4167  0.2441
   13CHTO   C96 5179   5.466   4.779   1.777 -0.0348 -0.4107 -0.3975
   13CHTO  H183 5180   5.471   4.886   1.757  1.0386 -0.6109 -1.2252
   13CHTO   C98 5181   5.445   4.744   1.931  0.0272 -0.6318 -0.0927
   13CHTO  H185 5182   5.538   4.770   1.983 -1.3594  0.1155  2.0947
   13CHTO   O67 5183   5.339   4.826   1.986  0.0904 -0.4053  0.0410
   13CHTO  H167 5184   5.340   4.912   1.948 -1.6278 -0.7002 -0.6918
   13CHTO  C102 5185   5.405   4.594   1.960  0.4208  0.4825 -0.0006
   13CHTO  H189 5186   5.356   4.591   2.058 -0.3815 -0.7797 -0.4299
   13CHTO   N18 5187   5.516   4.499   1.960 -0.2161 -0.8555 -0.5557
   13CHTO  H176 5188   5.590   4.525   2.033 -1.1571  2.1664 -0.5821
   13CHTO  H177 5189   5.558   4.485   1.861  0.5203  0.9672 -0.5270
   13CHTO  C105 5190   5.295   4.548   1.859 -0.2187 -0.4117 -0.1068
   13CHTO  H192 5191   5.334   4.482   1.781 -2.7731  0.4935 -2.2105
   13CHTO   O65 5192   5.238   4.661   1.791 -0.0677 -0.1399  0.3261
   13CHTO  C100 5193   5.334   4.724   1.702 -0.0127 -0.2391 -0.1851
   13CHTO  H187 5194   5.368   4.644   1.635 -0.8216 -0.4119 -0.4021
   13CHTO  C107 5195   5.271   4.846   1.625  0.2293 -0.6168 -0.8407
   13CHTO   O70 5196   5.183   4.786   1.528  0.2697 -0.3843 -0.3581
   13CHTO  H170 5197   5.134   4.854   1.486  1.6244 -0.6075 -2.3496
   13CHTO   O57 5198   5.177   4.475   1.944  0.2854  0.2475  0.7247
   13CHTO   C85 5199   5.085   4.381   1.894  0.3786  0.4785 -0.1093
   13CHTO  H157 5200   5.074   4.406   1.786  0.5475  0.0667 -0.2232
   13CHTO   C83 5201   4.943   4.401   1.961  0.0862  0.5871  0.0915
   13CHTO  H155 5202   4.908   4.494   1.915  2.0299  0.1045 -2.4757
   13CHTO   O56 5203   4.954   4.405   2.106 -0.0983  0.1122  0.2831
   13CHTO  H135 5204   4.932   4.490   2.139 -1.4093  0.5184 -1.5328
   13CHTO   C81 5205   4.851   4.286   1.915  0.2758 -0.1083  0.3656
   13CHTO  H153 5206   4.851   4.284   1.806 -1.4431  0.2160  0.3563
   13CHTO   N14 5207   4.710   4.306   1.949  0.4375  0.6601  0.1475
   13CHTO  H141 5208   4.697   4.317   2.054 -3.5871  3.5373 -0.5616
   13CHTO  H142 5209   4.645   4.226   1.920 -0.0153  0.6278  1.2541
   13CHTO   C79 5210   4.908   4.152   1.968 -0.7551  0.1519 -0.4663
   13CHTO  H151 5211   4.845   4.072   1.930 -1.4161 -0.1080  1.1388
   13CHTO   O52 5212   5.037   4.131   1.904 -0.5233  0.1829  0.1687
   13CHTO   C86 5213   5.138   4.231   1.914  0.1737 -0.1779  0.3848
   13CHTO  H158 5214   5.175   4.220   2.018  1.5338  0.3503 -0.0348
   13CHTO   C90 5215   5.256   4.194   1.821 -0.3604 -0.4167 -1.0189
   13CHTO   O60 5216   5.234   4.219   1.683 -0.0822 -0.3126 -0.2407
   13CHTO  H138 5217   5.244   4.310   1.665  0.0773 -0.4886 -1.0902
   13CHTO   O50 5218   4.904   4.140   2.112  0.4320  0.1866 -0.3332
   13CHTO   C73 5219   4.892   4.053   2.229 -0.6668  0.6380 -0.5105
   13CHTO  H145 5220   4.901   3.950   2.193 -0.9268  0.8562 -1.2153
   13CHTO   C74 5221   4.759   4.059   2.322  0.8147 -0.3156 -0.1322
   13CHTO  H146 5222   4.678   4.017   2.261  1.1602 -1.5283  0.2325
   13CHTO   O54 5223   4.774   3.964   2.429 -0.6166  0.1966 -0.1788
   13CHTO  H133 5224   4.718   3.989   2.500 -1.0832  1.3970 -0.9420
   13CHTO   C75 5225   4.738   4.205   2.361  1.1378 -0.0568 -0.2871
   13CHTO  H147 5226   4.730   4.262   2.267 -0.4629 -2.1797 -1.4959
   13CHTO   N13 5227   4.613   4.235   2.436 -0.2640 -0.9476 -0.2939
   13CHTO  H139 5228   4.602   4.161   2.514 -0.5928 -0.2740  0.3080
   13CHTO  H140 5229   4.528   4.214   2.373 -0.6107 -0.4553 -0.0017
   13CHTO   C76 5230   4.872   4.267   2.428 -0.2214 -0.5808 -0.2224
   13CHTO  H148 5231   4.882   4.226   2.528  0.8957  3.2175  1.3001
   13CHTO   O49 5232   4.994   4.238   2.355  0.0468  0.2187  0.0537
   13CHTO   C77 5233   5.002   4.096   2.331 -0.4639  0.6459 -0.3682
   13CHTO  H149 5234   5.001   4.040   2.424  0.2875  1.2186 -0.0172
   13CHTO   C88 5235   5.141   4.064   2.266  0.2743  0.0952 -0.5894
   13CHTO   O58 5236   5.252   4.112   2.349 -0.0144 -0.2476 -0.5108
   13CHTO  H136 5237   5.330   4.093   2.299  0.8431  1.9704 -0.0606
   13CHTO   O51 5238   4.863   4.437   2.419  0.1475 -0.4817  0.2598
   13CHTO   C78 5239   4.962   4.491   2.535  0.0527 -0.3100 -0.2195
   13CHTO  H150 5240   5.026   4.406   2.569  0.1257 -0.4435 -0.6856
   13CHTO   C80 5241   4.883   4.556   2.647  0.1737 -0.4607 -0.9587
   13CHTO  H152 5242   4.810   4.628   2.606  1.0188  1.8850  1.4693
   13CHTO   O55 5243   4.798   4.452   2.701  0.2107 -0.4491  0.2372
   13CHTO  H134 5244   4.747   4.486   2.772 -1.4147 -0.0627 -1.0625
   13CHTO   C84 5245   4.976   4.632   2.757  0.4759  0.3543  0.0202
   13CHTO  H156 5246   5.023   4.551   2.814  0.4110 -0.2109 -0.7243
   13CHTO   N15 5247   4.893   4.699   2.864 -0.6572 -0.7261  1.1289
   13CHTO  H143 5248   4.812   4.758   2.826 -0.7911 -1.2847  0.5377
   13CHTO  H144 5249   4.953   4.755   2.932 -0.2810 -1.0290  1.0423
   13CHTO   C87 5250   5.090   4.718   2.695  0.2210 -0.0126 -0.8138
   13CHTO  H159 5251   5.040   4.811   2.668  0.1767  0.1217 -0.2696
   13CHTO   O53 5252   5.153   4.647   2.565  0.1116  0.1401  0.0074
   13CHTO   C82 5253   5.057   4.595   2.472  0.5271 -0.0996  0.1053
   13CHTO  H154 5254   4.998   4.676   2.426  0.3246  0.2657  1.0006
   13CHTO   C89 5255   5.138   4.526   2.361 -0.2004 -0.4894 -0.4890
   13CHTO   O59 5256   5.198   4.623   2.275 -0.4137  0.3163 -0.2767
   13CHTO  H137 5257   5.248   4.580   2.208 -1.1155  0.5927 -0.9828
   13CHTO   O45 5258   5.207   4.762   2.804 -0.2985 -0.3043  0.0788
   13CHTO   C67 5259   5.317   4.669   2.806 -0.0435  0.0476 -0.2821
   13CHTO  H124 5260   5.274   4.571   2.784 -1.6383  0.6769 -0.0656
   13CHTO   C65 5261   5.420   4.698   2.694  0.5664 -0.0683 -0.2171
   13CHTO  H122 5262   5.370   4.766   2.626 -0.5803 -0.4160  0.2688
   13CHTO   O44 5263   5.472   4.583   2.626  0.3385 -0.0018 -0.2338
   13CHTO  H102 5264   5.533   4.530   2.674  1.4935 -0.5214 -2.2281
   13CHTO   C63 5265   5.529   4.793   2.751  0.4297 -0.3444  0.1404
   13CHTO  H120 5266   5.478   4.870   2.809 -0.2019 -0.1122 -0.7155
   13CHTO   N11 5267   5.611   4.865   2.646 -0.7681  0.0519  0.0627
   13CHTO  H108 5268   5.676   4.795   2.599  0.6306  1.4219 -0.0862
   13CHTO  H109 5269   5.558   4.920   2.570  1.4932 -1.6499 -2.8543
   13CHTO   C61 5270   5.609   4.715   2.868  0.7215  0.1545  0.0825
   13CHTO  H118 5271   5.651   4.789   2.937 -0.6599  1.7793 -0.7822
   13CHTO   O40 5272   5.524   4.615   2.945 -0.7617  0.5509  0.5679
   13CHTO   C68 5273   5.384   4.653   2.953 -0.0576 -0.0322  0.1966
   13CHTO  H125 5274   5.378   4.751   3.005  1.6448 -0.6256  1.5609
   13CHTO   C72 5275   5.306   4.550   3.045 -0.9869 -0.4764  0.3188
   13CHTO   O48 5276   5.170   4.586   3.074  0.1056 -0.3112  0.0548
   13CHTO  H105 5277   5.128   4.520   3.126  2.3421 -0.9499  1.0766
   13CHTO   O38 5278   5.710   4.626   2.809  0.4380  0.3965 -0.4062
   13CHTO   C55 5279   5.829   4.574   2.883 -0.1531 -0.4748  0.3449
   13CHTO  H112 5280   5.895   4.520   2.813  0.5246 -0.4991  0.9900
   13CHTO   C56 5281   5.791   4.488   3.011  0.3230  0.4828  0.1643
   13CHTO  H113 5282   5.716   4.540   3.072  0.4421  3.1891 -1.9083
   13CHTO   O42 5283   5.731   4.367   2.964 -0.2562 -0.4644  0.0981
   13CHTO  H100 5284   5.687   4.319   3.032 -0.8109 -1.6080 -1.0689
   13CHTO   C57 5285   5.919   4.458   3.093  0.1623 -0.0315 -0.4694
   13CHTO  H114 5286   5.984   4.394   3.033 -1.7021 -0.3713 -2.1797
   13CHTO   N10 5287   5.893   4.390   3.226  0.9576  0.5819  0.1604
   13CHTO  H106 5288   5.890   4.282   3.226 -0.4525  0.6172  0.2172
   13CHTO  H107 5289   5.814   4.433   3.286  2.3672  3.2799  0.1669
   13CHTO   C58 5290   6.008   4.589   3.121 -0.2289 -0.3930  0.4186
   13CHTO  H115 5291   5.951   4.648   3.196 -0.9736 -1.3068  0.5869
   13CHTO   O37 5292   6.037   4.661   3.001 -0.5002  0.0533 -0.4329
   13CHTO   C59 5293   5.925   4.693   2.915  0.9579  0.6084 -0.2104
   13CHTO  H116 5294   5.867   4.771   2.964  1.6738 -0.3573  2.2160
   13CHTO   C70 5295   5.982   4.763   2.788  0.5005  0.3809  0.0668
   13CHTO   O46 5296   6.053   4.882   2.808  0.2775 -0.1787  0.2259
   13CHTO  H103 5297   5.989   4.950   2.809  0.4325 -0.0407  1.5514
   13CHTO   O39 5298   6.146   4.551   3.175 -0.0639  0.2700  0.0535
   13CHTO   C60 5299   6.210   4.649   3.270  0.3314  0.1522 -0.0503
   13CHTO  H117 5300   6.221   4.749   3.229  1.4960  1.0365  2.3767
   13CHTO   C62 5301   6.130   4.658   3.402  0.7995 -0.1647  0.7310
   13CHTO  H119 5302   6.036   4.710   3.378  1.5789  0.4739 -1.0075
   13CHTO   O43 5303   6.114   4.526   3.451  0.1618  0.2160 -0.0080
   13CHTO  H101 5304   6.194   4.482   3.475  0.6267  1.2017  0.2467
   13CHTO   C66 5305   6.209   4.760   3.495 -0.1305  0.1468 -0.2935
   13CHTO  H123 5306   6.209   4.856   3.443  0.2264 -1.1669 -2.7665
   13CHTO   N12 5307   6.146   4.795   3.623 -0.3022  0.4539 -0.0512
   13CHTO  H110 5308   6.177   4.728   3.702  1.6802  0.2912 -0.9459
   13CHTO  H111 5309   6.040   4.811   3.615 -0.1605  0.5118 -2.4324
   13CHTO   C69 5310   6.356   4.719   3.518 -0.1274  0.0162  0.4211
   13CHTO  H126 5311   6.369   4.628   3.581  2.0192  0.9876  1.4788
   13CHTO   O41 5312   6.419   4.695   3.368 -0.0360 -0.0969  0.6527
   13CHTO   C64 5313   6.359   4.597   3.298 -0.2273 -0.2246  0.3961
   13CHTO  H121 5314   6.358   4.511   3.368  0.5263  0.0757  0.7830
   13CHTO   C71 5315   6.447   4.560   3.178 -0.4355  0.5990 -0.0649
   13CHTO   O47 5316   6.551   4.470   3.221  0.1054 -0.3983 -0.0579
   13CHTO  H104 5317   6.592   4.413   3.158 -0.9041 -1.3483  0.1164
   13CHTO   O34 5318   6.428   4.824   3.570  0.1065  0.2462  0.1579
   13CHTO   C49 5319   6.557   4.893   3.581 -0.8406  0.2831  0.6948
   13CHTO   H91 5320   6.629   4.811   3.578 -0.5552  0.6047 -1.8997
   13CHTO   C47 5321   6.552   4.965   3.714 -0.3594 -0.2311 -0.3330
   13CHTO   H89 5322   6.657   5.002   3.719 -0.9400  1.4456 -0.4563
   13CHTO   O33 5323   6.532   4.870   3.813  0.1955 -0.0262 -0.1755
   13CHTO   H70 5324   6.593   4.800   3.798  0.0120 -0.1728 -0.2432
   13CHTO   C45 5325   6.440   5.086   3.706 -0.7318  0.8179 -0.0994
   13CHTO   H87 5326   6.345   5.047   3.744  0.4495 -0.5233  1.6010
   13CHTO    N8 5327   6.485   5.192   3.789  0.0312  0.3451  0.2524
   13CHTO   H75 5328   6.465   5.167   3.892 -1.2059  2.7092  0.6445
   13CHTO   H76 5329   6.423   5.281   3.783 -2.3515 -1.1762  1.3562
   13CHTO   C43 5330   6.408   5.126   3.549 -0.1634 -0.0002 -0.0079
   13CHTO   H85 5331   6.332   5.056   3.515 -1.6720  0.9539  1.3097
   13CHTO   O29 5332   6.532   5.124   3.469  0.2177 -0.3695 -0.0106
   13CHTO   C50 5333   6.586   4.987   3.464  0.0422 -0.1873  0.3088
   13CHTO   H92 5334   6.551   4.933   3.375  1.9261 -0.4627 -0.3002
   13CHTO   C54 5335   6.734   4.986   3.441 -0.6168 -0.1767 -0.1016
   13CHTO   O36 5336   6.769   5.012   3.301  0.0084  0.0228  0.2367
   13CHTO   H72 5337   6.708   5.070   3.259 -0.7005 -0.5844  0.4261
   13CHTO   O27 5338   6.339   5.252   3.528 -0.5567 -0.5011  0.5484
   13CHTO   C37 5339   6.374   5.389   3.548  0.0902  0.6753 -0.3999
   13CHTO   H79 5340   6.402   5.410   3.653  2.2478  1.2249 -1.0605
   13CHTO   C38 5341   6.504   5.431   3.478  0.2810  0.7128  0.7842
   13CHTO   H80 5342   6.503   5.388   3.376 -2.1331  1.1300  0.5946
   13CHTO   O31 5343   6.610   5.368   3.557  0.2980  0.6365  0.0156
   13CHTO   H68 5344   6.632   5.281   3.529  0.4073 -0.2836  2.8000
   13CHTO   C39 5345   6.532   5.584   3.456 -0.0629  0.5791 -0.2574
   13CHTO   H81 5346   6.554   5.622   3.556  0.8748  1.6925 -0.8835
   13CHTO    N7 5347   6.646   5.613   3.370 -0.2328  0.0413  0.8961
   13CHTO   H73 5348   6.625   5.556   3.280 -0.2095 -0.1942  1.0385
   13CHTO   H74 5349   6.735   5.560   3.402  0.1870  0.1631 -0.0461
   13CHTO   C40 5350   6.400   5.643   3.403 -0.1855 -0.9113  0.2391
   13CHTO   H82 5351   6.368   5.597   3.309  0.5253 -0.9185  0.0006
   13CHTO   O26 5352   6.300   5.628   3.506 -0.5020 -0.2067  0.0186
   13CHTO   C41 5353   6.265   5.485   3.510  0.2850 -0.0921 -0.1392
   13CHTO   H83 5354   6.222   5.471   3.410 -0.3893 -0.4065  0.1911
   13CHTO   C52 5355   6.145   5.458   3.609 -0.2714 -0.8186  0.4608
   13CHTO   O35 5356   6.012   5.509   3.540  0.2369  0.0850 -0.5227
   13CHTO   H71 5357   5.932   5.500   3.588 -0.8787  1.1694 -2.1055
   13CHTO   O28 5358   6.399   5.786   3.393 -0.1848 -0.1231  0.2473
   13CHTO   C42 5359   6.351   5.866   3.276 -0.3779  0.8331  0.2198
   13CHTO   H84 5360   6.339   5.788   3.200 -1.2349 -1.1918  2.3733
   13CHTO   C44 5361   6.452   5.965   3.213  0.2631 -0.4193  0.3664
   13CHTO   H86 5362   6.498   6.028   3.288 -1.7977  1.5157  0.0491
   13CHTO   O32 5363   6.561   5.898   3.149 -0.0691 -0.0581 -0.4798
   13CHTO   H69 5364   6.539   5.877   3.060  0.2666  0.6887 -0.7388
   13CHTO   C48 5365   6.384   6.054   3.100  0.3340  0.0264 -0.8775
   13CHTO   H90 5366   6.387   5.995   3.008  2.4753  1.0167 -1.4597
   13CHTO    N9 5367   6.472   6.175   3.067 -0.4391  0.4207  0.4040
   13CHTO   H77 5368   6.461   6.215   2.967  0.8797 -0.7790 -0.2324
   13CHTO   H78 5369   6.576   6.150   3.080 -0.5811  0.4764  1.7446
   13CHTO   C51 5370   6.235   6.095   3.136 -0.2015 -0.1385  0.5970
   13CHTO   H93 5371   6.234   6.174   3.211 -1.3126  1.2290 -0.8135
   13CHTO   O30 5372   6.153   5.983   3.180  0.1085  0.0963 -0.4014
   13CHTO   C46 5373   6.209   5.932   3.303  0.1733  0.9218 -0.2228
   13CHTO   H88 5374   6.223   6.010   3.378 -2.4510  0.9003  0.3414
   13CHTO   C53 5375   6.098   5.846   3.355  0.1020 -0.4982  0.0998
   13CHTO   O72 5376   6.068   5.735   3.273 -0.1944  0.0385 -0.3196
   13CHTO  H199 5377   6.017   5.764   3.200  0.3700  2.4226  0.1983
   13CHTO   O22 5378   6.175   6.140   3.016 -0.7927 -0.2482 -0.1840
   13CHTO   C31 5379   6.065   6.240   3.006  0.3460  0.0134 -0.2489
   13CHTO   H59 5380   5.990   6.209   2.930 -0.9968  2.0781  0.1930
   13CHTO   C29 5381   5.982   6.267   3.135  0.0526  0.5341 -0.5622
   13CHTO   H57 5382   6.063   6.289   3.207  0.2475 -1.5995 -0.0710
   13CHTO   O21 5383   5.924   6.142   3.173  0.0975  0.0073 -0.9596
   13CHTO   H37 5384   5.883   6.152   3.257 -1.0368 -1.6369 -1.2937
   13CHTO   C27 5385   5.880   6.388   3.128 -0.8342  0.7975  0.2667
   13CHTO   H55 5386   5.799   6.362   3.059 -1.6237  0.1641  1.4053
   13CHTO    N5 5387   5.825   6.420   3.260 -0.4628  0.0628  0.0133
   13CHTO   H43 5388   5.905   6.465   3.317  0.0448 -1.2676  0.3592
   13CHTO   H44 5389   5.736   6.482   3.255 -0.4832  0.1256  0.9753
   13CHTO   C25 5390   5.959   6.507   3.063  0.3742  0.1053 -0.0377
   13CHTO   H53 5391   6.032   6.538   3.140 -0.0025  0.4741  0.1726
   13CHTO   O17 5392   6.020   6.473   2.943 -0.2254  0.1149  0.4227
   13CHTO   C32 5393   6.123   6.380   2.958 -0.0474 -0.3302  0.3505
   13CHTO   H60 5394   6.199   6.424   3.022  1.8667 -0.5027 -1.7411
   13CHTO   C36 5395   6.192   6.371   2.816  0.3119 -0.5015 -0.1811
   13CHTO   O25 5396   6.308   6.295   2.808 -0.6667  0.7776  0.0646
   13CHTO   H40 5397   6.349   6.290   2.724  0.4670 -0.8462  0.6736
   13CHTO   O15 5398   5.880   6.615   3.036  0.3560 -0.2287  0.5442
   13CHTO   C19 5399   5.762   6.670   2.966  0.8959  0.7591  0.2776
   13CHTO   H47 5400   5.785   6.775   2.943  1.3483  0.5673 -0.1365
   13CHTO   C20 5401   5.726   6.596   2.831  0.8166 -0.3730 -0.2672
   13CHTO   H48 5402   5.689   6.494   2.849 -0.6019  0.1254 -0.3021
   13CHTO   O19 5403   5.851   6.588   2.760  0.0896 -0.3670 -0.0330
   13CHTO   H35 5404   5.874   6.504   2.725 -0.3994 -0.5302  0.0387
   13CHTO   C21 5405   5.618   6.680   2.756  0.2002  0.4684  0.1045
   13CHTO   H49 5406   5.653   6.782   2.743 -0.3522  0.6178 -0.2487
   13CHTO    N4 5407   5.592   6.629   2.620 -0.0291 -0.6773 -0.2331
   13CHTO   H41 5408   5.513   6.685   2.572 -0.9136 -1.1158  0.7081
   13CHTO   H42 5409   5.557   6.529   2.640  0.2289 -0.3158  2.1566
   13CHTO   C22 5410   5.498   6.680   2.855 -0.0549 -0.0211  0.1246
   13CHTO   H50 5411   5.453   6.582   2.867 -0.5490 -0.3187 -3.4913
   13CHTO   O14 5412   5.525   6.735   2.983  0.6579 -0.1305 -0.1487
   13CHTO   C23 5413   5.631   6.669   3.049  0.2489  1.0657  0.1805
   13CHTO   H51 5414   5.599   6.568   3.078  1.5957  0.5392 -0.1420
   13CHTO   C34 5415   5.638   6.742   3.180 -0.1725  0.1025  0.0405
   13CHTO   O23 5416   5.710   6.863   3.177 -0.5801  0.5930 -0.1228
   13CHTO   H38 5417   5.650   6.930   3.151  0.5510  1.3219 -0.9432
   13CHTO   O16 5418   5.387   6.758   2.806  0.3644 -0.6495  0.4285
   13CHTO   C24 5419   5.247   6.724   2.885  0.0555  0.1243 -0.5527
   13CHTO   H52 5420   5.261   6.660   2.972  2.0145  0.9634 -0.2215
   13CHTO   C26 5421   5.144   6.670   2.792 -0.1322  0.4486  0.1684
   13CHTO   H54 5422   5.125   6.743   2.711  1.9520 -0.2049 -0.9317
   13CHTO   O20 5423   5.202   6.550   2.730 -0.0671  0.3800 -0.0226
   13CHTO   H36 5424   5.144   6.489   2.688 -1.6477  1.5386  0.4406
   13CHTO   C30 5425   5.009   6.642   2.866  0.8680  0.3334  0.1333
   13CHTO   H58 5426   5.018   6.557   2.935  1.4522 -0.7621 -1.2472
   13CHTO    N6 5427   4.907   6.604   2.770 -0.2911  0.0649 -0.4401
   13CHTO   H45 5428   4.903   6.655   2.675 -0.8665 -0.2711 -0.6000
   13CHTO   H46 5429   4.914   6.498   2.751 -0.7788  0.2464 -1.6812
   13CHTO   C33 5430   4.956   6.760   2.947  0.4976  0.2722  0.7338
   13CHTO   H61 5431   4.908   6.841   2.892  0.9269 -0.1403 -0.2586
   13CHTO   O18 5432   5.065   6.816   3.024  0.0173  0.0230  0.3061
   13CHTO   C28 5433   5.179   6.855   2.946 -0.5832 -0.0282  0.3187
   13CHTO   H56 5434   5.153   6.919   2.862 -1.7871 -0.7253  0.1600
   13CHTO   C35 5435   5.280   6.941   3.025 -0.0662  0.4383  0.2326
   13CHTO   O24 5436   5.222   7.047   3.091 -0.0937 -0.0722 -0.4437
   13CHTO   H39 5437   5.194   7.106   3.025  3.1194  1.2267 -0.7491
   13CHTO    O9 5438   4.851   6.713   3.035 -0.0951 -0.6285  0.2032
   13CHTO   C13 5439   4.881   6.637   3.186 -0.2659  0.0631  0.5403
   13CHTO   H26 5440   4.991   6.640   3.196 -0.2350 -0.9245  0.5252
   13CHTO   C11 5441   4.828   6.492   3.176 -0.4655  0.1637 -0.0559
   13CHTO   H24 5442   4.885   6.447   3.093 -0.3619 -0.9093  0.5956
   13CHTO    O8 5443   4.690   6.490   3.143 -0.3332  0.0975  0.3678
   13CHTO    H3 5444   4.657   6.403   3.133 -0.0351  0.0485 -0.1977
   13CHTO    C9 5445   4.866   6.415   3.306  0.0398  0.0305 -0.0786
   13CHTO   H22 5446   4.974   6.432   3.320 -0.3599  3.4342 -0.6798
   13CHTO    N2 5447   4.851   6.264   3.286 -0.4603 -0.1173  0.2619
   13CHTO   H10 5448   4.802   6.248   3.191  0.5043 -2.3617  0.1016
   13CHTO   H11 5449   4.796   6.231   3.373  2.2996 -1.4707  1.5706
   13CHTO    C7 5450   4.790   6.483   3.424 -0.4317  0.1271  0.0214
   13CHTO   H20 5451   4.841   6.429   3.506 -1.1859 -2.2783 -1.0360
   13CHTO    O4 5452   4.818   6.623   3.429  0.3119 -0.3326  0.2994
   13CHTO   C14 5453   4.822   6.705   3.312 -0.3593 -0.0701 -0.2536
   13CHTO   H27 5454   4.899   6.782   3.334  0.6576 -1.4666  1.1760
   13CHTO   C18 5455   4.688   6.778   3.279  0.4560  0.6236 -0.2559
   13CHTO   O13 5456   4.648   6.868   3.385 -0.2824 -0.4617  0.0356
   13CHTO    H7 5457   4.658   6.836   3.472 -1.9578 -0.6069  0.1877
   13CHTO    O2 5458   4.622   6.447   3.419 -0.0125 -0.3254 -0.1331
   13CHTO    C1 5459   4.556   6.442   3.546 -0.1211 -0.2041 -0.0574
   13CHTO   H14 5460   4.610   6.512   3.612 -0.6407 -0.3692  0.5477
   13CHTO    C2 5461   4.578   6.298   3.603 -0.4265 -0.1707  0.5857
   13CHTO   H15 5462   4.542   6.228   3.526 -0.6132  0.8726 -0.2803
   13CHTO    O6 5463   4.714   6.281   3.651  0.1505 -0.2646  0.3764
   13CHTO    H1 5464   4.733   6.353   3.709  0.8182  1.7672 -2.2692
   13CHTO    C3 5465   4.485   6.286   3.727  0.7763 -0.0778  0.1019
   13CHTO   H16 5466   4.531   6.351   3.803  0.4867  1.4428 -1.0005
   13CHTO    N1 5467   4.481   6.149   3.792 -0.4919 -0.6177  0.0599
   13CHTO    H8 5468   4.421   6.164   3.881 -2.3777  1.8007 -1.5348
   13CHTO    H9 5469   4.443   6.071   3.728 -0.3774  2.2157 -3.6410
   13CHTO    C4 5470   4.340   6.335   3.710 -0.4207  0.2719  0.0432
   13CHTO   H17 5471   4.287   6.264   3.646 -0.3609 -1.2249  1.6193
   13CHTO    O1 5472   4.336   6.469   3.649  0.4610 -0.2394 -0.2563
   13CHTO    C5 5473   4.404   6.484   3.524 -0.3424 -0.5918 -0.1035
   13CHTO   H18 5474   4.365   6.417   3.447 -2.9418 -0.7609  1.2915
   13CHTO   C16 5475   4.387   6.631   3.476  0.1664 -0.3921 -0.3790
   13CHTO   O11 5476   4.431   6.733   3.569 -0.7822 -0.2050  0.0163
   13CHTO    H5 5477   4.525   6.738   3.570 -0.8693  2.1060  2.0844
   13CHTO    O3 5478   4.282   6.371   3.840 -0.4786  0.5452 -1.0335
   13CHTO    C6 5479   4.140   6.330   3.844 -0.5350 -0.5102 -0.6301
   13CHTO   H19 5480   4.084   6.316   3.751 -2.2520  0.9906  0.1586
   13CHTO    C8 5481   4.105   6.200   3.934  0.8221  0.6346 -0.0201
   13CHTO   H21 5482   4.169   6.204   4.022  0.5247  1.5417  0.1656
   13CHTO    O7 5483   4.138   6.090   3.851 -0.1412  0.4384 -0.2795
   13CHTO    H2 5484   4.130   6.005   3.891  0.3212  1.5081  2.2159
   13CHTO   C12 5485   3.951   6.196   3.972  0.1302 -0.2805  0.2276
   13CHTO   H25 5486   3.899   6.172   3.877  0.7116  0.1187 -0.2004
   13CHTO    N3 5487   3.921   6.078   4.059 -0.2489  0.0296 -0.7702
   13CHTO   H12 5488   3.972   6.095   4.153 -1.9066  0.7050  0.0262
   13CHTO   H13 5489   3.815   6.060   4.069 -0.3753 -0.0875 -2.3219
   13CHTO   C15 5490   3.904   6.329   4.020 -0.0849  0.2172 -0.9683
   13CHTO   H28 5491   3.944   6.357   4.117 -3.8148 -2.5141  1.5369
   13CHTO   O10 5492   3.751   6.341   4.030 -0.1093  0.0672  0.2375
   13CHTO    H4 5493   3.723   6.264   4.074 -0.4116  0.2959  0.4467
   13CHTO    O5 5494   3.933   6.428   3.920 -0.1385 -0.4641 -0.0886
   13CHTO   C10 5495   4.077   6.453   3.907  0.0140  0.2537 -0.2967
   13CHTO   H23 5496   4.118   6.485   4.003 -1.3631  0.3953  0.2568
   13CHTO   C17 5497   4.082   6.577   3.817 -0.3373 -0.1534  0.1577
   13CHTO   O12 5498   4.044   6.710   3.868  0.1273  0.0023  0.0670
   13CHTO    H6 5499   3.951   6.723   3.878  0.7056  2.8421  2.0791
   14CHTO  H203 5500   5.547   4.363   2.748  0.2005 -1.0807  0.6630
   14CHTO   O82 5501   5.466   4.328   2.717 -0.0864  0.3632 -0.2789
   14CHTO  C123 5502   5.430   4.198   2.759 -0.5379 -0.3524  0.8992
   14CHTO  H227 5503   5.450   4.195   2.867  0.9579  0.7736  0.6693
   14CHTO   O77 5504   5.289   4.195   2.738  0.7923 -0.1891 -0.0007
   14CHTO  C118 5505   5.223   4.078   2.791 -0.2338 -0.3580  0.3554
   14CHTO  H222 5506   5.230   4.078   2.900  2.9006 -0.2885  0.1942
   14CHTO  C125 5507   5.074   4.101   2.747 -0.2000 -0.4004  0.1106
   14CHTO   O84 5508   5.007   4.221   2.798  0.1977 -0.2118  0.0580
   14CHTO  H205 5509   4.953   4.259   2.732 -0.8889  0.6349  1.4077
   14CHTO  C114 5510   5.284   3.954   2.722 -0.0877  0.1418  0.2277
   14CHTO  H218 5511   5.265   3.959   2.615  2.9614  1.2320 -0.3067
   14CHTO  C116 5512   5.440   3.953   2.731 -0.0673  0.1520  0.6878
   14CHTO  H220 5513   5.479   3.939   2.834  2.7671  1.3967 -0.1978
   14CHTO   O79 5514   5.492   3.852   2.651 -0.1955  0.0815 -0.2066
   14CHTO  H201 5515   5.453   3.767   2.653 -1.6553  0.7606  3.4357
   14CHTO  C120 5516   5.504   4.091   2.681  0.5088  0.2613 -1.1475
   14CHTO  H224 5517   5.489   4.114   2.573 -1.3656  0.7262 -0.8006
   14CHTO   N21 5518   5.647   4.092   2.716 -0.7147  0.2150  0.0959
   14CHTO  H211 5519   5.686   3.992   2.725 -0.1523  0.3584 -0.7377
   14CHTO  H212 5520   5.705   4.148   2.645 -0.1384  0.0165  0.4007
   14CHTO   O75 5521   5.217   3.846   2.793 -0.3496  0.1133 -0.4483
   14CHTO  C112 5522   5.126   3.726   2.702  0.0980 -0.3758 -0.4835
   14CHTO  H216 5523   5.124   3.631   2.758  0.6705 -0.7847 -1.1416
   14CHTO   O73 5524   5.195   3.709   2.571 -0.1040 -0.3085 -0.2465
   14CHTO  C113 5525   5.134   3.630   2.472 -0.4168  0.1679  0.6451
   14CHTO  H217 5526   5.133   3.525   2.508  0.5055 -0.4264 -1.0108
   14CHTO  C124 5527   5.228   3.638   2.353 -0.2312  0.2436 -0.4215
   14CHTO   O83 5528   5.360   3.598   2.366 -0.3028 -0.5753  0.5694
   14CHTO  H204 5529   5.386   3.585   2.276 -2.1481 -1.1223  0.0947
   14CHTO  C109 5530   4.989   3.676   2.449  0.3373  0.0947 -0.2585
   14CHTO  H213 5531   4.992   3.778   2.407  1.4413 -0.5389 -1.7620
   14CHTO  C110 5532   4.906   3.671   2.582  0.0820 -0.2075  0.5099
   14CHTO  H214 5533   4.906   3.569   2.621  1.1948 -0.0861  0.8570
   14CHTO   O78 5534   4.773   3.706   2.565  0.7087  0.1131 -0.1786
   14CHTO  H200 5535   4.720   3.630   2.547  0.8200 -0.3062  1.2358
   14CHTO  C111 5536   4.973   3.766   2.689 -0.0634  0.2865 -0.3490
   14CHTO  H215 5537   4.966   3.866   2.642 -2.5249  1.1018  1.6046
   14CHTO   N19 5538   4.904   3.774   2.817  0.7876 -0.9523 -0.5581
   14CHTO  H207 5539   4.796   3.778   2.812  0.8364 -0.9179 -1.8935
   14CHTO  H208 5540   4.939   3.857   2.875 -1.2754 -0.2233 -0.2953
   14CHTO   O74 5541   4.912   3.587   2.354  0.1853  0.1581  0.1875
   14CHTO  C115 5542   4.883   3.658   2.206 -0.1056  0.2229  0.6467
   14CHTO  H219 5543   4.886   3.767   2.210 -0.2206  0.1791  1.9461
   14CHTO   O76 5544   5.000   3.603   2.088 -0.0191  0.1042 -0.1949
   14CHTO  C122 5545   4.977   3.643   1.951  0.1106  0.2547  0.4900
   14CHTO  H226 5546   5.020   3.558   1.897 -2.1224 -0.7993  0.3316
   14CHTO  C126 5547   5.063   3.770   1.908  0.3205  0.1440 -0.2470
   14CHTO   O85 5548   5.195   3.768   1.966  0.1848 -0.5902 -0.5274
   14CHTO  H206 5549   5.204   3.773   2.059 -0.3091 -1.7240 -0.3996
   14CHTO  C121 5550   4.818   3.642   1.912 -0.0032  0.2035 -0.4214
   14CHTO  H225 5551   4.811   3.701   1.818  0.8514 -0.8362 -1.1417
   14CHTO   O81 5552   4.790   3.503   1.872  0.2694  0.8345  0.0557
   14CHTO  H202 5553   4.785   3.448   1.948 -2.7794 -0.7749 -1.1882
   14CHTO  C119 5554   4.720   3.706   2.018 -0.4771  0.4735  0.3868
   14CHTO  H223 5555   4.749   3.810   2.025 -1.1145  0.6997 -0.2463
   14CHTO  C117 5556   4.742   3.632   2.156 -0.6148 -0.2420 -0.7319
   14CHTO  H221 5557   4.738   3.523   2.157 -1.6615 -0.2253  1.3579
   14CHTO   N20 5558   4.643   3.676   2.263  0.3462  0.6260  0.4906
   14CHTO  H209 5559   4.650   3.784   2.273  1.2770  0.4454  1.9854
   14CHTO  H210 5560   4.549   3.631   2.236  0.4390  0.2516  0.7896
   14CHTO   O80 5561   4.569   3.716   1.969  0.2340  0.4065 -0.3963
   14CHTO  C103 5562   4.544   3.808   1.818  0.7073 -0.3175 -0.5503
   14CHTO  H190 5563   4.638   3.858   1.794  0.5190  1.6609  2.4748
   14CHTO  C101 5564   4.489   3.740   1.691 -0.1445 -0.1172 -0.2438
   14CHTO  H188 5565   4.403   3.683   1.725  0.5706 -0.7442  0.5214
   14CHTO   O68 5566   4.592   3.653   1.651  0.7922 -0.6068 -0.0176
   14CHTO  H168 5567   4.554   3.575   1.613  0.2227 -0.4237  0.1684
   14CHTO   C99 5568   4.441   3.838   1.580  0.9177 -0.6599  0.5272
   14CHTO  H186 5569   4.533   3.889   1.544  0.7782 -0.5113  0.3766
   14CHTO   N17 5570   4.363   3.773   1.467 -0.6038 -0.0788 -0.4293
   14CHTO  H174 5571   4.427   3.705   1.413  0.4534  1.3529 -1.0262
   14CHTO  H175 5572   4.279   3.717   1.505  1.2597 -2.1028  0.8047
   14CHTO   C97 5573   4.357   3.954   1.647 -0.6995 -0.0627  0.7585
   14CHTO  H184 5574   4.259   3.908   1.665 -0.5769 -0.4198  0.5233
   14CHTO   O64 5575   4.410   4.016   1.763 -0.3064  0.3531  0.2458
   14CHTO  C104 5576   4.439   3.917   1.861 -0.0560  0.1048 -0.2395
   14CHTO  H191 5577   4.343   3.869   1.879 -0.1482  0.5714  0.5427
   14CHTO  C108 5578   4.472   3.993   1.992 -0.7838 -0.0396 -0.0858
   14CHTO   O71 5579   4.448   3.914   2.111 -0.7524  0.1390  0.4852
   14CHTO  H171 5580   4.479   3.964   2.184  1.0091 -2.5396  1.6677
   14CHTO   O62 5581   4.339   4.062   1.558 -0.0933  0.0662 -0.0822
   14CHTO   C91 5582   4.210   4.124   1.547 -0.0025 -0.3976  0.5919
   14CHTO  H178 5583   4.128   4.052   1.546 -0.0356 -0.3555  0.2312
   14CHTO   C92 5584   4.207   4.199   1.406 -0.1173 -0.0068  0.0746
   14CHTO  H179 5585   4.298   4.181   1.346 -0.8412 -2.5373 -0.3006
   14CHTO   O66 5586   4.102   4.139   1.328  0.3170  0.0381 -0.0409
   14CHTO  H166 5587   4.102   4.166   1.238 -0.4595 -1.4838 -0.5078
   14CHTO   C93 5588   4.173   4.351   1.407 -0.3621 -0.4760  0.1505
   14CHTO  H180 5589   4.064   4.366   1.415 -0.2945  1.4346 -1.8556
   14CHTO   N16 5590   4.204   4.417   1.275  0.1213 -0.5307 -0.0698
   14CHTO  H172 5591   4.297   4.380   1.236  1.3293  0.3689  1.8977
   14CHTO  H173 5592   4.207   4.524   1.287  0.7552 -0.8046  2.4927
   14CHTO   C94 5593   4.243   4.412   1.533 -0.0461  0.0276 -0.5400
   14CHTO  H181 5594   4.346   4.377   1.540 -0.0064  0.0402 -1.0400
   14CHTO   O61 5595   4.169   4.355   1.641 -0.0849 -0.2228 -0.1028
   14CHTO   C95 5596   4.173   4.220   1.672 -0.2361 -0.1962  0.2198
   14CHTO  H182 5597   4.237   4.207   1.759  2.4777 -2.1967 -1.9596
   14CHTO  C106 5598   4.033   4.186   1.731  0.5896  0.2708  0.1753
   14CHTO   O69 5599   4.040   4.064   1.793  0.1894  0.2609 -0.0787
   14CHTO  H169 5600   3.951   4.036   1.805  0.6612 -0.9695  0.7226
   14CHTO   O63 5601   4.232   4.585   1.542 -0.1988 -0.0645 -0.0931
   14CHTO   C96 5602   4.342   4.656   1.632  0.8884  0.0008  0.3123
   14CHTO  H183 5603   4.322   4.763   1.640 -0.3407 -0.1437 -0.5291
   14CHTO   C98 5604   4.492   4.641   1.588 -0.7461  0.1214 -0.1876
   14CHTO  H185 5605   4.517   4.534   1.576 -1.5920 -0.2082  0.8542
   14CHTO   O67 5606   4.501   4.703   1.461  0.3038 -0.7688  0.2279
   14CHTO  H167 5607   4.478   4.794   1.466  0.5128 -0.5914 -1.5097
   14CHTO  C102 5608   4.595   4.705   1.691  0.0278 -0.4682 -0.0193
   14CHTO  H189 5609   4.572   4.813   1.685 -2.1513 -0.8048  1.8255
   14CHTO   N18 5610   4.745   4.693   1.661  0.2543 -0.1350 -0.0586
   14CHTO  H176 5611   4.777   4.597   1.623 -1.2913 -0.6018 -0.2578
   14CHTO  H177 5612   4.806   4.715   1.747 -0.5921  1.1781  0.2244
   14CHTO  C105 5613   4.565   4.654   1.835 -0.0492  0.1488 -0.6448
   14CHTO  H192 5614   4.599   4.551   1.843 -1.0724  0.0572  3.6929
   14CHTO   O65 5615   4.426   4.673   1.863  0.3833  0.1343  0.2129
   14CHTO  C100 5616   4.332   4.602   1.786 -0.3782 -0.0622 -0.1897
   14CHTO  H187 5617   4.352   4.494   1.785 -0.0524 -0.0086 -2.5670
   14CHTO  C107 5618   4.196   4.619   1.847  0.0948 -0.1129 -0.1500
   14CHTO   O70 5619   4.129   4.738   1.805 -0.6672  0.5346  0.0865
   14CHTO  H170 5620   4.192   4.802   1.777 -0.1883  0.8765  1.8826
   14CHTO   O57 5621   4.643   4.749   1.930  0.2090 -0.5070 -0.6411
   14CHTO   C85 5622   4.669   4.704   2.066 -0.1733 -0.6640  0.3011
   14CHTO  H157 5623   4.678   4.593   2.063 -0.4949 -0.6837  0.0901
   14CHTO   C83 5624   4.538   4.721   2.154 -0.8096 -0.0356 -0.0157
   14CHTO  H155 5625   4.471   4.650   2.107  1.1390 -0.4200 -2.3183
   14CHTO   O56 5626   4.492   4.854   2.137 -0.6237  0.2614 -0.4964
   14CHTO  H135 5627   4.398   4.853   2.136 -0.6182  0.3175 -1.4555
   14CHTO   C81 5628   4.576   4.681   2.299 -0.2424  0.5756 -1.4669
   14CHTO  H153 5629   4.612   4.578   2.300 -0.5568  0.4687  0.4682
   14CHTO   N14 5630   4.448   4.672   2.371  0.2933 -0.3475  0.5819
   14CHTO  H141 5631   4.364   4.707   2.316  1.2380 -0.8336 -1.2042
   14CHTO  H142 5632   4.449   4.717   2.468 -0.0815  1.2388 -0.1374
   14CHTO   C79 5633   4.695   4.776   2.353 -0.1231  0.2663  0.4109
   14CHTO  H151 5634   4.716   4.747   2.456 -4.7766  0.0313  1.4342
   14CHTO   O52 5635   4.817   4.755   2.277  0.4071 -0.7412  0.0817
   14CHTO   C86 5636   4.800   4.776   2.132 -0.4815  0.4862 -0.1083
   14CHTO  H158 5637   4.797   4.885   2.109  0.4370  0.5265 -0.0676
   14CHTO   C90 5638   4.940   4.732   2.085  0.1780  0.4093  0.1940
   14CHTO   O60 5639   4.971   4.790   1.957  0.4239 -0.1681 -0.2494
   14CHTO  H138 5640   5.053   4.754   1.931  1.4315  2.1365 -0.4172
   14CHTO   O50 5641   4.665   4.917   2.347 -0.8887 -0.2885 -0.7245
   14CHTO   C73 5642   4.699   5.056   2.377  0.0584  0.2836 -0.6865
   14CHTO  H145 5643   4.665   5.075   2.480 -0.0465  0.5184 -0.7643
   14CHTO   C74 5644   4.618   5.162   2.283  0.1696 -0.6335  0.1310
   14CHTO  H146 5645   4.512   5.132   2.293  0.1940 -0.3899  1.1841
   14CHTO   O54 5646   4.623   5.287   2.352 -0.3498 -0.5055 -0.2271
   14CHTO  H133 5647   4.573   5.350   2.304  1.0526  0.3422 -0.5916
   14CHTO   C75 5648   4.667   5.158   2.134  0.4311  0.6195 -0.2469
   14CHTO  H147 5649   4.641   5.059   2.094 -0.4674 -0.0531  1.9291
   14CHTO   N13 5650   4.603   5.259   2.046  0.1800  0.1489 -0.1945
   14CHTO  H139 5651   4.504   5.220   2.031 -0.5190  1.4656  0.8648
   14CHTO  H140 5652   4.594   5.355   2.095 -1.8662  0.7770 -1.7260
   14CHTO   C76 5653   4.819   5.174   2.134 -0.3149 -0.2772 -0.1273
   14CHTO  H148 5654   4.846   5.275   2.165 -2.0090  0.1054  0.1246
   14CHTO   O49 5655   4.890   5.077   2.225  0.3442 -0.0692 -0.3603
   14CHTO   C77 5656   4.850   5.082   2.366  0.9601  0.8519 -0.3339
   14CHTO  H149 5657   4.863   5.184   2.402 -1.6537  0.6403  1.3351
   14CHTO   C88 5658   4.935   4.987   2.444  0.3868  0.3732 -0.3266
   14CHTO   O58 5659   5.079   5.036   2.446  0.2844  0.0921  0.2652
   14CHTO  H136 5660   5.118   5.010   2.364  0.2303 -1.1351  0.6122
   14CHTO   O51 5661   4.851   5.121   1.985 -0.3332 -0.5190 -0.4801
   14CHTO   C78 5662   4.998   5.137   1.935  0.5491  0.2192 -0.7260
   14CHTO  H150 5663   5.051   5.040   1.943 -0.5008 -0.3790 -0.9477
   14CHTO   C80 5664   5.081   5.249   2.009  0.2087  0.1796  0.0174
   14CHTO  H152 5665   5.014   5.337   2.017  0.0786  0.3161 -2.1118
   14CHTO   O55 5666   5.102   5.198   2.139 -0.4520 -0.6301  0.3650
   14CHTO  H134 5667   5.177   5.234   2.184 -0.2894  1.1830 -1.3347
   14CHTO   C84 5668   5.214   5.290   1.944 -0.3018  0.0005 -0.0188
   14CHTO  H156 5669   5.273   5.199   1.947 -0.1738  0.0706 -0.3444
   14CHTO   N15 5670   5.286   5.399   2.013 -0.2526  0.3791  0.2429
   14CHTO  H143 5671   5.229   5.431   2.097 -0.1046  0.3699  0.3477
   14CHTO  H144 5672   5.300   5.481   1.946  1.8722 -0.3933 -0.3162
   14CHTO   C87 5673   5.187   5.326   1.796  0.0039  0.1765 -0.0089
   14CHTO  H159 5674   5.117   5.408   1.787 -0.2836  0.0547  1.0098
   14CHTO   O53 5675   5.116   5.192   1.733 -0.5218 -0.0333 -0.2003
   14CHTO   C82 5676   4.986   5.171   1.790 -0.2357 -0.2182  0.3335
   14CHTO  H154 5677   4.922   5.256   1.768 -1.6300 -1.7460 -1.7621
   14CHTO   C89 5678   4.937   5.051   1.704 -0.3853  0.0311 -0.5029
   14CHTO   O59 5679   4.949   5.070   1.560  0.2794 -0.1045 -0.3310
   14CHTO  H137 5680   5.028   5.032   1.525  0.5000  1.5413 -1.7083
   14CHTO   O45 5681   5.329   5.349   1.697 -0.3638 -0.6442  0.0787
   14CHTO   C67 5682   5.417   5.236   1.698 -0.5549 -0.5091  0.0804
   14CHTO  H124 5683   5.376   5.147   1.745 -1.3748  0.8938  2.1377
   14CHTO   C65 5684   5.467   5.197   1.553  0.1045 -0.0709 -0.1556
   14CHTO  H122 5685   5.373   5.193   1.499 -0.4335 -2.1992  0.9084
   14CHTO   O44 5686   5.529   5.067   1.557 -0.1150  0.4500 -0.4393
   14CHTO  H102 5687   5.593   5.066   1.488 -1.3339  2.1307 -1.6303
   14CHTO   C63 5688   5.554   5.318   1.488  0.2950 -0.1027 -0.0714
   14CHTO  H120 5689   5.494   5.408   1.487  0.4988  0.0293 -0.2878
   14CHTO   N11 5690   5.582   5.306   1.340  0.4517  0.5323 -0.1506
   14CHTO  H108 5691   5.637   5.390   1.304  1.1919  0.4454  0.7463
   14CHTO  H109 5692   5.635   5.213   1.330  0.5301  0.5612  0.0016
   14CHTO   C61 5693   5.683   5.331   1.579 -0.0892 -0.5889 -0.2116
   14CHTO  H118 5694   5.734   5.424   1.549 -0.4739  0.2962  1.8156
   14CHTO   O40 5695   5.648   5.349   1.714  0.3490 -0.3245  0.0695
   14CHTO   C68 5696   5.545   5.273   1.789  0.0134  0.1420  0.3091
   14CHTO  H125 5697   5.516   5.345   1.868  0.0813  0.8900 -0.3404
   14CHTO   C72 5698   5.613   5.147   1.854 -0.7841 -0.2256 -0.3427
   14CHTO   O48 5699   5.514   5.072   1.931  0.0195 -0.1323 -0.1467
   14CHTO  H105 5700   5.484   5.112   2.010 -3.4806 -0.0718 -1.4365
   14CHTO   O38 5701   5.777   5.224   1.565 -0.1595 -0.4289 -0.1536
   14CHTO   C55 5702   5.880   5.231   1.470 -0.0407 -0.0947  0.0207
   14CHTO  H112 5703   5.855   5.302   1.389 -1.8125  0.7991  1.3064
   14CHTO   C56 5704   5.897   5.088   1.411  0.4902 -0.9359 -0.3035
   14CHTO  H113 5705   5.907   5.016   1.494 -1.5812 -1.0058 -0.0800
   14CHTO   O42 5706   5.771   5.060   1.341 -0.0703  0.1775  0.0645
   14CHTO  H100 5707   5.780   5.086   1.252  0.2050 -1.3784 -0.3801
   14CHTO   C57 5708   6.018   5.067   1.312 -0.0042  0.3320  0.5442
   14CHTO  H114 5709   6.009   5.137   1.229  1.8682 -0.0941 -0.0413
   14CHTO   N10 5710   6.034   4.931   1.247 -0.2738  0.6016  0.2307
   14CHTO  H106 5711   5.935   4.891   1.232 -0.0920  0.1413  0.2678
   14CHTO  H107 5712   6.084   4.944   1.152 -0.8889  0.5100 -0.1052
   14CHTO   C58 5713   6.141   5.108   1.396  0.0192 -0.1129 -0.2220
   14CHTO  H115 5714   6.147   5.047   1.488 -0.9729  2.1426  1.3887
   14CHTO   O37 5715   6.124   5.246   1.427 -0.4550  0.1463 -0.1317
   14CHTO   C59 5716   6.024   5.271   1.525  0.2298 -0.0884  0.2096
   14CHTO  H116 5717   6.060   5.218   1.613 -1.0148  0.0201  0.8050
   14CHTO   C70 5718   6.025   5.418   1.561  0.4006  0.0913  0.9986
   14CHTO   O46 5719   6.160   5.452   1.589 -0.0849  0.0303  0.2475
   14CHTO  H103 5720   6.215   5.436   1.515  0.4642 -1.3454  0.9488
   14CHTO   O39 5721   6.296   5.098   1.317  0.4305  0.0504  0.2875
   14CHTO   C60 5722   6.393   5.042   1.406 -0.0618  0.8098  0.5468
   14CHTO  H117 5723   6.375   5.079   1.507 -2.3987  0.3714  0.3193
   14CHTO   C62 5724   6.389   4.891   1.410  0.4088  0.4077 -0.2099
   14CHTO  H119 5725   6.298   4.857   1.463  0.6660  1.2843  0.8038
   14CHTO   O43 5726   6.390   4.838   1.278 -0.6897 -0.9126  0.6025
   14CHTO  H101 5727   6.329   4.881   1.222 -1.4414  1.7535  3.3694
   14CHTO   C66 5728   6.514   4.834   1.492  0.4088  0.0100 -0.0935
   14CHTO  H123 5729   6.515   4.889   1.586 -3.2000 -0.4897  0.3072
   14CHTO   N12 5730   6.500   4.690   1.524  0.5665 -0.1148 -0.3186
   14CHTO  H110 5731   6.546   4.657   1.616  0.8027 -0.6898 -0.6433
   14CHTO  H111 5732   6.395   4.662   1.520 -0.1927  2.7733 -2.4832
   14CHTO   C69 5733   6.640   4.874   1.411  0.7639 -0.3075  0.5895
   14CHTO  H126 5734   6.631   4.839   1.306  0.5582  0.7797  0.2361
   14CHTO   O41 5735   6.649   5.034   1.419  0.2991 -0.8480  1.0371
   14CHTO   C64 5736   6.526   5.099   1.359  0.3309 -0.1524 -0.5094
   14CHTO  H121 5737   6.521   5.092   1.248  0.1472 -0.8674 -0.4604
   14CHTO   C71 5738   6.531   5.244   1.385  0.8422  0.3298  0.2757
   14CHTO   O47 5739   6.541   5.269   1.528 -0.6967 -0.3075  0.1867
   14CHTO  H104 5740   6.451   5.274   1.555 -0.4341  0.3129  0.9637
   14CHTO   O34 5741   6.768   4.799   1.471 -0.3304  0.1371 -0.2497
   14CHTO   C49 5742   6.889   4.770   1.369  0.3209 -0.1978 -0.2837
   14CHTO   H91 5743   6.872   4.695   1.291 -0.7788  0.0599 -0.2924
   14CHTO   C47 5744   6.997   4.712   1.463 -0.5818  0.6790 -0.3135
   14CHTO   H89 5745   7.076   4.693   1.388 -0.1964  1.2844 -0.0636
   14CHTO   O33 5746   6.951   4.587   1.519 -0.0874 -0.0861  0.3816
   14CHTO   H70 5747   6.977   4.576   1.608  2.3251  0.7398 -0.1670
   14CHTO   C45 5748   7.054   4.814   1.568  0.6127  0.1024 -1.0596
   14CHTO   H87 5749   6.989   4.803   1.657 -0.7691 -0.6665 -2.1488
   14CHTO    N8 5750   7.198   4.781   1.602  0.4033  0.0593 -0.2402
   14CHTO   H75 5751   7.255   4.798   1.512  0.7235  1.8524  0.2792
   14CHTO   H76 5752   7.238   4.849   1.676 -3.0554 -0.2491  1.9909
   14CHTO   C43 5753   7.014   4.967   1.528 -0.2449  0.2189 -0.6176
   14CHTO   H85 5754   6.911   4.983   1.556 -1.5528 -4.1880 -2.3724
   14CHTO   O29 5755   7.033   4.988   1.387  0.1590  0.0398 -0.5450
   14CHTO   C50 5756   6.950   4.903   1.306 -0.0594  0.5664 -0.5068
   14CHTO   H92 5757   6.866   4.965   1.270  2.2372  3.9380 -0.2155
   14CHTO   C54 5758   7.024   4.887   1.169  0.0742 -0.5947  0.4619
   14CHTO   O36 5759   7.155   4.841   1.182 -0.2213  0.1938  0.2761
   14CHTO   H72 5760   7.169   4.773   1.118 -0.5617  1.6075 -1.3236
   14CHTO   O27 5761   7.092   5.064   1.599  0.7184 -0.2871  0.3431
   14CHTO   C37 5762   7.065   5.200   1.640 -0.4337 -0.4008 -0.2995
   14CHTO   H79 5763   7.160   5.244   1.675 -0.0525  0.7619 -2.6511
   14CHTO   C38 5764   7.007   5.291   1.526 -0.5905 -0.2533  0.0266
   14CHTO   H80 5765   6.922   5.243   1.478 -0.5967  0.6427 -0.8703
   14CHTO   O31 5766   7.102   5.305   1.420  0.0300 -0.2346 -0.4597
   14CHTO   H68 5767   7.140   5.221   1.403  1.6904 -0.2555  2.7704
   14CHTO   C39 5768   6.960   5.436   1.575 -0.8908  0.4778 -0.5312
   14CHTO   H81 5769   7.050   5.486   1.610 -0.4005 -1.0709  0.4458
   14CHTO    N7 5770   6.896   5.521   1.471 -0.1890 -0.2758 -0.3668
   14CHTO   H73 5771   6.961   5.536   1.385 -1.4837 -1.2664 -1.5474
   14CHTO   H74 5772   6.800   5.488   1.434  0.5397 -2.6893 -0.2273
   14CHTO   C40 5773   6.867   5.415   1.701 -0.3593 -0.3144 -0.6596
   14CHTO   H82 5774   6.781   5.357   1.667  0.5454 -1.0189 -1.7952
   14CHTO   O26 5775   6.947   5.341   1.796 -0.2053 -0.3065  0.0210
   14CHTO   C41 5776   6.967   5.201   1.761  0.0213 -0.3764  0.3299
   14CHTO   H83 5777   6.873   5.149   1.740  0.3683 -1.5494  1.6526
   14CHTO   C52 5778   7.034   5.128   1.886  0.0349 -0.1227 -0.7045
   14CHTO   O35 5779   6.930   5.100   1.983 -0.1456 -0.1458 -0.0546
   14CHTO   H71 5780   6.957   5.037   2.047 -0.3545 -0.3214 -0.1385
   14CHTO   O28 5781   6.836   5.542   1.776  0.3347 -0.0694  0.2614
   14CHTO   C42 5782   6.721   5.547   1.866 -0.0214 -0.3411 -0.2886
   14CHTO   H84 5783   6.742   5.630   1.934 -1.7543  0.6257 -0.9190
   14CHTO   C44 5784   6.714   5.422   1.958  0.6025 -0.4676 -0.7171
   14CHTO   H86 5785   6.704   5.332   1.897  1.2660 -0.7574 -0.4014
   14CHTO   O32 5786   6.827   5.407   2.043 -0.0854  0.6214  0.3664
   14CHTO   H69 5787   6.849   5.485   2.091  3.7442 -0.6115  0.7735
   14CHTO   C48 5788   6.579   5.414   2.046 -0.3463 -0.4001  0.5906
   14CHTO   H90 5789   6.587   5.480   2.133  0.7286 -1.1745  1.0833
   14CHTO    N9 5790   6.562   5.278   2.105 -0.4331  0.2679  0.4916
   14CHTO   H77 5791   6.540   5.276   2.211 -2.2724  0.8324  0.1309
   14CHTO   H78 5792   6.484   5.230   2.048 -1.6412  1.8045  0.8302
   14CHTO   C51 5793   6.455   5.462   1.967  0.1188  0.4886  0.4591
   14CHTO   H93 5794   6.427   5.373   1.911 -0.0442  0.1914  1.0058
   14CHTO   O30 5795   6.478   5.577   1.889  0.4104 -1.0732  0.3652
   14CHTO   C46 5796   6.583   5.582   1.791  0.0163  0.2380 -0.5485
   14CHTO   H88 5797   6.562   5.508   1.713 -0.1567 -1.4726  1.1024
   14CHTO   C53 5798   6.586   5.726   1.740  0.1326  0.0486 -0.1839
   14CHTO   O72 5799   6.675   5.742   1.633 -0.4508  0.1474  0.0914
   14CHTO  H199 5800   6.622   5.747   1.556  1.4205 -0.1805 -1.2672
   14CHTO   O22 5801   6.341   5.485   2.058 -0.1946  0.2471  0.3472
   14CHTO   C31 5802   6.202   5.455   2.015  0.1427  0.7692  0.4905
   14CHTO   H59 5803   6.211   5.442   1.905  1.8471 -1.4896  0.8740
   14CHTO   C29 5804   6.143   5.321   2.076 -0.0359 -0.6653 -0.3364
   14CHTO   H57 5805   6.141   5.341   2.184  1.3731 -2.8393  0.1424
   14CHTO   O21 5806   6.220   5.209   2.041 -0.0327 -0.2837 -0.1946
   14CHTO   H37 5807   6.311   5.220   2.062 -0.2254 -0.6156  0.8620
   14CHTO   C27 5808   5.994   5.303   2.029  0.1132 -0.1862 -0.4809
   14CHTO   H55 5809   5.991   5.285   1.920 -1.7489 -1.9294 -0.1680
   14CHTO    N5 5810   5.924   5.191   2.096  0.3457  0.0065  0.3582
   14CHTO   H43 5811   5.873   5.127   2.025  0.4381  0.2299  0.0914
   14CHTO   H44 5812   5.884   5.219   2.193  0.9446  1.7307  0.1188
   14CHTO   C25 5813   5.916   5.438   2.057 -1.1885 -0.1814 -0.1177
   14CHTO   H53 5814   5.913   5.467   2.163 -0.8602  1.9533 -0.6637
   14CHTO   O17 5815   5.983   5.541   1.990 -0.2849 -0.0131 -0.1990
   14CHTO   C32 5816   6.110   5.581   2.039 -0.5620  0.1193 -0.7232
   14CHTO   H60 5817   6.100   5.601   2.146  1.5018  2.4204 -0.9323
   14CHTO   C36 5818   6.148   5.705   1.957  0.0117  0.0768 -0.4016
   14CHTO   O25 5819   6.269   5.762   2.000  0.2905 -0.6840 -0.9253
   14CHTO   H40 5820   6.273   5.849   1.965 -1.1496 -0.5594 -0.7924
   14CHTO   O15 5821   5.764   5.438   2.005  0.7573 -0.4737 -0.2870
   14CHTO   C19 5822   5.673   5.544   2.021  0.0794  0.6925  0.5210
   14CHTO   H47 5823   5.580   5.502   1.979  0.0475 -0.6156  1.8618
   14CHTO   C20 5824   5.647   5.571   2.171  0.0284  0.0018 -0.4147
   14CHTO   H48 5825   5.735   5.613   2.221  0.0028 -0.2485 -0.1603
   14CHTO   O19 5826   5.608   5.439   2.222 -0.2032 -0.0538  0.0788
   14CHTO   H35 5827   5.636   5.412   2.308 -1.7314  0.3477  0.7087
   14CHTO   C21 5828   5.529   5.671   2.191  0.0184 -0.2280  0.1186
   14CHTO   H49 5829   5.435   5.625   2.160 -0.5597  1.5393 -0.8141
   14CHTO    N4 5830   5.495   5.708   2.336 -0.6227  0.1206  0.0798
   14CHTO   H41 5831   5.499   5.618   2.395  0.7247 -0.8093 -1.3794
   14CHTO   H42 5832   5.398   5.753   2.347 -0.1519  1.3725 -0.7862
   14CHTO   C22 5833   5.546   5.800   2.103 -0.1840  0.3333  0.4329
   14CHTO   H50 5834   5.605   5.876   2.155  0.5690 -0.0354  0.1288
   14CHTO   O14 5835   5.587   5.768   1.964  0.5514 -0.0971  0.4844
   14CHTO   C23 5836   5.695   5.676   1.939  0.3180  0.3968  0.8148
   14CHTO   H51 5837   5.786   5.730   1.970 -0.6382  2.5598 -0.0393
   14CHTO   C34 5838   5.686   5.662   1.784 -0.2484 -0.2572  0.2170
   14CHTO   O23 5839   5.814   5.642   1.723 -0.0751  0.6209  0.0168
   14CHTO   H38 5840   5.811   5.652   1.630 -1.1334  0.9106  0.0805
   14CHTO   O16 5841   5.414   5.855   2.085 -0.5147 -1.4342 -0.9032
   14CHTO   C24 5842   5.373   6.006   2.121 -0.0708 -0.1501  0.3175
   14CHTO   H52 5843   5.353   6.058   2.027  1.0270 -0.6278 -0.1933
   14CHTO   C26 5844   5.479   6.082   2.207  0.4363  0.1014  0.0829
   14CHTO   H54 5845   5.523   6.009   2.279 -0.2436 -0.5692 -0.1783
   14CHTO   O20 5846   5.589   6.123   2.121  0.2019 -0.6089 -0.2737
   14CHTO   H36 5847   5.560   6.159   2.039 -1.7419  0.7205  0.9527
   14CHTO   C30 5848   5.427   6.211   2.278 -0.5272  0.0226 -0.3777
   14CHTO   H58 5849   5.422   6.298   2.210 -1.0919 -0.1466 -0.5568
   14CHTO    N6 5850   5.523   6.252   2.386  0.4308 -0.6202 -0.6546
   14CHTO   H45 5851   5.525   6.169   2.456 -1.0860 -0.1378  0.0035
   14CHTO   H46 5852   5.475   6.338   2.429 -1.0673 -1.3243 -0.8677
   14CHTO   C33 5853   5.284   6.185   2.336 -0.3542  0.2408  0.2147
   14CHTO   H61 5854   5.292   6.111   2.418 -1.1294 -0.4190 -0.2994
   14CHTO   O18 5855   5.200   6.137   2.237 -0.2261 -0.2700  0.4994
   14CHTO   C28 5856   5.229   6.001   2.197 -0.0269 -0.2983 -0.1001
   14CHTO   H56 5857   5.238   5.936   2.283  1.5062  1.3869  1.0368
   14CHTO   C35 5858   5.113   5.952   2.106 -0.3390  0.2670  0.1413
   14CHTO   O24 5859   4.992   5.964   2.177 -0.3719  0.0101  0.4544
   14CHTO   H39 5860   4.928   5.918   2.128 -0.5766  0.0722  0.6654
   14CHTO    O9 5861   5.229   6.307   2.400 -0.4975  0.0941 -0.4324
   14CHTO   C13 5862   5.181   6.447   2.318  0.2671 -0.8784 -0.3236
   14CHTO   H26 5863   5.169   6.419   2.211  1.3015  0.6809 -0.8711
   14CHTO   C11 5864   5.287   6.564   2.335 -0.1789 -0.0713 -0.0209
   14CHTO   H24 5865   5.386   6.527   2.305 -0.0598 -1.2461  1.7771
   14CHTO    O8 5866   5.298   6.582   2.474  0.0096  0.5637 -0.3720
   14CHTO    H3 5867   5.218   6.610   2.515 -0.9176 -2.3224 -0.1407
   14CHTO    C9 5868   5.233   6.687   2.264 -0.1561  0.6170 -0.5527
   14CHTO   H22 5869   5.222   6.659   2.158  0.7699  0.7871 -0.6957
   14CHTO    N2 5870   5.336   6.794   2.251  0.9945  0.0894 -0.1175
   14CHTO   H10 5871   5.306   6.873   2.184 -0.1858  1.2948  1.7843
   14CHTO   H11 5872   5.354   6.837   2.349  3.5748  0.1293 -0.5682
   14CHTO    C7 5873   5.098   6.740   2.329  0.3557  0.1535 -0.3052
   14CHTO   H20 5874   5.043   6.792   2.247  0.5084  0.5961 -0.1318
   14CHTO    O4 5875   5.025   6.631   2.393 -0.4337 -0.0398  0.0449
   14CHTO   C14 5876   5.033   6.492   2.354 -0.2559  0.1908  0.4772
   14CHTO   H27 5877   4.978   6.478   2.259  1.0172  0.3403 -0.2987
   14CHTO   C18 5878   4.954   6.407   2.463  0.2080 -0.2508  0.7813
   14CHTO   O13 5879   4.955   6.273   2.419  0.3226  0.1488  0.0504
   14CHTO    H7 5880   5.046   6.251   2.412  0.2046 -0.3756  0.1779
   14CHTO    O2 5881   5.126   6.864   2.453  0.4047  0.1738  0.6178
   14CHTO    C1 5882   5.058   6.985   2.428  0.3666  0.4682 -0.1266
   14CHTO   H14 5883   4.957   6.963   2.389  1.1275  1.4685 -2.8506
   14CHTO    C2 5884   5.128   7.071   2.324 -0.3450  0.9437 -0.3746
   14CHTO   H15 5885   5.169   6.997   2.254 -0.9006  0.4567 -0.1903
   14CHTO    O6 5886   5.046   7.162   2.249  0.4830 -0.5381 -0.1400
   14CHTO    H1 5887   4.978   7.199   2.303 -1.2017  0.0965 -2.6026
   14CHTO    C3 5888   5.248   7.170   2.386  0.6966 -1.0543  0.8478
   14CHTO   H16 5889   5.210   7.274   2.392  1.6692 -0.5915 -0.8206
   14CHTO    N1 5890   5.371   7.166   2.295 -1.0668 -0.7118  0.3385
   14CHTO    H8 5891   5.361   7.233   2.211  1.1252  0.1656  0.7352
   14CHTO    H9 5892   5.381   7.063   2.263  0.0382 -0.3261 -0.6209
   14CHTO    C4 5893   5.276   7.131   2.531  0.3479 -0.4003  0.3541
   14CHTO   H17 5894   5.318   7.030   2.533  1.9719  0.2623  0.7345
   14CHTO    O1 5895   5.154   7.142   2.609 -0.1463 -0.0597  0.0382
   14CHTO    C5 5896   5.049   7.053   2.573  0.5982  0.1286  0.6474
   14CHTO   H18 5897   5.055   6.982   2.655  1.5564  0.3732  0.7955
   14CHTO   C16 5898   4.924   7.135   2.587  0.3670 -0.6807  0.1910
   14CHTO   O11 5899   4.925   7.210   2.711  0.1058 -0.2274 -0.1493
   14CHTO    H5 5900   5.010   7.246   2.724 -0.4602  1.3269 -0.5708
   14CHTO    O3 5901   5.362   7.225   2.599  0.9108  0.1330  0.1149
   14CHTO    C6 5902   5.451   7.161   2.703 -0.5881  0.0341 -0.7443
   14CHTO   H19 5903   5.418   7.063   2.738  1.3320  0.5479  2.7582
   14CHTO    C8 5904   5.595   7.135   2.651 -0.2101 -0.0271  0.7422
   14CHTO   H21 5905   5.629   7.227   2.605 -0.6286 -0.7379 -1.0001
   14CHTO    O7 5906   5.593   7.036   2.546 -0.0358  0.6245 -0.0732
   14CHTO    H2 5907   5.554   6.951   2.556  0.1159  0.7319  1.5342
   14CHTO   C12 5908   5.708   7.103   2.763  0.6840 -0.1651 -0.1871
   14CHTO   H25 5909   5.707   6.994   2.783  1.7761 -0.3089 -0.8229
   14CHTO    N3 5910   5.845   7.136   2.711 -0.2456  0.4067  0.3170
   14CHTO   H12 5911   5.905   7.158   2.798 -0.5065  2.2464  0.0613
   14CHTO   H13 5912   5.846   7.219   2.641  1.7382 -0.0230 -0.1872
   14CHTO   C15 5913   5.671   7.173   2.896 -0.0717 -0.4379 -0.3523
   14CHTO   H28 5914   5.706   7.276   2.882 -1.8177  0.1133 -0.7502
   14CHTO   O10 5915   5.750   7.097   3.014 -0.1093  0.0601 -0.3061
   14CHTO    H4 5916   5.727   7.137   3.096  2.7707  1.2060 -0.0076
   14CHTO    O5 5917   5.533   7.175   2.935 -0.3226  0.2038 -0.1302
   14CHTO   C10 5918   5.459   7.247   2.833 -0.1034 -0.6528 -0.7364
   14CHTO   H23 5919   5.506   7.344   2.813 -0.8274 -0.6303 -2.4346
   14CHTO   C17 5920   5.321   7.281   2.886  0.0833  0.2377  0.3852
   14CHTO   O12 5921   5.325   7.364   3.002 -0.0571 -0.0680  0.1774
   14CHTO    H6 5922   5.357   7.448   2.976 -0.8557 -0.0596 -0.7981
   15CHTO  H203 5923   5.763   4.391   2.080 -0.1783 -1.2422 -0.9316
   15CHTO   O82 5924   5.843   4.399   2.032  0.1964 -0.2540 -0.1516
   15CHTO  C123 5925   5.880   4.268   1.985 -0.0338  0.5193 -0.3130
   15CHTO  H227 5926   5.910   4.201   2.066 -0.2721  0.4412 -0.2904
   15CHTO   O77 5927   5.763   4.216   1.909  0.7246  0.4663 -0.2393
   15CHTO  C118 5928   5.789   4.080   1.861  1.3873 -0.5049 -0.5960
   15CHTO  H222 5929   5.822   4.009   1.939  1.1088  1.3160  1.2036
   15CHTO  C125 5930   5.654   4.025   1.811  0.1877 -0.4648  0.8811
   15CHTO   O84 5931   5.564   4.031   1.920  0.3636 -0.1237  0.6295
   15CHTO  H205 5932   5.484   3.992   1.892  1.2356 -1.3927 -0.1624
   15CHTO  C114 5933   5.894   4.074   1.753  0.3851  0.0218 -0.2407
   15CHTO  H218 5934   5.864   4.138   1.670  0.8726  0.3953 -0.1317
   15CHTO  C116 5935   6.027   4.134   1.817 -0.1707 -0.2200 -0.1528
   15CHTO  H220 5936   6.071   4.071   1.897  1.1260 -0.7577 -1.2696
   15CHTO   O79 5937   6.126   4.150   1.716  0.0212 -0.3477  0.4191
   15CHTO  H201 5938   6.172   4.071   1.700 -2.5690 -1.3161 -2.7738
   15CHTO  C120 5939   5.998   4.282   1.880  0.8488  0.7226 -0.2312
   15CHTO  H224 5940   5.967   4.349   1.797  0.6960 -0.5937 -1.2574
   15CHTO   N21 5941   6.120   4.338   1.946 -0.2359 -0.2759  0.3113
   15CHTO  H211 5942   6.122   4.446   1.946  0.0791 -0.2697  2.0808
   15CHTO  H212 5943   6.219   4.312   1.912 -0.3102 -1.6676  1.1369
   15CHTO   O75 5944   5.906   3.945   1.698 -0.2672 -0.2620 -0.6219
   15CHTO  C112 5945   6.046   3.852   1.714 -0.0555 -0.0652  0.2269
   15CHTO  H216 5946   6.089   3.870   1.813 -0.4316 -0.8308  0.5387
   15CHTO   O73 5947   6.129   3.893   1.606  0.2088 -0.0728  0.3448
   15CHTO  C113 5948   6.259   3.832   1.593 -0.0586 -0.1469 -0.1965
   15CHTO  H217 5949   6.324   3.840   1.682  1.7123  0.7532 -1.5494
   15CHTO  C124 5950   6.339   3.886   1.478 -0.1315 -0.0433 -0.1350
   15CHTO   O83 5951   6.275   3.865   1.349  0.2081  0.2521 -0.4423
   15CHTO  H204 5952   6.205   3.926   1.347 -0.2577 -0.2259  0.7169
   15CHTO  C109 5953   6.227   3.674   1.570 -0.2514  0.4858  0.6056
   15CHTO  H213 5954   6.175   3.664   1.473  0.3138  1.0166  0.2458
   15CHTO  C110 5955   6.142   3.617   1.687  0.4756  0.8134 -0.4317
   15CHTO  H214 5956   6.204   3.621   1.776  0.4685 -0.0884 -0.3820
   15CHTO   O78 5957   6.118   3.479   1.665  0.2934 -0.0327  0.1597
   15CHTO  H200 5958   6.201   3.436   1.673  0.2492 -0.0343  0.6197
   15CHTO  C111 5959   6.012   3.700   1.700  0.4506 -0.0289  0.7345
   15CHTO  H215 5960   5.957   3.685   1.606  1.6428  0.8641 -0.1245
   15CHTO   N19 5961   5.922   3.659   1.810 -0.1216 -0.3472 -0.1499
   15CHTO  H207 5962   5.857   3.578   1.781  0.0255 -0.8603  0.9352
   15CHTO  H208 5963   5.983   3.621   1.891  0.4663 -0.2607 -0.5448
   15CHTO   O74 5964   6.353   3.598   1.557  0.6413  0.3429 -0.9715
   15CHTO  C115 5965   6.365   3.522   1.419 -0.3194 -0.0161 -0.2165
   15CHTO  H219 5966   6.267   3.512   1.371 -0.2068  0.2848 -0.5090
   15CHTO   O76 5967   6.452   3.602   1.308  0.2550  0.2512  0.3467
   15CHTO  C122 5968   6.454   3.542   1.176  0.7925 -0.1592 -0.0203
   15CHTO  H226 5969   6.533   3.595   1.124  1.0854 -1.1280 -0.5930
   15CHTO  C126 5970   6.320   3.575   1.105  0.6914  0.2073  0.6109
   15CHTO   O85 5971   6.191   3.526   1.152 -0.2274 -1.0414 -0.4686
   15CHTO  H206 5972   6.133   3.499   1.083  0.8752  1.7992 -2.6100
   15CHTO  C121 5973   6.479   3.388   1.172  0.5923  0.1606 -0.2914
   15CHTO  H225 5974   6.450   3.349   1.073  0.0067 -2.6426  0.9296
   15CHTO   O81 5975   6.619   3.370   1.189  0.7896 -0.1243 -0.3328
   15CHTO  H202 5976   6.647   3.289   1.150  0.4333  0.2375 -1.3311
   15CHTO  C119 5977   6.404   3.312   1.289  1.3788 -0.7058  0.2858
   15CHTO  H223 5978   6.298   3.316   1.263  1.6936 -3.0893 -1.5080
   15CHTO  C117 5979   6.421   3.372   1.435 -0.2822 -0.1904 -0.6237
   15CHTO  H221 5980   6.521   3.390   1.476 -1.1371  1.5464  0.7746
   15CHTO   N20 5981   6.343   3.299   1.539 -0.2415  0.1302  0.5785
   15CHTO  H209 5982   6.357   3.325   1.642 -0.9214  1.1452  0.4268
   15CHTO  H210 5983   6.243   3.276   1.505  0.1085 -2.3460  1.1638
   15CHTO   O80 5984   6.442   3.131   1.275 -0.4412 -0.2790 -0.5356
   15CHTO  C103 5985   6.310   3.017   1.312 -0.6171 -0.2372 -0.1186
   15CHTO  H190 5986   6.317   3.019   1.421 -0.8519  0.7977 -0.1188
   15CHTO  C101 5987   6.161   3.038   1.260 -0.0082 -0.1290  0.6306
   15CHTO  H188 5988   6.163   3.086   1.162 -0.3920 -0.9115  0.2347
   15CHTO   O68 5989   6.106   3.149   1.349  0.5410  0.0669  0.6597
   15CHTO  H168 5990   6.096   3.118   1.437 -1.1767  0.1618  0.5216
   15CHTO   C99 5991   6.068   2.911   1.254 -0.2500  0.2954 -0.2142
   15CHTO  H186 5992   6.044   2.880   1.358 -0.4280  0.6380 -0.1548
   15CHTO   N17 5993   5.940   2.928   1.184 -0.8010  0.2025 -0.1342
   15CHTO  H174 5994   5.854   2.911   1.247 -0.7804 -1.2911 -0.4716
   15CHTO  H175 5995   5.946   3.030   1.149 -1.6101  0.2155 -0.2356
   15CHTO   C97 5996   6.149   2.793   1.197  0.2390  0.3767 -0.2795
   15CHTO  H184 5997   6.165   2.814   1.090 -1.5729 -1.9380 -1.0434
   15CHTO   O64 5998   6.267   2.775   1.268 -0.2766 -0.5766 -0.6668
   15CHTO  C104 5999   6.366   2.878   1.263 -0.6521  0.5971 -0.1490
   15CHTO  H191 6000   6.392   2.885   1.158 -0.2287 -3.5907 -0.3995
   15CHTO  C108 6001   6.495   2.826   1.343  0.3330  0.0879 -0.0943
   15CHTO   O71 6002   6.566   2.742   1.252  0.0278  0.0880  0.1609
   15CHTO  H171 6003   6.613   2.796   1.192  0.7803  2.4164  2.7848
   15CHTO   O62 6004   6.082   2.669   1.224  0.2316 -0.1886  0.0343
   15CHTO   C91 6005   6.100   2.564   1.132 -0.3955  0.1165 -0.9770
   15CHTO  H178 6006   6.181   2.594   1.066  0.9571  0.9393  1.0223
   15CHTO   C92 6007   5.967   2.544   1.050 -0.3250  0.0547 -0.7926
   15CHTO  H179 6008   5.917   2.639   1.025  0.7221  1.0790  0.9446
   15CHTO   O66 6009   6.007   2.481   0.928  0.0329  0.1611  0.4683
   15CHTO  H166 6010   5.975   2.531   0.855  0.1821  0.0936  0.3567
   15CHTO   C93 6011   5.868   2.447   1.118  0.4856 -0.6738  0.2967
   15CHTO  H180 6012   5.808   2.412   1.032 -0.9128 -0.5666  1.2046
   15CHTO   N16 6013   5.772   2.520   1.212 -0.1603 -0.5187  0.1507
   15CHTO  H172 6014   5.673   2.522   1.168  0.4890 -1.1235 -1.3853
   15CHTO  H173 6015   5.801   2.620   1.242  0.8232  0.0989 -2.6960
   15CHTO   C94 6016   5.936   2.325   1.186  0.1667  0.3689 -0.2172
   15CHTO  H181 6017   5.927   2.332   1.295 -1.6156  0.9909 -0.3885
   15CHTO   O61 6018   6.078   2.311   1.157 -0.6622  0.0246  0.0654
   15CHTO   C95 6019   6.151   2.428   1.194  0.3900  0.2617  0.4220
   15CHTO  H182 6020   6.149   2.442   1.302  0.5615 -0.1194  0.4754
   15CHTO  C106 6021   6.301   2.410   1.156  0.7555  0.1556  0.0953
   15CHTO   O69 6022   6.397   2.493   1.220  0.1855 -0.2644 -0.5442
   15CHTO  H169 6023   6.426   2.464   1.304  1.2493  2.6764  0.1856
   15CHTO   O63 6024   5.864   2.201   1.131 -0.3421  0.5613  0.9894
   15CHTO   C96 6025   5.844   2.072   1.231  0.5864  0.8440  0.1601
   15CHTO  H183 6026   5.837   2.107   1.334 -0.5161 -0.2792  0.4815
   15CHTO   C98 6027   5.954   1.965   1.219  0.5774 -0.0556 -0.1012
   15CHTO  H185 6028   5.959   1.942   1.112 -0.6704 -1.2407  0.0847
   15CHTO   O67 6029   6.084   2.019   1.255 -0.2365 -0.4333 -0.1897
   15CHTO  H167 6030   6.140   1.949   1.284  1.2690  0.6879 -0.3380
   15CHTO  C102 6031   5.924   1.832   1.302 -0.4396 -0.1419  0.3093
   15CHTO  H189 6032   5.948   1.857   1.407  3.0794 -1.0433 -0.2325
   15CHTO   N18 6033   6.021   1.718   1.268  0.5998 -0.0095 -0.3779
   15CHTO  H176 6034   6.060   1.734   1.168 -0.0658  1.1571 -0.4632
   15CHTO  H177 6035   5.999   1.621   1.309 -0.1824  0.6613  0.7986
   15CHTO  C105 6036   5.773   1.793   1.291 -0.1560  0.4571 -0.1099
   15CHTO  H192 6037   5.759   1.735   1.200 -1.0796  0.4344  0.0434
   15CHTO   O65 6038   5.676   1.896   1.296 -0.0058 -0.2698 -0.5928
   15CHTO  C100 6039   5.701   2.003   1.207  0.0251  0.1837  0.1150
   15CHTO  H187 6040   5.696   1.959   1.107 -0.2169  0.1147  0.1572
   15CHTO  C107 6041   5.581   2.097   1.218  0.4345 -0.2934 -0.7729
   15CHTO   O70 6042   5.566   2.159   1.349 -0.2429 -0.0804  0.0742
   15CHTO  H170 6043   5.501   2.115   1.401 -1.5709  2.0136  0.2389
   15CHTO   O57 6044   5.750   1.686   1.414  0.3483  0.0777  0.4464
   15CHTO   C85 6045   5.627   1.610   1.439  0.0612 -0.4501  0.9061
   15CHTO  H157 6046   5.541   1.677   1.413  0.3227  0.1295  1.5307
   15CHTO   C83 6047   5.619   1.581   1.591  0.2567  0.3240 -0.2976
   15CHTO  H155 6048   5.629   1.672   1.652  0.1075 -0.2818  0.6421
   15CHTO   O56 6049   5.738   1.498   1.621  0.2240  0.3344 -0.7074
   15CHTO  H135 6050   5.811   1.557   1.626 -0.1266  0.5832  2.0746
   15CHTO   C81 6051   5.488   1.506   1.625  0.3070 -0.3471  0.2434
   15CHTO  H153 6052   5.406   1.571   1.595 -0.5424 -0.8882  1.3351
   15CHTO   N14 6053   5.476   1.477   1.771  0.4154 -0.6116  0.0402
   15CHTO  H141 6054   5.530   1.388   1.796  0.8987 -0.0013  1.2406
   15CHTO  H142 6055   5.518   1.554   1.832  0.4810 -0.8196  0.2549
   15CHTO   C79 6056   5.476   1.370   1.540  0.0150  0.0250  0.7133
   15CHTO  H151 6057   5.373   1.336   1.549  0.1349 -0.5399 -0.0293
   15CHTO   O52 6058   5.510   1.394   1.398 -0.0426  0.1237 -0.0568
   15CHTO   C86 6059   5.626   1.479   1.356  0.9444  0.4445  0.6616
   15CHTO  H158 6060   5.712   1.411   1.374  0.3616 -0.3422  0.5409
   15CHTO   C90 6061   5.617   1.495   1.196 -0.2912 -0.1014 -0.1233
   15CHTO   O60 6062   5.624   1.365   1.131  0.0828  0.1598  0.4146
   15CHTO  H138 6063   5.533   1.343   1.122 -0.0067  0.7370 -0.0805
   15CHTO   O50 6064   5.560   1.266   1.590  0.5051 -0.3579 -0.2216
   15CHTO   C73 6065   5.532   1.133   1.624  0.3163  0.3396  0.2637
   15CHTO  H145 6066   5.423   1.116   1.629  0.1509  1.2098 -0.2908
   15CHTO   C74 6067   5.590   1.112   1.761  0.3744 -0.2732  0.2014
   15CHTO  H146 6068   5.544   1.191   1.821  1.1008 -1.0130  1.7644
   15CHTO   O54 6069   5.538   0.995   1.818 -0.1660  0.3205 -0.1808
   15CHTO  H133 6070   5.601   0.954   1.874 -0.0370  0.8050  0.0379
   15CHTO   C75 6071   5.748   1.128   1.751 -0.1318 -0.2931  0.2207
   15CHTO  H147 6072   5.766   1.232   1.720 -1.8524  0.1155  0.4976
   15CHTO   N13 6073   5.823   1.112   1.880 -0.0127  0.0386  0.0003
   15CHTO  H139 6074   5.925   1.111   1.843  1.1067  3.0101  2.7321
   15CHTO  H140 6075   5.822   1.200   1.943  1.5839 -0.8398  1.2826
   15CHTO   C76 6076   5.810   1.030   1.640  0.0556 -0.8966 -0.7363
   15CHTO  H148 6077   5.799   0.925   1.668 -0.6803 -0.5762  0.2316
   15CHTO   O49 6078   5.743   1.061   1.513  0.2812 -0.3314  0.5982
   15CHTO   C77 6079   5.603   1.038   1.519  0.1988 -0.6807 -0.5037
   15CHTO  H149 6080   5.577   0.933   1.536 -1.6385 -0.3202 -0.9403
   15CHTO   C88 6081   5.558   1.065   1.376 -0.4382 -0.1988 -0.7329
   15CHTO   O58 6082   5.418   1.028   1.354 -0.4714 -0.3924  0.2278
   15CHTO  H136 6083   5.399   1.044   1.263  0.1423  1.9729  0.4785
   15CHTO   O51 6084   5.979   1.075   1.606 -0.0747 -0.4534  0.5286
   15CHTO   C78 6085   6.041   1.009   1.481 -0.3087 -0.1370 -0.6555
   15CHTO  H150 6086   5.991   1.046   1.389 -2.8539 -1.0378  0.3247
   15CHTO   C80 6087   6.042   0.855   1.478  0.0990 -0.1572  0.1307
   15CHTO  H152 6088   6.084   0.824   1.576  0.5559  0.0340 -0.0046
   15CHTO   O55 6089   5.904   0.815   1.461  0.0574 -0.3740  0.3175
   15CHTO  H134 6090   5.833   0.870   1.486  0.3838 -1.1045  2.9385
   15CHTO   C84 6091   6.127   0.786   1.366 -0.6754  0.2894 -0.1722
   15CHTO  H156 6092   6.066   0.797   1.277 -0.2759 -1.0262 -0.6107
   15CHTO   N15 6093   6.146   0.638   1.376 -0.1679  0.1483 -0.4197
   15CHTO  H143 6094   6.213   0.595   1.447 -0.4162 -1.0800 -0.9155
   15CHTO  H144 6095   6.176   0.609   1.277  1.5946 -0.1446  0.1851
   15CHTO   C87 6096   6.262   0.859   1.336 -0.0824  0.1948  0.0942
   15CHTO  H159 6097   6.336   0.815   1.403  0.1953  0.8230  0.2063
   15CHTO   O53 6098   6.246   1.016   1.342  0.6606 -0.5168  0.2457
   15CHTO   C82 6099   6.188   1.056   1.472 -0.1208  0.0052 -0.5503
   15CHTO  H154 6100   6.252   1.012   1.549 -0.6407  0.0013 -0.1159
   15CHTO   C89 6101   6.203   1.207   1.481  0.1425 -0.2693 -0.2070
   15CHTO   O59 6102   6.332   1.258   1.524 -0.2333  0.7157  0.1184
   15CHTO  H137 6103   6.387   1.188   1.554 -0.7197 -0.3669 -1.4809
   15CHTO   O45 6104   6.315   0.818   1.198 -0.2044  0.0587 -0.0844
   15CHTO   C67 6105   6.433   0.888   1.158  0.9243 -0.2873  0.5965
   15CHTO  H124 6106   6.437   0.976   1.221  1.5423 -0.2619  0.5208
   15CHTO   C65 6107   6.561   0.799   1.177 -0.5523  0.0335 -0.4193
   15CHTO  H122 6108   6.529   0.695   1.173  1.4704 -0.5777 -1.6919
   15CHTO   O44 6109   6.607   0.825   1.311  0.5436 -0.2972  0.1061
   15CHTO  H102 6110   6.689   0.788   1.340  0.7709  0.1233  0.0043
   15CHTO   C63 6111   6.658   0.812   1.055 -0.0520 -0.0680 -0.2538
   15CHTO  H120 6112   6.615   0.753   0.973 -1.3103 -0.6091  0.7714
   15CHTO   N11 6113   6.796   0.752   1.060 -0.8565 -0.2049 -0.2662
   15CHTO  H108 6114   6.870   0.828   1.071 -0.2102 -0.9931  0.9476
   15CHTO  H109 6115   6.814   0.698   0.969  0.3756 -0.4874  0.1431
   15CHTO   C61 6116   6.663   0.959   1.008  0.3770  0.1365 -0.1880
   15CHTO  H118 6117   6.734   0.963   0.924  0.3056 -0.1089 -0.2590
   15CHTO   O40 6118   6.541   1.007   0.962 -0.0214 -0.2333 -0.2842
   15CHTO   C68 6119   6.419   0.938   1.013  0.1387  0.0013  0.1717
   15CHTO  H125 6120   6.409   0.851   0.945  1.1954  0.1617 -0.1955
   15CHTO   C72 6121   6.291   1.021   0.999  0.0212  0.0414  0.1984
   15CHTO   O48 6122   6.313   1.147   1.062 -0.2616 -0.6799  0.0892
   15CHTO  H105 6123   6.249   1.210   1.034  0.6709 -0.5437 -1.7818
   15CHTO   O38 6124   6.696   1.056   1.112 -0.7612 -0.0298  0.1814
   15CHTO   C55 6125   6.802   1.156   1.092 -0.6636 -0.6474  0.3070
   15CHTO  H112 6126   6.850   1.138   0.995  0.5636  0.0733  0.7755
   15CHTO   C56 6127   6.903   1.143   1.222  0.1677  0.0997  0.6742
   15CHTO  H113 6128   6.843   1.113   1.308 -0.8817 -1.4101 -0.5475
   15CHTO   O42 6129   6.986   1.022   1.203 -0.1445  0.2972 -0.1035
   15CHTO  H100 6130   6.993   0.997   1.113  3.4086 -2.7685  0.9127
   15CHTO   C57 6131   6.998   1.282   1.237  0.2667  0.3114 -0.0931
   15CHTO  H114 6132   7.079   1.270   1.165 -0.9120 -0.3047 -1.3297
   15CHTO   N10 6133   7.071   1.279   1.364  0.1631 -0.4683  0.8703
   15CHTO  H106 6134   7.020   1.337   1.439 -0.2638 -0.7773  0.8164
   15CHTO  H107 6135   7.083   1.179   1.403  0.1163  0.0410  2.2146
   15CHTO   C58 6136   6.914   1.414   1.211 -0.2006 -0.1115  0.0530
   15CHTO  H115 6137   6.846   1.431   1.297  0.6670  0.7282  0.5835
   15CHTO   O37 6138   6.842   1.389   1.087  0.0980 -0.4776 -0.2526
   15CHTO   C59 6139   6.736   1.294   1.090 -0.0418  0.1193  0.4873
   15CHTO  H116 6140   6.677   1.321   1.178  2.5857  0.5708  2.1453
   15CHTO   C70 6141   6.655   1.314   0.961 -0.2036 -0.0823  0.1269
   15CHTO   O46 6142   6.610   1.453   0.957 -0.4052 -0.2479  0.0048
   15CHTO  H103 6143   6.579   1.466   0.869 -2.2843  0.7379  0.7919
   15CHTO   O39 6144   7.005   1.543   1.189  0.2314  0.3983 -0.7254
   15CHTO   C60 6145   6.956   1.682   1.187 -0.6641  0.1850 -0.7503
   15CHTO  H117 6146   6.847   1.677   1.185 -0.6941 -0.9208  1.9326
   15CHTO   C62 6147   7.000   1.753   1.323  0.2973  0.0716  0.1724
   15CHTO  H119 6148   6.964   1.693   1.409 -0.2020  2.3775  1.6124
   15CHTO   O43 6149   7.145   1.767   1.327  0.0113  0.1677 -0.3203
   15CHTO  H101 6150   7.172   1.793   1.413  0.5979  0.6306 -0.6401
   15CHTO   C66 6151   6.932   1.899   1.325  0.0748 -0.1995  0.0115
   15CHTO  H123 6152   6.824   1.883   1.320  0.4174 -2.5970 -0.3321
   15CHTO   N12 6153   6.960   1.971   1.453 -0.9850  0.8288 -0.3801
   15CHTO  H110 6154   6.869   1.986   1.510 -0.7076 -5.0769  2.0664
   15CHTO  H111 6155   7.034   1.922   1.514 -1.1726  1.2877  0.2219
   15CHTO   C69 6156   6.970   1.985   1.201 -0.0655 -0.0956 -0.1319
   15CHTO  H126 6157   7.078   2.002   1.217  0.0630  0.7126 -1.8031
   15CHTO   O41 6158   6.945   1.911   1.074  0.0845  0.0969 -0.1504
   15CHTO   C64 6159   7.001   1.767   1.066 -1.2037  0.2691 -0.3392
   15CHTO  H121 6160   7.111   1.778   1.077 -0.8599 -0.8203 -2.4320
   15CHTO   C71 6161   6.967   1.689   0.934 -0.0276  0.1238  0.4397
   15CHTO   O47 6162   6.830   1.665   0.914  0.2782  0.6064 -0.1999
   15CHTO  H104 6163   6.771   1.733   0.940 -0.4539  0.2095 -0.7959
   15CHTO   O34 6164   6.892   2.118   1.192 -0.2837  0.3380 -0.1327
   15CHTO   C49 6165   6.748   2.207   1.173  0.2379  0.1650  0.1956
   15CHTO   H91 6166   6.757   2.294   1.238  2.9634  0.0932 -0.0345
   15CHTO   C47 6167   6.633   2.118   1.213 -0.2465 -0.1322  0.1628
   15CHTO   H89 6168   6.547   2.189   1.210  0.1743  0.3379 -1.0661
   15CHTO   O33 6169   6.655   2.084   1.350 -0.1499 -0.0634  0.1920
   15CHTO   H70 6170   6.613   2.002   1.368  2.2572 -0.9508  1.9145
   15CHTO   C45 6171   6.605   2.005   1.100  0.5833  0.4161  0.0305
   15CHTO   H87 6172   6.694   1.942   1.086 -1.2200 -2.1869 -0.0106
   15CHTO    N8 6173   6.486   1.913   1.133  0.6034  0.8049  0.1047
   15CHTO   H75 6174   6.436   1.891   1.040  1.5813  0.2748 -0.2953
   15CHTO   H76 6175   6.530   1.821   1.170  2.9578  1.4156 -1.0539
   15CHTO   C43 6176   6.589   2.065   0.950 -0.6273  0.0797  0.2906
   15CHTO   H85 6177   6.586   1.981   0.880  1.4795  0.2254 -0.0097
   15CHTO   O29 6178   6.698   2.152   0.928  0.1425 -0.2293  0.7178
   15CHTO   C50 6179   6.731   2.253   1.021 -0.1783  0.1732 -0.2529
   15CHTO   H92 6180   6.831   2.292   0.997 -0.2581 -0.4702 -1.7154
   15CHTO   C54 6181   6.640   2.374   0.982  0.9108  0.0533 -0.4954
   15CHTO   O36 6182   6.648   2.479   1.073  0.9089 -0.0192 -0.5772
   15CHTO   H72 6183   6.595   2.550   1.040  0.6932  0.1735  0.1870
   15CHTO   O27 6184   6.465   2.134   0.923  0.1700  0.0045 -0.0109
   15CHTO   C37 6185   6.371   2.140   0.809 -0.2486  0.2229 -0.2912
   15CHTO   H79 6186   6.376   2.052   0.744  1.9421 -0.9582  1.4381
   15CHTO   C38 6187   6.224   2.142   0.869  0.4715  0.2372  0.1950
   15CHTO   H80 6188   6.221   2.233   0.931  2.0852  0.9716 -0.7520
   15CHTO   O31 6189   6.207   2.018   0.942  0.1147 -0.7206  0.0575
   15CHTO   H68 6190   6.212   1.947   0.880 -2.9759  0.5202 -1.7008
   15CHTO   C39 6191   6.122   2.161   0.751 -0.4978  0.6527  0.0689
   15CHTO   H81 6192   6.141   2.075   0.686  1.1971  0.7945  0.3758
   15CHTO    N7 6193   5.983   2.157   0.798 -0.3449 -0.5781  0.4715
   15CHTO   H73 6194   5.976   2.127   0.902  0.5708  0.0115  0.7099
   15CHTO   H74 6195   5.935   2.254   0.798  0.1639 -0.3236  0.8702
   15CHTO   C40 6196   6.153   2.293   0.669 -0.1262  0.3534  0.1140
   15CHTO   H82 6197   6.130   2.377   0.735 -2.1539 -1.0179  1.2398
   15CHTO   O26 6198   6.293   2.299   0.628 -0.0315 -0.9493 -0.2369
   15CHTO   C41 6199   6.398   2.268   0.730 -0.0648 -0.9316  0.9719
   15CHTO   H83 6200   6.396   2.353   0.800 -1.5876 -0.5643  0.5041
   15CHTO   C52 6201   6.534   2.268   0.658  0.5551 -0.5920  0.2646
   15CHTO   O35 6202   6.551   2.395   0.583 -0.2290 -0.1209 -0.3927
   15CHTO   H71 6203   6.642   2.404   0.559  0.2174  2.0401  1.8465
   15CHTO   O28 6204   6.086   2.286   0.542 -0.3638 -0.5001  0.1018
   15CHTO   C42 6205   6.038   2.404   0.466  0.4809 -0.1055 -0.6211
   15CHTO   H84 6206   5.979   2.358   0.388 -0.8761  2.6998 -1.3127
   15CHTO   C44 6207   6.134   2.503   0.395  0.1762  0.4431  0.2177
   15CHTO   H86 6208   6.202   2.549   0.468  0.5538  0.6348 -0.2491
   15CHTO   O32 6209   6.219   2.433   0.299  0.3942 -0.1142 -0.1511
   15CHTO   H69 6210   6.307   2.429   0.331  0.1548  0.2513  0.5512
   15CHTO   C48 6211   6.066   2.625   0.317 -0.2481  0.2133  0.4534
   15CHTO   H90 6212   6.017   2.581   0.230  1.6337  1.1623 -1.1496
   15CHTO    N9 6213   6.165   2.726   0.267  0.2860 -0.1925 -0.3775
   15CHTO   H77 6214   6.121   2.808   0.212 -0.0527 -1.8289 -2.6178
   15CHTO   H78 6215   6.225   2.671   0.196  1.4081 -0.4960  0.7887
   15CHTO   C51 6216   5.946   2.696   0.387  0.1881 -0.3085 -0.4163
   15CHTO   H93 6217   5.977   2.773   0.457 -0.7384  0.9482 -1.3519
   15CHTO   O30 6218   5.866   2.600   0.447 -0.1276 -0.0337 -0.7030
   15CHTO   C46 6219   5.940   2.493   0.542  0.3137 -0.2682  0.9610
   15CHTO   H88 6220   5.991   2.547   0.622 -1.1886  2.5505  0.0940
   15CHTO   C53 6221   5.819   2.417   0.604  0.3177 -0.6383 -0.0928
   15CHTO   O72 6222   5.721   2.512   0.655  0.1393 -0.1733  0.0067
   15CHTO  H199 6223   5.639   2.466   0.659  2.2168 -4.1392 -0.3186
   15CHTO   O22 6224   5.852   2.738   0.286 -0.1217 -0.0444 -0.0808
   15CHTO   C31 6225   5.770   2.859   0.295  0.3422 -0.6654 -0.3310
   15CHTO   H59 6226   5.684   2.844   0.227  0.0118 -0.1811 -0.0217
   15CHTO   C29 6227   5.710   2.896   0.430  0.1278  0.1608  0.0463
   15CHTO   H57 6228   5.781   2.873   0.511  0.6917  3.5647  0.6054
   15CHTO   O21 6229   5.596   2.811   0.448  0.5082  0.3064 -0.0201
   15CHTO   H37 6230   5.612   2.742   0.509 -1.4994 -1.4565 -1.3930
   15CHTO   C27 6231   5.665   3.049   0.440  0.1368  0.1479  0.3703
   15CHTO   H55 6232   5.588   3.069   0.364 -1.6591 -1.3487  1.7628
   15CHTO    N5 6233   5.611   3.082   0.574 -0.1768  0.0993  0.1705
   15CHTO   H43 6234   5.508   3.113   0.572 -0.3044 -0.2627 -3.6735
   15CHTO   H44 6235   5.638   2.995   0.633  1.0904 -0.5504 -1.2975
   15CHTO   C25 6236   5.783   3.130   0.387  0.4026 -0.4878 -0.7447
   15CHTO   H53 6237   5.876   3.106   0.440  1.6593 -1.3638 -3.2562
   15CHTO   O17 6238   5.792   3.092   0.249  0.2630 -0.1940  0.0293
   15CHTO   C32 6239   5.856   2.971   0.232 -0.0435  0.3108  0.2978
   15CHTO   H60 6240   5.958   2.969   0.270 -0.1956 -0.4208  0.6728
   15CHTO   C36 6241   5.862   2.948   0.077 -0.0992  1.2739 -0.6891
   15CHTO   O25 6242   5.938   2.830   0.044 -0.1486  0.4099 -0.0301
   15CHTO   H40 6243   6.029   2.853   0.037  0.2331 -0.7682  0.9202
   15CHTO   O15 6244   5.752   3.301   0.402  0.2719 -0.2182  0.4404
   15CHTO   C19 6245   5.816   3.424   0.437 -0.1938 -0.1298 -0.5531
   15CHTO   H47 6246   5.823   3.486   0.347 -0.0775 -0.9244 -1.1035
   15CHTO   C20 6247   5.725   3.493   0.546  0.3720 -0.2365  0.5863
   15CHTO   H48 6248   5.707   3.429   0.633 -2.0872 -0.9785 -0.4272
   15CHTO   O19 6249   5.602   3.521   0.482  0.2155 -0.2882  0.2807
   15CHTO   H35 6250   5.569   3.603   0.511 -3.5603 -1.7189  0.2790
   15CHTO   C21 6251   5.793   3.628   0.597  0.2808  0.0968 -0.3490
   15CHTO   H49 6252   5.791   3.704   0.519  1.0783 -0.3332 -0.7851
   15CHTO    N4 6253   5.716   3.684   0.709 -0.2096 -0.2353 -0.1517
   15CHTO   H41 6254   5.730   3.638   0.805  1.0046 -0.2506 -0.3193
   15CHTO   H42 6255   5.720   3.791   0.723  1.1951 -0.3298  0.2802
   15CHTO   C22 6256   5.943   3.605   0.637 -0.4162 -0.0035 -0.6356
   15CHTO   H50 6257   5.961   3.558   0.734 -1.0618 -0.1547 -0.5806
   15CHTO   O14 6258   6.012   3.539   0.528  0.0050 -0.4080  0.1839
   15CHTO   C23 6259   5.958   3.408   0.496 -0.6825  0.8183  0.4428
   15CHTO   H51 6260   5.956   3.348   0.588 -1.3557  2.0277  1.2466
   15CHTO   C34 6261   6.055   3.333   0.405  0.2325 -0.3227 -0.3948
   15CHTO   O23 6262   6.183   3.312   0.462 -0.2123  0.6347 -0.1346
   15CHTO   H38 6263   6.185   3.220   0.476  0.2149  0.2617 -2.4335
   15CHTO   O16 6264   6.016   3.730   0.632 -0.0101  0.0623 -0.0884
   15CHTO   C24 6265   6.126   3.755   0.758 -0.1431 -0.0584 -0.1817
   15CHTO   H52 6266   6.106   3.687   0.841  1.0279  0.7198  0.7501
   15CHTO   C26 6267   6.112   3.899   0.809  0.3610  0.0568 -0.1286
   15CHTO   H54 6268   6.126   3.969   0.724 -2.8900 -1.1743 -1.7626
   15CHTO   O20 6269   5.980   3.908   0.857  0.2606 -0.0205 -0.5500
   15CHTO   H36 6270   5.927   3.945   0.790 -1.4342  2.1658  1.8784
   15CHTO   C30 6271   6.221   3.939   0.912  0.5939  0.2350  0.7631
   15CHTO   H58 6272   6.194   3.881   1.001 -0.7093 -0.6553 -0.2030
   15CHTO    N6 6273   6.212   4.083   0.946 -0.3765 -0.0809  0.1987
   15CHTO   H45 6274   6.237   4.129   0.852 -1.5688  0.7400  0.2736
   15CHTO   H46 6275   6.108   4.100   0.970 -0.3397  0.4258  0.0052
   15CHTO   C33 6276   6.364   3.893   0.870  0.7468  0.2676  0.3336
   15CHTO   H61 6277   6.407   3.960   0.793  1.4053  0.2159  0.6500
   15CHTO   O18 6278   6.369   3.761   0.816  0.1936  0.0349  0.0159
   15CHTO   C28 6279   6.275   3.729   0.712  0.1889 -0.1856 -0.0512
   15CHTO   H56 6280   6.297   3.775   0.615  0.8346  0.3948  0.3691
   15CHTO   C35 6281   6.298   3.574   0.706  0.2435 -0.6536 -0.3956
   15CHTO   O24 6282   6.426   3.545   0.650 -0.1144 -0.1394  0.2442
   15CHTO   H39 6283   6.429   3.589   0.567 -1.5628 -1.6683 -0.6404
   15CHTO    O9 6284   6.450   3.904   0.984  0.1491 -0.5445 -0.2630
   15CHTO   C13 6285   6.601   3.959   0.961  0.2180 -0.0134 -0.2713
   15CHTO   H26 6286   6.580   4.064   0.933  0.5805  0.1915  0.2346
   15CHTO   C11 6287   6.681   3.873   0.849 -0.0950  0.6823 -0.8282
   15CHTO   H24 6288   6.621   3.880   0.757 -0.2062 -1.4163 -0.9231
   15CHTO    O8 6289   6.671   3.734   0.880 -0.4147  0.2091 -0.6175
   15CHTO    H3 6290   6.637   3.721   0.966 -0.7759  1.0192 -0.6364
   15CHTO    C9 6291   6.823   3.938   0.835  0.8879  0.7972 -0.3349
   15CHTO   H22 6292   6.801   4.045   0.819  1.3444  1.1368  1.2524
   15CHTO    N2 6293   6.903   3.897   0.713  0.2602  0.5739 -0.0906
   15CHTO   H10 6294   7.001   3.943   0.716 -0.3574  1.8964  0.0619
   15CHTO   H11 6295   6.850   3.919   0.622  0.9616  0.4452 -0.5372
   15CHTO    C7 6296   6.891   3.921   0.975 -0.0553 -0.4369  0.8575
   15CHTO   H20 6297   6.992   3.967   0.971  0.1135 -0.9105 -0.5213
   15CHTO    O4 6298   6.819   3.996   1.076  0.3611  0.2171 -0.0828
   15CHTO   C14 6299   6.675   3.979   1.100  0.5342 -0.1400 -0.9586
   15CHTO   H27 6300   6.635   4.077   1.133 -1.4534 -1.1408 -0.2913
   15CHTO   C18 6301   6.633   3.871   1.215  0.1199 -0.2330 -0.3913
   15CHTO   O13 6302   6.674   3.914   1.349  0.1803  0.0667  0.4386
   15CHTO    H7 6303   6.613   3.973   1.389  0.4792  1.8017 -1.5428
   15CHTO    O2 6304   6.895   3.774   1.022  0.1797 -0.7888 -0.1706
   15CHTO    C1 6305   7.025   3.710   1.050 -0.2387 -0.2132  0.9807
   15CHTO   H14 6306   7.094   3.768   1.114 -0.3100 -0.9154  1.6993
   15CHTO    C2 6307   7.109   3.673   0.918  0.5080 -0.2384  0.2451
   15CHTO   H15 6308   7.039   3.627   0.846 -0.6157 -0.7318  1.6313
   15CHTO    O6 6309   7.161   3.797   0.864  0.1132 -0.1648  0.1388
   15CHTO    H1 6310   7.094   3.857   0.836  1.0239  1.4238  1.2970
   15CHTO    C3 6311   7.211   3.563   0.949 -0.4200 -0.1931 -0.2499
   15CHTO   H16 6312   7.285   3.608   1.017 -1.1406  0.2336  0.2663
   15CHTO    N1 6313   7.285   3.517   0.828 -0.1497 -0.0815 -0.0858
   15CHTO    H8 6314   7.228   3.459   0.756 -0.5116  1.0514 -0.7302
   15CHTO    H9 6315   7.340   3.596   0.779  1.9611 -0.8311  0.9975
   15CHTO    C4 6316   7.143   3.456   1.042  0.1254  0.1285  0.0387
   15CHTO   H17 6317   7.069   3.406   0.979 -0.4166 -0.4018  1.0803
   15CHTO    O1 6318   7.086   3.506   1.158 -0.2897 -0.3686 -0.3893
   15CHTO    C5 6319   6.978   3.592   1.133 -0.4412  0.3734 -0.7307
   15CHTO   H18 6320   6.899   3.541   1.076 -2.3976  1.1473  1.2193
   15CHTO   C16 6321   6.920   3.635   1.266  0.4306  0.4292  0.3331
   15CHTO   O11 6322   6.864   3.522   1.332  0.0115 -0.1591  0.5860
   15CHTO    H5 6323   6.803   3.469   1.283 -2.4116  0.6797  2.6113
   15CHTO    O3 6324   7.250   3.364   1.077 -0.3233 -0.2570 -0.2107
   15CHTO    C6 6325   7.232   3.242   1.150  0.7132 -0.2316  0.4455
   15CHTO   H19 6326   7.131   3.216   1.181  0.8206 -1.3322 -0.0920
   15CHTO    C8 6327   7.287   3.119   1.055 -0.3809 -0.5794  0.6218
   15CHTO   H21 6328   7.382   3.153   1.016 -2.4221  1.6245 -2.6357
   15CHTO    O7 6329   7.190   3.096   0.949  0.3549  0.0699  0.1403
   15CHTO    H2 6330   7.104   3.064   0.968  0.9641 -1.2708  0.6635
   15CHTO   C12 6331   7.307   2.993   1.146 -0.4986  0.1268  0.0764
   15CHTO   H25 6332   7.204   2.961   1.172 -1.1349  0.9942 -1.3023
   15CHTO    N3 6333   7.371   2.895   1.059 -0.1291 -0.2322  0.0799
   15CHTO   H12 6334   7.308   2.820   1.013  0.6921  0.2502 -1.8821
   15CHTO   H13 6335   7.455   2.848   1.107  0.0508 -2.1904 -2.0472
   15CHTO   C15 6336   7.387   3.026   1.276  0.3019  0.0579 -0.5685
   15CHTO   H28 6337   7.493   3.042   1.255  0.2933 -0.8571 -1.3444
   15CHTO   O10 6338   7.374   2.908   1.390 -0.4596 -0.2046  0.7078
   15CHTO    H4 6339   7.405   2.933   1.475 -1.1816  0.6120  0.7377
   15CHTO    O5 6340   7.326   3.137   1.346 -0.8393  0.0025 -0.4901
   15CHTO   C10 6341   7.315   3.261   1.279  0.2014 -0.0007 -0.1055
   15CHTO   H23 6342   7.412   3.306   1.263  0.6789 -0.9594  0.0693
   15CHTO   C17 6343   7.243   3.355   1.379  0.3942  0.6776 -0.3590
   15CHTO   O12 6344   7.282   3.489   1.358 -0.1325 -0.4775  0.5997
   15CHTO    H6 6345   7.271   3.506   1.266 -4.6819 -0.9056  0.9626
   16CHTO  H203 6346   5.134   2.989   0.865 -2.5847  1.4566 -1.5349
   16CHTO   O82 6347   5.129   3.039   0.944 -0.3140 -0.3191 -0.1781
   16CHTO  C123 6348   5.253   3.107   0.984  0.1730  0.4127 -0.3386
   16CHTO  H227 6349   5.237   3.149   1.085  1.4984  1.4106 -0.5327
   16CHTO   O77 6350   5.356   3.001   0.996 -0.0077  0.8065 -0.0263
   16CHTO  C118 6351   5.485   3.036   1.035 -0.0753 -0.3504  0.6586
   16CHTO  H222 6352   5.488   3.076   1.137 -0.3758  0.5367  0.3265
   16CHTO  C125 6353   5.565   2.899   1.032  0.4537 -0.1973  0.4714
   16CHTO   O84 6354   5.577   2.835   0.902  0.0328 -0.0931 -0.1102
   16CHTO  H205 6355   5.571   2.742   0.901  2.3479 -0.2806 -1.8582
   16CHTO  C114 6356   5.545   3.139   0.937  0.3802 -0.6080 -0.6208
   16CHTO  H218 6357   5.577   3.086   0.847 -1.5161 -1.1236 -1.0115
   16CHTO  C116 6358   5.443   3.260   0.915 -0.1636 -0.0127  0.4267
   16CHTO  H220 6359   5.438   3.314   1.012  0.2800  0.0446  0.4199
   16CHTO   O79 6360   5.502   3.355   0.823 -0.4591  0.3536 -0.1485
   16CHTO  H201 6361   5.450   3.433   0.811 -2.5405 -0.9738  0.0324
   16CHTO  C120 6362   5.297   3.210   0.878 -0.1675 -0.3918  0.6796
   16CHTO  H224 6363   5.305   3.160   0.779  0.2140 -0.2253  0.6251
   16CHTO   N21 6364   5.203   3.324   0.870 -1.0953  0.9917  0.0943
   16CHTO  H211 6365   5.248   3.413   0.911  0.9433  0.1829 -0.3461
   16CHTO  H212 6366   5.105   3.315   0.915 -1.8603 -1.3208 -1.9341
   16CHTO   O75 6367   5.667   3.185   1.005  0.7059 -0.2429  0.2382
   16CHTO  C112 6368   5.807   3.207   0.894 -0.1827 -0.2718 -0.9251
   16CHTO  H216 6369   5.783   3.266   0.804 -0.0896 -1.5856 -1.8217
   16CHTO   O73 6370   5.848   3.076   0.860 -0.4033  0.7467 -0.3262
   16CHTO  C113 6371   5.955   3.057   0.764  0.0898  0.3180  0.1333
   16CHTO  H217 6372   5.925   3.108   0.670  2.6485  1.0995 -0.3010
   16CHTO  C124 6373   5.943   2.908   0.729 -0.1484  0.1548  0.5125
   16CHTO   O83 6374   5.999   2.821   0.829  0.2483  0.3518 -0.3347
   16CHTO  H204 6375   6.030   2.740   0.795 -0.8908 -0.6930  1.0386
   16CHTO  C109 6376   6.086   3.117   0.831 -0.2351  0.5886 -0.4528
   16CHTO  H213 6377   6.107   3.059   0.923  1.7305 -1.1889 -1.9843
   16CHTO  C110 6378   6.053   3.267   0.876  0.3658 -0.1606 -0.3813
   16CHTO  H214 6379   6.032   3.319   0.782 -1.1596 -1.0097 -0.5321
   16CHTO   O78 6380   6.164   3.329   0.940 -0.4119 -0.1698  0.1757
   16CHTO  H200 6381   6.193   3.265   1.002  0.6511 -0.4104 -0.5571
   16CHTO  C111 6382   5.927   3.273   0.964  0.0475 -0.8873 -0.2500
   16CHTO  H215 6383   5.937   3.220   1.059 -2.0400  0.5479  0.8121
   16CHTO   N19 6384   5.885   3.416   1.000  0.1421  0.5110  0.4941
   16CHTO  H207 6385   5.931   3.487   0.933  0.1760  0.1779  0.1637
   16CHTO  H208 6386   5.903   3.445   1.102 -1.1250 -0.2026  0.9312
   16CHTO   O74 6387   6.203   3.108   0.748  0.5266 -0.3226  0.2514
   16CHTO  C115 6388   6.298   2.986   0.765  0.2449 -0.7692  0.7990
   16CHTO  H219 6389   6.281   2.934   0.859 -1.1411 -0.4864  0.7064
   16CHTO   O76 6390   6.268   2.886   0.657  0.7681 -0.1518 -0.8822
   16CHTO  C122 6391   6.352   2.770   0.645  0.0221  0.1506  0.2919
   16CHTO  H226 6392   6.342   2.745   0.539 -1.0486  3.5473 -0.4599
   16CHTO  C126 6393   6.273   2.661   0.716 -0.3481 -0.4944 -0.1606
   16CHTO   O85 6394   6.284   2.662   0.852  0.1569 -0.0105 -0.4904
   16CHTO  H206 6395   6.231   2.732   0.887 -0.3415 -0.6078 -0.0361
   16CHTO  C121 6396   6.504   2.777   0.699  0.1816  0.0255 -0.2559
   16CHTO  H225 6397   6.530   2.683   0.753  1.2077 -0.0377 -0.8473
   16CHTO   O81 6398   6.585   2.769   0.583 -0.6136 -0.4073 -0.0417
   16CHTO  H202 6399   6.658   2.711   0.598 -0.5751 -0.3003  0.1738
   16CHTO  C119 6400   6.534   2.899   0.794 -0.0869  0.2539  1.0665
   16CHTO  H223 6401   6.492   2.867   0.889 -1.7839  0.9874  0.5834
   16CHTO  C117 6402   6.453   3.027   0.762  0.0472 -0.0276  0.6778
   16CHTO  H221 6403   6.474   3.068   0.664  1.9899  0.5711  1.3006
   16CHTO   N20 6404   6.479   3.138   0.856 -0.2505  0.6238 -0.5540
   16CHTO  H209 6405   6.584   3.157   0.870  0.0246 -2.0944  1.6474
   16CHTO  H210 6406   6.419   3.227   0.846  0.1420  1.1262  1.3906
   16CHTO   O80 6407   6.695   2.918   0.838 -0.3075 -0.1714  0.6374
   16CHTO  C103 6408   6.776   2.807   0.927 -0.1713  0.6587  0.3347
   16CHTO  H190 6409   6.702   2.747   0.980  0.9991  1.0640  2.5049
   16CHTO  C101 6410   6.874   2.703   0.858  0.1266  0.1007 -0.0115
   16CHTO  H188 6411   6.955   2.755   0.807 -0.4824  2.0989  1.0035
   16CHTO   O68 6412   6.794   2.614   0.771  0.1214  0.2199 -0.1529
   16CHTO  H168 6413   6.843   2.559   0.713 -0.1121  1.3396 -1.4461
   16CHTO   C99 6414   6.951   2.619   0.980  0.2289  0.1356 -0.3699
   16CHTO  H186 6415   6.872   2.554   1.024  0.6529 -0.7850 -0.9530
   16CHTO   N17 6416   7.062   2.542   0.924  0.0259 -0.2846  0.0813
   16CHTO  H174 6417   7.107   2.471   0.991  0.6658  0.6917  0.6772
   16CHTO  H175 6418   7.043   2.516   0.820 -1.5299 -0.3916  0.3690
   16CHTO   C97 6419   6.999   2.712   1.095 -0.2836  0.2473 -0.2644
   16CHTO  H184 6420   7.095   2.757   1.065 -0.4469  0.0500 -1.0807
   16CHTO   O64 6421   6.902   2.810   1.136 -0.6678 -0.3110 -0.4543
   16CHTO  C104 6422   6.845   2.893   1.034  0.5803  0.2634 -1.0086
   16CHTO  H191 6423   6.929   2.945   0.987  0.2091  0.3350 -1.5999
   16CHTO  C108 6424   6.761   3.000   1.106 -0.0005  0.2653  0.2196
   16CHTO   O71 6425   6.845   3.092   1.183  0.0585  0.1879  0.4769
   16CHTO  H171 6426   6.907   3.040   1.230 -0.1065 -1.7987 -1.4143
   16CHTO   O62 6427   7.024   2.621   1.208  0.1855 -0.5401  0.2801
   16CHTO   C91 6428   7.097   2.679   1.319 -0.2515 -0.0985 -0.3831
   16CHTO  H178 6429   7.166   2.755   1.282 -1.1981  0.6021 -0.7242
   16CHTO   C92 6430   7.182   2.562   1.391 -0.0110  0.1516 -0.7720
   16CHTO  H179 6431   7.247   2.516   1.315  0.9906 -1.9382  1.2712
   16CHTO   O66 6432   7.285   2.625   1.480 -0.4681  0.3213 -0.1308
   16CHTO  H166 6433   7.252   2.707   1.511 -1.8167 -0.0440 -0.5805
   16CHTO   C93 6434   7.085   2.469   1.473 -0.2009 -0.0802 -0.4765
   16CHTO  H180 6435   7.144   2.438   1.561 -1.3169 -3.0169 -0.7114
   16CHTO   N16 6436   7.056   2.341   1.397  0.1871 -0.1699 -0.1758
   16CHTO  H172 6437   6.962   2.299   1.429 -0.2945  0.0397 -1.3013
   16CHTO  H173 6438   7.136   2.271   1.414  1.2531  0.6989 -1.5352
   16CHTO   C94 6439   6.960   2.548   1.524  0.0637  0.4391  0.4530
   16CHTO  H181 6440   6.874   2.530   1.460  1.4711 -1.8848 -0.9063
   16CHTO   O61 6441   6.985   2.685   1.550  0.3029  0.2361  0.3618
   16CHTO   C95 6442   7.000   2.756   1.421  0.7024 -0.4689 -0.5701
   16CHTO  H182 6443   6.903   2.779   1.379  0.7768  0.1431 -0.4154
   16CHTO  C106 6444   7.054   2.891   1.469 -0.3030  0.2479  0.1594
   16CHTO   O69 6445   7.049   2.993   1.371 -0.6209  0.6252  0.1943
   16CHTO  H169 6446   7.080   3.072   1.412  1.0830  0.2955 -0.4473
   16CHTO   O63 6447   6.922   2.486   1.664 -0.3150 -0.5048  0.3231
   16CHTO   C96 6448   6.756   2.451   1.691 -0.5116 -0.1719 -0.0977
   16CHTO  H183 6449   6.747   2.392   1.783 -0.5973  1.2626  0.8351
   16CHTO   C98 6450   6.681   2.374   1.585 -0.2615 -0.5452  0.9368
   16CHTO  H185 6451   6.705   2.414   1.485 -3.7567 -0.4747  0.0683
   16CHTO   O67 6452   6.729   2.246   1.586 -0.5699 -0.2541  0.5427
   16CHTO  H167 6453   6.785   2.224   1.514 -0.2157  1.9234  0.1273
   16CHTO  C102 6454   6.523   2.371   1.612 -0.8084 -0.3702 -0.1629
   16CHTO  H189 6455   6.509   2.317   1.707 -0.2686  0.0037  0.1325
   16CHTO   N18 6456   6.443   2.302   1.503 -0.4313 -0.0701 -0.5278
   16CHTO  H176 6457   6.339   2.322   1.521 -1.0630 -1.8915 -1.9967
   16CHTO  H177 6458   6.475   2.328   1.403  0.0752  1.5165  0.0349
   16CHTO  C105 6459   6.472   2.512   1.641  0.3245  0.2873  0.5411
   16CHTO  H192 6460   6.477   2.573   1.551  3.2770 -1.2423 -0.3803
   16CHTO   O65 6461   6.547   2.571   1.756  0.2915  0.3390  0.2200
   16CHTO  C100 6462   6.686   2.588   1.710  0.4125  0.4936 -0.1018
   16CHTO  H187 6463   6.688   2.641   1.614  3.3987  1.8000  0.6348
   16CHTO  C107 6464   6.756   2.676   1.815  0.2768 -0.2046 -0.4122
   16CHTO   O70 6465   6.763   2.621   1.946 -0.3965  0.6334  0.7577
   16CHTO  H170 6466   6.853   2.623   1.971 -1.0232 -1.6883  3.5008
   16CHTO   O57 6467   6.322   2.480   1.690 -0.0089  0.0902 -0.4254
   16CHTO   C85 6468   6.220   2.566   1.629 -0.4784 -0.1142 -0.6115
   16CHTO  H157 6469   6.270   2.583   1.532 -0.8348 -0.4622 -0.8591
   16CHTO   C83 6470   6.207   2.712   1.696 -0.2973 -0.1546  0.5389
   16CHTO  H155 6471   6.309   2.749   1.702  0.5605 -2.4429  0.8072
   16CHTO   O56 6472   6.160   2.708   1.828 -0.2492  0.0599 -0.1940
   16CHTO  H135 6473   6.204   2.765   1.888 -1.7736  1.2995 -0.2090
   16CHTO   C81 6474   6.130   2.799   1.596  0.4077  0.8129  0.1200
   16CHTO  H153 6475   6.182   2.796   1.500 -0.6283 -0.1629 -0.4251
   16CHTO   N14 6476   6.120   2.941   1.628  0.2285 -0.1249  0.2504
   16CHTO  H141 6477   6.102   2.989   1.534  1.6540 -2.2809 -1.1841
   16CHTO  H142 6478   6.215   2.970   1.669  0.2004 -1.6370  1.4185
   16CHTO   C79 6479   5.990   2.730   1.578  0.1699  0.2067  0.1975
   16CHTO  H151 6480   5.939   2.786   1.500  0.8075  0.8383  0.2353
   16CHTO   O52 6481   6.005   2.594   1.524  0.2291  0.7062  0.0680
   16CHTO   C86 6482   6.080   2.503   1.612  0.4745 -0.3426  0.5387
   16CHTO  H158 6483   6.022   2.507   1.707  0.4213 -1.3012  0.5537
   16CHTO   C90 6484   6.081   2.356   1.565 -0.1002  0.4152  0.7012
   16CHTO   O60 6485   5.946   2.308   1.558 -0.3095  0.2920 -0.0639
   16CHTO  H138 6486   5.913   2.285   1.643  0.5711  0.4853  0.3280
   16CHTO   O50 6487   5.907   2.734   1.694  0.5653  0.1202  0.8289
   16CHTO   C73 6488   5.766   2.702   1.713 -0.2216  0.2042  0.1424
   16CHTO  H145 6489   5.758   2.593   1.729 -0.6293  0.4191  1.4369
   16CHTO   C74 6490   5.680   2.741   1.586 -0.0608 -0.0515  0.1408
   16CHTO  H146 6491   5.725   2.692   1.498 -1.0405 -1.4708  0.4101
   16CHTO   O54 6492   5.544   2.685   1.612 -0.0466 -0.3952  0.1283
   16CHTO  H133 6493   5.536   2.600   1.572 -1.1015  0.1018 -0.7246
   16CHTO   C75 6494   5.676   2.895   1.574  0.2422 -0.1416 -0.1960
   16CHTO  H147 6495   5.777   2.929   1.549 -0.5007  0.7125 -2.1339
   16CHTO   N13 6496   5.585   2.949   1.467 -0.4668  0.1726  0.3243
   16CHTO  H139 6497   5.628   3.023   1.401  1.2849  0.8623  2.1434
   16CHTO  H140 6498   5.543   2.875   1.401 -2.2059  1.4894 -0.0829
   16CHTO   C76 6499   5.623   2.952   1.722  0.0616 -0.4253  0.0351
   16CHTO  H148 6500   5.523   2.912   1.740  0.5884 -0.6025  2.7261
   16CHTO   O49 6501   5.716   2.909   1.824 -0.0265  0.5642  0.0332
   16CHTO   C77 6502   5.718   2.768   1.842  0.0148 -0.3815  0.3261
   16CHTO  H149 6503   5.622   2.730   1.876  0.4629 -0.8203  1.1148
   16CHTO   C88 6504   5.813   2.743   1.955  0.1985  0.7420 -0.2676
   16CHTO   O58 6505   5.810   2.616   1.997 -0.7259  0.6747 -0.0337
   16CHTO  H136 6506   5.898   2.589   2.009 -0.6654 -0.2095 -2.2940
   16CHTO   O51 6507   5.628   3.121   1.725  0.3716  0.4729 -0.1088
   16CHTO   C78 6508   5.590   3.182   1.878 -0.4454 -0.0309 -0.6960
   16CHTO  H150 6509   5.598   3.104   1.957  1.9649 -0.9769 -1.8362
   16CHTO   C80 6510   5.450   3.240   1.871  0.2290  0.4279 -0.1064
   16CHTO  H152 6511   5.453   3.329   1.804  0.5650  0.8173  0.4166
   16CHTO   O55 6512   5.359   3.138   1.829 -0.0886 -0.4574  0.1541
   16CHTO  H134 6513   5.349   3.080   1.902  1.4134  1.2814  1.7894
   16CHTO   C84 6514   5.426   3.309   2.014  0.3987  0.6354  0.0873
   16CHTO  H156 6515   5.426   3.234   2.093  0.4763  1.7668  1.1597
   16CHTO   N15 6516   5.285   3.372   2.032  0.1289  0.7328  0.0819
   16CHTO  H143 6517   5.221   3.288   2.015  2.7375 -0.9953 -1.4571
   16CHTO  H144 6518   5.282   3.405   2.134  1.6852  0.2278  0.3002
   16CHTO   C87 6519   5.531   3.421   2.039 -0.3325  0.3176  0.3268
   16CHTO  H159 6520   5.528   3.498   1.961  0.9198 -0.8688 -0.9180
   16CHTO   O53 6521   5.666   3.355   2.034  0.4022  0.3934 -0.6584
   16CHTO   C82 6522   5.696   3.293   1.904  0.7071  0.2461  0.0105
   16CHTO  H154 6523   5.698   3.373   1.829  0.8510  1.6325  1.4705
   16CHTO   C89 6524   5.846   3.238   1.918  0.4875  0.1227  0.1136
   16CHTO   O59 6525   5.906   3.214   1.795 -0.0529  0.1592 -0.0498
   16CHTO  H137 6526   5.966   3.143   1.801  0.2550  0.3084 -1.2213
   16CHTO   O45 6527   5.514   3.481   2.199  0.0766 -0.0115 -0.3297
   16CHTO   C67 6528   5.625   3.566   2.227  1.0354  0.6592  0.7102
   16CHTO  H124 6529   5.707   3.543   2.159 -0.9238  0.5633 -1.6786
   16CHTO   C65 6530   5.586   3.720   2.194 -0.7661 -0.2504  0.4774
   16CHTO  H122 6531   5.479   3.737   2.210 -0.8300  0.2445 -0.4250
   16CHTO   O44 6532   5.617   3.737   2.054 -0.8426 -0.4957  0.0599
   16CHTO  H102 6533   5.542   3.774   2.012 -0.7162 -1.5639 -1.1532
   16CHTO   C63 6534   5.663   3.819   2.290 -0.2253 -0.0911 -1.0057
   16CHTO  H120 6535   5.618   3.824   2.390 -0.7184 -1.1027 -1.1682
   16CHTO   N11 6536   5.647   3.964   2.259  0.1959  0.6553  0.2223
   16CHTO  H108 6537   5.593   3.969   2.167 -0.0789 -0.0819  0.3395
   16CHTO  H109 6538   5.742   4.012   2.251 -1.0624  3.1302 -0.1760
   16CHTO   C61 6539   5.809   3.768   2.315  0.5814  0.9183 -0.2046
   16CHTO  H118 6540   5.864   3.836   2.382 -0.3289 -0.0993  1.6218
   16CHTO   O40 6541   5.802   3.638   2.381 -0.2418 -0.2879  0.0532
   16CHTO   C68 6542   5.677   3.558   2.373 -0.5111 -0.5649  0.2491
   16CHTO  H125 6543   5.604   3.592   2.450 -0.2621  1.8634 -0.5431
   16CHTO   C72 6544   5.711   3.411   2.404  0.2377 -0.0855  0.0719
   16CHTO   O48 6545   5.705   3.384   2.547 -0.5409 -0.8409 -0.1683
   16CHTO  H105 6546   5.779   3.424   2.589 -0.6502  0.1794 -0.9019
   16CHTO   O38 6547   5.882   3.755   2.191 -0.4391  0.4933  0.9128
   16CHTO   C55 6548   6.030   3.754   2.198  0.2799  0.7194 -0.0872
   16CHTO  H112 6549   6.063   3.748   2.303  0.7619  0.8017 -0.2288
   16CHTO   C56 6550   6.098   3.878   2.115 -0.5605 -0.2599 -0.2709
   16CHTO  H113 6551   6.061   3.871   2.012  0.7942  2.3246 -0.9686
   16CHTO   O42 6552   6.049   3.999   2.171  0.4891 -0.5114  0.2955
   16CHTO  H100 6553   5.957   4.006   2.154  0.6604 -0.0003 -0.4191
   16CHTO   C57 6554   6.255   3.867   2.109  0.1432  0.1303  0.0350
   16CHTO  H114 6555   6.291   3.887   2.210  2.3420  0.6425 -0.8152
   16CHTO   N10 6556   6.315   3.971   2.022  0.5235  0.2855 -0.4511
   16CHTO  H106 6557   6.410   3.933   1.990  0.4878 -2.5298  2.4858
   16CHTO  H107 6558   6.329   4.064   2.075 -1.0329 -0.9970  2.3492
   16CHTO   C58 6559   6.302   3.723   2.070  0.0881  0.3775  0.1967
   16CHTO  H115 6560   6.266   3.707   1.966  2.5048  2.1795 -0.9787
   16CHTO   O37 6561   6.242   3.628   2.165  0.7139 -0.0749 -0.0780
   16CHTO   C59 6562   6.098   3.623   2.141  0.1693 -0.7994  0.0258
   16CHTO  H116 6563   6.081   3.613   2.034  0.1151 -1.3479  0.0865
   16CHTO   C70 6564   6.029   3.494   2.194 -0.2235 -0.9426  0.2764
   16CHTO   O46 6565   6.068   3.463   2.330  0.4436  0.4050  0.3878
   16CHTO  H103 6566   5.990   3.452   2.380 -0.6737  2.5162 -0.8265
   16CHTO   O39 6567   6.467   3.710   2.084  0.3827  0.4314 -0.1080
   16CHTO   C60 6568   6.531   3.642   1.978  0.2076  0.5527 -0.9113
   16CHTO  H117 6569   6.458   3.595   1.912  0.9854 -1.4674 -0.3526
   16CHTO   C62 6570   6.602   3.745   1.885  0.7417  0.3073 -0.1741
   16CHTO  H119 6571   6.521   3.806   1.838 -0.9381 -0.0517  2.1493
   16CHTO   O43 6572   6.689   3.836   1.952 -1.1381 -0.4745 -0.5150
   16CHTO  H101 6573   6.776   3.804   1.967 -1.5219 -0.4471  2.0012
   16CHTO   C66 6574   6.666   3.654   1.777 -0.4607 -0.3033 -0.0694
   16CHTO  H123 6575   6.587   3.592   1.734 -0.7150 -0.4217  0.5580
   16CHTO   N12 6576   6.718   3.730   1.662  0.4687 -0.0335  0.1255
   16CHTO  H110 6577   6.636   3.770   1.605  0.8335  0.7355  0.1457
   16CHTO  H111 6578   6.786   3.811   1.680  0.1048  0.2526  0.2114
   16CHTO   C69 6579   6.775   3.560   1.825 -0.3285 -0.6810 -0.1621
   16CHTO  H126 6580   6.865   3.614   1.862 -0.9893  0.2143  0.1401
   16CHTO   O41 6581   6.714   3.467   1.939  0.1690 -0.0745  0.8520
   16CHTO   C64 6582   6.618   3.528   2.036  0.2038 -0.1141 -0.1230
   16CHTO  H121 6583   6.684   3.574   2.113 -0.5583  0.4170  0.2128
   16CHTO   C71 6584   6.530   3.425   2.101 -0.0659 -0.0279  0.6053
   16CHTO   O47 6585   6.430   3.372   2.019 -0.6473 -0.1083 -0.1165
   16CHTO  H104 6586   6.362   3.434   1.996 -1.4266 -0.1765  1.8757
   16CHTO   O34 6587   6.829   3.450   1.714 -0.3459  0.1977 -0.1803
   16CHTO   C49 6588   6.945   3.350   1.693 -0.1199 -0.1170 -0.1858
   16CHTO   H91 6589   7.010   3.399   1.620 -0.1923  0.8536  0.3869
   16CHTO   C47 6590   6.887   3.222   1.630 -0.0975  0.0831  0.0221
   16CHTO   H89 6591   6.967   3.152   1.598 -0.3739  0.4307 -1.4267
   16CHTO   O33 6592   6.830   3.269   1.506  0.1693 -0.2286  0.6054
   16CHTO   H70 6593   6.757   3.217   1.478 -0.8175  1.4185  0.0185
   16CHTO   C45 6594   6.786   3.158   1.742 -0.3814 -0.3342 -0.2775
   16CHTO   H87 6595   6.710   3.233   1.768 -0.1287  0.1140 -0.8255
   16CHTO    N8 6596   6.711   3.036   1.695  0.0349  0.2928  0.2760
   16CHTO   H75 6597   6.606   3.061   1.686 -0.2265 -0.2298  1.6327
   16CHTO   H76 6598   6.745   3.003   1.598  0.0855 -0.5754  0.5840
   16CHTO   C43 6599   6.865   3.142   1.879 -0.1492 -0.2764  0.0226
   16CHTO   H85 6600   6.793   3.109   1.954 -0.4555 -1.8654 -0.9514
   16CHTO   O29 6601   6.944   3.256   1.920 -0.3981  0.0023 -0.1642
   16CHTO   C50 6602   7.018   3.327   1.822 -0.2635 -0.1253 -0.1922
   16CHTO   H92 6603   7.034   3.425   1.871 -3.9739 -0.2493  1.4982
   16CHTO   C54 6604   7.154   3.264   1.792 -0.2358  0.3690  0.3254
   16CHTO   O36 6605   7.224   3.214   1.909  0.1647 -0.2926  0.3588
   16CHTO   H72 6606   7.310   3.251   1.915  0.0074  0.3670 -1.1879
   16CHTO   O27 6607   6.956   3.033   1.870 -0.5486 -0.2245  0.2853
   16CHTO   C37 6608   7.029   2.959   1.971  0.0276 -0.2770 -0.3323
   16CHTO   H79 6609   7.106   3.022   2.017 -0.1903 -1.1842  1.3288
   16CHTO   C38 6610   6.940   2.918   2.090  0.5567 -0.3544  1.2047
   16CHTO   H80 6611   6.848   2.878   2.046  3.0401 -1.8193 -3.0008
   16CHTO   O31 6612   6.918   3.029   2.177  0.1510  0.3802  0.3498
   16CHTO   H68 6613   6.998   3.043   2.225  1.9128  0.0239 -2.3514
   16CHTO   C39 6614   7.000   2.799   2.175  0.2005  0.3770  0.3592
   16CHTO   H81 6615   7.081   2.845   2.231  0.7428  1.3782 -1.2236
   16CHTO    N7 6616   6.896   2.750   2.274  0.0985  0.1185  0.7994
   16CHTO   H73 6617   6.941   2.672   2.334  0.8639 -0.5750 -0.6487
   16CHTO   H74 6618   6.811   2.706   2.224 -0.5377 -0.0558  2.0074
   16CHTO   C40 6619   7.056   2.686   2.083  0.2605  0.4114  0.3446
   16CHTO   H82 6620   6.980   2.642   2.019  1.6671 -1.0454 -0.3466
   16CHTO   O26 6621   7.160   2.750   2.008 -0.6156 -0.2886 -0.0197
   16CHTO   C41 6622   7.101   2.834   1.905  0.0317 -0.5901 -0.1539
   16CHTO   H83 6623   7.031   2.776   1.845 -0.2460 -1.2922  0.8320
   16CHTO   C52 6624   7.214   2.881   1.805 -0.0550  0.5447 -0.9821
   16CHTO   O35 6625   7.315   2.767   1.770 -0.5511  0.6224 -0.3906
   16CHTO   H71 6626   7.308   2.751   1.678 -2.3446 -1.1386  0.0382
   16CHTO   O28 6627   7.108   2.577   2.159  0.1634  0.1379 -0.1939
   16CHTO   C42 6628   7.111   2.434   2.122 -0.0078 -0.2192 -0.3755
   16CHTO   H84 6629   7.213   2.405   2.144 -0.1067  0.4446  1.0119
   16CHTO   C44 6630   7.085   2.399   1.972 -0.2516  0.8002  0.5223
   16CHTO   H86 6631   7.005   2.464   1.938 -0.9644 -0.4319 -0.1754
   16CHTO   O32 6632   7.205   2.449   1.906  0.4671 -0.1035 -0.0086
   16CHTO   H69 6633   7.179   2.465   1.817 -0.0611 -1.0955 -0.0301
   16CHTO   C48 6634   7.057   2.244   1.937 -0.3866 -0.1972 -0.6321
   16CHTO   H90 6635   7.151   2.189   1.937  0.7104  1.5798  0.6978
   16CHTO    N9 6636   7.000   2.231   1.804 -0.0564  0.0256  0.2904
   16CHTO   H77 6637   7.065   2.283   1.735 -1.3347  0.6439 -0.4555
   16CHTO   H78 6638   6.896   2.259   1.793 -0.0812 -0.2401 -0.1648
   16CHTO   C51 6639   6.967   2.184   2.050  0.4281 -0.2236  0.4478
   16CHTO   H93 6640   6.874   2.241   2.054 -0.4382 -1.4885 -1.0790
   16CHTO   O30 6641   7.036   2.201   2.172 -0.0404  0.7514 -0.0658
   16CHTO   C46 6642   7.023   2.349   2.218 -0.5491  0.4530  0.8540
   16CHTO   H88 6643   6.918   2.377   2.210 -0.6347 -0.1310 -0.1690
   16CHTO   C53 6644   7.077   2.356   2.370 -0.3766 -0.0365 -0.7506
   16CHTO   O72 6645   7.058   2.493   2.423  0.2580 -0.0433 -0.6397
   16CHTO  H199 6646   6.966   2.501   2.412  0.0307 -2.0623 -0.5264
   16CHTO   O22 6647   6.945   2.042   2.035  0.0570  0.1375 -0.7691
   16CHTO   C31 6648   6.825   1.973   2.076  0.3314 -0.1163  0.5160
   16CHTO   H59 6649   6.849   1.864   2.072  0.1127 -0.1273 -0.7357
   16CHTO   C29 6650   6.789   1.998   2.227  0.2220  0.0378  0.8155
   16CHTO   H57 6651   6.761   2.102   2.247 -1.6105 -0.8080  2.8593
   16CHTO   O21 6652   6.892   1.952   2.310  0.5148 -0.0048 -0.1826
   16CHTO   H37 6653   6.893   2.006   2.387  0.6281  1.2141 -1.0242
   16CHTO   C27 6654   6.665   1.911   2.272  0.0328 -0.0075  0.6684
   16CHTO   H55 6655   6.698   1.806   2.263  2.8066  0.9509 -0.9986
   16CHTO    N5 6656   6.614   1.943   2.406 -0.8681 -0.0846 -0.7286
   16CHTO   H43 6657   6.647   2.038   2.444  1.9011 -1.2053 -0.2365
   16CHTO   H44 6658   6.644   1.867   2.477  0.2768 -1.5172 -2.6861
   16CHTO   C25 6659   6.554   1.921   2.165 -0.2154 -0.5942  0.3302
   16CHTO   H53 6660   6.520   2.025   2.179  3.7334  1.1066 -1.6464
   16CHTO   O17 6661   6.596   1.903   2.029 -0.1887 -0.2206 -0.7581
   16CHTO   C32 6662   6.702   1.988   1.987  0.4704 -0.3138 -0.2391
   16CHTO   H60 6663   6.667   2.091   1.988  0.2357 -0.3947  0.0650
   16CHTO   C36 6664   6.734   1.957   1.843 -0.1002  0.1221 -0.4191
   16CHTO   O25 6665   6.631   1.980   1.748 -0.3525  0.3185  0.1799
   16CHTO   H40 6666   6.676   1.984   1.666  1.2699 -0.2963  1.0169
   16CHTO   O15 6667   6.455   1.814   2.186  0.5203 -0.4291 -0.4608
   16CHTO   C19 6668   6.333   1.759   2.237  0.0529 -0.4394 -0.2582
   16CHTO   H47 6669   6.333   1.789   2.343  0.9524 -2.6345  0.3779
   16CHTO   C20 6670   6.210   1.812   2.166 -0.2342  0.0811 -0.2087
   16CHTO   H48 6671   6.210   1.789   2.059 -2.7370  0.8362 -0.3958
   16CHTO   O19 6672   6.226   1.956   2.177  0.0553 -0.2424 -0.6543
   16CHTO   H35 6673   6.145   1.991   2.145 -1.0905 -2.1897  0.0201
   16CHTO   C21 6674   6.079   1.750   2.225  0.0584  0.3213  0.1327
   16CHTO   H49 6675   6.064   1.779   2.330  0.5050 -1.2375  0.6351
   16CHTO    N4 6676   5.962   1.809   2.150 -0.1628 -0.9465 -0.0128
   16CHTO   H41 6677   5.888   1.833   2.225  2.8112 -2.4451  3.5276
   16CHTO   H42 6678   5.922   1.746   2.072 -0.6789 -1.1078  0.3739
   16CHTO   C22 6679   6.080   1.600   2.227 -0.1029 -0.1655  0.2567
   16CHTO   H50 6680   6.082   1.564   2.125  0.4434  1.9465 -0.5029
   16CHTO   O14 6681   6.198   1.557   2.297  0.4386 -0.0442 -0.2091
   16CHTO   C23 6682   6.322   1.606   2.244  0.2342 -0.3920 -0.6564
   16CHTO   H51 6683   6.334   1.559   2.145  1.4894  1.1347 -1.2542
   16CHTO   C34 6684   6.432   1.550   2.336  0.0241 -0.4326  0.1833
   16CHTO   O23 6685   6.558   1.552   2.274  0.3366 -0.1730 -0.3001
   16CHTO   H38 6686   6.568   1.477   2.218 -0.3722 -0.6887  0.2513
   16CHTO   O16 6687   5.969   1.541   2.300 -0.7956  0.3959 -0.0112
   16CHTO   C24 6688   5.871   1.436   2.207 -0.7891  0.1955  0.1256
   16CHTO   H52 6689   5.893   1.442   2.100 -0.1497 -1.3645  0.1638
   16CHTO   C26 6690   5.724   1.482   2.232 -0.0981  0.8178  0.1439
   16CHTO   H54 6691   5.711   1.494   2.342  0.3034 -2.0243  0.5468
   16CHTO   O20 6692   5.697   1.607   2.170 -0.2240  0.4766  0.0370
   16CHTO   H36 6693   5.605   1.618   2.183  0.2071  1.8630  2.3771
   16CHTO   C30 6694   5.630   1.366   2.186 -0.0005  0.2933  0.1905
   16CHTO   H58 6695   5.634   1.350   2.077 -1.0795 -0.5180  0.2678
   16CHTO    N6 6696   5.485   1.387   2.221  0.0215 -0.5511 -0.2812
   16CHTO   H45 6697   5.460   1.478   2.169 -1.8577 -0.3031  1.0257
   16CHTO   H46 6698   5.427   1.306   2.178  1.8348 -1.6323 -0.7331
   16CHTO   C33 6699   5.676   1.227   2.245 -0.9090  0.1309  0.6198
   16CHTO   H61 6700   5.666   1.228   2.355  0.9949 -0.8429  0.8072
   16CHTO   O18 6701   5.810   1.204   2.205  0.5224  0.2781  0.9854
   16CHTO   C28 6702   5.903   1.296   2.263  0.6523  0.2053  0.4495
   16CHTO   H56 6703   5.889   1.298   2.371  2.2482  0.9846  0.6548
   16CHTO   C35 6704   6.052   1.244   2.224  0.1214 -1.0568  0.7942
   16CHTO   O24 6705   6.172   1.270   2.305 -0.1572 -0.1103  0.5756
   16CHTO   H39 6706   6.157   1.268   2.398 -0.2083 -0.1265  0.5673
   16CHTO    O9 6707   5.593   1.119   2.197 -0.2291  0.2168  0.6662
   16CHTO   C13 6708   5.613   0.984   2.281 -0.2292 -0.9585  0.6340
   16CHTO   H26 6709   5.719   0.977   2.314 -0.5289 -0.3060  1.7666
   16CHTO   C11 6710   5.557   0.863   2.193  0.5791 -0.2191  0.4208
   16CHTO   H24 6711   5.620   0.861   2.102  0.6977 -2.0230  0.5240
   16CHTO    O8 6712   5.417   0.876   2.149 -0.1222 -0.4984  0.2363
   16CHTO    H3 6713   5.414   0.923   2.068  1.2606 -1.3953 -0.3604
   16CHTO    C9 6714   5.587   0.733   2.269  0.2621  0.0845 -0.1008
   16CHTO   H22 6715   5.694   0.730   2.296  0.5468 -2.6115 -1.3386
   16CHTO    N2 6716   5.566   0.613   2.190 -0.0849 -0.3126 -0.4133
   16CHTO   H10 6717   5.655   0.554   2.173 -0.4266 -0.3310 -2.2098
   16CHTO   H11 6718   5.485   0.550   2.223  0.8318 -2.3718 -1.9742
   16CHTO    C7 6719   5.519   0.742   2.409  0.3511 -0.1551  0.2531
   16CHTO   H20 6720   5.581   0.664   2.458 -0.0390 -1.8085 -1.8035
   16CHTO    O4 6721   5.532   0.863   2.482  0.1426 -0.0351  0.1756
   16CHTO   C14 6722   5.539   0.994   2.424 -0.3837  0.4371 -0.0752
   16CHTO   H27 6723   5.595   1.054   2.499  0.0948  1.6397 -1.3713
   16CHTO   C18 6724   5.396   1.057   2.414  0.3502 -0.0961  0.3153
   16CHTO   O13 6725   5.346   1.071   2.544  0.2396  0.5608 -0.0567
   16CHTO    H7 6726   5.368   1.150   2.590  2.8002 -0.1783  0.0262
   16CHTO    O2 6727   5.356   0.696   2.400  0.0461  0.5176 -0.1870
   16CHTO    C1 6728   5.295   0.633   2.508  0.9512  0.4841  0.6664
   16CHTO   H14 6729   5.195   0.604   2.469  1.3997  1.4641 -1.2846
   16CHTO    C2 6730   5.271   0.729   2.635  0.4609  0.9744  0.2395
   16CHTO   H15 6731   5.373   0.765   2.660  0.9241 -1.0335  1.3220
   16CHTO    O6 6732   5.183   0.841   2.594 -0.7512 -0.0100 -0.5519
   16CHTO    H1 6733   5.227   0.893   2.530  1.2453 -0.9065  0.0556
   16CHTO    C3 6734   5.205   0.649   2.758 -0.2042  0.2916 -0.0639
   16CHTO   H16 6735   5.104   0.622   2.722  0.5972 -0.0722 -2.0820
   16CHTO    N1 6736   5.193   0.735   2.882  0.0433  0.4373 -0.2752
   16CHTO    H8 6737   5.160   0.835   2.858  0.8057  0.6935 -0.2628
   16CHTO    H9 6738   5.290   0.750   2.927 -0.5188  0.5344  0.9351
   16CHTO    C4 6739   5.281   0.513   2.778  0.4000  0.3907 -0.7297
   16CHTO   H17 6740   5.374   0.533   2.832  0.5391 -0.4792 -0.6266
   16CHTO    O1 6741   5.287   0.441   2.651 -0.0062 -0.0617  0.3344
   16CHTO    C5 6742   5.370   0.507   2.554 -0.7322 -0.8555 -0.4160
   16CHTO   H18 6743   5.463   0.532   2.605 -0.0924 -0.2660 -1.8521
   16CHTO   C16 6744   5.395   0.394   2.447  0.5066  0.3696  0.4022
   16CHTO   O11 6745   5.507   0.314   2.497 -0.1688 -0.2410 -0.3424
   16CHTO    H5 6746   5.526   0.237   2.447  0.4137 -0.1285 -0.2962
   16CHTO    O3 6747   5.195   0.434   2.861  0.2167  0.0052  0.1571
   16CHTO    C6 6748   5.262   0.349   2.965 -0.4427 -0.1221  0.1967
   16CHTO   H19 6749   5.368   0.344   2.940 -0.2716  0.0365  0.8910
   16CHTO    C8 6750   5.238   0.400   3.118 -0.2699  0.5267 -0.2255
   16CHTO   H21 6751   5.131   0.409   3.136  0.0680  0.4810  1.9580
   16CHTO    O7 6752   5.302   0.529   3.142  0.3972 -0.3564  0.2807
   16CHTO    H2 6753   5.262   0.610   3.118  1.6819  0.5640  1.1206
   16CHTO   C12 6754   5.293   0.289   3.216 -0.0740 -0.4395  0.1447
   16CHTO   H25 6755   5.402   0.296   3.202 -0.3493  2.4961 -0.8995
   16CHTO    N3 6756   5.263   0.319   3.355  0.1276 -0.1443 -0.4579
   16CHTO   H12 6757   5.161   0.346   3.378  0.2512  1.1657 -1.3750
   16CHTO   H13 6758   5.305   0.249   3.426 -2.9500 -1.3581  0.2430
   16CHTO   C15 6759   5.248   0.147   3.176  0.1401 -0.3923  0.2228
   16CHTO   H28 6760   5.140   0.143   3.183  0.0198  2.1969  0.2407
   16CHTO   O10 6761   5.306   0.040   3.267  0.4688 -0.4213 -0.0871
   16CHTO    H4 6762   5.353  -0.020   3.211  1.3320 -0.1305  0.3248
   16CHTO    O5 6763   5.281   0.123   3.041 -0.6483  0.3333 -0.4154
   16CHTO   C10 6764   5.206   0.208   2.952  0.4065  0.0702  0.6884
   16CHTO   H23 6765   5.100   0.200   2.975  0.1114  0.4899 -0.4936
   16CHTO   C17 6766   5.219   0.145   2.813  0.0906 -0.0231  0.3393
   16CHTO   O12 6767   5.358   0.128   2.780 -0.6661  0.0108  0.4483
   16CHTO    H6 6768   5.364   0.097   2.692  3.7279  1.1957  0.2301
   17CHTO  H203 6769   5.574   3.740   0.427  2.7814 -0.7904 -0.1951
   17CHTO   O82 6770   5.581   3.806   0.360  0.7115 -0.2676  0.0644
   17CHTO  C123 6771   5.571   3.935   0.431 -0.2181  0.0533 -0.0788
   17CHTO  H227 6772   5.651   3.942   0.505 -0.9035 -1.5002  0.8367
   17CHTO   O77 6773   5.595   4.021   0.321  0.2242 -0.0394 -0.0281
   17CHTO  C118 6774   5.588   4.160   0.352  0.0082  0.5696 -0.4092
   17CHTO  H222 6775   5.671   4.164   0.423  1.1528 -1.9572 -1.5418
   17CHTO  C125 6776   5.619   4.253   0.224  0.2018  0.4500  0.5306
   17CHTO   O84 6777   5.541   4.226   0.110 -0.3919 -0.4879  0.5281
   17CHTO  H205 6778   5.524   4.311   0.074 -1.4774 -0.7129  0.4665
   17CHTO  C114 6779   5.453   4.206   0.414  0.0502  0.5675  0.0249
   17CHTO  H218 6780   5.377   4.201   0.336  1.5256 -0.5007 -1.3542
   17CHTO  C116 6781   5.406   4.102   0.530 -0.0139 -0.6607  0.1069
   17CHTO  H220 6782   5.467   4.112   0.622 -1.1823  1.9690  0.6387
   17CHTO   O79 6783   5.275   4.143   0.575 -0.1310 -0.4358  0.3147
   17CHTO  H201 6784   5.212   4.093   0.527 -0.4227 -2.1363  2.4129
   17CHTO  C120 6785   5.421   3.953   0.486 -0.0135  0.4242  0.3029
   17CHTO  H224 6786   5.346   3.940   0.405  0.1820  0.4589  0.1123
   17CHTO   N21 6787   5.403   3.865   0.604  0.8179 -0.1138 -0.0737
   17CHTO  H211 6788   5.358   3.770   0.578  1.6564  0.0465 -2.1898
   17CHTO  H212 6789   5.492   3.859   0.665  1.3616  2.3593 -0.5479
   17CHTO   O75 6790   5.474   4.336   0.470 -0.4653 -0.2471  0.2455
   17CHTO  C112 6791   5.450   4.466   0.390  0.9329  0.1075  0.2798
   17CHTO  H216 6792   5.399   4.446   0.295  0.2559  1.7246  0.2897
   17CHTO   O73 6793   5.582   4.533   0.374 -0.0683  0.3071  0.1613
   17CHTO  C113 6794   5.585   4.653   0.303 -0.1117  0.0723 -0.3339
   17CHTO  H217 6795   5.538   4.643   0.203  0.6687 -1.5694 -0.5379
   17CHTO  C124 6796   5.724   4.700   0.284  0.1426 -0.2160 -0.0686
   17CHTO   O83 6797   5.811   4.597   0.226 -0.2389 -0.2361 -0.4592
   17CHTO  H204 6798   5.774   4.546   0.156  0.8990  0.0849 -1.3143
   17CHTO  C109 6799   5.507   4.764   0.377 -0.6215 -0.1299 -0.5327
   17CHTO  H213 6800   5.564   4.784   0.469  1.3616  0.0872 -1.7676
   17CHTO  C110 6801   5.363   4.715   0.401 -0.0955 -0.2726 -0.6469
   17CHTO  H214 6802   5.311   4.714   0.306 -2.0222 -1.6308  0.3932
   17CHTO   O78 6803   5.297   4.810   0.484  0.1652  0.5629  0.2186
   17CHTO  H200 6804   5.362   4.865   0.524  2.7790 -0.5784 -2.2838
   17CHTO  C111 6805   5.365   4.572   0.470  0.1389  0.0338  0.2721
   17CHTO  H215 6806   5.409   4.580   0.571  1.4560 -2.3219 -0.0642
   17CHTO   N19 6807   5.233   4.520   0.490 -0.3147  0.1003  0.0561
   17CHTO  H207 6808   5.170   4.514   0.402 -0.0791 -2.2640  0.0193
   17CHTO  H208 6809   5.183   4.572   0.570  0.2803  2.0880 -0.8258
   17CHTO   O74 6810   5.507   4.894   0.303 -0.0127  0.1217  0.1060
   17CHTO  C115 6811   5.500   5.024   0.399  0.3493 -0.7096  0.2156
   17CHTO  H219 6812   5.443   5.003   0.490  1.0128  0.7562  0.9826
   17CHTO   O76 6813   5.629   5.058   0.449 -0.1448  0.3747 -0.0769
   17CHTO  C122 6814   5.733   5.072   0.350  0.1621  0.3185  0.0548
   17CHTO  H226 6815   5.746   4.970   0.315  1.0117 -0.0529  1.3943
   17CHTO  C126 6816   5.868   5.106   0.416 -0.8025 -0.4825  0.0654
   17CHTO   O85 6817   5.914   4.987   0.481 -0.1048  0.0072  0.6202
   17CHTO  H206 6818   5.905   5.002   0.573 -0.2107  1.7130  0.3456
   17CHTO  C121 6819   5.688   5.186   0.248 -0.7202  0.0085 -0.1049
   17CHTO  H225 6820   5.763   5.268   0.245 -1.7994  1.0677  1.4161
   17CHTO   O81 6821   5.684   5.133   0.117 -0.0676 -0.0117  0.1395
   17CHTO  H202 6822   5.628   5.059   0.109 -1.8033  1.5513 -2.8612
   17CHTO  C119 6823   5.552   5.250   0.296  0.4651 -1.1842  0.6362
   17CHTO  H223 6824   5.567   5.300   0.391 -1.9256  1.2513 -0.2075
   17CHTO  C117 6825   5.441   5.139   0.305 -0.5181 -0.1018  0.2756
   17CHTO  H221 6826   5.409   5.092   0.212  0.6694 -0.6131  0.1153
   17CHTO   N20 6827   5.319   5.190   0.362  0.0986 -0.2414  0.2218
   17CHTO  H209 6828   5.295   5.291   0.333  0.4978  0.2478  1.5412
   17CHTO  H210 6829   5.239   5.117   0.356  0.6857 -0.8594 -0.1912
   17CHTO   O80 6830   5.505   5.366   0.215  0.3477  0.1193 -0.1802
   17CHTO  C103 6831   5.590   5.491   0.197 -0.9809 -0.4001 -0.5837
   17CHTO  H190 6832   5.677   5.482   0.262 -1.2658 -2.7820 -0.5164
   17CHTO  C101 6833   5.633   5.529   0.056 -1.0649 -0.0866  0.0023
   17CHTO  H188 6834   5.543   5.547  -0.001 -0.4699 -1.3987 -1.3728
   17CHTO   O68 6835   5.714   5.413  -0.002 -0.3214 -0.4889 -0.1890
   17CHTO  H168 6836   5.654   5.341  -0.012 -0.6998 -0.1729 -0.1991
   17CHTO   C99 6837   5.708   5.670   0.063 -0.9097 -0.2227 -0.0620
   17CHTO  H186 6838   5.785   5.659   0.142 -1.4436 -0.8440  0.3752
   17CHTO   N17 6839   5.768   5.704  -0.071  0.1287 -0.4881 -0.1243
   17CHTO  H174 6840   5.825   5.796  -0.069  0.7149 -0.8117 -1.4069
   17CHTO  H175 6841   5.702   5.698  -0.156  2.6254 -0.6134 -2.1074
   17CHTO   C97 6842   5.602   5.774   0.112 -0.1169 -0.3823 -0.1203
   17CHTO  H184 6843   5.518   5.774   0.041  1.3326  0.3464 -1.8846
   17CHTO   O64 6844   5.567   5.732   0.243  0.7609  0.4153  0.0458
   17CHTO  C104 6845   5.501   5.606   0.255  0.2122  0.0803 -0.2382
   17CHTO  H191 6846   5.407   5.601   0.199 -0.4736  0.8701  0.8311
   17CHTO  C108 6847   5.477   5.571   0.403  0.1860 -0.0140  0.3074
   17CHTO   O71 6848   5.373   5.653   0.461  0.6031 -0.0764 -0.4071
   17CHTO  H171 6849   5.310   5.683   0.398 -0.0906  0.8769  0.7279
   17CHTO   O62 6850   5.666   5.903   0.133  0.5563  0.2369 -0.1138
   17CHTO   C91 6851   5.589   6.024   0.140  0.7042  0.2867  0.0729
   17CHTO  H178 6852   5.498   6.022   0.079  0.2848 -0.0932  0.7169
   17CHTO   C92 6853   5.673   6.126   0.066  0.2600  0.9746  0.0122
   17CHTO  H179 6854   5.686   6.088  -0.036 -2.5838  0.3496 -0.1681
   17CHTO   O66 6855   5.596   6.242   0.031 -0.0701 -0.0794 -0.0263
   17CHTO  H166 6856   5.519   6.216  -0.016 -1.1073  1.1168  0.9489
   17CHTO   C93 6857   5.798   6.170   0.145  0.2922  0.9054 -0.7853
   17CHTO  H180 6858   5.837   6.262   0.098  0.2696  0.2935 -2.0187
   17CHTO   N16 6859   5.911   6.073   0.133  0.1232 -0.8159  0.2890
   17CHTO  H172 6860   5.896   5.970   0.163  0.1527 -0.1870  2.5894
   17CHTO  H173 6861   5.961   6.077   0.038  0.2627 -1.0304  0.3509
   17CHTO   C94 6862   5.761   6.213   0.297 -0.3507  0.3560 -0.1192
   17CHTO  H181 6863   5.804   6.142   0.368  0.5392  1.5413  0.5462
   17CHTO   O61 6864   5.619   6.194   0.317 -0.0375  0.2194 -0.1729
   17CHTO   C95 6865   5.563   6.069   0.293  0.6351 -0.0851  0.4986
   17CHTO  H182 6866   5.609   5.992   0.355 -0.4900 -0.2267  1.1766
   17CHTO  C106 6867   5.407   6.077   0.327 -0.1121  0.4597 -0.8511
   17CHTO   O69 6868   5.343   5.958   0.290  0.7708  0.1797  0.0223
   17CHTO  H169 6869   5.256   5.955   0.325  0.1877  1.4003 -1.2677
   17CHTO   O63 6870   5.791   6.359   0.321 -0.3598  0.7255 -0.0591
   17CHTO   C96 6871   5.785   6.416   0.471 -0.4118  0.0725  0.2351
   17CHTO  H183 6872   5.712   6.354   0.524 -1.2474  0.3316 -0.5857
   17CHTO   C98 6873   5.744   6.561   0.487  0.1232 -0.0865 -0.3766
   17CHTO  H185 6874   5.787   6.622   0.406  1.2994 -0.4282 -0.0138
   17CHTO   O67 6875   5.604   6.565   0.464 -0.6632 -0.5319  0.1879
   17CHTO  H167 6876   5.562   6.564   0.549 -0.2078  3.8019  0.5616
   17CHTO  C102 6877   5.779   6.628   0.636 -0.2316 -0.9856  0.2050
   17CHTO  H189 6878   5.708   6.582   0.706  1.7519 -0.4833  2.6235
   17CHTO   N18 6879   5.760   6.776   0.642  0.5132 -0.7608  0.0705
   17CHTO  H176 6880   5.842   6.842   0.617 -0.9116  0.7984 -0.6262
   17CHTO  H177 6881   5.686   6.804   0.568  3.0651  0.7053 -2.0285
   17CHTO  C105 6882   5.925   6.606   0.681 -0.8873  0.5694 -0.0659
   17CHTO  H192 6883   5.989   6.654   0.607 -0.5675  0.1423 -0.0681
   17CHTO   O65 6884   5.949   6.465   0.662  0.0964  0.1235 -0.1590
   17CHTO  C100 6885   5.929   6.398   0.530 -0.4140  0.3695  0.0361
   17CHTO  H187 6886   6.010   6.435   0.465 -0.9162  0.3069 -0.6300
   17CHTO  C107 6887   5.960   6.246   0.562 -0.0518  0.3204 -0.3757
   17CHTO   O70 6888   5.884   6.192   0.669  0.0185 -0.5950  0.3231
   17CHTO  H170 6889   5.897   6.100   0.678  1.3864 -0.5157 -0.7240
   17CHTO   O57 6890   5.953   6.663   0.833  0.0652 -0.8312 -0.2456
   17CHTO   C85 6891   6.077   6.635   0.896  0.7947 -0.2582 -0.1355
   17CHTO  H157 6892   6.148   6.610   0.815  0.5808 -0.5429 -0.2320
   17CHTO   C83 6893   6.054   6.505   0.977  0.4933  0.8106 -0.8040
   17CHTO  H155 6894   6.042   6.428   0.901  0.2829  1.1211 -1.0824
   17CHTO   O56 6895   5.929   6.504   1.043  0.0030 -0.2718  0.0856
   17CHTO  H135 6896   5.906   6.579   1.094 -0.1096 -0.9774  1.0871
   17CHTO   C81 6897   6.174   6.481   1.068  0.4387  0.1082  0.0696
   17CHTO  H153 6898   6.262   6.479   1.003  0.0102 -0.1914 -0.5126
   17CHTO   N14 6899   6.171   6.347   1.139  0.2791 -0.3167 -0.5446
   17CHTO  H141 6900   6.113   6.342   1.229 -1.2070 -1.5491 -1.5372
   17CHTO  H142 6901   6.271   6.313   1.152  0.1292 -0.3517  0.6009
   17CHTO   C79 6902   6.194   6.608   1.162  0.3128 -0.3268 -0.1721
   17CHTO  H151 6903   6.280   6.586   1.226  0.4936 -2.1532 -0.9872
   17CHTO   O52 6904   6.229   6.726   1.078 -0.2549  0.2536  0.0413
   17CHTO   C86 6905   6.125   6.762   0.981 -0.4992 -0.2201 -0.5864
   17CHTO  H158 6906   6.043   6.798   1.046 -0.7879 -2.0248  0.0907
   17CHTO   C90 6907   6.167   6.883   0.902 -0.8448  0.0749 -0.5249
   17CHTO   O60 6908   6.063   6.950   0.830 -0.1634 -0.1533 -0.0670
   17CHTO  H138 6909   6.094   6.974   0.745  1.1379 -1.3350  0.0515
   17CHTO   O50 6910   6.077   6.634   1.241  0.6228  0.7798 -0.3646
   17CHTO   C73 6911   6.021   6.716   1.349  0.0649  0.0566  0.1558
   17CHTO  H145 6912   6.051   6.822   1.340 -0.3008 -0.0213 -2.1068
   17CHTO   C74 6913   6.064   6.675   1.494  0.0566  0.3129 -0.1042
   17CHTO  H146 6914   6.173   6.681   1.493  0.1358 -0.8259  0.2693
   17CHTO   O54 6915   6.010   6.770   1.594 -0.3537  0.0781  0.2566
   17CHTO  H133 6916   6.049   6.853   1.574  0.7562 -0.9567 -1.9989
   17CHTO   C75 6917   6.017   6.526   1.511  0.2853  0.1447 -0.1707
   17CHTO  H147 6918   6.076   6.462   1.444 -0.2216  0.9552 -1.4118
   17CHTO   N13 6919   6.046   6.462   1.642  0.2020 -0.2895  0.2706
   17CHTO  H139 6920   6.097   6.368   1.632  0.7945  0.1103 -0.5332
   17CHTO  H140 6921   5.963   6.459   1.712 -1.0198  0.2149 -1.1254
   17CHTO   C76 6922   5.858   6.500   1.468  0.2202 -0.0669 -0.4704
   17CHTO  H148 6923   5.797   6.550   1.543 -0.7010 -3.3267  1.0257
   17CHTO   O49 6924   5.819   6.574   1.345 -0.6332  0.5207  0.0796
   17CHTO   C77 6925   5.865   6.708   1.340 -0.0899 -0.0070  0.3409
   17CHTO  H149 6926   5.817   6.777   1.410 -1.9499 -0.8313 -0.0865
   17CHTO   C88 6927   5.819   6.773   1.206 -0.5686  0.6813  0.3391
   17CHTO   O58 6928   5.866   6.927   1.204 -0.0238 -0.0306  0.1757
   17CHTO  H136 6929   5.948   6.929   1.157 -0.3846 -0.1586 -0.4719
   17CHTO   O51 6930   5.829   6.341   1.431 -0.3060  0.1065 -0.5228
   17CHTO   C78 6931   5.688   6.298   1.496  0.5012  0.2345  0.0439
   17CHTO  H150 6932   5.631   6.389   1.521 -1.2106 -0.7609 -0.1523
   17CHTO   C80 6933   5.698   6.215   1.627  0.3727 -0.2256 -0.4896
   17CHTO  H152 6934   5.762   6.126   1.610  1.2944  0.0632  1.3640
   17CHTO   O55 6935   5.753   6.295   1.738  0.3240  0.1886  0.0071
   17CHTO  H134 6936   5.688   6.361   1.754 -0.4126 -0.5179 -0.0017
   17CHTO   C84 6937   5.553   6.157   1.667  0.0168 -0.0723  0.8874
   17CHTO  H156 6938   5.489   6.243   1.686 -0.7703 -0.4442 -0.0080
   17CHTO   N15 6939   5.558   6.085   1.794 -0.2518  0.3031  0.6093
   17CHTO  H143 6940   5.488   6.004   1.800  0.7904 -0.5641  1.3773
   17CHTO  H144 6941   5.547   6.157   1.872  0.3023  1.8663 -0.7380
   17CHTO   C87 6942   5.494   6.084   1.547 -0.1868  0.2462 -0.1218
   17CHTO  H159 6943   5.559   6.000   1.522 -0.5757  0.2321 -1.1091
   17CHTO   O53 6944   5.484   6.181   1.429 -0.1343 -0.0773 -0.2067
   17CHTO   C82 6945   5.611   6.220   1.384  0.3844  0.0236 -1.0028
   17CHTO  H154 6946   5.674   6.135   1.357 -0.5357 -0.8020 -0.5854
   17CHTO   C89 6947   5.608   6.316   1.258 -0.6234  0.0342 -0.5029
   17CHTO   O59 6948   5.520   6.274   1.157  0.3377  0.2491 -0.1633
   17CHTO  H137 6949   5.559   6.256   1.074  0.1695  1.2253 -0.4533
   17CHTO   O45 6950   5.339   6.035   1.586 -0.7703  0.0847 -0.0245
   17CHTO   C67 6951   5.325   5.892   1.567  0.0908 -0.2723  0.5956
   17CHTO  H124 6952   5.422   5.848   1.591  0.2972  1.1396  2.5811
   17CHTO   C65 6953   5.215   5.843   1.658  0.8788  0.4154  1.1286
   17CHTO  H122 6954   5.235   5.892   1.753  0.3907  0.5030  1.1881
   17CHTO   O44 6955   5.228   5.703   1.663 -0.6875  0.0046 -0.0669
   17CHTO  H102 6956   5.214   5.663   1.579  0.0008 -2.4061  0.9198
   17CHTO   C63 6957   5.074   5.896   1.598  0.0013 -0.0705 -0.5313
   17CHTO  H120 6958   5.078   6.004   1.585  2.4944 -0.1897 -1.0047
   17CHTO   N11 6959   4.961   5.870   1.691 -0.0254  0.5463  0.2512
   17CHTO  H108 6960   4.980   5.919   1.784 -0.1623 -0.9567  1.0816
   17CHTO  H109 6961   4.968   5.764   1.700  0.7849  0.4349 -1.4350
   17CHTO   C61 6962   5.053   5.837   1.450 -0.1657  0.7196 -0.3212
   17CHTO  H118 6963   4.961   5.881   1.409 -0.6872 -1.6112 -1.7683
   17CHTO   O40 6964   5.160   5.873   1.365 -0.4430  0.3742 -0.0879
   17CHTO   C68 6965   5.297   5.866   1.411  0.2208  0.4281  0.2597
   17CHTO  H125 6966   5.345   5.948   1.354  2.1380 -0.0787  1.0947
   17CHTO   C72 6967   5.365   5.731   1.365  0.2339 -0.3177 -0.3306
   17CHTO   O48 6968   5.317   5.614   1.432 -0.6813  0.4078 -0.1354
   17CHTO  H105 6969   5.367   5.609   1.511 -0.9721  2.3216  0.1815
   17CHTO   O38 6970   5.039   5.694   1.447  0.7017 -0.3486  0.0785
   17CHTO   C55 6971   4.952   5.635   1.341 -0.3202  0.6372  0.3650
   17CHTO  H112 6972   4.986   5.530   1.342  2.0560  1.3877  1.0882
   17CHTO   C56 6973   4.963   5.697   1.198  0.2996 -0.7595  0.2034
   17CHTO  H113 6974   4.927   5.801   1.206  1.0727 -0.5255  0.6954
   17CHTO   O42 6975   5.099   5.705   1.146  0.1633 -0.4745 -0.4697
   17CHTO  H100 6976   5.093   5.746   1.062 -1.7530  3.3783  1.4194
   17CHTO   C57 6977   4.865   5.628   1.091 -0.1504  0.0887 -0.3783
   17CHTO  H114 6978   4.899   5.525   1.076 -1.5778 -0.5679  0.7477
   17CHTO   N10 6979   4.870   5.684   0.952 -0.1651  0.1956  0.0931
   17CHTO  H106 6980   4.800   5.767   0.947 -2.3196 -1.4496  1.5976
   17CHTO  H107 6981   4.969   5.718   0.927 -0.0805 -0.8671 -1.0122
   17CHTO   C58 6982   4.724   5.628   1.146  0.5806  0.4133  0.2335
   17CHTO  H115 6983   4.683   5.731   1.146 -0.3465  0.1081 -3.1196
   17CHTO   O37 6984   4.716   5.569   1.278 -0.1000  1.2158  0.6778
   17CHTO   C59 6985   4.795   5.625   1.380  0.0816 -0.1080  0.1918
   17CHTO  H116 6986   4.756   5.725   1.400 -2.4745 -0.7051 -1.5792
   17CHTO   C70 6987   4.772   5.526   1.494 -0.0713 -0.6731 -0.1295
   17CHTO   O46 6988   4.630   5.539   1.540 -0.6673  0.6050  0.0487
   17CHTO  H103 6989   4.596   5.460   1.575 -0.5769 -0.0449 -1.2762
   17CHTO   O39 6990   4.605   5.532   1.054  0.1137 -0.2764  0.0934
   17CHTO   C60 6991   4.480   5.596   1.061 -0.2720 -0.0640  0.1629
   17CHTO  H117 6992   4.483   5.655   1.152 -1.6337  1.3620 -0.6903
   17CHTO   C62 6993   4.451   5.679   0.928 -0.6306  0.0252 -0.3645
   17CHTO  H119 6994   4.531   5.755   0.922 -0.2093 -0.4061 -0.2018
   17CHTO   O43 6995   4.466   5.587   0.813  0.3931 -0.6749 -0.8404
   17CHTO  H101 6996   4.410   5.618   0.744  0.4715  0.4656 -0.3985
   17CHTO   C66 6997   4.312   5.755   0.930 -0.4042  0.5894 -0.6280
   17CHTO  H123 6998   4.301   5.815   1.020  0.2800 -1.3356  0.7901
   17CHTO   N12 6999   4.287   5.847   0.817  0.2138 -0.2655  0.0415
   17CHTO  H110 7000   4.295   5.953   0.839 -2.3626  0.2443 -1.3421
   17CHTO  H111 7001   4.188   5.838   0.776  0.6535 -1.9030 -0.7099
   17CHTO   C69 7002   4.194   5.650   0.948  0.0618 -0.5121  0.4233
   17CHTO  H126 7003   4.194   5.576   0.864 -0.7885  1.4730 -1.3572
   17CHTO   O41 7004   4.227   5.570   1.084 -0.6706  0.0777 -0.8303
   17CHTO   C64 7005   4.367   5.490   1.085  0.7595  0.3872  0.2307
   17CHTO  H121 7006   4.365   5.416   1.002  2.0712 -1.4635  1.8076
   17CHTO   C71 7007   4.396   5.415   1.217  0.3252 -0.3280 -0.0941
   17CHTO   O47 7008   4.297   5.326   1.261  0.5144 -0.0674  0.2737
   17CHTO  H104 7009   4.211   5.343   1.228  0.2536  1.4692  1.7115
   17CHTO   O34 7010   4.072   5.712   0.954 -0.0116 -0.8007 -0.4772
   17CHTO   C49 7011   3.933   5.690   0.949 -0.0342  0.8225 -0.2454
   17CHTO   H91 7012   3.906   5.668   0.846 -0.7694 -1.1860  0.3448
   17CHTO   C47 7013   3.870   5.816   1.000 -0.1473  0.0860  0.1077
   17CHTO   H89 7014   3.761   5.796   0.995  0.0771 -1.0677 -0.1673
   17CHTO   O33 7015   3.895   5.928   0.914  0.4692 -0.7480  0.2314
   17CHTO   H70 7016   3.984   5.956   0.918 -0.0625  1.7324 -3.1973
   17CHTO   C45 7017   3.907   5.847   1.152 -0.7755  0.6339 -0.0074
   17CHTO   H87 7018   4.003   5.901   1.157 -0.2763 -0.3006  0.6684
   17CHTO    N8 7019   3.808   5.935   1.218 -0.1495  0.9871  0.4740
   17CHTO   H75 7020   3.716   5.945   1.162 -0.3107 -0.2968  0.5041
   17CHTO   H76 7021   3.847   6.036   1.223 -0.4000  0.9846  3.0184
   17CHTO   C43 7022   3.939   5.705   1.233  0.6995  0.4795 -0.0869
   17CHTO   H85 7023   4.043   5.681   1.214  0.8107 -0.0008  1.0957
   17CHTO   O29 7024   3.851   5.602   1.170 -0.5832  0.4687  0.1207
   17CHTO   C50 7025   3.888   5.567   1.037  0.2168  0.4893  0.5744
   17CHTO   H92 7026   3.958   5.482   1.035  0.6950  0.8795  0.7510
   17CHTO   C54 7027   3.761   5.496   0.975  0.3886  1.0067  0.7223
   17CHTO   O36 7028   3.788   5.444   0.848  0.0486  0.5666 -0.4672
   17CHTO   H72 7029   3.833   5.362   0.853 -0.9194 -0.0268 -1.3838
   17CHTO   O27 7030   3.934   5.718   1.382 -0.3432 -0.4010  0.1893
   17CHTO   C37 7031   3.950   5.621   1.490 -0.1074  0.8003 -0.1615
   17CHTO   H79 7032   3.946   5.673   1.587 -1.3228  0.3223  0.0585
   17CHTO   C38 7033   3.832   5.513   1.480  0.3525 -0.8994  0.1337
   17CHTO   H80 7034   3.828   5.482   1.375 -0.1975 -1.1114  0.2168
   17CHTO   O31 7035   3.717   5.584   1.523  0.1365 -0.2951  0.3874
   17CHTO   H68 7036   3.731   5.611   1.611  1.1761 -1.1919  0.5023
   17CHTO   C39 7037   3.866   5.388   1.570  0.7868  0.2665 -0.1567
   17CHTO   H81 7038   3.849   5.405   1.676  0.9947  2.4249 -0.4499
   17CHTO    N7 7039   3.771   5.276   1.541  0.1691 -0.1187 -0.3560
   17CHTO   H73 7040   3.672   5.297   1.578  0.2555 -0.1259 -0.1222
   17CHTO   H74 7041   3.764   5.251   1.436  0.9543  0.0195 -0.4403
   17CHTO   C40 7042   4.019   5.339   1.568 -1.0816  0.2389  0.5924
   17CHTO   H82 7043   4.050   5.286   1.478  0.2466 -0.9841  1.7549
   17CHTO   O26 7044   4.097   5.459   1.590 -0.5267 -0.2077  0.0090
   17CHTO   C41 7045   4.089   5.557   1.478 -0.3112  0.1349 -0.8605
   17CHTO   H83 7046   4.118   5.512   1.383 -0.2104 -3.0455  0.6142
   17CHTO   C52 7047   4.191   5.669   1.490 -0.7878  0.1632 -0.1941
   17CHTO   O35 7048   4.330   5.628   1.501 -1.0279  0.8105  0.0493
   17CHTO   H71 7049   4.385   5.704   1.511 -1.1043  0.8630  0.0733
   17CHTO   O28 7050   4.052   5.235   1.660  0.5411  0.1556  0.9177
   17CHTO   C42 7051   4.172   5.152   1.648 -0.1462  0.1334 -0.5114
   17CHTO   H84 7052   4.168   5.087   1.736  2.8567  1.0278  0.3549
   17CHTO   C44 7053   4.319   5.216   1.659 -0.3084 -0.0590 -0.4766
   17CHTO   H86 7054   4.329   5.293   1.581  1.1857  2.1958  1.8692
   17CHTO   O32 7055   4.323   5.275   1.788 -0.3937  0.5011 -0.2040
   17CHTO   H69 7056   4.338   5.202   1.845  2.9297  0.8176 -0.5664
   17CHTO   C48 7057   4.436   5.119   1.633 -0.1855  0.0935 -0.3805
   17CHTO   H90 7058   4.412   5.053   1.716 -0.4413  0.5237 -0.1131
   17CHTO    N9 7059   4.578   5.167   1.655  0.2198 -0.4187  0.7964
   17CHTO   H77 7060   4.632   5.178   1.562 -1.9611  2.1360 -0.2112
   17CHTO   H78 7061   4.625   5.096   1.722  0.5235 -0.5449  0.4526
   17CHTO   C51 7062   4.402   5.061   1.493 -0.1792 -0.6154 -0.1124
   17CHTO   H93 7063   4.377   5.147   1.430 -1.9413 -0.5383  0.6628
   17CHTO   O30 7064   4.294   4.972   1.511  0.3209 -0.0191 -0.1674
   17CHTO   C46 7065   4.164   5.059   1.519 -0.1532 -0.6753 -0.7619
   17CHTO   H88 7066   4.147   5.113   1.426  0.5128 -1.3384 -1.2673
   17CHTO   C53 7067   4.053   4.957   1.534  0.1839 -0.2784 -0.1193
   17CHTO   O72 7068   4.005   4.906   1.406 -0.0986 -0.7418 -0.0505
   17CHTO  H199 7069   3.950   4.832   1.418 -3.2343  1.7363  1.4761
   17CHTO   O22 7070   4.506   4.981   1.433 -0.0814  0.3752  0.5086
   17CHTO   C31 7071   4.522   4.970   1.281 -0.0706  0.7770 -0.4503
   17CHTO   H59 7072   4.583   4.878   1.265  1.3226  1.5047  0.6276
   17CHTO   C29 7073   4.389   4.952   1.197 -0.0809 -1.1079 -0.0611
   17CHTO   H57 7074   4.324   5.039   1.217 -0.2978 -0.9022 -1.6404
   17CHTO   O21 7075   4.315   4.834   1.246 -0.6243  0.3124  0.2152
   17CHTO   H37 7076   4.356   4.752   1.227 -0.0314  0.6447  0.0365
   17CHTO   C27 7077   4.419   4.952   1.042  0.2666  0.4695 -0.9648
   17CHTO   H55 7078   4.481   4.864   1.019 -0.0103  0.6441 -2.4459
   17CHTO    N5 7079   4.295   4.944   0.964 -0.0553 -0.5476 -0.7990
   17CHTO   H43 7080   4.219   5.002   1.014 -0.2718 -1.2603 -0.2846
   17CHTO   H44 7081   4.270   4.841   0.940 -0.5990 -0.1093 -2.1340
   17CHTO   C25 7082   4.503   5.072   0.998 -0.1665 -0.8948 -0.1845
   17CHTO   H53 7083   4.435   5.158   1.007 -0.9474 -1.4704 -0.5150
   17CHTO   O17 7084   4.621   5.079   1.082  0.5463  0.5935  0.1222
   17CHTO   C32 7085   4.604   5.092   1.226 -0.0312  0.2747  0.4010
   17CHTO   H60 7086   4.550   5.186   1.240 -1.4360 -0.5691  0.7588
   17CHTO   C36 7087   4.732   5.100   1.305 -0.2550  0.4578 -0.2101
   17CHTO   O25 7088   4.799   5.222   1.276 -0.1083 -0.2233 -0.5507
   17CHTO   H40 7089   4.875   5.221   1.220  1.4304 -1.2231  1.4884
   17CHTO   O15 7090   4.556   5.061   0.851  0.0754  0.0357 -0.6657
   17CHTO   C19 7091   4.597   5.145   0.745 -0.4534 -0.1906  0.1668
   17CHTO   H47 7092   4.616   5.079   0.659 -0.1752 -0.0814  0.1425
   17CHTO   C20 7093   4.487   5.241   0.695 -0.4065  0.6187  0.9584
   17CHTO   H48 7094   4.437   5.299   0.774 -0.0900  1.5385  0.4920
   17CHTO   O19 7095   4.376   5.160   0.644 -0.0874  0.5050  0.2789
   17CHTO   H35 7096   4.303   5.214   0.620 -1.8335 -1.6803  0.5424
   17CHTO   C21 7097   4.549   5.336   0.577  0.3900 -0.0982 -0.7038
   17CHTO   H49 7098   4.587   5.279   0.492 -1.0784 -2.2793  0.0589
   17CHTO    N4 7099   4.439   5.430   0.535  0.9741 -0.2469 -0.2710
   17CHTO   H41 7100   4.477   5.531   0.532 -0.2404  0.2691  1.0677
   17CHTO   H42 7101   4.398   5.403   0.439  0.1374  2.0490 -0.5912
   17CHTO   C22 7102   4.682   5.396   0.631 -0.8356 -0.2600  0.1811
   17CHTO   H50 7103   4.656   5.463   0.713 -0.8002 -0.5339  0.4171
   17CHTO   O14 7104   4.780   5.295   0.677 -0.0329 -0.3343  0.1380
   17CHTO   C23 7105   4.732   5.214   0.783 -0.2355  0.4781 -0.2589
   17CHTO   H51 7106   4.719   5.280   0.870 -1.1323  1.4097 -1.0854
   17CHTO   C34 7107   4.844   5.113   0.807 -0.2640 -0.6285  0.2702
   17CHTO   O23 7108   4.816   5.040   0.925  0.3542 -0.4006 -0.0908
   17CHTO   H38 7109   4.728   5.009   0.919 -0.9302  2.9153  0.8573
   17CHTO   O16 7110   4.745   5.469   0.523  0.1642 -0.2095  0.1963
   17CHTO   C24 7111   4.815   5.606   0.582  0.7286 -0.3126  0.6746
   17CHTO   H52 7112   4.828   5.604   0.690  0.8576 -0.0724  0.6662
   17CHTO   C26 7113   4.730   5.728   0.548 -0.1870 -0.2114 -0.4290
   17CHTO   H54 7114   4.720   5.732   0.438  0.2763 -2.7298 -0.5852
   17CHTO   O20 7115   4.605   5.703   0.611 -0.6313 -0.2273  0.3071
   17CHTO   H36 7116   4.550   5.654   0.553  1.7422 -0.4804 -1.8388
   17CHTO   C30 7117   4.792   5.865   0.602  0.1419  0.4382 -0.0121
   17CHTO   H58 7118   4.797   5.865   0.712 -0.0893  1.9120  0.0040
   17CHTO    N6 7119   4.720   5.981   0.554  0.6796  0.0208 -0.1298
   17CHTO   H45 7120   4.756   6.008   0.456  0.4872  0.6048 -0.0419
   17CHTO   H46 7121   4.617   5.950   0.543  0.4215  0.9041 -0.2118
   17CHTO   C33 7122   4.946   5.876   0.576  0.2936  0.3627 -0.3974
   17CHTO   H61 7123   4.960   5.915   0.474  1.2812  0.3026 -0.2871
   17CHTO   O18 7124   5.011   5.747   0.582 -0.9187  0.1242 -0.0095
   17CHTO   C28 7125   4.956   5.636   0.518  0.1087  0.0674 -0.4355
   17CHTO   H56 7126   4.939   5.651   0.411 -1.9519  0.4844 -0.0673
   17CHTO   C35 7127   5.046   5.509   0.538  0.8053 -0.8354  0.3258
   17CHTO   O24 7128   5.078   5.482   0.678  0.3202  0.2157  0.6028
   17CHTO   H39 7129   5.114   5.398   0.699 -0.3206 -0.3013 -0.3233
   17CHTO    O9 7130   5.010   5.976   0.663 -0.3792  0.5566 -0.3399
   17CHTO   C13 7131   5.136   6.053   0.616  0.0076  0.1998  0.2178
   17CHTO   H26 7132   5.193   5.981   0.553  0.4849 -1.3222  2.3572
   17CHTO   C11 7133   5.214   6.092   0.743  0.3159 -0.1377  0.2315
   17CHTO   H24 7134   5.242   6.004   0.802 -1.9567 -1.8647 -1.1611
   17CHTO    O8 7135   5.119   6.160   0.836  0.2858  0.3360  0.0730
   17CHTO    H3 7136   5.151   6.247   0.848 -2.4982  1.1971  1.7768
   17CHTO    C9 7137   5.330   6.184   0.711  0.1735  0.4026 -0.6534
   17CHTO   H22 7138   5.390   6.144   0.628  1.9910  1.8348 -0.0597
   17CHTO    N2 7139   5.430   6.211   0.823 -0.2374 -0.2897 -0.3493
   17CHTO   H10 7140   5.420   6.134   0.897 -0.7741  2.3352  2.3917
   17CHTO   H11 7141   5.531   6.244   0.806 -0.0982 -1.7916 -2.6963
   17CHTO    C7 7142   5.284   6.318   0.646  0.3815  0.0980  0.1013
   17CHTO   H20 7143   5.378   6.365   0.609  1.8157  0.0889  3.6024
   17CHTO    O4 7144   5.196   6.291   0.533  0.0487 -0.2835  0.3059
   17CHTO   C14 7145   5.097   6.186   0.536  0.4719  0.3504 -0.1963
   17CHTO   H27 7146   5.088   6.147   0.433  1.4140 -2.0520  0.5787
   17CHTO   C18 7147   4.958   6.246   0.571  0.4304  0.0908 -0.2255
   17CHTO   O13 7148   4.899   6.336   0.471  0.3349 -0.0862  0.5165
   17CHTO    H7 7149   4.898   6.425   0.501 -0.9389  0.0379  0.1482
   17CHTO    O2 7150   5.227   6.420   0.738  0.0309 -0.3671 -0.7615
   17CHTO    C1 7151   5.184   6.550   0.709 -0.0042 -0.1041 -0.7099
   17CHTO   H14 7152   5.088   6.565   0.655 -0.1844  0.0360 -0.3485
   17CHTO    C2 7153   5.292   6.643   0.638 -0.1659 -0.1224  0.0166
   17CHTO   H15 7154   5.388   6.621   0.689  0.0428 -1.8143 -1.0753
   17CHTO    O6 7155   5.320   6.592   0.506 -0.1402  0.5444  0.1398
   17CHTO    H1 7156   5.391   6.648   0.481 -0.3443  1.1546  0.8924
   17CHTO    C3 7157   5.257   6.805   0.644 -0.3454  0.3289  0.1078
   17CHTO   H16 7158   5.169   6.828   0.583 -1.8916 -2.0777  1.3235
   17CHTO    N1 7159   5.379   6.878   0.605  0.3049  0.2144 -0.3744
   17CHTO    H8 7160   5.367   6.982   0.630  1.5473 -0.1024  1.6862
   17CHTO    H9 7161   5.391   6.855   0.500 -1.8412 -0.2150 -0.5413
   17CHTO    C4 7162   5.209   6.838   0.791  0.7100 -0.2452  0.2744
   17CHTO   H17 7163   5.292   6.830   0.861  0.9661  0.0086  0.0043
   17CHTO    O1 7164   5.097   6.747   0.828  0.9199 -0.1913 -0.3816
   17CHTO    C5 7165   5.145   6.615   0.851  0.4903 -0.7364  0.5490
   17CHTO   H18 7166   5.236   6.622   0.911  0.8841  2.3905 -0.3678
   17CHTO   C16 7167   5.041   6.534   0.930  0.2504 -0.1869  0.4264
   17CHTO   O11 7168   5.039   6.583   1.061  0.2048 -0.0492 -0.2115
   17CHTO    H5 7169   4.979   6.655   1.054  0.0572 -0.1681 -0.1607
   17CHTO    O3 7170   5.152   6.968   0.801 -0.0079 -0.0838  0.3252
   17CHTO    C6 7171   5.174   7.050   0.922 -0.0620  0.3163 -0.5675
   17CHTO   H19 7172   5.120   7.144   0.916 -2.0749 -0.8157 -0.4413
   17CHTO    C8 7173   5.133   6.969   1.058  0.2507 -0.0956 -0.0037
   17CHTO   H21 7174   5.176   6.869   1.056  1.5960  0.4726 -0.0163
   17CHTO    O7 7175   4.988   6.957   1.050  0.1615  0.2450  0.0975
   17CHTO    H2 7176   4.955   6.930   0.966 -2.1665  1.8532  0.4492
   17CHTO   C12 7177   5.172   7.053   1.188 -0.6345  0.1104  1.3413
   17CHTO   H25 7178   5.121   7.152   1.182 -0.1809  0.2064 -1.6261
   17CHTO    N3 7179   5.127   6.987   1.319  0.3103 -0.2383  0.6126
   17CHTO   H12 7180   5.031   7.030   1.345  0.0351 -0.8135  0.5752
   17CHTO   H13 7181   5.204   6.993   1.395  0.0834 -0.8962  0.9002
   17CHTO   C15 7182   5.326   7.073   1.180 -0.2008  0.2122  0.5251
   17CHTO   H28 7183   5.378   6.977   1.176  0.6980  0.7297 -0.6241
   17CHTO   O10 7184   5.385   7.155   1.300  0.1469 -0.1798 -0.3121
   17CHTO    H4 7185   5.411   7.104   1.374  2.5659 -1.9699 -2.3319
   17CHTO    O5 7186   5.351   7.153   1.061  0.2592  0.1243  0.5646
   17CHTO   C10 7187   5.321   7.086   0.936 -0.2415 -0.3801  0.1585
   17CHTO   H23 7188   5.383   6.997   0.935 -0.6304 -0.6463 -0.7459
   17CHTO   C17 7189   5.378   7.176   0.828  0.8012 -0.2549  0.7046
   17CHTO   O12 7190   5.297   7.297   0.814  0.1310 -0.4343  0.6776
   17CHTO    H6 7191   5.213   7.277   0.777  1.2814 -2.5318 -0.8662
   18CHTO  H203 7192   6.662   7.487   1.898  0.2570  0.1073 -0.1399
   18CHTO   O82 7193   6.577   7.503   1.861  0.0269  0.0016  0.3383
   18CHTO  C123 7194   6.527   7.387   1.794  0.3573 -0.4434 -0.1135
   18CHTO  H227 7195   6.421   7.370   1.819  0.7608  0.0177  2.0117
   18CHTO   O77 7196   6.533   7.433   1.656 -0.1887 -0.0671  0.2139
   18CHTO  C118 7197   6.491   7.347   1.556 -0.9259  0.4568 -0.2891
   18CHTO  H222 7198   6.384   7.321   1.565 -1.1359  1.2844 -0.3353
   18CHTO  C125 7199   6.508   7.415   1.411 -0.1760  0.0053  0.1273
   18CHTO   O84 7200   6.420   7.521   1.409 -0.2570  0.4752  0.2760
   18CHTO  H205 7201   6.340   7.496   1.366 -0.7805  0.1101  1.4372
   18CHTO  C114 7202   6.572   7.217   1.565 -0.2700 -0.4079  0.2703
   18CHTO  H218 7203   6.677   7.242   1.546 -0.7360  1.2355 -0.2327
   18CHTO  C116 7204   6.576   7.154   1.708 -0.1887 -0.2562 -0.0253
   18CHTO  H220 7205   6.480   7.110   1.742 -0.7116  0.7987 -0.0943
   18CHTO   O79 7206   6.653   7.038   1.706 -0.3756 -0.4587 -0.1804
   18CHTO  H201 7207   6.744   7.060   1.710 -0.3002 -0.3893 -2.0205
   18CHTO  C120 7208   6.620   7.263   1.812  0.5261  0.1256 -0.4078
   18CHTO  H224 7209   6.726   7.279   1.784  1.0369 -1.4902  0.5150
   18CHTO   N21 7210   6.626   7.198   1.949 -0.4776 -0.2175 -0.6892
   18CHTO  H211 7211   6.641   7.091   1.958 -0.8894 -0.2730 -0.6580
   18CHTO  H212 7212   6.544   7.236   2.009 -0.7384 -1.3154 -0.3349
   18CHTO   O75 7213   6.520   7.142   1.462  0.3495  0.0120 -0.5618
   18CHTO  C112 7214   6.610   7.036   1.379  0.3984  0.1409 -0.3318
   18CHTO  H216 7215   6.666   6.984   1.458  0.9347  0.5250 -0.4564
   18CHTO   O73 7216   6.696   7.113   1.296 -0.0765  0.2324  0.5316
   18CHTO  C113 7217   6.791   7.036   1.228 -0.4871 -0.0930 -0.2870
   18CHTO  H217 7218   6.849   6.991   1.312 -1.9886 -2.3095 -0.3931
   18CHTO  C124 7219   6.882   7.139   1.153  0.8487 -0.2516  0.2879
   18CHTO   O83 7220   6.992   7.077   1.091 -0.4227  0.4588 -0.4088
   18CHTO  H204 7221   7.042   7.143   1.047 -1.2051 -0.3760 -2.6213
   18CHTO  C109 7222   6.718   6.941   1.140 -0.3159  0.0390  0.4436
   18CHTO  H213 7223   6.651   7.003   1.078 -0.6790 -0.7396  0.0358
   18CHTO  C110 7224   6.617   6.852   1.209 -0.0614 -0.0283 -0.2685
   18CHTO  H214 7225   6.672   6.776   1.264  1.3626  0.7648 -0.5859
   18CHTO   O78 7226   6.537   6.777   1.115  0.5835  0.3549 -0.1042
   18CHTO  H200 7227   6.577   6.702   1.075  0.7983  0.0987  0.5719
   18CHTO  C111 7228   6.521   6.935   1.303 -0.0143 -0.1856 -0.5743
   18CHTO  H215 7229   6.450   6.991   1.241 -0.7807  0.6961  1.0682
   18CHTO   N19 7230   6.443   6.855   1.397 -0.3277 -0.2188  0.0583
   18CHTO  H207 7231   6.509   6.802   1.465 -1.0608 -0.3995  0.6389
   18CHTO  H208 7232   6.383   6.780   1.348  0.8629  0.7428 -2.9527
   18CHTO   O74 7233   6.810   6.864   1.055 -0.8634 -1.1206  0.5449
   18CHTO  C115 7234   6.751   6.852   0.891 -0.4423  0.0552  0.3771
   18CHTO  H219 7235   6.699   6.758   0.874 -0.9886 -0.2907  3.7479
   18CHTO   O76 7236   6.638   6.969   0.864 -0.0725  0.5650 -0.3423
   18CHTO  C122 7237   6.687   7.094   0.816 -0.1807  0.0997  0.1658
   18CHTO  H226 7238   6.746   7.141   0.894  0.7421 -1.8280  0.6772
   18CHTO  C126 7239   6.567   7.179   0.788 -0.1352 -0.3542  0.0488
   18CHTO   O85 7240   6.600   7.308   0.745 -0.0562  0.0726 -0.0874
   18CHTO  H206 7241   6.529   7.365   0.771 -0.8230 -1.2191  0.7140
   18CHTO  C121 7242   6.776   7.075   0.684 -0.5125  0.0271  0.0804
   18CHTO  H225 7243   6.710   7.103   0.600 -1.3311 -1.8461  0.0961
   18CHTO   O81 7244   6.888   7.167   0.699 -0.3909 -0.0769 -0.2391
   18CHTO  H202 7245   6.937   7.163   0.619  0.0068 -0.5365  0.0211
   18CHTO  C119 7246   6.824   6.932   0.663  0.6984  0.4135  0.5168
   18CHTO  H223 7247   6.737   6.878   0.627  0.7076  0.7112  0.0362
   18CHTO  C117 7248   6.878   6.868   0.801  0.0668 -0.5432  0.2028
   18CHTO  H221 7249   6.943   6.932   0.862 -1.8195  1.0486  0.5785
   18CHTO   N20 7250   6.950   6.740   0.784  0.3097  0.4370 -0.8333
   18CHTO  H209 7251   6.974   6.697   0.880  0.3807 -2.5086 -2.1172
   18CHTO  H210 7252   6.881   6.669   0.742  1.8392 -1.5952  0.0168
   18CHTO   O80 7253   6.931   6.917   0.527  0.1503  0.2944 -0.1968
   18CHTO  C103 7254   6.885   6.852   0.400 -0.5364  0.0098  0.5733
   18CHTO  H190 7255   6.966   6.839   0.328 -0.7845  3.7553 -0.4884
   18CHTO  C101 7256   6.826   6.712   0.415 -0.4413 -0.5304 -0.1991
   18CHTO  H188 7257   6.748   6.725   0.490  3.0219  0.3853  3.4185
   18CHTO   O68 7258   6.940   6.604   0.468 -0.1782 -0.6188  0.0288
   18CHTO  H168 7259   6.898   6.558   0.538 -0.4506  2.1264  1.7419
   18CHTO   C99 7260   6.763   6.664   0.274  0.0507 -0.0223  0.5149
   18CHTO  H186 7261   6.835   6.655   0.190 -1.5117  0.4639 -0.8943
   18CHTO   N17 7262   6.692   6.539   0.273 -0.0015  0.3630  0.5326
   18CHTO  H174 7263   6.679   6.519   0.378  1.4951  2.8410  1.2360
   18CHTO  H175 7264   6.757   6.465   0.229 -0.8034 -0.3765  0.5896
   18CHTO   C97 7265   6.667   6.773   0.219 -0.5181 -0.1965  0.4327
   18CHTO  H184 7266   6.576   6.786   0.280  0.3381  1.2608  1.4316
   18CHTO   O64 7267   6.738   6.894   0.210 -0.3653 -0.0510 -0.1810
   18CHTO  C104 7268   6.778   6.953   0.334 -0.4534 -0.2075  0.9133
   18CHTO  H191 7269   6.695   6.968   0.402  0.3629  3.9000  1.0965
   18CHTO  C108 7270   6.835   7.096   0.303 -0.2812 -0.1123  0.0344
   18CHTO   O71 7271   6.970   7.091   0.266  0.3225  0.1866 -0.1022
   18CHTO  H171 7272   7.006   7.177   0.249  1.9767 -0.1987  1.3129
   18CHTO   O62 7273   6.634   6.758   0.081 -0.5287  0.3441 -0.4780
   18CHTO   C91 7274   6.495   6.755   0.043 -0.0072  0.2026 -0.0963
   18CHTO  H178 7275   6.439   6.696   0.116  1.1626 -0.4264  0.3160
   18CHTO   C92 7276   6.503   6.673  -0.088 -0.0580  0.5067 -0.1970
   18CHTO  H179 7277   6.583   6.710  -0.154 -0.3181 -1.3695 -1.5885
   18CHTO   O66 7278   6.531   6.537  -0.050 -0.1281  0.2598 -0.2724
   18CHTO  H166 7279   6.456   6.502  -0.006  0.0059 -0.0979 -0.3225
   18CHTO   C93 7280   6.371   6.679  -0.175  0.5668  0.0882 -0.5418
   18CHTO  H180 7281   6.298   6.623  -0.116  0.2149  1.9649  0.8447
   18CHTO   N16 7282   6.381   6.606  -0.303  0.2859  0.2300  0.0842
   18CHTO  H172 7283   6.317   6.519  -0.305 -0.3999  0.7431 -0.8440
   18CHTO  H173 7284   6.365   6.669  -0.389 -2.6440  0.8954  1.0469
   18CHTO   C94 7285   6.314   6.822  -0.199 -0.2378  0.4461 -0.0247
   18CHTO  H181 7286   6.383   6.885  -0.256  0.9243 -0.9213 -0.1342
   18CHTO   O61 7287   6.306   6.879  -0.074  0.0631 -0.1792 -0.1440
   18CHTO   C95 7288   6.423   6.890   0.011  0.1240  0.1554  0.9206
   18CHTO  H182 7289   6.493   6.961  -0.034  0.8828 -0.1640  1.5771
   18CHTO  C106 7290   6.377   6.970   0.138 -0.2667  0.7696 -0.0598
   18CHTO   O69 7291   6.337   7.102   0.105 -0.6283 -0.6789 -0.1348
   18CHTO  H169 7292   6.244   7.108   0.092 -0.7251  0.8846  1.0736
   18CHTO   O63 7293   6.156   6.821  -0.253  0.1910  0.4781  0.4105
   18CHTO   C96 7294   6.118   6.926  -0.344 -0.1693 -0.3982 -0.5951
   18CHTO  H183 7295   6.014   6.909  -0.374  0.2185 -0.4057 -1.9733
   18CHTO   C98 7296   6.209   6.927  -0.472  0.2257  0.2990 -1.1049
   18CHTO  H185 7297   6.315   6.926  -0.444  0.0605  0.6284 -0.4543
   18CHTO   O67 7298   6.180   6.796  -0.532  0.3417 -0.3305 -0.0803
   18CHTO  H167 7299   6.234   6.790  -0.609 -1.5528  2.6235 -1.7396
   18CHTO  C102 7300   6.168   7.046  -0.572 -0.2870 -0.4211  0.0845
   18CHTO  H189 7301   6.061   7.032  -0.593 -0.0496 -2.3193  0.0701
   18CHTO   N18 7302   6.234   7.046  -0.705 -0.0734 -0.3151  0.2423
   18CHTO  H176 7303   6.333   7.084  -0.687 -0.7081  0.8632  1.2827
   18CHTO  H177 7304   6.228   6.949  -0.753 -3.8952 -0.3418  0.6537
   18CHTO  C105 7305   6.169   7.179  -0.487 -0.0620  0.6884 -0.9792
   18CHTO  H192 7306   6.271   7.211  -0.466 -0.5719  1.8357 -0.1727
   18CHTO   O65 7307   6.087   7.173  -0.367  0.0061  0.1843 -0.5802
   18CHTO  C100 7308   6.114   7.068  -0.273 -0.0693  0.2563  0.2732
   18CHTO  H187 7309   6.205   7.086  -0.213 -0.2549  1.6620  0.1537
   18CHTO  C107 7310   6.006   7.063  -0.162  0.1976 -0.0933 -0.0741
   18CHTO   O70 7311   6.002   7.192  -0.100  0.2584  0.3996 -0.8374
   18CHTO  H170 7312   5.925   7.196  -0.047  0.6572 -0.3467 -0.1967
   18CHTO   O57 7313   6.109   7.287  -0.568  0.0037 -0.0483 -0.3450
   18CHTO   C85 7314   6.146   7.424  -0.551 -0.0612  0.0733  0.2702
   18CHTO  H157 7315   6.255   7.421  -0.574 -0.1130 -1.2817  0.1804
   18CHTO   C83 7316   6.135   7.473  -0.401  0.2889  0.2478  0.2815
   18CHTO  H155 7317   6.204   7.411  -0.344 -2.1840 -1.1850  1.8443
   18CHTO   O56 7318   6.002   7.451  -0.350  0.1025  0.3573  0.0195
   18CHTO  H135 7319   5.988   7.487  -0.265 -2.4008 -1.9522  0.6289
   18CHTO   C81 7320   6.176   7.625  -0.397 -0.5799 -0.0473  0.0607
   18CHTO  H153 7321   6.278   7.638  -0.433  0.2791 -1.2224  2.0063
   18CHTO   N14 7322   6.163   7.674  -0.259  0.0198  0.4537  0.2064
   18CHTO  H141 7323   6.230   7.755  -0.238  0.6303  0.2481 -0.8997
   18CHTO  H142 7324   6.175   7.602  -0.181  1.7770  0.6968  0.1651
   18CHTO   C79 7325   6.082   7.707  -0.501 -0.2237 -0.3966  0.0283
   18CHTO  H151 7326   6.127   7.807  -0.503 -0.3878 -0.3370 -1.5808
   18CHTO   O52 7327   6.093   7.660  -0.638  0.1802 -0.4526  0.1580
   18CHTO   C86 7328   6.071   7.516  -0.649 -0.5902 -0.3542 -0.3898
   18CHTO  H158 7329   5.961   7.511  -0.636 -0.5517  1.3327  0.7434
   18CHTO   C90 7330   6.098   7.477  -0.795 -0.4589  0.6238 -0.1120
   18CHTO   O60 7331   6.219   7.522  -0.846  0.5423  0.2424 -0.1448
   18CHTO  H138 7332   6.229   7.504  -0.938 -1.1238  0.9888 -0.4831
   18CHTO   O50 7333   5.943   7.709  -0.469 -0.7513 -0.2467 -0.2481
   18CHTO   C73 7334   5.815   7.770  -0.509  0.5005 -0.3998 -0.2918
   18CHTO  H145 7335   5.799   7.752  -0.616 -0.5788 -1.3106  0.0083
   18CHTO   C74 7336   5.822   7.923  -0.480 -0.1943 -0.0274  0.6998
   18CHTO  H146 7337   5.906   7.953  -0.545 -0.8930  1.4450  0.4476
   18CHTO   O54 7338   5.706   7.997  -0.533 -0.4604 -0.4979 -0.6313
   18CHTO  H133 7339   5.630   7.984  -0.479 -0.0375 -0.4614 -0.0144
   18CHTO   C75 7340   5.846   7.946  -0.325 -0.5265  0.1676  0.5004
   18CHTO  H147 7341   5.940   7.896  -0.298 -1.3771 -1.8577 -0.2505
   18CHTO   N13 7342   5.858   8.089  -0.289 -0.0324  0.0846 -0.2983
   18CHTO  H139 7343   5.914   8.107  -0.198 -1.6133 -0.8485  0.8743
   18CHTO  H140 7344   5.762   8.131  -0.263 -0.6485 -1.0443 -0.7412
   18CHTO   C76 7345   5.722   7.870  -0.246  0.2825  0.7269  0.0922
   18CHTO  H148 7346   5.630   7.923  -0.270 -0.3370 -0.9929 -1.3899
   18CHTO   O49 7347   5.709   7.729  -0.286 -0.3498 -0.7826  0.1666
   18CHTO   C77 7348   5.691   7.706  -0.426 -0.7178 -0.3809 -0.5519
   18CHTO  H149 7349   5.595   7.748  -0.458  0.1368  0.8814 -1.5048
   18CHTO   C88 7350   5.682   7.556  -0.440  0.6128  0.2681  0.3422
   18CHTO   O58 7351   5.679   7.516  -0.575  0.1621 -0.2525 -0.3876
   18CHTO  H136 7352   5.665   7.424  -0.574 -0.3122 -0.2137 -1.9876
   18CHTO   O51 7353   5.761   7.851  -0.086 -0.0168 -0.5142 -0.0959
   18CHTO   C78 7354   5.657   7.786  -0.006  0.1906  0.2486  0.1069
   18CHTO  H150 7355   5.590   7.729  -0.073  1.1231 -2.7931  1.7012
   18CHTO   C80 7356   5.580   7.895   0.069  0.4972  0.3726  0.4949
   18CHTO  H152 7357   5.651   7.967   0.116  0.0474  0.4695  1.0278
   18CHTO   O55 7358   5.496   7.975  -0.019 -0.0230 -0.1375  0.1843
   18CHTO  H134 7359   5.476   8.059   0.018 -4.0103 -0.6636 -0.5347
   18CHTO   C84 7360   5.485   7.832   0.181 -0.3430 -0.0907  0.1846
   18CHTO  H156 7361   5.402   7.789   0.125 -0.2123  1.5318 -1.2857
   18CHTO   N15 7362   5.421   7.932   0.266  0.0196 -0.8291  0.3731
   18CHTO  H143 7363   5.498   7.987   0.315 -1.9365  1.2854  1.2065
   18CHTO  H144 7364   5.359   8.000   0.210 -1.5835 -1.4792  1.3215
   18CHTO   C87 7365   5.560   7.719   0.264  0.0241  0.2071 -0.0600
   18CHTO  H159 7366   5.643   7.764   0.319  1.7739 -1.2190 -1.4702
   18CHTO   O53 7367   5.620   7.617   0.161  0.1242  0.4657 -0.1619
   18CHTO   C82 7368   5.727   7.684   0.088  0.0649 -0.0713 -0.0533
   18CHTO  H154 7369   5.801   7.731   0.152 -0.3786  1.4601 -0.6266
   18CHTO   C89 7370   5.804   7.568   0.008 -0.0050 -0.0060  0.0560
   18CHTO   O59 7371   5.880   7.490   0.102 -0.3122  0.6409 -0.0773
   18CHTO  H137 7372   5.964   7.470   0.065 -0.9052 -2.3176  0.0950
   18CHTO   O45 7373   5.447   7.637   0.361  0.0998 -0.6925 -0.2965
   18CHTO   C67 7374   5.483   7.641   0.499  0.0320 -0.1445 -0.0968
   18CHTO  H124 7375   5.578   7.692   0.511 -1.5457  2.8232  0.2986
   18CHTO   C65 7376   5.380   7.720   0.586  0.5867  0.1828 -0.6265
   18CHTO  H122 7377   5.286   7.699   0.535  1.8600 -1.6745 -2.3065
   18CHTO   O44 7378   5.421   7.861   0.580 -0.4601  0.0746  0.3167
   18CHTO  H102 7379   5.510   7.874   0.606  0.2018  1.3476 -2.3712
   18CHTO   C63 7380   5.358   7.662   0.736  0.2796  0.0968  0.1078
   18CHTO  H120 7381   5.286   7.581   0.736 -0.1785  0.3564  4.4581
   18CHTO   N11 7382   5.290   7.749   0.831  0.3239  0.2696  0.0949
   18CHTO  H108 7383   5.185   7.733   0.827  0.4237 -0.0421 -1.3588
   18CHTO  H109 7384   5.318   7.747   0.935 -0.6333 -0.9341  0.3393
   18CHTO   C61 7385   5.497   7.613   0.780  0.0793  0.3765  0.0932
   18CHTO  H118 7386   5.487   7.558   0.874  3.3638  0.6346  0.6257
   18CHTO   O40 7387   5.551   7.515   0.692  0.5488  0.1504  0.1188
   18CHTO   C68 7388   5.503   7.499   0.554  0.1219 -0.5114 -0.2646
   18CHTO  H125 7389   5.407   7.445   0.542 -0.6702  0.6927  0.4670
   18CHTO   C72 7390   5.612   7.423   0.478 -0.1744 -0.0548  0.2579
   18CHTO   O48 7391   5.625   7.285   0.521  0.3385 -0.1973 -0.5360
   18CHTO  H105 7392   5.698   7.245   0.477 -0.2982 -1.4981 -0.4553
   18CHTO   O38 7393   5.588   7.722   0.776 -0.1374  0.6616  0.5433
   18CHTO   C55 7394   5.715   7.714   0.843 -0.0506 -0.9366 -0.3419
   18CHTO  H112 7395   5.752   7.612   0.861  1.8392  0.5037  4.7722
   18CHTO   C56 7396   5.696   7.790   0.977  0.2500  0.5394 -0.2433
   18CHTO  H113 7397   5.649   7.884   0.945  0.7884  0.1837 -2.1180
   18CHTO   O42 7398   5.595   7.727   1.058 -0.2997 -0.1127  0.3720
   18CHTO  H100 7399   5.508   7.760   1.044 -0.2890 -0.9320 -1.7750
   18CHTO   C57 7400   5.826   7.812   1.062  0.3613 -0.4939 -0.0510
   18CHTO  H114 7401   5.868   7.724   1.111 -2.1629 -1.1230  1.0597
   18CHTO   N10 7402   5.814   7.902   1.175  0.0534  0.3290 -0.3300
   18CHTO  H106 7403   5.907   7.949   1.205  1.0893 -1.9656  0.2099
   18CHTO  H107 7404   5.770   7.849   1.258 -2.5919  1.8995 -0.6875
   18CHTO   C58 7405   5.933   7.866   0.966  1.2007  0.4277  0.1686
   18CHTO  H115 7406   5.908   7.970   0.935  0.4487  0.8574  2.1111
   18CHTO   O37 7407   5.952   7.781   0.851 -0.4105  0.1993 -0.1920
   18CHTO   C59 7408   5.831   7.787   0.771 -0.2354 -0.1206  0.1587
   18CHTO  H116 7409   5.811   7.893   0.761  0.8834  0.0072 -0.8123
   18CHTO   C70 7410   5.852   7.732   0.623  0.8421  0.8033  0.4375
   18CHTO   O46 7411   5.892   7.596   0.618  0.0470 -0.3947  0.2793
   18CHTO  H103 7412   5.824   7.535   0.596 -1.0802  1.0042 -0.2220
   18CHTO   O39 7413   6.098   7.881   1.068 -0.0412 -0.0188 -0.8231
   18CHTO   C60 7414   6.181   7.764   1.048  0.5786  0.1461 -0.5431
   18CHTO  H117 7415   6.112   7.681   1.029  0.9860  0.1292 -1.9805
   18CHTO   C62 7416   6.276   7.774   0.926 -0.6213 -0.4888 -0.7857
   18CHTO  H119 7417   6.215   7.811   0.841  0.6971 -1.7979 -2.3336
   18CHTO   O43 7418   6.369   7.876   0.948  0.4490 -0.4112  0.4398
   18CHTO  H101 7419   6.431   7.882   0.878  0.5121  0.6468  0.5802
   18CHTO   C66 7420   6.339   7.629   0.895 -0.2854  0.5456 -0.4384
   18CHTO  H123 7421   6.257   7.562   0.868 -0.7559  0.4261  1.2612
   18CHTO   N12 7422   6.432   7.626   0.782  0.6090  0.6659  0.6004
   18CHTO  H110 7423   6.466   7.526   0.761 -0.5790  0.6251 -1.2585
   18CHTO  H111 7424   6.513   7.696   0.796  0.3237  1.1732 -0.2194
   18CHTO   C69 7425   6.390   7.553   1.017  0.3541  0.2065 -0.0463
   18CHTO  H126 7426   6.499   7.568   1.030  0.9002 -1.1005 -2.7023
   18CHTO   O41 7427   6.294   7.605   1.161 -0.6864  0.0724  0.7901
   18CHTO   C64 7428   6.263   7.729   1.174 -0.3391  0.2450 -0.8873
   18CHTO  H121 7429   6.355   7.791   1.180 -0.1614 -0.0018 -1.0465
   18CHTO   C71 7430   6.197   7.729   1.312 -0.0809 -0.0474  0.2718
   18CHTO   O47 7431   6.150   7.856   1.357  0.1249  0.2230 -0.0136
   18CHTO  H104 7432   6.113   7.896   1.280  2.5075 -0.7890 -1.7151
   18CHTO   O34 7433   6.356   7.395   0.999 -0.4726 -0.1628 -0.0523
   18CHTO   C49 7434   6.262   7.262   1.048  0.5459 -0.2027 -0.4783
   18CHTO   H91 7435   6.323   7.172   1.041  1.9795  0.7904 -0.8535
   18CHTO   C47 7436   6.133   7.255   0.956  0.2310 -0.2012 -0.3811
   18CHTO   H89 7437   6.070   7.168   0.984 -0.7930  0.2063 -1.4037
   18CHTO   O33 7438   6.170   7.235   0.819  0.3524  0.0697 -0.0912
   18CHTO   H70 7439   6.091   7.248   0.771  0.7896  0.2643 -0.7716
   18CHTO   C45 7440   6.045   7.383   0.983  0.4007 -0.6157  0.4170
   18CHTO   H87 7441   6.104   7.472   0.954 -2.1258  1.7390  2.3130
   18CHTO    N8 7442   5.924   7.382   0.896 -0.0294 -0.0804 -0.2735
   18CHTO   H75 7443   5.959   7.390   0.794 -0.2958  0.0411 -0.3575
   18CHTO   H76 7444   5.878   7.286   0.912 -1.1245  0.1213 -2.0598
   18CHTO   C43 7445   6.009   7.409   1.134 -0.6015 -1.1457  0.1069
   18CHTO   H85 7446   5.973   7.512   1.140 -2.6995 -1.8914  0.4242
   18CHTO   O29 7447   6.127   7.383   1.215 -0.3497 -0.1097  0.0273
   18CHTO   C50 7448   6.209   7.267   1.194  0.3220  0.5305  0.0135
   18CHTO   H92 7449   6.298   7.268   1.258  1.0511 -0.2475 -0.9700
   18CHTO   C54 7450   6.136   7.135   1.243  0.4583  0.1077  0.4918
   18CHTO   O36 7451   6.117   7.137   1.383  0.1598 -0.1200  0.2535
   18CHTO   H72 7452   6.126   7.053   1.424  2.5448  0.3476  0.7601
   18CHTO   O27 7453   5.900   7.333   1.194  0.9471  0.5472 -0.5266
   18CHTO   C37 7454   5.809   7.367   1.297  0.5306 -0.4934 -0.1459
   18CHTO   H79 7455   5.775   7.280   1.354 -0.4634 -0.3773 -0.5533
   18CHTO   C38 7456   5.883   7.462   1.394 -0.1260 -0.0562 -0.1818
   18CHTO   H80 7457   5.926   7.544   1.336  0.4002 -0.7600 -0.7949
   18CHTO   O31 7458   5.996   7.394   1.458 -0.1934 -0.5703  0.1992
   18CHTO   H68 7459   6.072   7.401   1.405  0.0294  0.8593  0.6791
   18CHTO   C39 7460   5.784   7.525   1.497 -0.1485  0.3801 -0.4148
   18CHTO   H81 7461   5.758   7.440   1.560  0.9982 -0.1211 -0.6020
   18CHTO    N7 7462   5.848   7.633   1.571  0.5303  0.0150 -0.8897
   18CHTO   H73 7463   5.849   7.725   1.513 -1.2734 -0.6821 -2.0951
   18CHTO   H74 7464   5.804   7.639   1.669 -2.7061 -2.0734 -2.1247
   18CHTO   C40 7465   5.647   7.572   1.427  0.7696  0.9006 -0.6038
   18CHTO   H82 7466   5.661   7.662   1.367 -1.5493  3.0327  1.9262
   18CHTO   O26 7467   5.600   7.468   1.349 -0.4049 -0.0718  0.4654
   18CHTO   C41 7468   5.685   7.435   1.239  0.5106 -0.5235 -0.4043
   18CHTO   H83 7469   5.716   7.530   1.195  1.2382 -0.7553 -0.3963
   18CHTO   C52 7470   5.608   7.342   1.136 -0.3918  0.1132  0.1270
   18CHTO   O35 7471   5.505   7.401   1.094 -0.5058 -0.3415 -0.0484
   18CHTO   H71 7472   5.524   7.430   1.007 -1.8673 -1.0806 -0.6084
   18CHTO   O28 7473   5.542   7.604   1.521 -0.1848 -0.6600 -0.4762
   18CHTO   C42 7474   5.397   7.595   1.494 -0.2382  0.4214  0.4540
   18CHTO   H84 7475   5.352   7.651   1.576 -0.9921 -0.8161  0.9035
   18CHTO   C44 7476   5.331   7.454   1.493  0.4589  0.7872  0.4349
   18CHTO   H86 7477   5.376   7.396   1.413 -0.7060 -0.6330  0.7827
   18CHTO   O32 7478   5.368   7.396   1.620  0.1293  0.1607  0.0135
   18CHTO   H69 7479   5.459   7.387   1.640  0.0006 -2.2190 -0.2948
   18CHTO   C48 7480   5.172   7.462   1.462 -0.0993 -0.3938  0.8979
   18CHTO   H90 7481   5.127   7.517   1.545  1.2072  2.5981 -0.3241
   18CHTO    N9 7482   5.115   7.320   1.466  0.2338 -0.1703  0.2165
   18CHTO   H77 7483   5.176   7.263   1.398 -0.0703 -2.4293  1.7912
   18CHTO   H78 7484   5.011   7.330   1.435  0.1165  1.1093  0.9897
   18CHTO   C51 7485   5.138   7.548   1.334  0.0848  0.4796 -0.3671
   18CHTO   H93 7486   5.165   7.491   1.245  0.4710  0.3773 -0.1872
   18CHTO   O30 7487   5.206   7.673   1.343 -0.1391  0.6056  0.7640
   18CHTO   C46 7488   5.358   7.672   1.360 -0.6040 -0.2803  0.0129
   18CHTO   H88 7489   5.398   7.611   1.278  0.2415 -0.5088  0.5956
   18CHTO   C53 7490   5.412   7.822   1.338 -0.2597  0.1967 -0.1380
   18CHTO   O72 7491   5.368   7.883   1.215  0.1196 -0.0416  0.3184
   18CHTO  H199 7492   5.275   7.885   1.204  0.2246 -0.4213 -0.6969
   18CHTO   O22 7493   4.998   7.588   1.321  0.1518 -0.6646  0.5944
   18CHTO   C31 7494   4.929   7.628   1.200 -0.0640 -0.1636 -0.4450
   18CHTO   H59 7495   4.820   7.624   1.223 -0.1769  2.7728 -0.2938
   18CHTO   C29 7496   4.954   7.772   1.158 -0.1113 -0.2519  0.0607
   18CHTO   H57 7497   5.063   7.779   1.147 -0.2342  0.8283 -0.5261
   18CHTO   O21 7498   4.916   7.869   1.262 -0.5777  0.4264  0.4385
   18CHTO   H37 7499   4.957   7.953   1.251  1.5746 -0.6676 -0.3099
   18CHTO   C27 7500   4.881   7.815   1.018  0.4132  0.4616  0.7170
   18CHTO   H55 7501   4.779   7.849   1.040 -0.0888  0.5781 -1.5916
   18CHTO    N5 7502   4.949   7.938   0.961 -0.0485  0.8743 -0.5766
   18CHTO   H43 7503   4.942   8.026   1.023  0.8572  1.6409 -1.5488
   18CHTO   H44 7504   5.055   7.916   0.958 -0.9468 -4.0098 -1.2105
   18CHTO   C25 7505   4.882   7.693   0.916 -0.0267  0.3959 -0.1091
   18CHTO   H53 7506   4.986   7.691   0.879 -0.9154  1.6142 -2.7904
   18CHTO   O17 7507   4.850   7.574   0.996  0.0228 -0.5862  0.2128
   18CHTO   C32 7508   4.952   7.528   1.084 -0.1366 -0.3954 -0.3454
   18CHTO   H60 7509   5.049   7.548   1.039  0.4088  0.8691  1.3703
   18CHTO   C36 7510   4.936   7.382   1.111 -0.1424  0.1560 -0.0353
   18CHTO   O25 7511   4.954   7.309   0.995  0.1639 -0.3854 -0.0323
   18CHTO   H40 7512   4.951   7.216   1.008  0.3612 -0.2947  0.6881
   18CHTO   O15 7513   4.796   7.707   0.798  0.5391 -0.2500 -0.0905
   18CHTO   C19 7514   4.830   7.667   0.666 -0.2095 -0.6280  0.9144
   18CHTO   H47 7515   4.735   7.669   0.610  0.3195  2.9403  0.0821
   18CHTO   C20 7516   4.929   7.763   0.589  0.1783  0.5171  0.1699
   18CHTO   H48 7517   5.025   7.768   0.642  0.7911  2.1425 -1.0498
   18CHTO   O19 7518   4.885   7.898   0.606 -0.0894  0.4777  0.1131
   18CHTO   H35 7519   4.828   7.915   0.533 -2.3423  0.9156  1.9139
   18CHTO   C21 7520   4.956   7.721   0.435 -0.5380  0.2571 -0.3261
   18CHTO   H49 7521   4.863   7.710   0.379 -1.0326 -1.0311  0.7009
   18CHTO    N4 7522   5.053   7.814   0.369 -0.6850 -0.0334  0.4331
   18CHTO   H41 7523   5.024   7.820   0.265  0.7656 -2.2893 -0.1520
   18CHTO   H42 7524   5.151   7.768   0.374  0.6034  2.3681 -1.6278
   18CHTO   C22 7525   5.001   7.574   0.442 -0.2126  0.3016  0.1358
   18CHTO   H50 7526   5.098   7.568   0.491  0.5704 -1.8545 -1.6029
   18CHTO   O14 7527   4.908   7.490   0.511  0.1935  0.0744 -0.2145
   18CHTO   C23 7528   4.892   7.520   0.651  0.4472 -0.6948  0.7727
   18CHTO   H51 7529   4.990   7.510   0.699  0.9683  1.2828  0.1711
   18CHTO   C34 7530   4.809   7.403   0.718  0.2600  0.2079 -0.6372
   18CHTO   O23 7531   4.882   7.282   0.708  0.4144  0.3060  0.3781
   18CHTO   H38 7532   4.858   7.254   0.622  0.6969 -0.0382  0.4082
   18CHTO   O16 7533   5.012   7.516   0.310 -0.5269 -0.2023 -0.0674
   18CHTO   C24 7534   5.147   7.477   0.276 -0.3819  0.0860 -0.7509
   18CHTO   H52 7535   5.221   7.533   0.334  1.1613 -1.9622 -0.7020
   18CHTO   C26 7536   5.170   7.501   0.125 -0.5271 -0.1993  0.1626
   18CHTO   H54 7537   5.105   7.435   0.064 -1.7605  1.7649 -0.6831
   18CHTO   O20 7538   5.127   7.635   0.107  0.3205  0.4621 -0.2128
   18CHTO   H36 7539   5.108   7.664   0.020 -0.7377 -2.3739 -0.9907
   18CHTO   C30 7540   5.315   7.473   0.078 -0.1339  0.5567 -0.1341
   18CHTO   H58 7541   5.390   7.523   0.141 -1.5641  1.6333  0.7324
   18CHTO    N6 7542   5.349   7.500  -0.062 -0.0175 -0.1445 -0.1764
   18CHTO   H45 7543   5.337   7.604  -0.091  0.6195 -0.0868 -0.2346
   18CHTO   H46 7544   5.299   7.432  -0.129 -0.5916  1.3971 -1.3373
   18CHTO   C33 7545   5.336   7.319   0.118  0.1700  0.6417 -0.0062
   18CHTO   H61 7546   5.262   7.251   0.074 -0.1356  0.0366  1.4154
   18CHTO   O18 7547   5.324   7.311   0.262 -0.5442  0.3566  0.1961
   18CHTO   C28 7548   5.183   7.326   0.307 -0.1055  0.1391 -0.9836
   18CHTO   H56 7549   5.110   7.261   0.258 -1.5955  1.8274 -1.0262
   18CHTO   C35 7550   5.177   7.301   0.462 -0.1791  0.0574  0.2753
   18CHTO   O24 7551   5.210   7.168   0.497  0.3446  0.0184 -0.3538
   18CHTO   H39 7552   5.300   7.144   0.489  0.2787 -0.4449  0.2646
   18CHTO    O9 7553   5.460   7.262   0.073 -0.3109  0.1632  0.3655
   18CHTO   C13 7554   5.484   7.109   0.046 -0.0760 -0.2638 -0.4166
   18CHTO   H26 7555   5.399   7.073  -0.015  0.0409 -0.0517 -0.7062
   18CHTO   C11 7556   5.496   7.033   0.183  0.1335 -0.0487  0.2567
   18CHTO   H24 7557   5.395   7.025   0.226  1.5071 -2.1772  3.2160
   18CHTO    O8 7558   5.568   7.102   0.284  0.4345  0.2080  0.1101
   18CHTO    H3 7559   5.657   7.119   0.261  0.4707 -0.6395 -0.3656
   18CHTO    C9 7560   5.548   6.895   0.143  0.2731 -0.5050  0.2902
   18CHTO   H22 7561   5.482   6.863   0.061 -3.1372  0.5742  2.5087
   18CHTO    N2 7562   5.527   6.788   0.243 -0.1294 -0.3327  0.1798
   18CHTO   H10 7563   5.428   6.797   0.284  0.0968 -0.4768  0.7771
   18CHTO   H11 7564   5.563   6.692   0.208 -0.0859 -0.1577 -0.2487
   18CHTO    C7 7565   5.700   6.909   0.093 -0.1138 -0.1409 -0.8502
   18CHTO   H20 7566   5.708   6.829   0.017  0.6063 -0.1867 -0.7267
   18CHTO    O4 7567   5.726   7.039   0.040 -0.2873  1.2923 -0.2836
   18CHTO   C14 7568   5.620   7.087  -0.044  0.0731  0.1470  0.6932
   18CHTO   H27 7569   5.598   7.014  -0.125 -1.7606  2.1354 -0.6677
   18CHTO   C18 7570   5.677   7.214  -0.109  0.2704 -0.0627  0.8499
   18CHTO   O13 7571   5.574   7.265  -0.198 -0.0347 -0.7308  0.0802
   18CHTO    H7 7572   5.507   7.306  -0.147 -0.6168 -0.6259 -0.7650
   18CHTO    O2 7573   5.804   6.890   0.214  0.0067 -0.8463  0.0692
   18CHTO    C1 7574   5.943   6.866   0.202 -0.3719  0.1998  0.3388
   18CHTO   H14 7575   5.999   6.946   0.149  2.1181 -0.5539  1.7155
   18CHTO    C2 7576   5.982   6.724   0.147 -0.2492  0.1074  0.0804
   18CHTO   H15 7577   5.910   6.656   0.195  0.3084 -0.4188  0.1868
   18CHTO    O6 7578   5.956   6.711   0.004 -0.2263 -0.2599  0.5869
   18CHTO    H1 7579   6.012   6.766  -0.048 -0.1780 -0.9487 -0.1115
   18CHTO    C3 7580   6.135   6.672   0.179  0.4438  0.1470 -0.3006
   18CHTO   H16 7581   6.200   6.739   0.121  1.5929  0.1140  0.9349
   18CHTO    N1 7582   6.160   6.531   0.138  0.0830  0.1524 -0.2798
   18CHTO    H8 7583   6.192   6.467   0.219 -1.7450  0.6609  0.8661
   18CHTO    H9 7584   6.231   6.529   0.057 -0.6734  0.6362 -0.9669
   18CHTO    C4 7585   6.166   6.709   0.329 -0.0682  0.2850  0.8843
   18CHTO   H17 7586   6.105   6.648   0.397  0.5316 -0.7059  0.5480
   18CHTO    O1 7587   6.137   6.847   0.355  0.1344  0.1738 -0.8933
   18CHTO    C5 7588   5.999   6.881   0.345 -0.3011  0.2742 -0.2567
   18CHTO   H18 7589   5.937   6.815   0.406 -0.2853 -1.1923 -1.7523
   18CHTO   C16 7590   5.994   7.027   0.400  0.6743  0.0891 -0.5642
   18CHTO   O11 7591   5.988   7.035   0.542  0.5638 -0.0613 -0.2237
   18CHTO    H5 7592   5.899   7.008   0.557 -0.2171  1.1377 -2.4948
   18CHTO    O3 7593   6.310   6.695   0.366  0.2800 -0.3567  0.5307
   18CHTO    C6 7594   6.325   6.661   0.511  0.0307  0.1827  0.6031
   18CHTO   H19 7595   6.235   6.679   0.569  0.2068 -0.0114  0.9324
   18CHTO    C8 7596   6.364   6.513   0.526  0.4337 -0.3541  0.0677
   18CHTO   H21 7597   6.451   6.489   0.465 -1.0593 -1.9872 -1.4941
   18CHTO    O7 7598   6.250   6.444   0.485 -0.5345  0.4497 -0.1632
   18CHTO    H2 7599   6.248   6.355   0.516 -1.7559  0.4834 -0.0938
   18CHTO   C12 7600   6.394   6.485   0.678 -0.5877  0.2761  0.4417
   18CHTO   H25 7601   6.299   6.491   0.736 -1.7670 -3.5494 -0.9195
   18CHTO    N3 7602   6.441   6.343   0.701 -0.0005  0.8009  0.3757
   18CHTO   H12 7603   6.366   6.283   0.651 -0.2960 -0.1120  1.8849
   18CHTO   H13 7604   6.448   6.327   0.807 -1.4901  0.8171  0.4861
   18CHTO   C15 7605   6.492   6.592   0.731  0.5078 -0.4475  0.3957
   18CHTO   H28 7606   6.591   6.575   0.688  0.0109  1.0977 -1.4541
   18CHTO   O10 7607   6.514   6.582   0.873 -0.3324  0.3223  0.5580
   18CHTO    H4 7608   6.433   6.570   0.919 -0.9239  1.6442 -0.1249
   18CHTO    O5 7609   6.446   6.724   0.707 -0.1226 -0.4619 -0.0946
   18CHTO   C10 7610   6.433   6.758   0.565 -0.2012  0.5746 -0.0182
   18CHTO   H23 7611   6.525   6.747   0.509  1.0808  0.7722  1.9998
   18CHTO   C17 7612   6.395   6.906   0.554 -0.0299  0.3655  0.1169
   18CHTO   O12 7613   6.454   6.975   0.446  0.6649  0.2232 -0.0995
   18CHTO    H6 7614   6.546   6.957   0.442  0.6582  0.2291 -0.3002
   19CHTO  H203 7615   6.567   8.277   1.567  0.6049 -0.0344  1.0004
   19CHTO   O82 7616   6.525   8.349   1.610 -0.1844  0.2168 -0.1535
   19CHTO  C123 7617   6.455   8.304   1.730 -0.1642 -0.2547 -0.3063
   19CHTO  H227 7618   6.444   8.388   1.800 -0.9807  1.1884 -2.1339
   19CHTO   O77 7619   6.323   8.258   1.677  0.2562  0.2299  0.4314
   19CHTO  C118 7620   6.231   8.211   1.776  0.5271  0.0453 -0.1744
   19CHTO  H222 7621   6.212   8.296   1.842 -1.6614  1.2878 -2.3326
   19CHTO  C125 7622   6.093   8.181   1.703 -0.4113  0.0742 -0.8774
   19CHTO   O84 7623   6.087   8.071   1.607  0.0880 -0.2347 -0.5599
   19CHTO  H205 7624   6.089   7.984   1.640  2.2058  0.4911  1.3006
   19CHTO  C114 7625   6.292   8.087   1.849 -0.4581 -0.4720 -0.3672
   19CHTO  H218 7626   6.323   8.012   1.775 -0.8723  0.0708 -1.0962
   19CHTO  C116 7627   6.429   8.111   1.913 -0.2211  0.1542 -0.1369
   19CHTO  H220 7628   6.420   8.175   2.002  0.8122  0.9155 -0.5669
   19CHTO   O79 7629   6.482   7.984   1.963 -0.3440 -0.1530 -0.2544
   19CHTO  H201 7630   6.496   7.925   1.891 -0.4944 -0.4035 -0.0797
   19CHTO  C120 7631   6.527   8.183   1.811  0.4345  0.2559  0.0959
   19CHTO  H224 7632   6.559   8.106   1.737  1.0245  2.5504 -2.1398
   19CHTO   N21 7633   6.654   8.225   1.868  0.3645  0.7061 -0.5422
   19CHTO  H211 7634   6.718   8.240   1.782 -0.2955 -1.6701 -1.4848
   19CHTO  H212 7635   6.648   8.315   1.928 -1.5622 -1.2429  2.2753
   19CHTO   O75 7636   6.196   8.041   1.941 -0.0858 -0.6103  0.3161
   19CHTO  C112 7637   6.194   7.878   1.977 -0.1098  0.2370  0.2054
   19CHTO  H216 7638   6.278   7.861   2.045 -0.1988 -1.6619 -0.1294
   19CHTO   O73 7639   6.211   7.813   1.853 -0.5330 -0.1931 -0.6367
   19CHTO  C113 7640   6.203   7.670   1.863 -0.3157 -0.2668  0.4370
   19CHTO  H217 7641   6.281   7.636   1.934  0.4905 -0.9346 -0.7471
   19CHTO  C124 7642   6.244   7.598   1.730 -0.8111 -0.5279 -0.2878
   19CHTO   O83 7643   6.207   7.674   1.621 -0.8503 -0.8280  0.4146
   19CHTO  H204 7644   6.234   7.623   1.547  0.4394  1.4826 -0.7759
   19CHTO  C109 7645   6.074   7.609   1.929  0.2353  0.2126 -0.5465
   19CHTO  H213 7646   5.990   7.633   1.861 -0.9961 -3.1050 -0.3143
   19CHTO  C110 7647   6.048   7.686   2.064  0.1309 -0.9710  0.2348
   19CHTO  H214 7648   6.118   7.651   2.139 -2.8095 -1.6707  2.7586
   19CHTO   O78 7649   5.917   7.646   2.111  0.1449  0.3155  0.2100
   19CHTO  H200 7650   5.922   7.560   2.147 -2.9685 -1.0803 -2.4105
   19CHTO  C111 7651   6.056   7.842   2.049  0.0258  0.5835 -0.0394
   19CHTO  H215 7652   5.972   7.878   1.988  0.6810  0.6895 -0.8798
   19CHTO   N19 7653   6.054   7.907   2.183 -0.2579 -0.0225  0.4143
   19CHTO  H207 7654   6.143   7.879   2.237  1.7156  0.4413 -2.4587
   19CHTO  H208 7655   6.048   8.014   2.167  0.8757 -0.0881 -0.5816
   19CHTO   O74 7656   6.087   7.464   1.934 -0.8491  0.2670  0.4900
   19CHTO  C115 7657   5.982   7.381   1.865  0.4064  0.0623  0.3732
   19CHTO  H219 7658   5.913   7.446   1.810  1.6359  0.3329 -0.8576
   19CHTO   O76 7659   6.049   7.276   1.748 -0.3101  0.4715 -0.1294
   19CHTO  C122 7660   6.130   7.175   1.805 -0.3682  0.0553  0.1697
   19CHTO  H226 7661   6.217   7.218   1.855  1.2233 -0.6622 -1.8883
   19CHTO  C126 7662   6.185   7.085   1.681  0.4087 -0.5352 -0.1344
   19CHTO   O85 7663   6.254   6.968   1.725  0.2640  0.0828 -0.4331
   19CHTO  H206 7664   6.195   6.896   1.733 -1.3346  1.4163  0.0095
   19CHTO  C121 7665   6.055   7.091   1.916 -0.2611 -0.5180 -0.1322
   19CHTO  H225 7666   6.059   6.985   1.884 -2.6776 -0.7031  0.0881
   19CHTO   O81 7667   6.129   7.078   2.035 -0.0759  0.2688 -0.3738
   19CHTO  H202 7668   6.114   7.152   2.091  0.1511 -0.1025  0.1884
   19CHTO  C119 7669   5.909   7.138   1.925 -0.5672  0.0972 -0.6743
   19CHTO  H223 7670   5.872   7.129   1.823 -0.6932  0.3156 -0.6485
   19CHTO  C117 7671   5.893   7.291   1.963 -0.3047  0.0567  0.8359
   19CHTO  H221 7672   5.938   7.326   2.056  0.8602  0.1425  0.2644
   19CHTO   N20 7673   5.750   7.338   1.967  0.1439 -0.3057 -0.5316
   19CHTO  H209 7674   5.749   7.446   1.975 -1.5390 -0.3041 -0.5881
   19CHTO  H210 7675   5.685   7.303   1.889 -1.5902 -0.5668  0.9893
   19CHTO   O80 7676   5.822   7.021   2.006  0.0861 -0.5888 -0.1785
   19CHTO  C103 7677   5.783   6.884   1.928 -0.5777  0.2241  0.0883
   19CHTO  H190 7678   5.821   6.880   1.826  1.1061  0.4013  0.6829
   19CHTO  C101 7679   5.846   6.762   2.000 -0.1050 -0.0217  0.5892
   19CHTO  H188 7680   5.820   6.771   2.105  0.0518  0.8768  0.5535
   19CHTO   O68 7681   5.986   6.775   1.998  0.1112  0.3542  0.1057
   19CHTO  H168 7682   6.031   6.800   1.920  0.3765  0.4033  0.2735
   19CHTO   C99 7683   5.786   6.622   1.955  0.1556  0.1361  0.5934
   19CHTO  H186 7684   5.820   6.602   1.851  0.6489 -0.8984  0.9448
   19CHTO   N17 7685   5.826   6.495   2.037 -0.1233 -0.3060 -0.2114
   19CHTO  H174 7686   5.769   6.414   1.994 -1.4099 -0.4191  1.6638
   19CHTO  H175 7687   5.814   6.500   2.144 -0.4353  0.5781 -0.2860
   19CHTO   C97 7688   5.630   6.630   1.942  0.2112  0.2917  0.0186
   19CHTO  H184 7689   5.588   6.624   2.044  0.7708  1.9646  0.3599
   19CHTO   O64 7690   5.590   6.751   1.875 -0.6091 -0.2598 -0.1374
   19CHTO  C104 7691   5.631   6.878   1.927 -0.0094  0.8320 -0.1398
   19CHTO  H191 7692   5.594   6.895   2.028 -0.1272  2.2696 -0.4231
   19CHTO  C108 7693   5.576   6.991   1.836 -0.0057 -0.4610 -0.6755
   19CHTO   O71 7694   5.430   6.982   1.817 -0.0905  0.1909 -0.1265
   19CHTO  H171 7695   5.413   6.982   1.725  0.0894  0.3598 -0.1602
   19CHTO   O62 7696   5.580   6.527   1.851 -0.1731  0.2630 -0.1325
   19CHTO   C91 7697   5.440   6.528   1.819 -0.4673 -0.1560  0.2785
   19CHTO  H178 7698   5.395   6.618   1.861 -0.6515  0.3241 -0.9310
   19CHTO   C92 7699   5.373   6.414   1.893 -0.0551  0.3336 -0.0903
   19CHTO  H179 7700   5.421   6.318   1.869  0.0889  0.6379 -1.0627
   19CHTO   O66 7701   5.394   6.437   2.032 -0.1672 -0.4868  0.4360
   19CHTO  H166 7702   5.477   6.405   2.061  1.3604  2.2881 -0.6641
   19CHTO   C93 7703   5.221   6.408   1.866  0.1872 -0.7392 -0.4129
   19CHTO  H180 7704   5.174   6.496   1.913  1.0855  1.1869 -3.0343
   19CHTO   N16 7705   5.155   6.288   1.920  0.5919  0.0798  0.5117
   19CHTO  H172 7706   5.087   6.253   1.844  1.1928  1.5438 -0.7485
   19CHTO  H173 7707   5.102   6.325   2.007  1.6301  2.0763  0.3201
   19CHTO   C94 7708   5.187   6.417   1.715 -0.2363  0.2205  0.0979
   19CHTO  H181 7709   5.226   6.331   1.661  0.8053 -0.6719  2.2229
   19CHTO   O61 7710   5.250   6.534   1.664 -0.0446  0.0735 -0.1052
   19CHTO   C95 7711   5.397   6.527   1.670 -0.1035 -0.7355 -0.1510
   19CHTO  H182 7712   5.427   6.433   1.623  1.3639 -0.3734  0.0417
   19CHTO  C106 7713   5.447   6.653   1.587 -0.2668  0.4253 -0.1196
   19CHTO   O69 7714   5.410   6.638   1.447  0.1058 -0.2874  0.6819
   19CHTO  H169 7715   5.316   6.635   1.446  0.0165  2.1220 -1.8482
   19CHTO   O63 7716   5.018   6.432   1.684  0.3180  0.0508  0.1179
   19CHTO   C96 7717   4.949   6.429   1.546 -0.6278  0.0144 -0.3360
   19CHTO  H183 7718   4.990   6.512   1.489  1.2802 -1.5487 -1.3028
   19CHTO   C98 7719   4.797   6.429   1.544  0.4135  0.1960  0.3995
   19CHTO  H185 7720   4.757   6.518   1.596 -1.5082 -0.8267  0.7008
   19CHTO   O67 7721   4.767   6.451   1.404  0.0943  0.1566  0.4309
   19CHTO  H167 7722   4.693   6.507   1.394 -0.5366 -0.8067 -0.4576
   19CHTO  C102 7723   4.731   6.295   1.584 -1.0245  0.5614 -0.4110
   19CHTO  H189 7724   4.622   6.306   1.569 -1.2672 -2.4755 -1.1019
   19CHTO   N18 7725   4.752   6.255   1.732 -0.3531 -0.6242  0.0632
   19CHTO  H176 7726   4.858   6.238   1.745 -0.0448  1.6124  0.6855
   19CHTO  H177 7727   4.701   6.162   1.750 -1.7213  0.1693  0.3274
   19CHTO  C105 7728   4.788   6.184   1.491 -0.0950 -0.6915 -0.3821
   19CHTO  H192 7729   4.788   6.089   1.545  0.5617  0.0240  0.8943
   19CHTO   O65 7730   4.908   6.205   1.420  0.1056  0.5601  0.3070
   19CHTO  C100 7731   5.008   6.289   1.481 -0.2979 -0.6580 -0.2998
   19CHTO  H187 7732   5.047   6.223   1.560  0.6443  0.3698  0.1213
   19CHTO  C107 7733   5.122   6.308   1.377  0.0791 -0.2740 -0.2920
   19CHTO   O70 7734   5.148   6.182   1.316 -0.2706  0.4178  0.0548
   19CHTO  H170 7735   5.198   6.124   1.371 -1.5484 -1.7274 -0.9959
   19CHTO   O57 7736   4.665   6.177   1.379 -0.2318  0.4886 -0.3474
   19CHTO   C85 7737   4.677   6.076   1.279  0.1727 -0.2260 -0.2947
   19CHTO  H157 7738   4.741   5.997   1.323  2.0837  1.7516  0.6464
   19CHTO   C83 7739   4.752   6.141   1.155 -0.6575 -0.1254 -0.6040
   19CHTO  H155 7740   4.859   6.141   1.175 -0.4991  1.0935 -1.4009
   19CHTO   O56 7741   4.705   6.271   1.124  0.1709  0.7071 -0.3769
   19CHTO  H135 7742   4.758   6.314   1.061  0.5410 -0.7866 -1.1001
   19CHTO   C81 7743   4.739   6.047   1.032 -0.0083  0.4337  0.3519
   19CHTO  H153 7744   4.778   5.950   1.063 -0.6108 -0.0017 -0.2412
   19CHTO   N14 7745   4.823   6.095   0.922 -0.3201 -0.0871 -0.0316
   19CHTO  H141 7746   4.849   6.197   0.940  1.4541 -0.5912  0.3432
   19CHTO  H142 7747   4.911   6.034   0.918  1.6456  2.5389  1.5396
   19CHTO   C79 7748   4.594   6.017   0.990 -0.2104 -0.1625 -0.4413
   19CHTO  H151 7749   4.596   5.953   0.902 -0.9090  1.6211 -1.7845
   19CHTO   O52 7750   4.529   5.952   1.099  0.3271  0.3823 -0.1799
   19CHTO   C86 7751   4.539   6.029   1.229  0.4144 -0.5390  0.5817
   19CHTO  H158 7752   4.468   6.114   1.227  0.7943 -0.1328  2.4823
   19CHTO   C90 7753   4.486   5.936   1.340 -0.0660  0.2490 -0.3897
   19CHTO   O60 7754   4.349   5.900   1.319 -1.0108 -0.2843  0.4429
   19CHTO  H138 7755   4.319   5.850   1.393  0.0080 -1.4534  0.0821
   19CHTO   O50 7756   4.517   6.138   0.966 -0.2273 -0.2477 -0.3427
   19CHTO   C73 7757   4.420   6.205   0.883 -0.1711  0.6406 -0.1657
   19CHTO  H145 7758   4.350   6.133   0.838  0.3450  0.6791 -1.0341
   19CHTO   C74 7759   4.485   6.273   0.760 -0.5859 -0.9389  0.7241
   19CHTO  H146 7760   4.537   6.197   0.701 -0.7500 -0.6272  0.1729
   19CHTO   O54 7761   4.388   6.318   0.670 -0.4225 -0.3426 -0.2399
   19CHTO  H133 7762   4.431   6.356   0.597 -0.4963 -1.9391 -1.1417
   19CHTO   C75 7763   4.580   6.386   0.811  0.0351 -0.4982 -0.1766
   19CHTO  H147 7764   4.661   6.342   0.871 -0.2721 -0.0348  0.5952
   19CHTO   N13 7765   4.654   6.448   0.699 -0.1288  0.1629 -0.4417
   19CHTO  H139 7766   4.673   6.373   0.625  0.0301 -0.5991  0.3680
   19CHTO  H140 7767   4.751   6.481   0.734 -0.2933 -1.3179  1.4697
   19CHTO   C76 7768   4.500   6.481   0.917 -0.2584  0.1265  1.0005
   19CHTO  H148 7769   4.426   6.541   0.864  1.1630  1.9897  1.0653
   19CHTO   O49 7770   4.442   6.406   1.021 -0.2841  0.3201 -0.1469
   19CHTO   C77 7771   4.343   6.314   0.966 -0.5657 -0.6542 -0.1076
   19CHTO  H149 7772   4.273   6.362   0.898  2.5408  1.9105 -1.6207
   19CHTO   C88 7773   4.265   6.257   1.090  0.0998 -0.1050  0.1100
   19CHTO   O58 7774   4.166   6.144   1.028 -0.1869  0.3822 -0.0193
   19CHTO  H136 7775   4.095   6.173   0.974  0.5012 -2.7547 -2.7862
   19CHTO   O51 7776   4.593   6.567   0.994 -0.5349 -0.2844 -0.3516
   19CHTO   C78 7777   4.559   6.713   0.995 -0.4189  0.3425 -0.2185
   19CHTO  H150 7778   4.454   6.719   0.959 -0.3686 -0.4248 -0.4889
   19CHTO   C80 7779   4.649   6.808   0.911  0.2130 -0.2539  0.3335
   19CHTO  H152 7780   4.755   6.788   0.934  0.2504  0.8980  1.2371
   19CHTO   O55 7781   4.627   6.778   0.773 -0.3765 -0.3224 -0.0257
   19CHTO  H134 7782   4.638   6.687   0.751 -0.7246 -0.4031  0.1371
   19CHTO   C84 7783   4.616   6.964   0.938 -0.7429 -0.1140 -0.2376
   19CHTO  H156 7784   4.520   6.983   0.891 -1.8873 -1.4551  1.4851
   19CHTO   N15 7785   4.727   7.048   0.874  0.1091  0.1336 -0.1231
   19CHTO  H143 7786   4.699   7.151   0.863  2.6329  0.7277 -1.3111
   19CHTO  H144 7787   4.817   7.040   0.931  1.3778 -0.7775 -2.2125
   19CHTO   C87 7788   4.603   6.994   1.088  0.0701  0.3841  0.3026
   19CHTO  H159 7789   4.701   7.000   1.135  0.1069 -1.3883  0.4576
   19CHTO   O53 7790   4.501   6.893   1.163 -0.4463  0.1541 -0.0011
   19CHTO   C82 7791   4.545   6.759   1.144  0.2782  0.1582 -0.4636
   19CHTO  H154 7792   4.642   6.749   1.193  0.2844  0.0475 -0.5005
   19CHTO   C89 7793   4.452   6.662   1.221 -0.5612  0.4776  0.1928
   19CHTO   O59 7794   4.416   6.708   1.350  0.4979 -0.4260 -0.2683
   19CHTO  H137 7795   4.454   6.656   1.418  1.4965  1.2709  0.4843
   19CHTO   O45 7796   4.538   7.133   1.110 -0.0499 -0.0537 -0.5982
   19CHTO   C67 7797   4.533   7.179   1.249 -0.3078  0.8680 -0.4083
   19CHTO  H124 7798   4.548   7.087   1.306 -0.9387  0.1755 -1.3558
   19CHTO   C65 7799   4.646   7.282   1.286 -0.1557  1.0415  0.0306
   19CHTO  H122 7800   4.658   7.341   1.195 -0.2572  0.9665 -0.0313
   19CHTO   O44 7801   4.767   7.209   1.315  0.2706 -0.3525  0.1500
   19CHTO  H102 7802   4.786   7.141   1.254 -0.6497  0.4453 -1.0372
   19CHTO   C63 7803   4.606   7.391   1.392  0.6419  0.1764 -0.0451
   19CHTO  H120 7804   4.552   7.469   1.338  2.7120  1.6702 -0.0195
   19CHTO   N11 7805   4.714   7.469   1.458  0.3782  0.4479  0.1812
   19CHTO  H108 7806   4.779   7.516   1.387  1.2157  0.7217  1.1204
   19CHTO  H109 7807   4.781   7.406   1.512  0.7586  0.1991 -0.5636
   19CHTO   C61 7808   4.507   7.322   1.499 -0.2951 -0.3475  0.3724
   19CHTO  H118 7809   4.481   7.401   1.571 -0.3377 -1.4581  1.6102
   19CHTO   O40 7810   4.390   7.288   1.430  0.2705 -0.3550  0.6064
   19CHTO   C68 7811   4.397   7.240   1.287  0.3455  0.2403 -0.6908
   19CHTO  H125 7812   4.367   7.323   1.220 -0.0117  1.1251  0.5517
   19CHTO   C72 7813   4.284   7.136   1.277 -0.0984  0.1654  0.3200
   19CHTO   O48 7814   4.156   7.196   1.276 -0.2757  0.9328  0.0508
   19CHTO  H105 7815   4.102   7.140   1.222  1.8483  0.2317 -1.4232
   19CHTO   O38 7816   4.562   7.208   1.578 -0.1148 -0.3916 -0.1657
   19CHTO   C55 7817   4.476   7.120   1.643  0.0626  0.1254 -0.0624
   19CHTO  H112 7818   4.398   7.090   1.571  0.4249  0.0983 -0.4481
   19CHTO   C56 7819   4.417   7.176   1.780 -0.9755  0.1947 -0.0201
   19CHTO  H113 7820   4.505   7.196   1.842  0.0836 -0.4619 -1.2892
   19CHTO   O42 7821   4.333   7.295   1.759  0.3376 -0.3404 -0.2386
   19CHTO  H100 7822   4.388   7.369   1.743  1.2421 -1.3601 -2.1437
   19CHTO   C57 7823   4.338   7.063   1.857  0.0545  0.0197  0.1456
   19CHTO  H114 7824   4.247   7.042   1.801  1.4803 -0.8137 -1.8971
   19CHTO   N10 7825   4.311   7.105   1.999  0.2880  0.1965  0.1887
   19CHTO  H106 7826   4.291   7.210   2.017 -1.2774 -0.3708  2.0311
   19CHTO  H107 7827   4.387   7.072   2.068 -0.8378  0.6789  1.7042
   19CHTO   C58 7828   4.428   6.934   1.859  0.1729  0.9205  0.1696
   19CHTO  H115 7829   4.515   6.948   1.927  0.1878 -1.0624  0.6040
   19CHTO   O37 7830   4.477   6.895   1.734 -0.2015  0.7100  0.2294
   19CHTO   C59 7831   4.562   6.993   1.672 -0.5541  0.1408 -0.0082
   19CHTO  H116 7832   4.649   7.016   1.733 -1.7837  0.7442  1.5470
   19CHTO   C70 7833   4.607   6.930   1.535 -0.6262 -0.6088 -0.0877
   19CHTO   O46 7834   4.712   6.830   1.537 -0.1138  0.0052  0.2307
   19CHTO  H103 7835   4.798   6.865   1.554 -0.5575  1.1380  0.1855
   19CHTO   O39 7836   4.339   6.795   1.914 -0.2605  0.2092  0.7279
   19CHTO   C60 7837   4.262   6.729   1.807 -1.0400  0.5863 -0.2227
   19CHTO  H117 7838   4.256   6.779   1.710  0.8860 -0.0336 -0.6844
   19CHTO   C62 7839   4.332   6.593   1.760 -0.5168  0.2008  0.3126
   19CHTO  H119 7840   4.433   6.619   1.721  0.6279 -1.1232  2.3005
   19CHTO   O43 7841   4.338   6.507   1.874 -0.5742  0.1386  0.4759
   19CHTO  H101 7842   4.402   6.442   1.850  0.4175  0.1158  3.0500
   19CHTO   C66 7843   4.249   6.545   1.631  0.2169 -0.2186 -0.0630
   19CHTO  H123 7844   4.262   6.622   1.555 -1.6706 -1.1598 -1.3806
   19CHTO   N12 7845   4.293   6.418   1.565 -0.9935  0.4078  0.0106
   19CHTO  H110 7846   4.398   6.413   1.541 -0.5439 -0.6427  2.0158
   19CHTO  H111 7847   4.259   6.335   1.626 -0.7276  1.6836  1.9626
   19CHTO   C69 7848   4.092   6.544   1.662  0.1020 -0.0823  0.0695
   19CHTO  H126 7849   4.079   6.453   1.725  1.4539  0.1738  0.7576
   19CHTO   O41 7850   4.055   6.660   1.731  0.0008 -0.0042  0.6309
   19CHTO   C64 7851   4.125   6.693   1.854 -0.3845 -0.3330 -0.1226
   19CHTO  H121 7852   4.122   6.607   1.924  5.6735 -1.4096 -0.9214
   19CHTO   C71 7853   4.060   6.810   1.935  0.0026 -1.0161 -0.7859
   19CHTO   O47 7854   4.100   6.798   2.072  0.2598  0.2345  0.2824
   19CHTO  H104 7855   4.058   6.851   2.137  4.9548  4.1223  0.4237
   19CHTO   O34 7856   4.000   6.537   1.525 -0.5433  0.3457  0.0489
   19CHTO   C49 7857   3.927   6.633   1.445  0.0549 -0.4238  0.3249
   19CHTO   H91 7858   3.854   6.681   1.510  1.2012  2.1754 -0.2310
   19CHTO   C47 7859   3.854   6.561   1.330 -0.0141  0.1494  0.0118
   19CHTO   H89 7860   3.797   6.635   1.270  1.2103  1.0032 -0.1168
   19CHTO   O33 7861   3.769   6.459   1.381 -0.2170 -0.3315 -0.7735
   19CHTO   H70 7862   3.720   6.475   1.459  0.7056  0.9787 -0.4631
   19CHTO   C45 7863   3.961   6.505   1.224 -0.5179 -0.7190 -0.1538
   19CHTO   H87 7864   4.032   6.440   1.275  1.1551  1.2455  0.0849
   19CHTO    N8 7865   3.900   6.425   1.114  0.1485 -0.1536  0.3800
   19CHTO   H75 7866   3.931   6.321   1.118 -0.3167 -0.2833  0.5616
   19CHTO   H76 7867   3.793   6.432   1.107  0.0528  2.4638  3.5438
   19CHTO   C43 7868   4.062   6.622   1.185  0.0249 -0.4491  0.4174
   19CHTO   H85 7869   4.140   6.571   1.128 -1.4161  0.7854 -2.7717
   19CHTO   O29 7870   4.112   6.701   1.298  0.2963 -0.1436 -0.4919
   19CHTO   C50 7871   4.019   6.746   1.395 -0.6159 -0.4596  0.3020
   19CHTO   H92 7872   4.072   6.777   1.487 -2.0407  0.2717  0.8850
   19CHTO   C54 7873   3.937   6.870   1.362  0.5071 -0.2051  0.7063
   19CHTO   O36 7874   4.002   6.996   1.379  0.1255  0.1104 -0.0778
   19CHTO   H72 7875   3.950   7.062   1.339 -2.3846 -1.5979  0.2323
   19CHTO   O27 7876   3.998   6.706   1.088 -0.7044 -0.8891 -0.4308
   19CHTO   C37 7877   4.038   6.787   0.971 -0.7003 -0.2818  0.2542
   19CHTO   H79 7878   3.942   6.814   0.924 -0.9655  0.7515  1.3467
   19CHTO   C38 7879   4.101   6.916   1.007  0.1609 -0.3053 -0.6285
   19CHTO   H80 7880   4.186   6.895   1.074 -1.2601 -1.8176  0.7597
   19CHTO   O31 7881   3.999   6.989   1.077  0.1076  0.8149  0.2153
   19CHTO   H68 7882   4.033   7.066   1.119 -1.1780  0.7514  1.3903
   19CHTO   C39 7883   4.147   6.998   0.884  0.6671  0.2897 -0.0722
   19CHTO   H81 7884   4.059   7.025   0.826 -0.2425  1.3391  1.7654
   19CHTO    N7 7885   4.220   7.124   0.922  0.0035 -0.1150 -0.1490
   19CHTO   H73 7886   4.203   7.208   0.856  0.9544 -0.8659 -1.3657
   19CHTO   H74 7887   4.326   7.106   0.925  0.2426  0.1725 -4.1062
   19CHTO   C40 7888   4.235   6.908   0.790 -1.1998 -0.5965 -0.3442
   19CHTO   H82 7889   4.327   6.877   0.840 -1.0998  0.3791  0.0859
   19CHTO   O26 7890   4.158   6.794   0.751 -0.1163 -0.2886 -0.3266
   19CHTO   C41 7891   4.128   6.710   0.872 -0.4548 -0.1799  0.0988
   19CHTO   H83 7892   4.222   6.693   0.926 -0.3776 -0.9878 -0.2828
   19CHTO   C52 7893   4.065   6.580   0.814 -0.2554 -0.3371  0.4363
   19CHTO   O35 7894   3.937   6.599   0.745 -0.0467 -0.2025 -0.0226
   19CHTO   H71 7895   3.928   6.690   0.725  3.4345 -0.0929 -1.3935
   19CHTO   O28 7896   4.265   6.971   0.662 -0.0597  0.5954 -0.1698
   19CHTO   C42 7897   4.408   6.989   0.618 -0.1194  0.4013  0.3297
   19CHTO   H84 7898   4.475   6.962   0.699 -1.7946  1.1616  1.9813
   19CHTO   C44 7899   4.446   7.131   0.579  0.4904  0.9304  0.0070
   19CHTO   H86 7900   4.369   7.168   0.512 -0.4174 -0.7433  0.0954
   19CHTO   O32 7901   4.436   7.207   0.703  0.4221  0.0832 -0.6531
   19CHTO   H69 7902   4.482   7.289   0.701  0.1773  0.2156 -2.8393
   19CHTO   C48 7903   4.588   7.148   0.508 -0.3958 -0.3245 -0.1948
   19CHTO   H90 7904   4.662   7.154   0.588 -0.2782  0.3925 -0.3532
   19CHTO    N9 7905   4.596   7.275   0.435 -0.2709 -0.5087 -0.5745
   19CHTO   H77 7906   4.512   7.292   0.369 -0.2431 -0.3627 -0.5727
   19CHTO   H78 7907   4.689   7.292   0.384 -0.3941  0.6930 -0.4108
   19CHTO   C51 7908   4.633   7.024   0.423 -0.4760  0.5657 -0.4469
   19CHTO   H93 7909   4.604   7.040   0.319 -2.2421 -2.7280 -0.5491
   19CHTO   O30 7910   4.585   6.904   0.481  0.1210 -0.2307 -0.3697
   19CHTO   C46 7911   4.448   6.889   0.500 -0.8162 -0.4458  0.1547
   19CHTO   H88 7912   4.401   6.918   0.406  0.5670 -0.5766 -0.5902
   19CHTO   C53 7913   4.419   6.741   0.531 -0.0598 -0.3640  0.0282
   19CHTO   O72 7914   4.467   6.645   0.434 -0.0583  0.4378  0.8480
   19CHTO  H199 7915   4.467   6.557   0.465  0.6567 -0.1488 -0.7657
   19CHTO   O22 7916   4.776   7.022   0.420 -0.2915 -0.5793  0.0268
   19CHTO   C31 7917   4.861   6.945   0.335  0.4970 -0.5216  0.9387
   19CHTO   H59 7918   4.798   6.866   0.291 -0.9020  0.2098  1.5907
   19CHTO   C29 7919   4.925   7.021   0.218 -0.4556 -0.0238  0.0618
   19CHTO   H57 7920   4.983   7.100   0.268 -2.5858  1.1843  0.6661
   19CHTO   O21 7921   4.814   7.078   0.151  0.1169 -0.3115  0.6863
   19CHTO   H37 7922   4.746   7.020   0.121 -0.6734  1.7993 -1.9033
   19CHTO   C27 7923   5.024   6.939   0.129  0.3168  0.1387 -0.3065
   19CHTO   H55 7924   4.965   6.863   0.075 -0.1039  1.0602 -1.1601
   19CHTO    N5 7925   5.101   7.014   0.031 -0.1823 -0.1131 -0.1553
   19CHTO   H43 7926   5.102   7.120   0.052  1.1605 -0.0811 -0.3690
   19CHTO   H44 7927   5.070   6.984  -0.068 -0.0257 -0.6463 -0.0434
   19CHTO   C25 7928   5.123   6.866   0.221 -0.5607  0.2984 -0.1421
   19CHTO   H53 7929   5.182   6.940   0.277  1.8475 -3.4718  2.5364
   19CHTO   O17 7930   5.058   6.800   0.327 -0.3502 -0.7854 -0.5060
   19CHTO   C32 7931   4.968   6.876   0.410 -0.6154  0.0701  0.2544
   19CHTO   H60 7932   5.030   6.948   0.462 -0.3488  0.2353 -0.2946
   19CHTO   C36 7933   4.902   6.778   0.513 -0.2020  0.3310 -0.4321
   19CHTO   O25 7934   4.828   6.669   0.445  0.8090  0.1800  0.2597
   19CHTO   H40 7935   4.774   6.702   0.376 -0.1788 -1.7792  0.0668
   19CHTO   O15 7936   5.213   6.759   0.143  0.1978  0.3087  0.1857
   19CHTO   C19 7937   5.197   6.634   0.069 -0.2560 -0.0224  0.2038
   19CHTO   H47 7938   5.097   6.631   0.023  0.5228 -0.3484 -1.4930
   19CHTO   C20 7939   5.296   6.605  -0.048  0.2251 -0.0682  0.8581
   19CHTO   H48 7940   5.400   6.599  -0.013  0.4647 -0.4407  0.0907
   19CHTO   O19 7941   5.284   6.712  -0.141  0.3349 -0.2024 -0.3156
   19CHTO   H35 7942   5.334   6.700  -0.219 -1.5512  0.1099 -1.6006
   19CHTO   C21 7943   5.265   6.474  -0.130 -0.1394 -1.0230 -0.3373
   19CHTO   H49 7944   5.177   6.491  -0.192  1.2818  2.5240 -1.5356
   19CHTO    N4 7945   5.372   6.446  -0.232  0.2084  0.7830 -0.5385
   19CHTO   H41 7946   5.460   6.400  -0.189 -1.0714 -0.1701  1.1594
   19CHTO   H42 7947   5.329   6.383  -0.308  1.6384  0.5684 -1.1752
   19CHTO   C22 7948   5.240   6.358  -0.030  0.5120  0.0402  0.1657
   19CHTO   H50 7949   5.335   6.327   0.012 -0.7454 -2.1511  1.5064
   19CHTO   O14 7950   5.150   6.395   0.077  0.2091  0.1747  0.1802
   19CHTO   C23 7951   5.209   6.503   0.152 -0.2311  0.0146  0.0478
   19CHTO   H51 7952   5.315   6.477   0.171  0.0183 -1.2166 -2.7338
   19CHTO   C34 7953   5.133   6.497   0.284  0.0739 -0.0944 -0.9114
   19CHTO   O23 7954   4.997   6.518   0.272  0.4935 -0.1641  0.0951
   19CHTO   H38 7955   4.962   6.480   0.194 -0.6605 -0.7141  0.8709
   19CHTO   O16 7956   5.179   6.247  -0.094 -0.3518  0.1591  0.5595
   19CHTO   C24 7957   5.230   6.097  -0.055 -0.3553 -0.1456 -0.7645
   19CHTO   H52 7958   5.305   6.096   0.023 -0.0531 -0.0790 -1.0561
   19CHTO   C26 7959   5.293   6.039  -0.181  0.1012  0.8497  0.2642
   19CHTO   H54 7960   5.224   6.052  -0.267 -1.6578 -1.1796  1.2981
   19CHTO   O20 7961   5.418   6.104  -0.217  0.2227 -0.5761  0.1717
   19CHTO   H36 7962   5.473   6.117  -0.142  2.1843 -0.1044 -1.3091
   19CHTO   C30 7963   5.315   5.882  -0.157 -0.1272  0.2205 -0.2718
   19CHTO   H58 7964   5.399   5.873  -0.087 -0.8918 -0.0626  0.6296
   19CHTO    N6 7965   5.352   5.822  -0.294  0.3261  0.0223  0.8183
   19CHTO   H45 7966   5.456   5.806  -0.314 -0.2361 -1.3042 -1.1709
   19CHTO   H46 7967   5.292   5.736  -0.321  0.4806  0.6869 -1.8411
   19CHTO   C33 7968   5.191   5.811  -0.093  0.3538 -0.5122  0.1898
   19CHTO   H61 7969   5.110   5.817  -0.167 -1.0873  3.1917  1.9163
   19CHTO   O18 7970   5.151   5.890   0.025 -0.5404  0.1527  0.7811
   19CHTO   C28 7971   5.104   6.022  -0.003 -0.7490 -0.1018 -0.0870
   19CHTO   H56 7972   5.027   6.021  -0.080 -1.0595 -0.7847  0.2329
   19CHTO   C35 7973   5.047   6.072   0.130  0.1712 -0.6881  0.0575
   19CHTO   O24 7974   4.940   5.992   0.188  0.3847 -0.3003 -0.3451
   19CHTO   H39 7975   4.869   6.005   0.129 -0.1423 -0.4561  0.2502
   19CHTO    O9 7976   5.215   5.674  -0.056  0.3011  0.1363 -0.5490
   19CHTO   C13 7977   5.065   5.589  -0.055 -0.1889  0.2193  0.8730
   19CHTO   H26 7978   5.015   5.594  -0.154  2.2238 -0.3349 -0.4249
   19CHTO   C11 7979   4.970   5.646   0.063  0.7432  0.3739 -0.3866
   19CHTO   H24 7980   4.940   5.750   0.044  0.3004  0.9425  3.0568
   19CHTO    O8 7981   5.041   5.646   0.192  0.4498 -0.4051 -0.0660
   19CHTO    H3 7982   5.129   5.613   0.187  0.1070 -1.2857 -0.6606
   19CHTO    C9 7983   4.845   5.551   0.072 -0.6046  0.2756  0.6726
   19CHTO   H22 7984   4.800   5.551  -0.028 -0.3835  1.1456  0.5750
   19CHTO    N2 7985   4.736   5.594   0.155  0.1543  0.3633 -0.3089
   19CHTO   H10 7986   4.766   5.623   0.254  1.0514 -0.5668 -0.3001
   19CHTO   H11 7987   4.670   5.509   0.169  0.3987  0.1191 -0.6190
   19CHTO    C7 7988   4.902   5.404   0.108  0.3002  0.1341  0.3698
   19CHTO   H20 7989   4.861   5.338   0.028  0.9519 -1.3175  1.2122
   19CHTO    O4 7990   5.048   5.395   0.100  0.6033 -0.2323 -0.0775
   19CHTO   C14 7991   5.094   5.434  -0.033 -0.4524  0.7074 -0.0804
   19CHTO   H27 7992   5.031   5.374  -0.102  1.4214 -2.5839  0.9355
   19CHTO   C18 7993   5.244   5.395  -0.050 -0.0300  0.6270  0.7017
   19CHTO   O13 7994   5.282   5.437  -0.177 -0.0951  0.2805 -0.1299
   19CHTO    H7 7995   5.268   5.529  -0.190 -1.2112 -0.2262 -2.6689
   19CHTO    O2 7996   4.834   5.334   0.249  0.1452  0.0723  0.5088
   19CHTO    C1 7997   4.777   5.198   0.239 -0.3786  0.2816  0.7640
   19CHTO   H14 7998   4.829   5.142   0.159  0.8383 -0.2718  1.9337
   19CHTO    C2 7999   4.619   5.201   0.207 -0.1576  0.5891 -0.0573
   19CHTO   H15 8000   4.578   5.283   0.267 -0.1593 -0.0697  0.8459
   19CHTO    O6 8001   4.589   5.242   0.068  0.0614 -0.3109 -0.2717
   19CHTO    H1 8002   4.501   5.273   0.070  0.6556  1.5186 -0.6884
   19CHTO    C3 8003   4.541   5.058   0.230  0.0659  0.1065 -0.6915
   19CHTO   H16 8004   4.574   4.983   0.156 -0.5751 -1.4792  0.5916
   19CHTO    N1 8005   4.395   5.077   0.227 -0.5347  0.9845 -0.7034
   19CHTO    H8 8006   4.356   5.032   0.137 -0.6458 -1.8781  0.7177
   19CHTO    H9 8007   4.336   5.068   0.317  0.6740  1.5968  0.1486
   19CHTO    C4 8008   4.591   4.993   0.365  0.5586 -0.4201  0.1445
   19CHTO   H17 8009   4.554   5.048   0.451  0.1116 -0.4428 -0.0311
   19CHTO    O1 8010   4.735   4.991   0.363 -0.3046 -0.0924 -0.4115
   19CHTO    C5 8011   4.802   5.117   0.371 -0.6455  0.4677 -0.1385
   19CHTO   H18 8012   4.759   5.172   0.454 -0.5033 -0.0716  0.2944
   19CHTO   C16 8013   4.948   5.078   0.398  0.0941 -0.0857  0.4529
   19CHTO   O11 8014   4.992   5.151   0.506  0.6691 -0.4353  0.0440
   19CHTO    H5 8015   4.999   5.242   0.484 -2.1015 -0.2217 -0.0585
   19CHTO    O3 8016   4.555   4.851   0.383 -0.2080 -0.2663 -0.4140
   19CHTO    C6 8017   4.499   4.815   0.510 -0.1741 -0.7269  0.3019
   19CHTO   H19 8018   4.482   4.898   0.578  0.4502 -0.1179 -0.2756
   19CHTO    C8 8019   4.354   4.760   0.484 -0.6228  0.3763 -0.8908
   19CHTO   H21 8020   4.364   4.664   0.432 -0.0118 -1.3315  2.2911
   19CHTO    O7 8021   4.273   4.850   0.405 -0.7425  0.7818  0.6309
   19CHTO    H2 8022   4.332   4.882   0.340  1.6886  0.7869  2.7492
   19CHTO   C12 8023   4.294   4.720   0.626  0.3603 -0.0933 -0.1667
   19CHTO   H25 8024   4.281   4.815   0.682 -2.5615 -1.7589  2.1478
   19CHTO    N3 8025   4.159   4.661   0.614  0.2541  0.5468  0.8633
   19CHTO   H12 8026   4.098   4.744   0.581  0.2758 -0.6128 -2.2068
   19CHTO   H13 8027   4.156   4.578   0.545  0.1741  0.7193  0.6584
   19CHTO   C15 8028   4.390   4.624   0.697  0.8211  0.5348 -0.3677
   19CHTO   H28 8029   4.412   4.530   0.645  1.1723  0.3925  0.0354
   19CHTO   O10 8030   4.358   4.593   0.837 -0.5131 -0.3933  0.1968
   19CHTO    H4 8031   4.268   4.567   0.846 -0.0130 -1.5022  2.5499
   19CHTO    O5 8032   4.519   4.684   0.714 -0.2756 -0.0939 -0.7228
   19CHTO   C10 8033   4.586   4.713   0.593 -0.5627 -0.3519  0.2120
   19CHTO   H23 8034   4.597   4.619   0.540 -0.4204 -0.4863  0.4799
   19CHTO   C17 8035   4.723   4.770   0.616  0.3744 -0.1106 -0.0921
   19CHTO   O12 8036   4.815   4.697   0.697  0.1037 -0.3707  0.2722
   19CHTO    H6 8037   4.899   4.738   0.689 -1.1372  2.1187 -0.4134
   20CHTO  H203 8038   5.242   0.222   1.538  0.8612 -2.6740  0.7745
   20CHTO   O82 8039   5.230   0.244   1.628  0.4077 -0.2774  0.1689
   20CHTO  C123 8040   5.176   0.376   1.669 -0.4658  0.3642 -0.0486
   20CHTO  H227 8041   5.121   0.360   1.763  1.2283  0.9729  1.0699
   20CHTO   O77 8042   5.299   0.452   1.690 -0.1564  0.5349  0.5138
   20CHTO  C118 8043   5.280   0.589   1.721 -0.5300  0.3399  0.1843
   20CHTO  H222 8044   5.232   0.594   1.820  1.4538  1.4892  1.1203
   20CHTO  C125 8045   5.422   0.658   1.730 -0.8142 -0.3135 -0.1023
   20CHTO   O84 8046   5.481   0.623   1.859  0.5061  0.0802 -0.5097
   20CHTO  H205 8047   5.568   0.592   1.841 -0.0526 -1.7161 -0.2646
   20CHTO  C114 8048   5.191   0.664   1.615 -0.9535 -0.7276 -0.4220
   20CHTO  H218 8049   5.260   0.681   1.532 -0.4510 -1.7598 -0.2306
   20CHTO  C116 8050   5.065   0.582   1.573  0.5366 -0.5147 -0.2882
   20CHTO  H220 8051   4.983   0.595   1.647  1.7383  0.9204  0.8268
   20CHTO   O79 8052   5.015   0.639   1.450 -0.2928  0.4359 -0.3983
   20CHTO  H201 8053   4.921   0.634   1.447 -0.3419 -0.0111  1.2465
   20CHTO  C120 8054   5.095   0.436   1.550  0.4046  0.7593  0.1170
   20CHTO  H224 8055   5.153   0.431   1.456 -2.6153 -3.8533 -1.6733
   20CHTO   N21 8056   4.966   0.368   1.531  0.4709  0.4401  0.1807
   20CHTO  H211 8057   4.933   0.377   1.428  0.3258 -0.9948  0.0884
   20CHTO  H212 8058   4.890   0.396   1.602 -0.5242 -2.4199  0.3235
   20CHTO   O75 8059   5.181   0.789   1.686  0.0137  0.2402 -0.1837
   20CHTO  C112 8060   5.080   0.892   1.634 -0.5547  0.0523 -0.4694
   20CHTO  H216 8061   4.980   0.858   1.664  0.5692 -1.0755  2.1691
   20CHTO   O73 8062   5.095   0.893   1.493  0.2360  0.7322 -0.4746
   20CHTO  C113 8063   5.021   0.988   1.426 -0.1829  0.3799  0.4702
   20CHTO  H217 8064   4.917   0.991   1.464 -0.8625 -0.1100 -1.2771
   20CHTO  C124 8065   5.029   0.968   1.274  0.1623 -0.1841  0.2743
   20CHTO   O83 8066   4.950   0.848   1.246  0.1603  0.2106 -0.0811
   20CHTO  H204 8067   4.975   0.812   1.164 -2.8695 -0.8411 -0.5969
   20CHTO  C109 8068   5.083   1.125   1.461 -0.5505 -0.6538 -0.2101
   20CHTO  H213 8069   5.189   1.118   1.436 -0.3450 -0.3986  0.5948
   20CHTO  C110 8070   5.056   1.156   1.611  0.2852  0.5526 -0.0201
   20CHTO  H214 8071   4.950   1.178   1.614 -0.6466 -3.5655  1.3547
   20CHTO   O78 8072   5.111   1.284   1.650 -0.3404 -0.1706  0.1580
   20CHTO  H200 8073   5.188   1.315   1.606 -0.2762  2.8764  2.2098
   20CHTO  C111 8074   5.107   1.038   1.697 -0.5326  0.5890  0.8848
   20CHTO  H215 8075   5.217   1.038   1.708 -0.5783 -1.0641  1.5344
   20CHTO   N19 8076   5.063   1.029   1.836  0.0613 -0.3285 -0.0735
   20CHTO  H207 8077   4.962   0.991   1.832  0.7707 -2.1381 -1.8885
   20CHTO  H208 8078   5.065   1.130   1.875  1.8107 -0.0717 -0.7815
   20CHTO   O74 8079   5.020   1.225   1.375 -0.0632 -0.5518 -0.5796
   20CHTO  C115 8080   5.121   1.332   1.337 -0.4904 -0.2626 -0.5848
   20CHTO  H219 8081   5.181   1.363   1.422  0.8482  0.0776 -1.6261
   20CHTO   O76 8082   5.228   1.279   1.224 -0.1431 -0.1086 -0.3178
   20CHTO  C122 8083   5.188   1.301   1.088 -0.0955  0.3575  0.2095
   20CHTO  H226 8084   5.105   1.237   1.060 -0.2787 -0.9321  3.4672
   20CHTO  C126 8085   5.310   1.249   1.003  0.3034 -0.4679  0.8266
   20CHTO   O85 8086   5.342   1.110   1.017 -0.7688  0.2547  0.1348
   20CHTO  H206 8087   5.428   1.098   0.983 -1.3836 -0.3813 -1.2578
   20CHTO  C121 8088   5.151   1.454   1.063  0.0584 -0.3578 -0.4877
   20CHTO  H225 8089   5.228   1.507   1.004  1.1585  0.1956  1.4098
   20CHTO   O81 8090   5.023   1.450   1.000  0.1719 -0.1154  0.2784
   20CHTO  H202 8091   5.042   1.400   0.923 -0.7219 -2.5752  1.6298
   20CHTO  C119 8092   5.135   1.540   1.192 -0.2310  0.0528 -0.2847
   20CHTO  H223 8093   5.232   1.551   1.242 -1.0252 -0.8231  1.4814
   20CHTO  C117 8094   5.041   1.462   1.298 -0.3754 -0.3271 -0.4415
   20CHTO  H221 8095   4.949   1.425   1.252 -0.9894 -2.3034  2.2480
   20CHTO   N20 8096   5.000   1.547   1.420  0.0724  0.4514  0.2212
   20CHTO  H209 8097   4.918   1.506   1.476 -0.5261  1.7511  0.3174
   20CHTO  H210 8098   4.965   1.640   1.378  1.5464  0.1457 -1.7823
   20CHTO   O80 8099   5.101   1.688   1.163  0.2856 -0.0431  0.0660
   20CHTO  C103 8100   5.201   1.788   1.077 -0.1977 -0.7516 -0.7742
   20CHTO  H190 8101   5.190   1.890   1.115  0.8234 -0.6401 -0.7364
   20CHTO  C101 8102   5.355   1.743   1.064  0.4570  0.5525 -0.4616
   20CHTO  H188 8103   5.371   1.641   1.030  2.3014  0.9573 -0.8459
   20CHTO   O68 8104   5.413   1.767   1.207  0.6784 -0.5748 -0.4621
   20CHTO  H168 8105   5.499   1.732   1.219  0.9782  0.6037  1.0669
   20CHTO   C99 8106   5.433   1.832   0.950  0.2109 -0.8527  0.7892
   20CHTO  H186 8107   5.443   1.933   0.993 -2.0436  0.0636 -0.7580
   20CHTO   N17 8108   5.570   1.780   0.917  0.3729 -0.1034 -0.0538
   20CHTO  H174 8109   5.652   1.836   0.961  0.4098  0.5926 -0.9983
   20CHTO  H175 8110   5.570   1.677   0.950  0.4720  0.3123  1.3081
   20CHTO   C97 8111   5.349   1.856   0.820  0.7297 -0.3833 -0.1127
   20CHTO  H184 8112   5.346   1.762   0.763 -2.4976 -0.7276  0.5297
   20CHTO   O64 8113   5.217   1.894   0.857  0.0038 -0.2890  0.2855
   20CHTO  C104 8114   5.151   1.793   0.928 -0.5116  0.4474 -0.3703
   20CHTO  H191 8115   5.168   1.698   0.879  0.6161  0.6334 -0.3590
   20CHTO  C108 8116   4.998   1.823   0.913  0.5307 -1.1764 -0.3436
   20CHTO   O71 8117   4.910   1.712   0.942 -0.3755 -0.0189 -0.9910
   20CHTO  H171 8118   4.881   1.669   0.863 -2.8988 -0.6229  0.1971
   20CHTO   O62 8119   5.404   1.961   0.744 -0.0671  0.1996 -0.0710
   20CHTO   C91 8120   5.375   1.967   0.605 -0.5414  0.1671 -0.4505
   20CHTO  H178 8121   5.292   1.901   0.582  0.0713 -0.6446 -0.3335
   20CHTO   C92 8122   5.498   1.916   0.526  0.0839 -0.0674  1.2269
   20CHTO  H179 8123   5.589   1.956   0.573 -0.3855  0.7414  1.4594
   20CHTO   O66 8124   5.504   1.774   0.540 -0.8451 -0.6413 -0.2024
   20CHTO  H166 8125   5.475   1.731   0.462 -1.5198 -0.6979  0.0719
   20CHTO   C93 8126   5.500   1.953   0.373  0.8772 -0.0465 -0.4301
   20CHTO  H180 8127   5.431   1.881   0.326  0.9300 -0.6017  0.3350
   20CHTO   N16 8128   5.635   1.938   0.315 -0.1917  0.0923 -0.2906
   20CHTO  H172 8129   5.714   1.999   0.357  0.6112 -0.2235 -1.3051
   20CHTO  H173 8130   5.628   1.969   0.211  0.5216 -0.9687 -0.6675
   20CHTO   C94 8131   5.440   2.094   0.344  0.9655 -0.0472  0.0090
   20CHTO  H181 8132   5.505   2.171   0.385  2.0715 -2.5648  3.1729
   20CHTO   O61 8133   5.310   2.117   0.407  0.0347 -0.1092  0.2538
   20CHTO   C95 8134   5.317   2.107   0.549  0.0766 -0.8108 -0.0932
   20CHTO  H182 8135   5.383   2.186   0.586  1.7978 -2.3183  0.1278
   20CHTO  C106 8136   5.182   2.151   0.621  0.6128  0.0819 -0.4434
   20CHTO   O69 8137   5.142   2.284   0.579  0.8246  0.5701  0.1277
   20CHTO  H169 8138   5.222   2.331   0.569  1.7477 -1.3408 -2.1150
   20CHTO   O63 8139   5.418   2.118   0.182 -0.6748 -0.2296  0.1481
   20CHTO   C96 8140   5.301   2.037   0.111  0.7713  0.5317 -0.4405
   20CHTO  H183 8141   5.247   1.973   0.181 -1.8670  0.7930 -2.1641
   20CHTO   C98 8142   5.361   1.937   0.002  0.6761 -0.2021  0.3299
   20CHTO  H185 8143   5.435   1.871   0.050  1.0722 -0.2863 -0.3953
   20CHTO   O67 8144   5.265   1.848  -0.048 -0.2754  0.1781 -0.2677
   20CHTO  H167 8145   5.183   1.893  -0.050 -0.3141  0.0451 -3.1632
   20CHTO  C102 8146   5.415   2.018  -0.128  0.5971  0.2587 -0.3912
   20CHTO  H189 8147   5.403   1.951  -0.214 -0.4554 -1.1883  0.8414
   20CHTO   N18 8148   5.562   2.052  -0.116  0.1678  0.3034 -0.3264
   20CHTO  H176 8149   5.587   2.154  -0.139  1.6933 -0.2232 -1.0504
   20CHTO  H177 8150   5.610   1.978  -0.178 -0.0928 -0.1904  0.0545
   20CHTO  C105 8151   5.331   2.153  -0.149  0.3346 -0.2331 -0.4962
   20CHTO  H192 8152   5.383   2.238  -0.105  0.1986 -1.0806  1.3606
   20CHTO   O65 8153   5.198   2.138  -0.098  0.3634  0.1327  0.0533
   20CHTO  C100 8154   5.195   2.139   0.051 -0.9106 -0.0798  0.3311
   20CHTO  H187 8155   5.219   2.238   0.094  1.1933  0.3175 -1.6167
   20CHTO  C107 8156   5.055   2.107   0.099 -0.0926 -0.9084 -0.9015
   20CHTO   O70 8157   5.035   2.130   0.236 -0.7217 -0.6232 -0.6820
   20CHTO  H170 8158   5.087   2.078   0.295 -0.1365  1.4574  0.6874
   20CHTO   O57 8159   5.330   2.170  -0.310 -0.0713  0.0704 -0.7301
   20CHTO   C85 8160   5.264   2.288  -0.370  0.3185  0.5251 -0.3808
   20CHTO  H157 8161   5.215   2.340  -0.284 -2.1873  0.0672 -1.4726
   20CHTO   C83 8162   5.161   2.237  -0.465 -0.5902 -0.2703  0.0807
   20CHTO  H155 8163   5.096   2.169  -0.411 -0.8975  0.2757  0.4073
   20CHTO   O56 8164   5.216   2.148  -0.567 -0.5902 -0.1621  0.3388
   20CHTO  H135 8165   5.222   2.057  -0.543 -0.3360 -0.9122 -2.3389
   20CHTO   C81 8166   5.075   2.352  -0.523 -0.5318  0.9846 -0.3085
   20CHTO  H153 8167   5.018   2.405  -0.445 -0.1229  0.9245  0.0330
   20CHTO   N14 8168   4.966   2.302  -0.608 -0.0240 -0.1108 -0.3311
   20CHTO  H141 8169   4.913   2.216  -0.573  0.3949 -0.5978 -0.8887
   20CHTO  H142 8170   4.899   2.385  -0.611 -2.4170 -1.9494  0.5086
   20CHTO   C79 8171   5.172   2.453  -0.588  0.3428 -0.1510 -0.2975
   20CHTO  H151 8172   5.118   2.547  -0.601  0.4512 -0.2161 -1.3148
   20CHTO   O52 8173   5.292   2.492  -0.507 -0.2714 -0.5114  0.4124
   20CHTO   C86 8174   5.364   2.382  -0.450  0.3396 -0.3963  0.3438
   20CHTO  H158 8175   5.397   2.329  -0.542  0.0138  0.0866 -0.0545
   20CHTO   C90 8176   5.489   2.428  -0.380  0.2807 -0.1426  0.2498
   20CHTO   O60 8177   5.574   2.319  -0.356 -0.8696 -0.2688  0.0637
   20CHTO  H138 8178   5.539   2.260  -0.292 -1.3974 -0.5456 -0.4762
   20CHTO   O50 8179   5.217   2.422  -0.715 -0.5282 -0.2020  0.3597
   20CHTO   C73 8180   5.255   2.511  -0.820 -0.1301  0.6988 -0.4833
   20CHTO  H145 8181   5.355   2.543  -0.789  0.3945 -2.9930  2.0152
   20CHTO   C74 8182   5.171   2.639  -0.859  0.2262 -0.0243  0.4818
   20CHTO  H146 8183   5.155   2.694  -0.765  0.6964  2.5026 -0.8816
   20CHTO   O54 8184   5.259   2.715  -0.939 -0.3493  0.2136  0.2253
   20CHTO  H133 8185   5.255   2.678  -1.025  0.0648 -0.0193  0.3034
   20CHTO   C75 8186   5.040   2.600  -0.928  0.0234  0.4812  0.1505
   20CHTO  H147 8187   4.975   2.552  -0.853 -1.3626  1.2208 -0.5477
   20CHTO   N13 8188   4.961   2.709  -0.975  0.0914 -0.6695 -0.1088
   20CHTO  H139 8189   5.010   2.775  -1.045 -2.4645  2.4326  0.8783
   20CHTO  H140 8190   4.862   2.690  -1.015  0.3369 -2.0702 -0.0644
   20CHTO   C76 8191   5.072   2.494  -1.048 -0.1827  0.1059 -0.1566
   20CHTO  H148 8192   5.120   2.544  -1.133 -0.8711 -0.4054 -0.8436
   20CHTO   O49 8193   5.156   2.379  -1.014  0.6904  0.1401 -0.3220
   20CHTO   C77 8194   5.276   2.429  -0.954 -0.3348  0.1868 -0.4147
   20CHTO  H149 8195   5.322   2.493  -1.030 -0.0829  1.8648  1.1097
   20CHTO   C88 8196   5.365   2.307  -0.936  0.1887  0.4413 -0.1356
   20CHTO   O58 8197   5.451   2.279  -1.060 -0.3592 -0.1024 -0.3636
   20CHTO  H136 8198   5.398   2.237  -1.125  0.0395  0.7324 -1.2489
   20CHTO   O51 8199   4.931   2.430  -1.099  0.1441 -0.2459 -0.0677
   20CHTO   C78 8200   4.847   2.315  -1.014 -0.3936  0.5112  0.3086
   20CHTO  H150 8201   4.872   2.304  -0.907  0.3338 -0.4699  0.0481
   20CHTO   C80 8202   4.866   2.177  -1.080  0.1993  0.2971  0.2304
   20CHTO  H152 8203   4.833   2.190  -1.185  0.9911 -0.9928 -0.1829
   20CHTO   O55 8204   5.003   2.136  -1.068  0.1607  0.3366 -0.0783
   20CHTO  H134 8205   5.035   2.131  -0.980  3.0375  0.8473 -1.0459
   20CHTO   C84 8206   4.769   2.063  -1.019  0.3448  0.1793 -0.5736
   20CHTO  H156 8207   4.798   2.047  -0.916 -3.1047  1.0947  0.6225
   20CHTO   N15 8208   4.772   1.930  -1.087 -0.3813  0.1619 -0.2301
   20CHTO  H143 8209   4.752   1.844  -1.027 -1.4120  1.2406  0.9964
   20CHTO  H144 8210   4.711   1.929  -1.176  0.8026  3.6828 -1.1590
   20CHTO   C87 8211   4.619   2.117  -1.014 -0.4017 -0.1531  0.5075
   20CHTO  H159 8212   4.591   2.122  -1.119 -2.3910 -1.1611  0.9545
   20CHTO   O53 8213   4.626   2.246  -0.951  0.4989  0.1148  0.0653
   20CHTO   C82 8214   4.701   2.354  -1.010 -0.0252 -0.0206 -0.5095
   20CHTO  H154 8215   4.664   2.366  -1.111  1.2080  1.8317 -0.7727
   20CHTO   C89 8216   4.681   2.483  -0.932 -0.1584  0.3459  0.0636
   20CHTO   O59 8217   4.613   2.586  -1.008 -0.7110 -0.4025 -0.1510
   20CHTO  H137 8218   4.604   2.659  -0.950 -0.7314 -0.1503 -0.4744
   20CHTO   O45 8219   4.522   2.031  -0.927 -0.6303  0.3538 -0.1943
   20CHTO   C67 8220   4.499   2.067  -0.786 -0.0842 -0.0319 -0.2285
   20CHTO  H124 8221   4.584   2.127  -0.753 -0.6091  0.2547  0.6038
   20CHTO   C65 8222   4.372   2.152  -0.781 -0.3756 -0.0218 -0.0698
   20CHTO  H122 8223   4.342   2.172  -0.883  1.7618 -0.6267 -0.8491
   20CHTO   O44 8224   4.409   2.283  -0.731 -0.1699 -0.0392 -0.0335
   20CHTO  H102 8225   4.355   2.348  -0.772  0.1593 -0.9287 -1.9479
   20CHTO   C63 8226   4.252   2.080  -0.701  0.0688  0.2112 -0.5177
   20CHTO  H120 8227   4.232   1.985  -0.752 -2.0941  0.4800 -0.2457
   20CHTO   N11 8228   4.118   2.150  -0.694 -1.2087 -0.1826 -0.7459
   20CHTO  H108 8229   4.129   2.237  -0.633  0.9829 -0.4039 -0.7914
   20CHTO  H109 8230   4.102   2.187  -0.793  0.1814  1.4996 -0.3444
   20CHTO   C61 8231   4.309   2.051  -0.555  0.7301  0.3968  0.9619
   20CHTO  H118 8232   4.233   1.989  -0.506  0.5231 -1.4095 -1.5447
   20CHTO   O40 8233   4.434   1.967  -0.553 -0.3349 -0.6475  0.1521
   20CHTO   C68 8234   4.490   1.945  -0.684  0.0251  0.5437  0.2907
   20CHTO  H125 8235   4.429   1.870  -0.738  0.5967  0.5554 -0.3685
   20CHTO   C72 8236   4.631   1.879  -0.663 -0.5110  0.1303  1.0041
   20CHTO   O48 8237   4.730   1.939  -0.584  0.3147  0.4843 -0.0557
   20CHTO  H105 8238   4.804   1.881  -0.586  0.1292  0.2284 -4.3249
   20CHTO   O38 8239   4.350   2.166  -0.476  0.2313  0.0268 -0.2806
   20CHTO   C55 8240   4.327   2.159  -0.332 -0.0143  0.4701  0.7460
   20CHTO  H112 8241   4.321   2.056  -0.294  2.2007  0.0063 -0.0661
   20CHTO   C56 8242   4.204   2.249  -0.303 -0.5424 -0.0953 -0.1482
   20CHTO  H113 8243   4.225   2.346  -0.351  0.0988  0.6667  1.5968
   20CHTO   O42 8244   4.080   2.207  -0.371 -1.0481 -0.2907  0.5236
   20CHTO  H100 8245   4.026   2.282  -0.388 -1.1572 -0.0847  1.7442
   20CHTO   C57 8246   4.175   2.249  -0.146  0.1428  0.1302 -0.0394
   20CHTO  H114 8247   4.160   2.148  -0.109  0.9197 -0.8075 -2.1954
   20CHTO   N10 8248   4.055   2.326  -0.092 -0.4615  0.5880  0.3445
   20CHTO  H106 8249   4.061   2.434  -0.094 -1.4152  0.6445  0.3170
   20CHTO  H107 8250   4.018   2.293   0.004 -0.1809 -2.2197 -0.4919
   20CHTO   C58 8251   4.309   2.301  -0.087 -0.3051 -0.4719 -0.4240
   20CHTO  H115 8252   4.322   2.408  -0.115  0.1566 -0.7034 -1.0981
   20CHTO   O37 8253   4.418   2.219  -0.120  0.0694 -0.1937  0.3448
   20CHTO   C59 8254   4.447   2.214  -0.256  0.5323 -0.5799  0.3485
   20CHTO  H116 8255   4.476   2.313  -0.292  1.0814 -0.8322  0.0825
   20CHTO   C70 8256   4.582   2.132  -0.276  0.0440 -0.1252 -0.0568
   20CHTO   O46 8257   4.645   2.185  -0.391 -0.8098 -0.0283  0.1928
   20CHTO  H103 8258   4.737   2.177  -0.376 -0.5885  2.1428  0.1365
   20CHTO   O39 8259   4.302   2.309   0.095  0.0525 -0.4088 -0.4587
   20CHTO   C60 8260   4.385   2.230   0.174  0.3175  0.1155 -1.0388
   20CHTO  H117 8261   4.389   2.137   0.118  2.2900 -0.7607  0.5054
   20CHTO   C62 8262   4.528   2.296   0.203  0.6387 -0.2184 -0.8099
   20CHTO  H119 8263   4.584   2.297   0.107  1.3543  0.0915 -0.3907
   20CHTO   O43 8264   4.513   2.434   0.241  0.4304  0.1810 -0.5613
   20CHTO  H101 8265   4.594   2.478   0.224  0.6946 -0.1953 -0.2686
   20CHTO   C66 8266   4.624   2.214   0.306  0.1541 -0.5539  0.4027
   20CHTO  H123 8267   4.670   2.132   0.251 -0.3471 -1.5721  1.4907
   20CHTO   N12 8268   4.750   2.286   0.338  0.2942 -0.2511  0.5185
   20CHTO  H110 8269   4.777   2.336   0.246 -2.3665  1.1602  0.4698
   20CHTO  H111 8270   4.733   2.355   0.418 -0.5181  0.4416 -0.2472
   20CHTO   C69 8271   4.538   2.162   0.421 -0.6462 -0.0112 -0.5423
   20CHTO  H126 8272   4.521   2.246   0.492 -0.3676  1.6531 -2.4148
   20CHTO   O41 8273   4.400   2.095   0.367 -0.0518  0.3994  0.4969
   20CHTO   C64 8274   4.322   2.193   0.311  1.0734  0.0963  0.0836
   20CHTO  H121 8275   4.307   2.278   0.380 -3.5820 -0.7333  0.2452
   20CHTO   C71 8276   4.178   2.137   0.291  0.0002  0.1261 -0.3681
   20CHTO   O47 8277   4.126   2.108   0.418 -0.2102 -0.1966 -0.6245
   20CHTO  H104 8278   4.071   2.176   0.449  1.8890  0.3920  1.9798
   20CHTO   O34 8279   4.611   2.064   0.507  0.2001  0.5232  0.5527
   20CHTO   C49 8280   4.638   1.957   0.613 -0.0798  0.0591  0.1793
   20CHTO   H91 8281   4.581   1.990   0.700  1.7356 -0.1053  1.4581
   20CHTO   C47 8282   4.796   1.941   0.636 -0.1596 -0.5083  0.0607
   20CHTO   H89 8283   4.806   1.863   0.715 -2.3736 -1.2141 -0.3018
   20CHTO   O33 8284   4.854   2.062   0.682  0.1629 -0.4406  0.0186
   20CHTO   H70 8285   4.806   2.094   0.757  0.2868  1.0987 -0.5403
   20CHTO   C45 8286   4.864   1.886   0.497  0.2637  0.4847  0.1669
   20CHTO   H87 8287   4.902   1.972   0.440  2.6648  0.0733  1.1103
   20CHTO    N8 8288   4.984   1.805   0.529  0.4750 -0.2170  0.2246
   20CHTO   H75 8289   5.055   1.872   0.575  0.4609 -0.0521  0.0056
   20CHTO   H76 8290   4.975   1.717   0.592 -2.2114  0.4239  0.8143
   20CHTO   C43 8291   4.754   1.798   0.405  0.0458  0.7366  0.7118
   20CHTO   H85 8292   4.698   1.867   0.340  4.0017  0.6245 -3.0281
   20CHTO   O29 8293   4.662   1.726   0.490  0.5909  0.8294 -0.1476
   20CHTO   C50 8294   4.591   1.814   0.578  0.9061  0.0202  1.0043
   20CHTO   H92 8295   4.490   1.824   0.534  0.6036 -1.9302  1.1864
   20CHTO   C54 8296   4.559   1.731   0.703 -0.0211  0.5907  0.3708
   20CHTO   O36 8297   4.680   1.672   0.759  1.0598 -0.1068 -0.1093
   20CHTO   H72 8298   4.678   1.682   0.852  1.7534 -1.3907  0.0575
   20CHTO   O27 8299   4.809   1.721   0.294  0.1298 -0.4709 -0.2640
   20CHTO   C37 8300   4.807   1.681   0.158  0.0432 -0.0554 -0.0603
   20CHTO   H79 8301   4.715   1.634   0.121  0.2224 -1.3364  1.0726
   20CHTO   C38 8302   4.827   1.808   0.069 -0.2361 -0.1920  0.1605
   20CHTO   H80 8303   4.915   1.862   0.107  0.0494 -0.2877 -0.3611
   20CHTO   O31 8304   4.722   1.907   0.088  0.5480  0.2262  0.5254
   20CHTO   H68 8305   4.723   1.974   0.022  0.3350 -1.4638 -1.2615
   20CHTO   C39 8306   4.834   1.774  -0.086 -0.2663 -1.3227  1.0122
   20CHTO   H81 8307   4.731   1.750  -0.110 -0.0701 -1.3995  0.2023
   20CHTO    N7 8308   4.877   1.893  -0.168 -0.0691  0.2093 -0.3185
   20CHTO   H73 8309   4.969   1.939  -0.135  0.2447  0.5973 -1.6756
   20CHTO   H74 8310   4.870   1.863  -0.272 -0.6042  1.3578 -0.6296
   20CHTO   C40 8311   4.938   1.653  -0.104 -0.3334  0.0806  0.1882
   20CHTO   H82 8312   5.042   1.684  -0.105 -0.3535  0.1399  0.0878
   20CHTO   O26 8313   4.918   1.547  -0.008  0.1510  0.0798  0.2279
   20CHTO   C41 8314   4.919   1.584   0.136 -0.1781 -0.1450 -0.0582
   20CHTO   H83 8315   5.018   1.622   0.162  0.0960 -0.0322 -1.2517
   20CHTO   C52 8316   4.904   1.455   0.224 -0.7102  0.1684  0.1485
   20CHTO   O35 8317   5.023   1.375   0.244 -0.1924 -0.1600  0.1562
   20CHTO   H71 8318   5.073   1.411   0.314  1.4601 -1.0149 -0.5510
   20CHTO   O28 8319   4.910   1.593  -0.221 -0.0019  0.0988  0.9699
   20CHTO   C42 8320   5.017   1.522  -0.289  0.1467  0.4768 -0.4994
   20CHTO   H84 8321   4.965   1.492  -0.380  1.6551 -2.2085 -0.5365
   20CHTO   C44 8322   5.060   1.381  -0.225  0.2096  0.0281  0.5531
   20CHTO   H86 8323   5.093   1.406  -0.124  3.9843 -2.2024 -0.0566
   20CHTO   O32 8324   4.936   1.313  -0.219  0.3085 -0.0830 -0.8207
   20CHTO   H69 8325   4.913   1.291  -0.308  0.4922 -1.9619 -0.4233
   20CHTO   C48 8326   5.174   1.307  -0.296  0.1273 -0.1700  0.4344
   20CHTO   H90 8327   5.143   1.282  -0.398  0.4950  3.3607 -0.6145
   20CHTO    N9 8328   5.208   1.171  -0.235 -0.3755 -0.6893 -0.0204
   20CHTO   H77 8329   5.121   1.124  -0.193  0.1423 -2.6050 -1.0387
   20CHTO   H78 8330   5.283   1.195  -0.161 -1.1831  0.6633  0.3782
   20CHTO   C51 8331   5.291   1.411  -0.327 -0.3029 -0.4167 -0.2357
   20CHTO   H93 8332   5.349   1.431  -0.236  2.4861  4.4479 -2.8322
   20CHTO   O30 8333   5.239   1.534  -0.386 -0.6225  0.0617 -0.1505
   20CHTO   C46 8334   5.152   1.605  -0.319  0.4887  0.2319  0.7948
   20CHTO   H88 8335   5.197   1.636  -0.224  0.3717 -0.9391  1.2465
   20CHTO   C53 8336   5.111   1.722  -0.411  0.4584  0.0574  0.0858
   20CHTO   O72 8337   5.214   1.817  -0.445 -0.5606  0.1488 -0.3074
   20CHTO  H199 8338   5.273   1.784  -0.510  1.1561 -0.6669  1.5978
   20CHTO   O22 8339   5.389   1.359  -0.422 -0.2669  0.0679 -0.0177
   20CHTO   C31 8340   5.534   1.404  -0.415  0.2863 -0.2514  0.0131
   20CHTO   H59 8341   5.588   1.348  -0.494 -0.6289  0.5807 -1.2102
   20CHTO   C29 8342   5.558   1.558  -0.437  0.2076  0.4136  0.8493
   20CHTO   H57 8343   5.501   1.619  -0.365  1.8784 -0.3649  2.8875
   20CHTO   O21 8344   5.508   1.594  -0.568  0.7011  0.4273 -0.2452
   20CHTO   H37 8345   5.554   1.551  -0.638 -1.6865  0.0640 -1.6546
   20CHTO   C27 8346   5.710   1.595  -0.422  0.1753 -0.2885  0.2609
   20CHTO   H55 8347   5.765   1.544  -0.502  3.7051  1.1280  1.7201
   20CHTO    N5 8348   5.732   1.743  -0.445 -0.1637  0.3455 -0.0497
   20CHTO   H43 8349   5.815   1.776  -0.383  1.3488  1.1892 -2.4540
   20CHTO   H44 8350   5.645   1.805  -0.428 -0.4942 -0.1096 -0.0800
   20CHTO   C25 8351   5.760   1.549  -0.282 -0.2556  0.7511  0.0195
   20CHTO   H53 8352   5.695   1.591  -0.204 -1.8609  1.5179 -1.6857
   20CHTO   O17 8353   5.740   1.405  -0.276  0.4977  0.2001  0.1814
   20CHTO   C32 8354   5.604   1.362  -0.287  0.6997 -0.6111  0.6233
   20CHTO   H60 8355   5.546   1.404  -0.205 -2.1145  1.0200 -2.1242
   20CHTO   C36 8356   5.591   1.209  -0.263 -0.4864  0.8245  1.1033
   20CHTO   O25 8357   5.620   1.180  -0.126  0.3798  0.4721 -0.2340
   20CHTO   H40 8358   5.583   1.240  -0.064 -0.8209  0.1485 -0.6174
   20CHTO   O15 8359   5.923   1.574  -0.262 -0.5619 -0.0416 -0.5345
   20CHTO   C19 8360   6.063   1.581  -0.301 -0.1592  0.1315  0.1821
   20CHTO   H47 8361   6.048   1.605  -0.408  2.1490  1.5318  0.1426
   20CHTO   C20 8362   6.130   1.705  -0.240  0.2325 -0.0750  0.6146
   20CHTO   H48 8363   6.098   1.720  -0.136  0.6219 -2.6799  1.1582
   20CHTO   O19 8364   6.075   1.814  -0.313 -0.2869 -0.7592  0.1731
   20CHTO   H35 8365   6.089   1.900  -0.280 -1.9263  0.0191 -1.1186
   20CHTO   C21 8366   6.292   1.705  -0.243 -0.0738  0.4309 -0.0783
   20CHTO   H49 8367   6.323   1.725  -0.346  2.2222 -1.2937  0.2198
   20CHTO    N4 8368   6.352   1.817  -0.167  0.0841  0.2744  0.2138
   20CHTO   H41 8369   6.445   1.798  -0.115  1.4169 -0.7008 -2.4232
   20CHTO   H42 8370   6.368   1.907  -0.226 -0.3449  0.6032  0.5994
   20CHTO   C22 8371   6.339   1.563  -0.202 -0.3455 -0.1119  0.2598
   20CHTO   H50 8372   6.294   1.533  -0.107  0.8731 -1.1664  0.5190
   20CHTO   O14 8373   6.282   1.474  -0.297 -0.0626  0.0865  0.2414
   20CHTO   C23 8374   6.140   1.453  -0.291 -0.4237  0.2063  0.1017
   20CHTO   H51 8375   6.126   1.410  -0.191 -1.9381  1.1444  0.3094
   20CHTO   C34 8376   6.103   1.344  -0.402  0.5574 -0.6130  0.3467
   20CHTO   O23 8377   6.178   1.218  -0.383  0.2032  0.2008  0.3759
   20CHTO   H38 8378   6.269   1.234  -0.394  0.0639 -0.5796 -2.3219
   20CHTO   O16 8379   6.478   1.537  -0.216  0.2166  0.2202  0.1573
   20CHTO   C24 8380   6.540   1.419  -0.143 -0.2167  0.0558  0.1579
   20CHTO   H52 8381   6.464   1.349  -0.107  0.0080 -0.3879 -0.2204
   20CHTO   C26 8382   6.614   1.475  -0.024 -0.0516 -0.0788 -0.2224
   20CHTO   H54 8383   6.679   1.558  -0.059 -1.7302  1.7542  0.8855
   20CHTO   O20 8384   6.521   1.528   0.070 -0.1534 -0.0888 -0.4195
   20CHTO   H36 8385   6.457   1.465   0.096  0.1800 -0.3032 -0.1098
   20CHTO   C30 8386   6.690   1.367   0.057  0.4459  0.3124  0.2247
   20CHTO   H58 8387   6.654   1.360   0.161  1.1381  0.7119  0.4934
   20CHTO    N6 8388   6.834   1.399   0.068  0.0797 -0.3538 -0.1623
   20CHTO   H45 8389   6.859   1.462  -0.016  0.3683 -1.6903 -1.0847
   20CHTO   H46 8390   6.875   1.438   0.161  0.3122  1.4569 -1.0003
   20CHTO   C33 8391   6.667   1.222  -0.002  0.0167 -0.0536 -0.0777
   20CHTO   H61 8392   6.744   1.153   0.038 -0.1410 -0.6878 -0.8598
   20CHTO   O18 8393   6.683   1.226  -0.145  0.5272  0.1117 -0.3969
   20CHTO   C28 8394   6.634   1.338  -0.227 -0.3282  0.3567  0.4818
   20CHTO   H56 8395   6.713   1.405  -0.262 -0.9892  1.1430  0.4698
   20CHTO   C35 8396   6.561   1.284  -0.356 -0.0760  0.3303  0.0429
   20CHTO   O24 8397   6.549   1.368  -0.466 -0.2444 -0.3009  0.2609
   20CHTO   H39 8398   6.515   1.450  -0.435  1.2208 -0.9033  3.6663
   20CHTO    O9 8399   6.543   1.171   0.039 -0.3709  0.0066 -0.0720
   20CHTO   C13 8400   6.533   1.026  -0.003  0.4194  0.1348  0.3769
   20CHTO   H26 8401   6.635   0.984  -0.002  0.1887 -0.4315  2.0122
   20CHTO   C11 8402   6.458   1.013  -0.143 -0.5616 -0.2594  0.6028
   20CHTO   H24 8403   6.527   1.059  -0.216 -4.0947 -0.2903 -2.8860
   20CHTO    O8 8404   6.334   1.090  -0.143 -0.1047 -0.0208  0.4673
   20CHTO    H3 8405   6.278   1.035  -0.092 -2.2373  0.9439 -0.7673
   20CHTO    C9 8406   6.441   0.863  -0.177  0.4441  0.2658 -1.0901
   20CHTO   H22 8407   6.542   0.821  -0.161  1.2827  2.1693 -1.3248
   20CHTO    N2 8408   6.395   0.836  -0.313 -0.6252 -0.1099  0.2856
   20CHTO   H10 8409   6.471   0.844  -0.390 -0.8218 -1.2862 -0.0553
   20CHTO   H11 8410   6.346   0.740  -0.314  0.3742 -0.6417  1.0150
   20CHTO    C7 8411   6.333   0.813  -0.066  0.0159 -0.2375  0.3172
   20CHTO   H20 8412   6.372   0.711  -0.043 -1.0562 -0.7070  0.1207
   20CHTO    O4 8413   6.341   0.877   0.060  0.7209  0.0225  0.2855
   20CHTO   C14 8414   6.460   0.934   0.110 -0.1547  0.0720  0.1613
   20CHTO   H27 8415   6.534   0.857   0.141 -1.0160  0.5053  3.4022
   20CHTO   C18 8416   6.420   1.011   0.234  0.4239 -0.2256  0.3905
   20CHTO   O13 8417   6.532   1.051   0.310 -0.1550  0.0669  0.4069
   20CHTO    H7 8418   6.507   1.108   0.380  0.2747  0.3783  0.3055
   20CHTO    O2 8419   6.183   0.792  -0.108 -0.2812 -0.1011  0.8856
   20CHTO    C1 8420   6.068   0.812  -0.017 -0.0825 -0.1662 -0.7634
   20CHTO   H14 8421   6.091   0.892   0.056 -1.6776  2.4335 -3.0423
   20CHTO    C2 8422   6.033   0.679   0.064  0.4112  0.1619 -0.5318
   20CHTO   H15 8423   6.032   0.604  -0.016  0.1425 -0.5006  0.0958
   20CHTO    O6 8424   6.133   0.645   0.157  0.6766  0.1770 -0.6566
   20CHTO    H1 8425   6.098   0.578   0.212  1.1356  0.2743 -0.2464
   20CHTO    C3 8426   5.890   0.677   0.127  0.3513 -0.3541  0.3457
   20CHTO   H16 8427   5.893   0.753   0.206  1.4223 -0.3385  0.3006
   20CHTO    N1 8428   5.843   0.548   0.176 -0.6192  0.6300  0.0118
   20CHTO    H8 8429   5.832   0.478   0.095 -2.2166 -0.4157  1.1003
   20CHTO    H9 8430   5.920   0.514   0.245 -0.2673 -1.1336 -1.2027
   20CHTO    C4 8431   5.783   0.738   0.023 -0.1480  0.4282  0.1241
   20CHTO   H17 8432   5.768   0.669  -0.060  1.4906 -0.7366  0.7721
   20CHTO    O1 8433   5.827   0.865  -0.027 -0.4092 -0.2937 -0.5988
   20CHTO    C5 8434   5.950   0.853  -0.106  0.5246  0.6996 -0.0917
   20CHTO   H18 8435   5.940   0.779  -0.185  0.6377  0.7707 -0.1729
   20CHTO   C16 8436   5.970   0.989  -0.173  0.3487 -0.6100  0.0175
   20CHTO   O11 8437   5.883   1.033  -0.277 -0.3451 -0.4130  0.2009
   20CHTO    H5 8438   5.853   0.956  -0.320  1.5988 -1.3001  0.3774
   20CHTO    O3 8439   5.662   0.765   0.092 -0.3758 -0.6738  0.3330
   20CHTO    C6 8440   5.555   0.851   0.048 -0.5081  0.7254  0.2773
   20CHTO   H19 8441   5.586   0.905  -0.041  1.0606  1.7812  1.4502
   20CHTO    C8 8442   5.440   0.758   0.008  0.3246 -0.0297  0.1583
   20CHTO   H21 8443   5.418   0.691   0.091 -0.2372 -1.1576 -0.8921
   20CHTO    O7 8444   5.482   0.687  -0.102 -0.1119  0.0213  0.4222
   20CHTO    H2 8445   5.416   0.629  -0.133  2.0071 -0.4725 -3.5041
   20CHTO   C12 8446   5.302   0.840  -0.013 -0.4421 -0.0433  0.7590
   20CHTO   H25 8447   5.316   0.902  -0.104  1.5256  1.9307  2.3464
   20CHTO    N3 8448   5.194   0.742  -0.032  0.2187  0.8060  0.3288
   20CHTO   H12 8449   5.180   0.694   0.064  2.5234 -0.6985 -0.0648
   20CHTO   H13 8450   5.210   0.682  -0.120  0.2762  4.1511 -2.0551
   20CHTO   C15 8451   5.282   0.941   0.110  0.6423  0.2149 -0.0652
   20CHTO   H28 8452   5.256   0.900   0.207  3.7870 -0.7041  0.4241
   20CHTO   O10 8453   5.166   1.051   0.086 -0.0510 -0.4258  0.9690
   20CHTO    H4 8454   5.085   1.009   0.065 -0.2385  0.8855 -1.0605
   20CHTO    O5 8455   5.395   1.023   0.120 -0.4775 -0.4769  0.7891
   20CHTO   C10 8456   5.519   0.963   0.154  0.3631  0.3084 -0.3293
   20CHTO   H23 8457   5.511   0.927   0.257 -1.7702  3.1027  0.5608
   20CHTO   C17 8458   5.628   1.067   0.173  0.1304 -0.5056  0.0684
   20CHTO   O12 8459   5.597   1.145   0.292  0.1958  0.6950 -0.4012
   20CHTO    H6 8460   5.598   1.092   0.370  0.5953 -0.3289 -1.0799
   21GLOH   H03 8461   9.027   4.180   1.258  1.0157  0.4216 -2.1589
   21GLOH    O1 8462   8.953   4.152   1.201 -0.2058  0.3468 -0.5831
   21GLOH    C1 8463   8.834   4.127   1.278  0.4955  0.3722  0.1856
   21GLOH   H02 8464   8.814   4.021   1.288  0.1330  0.6549  2.5892
   21GLOH   H08 8465   8.750   4.162   1.218  0.7306  0.0049 -0.3663
   21GLOH    C2 8466   8.816   4.193   1.417 -0.1379 -0.6721  0.1184
   21GLOH   H04 8467   8.722   4.158   1.462  1.2049 -0.7356  2.9452
   21GLOH    O2 8468   8.927   4.160   1.506  0.6213  0.6048 -0.2545
   21GLOH   H05 8469   8.991   4.233   1.513  3.3040 -1.6630 -0.4007
   21GLOH    C3 8470   8.792   4.346   1.396  0.1338  0.0037 -0.0316
   21GLOH   H06 8471   8.700   4.362   1.341  1.6537  2.3238 -2.0043
   21GLOH   H07 8472   8.872   4.396   1.341 -1.1458  0.9122 -1.0666
   21GLOH    O3 8473   8.781   4.418   1.522  0.0158  0.3217 -0.1498
   21GLOH   H01 8474   8.834   4.364   1.585  1.6630  1.1038 -0.8301
   22GLOH   H03 8475   1.249   3.105   0.000 -0.8089  1.4033  0.8699
   22GLOH    O1 8476   1.312   3.149  -0.059  0.2875  0.1620  1.0795
   22GLOH    C1 8477   1.248   3.262  -0.113 -0.6482 -0.3760  0.2458
   22GLOH   H02 8478   1.311   3.328  -0.172  0.2602 -1.1250  0.3808
   22GLOH   H08 8479   1.223   3.329  -0.031  2.3203 -0.5379  1.3416
   22GLOH    C2 8480   1.127   3.235  -0.204  0.3033  0.4403  0.2213
   22GLOH   H04 8481   1.160   3.172  -0.289 -1.6590 -0.4934  0.1330
   22GLOH    O2 8482   1.021   3.181  -0.129  0.2892 -0.1954  0.2087
   22GLOH   H05 8483   1.024   3.221  -0.041 -4.7399 -1.9496  1.3514
   22GLOH    C3 8484   1.081   3.367  -0.259  0.1693  0.4652  0.3111
   22GLOH   H06 8485   1.046   3.424  -0.173 -3.2455 -2.0092  0.6419
   22GLOH   H07 8486   0.991   3.350  -0.319 -0.4149 -0.1503  1.3528
   22GLOH    O3 8487   1.183   3.438  -0.330  0.1009 -0.3752  0.3823
   22GLOH   H01 8488   1.140   3.478  -0.407  1.2911  1.1782  0.4818
   23GLOH   H03 8489   8.295   3.864   2.006  0.8800  0.8189  1.4580
   23GLOH    O1 8490   8.332   3.796   2.066 -0.0544 -0.6857  0.3745
   23GLOH    C1 8491   8.322   3.851   2.198 -0.0505 -0.2313  0.6908
   23GLOH   H02 8492   8.223   3.889   2.222  0.2327  0.5698  0.6254
   23GLOH   H08 8493   8.397   3.930   2.207 -0.9709  0.9285 -1.4064
   23GLOH    C2 8494   8.358   3.741   2.299 -0.7609  0.3337 -1.0089
   23GLOH   H04 8495   8.466   3.738   2.279 -0.1619  0.2840  1.9502
   23GLOH    O2 8496   8.342   3.779   2.438 -0.1178  0.3339  0.6550
   23GLOH   H05 8497   8.319   3.873   2.449 -0.6737  0.3875 -0.8690
   23GLOH    C3 8498   8.285   3.610   2.269 -1.4010 -0.4194  0.2050
   23GLOH   H06 8499   8.179   3.622   2.295 -1.6093  1.7977 -1.5307
   23GLOH   H07 8500   8.318   3.536   2.342 -1.4658  1.4813  2.2106
   23GLOH    O3 8501   8.308   3.562   2.138  0.0073 -0.3242  0.6283
   23GLOH   H01 8502   8.334   3.643   2.091  1.7177 -1.6878 -0.8488
   24GLOH   H03 8503   2.607   0.573   0.501 -0.4493  1.0024  0.4104
   24GLOH    O1 8504   2.518   0.588   0.538 -0.6412  0.6848  0.0832
   24GLOH    C1 8505   2.510   0.711   0.604 -0.0081  0.0771  0.0028
   24GLOH   H02 8506   2.411   0.727   0.646  0.0223 -0.3053  0.2144
   24GLOH   H08 8507   2.524   0.791   0.530  2.9938  1.2370  1.7663
   24GLOH    C2 8508   2.618   0.722   0.714 -0.1844 -0.4306 -0.4657
   24GLOH   H04 8509   2.600   0.647   0.792  0.0601  0.0450  0.0530
   24GLOH    O2 8510   2.750   0.730   0.654 -0.1561 -0.0824  0.4232
   24GLOH   H05 8511   2.748   0.794   0.581 -1.4878 -0.7544 -0.1343
   24GLOH    C3 8512   2.610   0.854   0.784  0.0105  0.5377  0.0710
   24GLOH   H06 8513   2.609   0.928   0.703 -1.8996 -1.0990 -1.4477
   24GLOH   H07 8514   2.694   0.869   0.852 -0.5873  0.9535  0.7193
   24GLOH    O3 8515   2.485   0.867   0.856 -0.0688  0.1718  0.6960
   24GLOH   H01 8516   2.501   0.806   0.930  2.3948  1.0377  0.9017
   25GLOH   H03 8517   2.766   2.178   0.824  1.7755  3.0061 -1.0113
   25GLOH    O1 8518   2.818   2.131   0.756  0.1406  0.1617 -0.3784
   25GLOH    C1 8519   2.723   2.040   0.690  0.3833  0.2439 -0.6408
   25GLOH   H02 8520   2.739   2.046   0.583  0.5276  0.2630 -0.6193
   25GLOH   H08 8521   2.620   2.071   0.707  0.3946 -0.0329 -0.0475
   25GLOH    C2 8522   2.744   1.892   0.733  0.7814 -0.0772 -0.2718
   25GLOH   H04 8523   2.675   1.825   0.680  1.3071  0.2267 -1.3483
   25GLOH    O2 8524   2.877   1.844   0.715 -0.4908 -0.1477  0.5704
   25GLOH   H05 8525   2.930   1.859   0.794  1.9024 -2.3529 -0.5465
   25GLOH    C3 8526   2.704   1.888   0.884  0.2484 -0.0845 -0.3010
   25GLOH   H06 8527   2.785   1.917   0.951 -1.4557  2.9703  0.5365
   25GLOH   H07 8528   2.691   1.782   0.901  3.6820 -0.9198 -2.3576
   25GLOH    O3 8529   2.579   1.952   0.910 -0.1303 -0.2469  0.0036
   25GLOH   H01 8530   2.604   2.044   0.933 -1.8284  0.1897  0.1849
   26GLOH   H03 8531   0.599   7.780   1.107  0.5318  0.7385  0.7080
   26GLOH    O1 8532   0.612   7.777   1.010  0.4939  0.3156  0.7168
   26GLOH    C1 8533   0.483   7.785   0.955  0.4461  0.1824  0.3607
   26GLOH   H02 8534   0.447   7.888   0.958  1.6907  0.6412 -0.2851
   26GLOH   H08 8535   0.418   7.723   1.016  0.3536 -1.6726 -1.5695
   26GLOH    C2 8536   0.463   7.735   0.812  0.4862 -0.6372 -0.0592
   26GLOH   H04 8537   0.526   7.648   0.793  0.0564 -1.5614  2.5060
   26GLOH    O2 8538   0.327   7.711   0.767 -0.0184 -0.2479 -0.4072
   26GLOH   H05 8539   0.324   7.707   0.670 -1.6560 -0.2556 -0.3722
   26GLOH    C3 8540   0.526   7.840   0.718 -0.2598 -0.0421 -0.2448
   26GLOH   H06 8541   0.486   7.940   0.732 -1.2284 -0.3115 -1.0358
   26GLOH   H07 8542   0.493   7.819   0.617  1.5538  1.0448 -1.0760
   26GLOH    O3 8543   0.674   7.833   0.715  0.4449 -0.0376  0.1643
   26GLOH   H01 8544   0.701   7.820   0.807 -1.2560  1.9829  0.9935
   27GLOH   H03 8545   9.413   0.049   0.964  1.6295 -2.7546  2.7025
   27GLOH    O1 8546   9.399  -0.023   0.899  0.0299 -0.2285  0.1506
   27GLOH    C1 8547   9.360  -0.136   0.967  0.2070 -0.9007  0.1353
   27GLOH   H02 8548   9.350  -0.219   0.897 -0.2850 -2.5314  2.1044
   27GLOH   H08 8549   9.262  -0.112   1.010  0.6380  0.8845  0.1649
   27GLOH    C2 8550   9.458  -0.169   1.085 -0.3590 -0.2584 -0.1993
   27GLOH   H04 8551   9.554  -0.128   1.050 -0.0140 -1.5032 -0.7317
   27GLOH    O2 8552   9.418  -0.080   1.196  0.5318  0.3090 -0.4874
   27GLOH   H05 8553   9.392   0.006   1.158 -0.4700  1.0317  1.7453
   27GLOH    C3 8554   9.468  -0.320   1.125  0.8379 -0.6801 -0.1141
   27GLOH   H06 8555   9.369  -0.362   1.112  1.3327 -0.8361 -3.8170
   27GLOH   H07 8556   9.487  -0.336   1.232  0.7403  1.2871  0.2218
   27GLOH    O3 8557   9.558  -0.400   1.043 -0.2485 -0.4146  0.0570
   27GLOH   H01 8558   9.651  -0.373   1.051 -0.6072  0.6272  0.9785
   28GLOH   H03 8559   8.860   3.533   1.915 -1.5216 -2.3945 -1.3418
   28GLOH    O1 8560   8.803   3.589   1.860  0.2453  0.6583 -0.1463
   28GLOH    C1 8561   8.870   3.606   1.742  0.7123  0.0440 -0.0519
   28GLOH   H02 8562   8.974   3.575   1.753  1.2517  0.9495 -2.3205
   28GLOH   H08 8563   8.881   3.709   1.710  1.5824  0.3188  1.1068
   28GLOH    C2 8564   8.813   3.514   1.632 -1.2687  0.3104 -0.5199
   28GLOH   H04 8565   8.888   3.493   1.555 -2.1845 -0.3090 -1.2536
   28GLOH    O2 8566   8.760   3.391   1.686 -0.2136 -0.6373 -0.0356
   28GLOH   H05 8567   8.814   3.376   1.766  1.2612 -0.0259 -0.8879
   28GLOH    C3 8568   8.698   3.588   1.570 -0.4186 -0.6966 -0.0658
   28GLOH   H06 8569   8.642   3.617   1.659  2.2215  0.2861  1.3194
   28GLOH   H07 8570   8.637   3.517   1.514 -0.7519 -1.7226  1.5484
   28GLOH    O3 8571   8.743   3.696   1.483  0.4137  0.4750 -0.3899
   28GLOH   H01 8572   8.800   3.659   1.412 -0.5450 -2.4135  0.2536
   29GLOH   H03 8573   3.012   3.699   1.718 -1.1161 -1.1667 -0.3240
   29GLOH    O1 8574   2.944   3.746   1.665 -0.4518 -0.6218 -0.7017
   29GLOH    C1 8575   2.850   3.646   1.619  0.5051  0.1713 -0.3167
   29GLOH   H02 8576   2.818   3.593   1.708 -2.0174 -0.2907 -1.4540
   29GLOH   H08 8577   2.900   3.571   1.556  1.7262  0.3689  0.4068
   29GLOH    C2 8578   2.729   3.700   1.548 -0.0708 -0.0271 -0.4319
   29GLOH   H04 8579   2.767   3.758   1.463  1.2356  0.3533  0.3818
   29GLOH    O2 8580   2.647   3.590   1.510  0.2734  0.2216  0.2225
   29GLOH   H05 8581   2.565   3.627   1.473  0.4731  0.3688 -0.0819
   29GLOH    C3 8582   2.658   3.794   1.651  0.2392  0.0764  0.8298
   29GLOH   H06 8583   2.621   3.738   1.737  0.0981  1.6287  1.8092
   29GLOH   H07 8584   2.574   3.839   1.598 -0.2073  0.1267  1.5756
   29GLOH    O3 8585   2.739   3.901   1.698  0.0470 -0.3702 -0.4924
   29GLOH   H01 8586   2.824   3.855   1.713 -0.1411 -0.2914  0.8395
   30GLOH   H03 8587   4.692   0.321   1.847  1.5993 -0.3498 -1.0333
   30GLOH    O1 8588   4.676   0.230   1.878  0.5485  0.1914  0.0330
   30GLOH    C1 8589   4.763   0.201   1.993 -0.9017  0.5085  0.2772
   30GLOH   H02 8590   4.730   0.106   2.034  0.9311 -0.5400 -0.6003
   30GLOH   H08 8591   4.758   0.271   2.077  0.1383 -0.2114  0.9433
   30GLOH    C2 8592   4.904   0.187   1.937 -0.0827  0.6068 -0.3359
   30GLOH   H04 8593   4.933   0.286   1.898  3.6727 -0.9111 -1.6336
   30GLOH    O2 8594   5.000   0.156   2.034 -0.4610 -0.0987 -0.1164
   30GLOH   H05 8595   4.962   0.073   2.068 -1.3325  0.7575  1.0293
   30GLOH    C3 8596   4.909   0.090   1.814 -0.1129  0.5265  0.7558
   30GLOH   H06 8597   5.003   0.107   1.762 -1.4732 -1.8994 -2.6569
   30GLOH   H07 8598   4.826   0.118   1.748 -0.7546 -1.3320  0.7365
   30GLOH    O3 8599   4.896  -0.045   1.851 -0.2130  0.6759  0.0720
   30GLOH   H01 8600   4.917  -0.065   1.944  1.3776 -0.1912 -0.4449
   31GLOH   H03 8601   3.208   6.038   0.647  1.0425 -1.2705  1.0583
   31GLOH    O1 8602   3.192   5.990   0.564  0.0026 -0.1656  0.6057
   31GLOH    C1 8603   3.058   5.938   0.531 -0.8042  1.3356 -0.3710
   31GLOH   H02 8604   3.004   6.020   0.484 -1.8513  0.2365 -1.1308
   31GLOH   H08 8605   3.004   5.907   0.620 -0.8337  2.2200 -0.0781
   31GLOH    C2 8606   3.063   5.812   0.433  0.0362  0.5490  0.2016
   31GLOH   H04 8607   3.124   5.734   0.480 -0.0847 -1.3701 -2.7053
   31GLOH    O2 8608   2.931   5.757   0.431 -0.7138 -0.6667  0.2775
   31GLOH   H05 8609   2.934   5.668   0.393  0.0081 -0.4718 -0.1379
   31GLOH    C3 8610   3.129   5.841   0.299  0.2584  0.6272  0.2357
   31GLOH   H06 8611   3.074   5.913   0.239 -1.8099 -1.0413  0.0751
   31GLOH   H07 8612   3.138   5.753   0.237 -0.4033  1.1634 -0.6402
   31GLOH    O3 8613   3.259   5.889   0.330  0.0674 -0.3549  0.0850
   31GLOH   H01 8614   3.238   5.927   0.417  0.7199  1.2739 -0.4499
   32GLOH   H03 8615   1.667   1.007   1.221  1.2012 -0.3404 -0.3027
   32GLOH    O1 8616   1.684   1.084   1.163  0.0466  0.1128 -0.0632
   32GLOH    C1 8617   1.823   1.088   1.111  0.1972 -0.3688 -0.9060
   32GLOH   H02 8618   1.828   1.108   1.004  0.4667 -1.3905 -1.0864
   32GLOH   H08 8619   1.869   0.989   1.114  0.7738 -0.1266 -1.4119
   32GLOH    C2 8620   1.902   1.189   1.189 -0.4856  0.2775  0.0890
   32GLOH   H04 8621   1.839   1.276   1.212 -0.4930  0.5511 -0.9358
   32GLOH    O2 8622   1.942   1.131   1.313  0.0811 -0.3308  0.0831
   32GLOH   H05 8623   1.985   1.046   1.295  0.8709 -0.1721  1.1343
   32GLOH    C3 8624   2.021   1.239   1.108  0.6669 -0.6853  0.1408
   32GLOH   H06 8625   2.086   1.155   1.085  1.9328  0.4956 -0.6860
   32GLOH   H07 8626   2.078   1.309   1.170 -0.3542  0.9941 -0.7784
   32GLOH    O3 8627   1.970   1.307   0.993 -0.2264  0.1954 -0.5919
   32GLOH   H01 8628   2.009   1.256   0.919  0.1515 -0.0496 -0.2226
   33GLOH   H03 8629   1.889   4.278   1.496  1.4000 -2.1870 -0.7152
   33GLOH    O1 8630   1.815   4.219   1.518 -0.4684  0.2799 -0.0633
   33GLOH    C1 8631   1.799   4.123   1.419 -0.4053  0.3506 -0.2953
   33GLOH   H02 8632   1.738   4.037   1.445 -1.1597  1.1050  0.4786
   33GLOH   H08 8633   1.896   4.089   1.383 -0.7339  0.2404 -1.0854
   33GLOH    C2 8634   1.726   4.178   1.294  0.2277  0.0537  0.1174
   33GLOH   H04 8635   1.723   4.094   1.223  0.7337 -2.5500  3.0595
   33GLOH    O2 8636   1.585   4.217   1.322 -0.7548  0.0128  0.0409
   33GLOH   H05 8637   1.551   4.173   1.402  1.0224 -0.0770  0.7647
   33GLOH    C3 8638   1.805   4.296   1.231 -0.1016 -0.0077  0.3291
   33GLOH   H06 8639   1.826   4.372   1.306 -1.3830 -0.2972  0.9883
   33GLOH   H07 8640   1.739   4.354   1.168 -0.3639 -0.4760  0.1669
   33GLOH    O3 8641   1.923   4.254   1.161 -0.5946 -0.1951  0.1838
   33GLOH   H01 8642   1.973   4.337   1.151 -0.0916 -0.6067 -0.7352
   34GLOH   H03 8643   4.332   1.329   1.366  0.5127 -0.3308  0.0243
   34GLOH    O1 8644   4.416   1.357   1.406  0.4883  0.7610 -0.6653
   34GLOH    C1 8645   4.481   1.247   1.465  0.6971 -0.3697  0.1626
   34GLOH   H02 8646   4.453   1.160   1.404  1.2829  0.7783 -1.7806
   34GLOH   H08 8647   4.440   1.223   1.564  1.5597 -1.1055  0.3477
   34GLOH    C2 8648   4.638   1.260   1.463 -0.3465 -1.2937 -0.1867
   34GLOH   H04 8649   4.666   1.357   1.506 -1.5903 -2.1052  2.5765
   34GLOH    O2 8650   4.705   1.155   1.537 -0.0613 -0.9251 -0.2904
   34GLOH   H05 8651   4.687   1.167   1.631  1.5824  1.1160 -0.1940
   34GLOH    C3 8652   4.682   1.270   1.322 -0.4744 -0.0344  0.5401
   34GLOH   H06 8653   4.633   1.194   1.260  0.3496 -1.6361  1.8123
   34GLOH   H07 8654   4.790   1.271   1.312 -0.6485  2.6284 -1.3826
   34GLOH    O3 8655   4.640   1.395   1.268 -0.5162  0.0385 -0.2686
   34GLOH   H01 8656   4.556   1.417   1.312 -0.4079  1.6043 -0.8169
   35GLOH   H03 8657   9.389   0.716   0.536 -1.1345 -0.3169 -0.8533
   35GLOH    O1 8658   9.453   0.685   0.470 -0.0461  0.4719 -0.1936
   35GLOH    C1 8659   9.580   0.696   0.531  0.1098  0.1344 -0.4796
   35GLOH   H02 8660   9.653   0.661   0.459  0.0382  2.3517 -1.6993
   35GLOH   H08 8661   9.584   0.639   0.624 -0.9607  0.2872 -0.3319
   35GLOH    C2 8662   9.615   0.842   0.575  0.0288 -0.8504 -0.3714
   35GLOH   H04 8663   9.546   0.875   0.654  0.3849 -2.1673  0.4874
   35GLOH    O2 8664   9.750   0.857   0.623 -0.2015  0.1766  0.4499
   35GLOH   H05 8665   9.751   0.892   0.714  0.2440 -0.4337  0.6865
   35GLOH    C3 8666   9.572   0.954   0.476 -0.1354  0.2609  0.2588
   35GLOH   H06 8667   9.465   0.937   0.465  0.1276 -1.0792 -0.4134
   35GLOH   H07 8668   9.618   0.945   0.377  1.0268 -3.8017  1.0633
   35GLOH    O3 8669   9.595   1.082   0.533 -0.1798 -0.3036  0.1836
   35GLOH   H01 8670   9.692   1.092   0.532 -0.2938  1.1241  1.7258
   36GLOH   H03 8671   0.464   0.138   1.933  1.2248  0.7980 -1.6876
   36GLOH    O1 8672   0.505   0.053   1.908 -0.5611 -0.7004  0.3575
   36GLOH    C1 8673   0.627   0.043   1.978  0.2380  0.8770 -0.2426
   36GLOH   H02 8674   0.624  -0.039   2.050  3.0268 -0.8010 -1.9588
   36GLOH   H08 8675   0.651   0.134   2.033 -0.0589  0.2310  0.9796
   36GLOH    C2 8676   0.743   0.007   1.876  0.3391 -0.0293  0.4982
   36GLOH   H04 8677   0.839  -0.005   1.929  0.7141  3.0992  0.6499
   36GLOH    O2 8678   0.712  -0.118   1.803  0.2970  0.3212 -0.0292
   36GLOH   H05 8679   0.779  -0.142   1.737 -2.1372 -4.0759 -1.1463
   36GLOH    C3 8680   0.774   0.113   1.768 -0.1757  0.3224 -0.6683
   36GLOH   H06 8681   0.690   0.183   1.776  0.1463  0.4252  2.5031
   36GLOH   H07 8682   0.779   0.069   1.669  1.1052  0.0152 -0.4708
   36GLOH    O3 8683   0.892   0.196   1.785 -0.4036 -0.6589  0.2722
   36GLOH   H01 8684   0.886   0.246   1.868 -0.4625  0.5181 -0.4377
   37GLOH   H03 8685   4.865   7.695   2.815  0.0949 -0.7826 -3.0601
   37GLOH    O1 8686   4.824   7.784   2.812  0.7798 -0.2619  0.4415
   37GLOH    C1 8687   4.700   7.772   2.736 -0.4007  0.3197 -0.0509
   37GLOH   H02 8688   4.638   7.689   2.767  0.1822 -0.8969 -2.0808
   37GLOH   H08 8689   4.715   7.762   2.629  1.5993 -0.3001  0.2763
   37GLOH    C2 8690   4.606   7.897   2.742 -0.0517  0.9441  0.5977
   37GLOH   H04 8691   4.676   7.975   2.709  0.4182 -0.0200 -0.7488
   37GLOH    O2 8692   4.485   7.889   2.654  0.9338 -0.6197 -0.4666
   37GLOH   H05 8693   4.426   7.963   2.675 -0.1929 -1.7480  0.4320
   37GLOH    C3 8694   4.557   7.922   2.882 -0.2813 -0.6614 -0.1865
   37GLOH   H06 8695   4.514   7.827   2.913  2.8295 -2.8939 -2.3688
   37GLOH   H07 8696   4.483   8.002   2.885 -1.4931 -1.7699 -0.0253
   37GLOH    O3 8697   4.670   7.955   2.975 -0.7064  0.2599  0.0008
   37GLOH   H01 8698   4.752   7.929   2.929  0.0064  1.7654  0.3961
   38GLOH   H03 8699   8.104   4.462   2.801  1.5744 -3.0710 -2.5701
   38GLOH    O1 8700   8.099   4.401   2.877 -0.2240  0.0105 -0.1088
   38GLOH    C1 8701   8.068   4.273   2.814 -0.1178 -0.3506  0.0101
   38GLOH   H02 8702   7.966   4.273   2.774  0.2268  0.3853 -0.8848
   38GLOH   H08 8703   8.075   4.192   2.887  0.8288  0.2417  0.5806
   38GLOH    C2 8704   8.152   4.248   2.689 -0.4590 -0.1636  0.5599
   38GLOH   H04 8705   8.260   4.250   2.711 -0.0376 -1.2154 -1.2986
   38GLOH    O2 8706   8.114   4.124   2.630  0.2396 -0.4338  0.7896
   38GLOH   H05 8707   8.088   4.062   2.700 -2.1726  1.4969  1.7051
   38GLOH    C3 8708   8.139   4.356   2.587  0.7718 -0.1260  0.2816
   38GLOH   H06 8709   8.037   4.381   2.560  1.4242  1.1531 -1.0711
   38GLOH   H07 8710   8.186   4.327   2.493  1.3595 -0.2013  0.5969
   38GLOH    O3 8711   8.204   4.472   2.637  0.2855  1.0808  0.3510
   38GLOH   H01 8712   8.294   4.445   2.663 -0.6792  0.0614  2.7150
   39GLOH   H03 8713   1.531   7.085   1.772  0.4863 -0.2402  0.2611
   39GLOH    O1 8714   1.454   7.041   1.731  0.1592 -0.2452  0.8774
   39GLOH    C1 8715   1.481   6.986   1.598  0.0478  0.1528 -0.3187
   39GLOH   H02 8716   1.563   6.914   1.598 -1.3365 -1.4486  0.2673
   39GLOH   H08 8717   1.501   7.062   1.523  0.2644  0.8996  0.4785
   39GLOH    C2 8718   1.359   6.899   1.550 -0.2312 -0.2677 -0.1893
   39GLOH   H04 8719   1.272   6.965   1.541  0.3928  0.3680 -1.7129
   39GLOH    O2 8720   1.383   6.840   1.422  0.4249  0.0683  0.2221
   39GLOH   H05 8721   1.476   6.812   1.428 -0.1609 -2.3031 -1.0365
   39GLOH    C3 8722   1.348   6.786   1.657  0.9599 -0.6111 -0.7289
   39GLOH   H06 8723   1.444   6.735   1.667  1.8007  0.8900 -0.9970
   39GLOH   H07 8724   1.270   6.718   1.624  1.8845 -1.6489 -0.8209
   39GLOH    O3 8725   1.314   6.852   1.785 -0.0813  0.3731  0.3344
   39GLOH   H01 8726   1.362   6.936   1.786  2.5079 -0.9672 -1.6926
   40GLOH   H03 8727   2.541   9.032   0.480  0.5725 -1.2605  0.1236
   40GLOH    O1 8728   2.573   9.060   0.567 -0.4390  0.2401  0.0381
   40GLOH    C1 8729   2.628   8.953   0.635 -0.0475 -0.0629  0.1065
   40GLOH   H02 8730   2.735   8.951   0.617 -0.2443  0.0688 -1.0851
   40GLOH   H08 8731   2.591   8.862   0.587  0.4195 -0.3008  0.1993
   40GLOH    C2 8732   2.604   8.956   0.787  0.0319 -0.3847 -0.2924
   40GLOH   H04 8733   2.609   8.856   0.831 -2.4604 -0.2466  0.3742
   40GLOH    O2 8734   2.692   9.049   0.855  0.3575 -0.2399  0.0367
   40GLOH   H05 8735   2.783   9.037   0.823  0.1471  0.2906 -0.7877
   40GLOH    C3 8736   2.467   9.015   0.818 -0.0110 -0.2490  0.7859
   40GLOH   H06 8737   2.458   9.117   0.780  0.3580 -0.1695  0.9001
   40GLOH   H07 8738   2.461   9.021   0.927  2.4459  1.4034  0.8801
   40GLOH    O3 8739   2.357   8.930   0.776  0.2875 -0.2673  0.2163
   40GLOH   H01 8740   2.272   8.978   0.777  0.7036  0.4514  1.9248
   41GLOH   H03 8741   4.316   7.845   0.005  2.5333 -2.0152  1.4789
   41GLOH    O1 8742   4.356   7.909   0.066  0.9830  0.0319  0.3760
   41GLOH    C1 8743   4.482   7.939   0.009 -0.4921 -0.2853  0.6338
   41GLOH   H02 8744   4.532   7.844  -0.009  0.5277  0.0969  1.4760
   41GLOH   H08 8745   4.545   7.986   0.084  1.0907 -2.4619  0.7232
   41GLOH    C2 8746   4.471   8.030  -0.113  0.1705  0.9455 -1.0442
   41GLOH   H04 8747   4.438   7.963  -0.193  0.1873 -1.1954  0.7001
   41GLOH    O2 8748   4.376   8.136  -0.089 -0.4950  0.0922  0.6346
   41GLOH   H05 8749   4.309   8.110  -0.023  0.0809 -0.1449  1.1356
   41GLOH    C3 8750   4.602   8.090  -0.156  0.5170  0.0609  0.4028
   41GLOH   H06 8751   4.648   8.148  -0.076 -1.9295  2.2456  0.2943
   41GLOH   H07 8752   4.571   8.164  -0.230 -1.4793 -1.3906 -0.2462
   41GLOH    O3 8753   4.678   7.981  -0.204  0.1886 -0.0559 -0.1215
   41GLOH   H01 8754   4.659   7.972  -0.299 -0.7942 -0.6656  0.1333
   42GLOH   H03 8755   3.368   3.811   0.215 -0.1282 -0.1050 -0.7554
   42GLOH    O1 8756   3.335   3.883   0.271  0.1518 -0.4129 -0.1945
   42GLOH    C1 8757   3.200   3.901   0.234  0.4504  0.6966 -0.5453
   42GLOH   H02 8758   3.164   3.864   0.138 -0.5798 -2.6636  1.0635
   42GLOH   H08 8759   3.170   4.006   0.236 -0.5178  0.4039  1.5707
   42GLOH    C2 8760   3.109   3.851   0.346  0.5042  0.0134 -0.8927
   42GLOH   H04 8761   3.134   3.896   0.443  2.4538 -0.9451 -0.9471
   42GLOH    O2 8762   2.971   3.871   0.312 -0.3863  0.1128 -0.2315
   42GLOH   H05 8763   2.938   3.961   0.332 -0.7868 -0.1959  0.5073
   42GLOH    C3 8764   3.128   3.701   0.369 -0.0474  0.3127  0.2138
   42GLOH   H06 8765   3.046   3.666   0.433 -0.9606  2.2821  0.1467
   42GLOH   H07 8766   3.227   3.697   0.413  0.9711  1.4344 -1.9134
   42GLOH    O3 8767   3.127   3.625   0.254 -0.1680 -0.0685  0.2297
   42GLOH   H01 8768   3.185   3.548   0.268 -0.6244 -0.2442  1.2361
   43GLOH   H03 8769   3.501   9.686   3.036 -0.1697 -1.1191 -2.2389
   43GLOH    O1 8770   3.597   9.675   3.045 -0.1357  0.4322 -0.2553
   43GLOH    C1 8771   3.631   9.539   3.058 -1.0590 -0.1909  0.5812
   43GLOH   H02 8772   3.738   9.519   3.062 -1.3838 -2.3871 -0.8123
   43GLOH   H08 8773   3.598   9.474   2.977  1.3165 -1.4642  0.6130
   43GLOH    C2 8774   3.592   9.478   3.192 -0.2541  0.0429  0.3336
   43GLOH   H04 8775   3.656   9.523   3.269 -0.3761 -0.4091  0.7016
   43GLOH    O2 8776   3.452   9.508   3.220  0.1740  0.4555 -0.0731
   43GLOH   H05 8777   3.431   9.490   3.313 -1.1528  0.3896 -0.3809
   43GLOH    C3 8778   3.624   9.326   3.195  0.2698 -0.1198  0.4732
   43GLOH   H06 8779   3.563   9.266   3.127 -0.3663 -0.5688  1.4081
   43GLOH   H07 8780   3.597   9.297   3.297  4.0010  1.3394  1.9591
   43GLOH    O3 8781   3.757   9.305   3.164 -0.1956 -1.0464  0.4145
   43GLOH   H01 8782   3.758   9.223   3.112  2.1314  2.0505 -4.8481
   44GLOH   H03 8783   4.357   3.014   1.790  0.7864  1.0282 -0.7941
   44GLOH    O1 8784   4.359   3.087   1.855 -0.1959  0.4903 -0.1403
   44GLOH    C1 8785   4.285   3.199   1.799 -0.4184  0.5483  1.2809
   44GLOH   H02 8786   4.213   3.228   1.875 -0.2962  1.2292  1.1393
   44GLOH   H08 8787   4.241   3.168   1.704  0.9200  2.9728 -0.1798
   44GLOH    C2 8788   4.374   3.326   1.787  0.3675 -0.3854  0.9321
   44GLOH   H04 8789   4.460   3.302   1.722  0.9035  0.4116  1.3464
   44GLOH    O2 8790   4.303   3.434   1.723 -0.0252 -0.1892  0.8280
   44GLOH   H05 8791   4.271   3.405   1.636 -1.3933  2.4278  0.4072
   44GLOH    C3 8792   4.430   3.371   1.919 -1.2157 -0.0084 -0.4676
   44GLOH   H06 8793   4.350   3.408   1.984 -1.2343 -0.3613 -0.2906
   44GLOH   H07 8794   4.488   3.463   1.909  0.3301 -0.8579  0.4733
   44GLOH    O3 8795   4.510   3.269   1.984 -0.3196 -0.3285 -0.7471
   44GLOH   H01 8796   4.446   3.198   2.005 -0.6190  0.7021  2.0918
   45GLOH   H03 8797   1.498   3.820   1.358  0.2647  1.9845 -0.2364
   45GLOH    O1 8798   1.451   3.844   1.440  0.1634 -0.3260  0.4197
   45GLOH    C1 8799   1.380   3.726   1.478 -0.3563 -0.4819 -0.3318
   45GLOH   H02 8800   1.436   3.636   1.455 -1.1187 -0.8293 -0.8696
   45GLOH   H08 8801   1.291   3.720   1.415 -0.6273 -0.8078  0.0773
   45GLOH    C2 8802   1.339   3.736   1.630 -0.0393 -0.7570 -0.5019
   45GLOH   H04 8803   1.294   3.836   1.639  1.3119  0.1955 -3.6107
   45GLOH    O2 8804   1.247   3.631   1.665  0.3229 -0.9138  0.1159
   45GLOH   H05 8805   1.169   3.683   1.692  1.6956  1.0059  0.4822
   45GLOH    C3 8806   1.465   3.742   1.721 -0.3244 -0.2654 -0.2010
   45GLOH   H06 8807   1.519   3.647   1.725 -1.9073 -1.2163 -1.1512
   45GLOH   H07 8808   1.426   3.756   1.822  1.6326 -1.5816  0.7801
   45GLOH    O3 8809   1.551   3.849   1.677  0.8393 -0.2857  0.4036
   45GLOH   H01 8810   1.524   3.869   1.586 -1.3118 -0.0053  1.0891
   46GLOH   H03 8811   3.286   8.320   0.519 -1.0055 -0.9636  1.0607
   46GLOH    O1 8812   3.229   8.389   0.480  0.5578 -0.2620 -0.0348
   46GLOH    C1 8813   3.247   8.370   0.341 -0.4657  0.5068  0.5919
   46GLOH   H02 8814   3.305   8.279   0.322  1.4003  1.4343  1.7548
   46GLOH   H08 8815   3.302   8.456   0.303 -0.6619  0.0551 -0.7672
   46GLOH    C2 8816   3.114   8.354   0.267  0.3490  0.4093  0.0855
   46GLOH   H04 8817   3.040   8.433   0.287  0.2568  0.7444 -1.5020
   46GLOH    O2 8818   3.144   8.342   0.127 -0.5619 -0.0843  0.6317
   46GLOH   H05 8819   3.116   8.423   0.080 -0.3821 -0.7062 -0.5810
   46GLOH    C3 8820   3.048   8.218   0.315  0.0954  0.4607 -0.4860
   46GLOH   H06 8821   3.049   8.217   0.424  1.2308 -0.3138 -0.5001
   46GLOH   H07 8822   3.115   8.135   0.296  0.1005 -0.4909  3.3545
   46GLOH    O3 8823   2.916   8.196   0.259 -0.4288 -0.6269  0.0497
   46GLOH   H01 8824   2.942   8.162   0.171 -1.1390  2.3238 -1.3828
   47GLOH   H03 8825   3.674   3.947   0.661 -1.7490  0.6632 -0.9248
   47GLOH    O1 8826   3.741   3.947   0.590  0.0044  0.7894  0.6892
   47GLOH    C1 8827   3.685   4.021   0.480  0.3363  0.7740 -0.1309
   47GLOH   H02 8828   3.591   3.974   0.450  0.6740  0.3842 -0.5922
   47GLOH   H08 8829   3.755   4.020   0.397 -0.5287  1.0436 -0.8705
   47GLOH    C2 8830   3.652   4.165   0.521  0.0528  0.0188 -0.1018
   47GLOH   H04 8831   3.637   4.219   0.426  1.8161 -1.4062 -1.2379
   47GLOH    O2 8832   3.545   4.169   0.616 -0.2260  0.1090 -0.4509
   47GLOH   H05 8833   3.493   4.089   0.603 -1.3935  1.0751 -1.8733
   47GLOH    C3 8834   3.770   4.238   0.587 -0.5796 -0.0164 -0.7120
   47GLOH   H06 8835   3.791   4.193   0.684 -0.7244 -0.5143 -0.9057
   47GLOH   H07 8836   3.738   4.342   0.590 -0.5329  0.0091 -1.1141
   47GLOH    O3 8837   3.888   4.238   0.507  0.1896 -0.0578  0.1388
   47GLOH   H01 8838   3.868   4.211   0.416  1.7767 -1.6676  0.2495
   48GLOH   H03 8839   2.852   7.196   2.189  1.9389 -0.9872 -2.4116
   48GLOH    O1 8840   2.800   7.119   2.160  0.4887 -0.8182 -0.2849
   48GLOH    C1 8841   2.684   7.159   2.072 -0.5775 -0.0933 -0.1052
   48GLOH   H02 8842   2.617   7.222   2.131  1.1496  1.1851  0.5132
   48GLOH   H08 8843   2.632   7.080   2.017 -1.4048 -0.0356  0.5744
   48GLOH    C2 8844   2.736   7.256   1.966 -0.5856 -0.3334 -0.5050
   48GLOH   H04 8845   2.826   7.211   1.922 -0.4966  0.2361 -0.9056
   48GLOH    O2 8846   2.641   7.293   1.866  0.3758  0.6861  0.4514
   48GLOH   H05 8847   2.679   7.282   1.777 -1.9191  1.0232 -0.6244
   48GLOH    C3 8848   2.780   7.386   2.036  0.1135  0.2474  0.2872
   48GLOH   H06 8849   2.696   7.426   2.092  0.5510  2.3049 -0.4898
   48GLOH   H07 8850   2.806   7.461   1.962 -0.2801 -2.3301 -2.6003
   48GLOH    O3 8851   2.891   7.359   2.125  0.6871  0.2465 -0.2575
   48GLOH   H01 8852   2.962   7.424   2.117  2.4895 -1.3233  2.2617
   49GLOH   H03 8853   3.144   5.370   1.411 -2.0039 -0.9148 -1.2926
   49GLOH    O1 8854   3.141   5.455   1.362  0.1958 -0.1330 -0.1219
   49GLOH    C1 8855   3.085   5.416   1.235 -1.1372 -0.4882 -0.3274
   49GLOH   H02 8856   3.040   5.317   1.240 -0.2072 -0.9687 -1.2550
   49GLOH   H08 8857   3.163   5.407   1.159 -0.5882 -1.7171  0.3694
   49GLOH    C2 8858   2.972   5.514   1.184  0.4578 -0.3120 -0.5684
   49GLOH   H04 8859   3.015   5.604   1.137 -0.8237 -0.1926 -1.5313
   49GLOH    O2 8860   2.890   5.444   1.088  0.3002  0.0389  0.3149
   49GLOH   H05 8861   2.937   5.426   1.005  0.4897  0.8433  0.2381
   49GLOH    C3 8862   2.883   5.562   1.308 -0.1398  0.0872 -0.6877
   49GLOH   H06 8863   2.872   5.475   1.373  1.6142  0.3330 -0.0472
   49GLOH   H07 8864   2.778   5.584   1.287 -1.7833 -1.9367  4.5139
   49GLOH    O3 8865   2.954   5.662   1.385  0.3214 -0.1894  0.7387
   49GLOH   H01 8866   3.038   5.618   1.407 -0.5348 -1.8290  0.7961
   50GLOH   H03 8867   0.991   3.410   1.974  0.4827 -0.0372 -0.6485
   50GLOH    O1 8868   1.028   3.500   1.969 -0.2364  0.3033  0.2301
   50GLOH    C1 8869   1.002   3.548   1.836 -0.3009  0.5527  0.4507
   50GLOH   H02 8870   0.908   3.509   1.796  0.2645  0.1210 -0.4706
   50GLOH   H08 8871   1.076   3.500   1.771 -1.1842  1.6333 -1.3671
   50GLOH    C2 8872   1.014   3.700   1.831  0.4635 -0.0963  0.1423
   50GLOH   H04 8873   1.110   3.718   1.882  1.5537 -0.8171 -1.5780
   50GLOH    O2 8874   1.004   3.738   1.696 -0.3407  0.0992  0.5152
   50GLOH   H05 8875   0.929   3.800   1.689  0.8558  1.6839  1.4762
   50GLOH    C3 8876   0.904   3.769   1.913  0.6131  0.1537 -0.2547
   50GLOH   H06 8877   0.920   3.875   1.896 -0.9026  0.1196 -2.1060
   50GLOH   H07 8878   0.910   3.734   2.016 -0.8251 -0.9222 -0.5179
   50GLOH    O3 8879   0.774   3.738   1.864  0.4511  0.8051 -0.4982
   50GLOH   H01 8880   0.750   3.644   1.873  0.2663  0.9227  0.2935
   51GLOH   H03 8881   2.395   7.919   1.532 -0.2360  0.2535 -2.3700
   51GLOH    O1 8882   2.458   7.845   1.539  0.1832  0.7722 -0.3937
   51GLOH    C1 8883   2.599   7.875   1.518  0.0367 -0.6978  0.1948
   51GLOH   H02 8884   2.625   7.868   1.412 -3.7084 -0.2620 -0.8429
   51GLOH   H08 8885   2.650   7.792   1.566  1.1895 -1.2711 -1.9488
   51GLOH    C2 8886   2.648   8.012   1.572 -0.2235  0.6268 -0.1820
   51GLOH   H04 8887   2.757   8.017   1.557 -0.1119 -1.1788 -0.0719
   51GLOH    O2 8888   2.591   8.129   1.499  0.3840 -0.3712 -0.1238
   51GLOH   H05 8889   2.495   8.117   1.513  0.7968 -1.7178  1.6533
   51GLOH    C3 8890   2.625   8.018   1.725  0.0111 -0.2058 -0.1723
   51GLOH   H06 8891   2.662   7.920   1.755 -1.3988 -0.6803  0.0149
   51GLOH   H07 8892   2.517   8.014   1.739 -0.0232  0.5145 -0.2044
   51GLOH    O3 8893   2.680   8.128   1.797  0.2494  0.5552 -0.0333
   51GLOH   H01 8894   2.748   8.169   1.740 -0.3597 -1.5235 -2.3856
   52GLOH   H03 8895   5.927   8.787   2.674 -1.1611  2.2049 -0.2712
   52GLOH    O1 8896   5.972   8.816   2.592 -0.0123 -0.1125 -0.4993
   52GLOH    C1 8897   5.914   8.931   2.525 -0.6795  0.4425 -0.2890
   52GLOH   H02 8898   5.991   8.981   2.466  2.7825 -4.1320  0.0535
   52GLOH   H08 8899   5.870   8.995   2.601 -3.1092 -0.2404 -1.0727
   52GLOH    C2 8900   5.787   8.906   2.437 -0.3496  0.5412  0.8681
   52GLOH   H04 8901   5.787   8.986   2.361 -2.7604 -0.7151 -0.4891
   52GLOH    O2 8902   5.787   8.776   2.363 -0.1527  0.2926  0.2068
   52GLOH   H05 8903   5.863   8.769   2.303  0.1651 -1.6322  0.8030
   52GLOH    C3 8904   5.653   8.931   2.519 -0.5951 -0.2798 -0.4593
   52GLOH   H06 8905   5.656   8.862   2.603 -2.7371  0.1707  0.0285
   52GLOH   H07 8906   5.571   8.905   2.452  0.3070 -0.3879 -1.5378
   52GLOH    O3 8907   5.642   9.065   2.571 -0.6645  0.2810  0.2236
   52GLOH   H01 8908   5.641   9.061   2.668  0.8140 -0.8713  0.2096
   53GLOH   H03 8909   8.273   1.222   3.065  0.8722  1.8065 -0.1881
   53GLOH    O1 8910   8.249   1.215   3.159  0.7519  0.3486 -0.3108
   53GLOH    C1 8911   8.111   1.257   3.185  0.1148  0.3348  0.1986
   53GLOH   H02 8912   8.043   1.205   3.118  0.6309  1.2029 -1.0241
   53GLOH   H08 8913   8.115   1.362   3.156 -0.6883  0.3333  0.0966
   53GLOH    C2 8914   8.045   1.245   3.319 -0.1477  0.0319 -0.2883
   53GLOH   H04 8915   8.120   1.253   3.399 -1.6550  2.2915  0.9665
   53GLOH    O2 8916   7.933   1.338   3.327  0.2809  0.3785  0.3127
   53GLOH   H05 8917   7.899   1.350   3.417  1.4118 -1.7056  1.0578
   53GLOH    C3 8918   7.976   1.104   3.332 -0.1285  0.0956  1.0788
   53GLOH   H06 8919   8.033   1.031   3.274  1.5862  1.5444  0.8696
   53GLOH   H07 8920   7.877   1.108   3.286 -0.4398  0.0868  1.7339
   53GLOH    O3 8921   7.951   1.052   3.463 -0.2926 -0.2997  0.2037
   53GLOH   H01 8922   7.871   1.087   3.508 -1.3546 -1.0191 -1.0887
   54GLOH   H03 8923   2.924   7.684   2.253 -0.1556  0.3920  1.0969
   54GLOH    O1 8924   3.014   7.715   2.273  0.1219  0.0785  0.3512
   54GLOH    C1 8925   3.009   7.861   2.270 -0.1073  0.2738  0.5195
   54GLOH   H02 8926   2.921   7.898   2.321 -0.2957  0.1865  0.2583
   54GLOH   H08 8927   2.996   7.896   2.167  2.3649 -0.6187 -0.1387
   54GLOH    C2 8928   3.130   7.933   2.331 -0.8848  0.1031 -0.6287
   54GLOH   H04 8929   3.148   7.906   2.436  1.3859 -1.5311 -1.4091
   54GLOH    O2 8930   3.253   7.883   2.272  0.4528  0.1262 -0.0481
   54GLOH   H05 8931   3.265   7.918   2.182  0.4652  1.5536  0.4922
   54GLOH    C3 8932   3.113   8.086   2.314  0.0589  0.6467  0.0897
   54GLOH   H06 8933   3.113   8.117   2.209  0.7806 -0.5282 -0.2598
   54GLOH   H07 8934   3.207   8.132   2.347 -0.4899  1.0964  1.0341
   54GLOH    O3 8935   2.998   8.143   2.377 -0.2526  0.2027  0.7438
   54GLOH   H01 8936   2.987   8.102   2.465 -1.6312  0.6849  0.8164
   55GLOH   H03 8937   4.092   9.676   1.457  0.9756  0.5878  1.9103
   55GLOH    O1 8938   4.189   9.665   1.457  0.9565  0.2055 -0.1683
   55GLOH    C1 8939   4.222   9.567   1.355 -0.2088  0.2565 -0.1950
   55GLOH   H02 8940   4.199   9.596   1.253  0.4697 -1.2126 -0.7700
   55GLOH   H08 8941   4.172   9.473   1.375 -0.8222  0.3610 -1.2392
   55GLOH    C2 8942   4.372   9.533   1.347  0.0358  0.8566  0.3026
   55GLOH   H04 8943   4.403   9.496   1.446 -0.9861  0.9848  0.6784
   55GLOH    O2 8944   4.409   9.422   1.254  0.3250 -0.5763  0.4709
   55GLOH   H05 8945   4.401   9.456   1.163 -1.4649 -1.0161  0.4381
   55GLOH    C3 8946   4.458   9.655   1.312 -0.4581  0.6456  0.1443
   55GLOH   H06 8947   4.443   9.684   1.208 -0.5222  1.4507  0.3720
   55GLOH   H07 8948   4.563   9.633   1.332 -0.8869 -0.8478  0.7636
   55GLOH    O3 8949   4.415   9.767   1.397  0.1592 -0.2390  0.5052
   55GLOH   H01 8950   4.331   9.753   1.443 -1.6244  1.2290 -2.1626
   56GLOH   H03 8951   7.978   4.255   0.071 -0.4276  0.1543  0.1853
   56GLOH    O1 8952   7.997   4.250   0.167 -0.8361 -0.2513  0.2454
   56GLOH    C1 8953   7.969   4.378   0.221  0.1975  0.0468 -0.7789
   56GLOH   H02 8954   7.877   4.419   0.180 -0.8425 -1.1358  0.3219
   56GLOH   H08 8955   8.052   4.448   0.206  0.9998 -0.2328  2.0372
   56GLOH    C2 8956   7.966   4.357   0.376  0.0865  0.0108  0.5369
   56GLOH   H04 8957   8.061   4.306   0.399  0.7241  0.9466  0.0131
   56GLOH    O2 8958   7.962   4.482   0.446 -0.1746  0.6320  0.8894
   56GLOH   H05 8959   7.879   4.531   0.431 -1.4539 -1.4719  0.8072
   56GLOH    C3 8960   7.854   4.260   0.414  0.2906  0.1843  0.2808
   56GLOH   H06 8961   7.754   4.304   0.405  0.1418 -0.0985  0.5349
   56GLOH   H07 8962   7.871   4.254   0.521  1.9873  0.6257  0.0478
   56GLOH    O3 8963   7.848   4.133   0.341 -0.2088  0.4840  0.3143
   56GLOH   H01 8964   7.898   4.137   0.257 -2.7801 -0.3793 -1.3399
   57GLOH   H03 8965   8.738   3.065   2.603 -2.7977  0.4429 -3.6463
   57GLOH    O1 8966   8.812   3.030   2.549 -0.1394  0.2670 -0.1196
   57GLOH    C1 8967   8.802   3.090   2.425 -0.5075 -0.2933 -0.4326
   57GLOH   H02 8968   8.902   3.119   2.393 -1.9508  0.7947 -4.2158
   57GLOH   H08 8969   8.755   3.188   2.434 -1.2204 -0.5889 -0.8992
   57GLOH    C2 8970   8.744   2.994   2.316 -0.2178  0.2817 -0.4605
   57GLOH   H04 8971   8.647   2.963   2.358  0.5196 -2.0855 -0.4203
   57GLOH    O2 8972   8.736   3.067   2.189 -0.0101 -0.0852 -0.3790
   57GLOH   H05 8973   8.826   3.092   2.163  0.2737 -0.5181  0.1704
   57GLOH    C3 8974   8.839   2.869   2.298 -0.5399  0.3955  0.0472
   57GLOH   H06 8975   8.883   2.838   2.393 -0.2351 -0.9867 -0.5325
   57GLOH   H07 8976   8.919   2.910   2.237 -2.3920  0.9717 -2.0372
   57GLOH    O3 8977   8.767   2.762   2.234  0.1825  0.3507 -0.2771
   57GLOH   H01 8978   8.673   2.779   2.215 -0.0737  1.0501  1.4574
   58GLOH   H03 8979   9.666   2.127   3.188 -1.4820 -2.6497  1.6961
   58GLOH    O1 8980   9.730   2.099   3.256  0.8613 -0.5520  0.4287
   58GLOH    C1 8981   9.712   1.953   3.259 -0.7080  0.4682  0.1413
   58GLOH   H02 8982   9.725   1.912   3.159 -2.1579 -0.8859  0.4846
   58GLOH   H08 8983   9.610   1.939   3.294 -0.4359 -1.9880  0.0269
   58GLOH    C2 8984   9.809   1.889   3.364  0.1034  0.2541  0.5367
   58GLOH   H04 8985   9.810   1.942   3.461  2.0542  0.4542  0.4258
   58GLOH    O2 8986   9.793   1.756   3.395  0.4787  0.0569  0.0694
   58GLOH   H05 8987   9.708   1.726   3.360  0.9986 -1.3678 -0.0077
   58GLOH    C3 8988   9.956   1.910   3.312 -0.4882 -0.6022  0.2849
   58GLOH   H06 8989   9.956   1.856   3.217  1.1182  0.6228 -0.4342
   58GLOH   H07 8990  10.034   1.872   3.378  0.2030  0.9113  0.3637
   58GLOH    O3 8991   9.981   2.050   3.279 -0.0859 -0.2717 -0.4802
   58GLOH   H01 8992   9.892   2.089   3.283  1.3342  3.3667 -2.1710
   59GLOH   H03 8993   4.853   9.434   2.170  1.5074  0.6170 -1.8856
   59GLOH    O1 8994   4.902   9.494   2.229  0.5465 -0.0173 -0.4089
   59GLOH    C1 8995   4.918   9.624   2.157 -0.2705  0.0086  0.0635
   59GLOH   H02 8996   4.819   9.669   2.157 -0.3414 -0.1001  1.4839
   59GLOH   H08 8997   4.948   9.608   2.054  0.3514 -0.4745  0.3153
   59GLOH    C2 8998   5.020   9.716   2.226 -0.1110 -0.6162  0.3009
   59GLOH   H04 8999   4.999   9.735   2.332 -0.6817 -2.1178  0.4555
   59GLOH    O2 9000   5.153   9.655   2.226  0.2983  0.4671 -0.7039
   59GLOH   H05 9001   5.161   9.579   2.286  1.8673  0.3211 -1.0873
   59GLOH    C3 9002   5.046   9.843   2.144 -0.1552  0.3902  0.5551
   59GLOH   H06 9003   5.101   9.814   2.054  0.0170 -0.3702  0.8973
   59GLOH   H07 9004   5.110   9.912   2.199  1.8807  1.0975 -2.5467
   59GLOH    O3 9005   4.925   9.901   2.101  0.6060 -0.0406 -0.0578
   59GLOH   H01 9006   4.870   9.903   2.182  1.5609  2.0303  0.5800
   60GLOH   H03 9007   9.968   1.504   1.282  0.4494  0.6514  0.5785
   60GLOH    O1 9008   9.986   1.408   1.283 -0.7238  0.4120 -0.1610
   60GLOH    C1 9009   9.877   1.337   1.234  0.1175  0.8569  0.1430
   60GLOH   H02 9010   9.883   1.316   1.128 -0.3983  0.1336  0.2505
   60GLOH   H08 9011   9.788   1.399   1.241 -0.5086 -0.0596  0.3336
   60GLOH    C2 9012   9.836   1.216   1.322  0.3099 -0.0790  0.0057
   60GLOH   H04 9013   9.737   1.179   1.292 -1.1702  3.3634  0.4870
   60GLOH    O2 9014   9.942   1.114   1.303 -0.0310 -0.6544  0.0390
   60GLOH   H05 9015  10.014   1.124   1.367  1.0655 -2.4446 -0.8553
   60GLOH    C3 9016   9.826   1.256   1.471  0.3611 -0.0235 -0.6988
   60GLOH   H06 9017   9.747   1.330   1.473  2.1845  1.9363  0.7395
   60GLOH   H07 9018   9.918   1.304   1.504 -0.2951 -0.0399  1.2337
   60GLOH    O3 9019   9.806   1.140   1.555 -0.2069  0.6742 -0.6910
   60GLOH   H01 9020   9.719   1.099   1.540 -0.8862  2.3118 -1.2929
   61GLOH   H03 9021   0.051   1.801   1.839  0.4647  1.6339 -1.6094
   61GLOH    O1 9022   0.147   1.786   1.840  0.2583  0.2587  0.3911
   61GLOH    C1 9023   0.212   1.867   1.940 -0.2783 -0.4937  0.5539
   61GLOH   H02 9024   0.209   1.969   1.902  0.0601 -0.6309  0.1514
   61GLOH   H08 9025   0.318   1.845   1.953  0.0987  0.0550 -1.4212
   61GLOH    C2 9026   0.139   1.862   2.076  0.5792 -0.8524 -0.3883
   61GLOH   H04 9027   0.034   1.888   2.055  0.0675 -1.3692  1.4397
   61GLOH    O2 9028   0.156   1.728   2.141 -0.3557 -0.3252  0.2876
   61GLOH   H05 9029   0.229   1.738   2.205  0.2245 -1.4156 -0.1718
   61GLOH    C3 9030   0.186   1.984   2.170  0.4832  0.3293 -0.1165
   61GLOH   H06 9031   0.292   1.990   2.148  0.8614  0.5444  1.6637
   61GLOH   H07 9032   0.157   1.969   2.275  1.6351  2.0863  0.4681
   61GLOH    O3 9033   0.128   2.104   2.133 -0.2439 -0.0806  0.6231
   61GLOH   H01 9034   0.202   2.167   2.123 -1.1867  1.0774  0.7584
   62GLOH   H03 9035   4.258   9.277   0.090 -0.3521  0.3050 -0.6479
   62GLOH    O1 9036   4.207   9.287   0.173  0.5024  0.3278 -0.1188
   62GLOH    C1 9037   4.206   9.426   0.218 -0.7937 -0.2298  0.5595
   62GLOH   H02 9038   4.136   9.489   0.163  0.7046  0.5216 -0.5318
   62GLOH   H08 9039   4.308   9.464   0.213 -0.1441 -2.1199 -1.4599
   62GLOH    C2 9040   4.164   9.434   0.357  0.3353 -0.5730  0.2636
   62GLOH   H04 9041   4.229   9.377   0.426  1.6975  1.5249  0.7836
   62GLOH    O2 9042   4.169   9.570   0.416 -0.5522  0.1086  0.5957
   62GLOH   H05 9043   4.078   9.604   0.405 -1.1149 -1.0984  1.3193
   62GLOH    C3 9044   4.024   9.378   0.383 -0.5308  0.1653 -0.2497
   62GLOH   H06 9045   3.949   9.445   0.340  0.0311  0.5279 -0.6561
   62GLOH   H07 9046   4.011   9.396   0.490 -1.5560 -0.3676 -0.2695
   62GLOH    O3 9047   4.018   9.241   0.339  0.0352  0.0424 -0.1714
   62GLOH   H01 9048   4.065   9.224   0.256  2.1604  0.9839  0.7979
   63GLOH   H03 9049   8.435   4.135   2.034 -2.2592 -1.4377  0.5377
   63GLOH    O1 9050   8.405   4.221   2.069 -0.2821 -0.3212 -0.4067
   63GLOH    C1 9051   8.485   4.326   2.010  0.8493  0.2104  0.4454
   63GLOH   H02 9052   8.588   4.308   2.041  0.6550  0.8469  1.4813
   63GLOH   H08 9053   8.452   4.424   2.043 -1.4529 -1.1843  2.5389
   63GLOH    C2 9054   8.478   4.322   1.858 -0.2441 -0.6097 -0.2574
   63GLOH   H04 9055   8.372   4.341   1.838 -0.5700 -0.2563  1.6659
   63GLOH    O2 9056   8.564   4.425   1.806 -0.3153  0.3006  0.0413
   63GLOH   H05 9057   8.658   4.406   1.826 -0.5965 -2.1539 -0.7544
   63GLOH    C3 9058   8.520   4.182   1.794 -0.2631  0.3988  0.3248
   63GLOH   H06 9059   8.627   4.166   1.808 -0.5487 -0.7411  1.2876
   63GLOH   H07 9060   8.507   4.195   1.687 -1.0854 -1.2697  0.2144
   63GLOH    O3 9061   8.439   4.073   1.847  0.3440 -0.1363  0.1345
   63GLOH   H01 9062   8.480   3.986   1.825  1.1095  1.0920 -3.7057
   64GLOH   H03 9063   8.289   0.795   2.405 -4.0459 -0.9169 -0.6059
   64GLOH    O1 9064   8.300   0.702   2.377  0.4432 -0.8479  0.5649
   64GLOH    C1 9065   8.199   0.699   2.270  0.7203 -0.3868  0.2651
   64GLOH   H02 9066   8.100   0.716   2.313  1.2201  2.6378  0.3679
   64GLOH   H08 9067   8.197   0.603   2.220  1.8805 -0.4307  0.2776
   64GLOH    C2 9068   8.238   0.805   2.161 -0.4891 -0.4364 -0.4681
   64GLOH   H04 9069   8.164   0.817   2.080  0.3794  2.9385 -0.8571
   64GLOH    O2 9070   8.249   0.939   2.221  0.2751 -0.2212 -0.1745
   64GLOH   H05 9071   8.239   1.004   2.150  2.5269  0.6918  0.2840
   64GLOH    C3 9072   8.368   0.771   2.099 -0.0839  0.3512  1.2716
   64GLOH   H06 9073   8.431   0.713   2.167  1.5102 -1.1847 -1.4229
   64GLOH   H07 9074   8.422   0.864   2.082 -0.2403 -0.0101 -1.3300
   64GLOH    O3 9075   8.356   0.697   1.975  0.1536 -0.2198 -0.1449
   64GLOH   H01 9076   8.323   0.766   1.914 -0.1375 -1.3185 -1.2401
   65GLOH   H03 9077   9.773   0.111   2.810 -2.4501 -3.9426  0.1246
   65GLOH    O1 9078   9.810   0.090   2.898 -0.2815 -0.0599  0.2534
   65GLOH    C1 9079   9.709   0.106   3.000  0.0127  0.2664 -0.0296
   65GLOH   H02 9080   9.737   0.044   3.086  0.8406  0.0849 -0.4216
   65GLOH   H08 9081   9.616   0.061   2.966 -0.2654  0.8248 -0.0081
   65GLOH    C2 9082   9.683   0.251   3.041  0.3094  0.6528  0.0407
   65GLOH   H04 9083   9.609   0.263   3.122  0.9295 -1.1270  0.8847
   65GLOH    O2 9084   9.810   0.308   3.097  0.6035 -0.0211  0.3855
   65GLOH   H05 9085   9.780   0.338   3.184 -0.0383  0.0402  0.1446
   65GLOH    C3 9086   9.642   0.334   2.912 -0.0930 -0.0899 -0.7483
   65GLOH   H06 9087   9.733   0.368   2.862  2.5894 -1.9762  2.6611
   65GLOH   H07 9088   9.593   0.421   2.953  0.8454 -0.0505  0.3174
   65GLOH    O3 9089   9.542   0.269   2.824  0.7061  0.3657  0.1241
   65GLOH   H01 9090   9.579   0.213   2.754 -1.1989 -1.4007  0.4731
   66GLOH   H03 9091   6.006   8.497   1.890  1.3695 -0.6050  0.4954
   66GLOH    O1 9092   5.953   8.452   1.958  0.0085 -0.7937 -0.6705
   66GLOH    C1 9093   5.826   8.437   1.904  1.1753  0.0533  0.2844
   66GLOH   H02 9094   5.755   8.408   1.981 -1.3303  0.4519 -1.8214
   66GLOH   H08 9095   5.819   8.359   1.828 -0.2975 -0.5851  1.0650
   66GLOH    C2 9096   5.783   8.582   1.861 -0.0816  0.3983  0.3408
   66GLOH   H04 9097   5.803   8.651   1.944  1.9517  0.1926  0.0601
   66GLOH    O2 9098   5.853   8.631   1.744 -0.2704 -0.3420 -0.4686
   66GLOH   H05 9099   5.863   8.727   1.753  0.2954 -0.3202 -1.3040
   66GLOH    C3 9100   5.629   8.582   1.849 -0.0117  0.2022 -0.0868
   66GLOH   H06 9101   5.607   8.512   1.769 -2.6796  2.3833 -1.3647
   66GLOH   H07 9102   5.592   8.676   1.808 -0.7998  0.5305  1.3663
   66GLOH    O3 9103   5.566   8.551   1.978  0.1901  0.1488 -0.4363
   66GLOH   H01 9104   5.579   8.626   2.039  0.3248 -1.0950  1.0925
   67GLOH   H03 9105   4.121   8.717   0.349 -0.0308 -0.9068 -0.0435
   67GLOH    O1 9106   4.212   8.747   0.332 -0.3072 -0.1336 -0.1817
   67GLOH    C1 9107   4.308   8.636   0.326 -0.4955  0.1671  0.1401
   67GLOH   H02 9108   4.352   8.605   0.421  0.8705 -1.0967 -0.8693
   67GLOH   H08 9109   4.388   8.668   0.259 -1.8387  1.5384 -0.8316
   67GLOH    C2 9110   4.244   8.502   0.281  0.2613  0.0063 -0.1401
   67GLOH   H04 9111   4.328   8.438   0.251  0.3669 -0.7440  1.7031
   67GLOH    O2 9112   4.162   8.443   0.387 -0.3091 -0.1834  0.2603
   67GLOH   H05 9113   4.089   8.502   0.409  1.0354  1.5537  0.1691
   67GLOH    C3 9114   4.161   8.525   0.155  0.3983  0.4073 -0.2498
   67GLOH   H06 9115   4.072   8.581   0.184 -1.6276 -1.0765 -3.3426
   67GLOH   H07 9116   4.124   8.425   0.131  0.4274  0.3848 -0.1988
   67GLOH    O3 9117   4.226   8.581   0.041 -0.4979  0.6101  0.6103
   67GLOH   H01 9118   4.278   8.514  -0.007 -2.1911  0.7609 -1.5434
   68GLOH   H03 9119   2.098   6.576   0.617 -1.5008 -0.3186  1.6371
   68GLOH    O1 9120   2.144   6.508   0.670  0.3389 -0.6004 -0.2352
   68GLOH    C1 9121   2.283   6.546   0.686 -0.3835  0.3783 -0.7896
   68GLOH   H02 9122   2.335   6.468   0.741 -0.7820  1.8811  1.8295
   68GLOH   H08 9123   2.300   6.637   0.745  1.1811 -0.3547 -0.1073
   68GLOH    C2 9124   2.352   6.573   0.553  0.3592 -0.2941  0.0511
   68GLOH   H04 9125   2.336   6.478   0.500  0.8002  0.4301 -1.4196
   68GLOH    O2 9126   2.296   6.686   0.482 -0.2004 -0.7521  0.0264
   68GLOH   H05 9127   2.204   6.675   0.452 -0.0306  1.5958 -1.5878
   68GLOH    C3 9128   2.506   6.585   0.558  0.1603  0.7752 -0.3433
   68GLOH   H06 9129   2.524   6.672   0.621  0.0782  0.3606  0.2558
   68GLOH   H07 9130   2.554   6.598   0.461 -1.0408 -0.6003 -1.1481
   68GLOH    O3 9131   2.571   6.473   0.614 -0.6199  0.1323 -0.0534
   68GLOH   H01 9132   2.583   6.493   0.709 -0.4704  0.7663 -0.2072
   69GLOH   H03 9133   2.555   5.959   1.264  1.1210 -0.7939  3.0905
   69GLOH    O1 9134   2.544   5.868   1.232  0.2841  0.2891  0.0781
   69GLOH    C1 9135   2.498   5.778   1.325  0.9398 -0.3279 -0.0073
   69GLOH   H02 9136   2.561   5.781   1.415  1.3380  0.1851 -0.2959
   69GLOH   H08 9137   2.501   5.677   1.283 -0.7309 -0.5132  0.3104
   69GLOH    C2 9138   2.356   5.789   1.381 -0.1338  0.4485  0.0030
   69GLOH   H04 9139   2.369   5.737   1.477  2.8526  1.1498  0.0109
   69GLOH    O2 9140   2.318   5.923   1.420 -0.1462  0.3284  0.2746
   69GLOH   H05 9141   2.337   5.995   1.357 -3.5318 -0.5885 -1.9214
   69GLOH    C3 9142   2.241   5.726   1.303 -0.2830  0.2484  0.7174
   69GLOH   H06 9143   2.227   5.771   1.205  1.0991  0.5510  0.6446
   69GLOH   H07 9144   2.149   5.739   1.359 -0.3805 -1.0048  0.8622
   69GLOH    O3 9145   2.261   5.582   1.299 -0.0207 -0.0047  0.3865
   69GLOH   H01 9146   2.179   5.538   1.329  1.3043 -3.3489 -0.6565
   70GLOH   H03 9147   4.071   3.746   3.247 -0.7823 -0.4342 -1.5371
   70GLOH    O1 9148   4.119   3.829   3.226 -0.1172 -0.5015 -0.3428
   70GLOH    C1 9149   4.206   3.821   3.112  0.2804  0.0115 -0.0965
   70GLOH   H02 9150   4.277   3.903   3.110  2.0269 -1.3889  1.6181
   70GLOH   H08 9151   4.153   3.818   3.017 -0.3819 -1.3642  0.3042
   70GLOH    C2 9152   4.298   3.692   3.114 -0.0573  0.0520 -0.0730
   70GLOH   H04 9153   4.233   3.604   3.120 -1.5248  1.1607  0.6923
   70GLOH    O2 9154   4.376   3.678   2.994  0.2303  0.0237  0.0368
   70GLOH   H05 9155   4.363   3.587   2.964 -3.3250 -0.0582  1.5743
   70GLOH    C3 9156   4.398   3.688   3.225 -0.3163 -0.1925 -0.9451
   70GLOH   H06 9157   4.485   3.743   3.189 -0.0163  0.1474  0.2443
   70GLOH   H07 9158   4.438   3.586   3.228 -2.7220 -1.1217  1.2094
   70GLOH    O3 9159   4.354   3.720   3.356  0.0084  0.8288  0.6265
   70GLOH   H01 9160   4.288   3.660   3.393  1.6900  0.4163  3.0810
   71GLOH   H03 9161   7.459   1.533   2.912  0.4833 -1.8780  0.7169
   71GLOH    O1 9162   7.547   1.570   2.929 -0.0512  0.1796 -0.7467
   71GLOH    C1 9163   7.645   1.463   2.944 -0.9504 -0.4383 -0.1508
   71GLOH   H02 9164   7.728   1.485   2.877 -1.4502 -0.3460 -0.7395
   71GLOH   H08 9165   7.605   1.365   2.923 -0.1773 -1.4912  2.9446
   71GLOH    C2 9166   7.679   1.452   3.092  0.3089 -0.2643  0.3345
   71GLOH   H04 9167   7.583   1.420   3.134  0.1945 -0.9774 -0.4635
   71GLOH    O2 9168   7.774   1.354   3.126  0.0434 -0.2169 -0.1549
   71GLOH   H05 9169   7.826   1.383   3.203 -3.2276 -0.0495  2.1168
   71GLOH    C3 9170   7.726   1.591   3.130  0.2127  0.1189 -0.2779
   71GLOH   H06 9171   7.643   1.657   3.108  0.7027  0.4024 -1.3490
   71GLOH   H07 9172   7.809   1.618   3.064 -0.8060 -1.0012 -2.0826
   71GLOH    O3 9173   7.774   1.609   3.270 -0.1373 -0.0581  0.6727
   71GLOH   H01 9174   7.698   1.582   3.326  0.8560  1.0127  2.5625
   72GLOH   H03 9175   3.034   8.741   0.682 -0.9833 -1.0614  2.1417
   72GLOH    O1 9176   3.089   8.806   0.728  0.0761  0.0430 -0.5641
   72GLOH    C1 9177   3.192   8.765   0.817 -0.2751  0.6912  0.3989
   72GLOH   H02 9178   3.240   8.855   0.855 -1.0513  0.5803  1.6578
   72GLOH   H08 9179   3.267   8.704   0.767 -2.1691 -1.3279 -0.0804
   72GLOH    C2 9180   3.144   8.692   0.944  0.0778  0.4500 -0.4847
   72GLOH   H04 9181   3.066   8.620   0.918  0.5724  0.0164 -0.7742
   72GLOH    O2 9182   3.243   8.613   1.018 -0.3246 -0.3708 -0.0219
   72GLOH   H05 9183   3.274   8.661   1.097 -1.1822 -0.7830  0.5796
   72GLOH    C3 9184   3.080   8.795   1.041 -0.5857  0.1187 -0.3106
   72GLOH   H06 9185   3.140   8.884   1.054 -0.4182 -0.3250  2.2367
   72GLOH   H07 9186   3.093   8.751   1.140 -0.3338 -4.0818 -2.1045
   72GLOH    O3 9187   2.952   8.838   1.001  0.5308 -0.1417 -0.6187
   72GLOH   H01 9188   2.891   8.762   1.001  0.9073 -0.4428 -0.6509
   73GLOH   H03 9189   1.957   9.853   2.143 -2.2185  0.1623  0.5641
   73GLOH    O1 9190   1.935   9.930   2.087  0.3555  0.4906 -0.0313
   73GLOH    C1 9191   2.035  10.028   2.095  0.5894 -0.6468  0.5528
   73GLOH   H02 9192   2.127   9.980   2.130  0.3710 -0.4313  1.4350
   73GLOH   H08 9193   2.006  10.105   2.167 -1.2744 -0.6052 -0.2197
   73GLOH    C2 9194   2.061  10.099   1.959 -0.4364  0.7194  0.2987
   73GLOH   H04 9195   1.968  10.140   1.915 -0.9764  0.2669  1.0136
   73GLOH    O2 9196   2.144  10.214   1.984 -0.3620  0.5903 -1.1705
   73GLOH   H05 9197   2.087  10.291   2.001 -0.6640  0.3923 -1.2725
   73GLOH    C3 9198   2.141  10.006   1.862 -0.1075  0.1730 -0.1464
   73GLOH   H06 9199   2.097   9.907   1.863  1.0433 -0.4261 -2.8340
   73GLOH   H07 9200   2.246   9.995   1.890  0.0126  1.2132 -0.1658
   73GLOH    O3 9201   2.155  10.060   1.732  0.4906  0.0181  0.5709
   73GLOH   H01 9202   2.068  10.064   1.688 -0.3869 -0.9147  2.1854
   74GLOH   H03 9203   2.243   5.500   0.761  1.2488 -0.4106  0.8002
   74GLOH    O1 9204   2.191   5.511   0.843  0.0207 -0.2261  0.0239
   74GLOH    C1 9205   2.260   5.476   0.959 -0.5330  0.6869 -0.1150
   74GLOH   H02 9206   2.294   5.372   0.959 -1.3763  0.4085 -0.9697
   74GLOH   H08 9207   2.182   5.477   1.035 -0.3842 -1.4836  0.1153
   74GLOH    C2 9208   2.378   5.570   0.989  0.0561 -1.0108 -0.2602
   74GLOH   H04 9209   2.330   5.667   1.006  2.8084  0.5089 -0.8893
   74GLOH    O2 9210   2.435   5.528   1.117 -0.6071  0.5810 -0.1224
   74GLOH   H05 9211   2.380   5.560   1.189  0.1728 -0.6608  1.0498
   74GLOH    C3 9212   2.482   5.586   0.880  0.0212 -0.1301 -0.6640
   74GLOH   H06 9213   2.473   5.498   0.816  2.1907 -0.2585 -0.8451
   74GLOH   H07 9214   2.587   5.582   0.910  0.1681 -2.5442 -1.3708
   74GLOH    O3 9215   2.454   5.703   0.803  0.2272  0.2544  0.0275
   74GLOH   H01 9216   2.476   5.781   0.858 -1.9235  2.3990 -2.0360
   75GLOH   H03 9217   4.672   1.787   1.245  2.2400  2.6578 -0.2831
   75GLOH    O1 9218   4.625   1.823   1.167 -0.1581  0.0425 -0.1124
   75GLOH    C1 9219   4.563   1.721   1.087 -0.6268  0.4728 -0.1104
   75GLOH   H02 9220   4.642   1.652   1.057 -0.3020  0.9182 -0.2926
   75GLOH   H08 9221   4.539   1.762   0.989  2.2888  3.7130  0.4062
   75GLOH    C2 9222   4.458   1.638   1.161 -0.0996  0.7817 -0.1619
   75GLOH   H04 9223   4.510   1.610   1.254 -1.3965 -0.7078  0.1318
   75GLOH    O2 9224   4.333   1.697   1.204 -0.2862 -0.2356 -0.0384
   75GLOH   H05 9225   4.354   1.775   1.259  0.5701 -1.1119  0.8911
   75GLOH    C3 9226   4.433   1.512   1.074  1.2090 -0.1367  0.3042
   75GLOH   H06 9227   4.375   1.553   0.990 -1.7530 -0.7856  1.9615
   75GLOH   H07 9228   4.372   1.438   1.126 -0.5027  1.8691  1.2274
   75GLOH    O3 9229   4.554   1.441   1.029 -0.2952 -0.0465  0.0111
   75GLOH   H01 9230   4.605   1.436   1.112 -1.7357 -0.1122  0.8949
   76GLOH   H03 9231   9.531   0.222   1.680  2.1764  2.1889  1.4357
   76GLOH    O1 9232   9.453   0.265   1.719  0.1304 -0.1006  0.0263
   76GLOH    C1 9233   9.498   0.359   1.817  0.2703 -0.4839  0.1146
   76GLOH   H02 9234   9.535   0.448   1.765  1.3198 -0.6391  0.6007
   76GLOH   H08 9235   9.585   0.333   1.876  1.8414 -0.5405 -2.1561
   76GLOH    C2 9236   9.381   0.399   1.907  0.6899 -0.5312  0.3471
   76GLOH   H04 9237   9.333   0.305   1.936  0.9131 -0.7183  0.1001
   76GLOH    O2 9238   9.421   0.483   2.021  0.5631 -0.2932  0.4491
   76GLOH   H05 9239   9.354   0.474   2.090  1.7100  1.2182  1.8308
   76GLOH    C3 9240   9.280   0.479   1.825  0.0993 -0.1484  0.0310
   76GLOH   H06 9241   9.330   0.570   1.793 -0.8978  0.2969 -0.2937
   76GLOH   H07 9242   9.198   0.503   1.893 -0.6308  0.7898 -1.1571
   76GLOH    O3 9243   9.235   0.394   1.722  0.2031  0.1356  0.4658
   76GLOH   H01 9244   9.302   0.328   1.698  1.1405  1.2035  0.0870
   77GLOH   H03 9245   9.543   5.432   0.607  0.0552 -0.0799 -0.2989
   77GLOH    O1 9246   9.622   5.380   0.633 -0.3555 -0.7182 -0.3140
   77GLOH    C1 9247   9.656   5.431   0.765 -0.0304 -0.1150  0.3139
   77GLOH   H02 9248   9.724   5.517   0.771  0.2217 -0.2817 -0.1637
   77GLOH   H08 9249   9.715   5.361   0.824  1.1012 -0.7575 -1.5485
   77GLOH    C2 9250   9.525   5.469   0.843  0.1373 -0.4129  0.5621
   77GLOH   H04 9251   9.453   5.386   0.847 -0.3694 -0.2303 -3.5968
   77GLOH    O2 9252   9.543   5.513   0.977  0.0197 -0.0779  0.4806
   77GLOH   H05 9253   9.590   5.596   0.996  0.0763  0.2806 -1.1971
   77GLOH    C3 9254   9.454   5.591   0.771 -0.3414  0.7213  0.0735
   77GLOH   H06 9255   9.539   5.659   0.762 -0.1882  0.4735 -0.3596
   77GLOH   H07 9256   9.372   5.621   0.835 -0.1163  0.1096  0.6487
   77GLOH    O3 9257   9.404   5.562   0.642  0.6688  0.0310 -0.0550
   77GLOH   H01 9258   9.323   5.509   0.650  1.2806 -0.7587  1.1575
   78GLOH   H03 9259   1.354   1.815   2.981 -0.0558 -1.0914 -0.8121
   78GLOH    O1 9260   1.322   1.882   2.918  0.3485 -0.3777 -0.2642
   78GLOH    C1 9261   1.212   1.960   2.971 -0.3235  1.0780 -0.3815
   78GLOH   H02 9262   1.162   2.017   2.893 -0.5265  2.3161  0.6283
   78GLOH   H08 9263   1.248   2.038   3.038 -0.6772  3.0810 -2.4660
   78GLOH    C2 9264   1.120   1.877   3.060  0.6887  0.8645  0.1318
   78GLOH   H04 9265   1.177   1.828   3.141  0.7811  0.5133 -0.1452
   78GLOH    O2 9266   1.017   1.960   3.117 -0.6798  1.1097 -0.0397
   78GLOH   H05 9267   0.990   1.911   3.196  0.8785  1.0836  0.4950
   78GLOH    C3 9268   1.051   1.761   2.985  0.1355  0.3691  0.0063
   78GLOH   H06 9269   0.994   1.696   3.052  2.4247 -2.0610 -0.3041
   78GLOH   H07 9270   1.125   1.691   2.944 -1.1046 -0.6067 -0.6149
   78GLOH    O3 9271   0.958   1.808   2.880  0.9447  0.4100 -0.3580
   78GLOH   H01 9272   0.881   1.849   2.924 -0.0985 -0.5587 -1.2781
   79GLOH   H03 9273   0.039   0.835   2.756 -1.8080  1.1328  0.3437
   79GLOH    O1 9274   0.070   0.859   2.845  0.3121 -0.2992  0.0400
   79GLOH    C1 9275   0.205   0.910   2.841 -0.1820  0.0212 -0.7227
   79GLOH   H02 9276   0.210   1.008   2.889  0.5977 -0.1412 -0.4669
   79GLOH   H08 9277   0.250   0.925   2.743 -0.3551  2.4415 -0.4681
   79GLOH    C2 9278   0.290   0.814   2.932 -0.0411 -0.7308  0.5017
   79GLOH   H04 9279   0.284   0.715   2.883  2.4584  0.9459 -3.4160
   79GLOH    O2 9280   0.426   0.854   2.924 -0.4653 -0.1893 -0.2270
   79GLOH   H05 9281   0.465   0.837   3.012 -1.2123  0.9545  0.3475
   79GLOH    C3 9282   0.228   0.802   3.076 -0.4651 -0.0385 -0.3235
   79GLOH   H06 9283   0.229   0.906   3.107  1.1710 -0.8429  2.4752
   79GLOH   H07 9284   0.300   0.739   3.129  1.0016  0.3270 -1.8188
   79GLOH    O3 9285   0.102   0.740   3.079 -0.0770  0.6783  0.0143
   79GLOH   H01 9286   0.072   0.756   2.988  2.0320 -0.2667 -0.8805
   80GLOH   H03 9287   4.580   8.678   3.001 -0.1202 -0.4096 -0.3800
   80GLOH    O1 9288   4.666   8.711   3.033 -0.4799  0.2095 -0.0564
   80GLOH    C1 9289   4.650   8.747   3.169 -0.1587 -0.1100  0.5511
   80GLOH   H02 9290   4.629   8.853   3.185 -0.2225 -0.1678  0.8651
   80GLOH   H08 9291   4.743   8.721   3.219  0.9901  0.0153 -1.4676
   80GLOH    C2 9292   4.532   8.674   3.243  0.1675 -0.6762 -0.1820
   80GLOH   H04 9293   4.441   8.713   3.196 -0.4148 -0.9443  0.6928
   80GLOH    O2 9294   4.527   8.533   3.236 -0.4838  0.6853 -0.3159
   80GLOH   H05 9295   4.583   8.491   3.168 -0.3594  0.9571 -0.3794
   80GLOH    C3 9296   4.525   8.732   3.384  0.2854  0.9470  0.0144
   80GLOH   H06 9297   4.627   8.742   3.421  0.2672 -0.4387  0.4872
   80GLOH   H07 9298   4.468   8.657   3.439 -0.4858  0.4744 -1.4041
   80GLOH    O3 9299   4.453   8.856   3.391  0.0790 -0.2884  0.4616
   80GLOH   H01 9300   4.419   8.863   3.482  2.4627  1.7261  1.2630
   81GLOH   H03 9301   4.108   3.600   0.087 -1.1387 -0.6047 -0.0666
   81GLOH    O1 9302   4.191   3.560   0.054 -0.6732  0.2670  0.0386
   81GLOH    C1 9303   4.292   3.543   0.161  0.3864 -0.5911 -0.5927
   81GLOH   H02 9304   4.381   3.523   0.101  2.2018  1.2026  1.4292
   81GLOH   H08 9305   4.262   3.461   0.225 -1.0108 -0.7142 -1.3799
   81GLOH    C2 9306   4.294   3.670   0.248 -0.0280  0.7954  0.0089
   81GLOH   H04 9307   4.339   3.754   0.193 -1.0307  1.0725 -0.4107
   81GLOH    O2 9308   4.172   3.705   0.312 -0.3486  0.0418 -0.7889
   81GLOH   H05 9309   4.175   3.795   0.350  2.9354  0.7202 -2.4283
   81GLOH    C3 9310   4.388   3.651   0.366 -0.4984 -0.0743  0.4236
   81GLOH   H06 9311   4.354   3.564   0.422  0.2736 -1.8295 -1.7410
   81GLOH   H07 9312   4.390   3.738   0.432 -0.2458 -0.5097  0.9940
   81GLOH    O3 9313   4.524   3.632   0.319  0.6631 -0.2258 -0.1253
   81GLOH   H01 9314   4.582   3.602   0.392 -0.2934 -1.4150  0.1699
   82GLOH   H03 9315   1.655   7.917   1.924 -0.8973 -0.7457 -0.5929
   82GLOH    O1 9316   1.643   7.967   1.841  0.4267 -0.0454 -0.3637
   82GLOH    C1 9317   1.601   8.101   1.889  0.0093 -0.0074 -0.0094
   82GLOH   H02 9318   1.687   8.164   1.866  0.8613 -1.0746  0.1758
   82GLOH   H08 9319   1.589   8.110   1.997 -2.5498 -0.9648 -0.1873
   82GLOH    C2 9320   1.478   8.155   1.814  0.5502  0.2546  1.3004
   82GLOH   H04 9321   1.503   8.177   1.709 -0.2884 -0.1165  1.0177
   82GLOH    O2 9322   1.362   8.074   1.816  0.4795  0.1373  0.4972
   82GLOH   H05 9323   1.376   8.012   1.742 -0.1301  2.3240 -1.5093
   82GLOH    C3 9324   1.441   8.289   1.864 -0.5922 -0.2110 -0.2433
   82GLOH   H06 9325   1.408   8.287   1.967 -0.5699 -1.8749 -0.2456
   82GLOH   H07 9326   1.359   8.333   1.808 -0.8887  0.7213  0.9203
   82GLOH    O3 9327   1.548   8.387   1.858 -0.1446 -0.0407 -0.1802
   82GLOH   H01 9328   1.512   8.462   1.910  1.0037  0.6834 -0.3978
   83GLOH   H03 9329   3.971   0.159   2.921  0.1625  0.2473  0.9261
   83GLOH    O1 9330   3.880   0.144   2.890  0.6581 -0.1529 -0.3842
   83GLOH    C1 9331   3.786   0.199   2.984  0.7947  0.1888  0.2535
   83GLOH   H02 9332   3.696   0.218   2.926  1.6686 -0.1059 -1.2448
   83GLOH   H08 9333   3.822   0.292   3.027 -0.8587  0.9320  0.0530
   83GLOH    C2 9334   3.751   0.104   3.096  0.0408  0.8766 -0.5041
   83GLOH   H04 9335   3.838   0.078   3.159 -0.5365  2.1198  0.8211
   83GLOH    O2 9336   3.655   0.178   3.174 -0.2689  0.7504  0.1656
   83GLOH   H05 9337   3.706   0.252   3.211  1.1033 -0.5243  0.8706
   83GLOH    C3 9338   3.705  -0.035   3.036  0.3313  0.0543 -0.4668
   83GLOH   H06 9339   3.784  -0.053   2.963 -0.0388 -2.0243 -0.3825
   83GLOH   H07 9340   3.611  -0.022   2.983 -0.2380  1.3164  0.8155
   83GLOH    O3 9341   3.702  -0.139   3.137  0.5134 -0.4397  0.1057
   83GLOH   H01 9342   3.677  -0.225   3.099 -1.6238 -0.4321  1.3789
   84GLOH   H03 9343   8.062   2.643   2.324  0.2634  0.5545  1.4384
   84GLOH    O1 9344   8.084   2.726   2.278 -0.2313 -0.2187 -0.2332
   84GLOH    C1 9345   8.074   2.837   2.359  0.1028  0.2263  0.0929
   84GLOH   H02 9346   7.978   2.851   2.407 -0.9369 -1.1116 -1.5454
   84GLOH   H08 9347   8.086   2.924   2.294 -0.7518  0.0423 -0.3199
   84GLOH    C2 9348   8.177   2.841   2.476 -0.2563 -0.1955  0.2257
   84GLOH   H04 9349   8.280   2.838   2.440  0.1027  3.1145  0.8758
   84GLOH    O2 9350   8.162   2.955   2.555  0.0008 -0.6661 -0.2989
   84GLOH   H05 9351   8.204   3.030   2.509  0.6741  0.3946  1.9357
   84GLOH    C3 9352   8.167   2.717   2.566  0.0006 -0.1172 -0.3073
   84GLOH   H06 9353   8.074   2.709   2.622  0.2587  2.4581  0.5439
   84GLOH   H07 9354   8.243   2.739   2.641  2.1176  1.1293 -2.7530
   84GLOH    O3 9355   8.209   2.596   2.507 -0.1742 -0.0431  0.3166
   84GLOH   H01 9356   8.291   2.606   2.455 -0.8220 -1.8614 -1.1243
   85GLOH   H03 9357   2.318   7.517   1.742  0.1757  0.7591  0.5933
   85GLOH    O1 9358   2.291   7.485   1.830  0.3634 -0.5478  0.1918
   85GLOH    C1 9359   2.304   7.341   1.832  0.2202  0.1981  0.8991
   85GLOH   H02 9360   2.403   7.311   1.866  1.8734  1.4902 -2.5806
   85GLOH   H08 9361   2.294   7.299   1.732 -0.5070  0.2550  0.9441
   85GLOH    C2 9362   2.202   7.260   1.914  0.7883  0.0932 -0.3790
   85GLOH   H04 9363   2.200   7.301   2.016 -3.5473 -2.8236  0.8563
   85GLOH    O2 9364   2.070   7.276   1.855 -0.0117  0.1803 -0.3039
   85GLOH   H05 9365   2.022   7.333   1.917  1.0797  0.6365  0.1264
   85GLOH    C3 9366   2.228   7.110   1.939 -0.0444  0.0422  0.7143
   85GLOH   H06 9367   2.198   7.068   1.843  0.4219  1.3700 -0.0276
   85GLOH   H07 9368   2.162   7.069   2.015 -2.6738 -0.2120 -1.6258
   85GLOH    O3 9369   2.363   7.065   1.980  0.2804  0.4034 -0.2093
   85GLOH   H01 9370   2.410   7.046   1.897  1.5318 -0.5017  0.6873
   86GLOH   H03 9371   8.101   3.796   2.990  2.7826 -0.3348  0.4658
   86GLOH    O1 9372   8.101   3.703   3.020  1.0120 -0.4312  0.1963
   86GLOH    C1 9373   8.041   3.628   2.915  0.4970 -0.0366  0.1658
   86GLOH   H02 9374   7.940   3.665   2.899 -0.3279 -2.8562 -1.4621
   86GLOH   H08 9375   8.028   3.528   2.956 -0.6858  0.0169 -0.0555
   86GLOH    C2 9376   8.125   3.639   2.787 -0.1939 -1.0854 -0.1418
   86GLOH   H04 9377   8.233   3.622   2.802 -0.2597 -0.9280  0.5273
   86GLOH    O2 9378   8.084   3.546   2.684  0.0305  0.4657 -0.6414
   86GLOH   H05 9379   8.143   3.470   2.693 -0.1111  0.6557  2.4986
   86GLOH    C3 9380   8.122   3.784   2.726 -0.4755 -0.0850  0.2574
   86GLOH   H06 9381   8.020   3.800   2.693 -0.8091  0.0236  1.3088
   86GLOH   H07 9382   8.182   3.779   2.635 -1.2554  3.0234 -0.5106
   86GLOH    O3 9383   8.178   3.896   2.804  0.8099  1.1098  0.1235
   86GLOH   H01 9384   8.275   3.901   2.808  0.7306  1.8692  1.7805
   87GLOH   H03 9385   9.932   7.855   2.672  2.1571 -0.8217  1.9540
   87GLOH    O1 9386   9.909   7.873   2.765 -1.0504  0.6539  0.9423
   87GLOH    C1 9387   9.847   7.997   2.776  0.2928  0.0081 -0.2925
   87GLOH   H02 9388   9.756   7.991   2.715  0.2843 -0.5073 -0.2291
   87GLOH   H08 9389   9.918   8.071   2.739 -1.1508 -0.4142 -4.0916
   87GLOH    C2 9390   9.799   8.026   2.922  0.2219  0.6258 -0.2663
   87GLOH   H04 9391   9.745   8.121   2.913  1.9134  1.7414  1.2224
   87GLOH    O2 9392   9.706   7.917   2.964 -0.0755  0.0283  0.1650
   87GLOH   H05 9393   9.740   7.838   2.919  0.0833  0.5124 -0.5725
   87GLOH    C3 9394   9.916   8.043   3.020  0.4768  0.5206  0.2615
   87GLOH   H06 9395   9.971   7.950   3.025 -0.6261 -0.1884 -0.4906
   87GLOH   H07 9396   9.863   8.048   3.115  1.0856  2.1736  0.5330
   87GLOH    O3 9397  10.009   8.152   2.997  0.0957  0.1206  0.4592
   87GLOH   H01 9398  10.069   8.131   2.923 -0.6038  3.0129 -0.9853
   88GLOH   H03 9399   4.147   2.644   0.234 -1.8982  1.4009 -0.0286
   88GLOH    O1 9400   4.213   2.705   0.271  0.0197 -0.3627 -0.5093
   88GLOH    C1 9401   4.270   2.764   0.151  0.0627 -1.2059 -0.0276
   88GLOH   H02 9402   4.344   2.694   0.113  1.3817  0.7903 -1.2850
   88GLOH   H08 9403   4.337   2.844   0.183  0.2960 -0.9996 -1.0284
   88GLOH    C2 9404   4.173   2.799   0.043 -0.2010 -0.6773  0.0931
   88GLOH   H04 9405   4.108   2.877   0.085 -0.6773 -0.6037 -0.7710
   88GLOH    O2 9406   4.237   2.838  -0.080 -0.3611  0.1437 -0.3135
   88GLOH   H05 9407   4.208   2.782  -0.154 -0.2168  1.3900 -1.3337
   88GLOH    C3 9408   4.076   2.678   0.020  0.2690  0.3429 -0.1677
   88GLOH   H06 9409   4.131   2.601  -0.034  0.8479  1.7371 -1.5889
   88GLOH   H07 9410   3.996   2.718  -0.043 -1.3678 -1.9731  0.3499
   88GLOH    O3 9411   4.025   2.615   0.133 -0.1838  0.5300  0.2465
   88GLOH   H01 9412   3.938   2.578   0.108  0.6546  0.7561 -3.2876
   89GLOH   H03 9413   4.569   9.200   1.848 -1.2861 -0.9564  1.5629
   89GLOH    O1 9414   4.527   9.152   1.774  0.0116  0.4942 -0.1534
   89GLOH    C1 9415   4.444   9.243   1.702  0.0417 -0.2792  0.2805
   89GLOH   H02 9416   4.495   9.258   1.607  0.1717  0.7155  0.5091
   89GLOH   H08 9417   4.433   9.339   1.752 -0.7291  0.0231 -0.4376
   89GLOH    C2 9418   4.304   9.192   1.677 -0.0258 -0.2350  0.4162
   89GLOH   H04 9419   4.264   9.168   1.777  2.0747  0.7989  1.5361
   89GLOH    O2 9420   4.229   9.287   1.599 -0.1739  0.1496 -0.8310
   89GLOH   H05 9421   4.230   9.377   1.636 -4.6563  0.0456 -0.0855
   89GLOH    C3 9422   4.311   9.067   1.589  0.3365  0.4923  0.0838
   89GLOH   H06 9423   4.340   9.086   1.485  0.2344  0.2795  0.0172
   89GLOH   H07 9424   4.213   9.020   1.583  0.9759 -0.8907  0.4400
   89GLOH    O3 9425   4.406   8.971   1.650 -0.5043  0.1616  0.0829
   89GLOH   H01 9426   4.469   9.028   1.697 -1.3135 -0.1514  1.5689
   90GLOH   H03 9427   4.021   4.100   3.349  0.9333  0.8104  0.1777
   90GLOH    O1 9428   3.956   4.153   3.300  0.6654  0.4513  0.1469
   90GLOH    C1 9429   3.923   4.109   3.167 -0.0742 -0.2296  0.7010
   90GLOH   H02 9430   3.875   4.011   3.162 -0.0996 -0.2802  1.7483
   90GLOH   H08 9431   4.011   4.111   3.103 -0.0977 -0.3768  0.6637
   90GLOH    C2 9432   3.819   4.205   3.095  0.3275  0.6202 -0.8939
   90GLOH   H04 9433   3.813   4.174   2.990  2.1935 -1.5809 -0.4005
   90GLOH    O2 9434   3.687   4.178   3.150 -0.1228  0.0499 -0.3499
   90GLOH   H05 9435   3.701   4.218   3.237 -0.0970 -3.6492  1.4630
   90GLOH    C3 9436   3.872   4.345   3.103 -0.0337 -0.2022 -0.1052
   90GLOH   H06 9437   3.960   4.351   3.040  1.9706 -0.5899  2.5526
   90GLOH   H07 9438   3.884   4.364   3.210 -2.4193  3.4223 -0.3956
   90GLOH    O3 9439   3.767   4.433   3.046 -0.1875  0.5205 -0.1790
   90GLOH   H01 9440   3.687   4.434   3.101 -0.4684 -1.5853 -0.5131
   91GLOH   H03 9441   7.867   2.484   3.123  0.6106 -2.0545  1.7644
   91GLOH    O1 9442   7.874   2.440   3.035 -0.1268  0.5769  0.3471
   91GLOH    C1 9443   7.918   2.520   2.923  0.6391  0.5001  0.0288
   91GLOH   H02 9444   7.845   2.583   2.873  0.7625  1.1973  0.7225
   91GLOH   H08 9445   7.955   2.454   2.845  1.2827  0.0938  0.6751
   91GLOH    C2 9446   8.033   2.614   2.972  0.0449 -0.2848  0.1719
   91GLOH   H04 9447   8.103   2.550   3.027  1.1293  2.0209  1.5313
   91GLOH    O2 9448   8.107   2.664   2.864 -0.5998  0.5325  0.7504
   91GLOH   H05 9449   8.155   2.591   2.821 -0.4484 -0.1730  2.1031
   91GLOH    C3 9450   7.966   2.719   3.067 -0.1731 -0.1359 -0.0878
   91GLOH   H06 9451   7.883   2.762   3.011 -0.1328 -1.9426 -1.6018
   91GLOH   H07 9452   8.036   2.801   3.080 -0.2088 -0.2775  1.0426
   91GLOH    O3 9453   7.931   2.655   3.193  0.4677  0.2569  0.3521
   91GLOH   H01 9454   7.884   2.719   3.250 -0.7095  1.5789 -1.9818
   92GLOH   H03 9455   4.593   0.190   1.007 -0.5299  1.8038  1.1821
   92GLOH    O1 9456   4.523   0.213   0.944 -0.1774  0.2864  0.2084
   92GLOH    C1 9457   4.519   0.110   0.848  0.7783 -0.6786  0.6384
   92GLOH   H02 9458   4.603   0.114   0.779 -0.0061  0.3394 -0.2716
   92GLOH   H08 9459   4.430   0.127   0.788  1.6288  2.4203  0.1965
   92GLOH    C2 9460   4.527  -0.032   0.911  0.2135 -0.5565 -0.0941
   92GLOH   H04 9461   4.447  -0.052   0.984 -1.0214  2.2651 -0.6222
   92GLOH    O2 9462   4.500  -0.123   0.806 -0.1254 -0.7159 -0.8566
   92GLOH   H05 9463   4.572  -0.145   0.745  0.5232 -1.6634  0.2220
   92GLOH    C3 9464   4.667  -0.049   0.974  0.2036  0.2627 -0.2942
   92GLOH   H06 9465   4.736  -0.031   0.892  0.8560  2.6760  0.7283
   92GLOH   H07 9466   4.667  -0.151   1.011 -0.9747  0.7559  1.1398
   92GLOH    O3 9467   4.678   0.056   1.078 -0.1861 -0.2014 -0.4204
   92GLOH   H01 9468   4.651   0.023   1.165  2.0338  1.1314  0.8166
   93GLOH   H03 9469   4.511   0.170   2.797 -1.3345  0.1763 -1.6701
   93GLOH    O1 9470   4.496   0.258   2.758 -0.1813  1.0096 -0.3150
   93GLOH    C1 9471   4.563   0.368   2.821 -0.0946  0.3439 -0.1348
   93GLOH   H02 9472   4.611   0.339   2.915 -1.9118 -0.9318  0.4140
   93GLOH   H08 9473   4.493   0.445   2.853 -2.5065 -2.5445  1.8006
   93GLOH    C2 9474   4.683   0.442   2.748  0.6023 -0.4711 -0.3768
   93GLOH   H04 9475   4.641   0.478   2.653 -1.1049 -1.5439 -0.0730
   93GLOH    O2 9476   4.719   0.561   2.823  0.2840 -0.6274  0.3368
   93GLOH   H05 9477   4.774   0.615   2.764 -2.1012 -0.5796 -1.9501
   93GLOH    C3 9478   4.793   0.348   2.729 -0.4191 -0.0815  0.0992
   93GLOH   H06 9479   4.764   0.247   2.700  0.9636 -0.7836  1.1072
   93GLOH   H07 9480   4.856   0.341   2.818  1.7502  2.6256 -1.1391
   93GLOH    O3 9481   4.879   0.399   2.626  0.2239  0.1053  0.1027
   93GLOH   H01 9482   4.879   0.495   2.644 -0.7134  0.3550 -1.1451
   94GLOH   H03 9483   3.981   4.399   2.702  1.2731  0.4538  0.2692
   94GLOH    O1 9484   4.010   4.327   2.643  0.1181 -0.1017  0.3537
   94GLOH    C1 9485   4.002   4.204   2.726 -0.2984 -0.5013 -0.2723
   94GLOH   H02 9486   3.901   4.188   2.765 -0.7300  1.6242 -0.4752
   94GLOH   H08 9487   4.061   4.216   2.817  1.0602 -0.5261 -1.1487
   94GLOH    C2 9488   4.060   4.076   2.660 -0.0868  0.6975  0.4468
   94GLOH   H04 9489   4.164   4.097   2.630 -0.0892  0.1817  0.0658
   94GLOH    O2 9490   4.054   3.971   2.763 -0.0256  0.1060 -0.0011
   94GLOH   H05 9491   3.961   3.954   2.788 -0.2995  1.4572 -0.0386
   94GLOH    C3 9492   3.973   4.047   2.535 -0.7614  0.3397  0.3351
   94GLOH   H06 9493   4.007   3.951   2.499  0.1721  1.7092 -2.5600
   94GLOH   H07 9494   4.002   4.114   2.454  0.0406 -0.7957 -0.3336
   94GLOH    O3 9495   3.829   4.049   2.539  0.5901 -0.1726  0.8719
   94GLOH   H01 9496   3.802   4.002   2.619  1.2741 -4.4760 -1.2867
   95GLOH   H03 9497   4.488   8.068   0.712  0.3851 -0.3500 -1.1420
   95GLOH    O1 9498   4.572   8.063   0.763  0.0482 -0.1096 -0.5563
   95GLOH    C1 9499   4.561   7.965   0.864  0.7073 -0.2461  0.1030
   95GLOH   H02 9500   4.657   7.940   0.908  0.3604 -1.0078  0.4440
   95GLOH   H08 9501   4.517   7.875   0.819  0.4690  0.7739 -1.7431
   95GLOH    C2 9502   4.469   8.006   0.980 -0.2161 -0.4771 -0.5592
   95GLOH   H04 9503   4.365   8.020   0.946 -0.9204  0.9299  2.0336
   95GLOH    O2 9504   4.474   7.897   1.081  0.2724 -0.2482  0.1428
   95GLOH   H05 9505   4.402   7.911   1.144  0.9772 -0.3530  0.9940
   95GLOH    C3 9506   4.522   8.137   1.045 -0.5305  0.0660  0.5515
   95GLOH   H06 9507   4.539   8.208   0.965  0.4906 -0.7840  0.0135
   95GLOH   H07 9508   4.613   8.114   1.101  0.1195  3.4317  0.9914
   95GLOH    O3 9509   4.430   8.207   1.129  0.3791 -0.1869 -1.0188
   95GLOH   H01 9510   4.479   8.277   1.176  0.2830 -1.3482  0.8306
   96GLOH   H03 9511   3.669   4.821   3.030  0.6481 -0.5804  0.8770
   96GLOH    O1 9512   3.650   4.790   2.940 -0.0739  0.7007  0.5698
   96GLOH    C1 9513   3.772   4.765   2.870  0.3964 -0.2029 -0.1441
   96GLOH   H02 9514   3.854   4.731   2.933  0.9723  0.1210 -0.7222
   96GLOH   H08 9515   3.826   4.849   2.827  1.2726 -1.1572 -0.9449
   96GLOH    C2 9516   3.748   4.666   2.753  0.0275 -0.6180  0.1550
   96GLOH   H04 9517   3.674   4.589   2.781 -1.6448  0.9212  0.0240
   96GLOH    O2 9518   3.699   4.736   2.639 -0.1222 -0.1565 -0.9058
   96GLOH   H05 9519   3.611   4.768   2.663  0.0677 -1.6786  2.0086
   96GLOH    C3 9520   3.874   4.584   2.718  0.7127 -0.6099 -0.1061
   96GLOH   H06 9521   3.953   4.657   2.732  0.6306 -0.6369  0.5008
   96GLOH   H07 9522   3.877   4.570   2.610  3.4330  4.9806 -0.9559
   96GLOH    O3 9523   3.895   4.479   2.807 -0.1263 -0.0912 -0.6419
   96GLOH   H01 9524   3.852   4.494   2.893 -0.5991 -3.2967 -0.2320
   97GLOH   H03 9525   4.342   3.225   0.314 -2.1082  3.7150  0.2251
   97GLOH    O1 9526   4.425   3.275   0.315  0.4550 -0.3246  0.2385
   97GLOH    C1 9527   4.537   3.183   0.349  0.1688  0.5652 -0.1620
   97GLOH   H02 9528   4.635   3.225   0.328  0.5544 -1.5722 -2.9502
   97GLOH   H08 9529   4.534   3.099   0.280  4.0420  1.5383 -1.6724
   97GLOH    C2 9530   4.529   3.132   0.497  0.3297 -0.5605 -0.2093
   97GLOH   H04 9531   4.433   3.083   0.517 -0.0408 -0.2524 -1.2403
   97GLOH    O2 9532   4.624   3.027   0.524 -0.1207 -0.4069  0.1541
   97GLOH   H05 9533   4.631   3.007   0.619 -1.3453 -1.6173  0.0062
   97GLOH    C3 9534   4.549   3.248   0.592 -0.2343 -0.8737 -0.1419
   97GLOH   H06 9535   4.655   3.270   0.598 -0.1880  0.0540 -3.4684
   97GLOH   H07 9536   4.528   3.225   0.697  0.3711  2.5240  0.7877
   97GLOH    O3 9537   4.474   3.376   0.556  0.5009 -0.1824  0.0193
   97GLOH   H01 9538   4.422   3.364   0.474  4.8985  1.3064 -3.1247
   98GLOH   H03 9539   4.792   8.792   2.955  1.1361 -0.8745  1.6633
   98GLOH    O1 9540   4.868   8.823   2.903 -0.3900  0.3513  0.1345
   98GLOH    C1 9541   4.828   8.926   2.815  0.9114 -0.2565 -0.4919
   98GLOH   H02 9542   4.884   9.019   2.825 -0.6117  0.6309  0.0189
   98GLOH   H08 9543   4.724   8.950   2.838  0.3692  0.0652 -3.0872
   98GLOH    C2 9544   4.826   8.874   2.671  0.2486  0.3368 -0.4368
   98GLOH   H04 9545   4.761   8.786   2.657  0.0487  0.6861 -1.8110
   98GLOH    O2 9546   4.771   8.962   2.568 -0.3030  0.4358 -0.2505
   98GLOH   H05 9547   4.775   8.923   2.478  0.7730  1.6203 -0.7191
   98GLOH    C3 9548   4.978   8.847   2.636  0.1446 -0.2005 -0.2438
   98GLOH   H06 9549   5.031   8.942   2.641 -0.0394 -0.1043 -0.1326
   98GLOH   H07 9550   4.983   8.808   2.534 -0.3337  0.2787 -0.4491
   98GLOH    O3 9551   5.044   8.752   2.727  0.7140  0.8026 -0.0202
   98GLOH   H01 9552   4.994   8.747   2.810 -0.7877 -0.4411 -0.9637
   99GLOH   H03 9553   8.037   2.321   2.612 -0.5527  0.0290 -1.1305
   99GLOH    O1 9554   7.966   2.375   2.571 -0.3913  0.7635 -0.4530
   99GLOH    C1 9555   7.866   2.289   2.503  0.3057  0.0149 -0.7295
   99GLOH   H02 9556   7.773   2.345   2.501  0.9793  1.1731 -0.3226
   99GLOH   H08 9557   7.839   2.199   2.558  0.2976  0.7768  0.5130
   99GLOH    C2 9558   7.916   2.260   2.361 -0.3886 -0.0340  0.7039
   99GLOH   H04 9559   8.008   2.206   2.386 -1.3834 -2.0223  0.1960
   99GLOH    O2 9560   7.820   2.170   2.310 -0.2513 -0.2277 -0.0900
   99GLOH   H05 9561   7.845   2.152   2.218  0.8446  0.0612  0.1482
   99GLOH    C3 9562   7.938   2.389   2.274  0.1363 -0.4754 -0.6288
   99GLOH   H06 9563   7.843   2.442   2.275 -0.6898 -1.8548 -1.9674
   99GLOH   H07 9564   7.957   2.368   2.168  0.1124  3.3734 -1.4703
   99GLOH    O3 9565   8.034   2.480   2.339  0.6876  0.2903  0.6659
   99GLOH   H01 9566   8.023   2.476   2.436 -1.0504 -2.0065  0.4301
  100GLOH   H03 9567   9.491   5.458   0.402 -0.5931  0.7815 -0.3156
  100GLOH    O1 9568   9.409   5.408   0.389 -0.4102  0.4762 -0.3206
  100GLOH    C1 9569   9.405   5.383   0.245 -0.6934  0.8746  0.2885
  100GLOH   H02 9570   9.436   5.281   0.222  0.0817  1.5841 -1.9322
  100GLOH   H08 9571   9.464   5.463   0.200 -0.3417 -1.0343 -2.7760
  100GLOH    C2 9572   9.262   5.395   0.177 -0.2456  0.2838 -0.3421
  100GLOH   H04 9573   9.218   5.495   0.187 -1.0320 -0.0373 -0.5403
  100GLOH    O2 9574   9.270   5.366   0.036 -0.2681  0.2117 -0.2803
  100GLOH   H05 9575   9.296   5.273   0.024 -0.3413  0.2710 -0.9260
  100GLOH    C3 9576   9.176   5.289   0.247  0.0748 -0.2895 -1.0820
  100GLOH   H06 9577   9.223   5.193   0.226  1.1451  0.3682 -1.7782
  100GLOH   H07 9578   9.078   5.270   0.204 -1.0647 -0.3281  1.4343
  100GLOH    O3 9579   9.168   5.314   0.378  0.3100 -0.2229  0.1486
  100GLOH   H01 9580   9.247   5.359   0.413 -0.8623  1.4757  0.6724
  101GLOH   H03 9581   2.797   3.631   2.894 -0.2454 -0.2584  1.7551
  101GLOH    O1 9582   2.845   3.551   2.922 -0.0870 -0.8557 -0.1463
  101GLOH    C1 9583   2.968   3.564   2.849  0.3141 -0.1602 -0.4337
  101GLOH   H02 9584   3.033   3.477   2.862  0.1172 -0.0566  1.4180
  101GLOH   H08 9585   3.025   3.644   2.897  0.2786 -0.3731 -0.0359
  101GLOH    C2 9586   2.956   3.592   2.693  0.2534 -0.0057 -0.9086
  101GLOH   H04 9587   2.904   3.502   2.656 -0.1923 -0.0564 -0.1751
  101GLOH    O2 9588   2.865   3.706   2.679  0.1452  0.1843  0.2038
  101GLOH   H05 9589   2.826   3.697   2.590 -1.6323  1.0808  0.8687
  101GLOH    C3 9590   3.089   3.618   2.624  0.2143 -0.6080  0.7777
  101GLOH   H06 9591   3.134   3.711   2.657  0.0710  0.1275 -1.0334
  101GLOH   H07 9592   3.065   3.627   2.518  0.3496  0.3206  0.8235
  101GLOH    O3 9593   3.179   3.515   2.648  0.1662  0.1970  0.1982
  101GLOH   H01 9594   3.268   3.514   2.609 -0.8466 -0.3067 -2.1660
  102GLOH   H03 9595   1.887   2.886   1.612  0.0740  1.5389  1.1966
  102GLOH    O1 9596   1.936   2.837   1.680 -0.3831 -0.3861  0.1826
  102GLOH    C1 9597   1.847   2.799   1.783  0.8632 -0.0910 -0.2370
  102GLOH   H02 9598   1.804   2.889   1.827 -0.7967 -0.1860 -1.6110
  102GLOH   H08 9599   1.910   2.758   1.862  1.4143  1.3910  0.1073
  102GLOH    C2 9600   1.734   2.709   1.730  0.0084 -0.1959  0.3510
  102GLOH   H04 9601   1.779   2.609   1.733  2.0057  0.6018 -1.6149
  102GLOH    O2 9602   1.613   2.704   1.814  0.8533  0.4945  0.4103
  102GLOH   H05 9603   1.619   2.620   1.862  2.0002 -0.4048 -1.2464
  102GLOH    C3 9604   1.706   2.731   1.577  0.5431  0.0246 -0.2535
  102GLOH   H06 9605   1.617   2.676   1.547 -0.5288  1.5058  0.1471
  102GLOH   H07 9606   1.795   2.692   1.528 -0.9467 -0.7474 -2.4355
  102GLOH    O3 9607   1.691   2.873   1.536  0.5186  0.1923 -0.1604
  102GLOH   H01 9608   1.689   2.873   1.439 -0.4455  1.7092 -0.1531
  103GLOH   H03 9609   2.241   4.442   2.718 -0.1644  0.7163 -1.2500
  103GLOH    O1 9610   2.148   4.456   2.742  0.0047 -0.2673  0.0750
  103GLOH    C1 9611   2.079   4.567   2.680 -0.0599 -0.2520  0.2470
  103GLOH   H02 9612   2.068   4.554   2.573  2.4326 -2.6030  0.2185
  103GLOH   H08 9613   2.138   4.658   2.689  0.4088 -0.1723 -3.0552
  103GLOH    C2 9614   1.942   4.601   2.748 -0.3615 -0.6582  0.3809
  103GLOH   H04 9615   1.959   4.623   2.855 -0.1630  0.3777  0.1437
  103GLOH    O2 9616   1.882   4.711   2.682  0.1885 -0.0239 -0.6582
  103GLOH   H05 9617   1.808   4.732   2.741  1.5875 -0.2588  1.2229
  103GLOH    C3 9618   1.853   4.479   2.745 -0.1059 -0.2766 -0.8606
  103GLOH   H06 9619   1.874   4.425   2.652 -0.6564  0.2456 -1.2941
  103GLOH   H07 9620   1.748   4.507   2.738 -0.0185  0.1267 -0.5224
  103GLOH    O3 9621   1.863   4.382   2.849 -0.2262 -0.6675 -0.8158
  103GLOH   H01 9622   1.931   4.407   2.914 -0.3729  2.8642 -1.8856
  104GLOH   H03 9623   0.013   5.478   0.360  0.7011  0.0536 -0.2327
  104GLOH    O1 9624  -0.081   5.456   0.370  0.7674  0.0941  0.4612
  104GLOH    C1 9625  -0.108   5.369   0.485 -0.1996  0.4333 -0.1255
  104GLOH   H02 9626  -0.203   5.316   0.480 -0.0448  0.0945  0.5051
  104GLOH   H08 9627  -0.121   5.433   0.572 -1.0599 -1.3675  1.1060
  104GLOH    C2 9628   0.007   5.275   0.522  0.3346  0.1861 -0.3034
  104GLOH   H04 9629   0.042   5.217   0.435  1.6434 -1.0800  1.0486
  104GLOH    O2 9630   0.118   5.352   0.578 -0.2838  0.1077  0.2992
  104GLOH   H05 9631   0.092   5.434   0.623  0.5770 -0.4119  1.8105
  104GLOH    C3 9632  -0.029   5.158   0.620 -0.0915 -0.4356  0.0972
  104GLOH   H06 9633  -0.048   5.196   0.721  0.5313  0.1048  0.0154
  104GLOH   H07 9634   0.069   5.110   0.627  0.4348  0.6411  0.2079
  104GLOH    O3 9635  -0.122   5.072   0.569  0.7119 -0.2462 -0.5251
  104GLOH   H01 9636  -0.125   4.986   0.615  0.2789  0.6289  1.1185
  105GLOH   H03 9637   9.312   1.285   0.701 -0.2912 -0.7478 -0.4399
  105GLOH    O1 9638   9.298   1.382   0.705  0.7446 -0.6244  0.4762
  105GLOH    C1 9639   9.417   1.457   0.673 -0.5146  0.1520  0.3928
  105GLOH   H02 9640   9.487   1.435   0.754 -3.1210 -0.4349  2.5587
  105GLOH   H08 9641   9.388   1.561   0.686 -0.1854  0.0944  1.6174
  105GLOH    C2 9642   9.492   1.438   0.540 -0.4773  0.0131  0.9114
  105GLOH   H04 9643   9.463   1.337   0.507  0.1482  0.6047 -1.4962
  105GLOH    O2 9644   9.447   1.527   0.441 -0.4471 -0.0424  0.3976
  105GLOH   H05 9645   9.491   1.531   0.354 -3.3540  0.1422 -1.1310
  105GLOH    C3 9646   9.647   1.421   0.547 -0.0399 -0.0449  0.3839
  105GLOH   H06 9647   9.675   1.428   0.442  0.9889  0.0128  0.6610
  105GLOH   H07 9648   9.668   1.324   0.592  0.3388  0.6165  1.6640
  105GLOH    O3 9649   9.708   1.534   0.620  0.3454 -0.2675  0.4904
  105GLOH   H01 9650   9.780   1.572   0.566 -0.6482 -0.5732 -1.1071
  106GLOH   H03 9651   1.383   4.137   1.828  1.4528  0.2340 -1.1100
  106GLOH    O1 9652   1.317   4.109   1.762  0.1690  0.2941  0.1213
  106GLOH    C1 9653   1.197   4.066   1.817  0.5743 -0.5552  0.0410
  106GLOH   H02 9654   1.215   4.031   1.919 -1.2518 -0.1742  0.5036
  106GLOH   H08 9655   1.167   3.979   1.759  1.1910 -0.3693 -0.5652
  106GLOH    C2 9656   1.081   4.164   1.831 -0.3575 -0.4659 -0.0753
  106GLOH   H04 9657   1.046   4.183   1.729  0.2597 -0.7426 -0.3350
  106GLOH    O2 9658   0.971   4.103   1.897 -0.5397  0.0931 -0.4978
  106GLOH   H05 9659   0.958   4.125   1.990 -1.0305 -1.0375 -0.2890
  106GLOH    C3 9660   1.123   4.300   1.890 -0.0852 -0.6709 -0.5559
  106GLOH   H06 9661   1.187   4.290   1.978 -1.2172  0.0941  0.3626
  106GLOH   H07 9662   1.038   4.355   1.930  1.7929  1.5651  0.5413
  106GLOH    O3 9663   1.196   4.384   1.798 -0.1737  0.4369 -0.4490
  106GLOH   H01 9664   1.257   4.338   1.737 -0.5697  0.4811 -0.8907
  107GLOH   H03 9665   0.860   8.690   2.100 -1.6445  0.6983  1.7554
  107GLOH    O1 9666   0.937   8.715   2.154 -0.0372 -0.0714 -0.1559
  107GLOH    C1 9667   1.041   8.796   2.090 -0.5746  0.0642 -0.0049
  107GLOH   H02 9668   1.026   8.816   1.984 -0.9804 -0.1063  0.0191
  107GLOH   H08 9669   1.132   8.736   2.086  0.4774  1.6876 -1.0208
  107GLOH    C2 9670   1.066   8.923   2.172  0.6991  0.2941 -0.4668
  107GLOH   H04 9671   1.093   8.901   2.276  1.9492  0.0253 -0.8404
  107GLOH    O2 9672   1.178   8.992   2.111 -0.3084 -0.2851 -0.2853
  107GLOH   H05 9673   1.148   9.058   2.046  0.3413  0.6825  0.3813
  107GLOH    C3 9674   0.937   9.007   2.167  0.1492  0.2582 -0.7588
  107GLOH   H06 9675   0.914   9.029   2.063  0.6559 -0.1609 -0.9633
  107GLOH   H07 9676   0.969   9.105   2.203  2.5659  0.2665 -2.8147
  107GLOH    O3 9677   0.819   8.957   2.242  0.3008  0.8421 -0.0311
  107GLOH   H01 9678   0.795   9.025   2.308 -4.4951  0.4797 -1.1926
  108GLOH   H03 9679   4.575   9.574   0.526  0.4954 -0.8168 -1.9263
  108GLOH    O1 9680   4.652   9.544   0.578  0.2339  0.4000 -0.8096
  108GLOH    C1 9681   4.589   9.517   0.702 -0.8255 -0.1257 -0.4167
  108GLOH   H02 9682   4.483   9.540   0.703 -0.7803  0.0594  0.7124
  108GLOH   H08 9683   4.646   9.564   0.782 -0.2446  0.0124 -0.9051
  108GLOH    C2 9684   4.597   9.370   0.744 -0.4505 -0.4229  0.4878
  108GLOH   H04 9685   4.701   9.335   0.747 -0.2077  0.1857 -0.6421
  108GLOH    O2 9686   4.534   9.349   0.872  0.5499 -0.1642  0.5158
  108GLOH   H05 9687   4.478   9.271   0.881 -1.7543  1.4391  0.3432
  108GLOH    C3 9688   4.540   9.284   0.627 -0.1136 -0.2327  0.3450
  108GLOH   H06 9689   4.549   9.180   0.658  3.9151  0.3649  1.4137
  108GLOH   H07 9690   4.609   9.295   0.543 -2.1742  0.4472 -1.3091
  108GLOH    O3 9691   4.402   9.295   0.590  0.3979  0.8599  1.1489
  108GLOH   H01 9692   4.352   9.225   0.635  1.9953 -0.9327  0.2177
  109GLOH   H03 9693   4.239   2.826   0.387 -0.8109  0.5401  0.1952
  109GLOH    O1 9694   4.262   2.891   0.455 -0.3450  0.6145 -0.0334
  109GLOH    C1 9695   4.282   2.815   0.575 -0.3276  0.0282  0.3095
  109GLOH   H02 9696   4.216   2.728   0.566  0.3597 -0.5296  0.5517
  109GLOH   H08 9697   4.245   2.866   0.664 -2.6876 -0.9578 -0.0563
  109GLOH    C2 9698   4.426   2.765   0.582 -0.8188  0.1310  0.2742
  109GLOH   H04 9699   4.490   2.831   0.522  0.7243 -0.6741  1.0011
  109GLOH    O2 9700   4.470   2.756   0.716 -0.5353 -0.5062  0.2972
  109GLOH   H05 9701   4.510   2.838   0.748  0.6408 -1.3615  1.0573
  109GLOH    C3 9702   4.461   2.627   0.508  0.1526 -0.3738 -0.6994
  109GLOH   H06 9703   4.567   2.602   0.521 -0.1163 -0.9156  0.5254
  109GLOH   H07 9704   4.456   2.639   0.400  0.7908  1.8854 -0.5159
  109GLOH    O3 9705   4.385   2.511   0.547 -0.1632 -0.0318  0.1815
  109GLOH   H01 9706   4.307   2.497   0.491  1.3332 -0.4779 -1.8579
  110GLOH   H03 9707   8.068   3.440   1.605  0.5690 -0.2213  0.4705
  110GLOH    O1 9708   8.033   3.352   1.627 -0.1224  0.0245  0.3773
  110GLOH    C1 9709   8.030   3.357   1.770 -0.1201  0.3474  0.0269
  110GLOH   H02 9710   7.945   3.411   1.813  0.8581  0.0282  2.4020
  110GLOH   H08 9711   8.121   3.403   1.806  0.7661 -1.5960  0.3352
  110GLOH    C2 9712   8.020   3.210   1.818 -1.0924 -0.7954  0.1435
  110GLOH   H04 9713   8.117   3.166   1.789 -0.3593  0.9555 -0.0876
  110GLOH    O2 9714   8.017   3.205   1.963  0.4764 -0.2729  0.4248
  110GLOH   H05 9715   8.094   3.260   1.982 -0.7616  1.9024 -0.6787
  110GLOH    C3 9716   7.903   3.138   1.753  0.2632  0.3792  0.0213
  110GLOH   H06 9717   7.812   3.181   1.795  0.3086  0.4707  0.0264
  110GLOH   H07 9718   7.917   3.040   1.798  0.3937 -0.1332 -1.1359
  110GLOH    O3 9719   7.904   3.135   1.608 -0.1923 -0.5693  0.3181
  110GLOH   H01 9720   7.950   3.220   1.593 -2.3562  0.5529 -0.2053
  111GLOH   H03 9721   4.172   2.617   2.726  1.0172  0.8285 -0.3786
  111GLOH    O1 9722   4.140   2.676   2.797  0.1039 -0.1260  0.0039
  111GLOH    C1 9723   4.097   2.590   2.906 -0.2480 -0.1771  0.9394
  111GLOH   H02 9724   4.189   2.547   2.946 -1.6455 -2.5028  1.7481
  111GLOH   H08 9725   4.037   2.509   2.866  2.8068 -2.2857  0.4394
  111GLOH    C2 9726   4.011   2.665   3.014 -0.3676  0.8554 -0.6145
  111GLOH   H04 9727   3.972   2.589   3.084 -0.0264 -1.1499 -2.5524
  111GLOH    O2 9728   4.094   2.756   3.094  0.8542  0.2536  0.4863
  111GLOH   H05 9729   4.125   2.829   3.038  1.4382 -0.2588  0.1432
  111GLOH    C3 9730   3.888   2.733   2.952 -0.7822 -0.5721  0.3542
  111GLOH   H06 9731   3.922   2.814   2.887 -1.6219  0.2570  0.9360
  111GLOH   H07 9732   3.842   2.798   3.027  2.9165  1.7704  0.7701
  111GLOH    O3 9733   3.797   2.646   2.890  0.8404 -0.2576  0.7678
  111GLOH   H01 9734   3.713   2.694   2.886  0.2574 -1.2247  1.1544
  112GLOH   H03 9735   2.440   5.282   0.484 -0.4805 -0.5693 -0.4019
  112GLOH    O1 9736   2.530   5.257   0.456  0.0056  0.2317  0.4427
  112GLOH    C1 9737   2.544   5.122   0.404 -0.1170  0.1971  0.7888
  112GLOH   H02 9738   2.447   5.071   0.408 -1.3600  2.0883 -2.6490
  112GLOH   H08 9739   2.611   5.068   0.470 -1.6078 -0.4112  1.8476
  112GLOH    C2 9740   2.610   5.103   0.266  0.0991  0.5137  0.2165
  112GLOH   H04 9741   2.707   5.154   0.269  0.8836 -0.8699 -1.1438
  112GLOH    O2 9742   2.634   4.968   0.222  0.3545 -0.0805  0.0978
  112GLOH   H05 9743   2.708   4.972   0.158 -0.5393  0.4637 -0.9337
  112GLOH    C3 9744   2.522   5.173   0.164 -0.0333 -0.0451 -0.7743
  112GLOH   H06 9745   2.481   5.266   0.201 -0.0424 -0.2973 -0.1561
  112GLOH   H07 9746   2.437   5.113   0.133 -0.5613 -0.6898  1.8375
  112GLOH    O3 9747   2.598   5.196   0.044  0.7706  0.3048  0.0362
  112GLOH   H01 9748   2.563   5.132  -0.020 -3.1036  1.3391  0.9393
  113GLOH   H03 9749   0.558   2.538   3.436  1.6190 -2.7792 -1.2901
  113GLOH    O1 9750   0.588   2.517   3.527 -0.0846  0.6232  0.1468
  113GLOH    C1 9751   0.513   2.396   3.545  0.1964 -0.5224  0.0993
  113GLOH   H02 9752   0.405   2.406   3.544  0.2302  0.0670 -3.0636
  113GLOH   H08 9753   0.536   2.347   3.640  2.3295  0.1814 -0.0292
  113GLOH    C2 9754   0.551   2.290   3.440  0.9045  0.2461  0.3678
  113GLOH   H04 9755   0.483   2.209   3.470 -1.4047  1.0941 -2.3813
  113GLOH    O2 9756   0.517   2.329   3.306  0.2709  0.8333  0.0226
  113GLOH   H05 9757   0.430   2.371   3.317 -0.3158 -0.2320 -0.5146
  113GLOH    C3 9758   0.704   2.256   3.445  0.6018 -0.0482 -0.9463
  113GLOH   H06 9759   0.727   2.223   3.546 -1.2195  5.1824  1.3164
  113GLOH   H07 9760   0.760   2.347   3.424  0.1990  0.6023  0.7612
  113GLOH    O3 9761   0.748   2.151   3.354 -0.2905 -0.4069 -0.6634
  113GLOH   H01 9762   0.844   2.138   3.354 -0.0451  1.2291  0.1147
  114GLOH   H03 9763   9.891   9.648   3.295  1.5668 -1.0038  0.4135
  114GLOH    O1 9764   9.927   9.657   3.205  0.4855 -0.3139  0.0442
  114GLOH    C1 9765   9.855   9.765   3.136  0.0387 -0.0091  0.2839
  114GLOH   H02 9766   9.923   9.817   3.069  1.3617 -4.1770 -1.7780
  114GLOH   H08 9767   9.814   9.841   3.203 -3.7005 -1.4760 -0.1954
  114GLOH    C2 9768   9.751   9.706   3.032 -0.1349 -0.1963  0.5307
  114GLOH   H04 9769   9.692   9.797   3.015  0.1966  0.1312  1.0922
  114GLOH    O2 9770   9.814   9.659   2.915 -0.4208 -0.2517  0.0067
  114GLOH   H05 9771   9.887   9.602   2.945 -0.0833 -1.0247 -2.1412
  114GLOH    C3 9772   9.662   9.595   3.091 -0.0886 -0.1590  0.3268
  114GLOH   H06 9773   9.724   9.507   3.107  2.3631  2.0028  3.1305
  114GLOH   H07 9774   9.594   9.552   3.016  1.4997  1.1225 -1.9256
  114GLOH    O3 9775   9.592   9.636   3.206 -0.3619 -0.6694 -0.0787
  114GLOH   H01 9776   9.570   9.730   3.197  0.2310 -0.4335  0.8602
  115GLOH   H03 9777   9.246   1.472   0.138  0.5025 -0.5626  1.6776
  115GLOH    O1 9778   9.213   1.381   0.149 -0.0541 -0.5654  0.0737
  115GLOH    C1 9779   9.325   1.285   0.153 -0.3702  0.8960  0.3434
  115GLOH   H02 9780   9.391   1.316   0.234 -0.0581 -0.9283  0.8072
  115GLOH   H08 9781   9.370   1.281   0.054 -0.1703 -1.3984  0.4996
  115GLOH    C2 9782   9.291   1.143   0.198  0.4613  0.6180  1.0098
  115GLOH   H04 9783   9.227   1.103   0.117 -0.6548  1.9626  1.2049
  115GLOH    O2 9784   9.403   1.048   0.206  0.2544 -0.3895 -0.1623
  115GLOH   H05 9785   9.361   0.960   0.207  1.3910 -0.9510  0.1660
  115GLOH    C3 9786   9.214   1.150   0.326  0.4519 -0.5261  0.6331
  115GLOH   H06 9787   9.148   1.237   0.325 -0.6342 -1.3329 -0.8853
  115GLOH   H07 9788   9.283   1.176   0.406 -0.0349 -0.4470  1.0335
  115GLOH    O3 9789   9.136   1.028   0.354  0.0627 -0.6356 -0.5026
  115GLOH   H01 9790   9.193   0.960   0.314  2.6643  0.7570  0.7717
  116GLOH   H03 9791   0.355   7.079   0.445  0.9162  0.3517 -0.0524
  116GLOH    O1 9792   0.341   7.121   0.532  0.9048  0.2193  0.0099
  116GLOH    C1 9793   0.469   7.146   0.591 -1.0924 -0.6832 -0.1559
  116GLOH   H02 9794   0.542   7.081   0.544  1.4747  0.4693  2.1140
  116GLOH   H08 9795   0.474   7.124   0.697  2.3509 -0.2135 -0.1669
  116GLOH    C2 9796   0.525   7.293   0.575 -0.1031 -0.3501 -0.2427
  116GLOH   H04 9797   0.448   7.363   0.612  0.2088  0.2489 -0.7178
  116GLOH    O2 9798   0.650   7.297   0.648  0.5476 -0.2246 -0.2179
  116GLOH   H05 9799   0.629   7.279   0.741 -1.7990  2.6959 -0.1016
  116GLOH    C3 9800   0.565   7.326   0.428  0.6108 -0.6336 -0.4122
  116GLOH   H06 9801   0.660   7.278   0.406  0.2967 -0.9001 -1.2106
  116GLOH   H07 9802   0.580   7.434   0.418  0.7535 -0.5952  0.2162
  116GLOH    O3 9803   0.460   7.303   0.328  0.3125 -0.0543 -0.0253
  116GLOH   H01 9804   0.379   7.341   0.365  1.3249 -0.1704  2.3585
  117GLOH   H03 9805   7.747   2.393   0.200 -2.4024 -0.5626 -1.5857
  117GLOH    O1 9806   7.691   2.456   0.249 -0.5369 -0.1822  0.1073
  117GLOH    C1 9807   7.729   2.592   0.219 -0.5091 -0.0493  0.2968
  117GLOH   H02 9808   7.670   2.652   0.288  1.3085  1.4038  0.6269
  117GLOH   H08 9809   7.694   2.625   0.121  0.2585 -2.1171 -0.6967
  117GLOH    C2 9810   7.879   2.630   0.230 -0.0649 -0.1039  0.0462
  117GLOH   H04 9811   7.926   2.578   0.145 -0.0209 -1.6100  0.9627
  117GLOH    O2 9812   7.890   2.774   0.207  0.0014  0.1391 -0.0717
  117GLOH   H05 9813   7.902   2.821   0.291 -0.1642  0.8370 -0.4420
  117GLOH    C3 9814   7.939   2.589   0.369 -0.0718 -0.2950  0.7648
  117GLOH   H06 9815   7.939   2.480   0.373 -0.5478 -0.4825 -2.4882
  117GLOH   H07 9816   7.878   2.632   0.449  1.5207  0.8734  1.3655
  117GLOH    O3 9817   8.080   2.624   0.376  0.1338  0.3742 -0.2465
  117GLOH   H01 9818   8.126   2.593   0.296  0.0446  0.1655 -0.2172
  118GLOH   H03 9819   4.122   7.513   1.185  1.5376 -0.7619  1.5480
  118GLOH    O1 9820   4.106   7.586   1.247 -0.6617  0.3392 -0.2290
  118GLOH    C1 9821   4.192   7.566   1.365 -0.2251  0.2062  0.6173
  118GLOH   H02 9822   4.278   7.630   1.348 -1.3143  0.9824 -2.2105
  118GLOH   H08 9823   4.220   7.463   1.384 -0.0254  0.0035 -0.7522
  118GLOH    C2 9824   4.120   7.615   1.491 -0.8872  0.6755  0.1078
  118GLOH   H04 9825   4.087   7.716   1.465  1.2540  1.0082 -1.3794
  118GLOH    O2 9826   4.002   7.541   1.524 -0.0700 -0.1119  0.9233
  118GLOH   H05 9827   3.921   7.585   1.495  0.8018  0.9630  0.0584
  118GLOH    C3 9828   4.218   7.632   1.607 -0.3472  0.4439  0.5058
  118GLOH   H06 9829   4.277   7.541   1.617  0.5720  1.3139  3.3884
  118GLOH   H07 9830   4.157   7.645   1.696  0.4276 -0.2075  1.1406
  118GLOH    O3 9831   4.306   7.739   1.595  0.4853 -0.4772  0.0309
  118GLOH   H01 9832   4.374   7.752   1.664  0.0882  3.6445 -0.1946
  119GLOH   H03 9833   9.867   5.808   1.903  0.1659  0.5399  0.3116
  119GLOH    O1 9834   9.814   5.889   1.913 -0.2746  0.2988 -0.0829
  119GLOH    C1 9835   9.735   5.890   1.794  1.0289  0.2838 -0.5700
  119GLOH   H02 9836   9.776   5.958   1.720 -1.1078  0.5469 -1.5600
  119GLOH   H08 9837   9.635   5.920   1.825  0.3435 -0.3991 -2.0680
  119GLOH    C2 9838   9.716   5.751   1.729  1.1144 -0.4223  0.4169
  119GLOH   H04 9839   9.646   5.699   1.797 -0.9104 -1.6188 -2.4796
  119GLOH    O2 9840   9.657   5.778   1.601 -0.3588  0.5035 -0.0938
  119GLOH   H05 9841   9.666   5.693   1.555  0.2473  1.4571 -1.7819
  119GLOH    C3 9842   9.845   5.666   1.715 -1.0514  0.5176  0.0658
  119GLOH   H06 9843   9.917   5.713   1.648 -0.2962  0.4931  0.8474
  119GLOH   H07 9844   9.818   5.574   1.663 -0.8671 -0.3245  1.4436
  119GLOH    O3 9845   9.898   5.641   1.848  0.2600 -0.3988  0.3901
  119GLOH   H01 9846   9.852   5.570   1.896 -2.1935 -0.0176 -1.3041
  120GLOH   H03 9847   9.870   1.976   2.154 -1.3091  0.0514  0.7605
  120GLOH    O1 9848   9.831   2.029   2.082  0.2658 -0.1141 -0.2544
  120GLOH    C1 9849   9.757   1.938   1.997  0.0503 -0.0415 -0.1513
  120GLOH   H02 9850   9.652   1.939   2.024  0.1610 -2.0631  0.4192
  120GLOH   H08 9851   9.792   1.836   2.015 -0.4643 -0.1142  0.4426
  120GLOH    C2 9852   9.778   1.967   1.853  0.2668  1.6858  0.4168
  120GLOH   H04 9853   9.757   2.074   1.840  0.8607  1.6112 -1.3796
  120GLOH    O2 9854   9.919   1.959   1.818 -0.1406 -0.4227 -0.2475
  120GLOH   H05 9855   9.962   2.042   1.845 -1.2196  0.5512 -1.4566
  120GLOH    C3 9856   9.699   1.870   1.766  0.9610 -0.4115 -1.1661
  120GLOH   H06 9857   9.732   1.766   1.776  2.3642  0.0059 -1.4317
  120GLOH   H07 9858   9.712   1.895   1.660 -1.5114  1.4544 -1.0653
  120GLOH    O3 9859   9.557   1.872   1.783 -0.5441  0.1058  0.1843
  120GLOH   H01 9860   9.531   1.796   1.728 -0.1853  2.2189 -3.0126
  121ACOH    H4 9861   7.186   1.040   0.794 -1.1660 -0.5686  1.1156
  121ACOH    O2 9862   7.226   0.967   0.843 -0.0837 -0.5557  0.2585
  121ACOH    C2 9863   7.280   1.000   0.961  0.6439 -0.6486 -0.1332
  121ACOH    O1 9864   7.269   1.113   1.016 -0.9487  0.2489  0.5859
  121ACOH    C1 9865   7.336   0.880   1.032 -0.3923  0.4518 -0.0988
  121ACOH    H1 9866   7.438   0.897   1.068 -0.3392 -0.8281  0.4030
  121ACOH    H2 9867   7.344   0.797   0.962  2.0724  1.0494 -0.5804
  121ACOH    H3 9868   7.265   0.847   1.107  0.3582  1.2530  0.9775
  122ACOH    H4 9869   4.045   7.254   0.033 -1.1985 -0.7622 -1.2567
  122ACOH    O2 9870   4.064   7.173   0.083 -0.4063  0.2152  0.0481
  122ACOH    C2 9871   4.164   7.197   0.172 -0.0523  0.4129  0.4178
  122ACOH    O1 9872   4.215   7.309   0.189 -0.0205 -0.1346 -0.4481
  122ACOH    C1 9873   4.215   7.066   0.228 -0.4138  0.6825 -0.0566
  122ACOH    H1 9874   4.224   7.072   0.336  1.2499  1.5167 -0.2285
  122ACOH    H2 9875   4.315   7.038   0.195 -0.3119 -0.6021  1.3037
  122ACOH    H3 9876   4.142   6.990   0.199 -0.6758  1.6215 -1.9478
  123ACOH    H4 9877   4.845   3.011   1.903  0.2179 -0.1415 -0.0593
  123ACOH    O2 9878   4.793   2.952   1.960 -0.3694  0.5266  0.1048
  123ACOH    C2 9879   4.680   2.921   1.889  0.0662 -0.4400 -0.0744
  123ACOH    O1 9880   4.652   2.936   1.773 -0.3113 -0.1598  0.8620
  123ACOH    C1 9881   4.599   2.823   1.964  1.1346  0.1350 -0.3441
  123ACOH    H1 9882   4.612   2.845   2.070 -1.8393  0.1178  0.0607
  123ACOH    H2 9883   4.624   2.721   1.932  0.6002 -0.3727  0.8331
  123ACOH    H3 9884   4.494   2.840   1.940  0.9957  0.7173  0.6733
  124ACOH    H4 9885   5.949   0.091   2.772  0.7258 -1.6996  3.7895
  124ACOH    O2 9886   6.007   0.166   2.793  0.0646 -0.0600  0.2208
  124ACOH    C2 9887   6.108   0.140   2.711 -0.7697 -0.8059 -0.0814
  124ACOH    O1 9888   6.122   0.049   2.635  0.0863  0.3232 -0.0985
  124ACOH    C1 9889   6.198   0.254   2.716 -0.7698 -0.8111  0.0583
  124ACOH    H1 9890   6.261   0.273   2.628  0.9792  2.0548  1.8302
  124ACOH    H2 9891   6.266   0.237   2.800 -1.2057  1.4105  0.8900
  124ACOH    H3 9892   6.138   0.341   2.741 -0.6165 -0.4941 -0.6661
  125ACOH    H4 9893   0.702   3.841   1.788  0.7126 -0.1452 -2.7454
  125ACOH    O2 9894   0.643   3.910   1.753 -0.8483 -0.1173 -0.2282
  125ACOH    C2 9895   0.703   3.946   1.642  0.5213 -0.5261 -0.0334
  125ACOH    O1 9896   0.789   3.880   1.587  0.1695 -0.0669 -0.5284
  125ACOH    C1 9897   0.614   4.043   1.568  0.2653 -0.1400 -0.3894
  125ACOH    H1 9898   0.510   4.011   1.573  0.3257 -0.0068  2.3896
  125ACOH    H2 9899   0.655   4.060   1.468  0.7241  1.6172  0.0877
  125ACOH    H3 9900   0.628   4.135   1.625 -1.8483 -0.4800  0.7043
  126ACOH    H4 9901   8.004   4.320   0.846  0.0744  1.1530 -1.5368
  126ACOH    O2 9902   7.916   4.302   0.810 -0.2855  0.0283 -0.1425
  126ACOH    C2 9903   7.833   4.403   0.848 -0.5352  0.3236  0.0445
  126ACOH    O1 9904   7.873   4.515   0.852 -0.2842 -0.3757  0.9664
  126ACOH    C1 9905   7.692   4.367   0.821  0.2541  0.0204  0.1624
  126ACOH    H1 9906   7.677   4.381   0.714  0.9537 -0.9856 -0.0755
  126ACOH    H2 9907   7.638   4.436   0.885  0.6984 -0.3755  0.9727
  126ACOH    H3 9908   7.674   4.262   0.846  2.2613 -0.3753  0.0026
  127ACOH    H4 9909   4.940   0.286   2.574  0.8849 -1.2227  2.7112
  127ACOH    O2 9910   5.001   0.216   2.544  0.7170 -0.0853 -0.4828
  127ACOH    C2 9911   5.046   0.247   2.417 -0.7929 -0.0019 -0.5230
  127ACOH    O1 9912   5.029   0.340   2.347  0.0298  0.6161  0.2782
  127ACOH    C1 9913   5.138   0.140   2.368  1.0082 -0.2877  0.6765
  127ACOH    H1 9914   5.134   0.049   2.428 -0.5837  0.6276  2.0179
  127ACOH    H2 9915   5.237   0.184   2.369  0.9918 -0.0073 -3.0785
  127ACOH    H3 9916   5.113   0.113   2.266 -2.6419  4.2368  0.2246
  128ACOH    H4 9917   3.866   5.115   0.824 -0.3604  0.9100  1.2782
  128ACOH    O2 9918   3.947   5.162   0.849  0.6164 -0.2710  0.4271
  128ACOH    C2 9919   4.008   5.192   0.730  0.3328 -0.1891 -0.8070
  128ACOH    O1 9920   4.003   5.127   0.630 -0.3297 -0.3466  0.1146
  128ACOH    C1 9921   4.082   5.321   0.733  0.0208  0.1464 -0.2836
  128ACOH    H1 9922   4.033   5.399   0.675 -1.2549 -2.4530 -2.8367
  128ACOH    H2 9923   4.178   5.305   0.683 -1.4527 -2.9027 -2.2964
  128ACOH    H3 9924   4.103   5.364   0.831 -2.2177  1.0059 -0.1439
  129ACOH    H4 9925   0.232   7.169   0.610 -1.2795  1.3679 -2.3884
  129ACOH    O2 9926   0.146   7.189   0.650 -0.4459  0.0547  0.2136
  129ACOH    C2 9927   0.141   7.164   0.779 -0.5012 -0.5448 -0.4134
  129ACOH    O1 9928   0.229   7.130   0.852  0.1183  0.0305 -0.2817
  129ACOH    C1 9929   0.006   7.197   0.831  0.1526 -0.2482  0.0353
  129ACOH    H1 9930  -0.057   7.130   0.773 -1.0842  1.7510 -1.0272
  129ACOH    H2 9931  -0.012   7.303   0.811 -2.8306 -0.5782  0.6855
  129ACOH    H3 9932  -0.005   7.175   0.937  0.9889  0.8010  0.3505
  130ACOH    H4 9933   3.844   4.610   1.902  1.0634 -0.2161  0.6697
  130ACOH    O2 9934   3.873   4.557   1.825 -0.1592 -0.5745  0.4429
  130ACOH    C2 9935   3.837   4.617   1.717  0.3828 -0.2374 -0.0417
  130ACOH    O1 9936   3.767   4.719   1.716 -0.0716  0.7487 -0.0091
  130ACOH    C1 9937   3.885   4.561   1.582  0.2437  0.0838 -0.5668
  130ACOH    H1 9938   3.821   4.483   1.540 -0.4831 -0.3468  1.3086
  130ACOH    H2 9939   3.985   4.517   1.580  0.4657  0.5685 -0.2406
  130ACOH    H3 9940   3.886   4.637   1.503 -0.1734  0.2373 -0.4228
  131ACOH    H4 9941   8.248   4.777   3.235  0.9368 -2.3487 -0.6384
  131ACOH    O2 9942   8.200   4.802   3.155 -0.3730  0.1632  0.8795
  131ACOH    C2 9943   8.273   4.791   3.040 -0.0411  0.0531 -0.2294
  131ACOH    O1 9944   8.378   4.734   3.034 -0.2733 -0.4940  0.3728
  131ACOH    C1 9945   8.173   4.816   2.927 -0.8858  0.0876 -0.6179
  131ACOH    H1 9946   8.123   4.726   2.891 -2.9140  1.6455 -1.8274
  131ACOH    H2 9947   8.224   4.869   2.847  0.2969  0.4525  0.3555
  131ACOH    H3 9948   8.095   4.884   2.960 -0.9825  0.6343 -1.9589
  132ACOH    H4 9949   2.752   7.531   3.099  1.7724  0.5880 -1.2159
  132ACOH    O2 9950   2.713   7.612   3.062 -0.2860  0.1124 -0.1806
  132ACOH    C2 9951   2.785   7.655   2.958  0.1219 -0.2655  0.3026
  132ACOH    O1 9952   2.886   7.600   2.914  0.2618  0.0550 -0.7413
  132ACOH    C1 9953   2.726   7.775   2.903  0.0417  0.2654 -0.1160
  132ACOH    H1 9954   2.631   7.787   2.954 -1.2601 -1.9664 -1.9665
  132ACOH    H2 9955   2.707   7.767   2.796  2.1292 -0.8630 -0.4452
  132ACOH    H3 9956   2.785   7.864   2.926  0.1613 -0.3620  2.1305
  133ACOH    H4 9957   3.722   8.229   2.314  1.5013 -1.9390 -0.4278
  133ACOH    O2 9958   3.676   8.176   2.248  0.1994 -0.4922 -0.6947
  133ACOH    C2 9959   3.628   8.060   2.304 -0.1207  0.2887 -0.0442
  133ACOH    O1 9960   3.650   8.018   2.416  0.1171 -0.3870  0.3137
  133ACOH    C1 9961   3.542   7.987   2.206  0.2494 -0.5304 -0.5088
  133ACOH    H1 9962   3.453   8.049   2.194  0.0592 -0.8177 -0.5620
  133ACOH    H2 9963   3.511   7.893   2.250 -0.4393 -1.0781 -2.1514
  133ACOH    H3 9964   3.596   7.961   2.115  1.2776 -0.9232  0.1964
  134ACOH    H4 9965   7.391   0.188   3.178 -0.0221 -0.1479  0.5564
  134ACOH    O2 9966   7.469   0.172   3.235 -0.1848 -0.5539  0.6673
  134ACOH    C2 9967   7.569   0.262   3.204  0.2659  0.4522  0.2207
  134ACOH    O1 9968   7.569   0.357   3.128  0.2005  0.1601 -0.1083
  134ACOH    C1 9969   7.669   0.254   3.314  0.0496  0.2021 -0.8097
  134ACOH    H1 9970   7.722   0.347   3.333 -2.0810  1.1722  0.5732
  134ACOH    H2 9971   7.740   0.178   3.281  0.3232 -0.4768  1.2902
  134ACOH    H3 9972   7.630   0.224   3.411  1.4595  0.1804 -0.2438
  135ACOH    H4 9973   8.618   3.783   1.451  1.2801  0.9600 -1.5966
  135ACOH    O2 9974   8.555   3.811   1.383 -0.3339 -0.0484 -0.5538
  135ACOH    C2 9975   8.453   3.857   1.450  0.4503 -0.3306 -0.1430
  135ACOH    O1 9976   8.464   3.926   1.554 -0.3038 -0.3471 -0.3196
  135ACOH    C1 9977   8.340   3.876   1.356 -0.6761 -0.3705  0.0645
  135ACOH    H1 9978   8.281   3.967   1.360 -0.0798 -0.0391  1.5469
  135ACOH    H2 9979   8.270   3.793   1.360 -0.7357 -0.3790 -0.8639
  135ACOH    H3 9980   8.375   3.873   1.252  1.8577  0.0350  0.8678
  136ACOH    H4 9981   7.068   1.563   0.624 -1.1417  0.1884  0.8887
  136ACOH    O2 9982   6.980   1.572   0.584 -0.8511  0.1940  0.2338
  136ACOH    C2 9983   6.902   1.459   0.611  0.6941 -1.0911  0.4290
  136ACOH    O1 9984   6.946   1.355   0.645 -0.7174  0.5373  0.1921
  136ACOH    C1 9985   6.753   1.471   0.597 -0.0365 -0.2876 -0.2893
  136ACOH    H1 9986   6.720   1.569   0.632  0.6942  0.2914 -1.1971
  136ACOH    H2 9987   6.696   1.394   0.648  0.3684 -1.3753 -1.4557
  136ACOH    H3 9988   6.734   1.465   0.489 -0.5112  4.4510 -0.6002
  137ACOH    H4 9989   4.184   3.678   2.026  0.8448  0.3770  0.3286
  137ACOH    O2 9990   4.173   3.741   2.099 -0.4679 -0.0565  0.5155
  137ACOH    C2 9991   4.220   3.670   2.205  0.0960  0.1782 -0.1001
  137ACOH    O1 9992   4.244   3.549   2.202  0.2620  0.0345  0.1034
  137ACOH    C1 9993   4.248   3.748   2.325  0.3450  0.3851  0.3325
  137ACOH    H1 9994   4.237   3.855   2.311 -1.2908  0.5409  2.4609
  137ACOH    H2 9995   4.344   3.716   2.364  1.2129  1.9235 -0.5287
  137ACOH    H3 9996   4.170   3.725   2.398 -2.6909  1.2507 -2.4838
  138ACOH    H4 9997   1.222   9.197   3.090  0.4365  0.7226 -1.8720
  138ACOH    O2 9998   1.287   9.267   3.074  0.1735  1.2736 -0.5561
  138ACOH    C2 9999   1.342   9.220   2.956  0.5886 -0.2366 -0.8745
  138ACOH    O110000   1.375   9.104   2.941 -0.7304 -0.3237 -0.3647
  138ACOH    C110001   1.408   9.320   2.871  0.2495 -0.6440  0.1860
  138ACOH    H110002   1.337   9.401   2.852  0.7963  0.0159  0.9511
  138ACOH    H210003   1.450   9.285   2.776  0.8131  0.0561  0.1719
  138ACOH    H310004   1.496   9.361   2.921 -0.6685  2.2202 -0.4255
  139ACOH    H410005   3.955   7.341   1.041  0.8066 -0.5695  0.1051
  139ACOH    O210006   3.897   7.266   1.062 -0.0178  0.1144  0.3138
  139ACOH    C210007   3.819   7.296   1.167 -0.1008  0.3741 -0.2545
  139ACOH    O110008   3.829   7.394   1.238  0.2198  0.0992 -0.4977
  139ACOH    C110009   3.721   7.189   1.200 -0.1728 -0.3123  0.8971
  139ACOH    H110010   3.721   7.117   1.118 -0.2832  0.3121  0.3437
  139ACOH    H210011   3.624   7.237   1.207  0.2273  0.8218 -0.9896
  139ACOH    H310012   3.762   7.139   1.288  1.1283 -0.2094  0.3738
  140ACOH    H410013   8.209   5.418   0.867 -0.1080 -0.6527 -0.4027
  140ACOH    O210014   8.143   5.376   0.925 -0.0069  0.2846  0.3954
  140ACOH    C210015   8.029   5.410   0.868 -0.0725 -0.0491  0.4630
  140ACOH    O110016   8.002   5.440   0.751 -0.2622 -0.3700 -0.5412
  140ACOH    C110017   7.924   5.377   0.973 -1.0809  0.2349 -0.1016
  140ACOH    H110018   7.878   5.281   0.950 -0.1174 -0.3270  0.2749
  140ACOH    H210019   7.838   5.444   0.972 -2.5889 -1.5835  2.2877
  140ACOH    H310020   7.966   5.383   1.073 -0.1118 -3.2436 -0.2310
  141ACOH    H410021   2.636   3.176   1.024  0.6239  1.1842  1.4589
  141ACOH    O210022   2.552   3.221   1.045 -0.3465  0.1646 -0.0721
  141ACOH    C210023   2.560   3.338   0.973 -0.2204  0.0030  0.3018
  141ACOH    O110024   2.660   3.390   0.935 -0.1611 -0.1757 -0.2937
  141ACOH    C110025   2.424   3.400   0.982  0.3838  0.2990 -0.5031
  141ACOH    H110026   2.349   3.331   1.021 -0.6594  1.4782 -0.3894
  141ACOH    H210027   2.400   3.422   0.878  1.3661  1.5328 -0.4836
  141ACOH    H310028   2.430   3.491   1.041  1.9503 -1.2436  1.8065
  142ACOH    H410029   8.116   3.789   0.164 -0.4207  0.0935 -0.9879
  142ACOH    O210030   8.054   3.863   0.154 -0.5623  0.1500  0.2861
  142ACOH    C210031   8.025   3.886   0.024  0.1776 -0.7396  0.0031
  142ACOH    O110032   8.101   3.858  -0.071 -0.3250 -0.4154 -0.1989
  142ACOH    C110033   7.892   3.947   0.001  0.2662 -0.6338 -1.0102
  142ACOH    H110034   7.915   4.049  -0.028 -1.2607 -0.3768 -1.3330
  142ACOH    H210035   7.820   3.930   0.081  0.4674 -0.4445 -0.7907
  142ACOH    H310036   7.850   3.907  -0.091 -0.0105 -1.9180 -0.3459
  143ACOH    H410037   5.555   9.772   2.378 -0.1346  0.1557 -0.9593
  143ACOH    O210038   5.629   9.833   2.395  0.1790 -0.4200 -0.2399
  143ACOH    C210039   5.576   9.954   2.428 -1.3725  0.0109  0.6440
  143ACOH    O110040   5.457   9.987   2.428  0.1247 -0.0513  0.0695
  143ACOH    C110041   5.685  10.046   2.476 -0.0899  0.0621 -0.0639
  143ACOH    H110042   5.777   9.992   2.498 -0.0248  0.6909  1.2458
  143ACOH    H210043   5.652  10.102   2.564  0.9923  2.2825 -1.0240
  143ACOH    H310044   5.699  10.121   2.398 -0.8581  3.3387  2.8418
  144ACOH    H410045   2.378   1.881   0.054 -1.1405  0.1712 -1.4459
  144ACOH    O210046   2.390   1.974   0.029 -0.4962  0.5004  0.0461
  144ACOH    C210047   2.503   1.972  -0.044 -0.4611 -0.5054  0.3370
  144ACOH    O110048   2.553   1.872  -0.090 -0.0184 -0.4471  0.1987
  144ACOH    C110049   2.553   2.106  -0.051  0.1223  0.4974 -0.5780
  144ACOH    H110050   2.485   2.155  -0.120 -0.4533 -2.9891 -2.6038
  144ACOH    H210051   2.658   2.101  -0.081  0.5641  0.5770  0.9441
  144ACOH    H310052   2.543   2.152   0.047 -0.8377  0.4694 -0.6575
  145ACOH    H410053   7.227   1.595   2.511 -0.2245  0.2245  0.6339
  145ACOH    O210054   7.216   1.505   2.545 -0.5381  0.0984  0.2000
  145ACOH    C210055   7.132   1.437   2.469 -0.8115  0.1499 -0.5783
  145ACOH    O110056   7.043   1.485   2.411  0.6060  0.3538 -0.3800
  145ACOH    C110057   7.167   1.297   2.470 -0.0994 -0.1327  0.2663
  145ACOH    H110058   7.250   1.286   2.400 -0.0039  0.5691  0.2593
  145ACOH    H210059   7.094   1.220   2.445  0.0323  0.5016 -2.3021
  145ACOH    H310060   7.201   1.274   2.570 -0.4282 -2.0198 -0.0303
  146ACOH    H410061   9.690   6.490   1.663 -0.7248 -0.9606 -1.0831
  146ACOH    O210062   9.682   6.416   1.726  0.5725 -0.8187 -0.7169
  146ACOH    C210063   9.801   6.374   1.763 -0.1030  0.6009 -0.3712
  146ACOH    O110064   9.903   6.440   1.764  0.0251 -0.1260  0.0561
  146ACOH    C110065   9.788   6.236   1.822 -0.6416 -0.3696  0.7055
  146ACOH    H110066   9.690   6.189   1.820 -0.5157 -0.6048  0.0384
  146ACOH    H210067   9.823   6.236   1.926  1.8274  0.1335 -0.1037
  146ACOH    H310068   9.852   6.173   1.761 -1.1753  2.2120 -2.6295
  147ACOH    H410069   2.319   8.298   3.164 -0.9202  1.8651  0.8784
  147ACOH    O210070   2.273   8.244   3.231  0.2838  0.2895  0.4789
  147ACOH    C210071   2.158   8.313   3.259 -0.4402  0.1996 -0.3497
  147ACOH    O110072   2.148   8.436   3.250  0.5198 -0.2465  0.1155
  147ACOH    C110073   2.062   8.235   3.352  0.4292 -0.3765  0.0400
  147ACOH    H110074   2.101   8.141   3.390  0.1079  0.1372  1.6934
  147ACOH    H210075   1.976   8.208   3.290  1.0052 -0.9482 -0.5170
  147ACOH    H310076   2.049   8.294   3.442  1.8851  0.2033 -0.1250
  148ACOH    H410077   4.801   9.592   0.583 -0.7685 -0.0529 -0.1379
  148ACOH    O210078   4.871   9.658   0.571 -0.5354 -0.3010 -0.1660
  148ACOH    C210079   4.803   9.775   0.576 -0.8438 -0.3358  0.2846
  148ACOH    O110080   4.745   9.813   0.675 -0.9577 -0.8064  0.7179
  148ACOH    C110081   4.878   9.874   0.495  0.2831 -0.0346  0.2622
  148ACOH    H110082   4.957   9.927   0.548  2.4161 -2.0685 -0.7876
  148ACOH    H210083   4.801   9.944   0.462 -1.4981 -1.6108  0.9924
  148ACOH    H310084   4.922   9.819   0.412 -0.6112  0.8272 -0.7986
  149ACOH    H410085   4.746   2.053   1.993  0.3784  0.9066 -3.1888
  149ACOH    O210086   4.804   1.977   1.976  0.0131 -0.1983  0.1974
  149ACOH    C210087   4.914   2.033   1.944 -0.3052  0.4907  0.1629
  149ACOH    O110088   4.951   2.141   1.977  0.1173  0.4784 -0.5269
  149ACOH    C110089   5.016   1.939   1.899 -0.0729  0.4667  0.1090
  149ACOH    H110090   5.084   1.983   1.827  0.2555  0.0779  0.1789
  149ACOH    H210091   4.972   1.854   1.847  0.5007 -0.2083  0.7111
  149ACOH    H310092   5.074   1.913   1.988 -2.2020 -0.2978  1.3220
  150ACOH    H410093   5.098   8.473   2.873  2.8660  0.7400  2.0830
  150ACOH    O210094   5.060   8.538   2.935  0.0850  0.5507  0.6666
  150ACOH    C210095   4.974   8.470   3.014  0.1210  0.1336 -0.1281
  150ACOH    O110096   4.900   8.377   2.975  0.1878 -0.1390 -0.5412
  150ACOH    C110097   4.961   8.531   3.146 -0.0384  0.2017  0.0067
  150ACOH    H110098   5.049   8.520   3.210 -0.0836  0.8190  0.1767
  150ACOH    H210099   4.871   8.494   3.197 -1.1521  2.2360 -0.4563
  150ACOH    H310100   4.937   8.635   3.127 -0.0672 -0.0973 -1.6034
  151ACOH    H410101   7.347   1.266   1.063 -0.7573  0.1067 -0.4626
  151ACOH    O210102   7.387   1.345   1.103 -0.4699 -0.2959  0.0618
  151ACOH    C210103   7.339   1.448   1.036  0.0650 -0.0892 -0.8549
  151ACOH    O110104   7.280   1.445   0.930 -0.4418 -0.0922  0.2418
  151ACOH    C110105   7.357   1.582   1.094 -0.4559  0.4974 -0.1400
  151ACOH    H110106   7.327   1.581   1.198 -2.1977 -0.3198 -0.6293
  151ACOH    H210107   7.278   1.647   1.055 -2.2206 -0.9018  1.0319
  151ACOH    H310108   7.459   1.620   1.081 -0.2720 -0.5363 -1.8915
  152ACOH    H410109   4.655   7.628   0.241  2.7408 -1.4045  2.1969
  152ACOH    O210110   4.705   7.598   0.163  0.0810 -0.5141  0.0877
  152ACOH    C210111   4.641   7.484   0.132 -0.2427  0.4861  0.3689
  152ACOH    O110112   4.525   7.459   0.159  0.2083 -0.2151 -0.2595
  152ACOH    C110113   4.741   7.388   0.088  0.1874 -0.2489 -0.6990
  152ACOH    H110114   4.749   7.321   0.174 -1.8510  0.4631  0.0935
  152ACOH    H210115   4.838   7.431   0.066  0.2613 -1.5345 -3.0284
  152ACOH    H310116   4.700   7.335   0.002  1.8950 -0.1278 -1.5922
  153ACOH    H410117   4.919   3.088   1.581  0.4710 -0.2029 -0.1473
  153ACOH    O210118   4.952   3.179   1.590 -0.5239  0.2250 -0.7492
  153ACOH    C210119   4.978   3.184   1.719 -0.0553  0.6928 -0.7213
  153ACOH    O110120   4.976   3.099   1.802  0.3483  0.7732 -0.1437
  153ACOH    C110121   5.055   3.311   1.741 -1.0112  0.2955  0.4898
  153ACOH    H110122   4.991   3.392   1.708 -0.1295  1.4198  1.4912
  153ACOH    H210123   5.150   3.315   1.687 -2.2302 -0.4685 -1.7763
  153ACOH    H310124   5.076   3.325   1.847 -0.2638 -0.2842  0.4216
  154ACOH    H410125   0.143   7.084   2.207  0.7696 -0.3002  0.1776
  154ACOH    O210126   0.132   7.022   2.133 -0.2480  0.0631  0.0247
  154ACOH    C210127   0.023   7.069   2.073  0.3769 -0.7540 -0.0420
  154ACOH    O110128  -0.043   7.171   2.093  0.2380  0.0531 -0.2253
  154ACOH    C110129   0.002   6.985   1.954  0.5258  0.0014  0.1670
  154ACOH    H110130   0.017   6.883   1.988  2.1180  0.1620 -0.0234
  154ACOH    H210131   0.084   7.014   1.889 -1.3832  3.1934 -0.9491
  154ACOH    H310132  -0.090   6.998   1.896  0.7102  0.1607 -0.0864
  155ACOH    H410133   7.762   3.403   1.574 -0.0652 -2.0735 -0.5053
  155ACOH    O210134   7.712   3.359   1.645  0.0345  0.4022  1.1584
  155ACOH    C210135   7.630   3.280   1.569  0.8878 -0.4085  0.3758
  155ACOH    O110136   7.596   3.313   1.457  0.0267 -0.3967 -0.0849
  155ACOH    C110137   7.553   3.175   1.647 -0.1889 -0.7928 -0.6062
  155ACOH    H110138   7.621   3.089   1.656 -0.4402 -0.9720 -0.4357
  155ACOH    H210139   7.456   3.149   1.606 -1.3727  1.7439  0.4713
  155ACOH    H310140   7.528   3.202   1.750 -1.7612 -0.5702 -1.0468
  156ACOH    H410141   4.744   9.898   1.782 -0.4248  0.5738  0.2176
  156ACOH    O210142   4.671   9.881   1.720  0.0451  0.1085 -0.2254
  156ACOH    C210143   4.607   9.778   1.774 -0.3478 -0.1912  0.4248
  156ACOH    O110144   4.650   9.701   1.857  0.1247 -0.1633  0.1836
  156ACOH    C110145   4.480   9.771   1.700  1.3391  0.2547 -0.3011
  156ACOH    H110146   4.483   9.688   1.629  0.0561 -1.4592  1.5573
  156ACOH    H210147   4.465   9.857   1.636  0.7980  0.8155  0.5727
  156ACOH    H310148   4.399   9.746   1.769  0.4098  0.4561 -1.3146
  157ACOH    H410149   4.529   1.362   0.873  0.9813  0.3200  0.0168
  157ACOH    O210150   4.515   1.327   0.784 -0.4788 -0.3697  0.4940
  157ACOH    C210151   4.469   1.196   0.796 -0.0868  0.3180 -0.3078
  157ACOH    O110152   4.470   1.125   0.894 -0.6786  0.5361 -0.5222
  157ACOH    C110153   4.448   1.143   0.665 -0.3089 -0.7515  0.2239
  157ACOH    H110154   4.402   1.215   0.598 -0.5242 -1.3471 -0.2734
  157ACOH    H210155   4.389   1.051   0.672 -0.4712 -0.6919 -0.3825
  157ACOH    H310156   4.547   1.118   0.626 -0.5145  2.7451 -2.7000
  158ACOH    H410157   5.456   8.758   2.825  1.3118  1.8033 -1.2291
  158ACOH    O210158   5.533   8.717   2.869 -0.7588 -1.0231 -0.1048
  158ACOH    C210159   5.542   8.760   3.001  0.1269  0.2312 -0.1870
  158ACOH    O110160   5.479   8.857   3.045 -0.3288  0.2182  0.1126
  158ACOH    C110161   5.631   8.681   3.092  0.1686  0.6337 -0.6903
  158ACOH    H110162   5.563   8.598   3.114 -0.1650  0.7800 -1.1637
  158ACOH    H210163   5.667   8.732   3.181 -0.3198 -0.2180 -0.0025
  158ACOH    H310164   5.720   8.640   3.043 -0.0180 -0.4055 -0.1685
  159ACOH    H410165   4.586   0.685   2.847 -0.2471 -0.4552 -1.8094
  159ACOH    O210166   4.535   0.768   2.856  0.4713 -0.1851 -0.0787
  159ACOH    C210167   4.461   0.762   2.965 -0.2142 -0.6071  0.3301
  159ACOH    O110168   4.460   0.672   3.048  0.1782  0.2170  0.7317
  159ACOH    C110169   4.377   0.887   2.988 -0.4784 -1.2563 -0.1357
  159ACOH    H110170   4.384   0.946   2.897  0.3692 -0.6516  0.3188
  159ACOH    H210171   4.422   0.935   3.075  1.4824 -2.4755 -0.4382
  159ACOH    H310172   4.274   0.863   3.017 -0.7639  0.2921  0.1425
  160ACOH    H410173   1.421   5.533   2.033 -1.1587  1.6526  0.9355
  160ACOH    O210174   1.500   5.590   2.031 -0.0440  0.1099  0.3747
  160ACOH    C210175   1.607   5.510   2.052 -0.5646 -0.1755 -0.1092
  160ACOH    O110176   1.619   5.392   2.050 -0.6908 -0.6683  0.3523
  160ACOH    C110177   1.727   5.593   2.069 -0.2384  0.0799 -1.4037
  160ACOH    H110178   1.817   5.533   2.051  0.7786  0.7599  1.2210
  160ACOH    H210179   1.728   5.640   2.167 -0.9091 -2.6564 -0.0137
  160ACOH    H310180   1.718   5.670   1.993 -0.7701  0.4329 -0.9825
  161ACOH    H410181   7.769   2.308   1.435  0.0877  0.3239 -3.0877
  161ACOH    O210182   7.708   2.233   1.420  0.2390 -0.4462 -0.0660
  161ACOH    C210183   7.596   2.300   1.373  0.6771  0.1300  0.0824
  161ACOH    O110184   7.588   2.418   1.344  0.1168 -0.2525  0.0410
  161ACOH    C110185   7.480   2.214   1.348  0.1104  0.4524 -0.2870
  161ACOH    H110186   7.498   2.133   1.277 -2.9383  0.1186 -0.7550
  161ACOH    H210187   7.401   2.278   1.309  0.8712  0.6266 -1.5775
  161ACOH    H310188   7.440   2.168   1.438 -0.6793  2.1153  0.2252
  162ACOH    H410189   2.485   7.070   2.292 -2.0012  1.6354  1.5660
  162ACOH    O210190   2.536   7.054   2.373  0.6354  0.2319 -0.3280
  162ACOH    C210191   2.551   7.170   2.439  0.1851 -0.4957  0.5236
  162ACOH    O110192   2.527   7.285   2.394 -0.5496  0.1332 -0.9725
  162ACOH    C110193   2.593   7.147   2.577  0.4648  0.7678 -0.4106
  162ACOH    H110194   2.527   7.078   2.630 -1.5518  2.7429 -0.2713
  162ACOH    H210195   2.583   7.233   2.644  0.6625 -0.5643  1.3790
  162ACOH    H310196   2.697   7.115   2.580  0.2829  0.0009 -2.0839
  163ACOH    H410197   3.967   4.293   0.630 -2.2272 -0.4127  1.9404
  163ACOH    O210198   4.021   4.315   0.707  0.1058  0.3996  0.1237
  163ACOH    C210199   4.105   4.209   0.722  0.1159 -0.9537 -0.4645
  163ACOH    O110200   4.143   4.134   0.637  0.0569 -0.3323 -1.0516
  163ACOH    C110201   4.163   4.211   0.851  0.3414 -0.7494 -0.2230
  163ACOH    H110202   4.213   4.307   0.861  0.4468 -0.9651  1.4207
  163ACOH    H210203   4.231   4.127   0.865 -1.0746 -2.0488 -0.9761
  163ACOH    H310204   4.078   4.212   0.919  1.7419  0.9306  1.5357
  164ACOH    H410205   3.612   5.422   2.016  2.0998  1.2688 -0.1797
  164ACOH    O210206   3.609   5.424   1.919  0.0195  0.0151 -0.1694
  164ACOH    C210207   3.480   5.441   1.875  0.0758 -0.2620 -0.2061
  164ACOH    O110208   3.381   5.470   1.939  0.3193  0.7403  0.2069
  164ACOH    C110209   3.477   5.434   1.729 -0.7039  0.0752  0.4550
  164ACOH    H110210   3.548   5.358   1.695 -1.2033  1.1412 -3.1307
  164ACOH    H210211   3.516   5.529   1.694 -0.7417 -0.5722 -1.3606
  164ACOH    H310212   3.379   5.406   1.691 -0.3714  0.0801 -0.4202
  165ACOH    H410213   5.836   8.544   1.613  0.4227  0.1701  0.5194
  165ACOH    O210214   5.851   8.506   1.525 -0.5798  0.3009  0.2877
  165ACOH    C210215   5.752   8.553   1.449  0.4515  0.1723 -0.4446
  165ACOH    O110216   5.650   8.607   1.488  0.4580 -0.0753  0.4971
  165ACOH    C110217   5.763   8.507   1.305 -0.3954 -0.1638  0.7976
  165ACOH    H110218   5.762   8.398   1.308  1.0711 -0.1808  1.0855
  165ACOH    H210219   5.865   8.538   1.280 -0.2020  0.2991  2.0787
  165ACOH    H310220   5.688   8.558   1.245  0.5438  0.1486 -0.1266
  166ACOH    H410221   6.412   9.462   2.013  0.5922  2.4650  0.7123
  166ACOH    O210222   6.428   9.462   1.917 -0.4398 -0.4645  0.4858
  166ACOH    C210223   6.431   9.332   1.875  0.5601  0.1026 -0.1864
  166ACOH    O110224   6.410   9.233   1.944 -0.3480 -0.1437 -0.0030
  166ACOH    C110225   6.434   9.318   1.724  1.2836 -0.1479  0.4116
  166ACOH    H110226   6.348   9.259   1.693  1.6597 -0.0482 -0.8816
  166ACOH    H210227   6.528   9.268   1.698  1.9185  1.9573 -1.5816
  166ACOH    H310228   6.435   9.415   1.673  4.4629 -1.2100 -1.7282
  167ACOH    H410229   8.490   0.467   3.392  1.2884 -0.5329 -0.4071
  167ACOH    O210230   8.441   0.389   3.423 -0.4870  0.4594 -0.6582
  167ACOH    C210231   8.315   0.429   3.449 -0.2828  0.7292  0.0650
  167ACOH    O110232   8.284   0.549   3.464  0.0937  0.8679 -0.1300
  167ACOH    C110233   8.224   0.320   3.494  0.2685 -0.4462  0.6621
  167ACOH    H110234   8.237   0.297   3.599  1.0255 -1.1652  0.4213
  167ACOH    H210235   8.257   0.235   3.433  0.6699  1.0990 -1.3210
  167ACOH    H310236   8.123   0.340   3.458 -1.2304 -5.3474  1.7300
  168ACOH    H410237   6.083   9.279   1.544 -1.1104 -1.1293 -1.2265
  168ACOH    O210238   6.122   9.285   1.455  0.9801  0.3934 -0.2413
  168ACOH    C210239   6.184   9.178   1.413 -0.2444  0.5805 -0.4004
  168ACOH    O110240   6.225   9.093   1.493 -0.3668  0.2303  0.2801
  168ACOH    C110241   6.211   9.172   1.261 -0.2024  0.5058 -0.1915
  168ACOH    H110242   6.257   9.263   1.222 -1.6789  1.2699 -0.2172
  168ACOH    H210243   6.123   9.151   1.201  0.5462 -0.7429 -0.8660
  168ACOH    H310244   6.288   9.098   1.238 -0.1898  0.7287 -0.8822
  169ACOH    H410245   7.369   0.719   1.682 -0.8826 -0.0990  0.1353
  169ACOH    O210246   7.325   0.694   1.599 -0.0206 -0.4275 -0.2266
  169ACOH    C210247   7.356   0.786   1.505 -0.0328 -0.8979 -0.8699
  169ACOH    O110248   7.396   0.898   1.533 -0.0176 -0.0562  0.2214
  169ACOH    C110249   7.288   0.752   1.380  0.1251  0.3097 -0.0534
  169ACOH    H110250   7.203   0.685   1.390 -1.2190  1.7280 -1.6854
  169ACOH    H210251   7.354   0.692   1.316 -1.4937  0.1159 -1.5952
  169ACOH    H310252   7.251   0.841   1.331  2.3801  1.2269 -0.1378
  170ACOH    H410253   8.087   4.595   2.618 -0.6721  0.5686  2.7302
  170ACOH    O210254   8.025   4.668   2.601  0.0003  0.5797 -0.0028
  170ACOH    C210255   7.905   4.626   2.639 -0.3014  0.2280 -0.1797
  170ACOH    O110256   7.885   4.536   2.716 -0.5939 -0.2933  0.5695
  170ACOH    C110257   7.796   4.718   2.591  1.2671  0.7133  0.1124
  170ACOH    H110258   7.842   4.817   2.580  0.0869  1.4006  1.2979
  170ACOH    H210259   7.717   4.724   2.666  0.4922  1.0348 -0.7227
  170ACOH    H310260   7.759   4.694   2.492 -1.5687  2.1658  0.7823
  171ACOH    H410261   5.438   7.710   2.367 -0.7028  1.9196 -0.7825
  171ACOH    O210262   5.419   7.738   2.459 -0.4042 -0.1295 -0.0842
  171ACOH    C210263   5.435   7.630   2.532 -0.2306  0.6469  0.4341
  171ACOH    O110264   5.462   7.521   2.492 -0.1738 -0.3746  0.2128
  171ACOH    C110265   5.409   7.666   2.674 -0.8075 -0.2625  0.1039
  171ACOH    H110266   5.491   7.705   2.735 -0.6076 -1.1093  0.3844
  171ACOH    H210267   5.382   7.575   2.728 -1.6602 -0.7397 -1.1149
  171ACOH    H310268   5.335   7.746   2.677  0.1160  0.6270 -0.4289
  172ACOH    H410269   7.486   5.383   0.673 -0.8268  0.0872 -1.2319
  172ACOH    O210270   7.390   5.402   0.674 -0.8266  0.0771 -0.0887
  172ACOH    C210271   7.333   5.285   0.702  0.6427 -0.1861 -0.6838
  172ACOH    O110272   7.389   5.182   0.736 -0.0438  0.1375  0.7671
  172ACOH    C110273   7.188   5.284   0.670  0.2662  0.3731  0.5113
  172ACOH    H110274   7.129   5.298   0.760  1.1632  0.1266  1.1428
  172ACOH    H210275   7.153   5.199   0.612  0.0695 -0.6686  2.1340
  172ACOH    H310276   7.163   5.360   0.595  0.7343 -0.1905 -0.2247
  173ACOH    H410277   8.524   4.145   1.108 -0.6300 -1.2370  0.1394
  173ACOH    O210278   8.509   4.135   1.204 -0.3588 -0.3322  0.2814
  173ACOH    C210279   8.401   4.217   1.226 -0.8830  0.1774 -0.4223
  173ACOH    O110280   8.327   4.261   1.138 -0.1640 -0.0784 -0.0053
  173ACOH    C110281   8.390   4.250   1.367 -0.0837  0.2843 -0.1147
  173ACOH    H110282   8.416   4.170   1.435 -3.6187  0.4687  1.5738
  173ACOH    H210283   8.288   4.279   1.392 -0.7355 -3.0469  1.3785
  173ACOH    H310284   8.446   4.342   1.385  0.8418  0.2667 -2.7118
  174ACOH    H410285   3.639   5.827   2.429 -0.2133  0.8081 -1.1720
  174ACOH    O210286   3.732   5.817   2.400  0.2896 -0.2148  0.7108
  174ACOH    C210287   3.767   5.694   2.375  0.4369  0.2565 -0.3237
  174ACOH    O110288   3.698   5.593   2.393 -0.0686  0.8199  0.2644
  174ACOH    C110289   3.906   5.675   2.329  0.2671 -0.2802  0.7346
  174ACOH    H110290   3.935   5.764   2.272  1.7024 -1.3253 -0.2053
  174ACOH    H210291   3.918   5.591   2.260  0.3482 -0.0343  0.4487
  174ACOH    H310292   3.972   5.660   2.414 -0.9728 -0.3040  1.7117
  175ACOH    H410293   9.553   5.446   1.357  1.0276  2.2317  1.9411
  175ACOH    O210294   9.464   5.469   1.392 -0.4631 -0.2521 -0.0805
  175ACOH    C210295   9.394   5.353   1.391 -0.2584  0.0190 -0.4624
  175ACOH    O110296   9.423   5.237   1.394 -0.1906 -0.2085  0.2078
  175ACOH    C110297   9.247   5.381   1.393 -0.2414 -0.1841 -0.2139
  175ACOH    H110298   9.193   5.349   1.483 -0.8371  0.6967 -0.2486
  175ACOH    H210299   9.208   5.324   1.309  0.4178 -3.7420  1.7834
  175ACOH    H310300   9.237   5.487   1.369  2.1478  0.0222 -0.3986
  176ACOH    H410301   1.940   4.121   1.089 -0.6906  0.1385  1.1291
  176ACOH    O210302   1.952   4.036   1.044 -0.2293  0.5421  0.4911
  176ACOH    C210303   1.843   4.031   0.963 -0.5131  0.0677  0.6736
  176ACOH    O110304   1.760   4.120   0.943  0.4930 -0.0445  0.5560
  176ACOH    C110305   1.843   3.907   0.881 -0.1133 -0.2625  0.2835
  176ACOH    H110306   1.824   3.946   0.781  0.0150 -0.5540  0.1461
  176ACOH    H210307   1.761   3.844   0.914 -0.5426 -0.7046 -1.5487
  176ACOH    H310308   1.929   3.840   0.884 -0.9762 -1.3968 -0.1725
  177ACOH    H410309   9.775   1.062   3.422  3.3318 -1.2808 -1.7964
  177ACOH    O210310   9.791   0.994   3.490  0.6166 -0.3418 -0.1543
  177ACOH    C210311   9.894   1.029   3.571  0.9869 -0.4622 -0.4125
  177ACOH    O110312   9.965   1.127   3.569  0.6226  0.4063 -0.0492
  177ACOH    C110313   9.918   0.913   3.658  0.2948  0.2335  0.4768
  177ACOH    H110314   9.903   0.936   3.763 -3.2218 -1.4973  0.4491
  177ACOH    H210315  10.022   0.880   3.655 -0.2419 -1.5285  0.5540
  177ACOH    H310316   9.854   0.829   3.632  0.3590  0.4401 -0.3666
  178ACOH    H410317   4.292   8.436   0.820 -1.1177 -0.8280 -0.6539
  178ACOH    O210318   4.367   8.402   0.768 -0.3050  0.0729 -0.0865
  178ACOH    C210319   4.439   8.510   0.725  0.7374 -0.5619 -0.5685
  178ACOH    O110320   4.437   8.626   0.764  0.1690 -0.3149  0.0190
  178ACOH    C110321   4.552   8.456   0.649  0.4830 -0.5002 -0.4329
  178ACOH    H110322   4.577   8.365   0.703 -0.1342 -1.6603 -2.0807
  178ACOH    H210323   4.640   8.520   0.659 -0.7874  1.2850 -0.3388
  178ACOH    H310324   4.529   8.425   0.548 -2.5234 -2.2320  0.7306
  179ACOH    H410325   7.119   4.172   0.149 -1.6685 -0.9546  0.3904
  179ACOH    O210326   7.180   4.113   0.196 -0.1466 -0.5754 -1.0213
  179ACOH    C210327   7.251   4.196   0.275  0.2739  0.4293 -0.0389
  179ACOH    O110328   7.261   4.317   0.273 -0.4679  0.2736 -0.2068
  179ACOH    C110329   7.325   4.114   0.370  0.2925 -0.5299 -0.2180
  179ACOH    H110330   7.260   4.034   0.407 -2.0942  0.1290 -2.8360
  179ACOH    H210331   7.352   4.169   0.460 -1.5953 -1.6602  1.0918
  179ACOH    H310332   7.415   4.079   0.320  0.4276 -0.3037 -0.1351
  180ACOH    H410333   4.402   7.397   2.404 -1.2054 -3.2107 -0.9502
  180ACOH    O210334   4.467   7.397   2.331 -0.4664  0.2292 -0.4029
  180ACOH    C210335   4.585   7.359   2.392 -0.0090 -0.1408  0.3874
  180ACOH    O110336   4.601   7.332   2.508 -0.2276  0.3721 -0.1674
  180ACOH    C110337   4.684   7.323   2.285  0.7944 -0.5937 -0.1973
  180ACOH    H110338   4.640   7.245   2.222 -1.7490  0.3707  0.3156
  180ACOH    H210339   4.772   7.283   2.334  0.8211 -0.1288  0.1380
  180ACOH    H310340   4.713   7.410   2.226 -0.3091 -0.6277 -0.8011
  181ACOH    H410341   5.111   0.277   2.023  0.4289 -0.5471 -1.1643
  181ACOH    O210342   5.173   0.351   2.024  0.0719 -0.2516  0.2447
  181ACOH    C210343   5.113   0.465   2.061  0.0428 -0.2756  0.9572
  181ACOH    O110344   4.998   0.497   2.041  0.4474 -0.1272 -1.0681
  181ACOH    C110345   5.225   0.557   2.112  0.5889  0.2248  0.1491
  181ACOH    H110346   5.306   0.582   2.044  0.9674 -0.3563  0.3797
  181ACOH    H210347   5.275   0.509   2.197  2.0621  1.7049  0.1373
  181ACOH    H310348   5.170   0.644   2.148 -0.6112 -0.1660 -0.6911
  182ACOH    H410349   8.409   4.795   1.001 -0.0751  0.4029  0.4324
  182ACOH    O210350   8.344   4.725   1.020  0.3151  0.0008  0.2834
  182ACOH    C210351   8.223   4.788   1.038 -0.9196 -0.1913 -0.0909
  182ACOH    O110352   8.198   4.906   1.028  0.1679 -0.6052  0.0153
  182ACOH    C110353   8.122   4.691   1.095  0.2139  0.2107 -0.1686
  182ACOH    H110354   8.157   4.636   1.183 -2.4893  2.4999  2.4333
  182ACOH    H210355   8.103   4.615   1.019 -0.4701 -2.2444  2.3580
  182ACOH    H310356   8.023   4.735   1.112 -1.1306 -1.9315 -2.1242
  183ACOH    H410357   7.504   0.475   0.036  0.1929 -0.5235  1.4142
  183ACOH    O210358   7.423   0.421   0.030  0.2411 -0.4604  0.1428
  183ACOH    C210359   7.313   0.499   0.001  0.1571  0.2032  0.6294
  183ACOH    O110360   7.323   0.617  -0.020 -0.1660  0.2644  0.1574
  183ACOH    C110361   7.197   0.418  -0.020  0.0226 -0.9155 -0.0213
  183ACOH    H110362   7.116   0.472   0.028  1.3650 -0.1322  1.4095
  183ACOH    H210363   7.192   0.317   0.021 -0.3748 -1.2420 -0.8529
  183ACOH    H310364   7.172   0.427  -0.126 -0.1027 -1.0637 -0.0044
  184ACOH    H410365   8.875   5.225   0.108 -0.8732  0.8991  0.9529
  184ACOH    O210366   8.895   5.278   0.029  0.1968  0.0236  0.6264
  184ACOH    C210367   8.985   5.205  -0.048  0.1763 -0.0330  0.4350
  184ACOH    O110368   9.024   5.095  -0.022  0.2631 -0.3634 -0.0970
  184ACOH    C110369   9.014   5.275  -0.170 -0.5987 -0.1970  0.3579
  184ACOH    H110370   9.081   5.214  -0.230  3.0159  1.8565  2.1533
  184ACOH    H210371   9.066   5.364  -0.136 -0.3444  0.5231 -1.8562
  184ACOH    H310372   8.917   5.287  -0.219  0.4811 -1.2622 -2.0881
  185ACOH    H410373   4.654   8.135   1.665 -0.2686  0.0523  0.3758
  185ACOH    O210374   4.654   8.041   1.640  0.1743  0.1197  0.1194
  185ACOH    C210375   4.647   8.035   1.500 -0.4443  0.7544  0.1691
  185ACOH    O110376   4.653   8.131   1.426  0.1856 -0.4902 -0.4809
  185ACOH    C110377   4.624   7.894   1.463 -0.7464  0.3138  0.4121
  185ACOH    H110378   4.540   7.869   1.399 -0.6627  2.4945 -0.5684
  185ACOH    H210379   4.626   7.825   1.548 -1.1999  0.6093  0.6629
  185ACOH    H310380   4.711   7.869   1.402  1.6098  0.8607  3.3979
  186ACOH    H410381   4.059   1.577   2.873  0.1433  0.3911  2.2396
  186ACOH    O210382   4.154   1.558   2.872  0.0593 -0.1310 -0.4116
  186ACOH    C210383   4.209   1.641   2.781  0.0739  0.0011  0.0080
  186ACOH    O110384   4.164   1.745   2.741 -0.3154  0.6277  0.0833
  186ACOH    C110385   4.351   1.608   2.755  1.0134 -0.9253 -0.0710
  186ACOH    H110386   4.359   1.500   2.770 -0.1535 -0.9162  0.7028
  186ACOH    H210387   4.404   1.648   2.842 -0.5803 -0.8843  0.9180
  186ACOH    H310388   4.396   1.643   2.663 -0.5700  1.2215 -0.0733
  187ACOH    H410389   0.867   3.038   0.834 -0.6541  0.1984  0.9915
  187ACOH    O210390   0.879   2.965   0.897  0.5233 -0.3501  0.1698
  187ACOH    C210391   0.901   2.849   0.828  0.9004 -0.9124  0.4064
  187ACOH    O110392   0.886   2.827   0.707  0.0256 -0.2655  0.3810
  187ACOH    C110393   0.937   2.744   0.920  0.7290  0.1189 -0.4238
  187ACOH    H110394   0.929   2.646   0.874  0.9106 -1.2596  2.3651
  187ACOH    H210395   0.874   2.755   1.009  1.1939  0.6495 -0.1619
  187ACOH    H310396   1.039   2.768   0.948  0.4412 -0.0224  0.7849
  188ACOH    H410397   7.314   3.059   0.447  0.4757  0.3833  2.3251
  188ACOH    O210398   7.299   3.152   0.423 -0.0530 -0.1713  0.4147
  188ACOH    C210399   7.364   3.218   0.519 -0.3258  0.3382 -1.2327
  188ACOH    O110400   7.389   3.171   0.630  0.5155  0.5732  0.1332
  188ACOH    C110401   7.372   3.362   0.485 -0.7913 -0.1237 -0.5948
  188ACOH    H110402   7.418   3.414   0.569  0.5295  1.2724 -2.1469
  188ACOH    H210403   7.274   3.406   0.468  0.0614  1.2428 -2.0464
  188ACOH    H310404   7.435   3.367   0.396 -3.2623 -0.6106 -2.4034
  189ACOH    H410405   7.857   5.559   0.193  0.2871 -0.6396  0.5058
  189ACOH    O210406   7.938   5.600   0.228  0.2111  0.0834 -0.1651
  189ACOH    C210407   7.998   5.530   0.324  0.6584  0.2972 -0.1385
  189ACOH    O110408   7.972   5.412   0.342  0.0928  0.4591 -0.4649
  189ACOH    C110409   8.106   5.602   0.391 -0.4066  0.4470 -0.0696
  189ACOH    H110410   8.189   5.533   0.377  0.3048  0.9935  1.3327
  189ACOH    H210411   8.093   5.601   0.499  0.1283 -0.4738 -0.0039
  189ACOH    H310412   8.122   5.703   0.353 -1.1100  0.3986 -0.5160
  190ACOH    H410413   0.723   3.566   3.381 -1.1292 -0.5777  1.0158
  190ACOH    O210414   0.789   3.560   3.453  0.8521 -0.0382 -0.7218
  190ACOH    C210415   0.743   3.643   3.548 -0.5213 -0.5130  0.5438
  190ACOH    O110416   0.646   3.714   3.536  0.4200 -0.0761  0.4535
  190ACOH    C110417   0.845   3.662   3.652  0.0166 -0.7416 -0.3802
  190ACOH    H110418   0.860   3.579   3.721 -0.0722 -1.3824 -1.1260
  190ACOH    H210419   0.808   3.748   3.709  2.1599 -0.4751  0.6603
  190ACOH    H310420   0.942   3.688   3.609  0.1372  0.9695  0.8711
  191ACOH    H410421   7.465   2.030   3.386  1.2076 -1.8263  0.7301
  191ACOH    O210422   7.411   1.961   3.344  0.0190 -0.1441 -0.5848
  191ACOH    C210423   7.483   1.847   3.343 -1.2952  0.9659  0.5731
  191ACOH    O110424   7.595   1.830   3.384 -0.1454  0.1569 -0.8532
  191ACOH    C110425   7.394   1.729   3.322  0.6873  0.4775  0.4636
  191ACOH    H110426   7.327   1.746   3.238  0.4252 -2.4198  0.0235
  191ACOH    H210427   7.330   1.712   3.408 -0.0633  2.5948  0.3420
  191ACOH    H310428   7.460   1.644   3.302 -1.1265 -1.0823  1.0122
  192ACOH    H410429   8.059   3.600   1.085  0.1451 -1.9400 -1.6294
  192ACOH    O210430   8.008   3.627   1.006 -0.4417  0.3047 -0.5218
  192ACOH    C210431   7.886   3.571   1.024  0.1013 -0.1618  0.4785
  192ACOH    O110432   7.853   3.503   1.117 -0.9035 -0.2144 -0.3132
  192ACOH    C110433   7.805   3.598   0.897 -0.4157  0.0951 -0.3235
  192ACOH    H110434   7.844   3.545   0.810 -0.2616  0.1301 -0.2753
  192ACOH    H210435   7.820   3.702   0.870  0.4672 -0.5574 -2.4737
  192ACOH    H310436   7.698   3.581   0.906 -0.7932  3.0556  1.3066
  193ACOH    H410437   5.170   8.498   1.911 -1.2864  1.6609 -0.5369
  193ACOH    O210438   5.217   8.548   1.842  0.7160  0.5909  0.0329
  193ACOH    C210439   5.289   8.466   1.761 -0.2029 -0.0495  1.2123
  193ACOH    O110440   5.311   8.347   1.775 -0.1128  0.6234 -0.2979
  193ACOH    C110441   5.332   8.540   1.639 -0.2301  0.7692 -0.9926
  193ACOH    H110442   5.339   8.478   1.549  3.1055  0.0311 -0.2990
  193ACOH    H210443   5.435   8.574   1.651 -0.3031 -0.1817  3.0670
  193ACOH    H310444   5.269   8.625   1.615 -2.2664 -1.3519 -3.5284
  194ACOH    H410445   8.519   4.496   1.698 -0.8206  1.1094  0.4292
  194ACOH    O210446   8.485   4.544   1.621 -0.3686 -0.5586 -0.8351
  194ACOH    C210447   8.539   4.666   1.629 -0.0308 -0.4675  0.1875
  194ACOH    O110448   8.594   4.715   1.727  0.8280 -0.1202  0.8290
  194ACOH    C110449   8.485   4.746   1.518  0.2566  0.2958  0.0923
  194ACOH    H110450   8.565   4.802   1.470 -1.2765  2.4535 -0.0261
  194ACOH    H210451   8.411   4.816   1.558 -1.0472 -1.6821  1.2275
  194ACOH    H310452   8.441   4.685   1.439  2.4964 -1.0712 -0.1475
  195ACOH    H410453   7.735   1.952   3.080  0.6846 -0.0688 -0.8462
  195ACOH    O210454   7.670   1.983   3.014  0.1118  0.1694 -0.1799
  195ACOH    C210455   7.607   2.082   3.086 -0.3048  0.0681  0.7542
  195ACOH    O110456   7.643   2.125   3.195 -0.2560  0.1474 -0.6013
  195ACOH    C110457   7.490   2.140   3.008 -0.1134  0.2246  0.9577
  195ACOH    H110458   7.415   2.062   3.003 -2.1450  2.0437  1.9755
  195ACOH    H210459   7.520   2.169   2.907 -1.8188  3.2701  1.2540
  195ACOH    H310460   7.453   2.229   3.059  1.4329  0.0129  2.4964
  196ACOH    H410461   7.804   1.194   3.094  0.3070  0.1693 -1.1304
  196ACOH    O210462   7.822   1.105   3.060 -0.2105 -0.2642 -0.3039
  196ACOH    C210463   7.703   1.049   3.034  0.4148  0.1937 -0.2677
  196ACOH    O110464   7.594   1.100   3.049 -0.0828  0.2043  0.4598
  196ACOH    C110465   7.713   0.906   2.986  0.0270  0.2494  0.6089
  196ACOH    H110466   7.660   0.898   2.891  3.1356 -0.2234 -1.1304
  196ACOH    H210467   7.661   0.838   3.053 -0.8935 -1.2505 -1.5626
  196ACOH    H310468   7.808   0.859   2.960 -0.6903 -0.8807 -0.0082
  197ACOH    H410469   7.439   2.889   0.499  0.8085  0.4973  4.9515
  197ACOH    O210470   7.343   2.906   0.499  0.5180 -0.4361  0.2582
  197ACOH    C210471   7.303   2.867   0.623  0.4021 -0.5042  0.6417
  197ACOH    O110472   7.364   2.791   0.700 -0.7015 -0.0729  0.0442
  197ACOH    C110473   7.162   2.910   0.642 -0.1727 -0.3042 -0.7032
  197ACOH    H110474   7.105   2.890   0.551 -1.4748  0.2031 -0.0154
  197ACOH    H210475   7.147   3.010   0.681  3.8106 -1.1463  3.4715
  197ACOH    H310476   7.118   2.843   0.716 -0.7430  0.7532 -0.0665
  198ACOH    H410477   5.717   8.605   2.676  1.0862  1.2674 -2.2076
  198ACOH    O210478   5.791   8.606   2.739 -0.5201 -0.1041 -0.2083
  198ACOH    C210479   5.764   8.501   2.818  0.5932 -0.1049  0.1536
  198ACOH    O110480   5.861   8.456   2.880  0.5048  0.6834  0.1112
  198ACOH    C110481   5.652   8.408   2.791 -0.1086 -0.2753 -0.3275
  198ACOH    H110482   5.560   8.449   2.833  0.6113  0.4198  0.6141
  198ACOH    H210483   5.666   8.307   2.829  0.9633  0.6019  1.7060
  198ACOH    H310484   5.645   8.401   2.683 -1.4147  0.4184 -0.3013
  199ACOH    H410485   7.413   1.826   2.021  0.2689 -0.6605 -0.8338
  199ACOH    O210486   7.460   1.910   2.030  0.1890 -0.6602 -0.4030
  199ACOH    C210487   7.372   1.978   2.109 -0.3218 -0.5307  0.4192
  199ACOH    O110488   7.267   1.936   2.152 -0.1204  0.3986 -0.6003
  199ACOH    C110489   7.421   2.120   2.140 -0.6128  0.0341 -0.2293
  199ACOH    H110490   7.435   2.137   2.247  1.1580 -3.7355  0.2118
  199ACOH    H210491   7.349   2.196   2.108 -1.5269 -1.1651 -1.0799
  199ACOH    H310492   7.508   2.141   2.079 -0.6977 -1.2497 -0.8101
  200ACOH    H410493   3.519   0.246   3.131  0.9248  2.0925  3.3331
  200ACOH    O210494   3.433   0.290   3.122  0.2042  0.1024 -0.4432
  200ACOH    C210495   3.443   0.366   3.019 -0.2603 -0.2579  0.0065
  200ACOH    O110496   3.535   0.435   2.988  0.2135  0.9381 -0.0660
  200ACOH    C110497   3.309   0.403   2.973  0.1212  0.0859  0.7495
  200ACOH    H110498   3.235   0.329   3.003  0.2953  0.2927  1.6991
  200ACOH    H210499   3.318   0.406   2.865 -1.6755 -0.0452  0.5887
  200ACOH    H310500   3.275   0.502   3.005  1.2187  1.2567 -1.5727
  201ACOH    H410501   9.338   4.341   2.804  0.3954  0.4316 -1.5397
  201ACOH    O210502   9.339   4.248   2.832  0.0397  0.6742 -0.6784
  201ACOH    C210503   9.215   4.209   2.865  0.1125  0.7375 -0.5395
  201ACOH    O110504   9.117   4.280   2.868  0.2023 -0.1227  0.0076
  201ACOH    C110505   9.216   4.067   2.896 -0.8228  0.4992  0.4072
  201ACOH    H110506   9.274   4.012   2.822  1.3860  1.8734  1.0621
  201ACOH    H210507   9.115   4.026   2.893 -0.4492 -0.3283 -1.7819
  201ACOH    H310508   9.261   4.045   2.992  0.5338  1.9269  0.1094
  202ACOH    H410509   4.790   0.179   1.082  0.5935 -0.4062 -2.3912
  202ACOH    O210510   4.849   0.256   1.083 -0.0879  0.1100 -0.1905
  202ACOH    C210511   4.808   0.355   1.170  0.0172 -0.0235 -0.3425
  202ACOH    O110512   4.697   0.363   1.220 -0.2939  0.1850 -0.4806
  202ACOH    C110513   4.901   0.472   1.171  0.0913  0.5394 -0.8196
  202ACOH    H110514   4.883   0.535   1.084 -2.1804  2.1268  0.7331
  202ACOH    H210515   5.002   0.433   1.165 -0.0471 -0.2591  1.4308
  202ACOH    H310516   4.903   0.537   1.259 -0.5240  2.3161 -2.0855
  203ACOH    H410517   3.127   3.565   2.043  0.0210  0.7945 -0.4916
  203ACOH    O210518   3.171   3.641   2.086  0.4751 -0.1533  0.7481
  203ACOH    C210519   3.255   3.623   2.193  0.0864 -0.4218  0.3301
  203ACOH    O110520   3.241   3.529   2.272 -0.0497 -0.4527 -0.5951
  203ACOH    C110521   3.316   3.749   2.234  0.0036  0.4871 -0.5282
  203ACOH    H110522   3.421   3.727   2.250 -0.3039 -1.1154 -0.5919
  203ACOH    H210523   3.274   3.778   2.331 -1.3433  2.8047 -1.7678
  203ACOH    H310524   3.283   3.824   2.163  0.5801  1.0273 -0.2294
  204ACOH    H410525   6.001   8.399   2.086 -2.3521  0.2025  0.6495
  204ACOH    O210526   6.032   8.372   2.174 -0.6428  0.3496  0.0958
  204ACOH    C210527   6.165   8.362   2.178 -0.0769  0.3375  0.3069
  204ACOH    O110528   6.238   8.368   2.084  0.3441  0.2692 -0.2661
  204ACOH    C110529   6.202   8.294   2.302 -0.7436  0.7452  0.1120
  204ACOH    H110530   6.278   8.354   2.353  0.6916 -1.7708  1.0446
  204ACOH    H210531   6.243   8.198   2.270 -1.1251  0.2713  1.0457
  204ACOH    H310532   6.119   8.278   2.370 -0.0215  2.8322  1.5210
  205ACOH    H410533   5.088   7.754   2.581 -1.2997 -1.7793 -0.1104
  205ACOH    O210534   5.134   7.713   2.506  0.4065 -0.5810  0.2647
  205ACOH    C210535   5.077   7.598   2.467  0.3333  0.6610  0.1551
  205ACOH    O110536   4.999   7.528   2.533 -0.3472 -0.4585 -0.0626
  205ACOH    C110537   5.146   7.550   2.347  0.3851  0.2991  0.1359
  205ACOH    H110538   5.088   7.471   2.299 -0.7688  0.2469  1.5493
  205ACOH    H210539   5.242   7.513   2.382 -0.2808  0.7922  2.6259
  205ACOH    H310540   5.156   7.631   2.276  0.9250 -0.2332 -0.4032
  206ACOH    H410541   3.179   7.089   2.243  2.3013 -1.8423  1.5117
  206ACOH    O210542   3.192   7.040   2.161 -0.5841  0.0362 -0.1401
  206ACOH    C210543   3.118   6.923   2.167 -0.2150  0.8799  0.3319
  206ACOH    O110544   3.031   6.899   2.244 -0.4020  0.5148 -0.4992
  206ACOH    C110545   3.178   6.822   2.075 -0.3796 -0.6381 -0.0523
  206ACOH    H110546   3.283   6.819   2.103  0.5729  4.6767 -2.4399
  206ACOH    H210547   3.163   6.850   1.971 -0.5628 -1.1893 -0.1763
  206ACOH    H310548   3.130   6.724   2.084 -0.0173 -0.7462  0.7298
  207ACOH    H410549   2.668   3.366   1.571  1.2079 -0.9835 -0.3675
  207ACOH    O210550   2.681   3.358   1.667 -0.7123 -0.6657 -0.0623
  207ACOH    C210551   2.582   3.432   1.722 -0.4143  0.4195  0.2437
  207ACOH    O110552   2.474   3.452   1.676 -0.1667  1.4122  0.1305
  207ACOH    C110553   2.610   3.451   1.864 -0.5911  0.1734  0.0734
  207ACOH    H110554   2.584   3.552   1.896 -0.5313  0.9273 -2.1959
  207ACOH    H210555   2.713   3.423   1.887 -0.8769 -0.1913  0.9490
  207ACOH    H310556   2.544   3.390   1.926 -2.7508  2.1333 -0.2383
  208ACOH    H410557   1.389   3.019   1.728 -0.8765 -2.2813 -0.0930
  208ACOH    O210558   1.311   3.066   1.696  0.1057 -0.3958  0.2318
  208ACOH    C210559   1.313   3.050   1.563 -0.8776 -0.0925  0.1271
  208ACOH    O110560   1.412   3.061   1.494 -0.8469 -0.3099 -0.4745
  208ACOH    C110561   1.175   3.065   1.514 -0.0182 -0.8214  0.5484
  208ACOH    H110562   1.120   2.975   1.544 -0.1859 -0.9355 -0.1073
  208ACOH    H210563   1.174   3.074   1.406 -0.5648  1.2548  0.7199
  208ACOH    H310564   1.133   3.153   1.562  0.5505  1.3576 -2.8693
  209ACOH    H410565   3.725   7.446   0.345  1.1125 -0.7136 -1.1977
  209ACOH    O210566   3.794   7.462   0.411  0.2494 -0.0352 -0.4436
  209ACOH    C210567   3.829   7.344   0.461 -0.4622 -0.4387 -0.1204
  209ACOH    O110568   3.741   7.262   0.488  0.1029 -0.0876 -0.0601
  209ACOH    C110569   3.949   7.345   0.543  0.7738 -0.1875  0.2245
  209ACOH    H110570   4.006   7.435   0.521  2.6133 -1.9126 -2.3661
  209ACOH    H210571   4.015   7.263   0.514 -2.2422 -2.9319  0.8184
  209ACOH    H310572   3.928   7.337   0.649 -3.1255 -0.8243 -0.5207
  210ACOH    H410573   1.533   7.840   1.299 -1.4770  0.7055 -0.2557
  210ACOH    O210574   1.505   7.869   1.210 -0.7169  0.6554 -0.5191
  210ACOH    C210575   1.568   7.805   1.116 -0.3128  0.3475  0.0955
  210ACOH    O110576   1.638   7.706   1.133  0.1115 -0.2693  0.0378
  210ACOH    C110577   1.520   7.846   0.982  0.3892 -0.5926 -0.2099
  210ACOH    H110578   1.451   7.768   0.950 -0.6259  0.4034 -0.4674
  210ACOH    H210579   1.604   7.851   0.912  2.3719 -0.8925  2.0988
  210ACOH    H310580   1.464   7.940   0.984  0.4607 -0.5477 -0.2663
  211ACOH    H410581   4.471   3.784   2.902  1.1800  0.9908  2.4055
  211ACOH    O210582   4.504   3.847   2.835  0.1114 -0.6329  0.3236
  211ACOH    C210583   4.460   3.818   2.711  0.9878  0.5725  0.0355
  211ACOH    O110584   4.409   3.713   2.680 -0.1001  0.3736  0.4989
  211ACOH    C110585   4.502   3.922   2.614 -0.6068  0.4847  0.4474
  211ACOH    H110586   4.455   3.910   2.516  1.2379  1.5850 -0.6109
  211ACOH    H210587   4.609   3.915   2.596 -0.5375 -0.4918  1.2230
  211ACOH    H310588   4.482   4.023   2.650 -2.1703  0.7092 -1.0031
  212ACOH    H410589   0.423   1.141   2.417  0.0800  0.0242 -0.5074
  212ACOH    O210590   0.415   1.235   2.392  0.5246  0.1010 -0.3640
  212ACOH    C210591   0.529   1.290   2.435 -0.1919 -0.0193 -0.4805
  212ACOH    O110592   0.621   1.224   2.488 -0.9723 -0.2951  0.1497
  212ACOH    C110593   0.527   1.437   2.422 -0.3378 -0.0234  0.2265
  212ACOH    H110594   0.614   1.491   2.457 -1.5703  0.7848  2.1432
  212ACOH    H210595   0.432   1.478   2.457 -0.9614 -0.6890 -0.6546
  212ACOH    H310596   0.532   1.443   2.313 -0.8035 -0.6643  0.1646
  213ACOH    H410597   5.029   1.938   1.369 -2.5342 -1.4914  0.7594
  213ACOH    O210598   5.091   1.866   1.388 -0.1654  0.2520 -0.2504
  213ACOH    C210599   5.173   1.903   1.494 -0.0767 -0.2063 -0.9822
  213ACOH    O110600   5.158   2.003   1.561  0.6100  0.5867  0.2875
  213ACOH    C110601   5.277   1.807   1.531  0.1586  0.4855 -0.3946
  213ACOH    H110602   5.358   1.817   1.458  0.8516  1.3944  0.4939
  213ACOH    H210603   5.239   1.708   1.505 -0.7173  0.3691  1.2885
  213ACOH    H310604   5.317   1.807   1.632 -0.0671  1.3119 -0.3028
  214ACOH    H410605   1.214   3.276   2.844  0.3977  1.5813 -1.4093
  214ACOH    O210606   1.310   3.260   2.848  0.0582 -0.3932  0.2056
  214ACOH    C210607   1.330   3.130   2.897  0.9419  0.1305  0.3244
  214ACOH    O110608   1.256   3.032   2.908  0.0109 -0.6997  0.8467
  214ACOH    C110609   1.477   3.116   2.922  0.4130  0.9608  0.2926
  214ACOH    H110610   1.524   3.147   2.828  1.0025  0.8015  0.5296
  214ACOH    H210611   1.507   3.016   2.954 -1.6231  0.9874  2.3736
  214ACOH    H310612   1.518   3.182   2.998  2.3852  0.8621 -0.6287
  215ACOH    H410613   5.010   2.766   0.862 -0.2966  0.4977  0.2404
  215ACOH    O210614   5.015   2.727   0.773 -0.6043  0.0844  0.4029
  215ACOH    C210615   4.898   2.763   0.711 -0.7479 -0.1852  1.1278
  215ACOH    O110616   4.820   2.848   0.750 -0.5753  0.4879 -0.2268
  215ACOH    C110617   4.872   2.690   0.583 -0.0605  0.4409  0.1644
  215ACOH    H110618   4.791   2.620   0.601 -0.2290  0.1832 -1.5022
  215ACOH    H210619   4.961   2.633   0.557 -0.3569 -0.6526  1.4955
  215ACOH    H310620   4.835   2.758   0.506 -1.6131  1.0257  1.3995
  216ACOH    H410621   4.646   2.439   1.926  0.8389 -0.7135 -1.1692
  216ACOH    O210622   4.719   2.437   1.990 -0.1973  0.2922  0.0657
  216ACOH    C210623   4.822   2.510   1.936  0.2463  0.6681  0.0011
  216ACOH    O110624   4.813   2.595   1.846  0.0947  0.0701  0.7651
  216ACOH    C110625   4.956   2.484   1.997  0.2382 -0.2606 -0.4055
  216ACOH    H110626   4.949   2.410   2.077 -0.2231 -0.7685 -0.9112
  216ACOH    H210627   4.996   2.578   2.037  0.7582 -0.4032 -0.5929
  216ACOH    H310628   5.029   2.448   1.925  0.8141 -0.9059  0.5017
  217ACOH    H410629   5.436   8.214   2.150 -0.1192 -0.8476 -0.3640
  217ACOH    O210630   5.404   8.171   2.232 -0.4799 -0.5582 -0.3514
  217ACOH    C210631   5.273   8.147   2.235 -0.0687 -0.2156 -0.3261
  217ACOH    O110632   5.196   8.207   2.167 -0.2448 -0.3098 -0.1815
  217ACOH    C110633   5.239   8.076   2.363  0.0748  0.1138 -0.1899
  217ACOH    H110634   5.318   8.079   2.438  2.1976 -0.0093 -2.3604
  217ACOH    H210635   5.219   7.971   2.343  0.0321  0.2248 -0.7441
  217ACOH    H310636   5.147   8.127   2.392 -0.5152  0.2068 -2.1877
  218ACOH    H410637   4.650   3.268   2.047  0.0313  1.0642 -1.0963
  218ACOH    O210638   4.743   3.248   2.065 -0.5554 -0.7222  0.0878
  218ACOH    C210639   4.754   3.240   2.195  0.0086 -0.1591 -0.1535
  218ACOH    O110640   4.669   3.243   2.283  0.4725 -0.2076 -0.6264
  218ACOH    C110641   4.898   3.240   2.238  0.4867  0.9018  0.1247
  218ACOH    H110642   4.905   3.262   2.344  1.7528 -3.2913  0.9822
  218ACOH    H210643   4.949   3.311   2.172  0.1804 -0.9141 -2.1345
  218ACOH    H310644   4.940   3.142   2.216  1.3856  1.2287  0.3798
  219ACOH    H410645   6.213   9.243   2.367  1.4448  0.5483 -1.7019
  219ACOH    O210646   6.265   9.162   2.377 -0.0075 -0.2001  0.0003
  219ACOH    C210647   6.211   9.108   2.495 -0.3943 -0.0201 -0.0553
  219ACOH    O110648   6.123   9.152   2.566  0.0533  0.0400  0.2308
  219ACOH    C110649   6.274   8.977   2.525  0.3021  0.2214 -0.1489
  219ACOH    H110650   6.244   8.906   2.448 -0.7509  2.0233 -1.4637
  219ACOH    H210651   6.243   8.942   2.623 -0.4505 -0.1053 -0.4974
  219ACOH    H310652   6.382   8.986   2.511  0.1463 -1.1296 -2.4068
  220ACOH    H410653   3.927   4.981   0.165  0.8197  0.7408  0.0261
  220ACOH    O210654   4.016   4.944   0.164  0.5030 -0.0511  0.3725
  220ACOH    C210655   4.029   4.857   0.059 -0.1729  1.0125  0.2798
  220ACOH    O110656   3.938   4.816  -0.012  0.1221  0.8238  0.0056
  220ACOH    C110657   4.160   4.792   0.062 -0.4045 -0.1826  0.3001
  220ACOH    H110658   4.156   4.685   0.082  2.6433  0.1169  2.8166
  220ACOH    H210659   4.225   4.837   0.136 -0.7414 -0.0397  0.5089
  220ACOH    H310660   4.204   4.803  -0.038 -0.0782 -0.0116  0.4639
  221ACOH    H410661   7.368   1.529   1.767 -1.0669  0.8421  1.8130
  221ACOH    O210662   7.340   1.600   1.706 -0.0186 -0.2067  0.0578
  221ACOH    C210663   7.204   1.604   1.700 -0.5157  0.2967 -0.2598
  221ACOH    O110664   7.136   1.511   1.743  0.6386 -0.5276 -0.2839
  221ACOH    C110665   7.155   1.713   1.626  0.3536  0.2228 -0.1784
  221ACOH    H110666   7.187   1.810   1.663 -0.5321  0.8480 -1.0506
  221ACOH    H210667   7.046   1.719   1.625  0.3283 -0.2314 -0.4183
  221ACOH    H310668   7.191   1.704   1.523 -0.9932  1.5470 -0.7738
  222ACOH    H410669   3.761   7.757   0.460 -0.4961  1.6399  0.7313
  222ACOH    O210670   3.671   7.723   0.472  0.1127 -0.2613  0.0262
  222ACOH    C210671   3.668   7.681   0.602 -0.6696  0.1797 -0.8238
  222ACOH    O110672   3.749   7.715   0.686  0.6273  0.1266  0.1056
  222ACOH    C110673   3.556   7.584   0.620 -0.4022 -0.3707  1.0048
  222ACOH    H110674   3.535   7.518   0.536  2.4307 -0.5035  0.3603
  222ACOH    H210675   3.470   7.633   0.666 -0.6344 -0.6327  0.8519
  222ACOH    H310676   3.598   7.512   0.690  2.0279 -1.7707 -1.8313
  223ACOH    H410677   4.668   8.312   0.168 -0.5177  2.3080 -0.7297
  223ACOH    O210678   4.760   8.339   0.181 -0.0276  0.3991 -0.1009
  223ACOH    C210679   4.805   8.391   0.070  0.4608  0.2498  0.2107
  223ACOH    O110680   4.735   8.427  -0.024  0.2436  0.5091  0.4121
  223ACOH    C110681   4.954   8.428   0.075 -0.3042 -0.8872 -0.0304
  223ACOH    H110682   5.021   8.344   0.058  1.5833  0.5612  0.0742
  223ACOH    H210683   4.981   8.485   0.164  0.1955 -0.3979 -0.4898
  223ACOH    H310684   4.971   8.495  -0.010  0.6485 -0.6369  0.3485
  224ACOH    H410685   7.226   1.492   3.034  0.3605 -0.0575 -0.5756
  224ACOH    O210686   7.202   1.518   3.124  0.6121 -0.5482 -0.3658
  224ACOH    C210687   7.269   1.428   3.206 -0.6275  0.4314 -0.3672
  224ACOH    O110688   7.349   1.343   3.175  0.1362  0.2242  0.4404
  224ACOH    C110689   7.231   1.434   3.345 -0.2229 -0.4310  0.0936
  224ACOH    H110690   7.180   1.345   3.381 -0.2137 -0.5486 -0.1849
  224ACOH    H210691   7.151   1.507   3.354 -1.6882 -2.2533  2.3383
  224ACOH    H310692   7.312   1.466   3.411  0.5118  0.6977 -1.3022
  225ACOH    H410693   4.064   1.393   3.141 -0.6115 -1.6107 -0.8846
  225ACOH    O210694   4.112   1.353   3.216 -0.0176 -0.4081 -0.6007
  225ACOH    C210695   4.037   1.368   3.327 -0.3693  0.5970  0.4199
  225ACOH    O110696   3.940   1.441   3.338  0.0282 -0.4747  0.2149
  225ACOH    C110697   4.106   1.316   3.445 -0.8432  0.4229 -0.3278
  225ACOH    H110698   4.059   1.233   3.498 -0.2216 -0.0584 -0.5189
  225ACOH    H210699   4.125   1.396   3.517 -1.7176  0.6108 -0.3009
  225ACOH    H310700   4.202   1.269   3.421 -1.4268  0.0596 -1.9880
  226ACOH    H410701   5.308   9.028   1.869  1.3190  1.4210 -1.0650
  226ACOH    O210702   5.220   9.036   1.831  0.7762  0.7579  0.0273
  226ACOH    C210703   5.215   8.998   1.702  0.4211  0.0279 -0.3193
  226ACOH    O110704   5.298   8.942   1.635 -0.1066 -0.0257  0.1912
  226ACOH    C110705   5.076   9.043   1.668 -0.5343 -0.4505 -1.0114
  226ACOH    H110706   5.092   9.149   1.651  0.2714 -0.1874  1.2594
  226ACOH    H210707   4.995   9.022   1.738  0.8749 -0.4473  0.6389
  226ACOH    H310708   5.043   9.002   1.572 -2.3571  0.5725 -0.8524
  227ACOH    H410709   4.343   4.174   3.319 -0.1484  0.0827  0.5978
  227ACOH    O210710   4.316   4.267   3.317 -0.0351  0.0964 -0.2749
  227ACOH    C210711   4.366   4.329   3.424  0.9698 -0.0419 -0.3566
  227ACOH    O110712   4.386   4.270   3.527  0.2547 -0.1759 -0.5407
  227ACOH    C110713   4.352   4.479   3.421 -0.1536  1.1815  0.2537
  227ACOH    H110714   4.308   4.508   3.516  1.1164  2.2728  0.5310
  227ACOH    H210715   4.286   4.514   3.342 -1.2410 -0.2405  0.5109
  227ACOH    H310716   4.448   4.531   3.424  0.3643  0.2428  0.2787
  228ACOH    H410717   5.316   2.367   1.261 -0.9452 -0.1139  0.7198
  228ACOH    O210718   5.337   2.453   1.219 -1.2353 -0.3336  0.1129
  228ACOH    C210719   5.328   2.552   1.312  0.5991 -0.0551  0.5396
  228ACOH    O110720   5.238   2.559   1.399  0.1050 -0.6701  0.4239
  228ACOH    C110721   5.400   2.673   1.261  0.1363  1.0210 -0.2224
  228ACOH    H110722   5.425   2.734   1.348 -0.9865  0.0689  0.7815
  228ACOH    H210723   5.344   2.728   1.185  3.6277 -0.1362 -3.8189
  228ACOH    H310724   5.493   2.648   1.211  0.8409  0.9135  1.1118
  229ACOH    H410725   6.355   9.602   1.835  1.3773 -0.0359 -0.9459
  229ACOH    O210726   6.308   9.678   1.797  0.4482  0.0220  0.2835
  229ACOH    C210727   6.179   9.678   1.838  0.0472  0.0166 -0.5558
  229ACOH    O110728   6.121   9.593   1.901  0.2264  0.1448  0.1709
  229ACOH    C110729   6.113   9.805   1.799  0.1345  0.0590 -0.5448
  229ACOH    H110730   6.088   9.871   1.882 -0.4694 -0.9025  0.0596
  229ACOH    H210731   6.025   9.780   1.740  0.0742  1.1259 -0.9057
  229ACOH    H310732   6.180   9.851   1.728 -0.1046  0.0964 -0.7453
  230ACOH    H410733   7.399   1.952   1.087  0.4577 -0.5611  0.8728
  230ACOH    O210734   7.322   2.008   1.103  0.6703  0.0021 -0.0367
  230ACOH    C210735   7.243   2.015   0.990 -0.5517 -0.5158 -0.1547
  230ACOH    O110736   7.235   1.927   0.909 -0.3483  0.1324  0.7178
  230ACOH    C110737   7.180   2.147   0.988  0.4827 -0.8205  0.1014
  230ACOH    H110738   7.183   2.169   0.882 -0.4759 -1.4651 -0.0685
  230ACOH    H210739   7.236   2.221   1.046 -1.7950  1.3175 -0.3491
  230ACOH    H310740   7.077   2.158   1.023  0.3224 -1.4803 -0.1593
  231ACOH    H410741   5.188   2.474   0.769 -1.4804  0.9063 -0.1786
  231ACOH    O210742   5.237   2.529   0.706  0.0113  0.2120  0.3437
  231ACOH    C210743   5.264   2.644   0.775 -0.0350  0.0859  0.5828
  231ACOH    O110744   5.276   2.650   0.896  0.5367  0.5463 -0.1397
  231ACOH    C110745   5.314   2.750   0.683  0.4919 -0.4920  0.2752
  231ACOH    H110746   5.273   2.741   0.582  1.3246  0.0640 -0.1128
  231ACOH    H210747   5.420   2.730   0.673  0.7179 -0.1153  1.8722
  231ACOH    H310748   5.297   2.849   0.725  1.3107 -1.3183  2.6027
  232ACOH    H410749   4.043   7.400   1.575 -0.2615  0.1088  1.6395
  232ACOH    O210750   4.045   7.308   1.608  0.3926 -0.5968 -0.2405
  232ACOH    C210751   3.924   7.266   1.662 -0.2235  0.1416 -0.1495
  232ACOH    O110752   3.818   7.322   1.679 -0.3112 -0.6906  0.2020
  232ACOH    C110753   3.948   7.139   1.724  0.1019  0.4668  0.0114
  232ACOH    H110754   3.971   7.149   1.830 -0.3387  1.8518 -0.0138
  232ACOH    H210755   4.033   7.086   1.681  0.2709  1.0948 -0.4227
  232ACOH    H310756   3.861   7.073   1.719 -1.1751  2.1208  0.0886
  233ACOH    H410757   7.584   3.136   0.177  0.3802 -0.8304 -0.4131
  233ACOH    O210758   7.496   3.127   0.137  0.1916 -0.4548 -0.0840
  233ACOH    C210759   7.468   2.996   0.130  0.0208 -0.2709  0.6771
  233ACOH    O110760   7.546   2.901   0.152 -0.0325  0.5828 -0.1620
  233ACOH    C110761   7.330   2.980   0.083  0.3421 -0.0675  0.2949
  233ACOH    H110762   7.298   2.875   0.080 -1.7420  0.5209  1.2209
  233ACOH    H210763   7.316   3.018  -0.018  3.7227  2.4819  0.6920
  233ACOH    H310764   7.262   3.019   0.158  0.4282  0.5441  0.0552
  234ACOH    H410765   2.233   3.328   1.929  1.3034  0.3115 -2.1326
  234ACOH    O210766   2.155   3.272   1.912  0.9719  0.0480  0.1066
  234ACOH    C210767   2.204   3.163   1.845  0.5420  0.4724  0.4345
  234ACOH    O110768   2.320   3.124   1.849 -0.3273 -0.2244  0.3055
  234ACOH    C110769   2.102   3.082   1.776 -0.1585  0.9626  0.0927
  234ACOH    H110770   2.147   2.989   1.744  2.3219  1.7743  1.1626
  234ACOH    H210771   2.062   3.135   1.689  1.1000 -0.5807 -1.4573
  234ACOH    H310772   2.024   3.059   1.849  0.3698  0.0648  0.3745
  235ACOH    H410773   5.127   2.415   1.474  1.7896 -2.5167 -1.0675
  235ACOH    O210774   5.105   2.374   1.559  0.5580  0.2204  0.0078
  235ACOH    C210775   4.976   2.335   1.548 -0.3685  0.2317  0.1532
  235ACOH    O110776   4.904   2.358   1.452 -0.2505 -0.3464  0.4735
  235ACOH    C110777   4.927   2.276   1.676 -0.2752 -0.0817 -0.5902
  235ACOH    H110778   4.857   2.347   1.717 -0.6894 -0.9293  0.1988
  235ACOH    H210779   5.010   2.273   1.747 -1.1051  1.7079  0.4534
  235ACOH    H310780   4.875   2.180   1.673 -1.0852  0.3648 -1.0608
  236ACOH    H410781   5.615   9.622   2.908  0.0213 -2.5761  0.2351
  236ACOH    O210782   5.520   9.638   2.917  0.3584 -0.1230 -0.0023
  236ACOH    C210783   5.491   9.770   2.911  0.5694  0.4685  0.1270
  236ACOH    O110784   5.554   9.863   2.864  0.1076  0.7521 -0.3466
  236ACOH    C110785   5.354   9.801   2.953 -0.1289 -0.6397  0.3900
  236ACOH    H110786   5.360   9.892   3.012 -0.6040 -0.5392  0.2825
  236ACOH    H210787   5.315   9.721   3.016  0.5267 -1.2130  0.0697
  236ACOH    H310788   5.302   9.828   2.862  0.2519  0.7594  0.5809
  237ACOH    H410789   4.339   8.515   1.894 -0.3772 -0.1616  0.0688
  237ACOH    O210790   4.370   8.585   1.955 -0.3813 -0.1937  0.1075
  237ACOH    C210791   4.471   8.657   1.898  0.5336 -0.0663  0.5152
  237ACOH    O110792   4.531   8.630   1.798 -0.1491 -0.7789  0.0767
  237ACOH    C110793   4.504   8.771   1.986  0.3098  0.5439  0.3221
  237ACOH    H110794   4.505   8.856   1.919 -0.3502  0.6692  0.4706
  237ACOH    H210795   4.608   8.763   2.020  0.5687 -0.0986 -0.6044
  237ACOH    H310796   4.428   8.791   2.061 -0.6079  1.1764 -0.7573
  238ACOH    H410797   7.579   4.555   0.094 -1.3633  1.0401  1.5380
  238ACOH    O210798   7.511   4.505   0.047  0.2891 -0.1942  0.3852
  238ACOH    C210799   7.579   4.412  -0.022  0.0704  0.7484 -0.0303
  238ACOH    O110800   7.702   4.413  -0.039 -0.1743 -0.1843 -0.9390
  238ACOH    C110801   7.491   4.323  -0.107 -0.1479  0.1743 -0.6364
  238ACOH    H110802   7.486   4.369  -0.206  0.4367 -1.0574 -1.2499
  238ACOH    H210803   7.391   4.322  -0.064 -0.2699  0.1535 -0.9178
  238ACOH    H310804   7.540   4.227  -0.123  1.5841  1.0994 -0.9928
  239ACOH    H410805   6.779   0.178   2.127 -0.5660  1.7251 -1.4153
  239ACOH    O210806   6.874   0.192   2.114 -0.0096 -0.0697  0.3212
  239ACOH    C210807   6.926   0.102   2.025  0.2916 -0.3827 -0.1878
  239ACOH    O110808   6.866  -0.004   1.999 -0.0828 -0.4224  0.1414
  239ACOH    C110809   7.076   0.114   2.006  0.4119 -0.5730 -0.6094
  239ACOH    H110810   7.133   0.071   2.088 -0.0634 -0.0074  0.0230
  239ACOH    H210811   7.102   0.219   1.991  0.4237 -0.0003  3.0357
  239ACOH    H310812   7.094   0.044   1.924  0.3321 -3.2949  1.6282
  240ACOH    H410813   3.240   6.538   1.852  1.1787  0.7291 -0.9742
  240ACOH    O210814   3.318   6.490   1.883  0.2825 -0.1740 -0.1097
  240ACOH    C210815   3.295   6.432   2.003  0.3457  1.1152  0.7794
  240ACOH    O110816   3.182   6.407   2.046  0.0852 -0.0415 -0.6324
  240ACOH    C110817   3.412   6.350   2.036 -0.1985 -0.0638  0.4997
  240ACOH    H110818   3.395   6.246   2.009  1.5038  0.4921 -3.0928
  240ACOH    H210819   3.424   6.351   2.144  1.0861  0.9867  0.3628
  240ACOH    H310820   3.499   6.395   1.988 -1.9269  1.8034 -0.9874
  241ACOH    H410821   3.982   4.876   2.018 -0.8105  0.2969  1.4575
  241ACOH    O210822   4.035   4.957   2.016  0.2729 -0.4226 -0.5612
  241ACOH    C210823   4.143   4.948   2.088  0.0988  0.3190 -0.0510
  241ACOH    O110824   4.164   4.856   2.162  0.2429  0.3818 -0.2523
  241ACOH    C110825   4.227   5.066   2.073 -0.1690  0.6143 -0.9883
  241ACOH    H110826   4.285   5.083   2.163 -1.4855  1.2786 -0.2480
  241ACOH    H210827   4.161   5.152   2.059 -0.7213  0.1056 -1.5685
  241ACOH    H310828   4.291   5.051   1.986  0.2534  0.1172 -0.5922
  242ACOH    H410829   8.285   1.786   3.148 -0.9466  0.1906  0.3694
  242ACOH    O210830   8.303   1.810   3.240  0.1968  0.1585  0.1585
  242ACOH    C210831   8.325   1.700   3.311  0.8956  0.1353 -0.6675
  242ACOH    O110832   8.322   1.589   3.265 -0.0611  0.4359  0.3463
  242ACOH    C110833   8.364   1.730   3.451  0.1133 -0.5218 -1.1139
  242ACOH    H110834   8.278   1.756   3.513  0.2949  0.2306 -1.1746
  242ACOH    H210835   8.437   1.811   3.458 -0.9104  0.3870 -0.7849
  242ACOH    H310836   8.410   1.646   3.502  0.0915 -0.3564 -0.8258
  243ACOH    H410837   7.457   5.367   1.188  0.5819  0.8483 -1.0311
  243ACOH    O210838   7.477   5.424   1.264 -0.8003  0.1450 -0.1052
  243ACOH    C210839   7.541   5.528   1.214  0.3935  0.1462 -0.5361
  243ACOH    O110840   7.587   5.532   1.101 -0.1430  0.6028  0.1696
  243ACOH    C110841   7.573   5.628   1.323  0.1563 -0.4363 -0.6730
  243ACOH    H110842   7.676   5.658   1.308 -0.0493 -0.6595 -2.7533
  243ACOH    H210843   7.551   5.587   1.422 -0.1327  0.2886 -0.4398
  243ACOH    H310844   7.514   5.716   1.297  0.2766 -0.2295 -0.2493
  244ACOH    H410845   5.437   2.496   1.015 -1.2148 -1.9953 -1.7144
  244ACOH    O210846   5.512   2.446   0.979  0.4473 -0.6369 -0.2964
  244ACOH    C210847   5.454   2.353   0.903  0.2765  0.0117  0.5437
  244ACOH    O110848   5.336   2.332   0.905 -0.0817  0.3353 -0.1084
  244ACOH    C110849   5.544   2.253   0.846 -0.3425  0.1907 -0.7941
  244ACOH    H110850   5.645   2.293   0.840 -0.3596  0.4590  0.6249
  244ACOH    H210851   5.523   2.216   0.746 -0.3060 -1.4896 -0.1967
  244ACOH    H310852   5.539   2.170   0.916 -0.0785  0.0056 -0.9926
  245ACOH    H410853   7.256   0.874   2.890 -0.5953 -0.3288  0.1540
  245ACOH    O210854   7.223   0.946   2.833  0.0320  0.1012  0.3331
  245ACOH    C210855   7.186   0.895   2.715  0.4732  0.4164  0.1416
  245ACOH    O110856   7.162   0.779   2.692 -0.2742 -0.0116  0.3557
  245ACOH    C110857   7.166   0.994   2.608 -0.1550 -0.0047 -0.0836
  245ACOH    H110858   7.259   1.035   2.568 -0.6367 -0.7083 -1.9729
  245ACOH    H210859   7.105   1.078   2.643  1.1556  0.1473  1.9112
  245ACOH    H310860   7.115   0.947   2.524  0.3905 -0.2968 -0.2535
  246ACOH    H410861   4.301   7.728   0.671  0.9535 -1.8649  1.4440
  246ACOH    O210862   4.322   7.673   0.593 -0.0773 -0.2420 -0.0066
  246ACOH    C210863   4.262   7.551   0.609 -0.9522 -0.1743 -0.7499
  246ACOH    O110864   4.207   7.512   0.710  0.3915 -0.0588 -0.1022
  246ACOH    C110865   4.282   7.464   0.486 -0.4898  0.3182 -0.2481
  246ACOH    H110866   4.241   7.523   0.404 -0.6377  1.8984  0.9403
  246ACOH    H210867   4.224   7.372   0.490 -0.2850  0.2071  0.1419
  246ACOH    H310868   4.388   7.449   0.466 -0.4334 -0.5639  0.6734
  247ACOH    H410869   7.567   5.156   0.399 -0.0950 -0.4352  0.8758
  247ACOH    O210870   7.492   5.211   0.427 -0.0814 -0.1978  0.4485
  247ACOH    C210871   7.447   5.285   0.322 -0.1545 -0.0685 -0.0775
  247ACOH    O110872   7.501   5.305   0.219 -0.5861  0.4494  0.6892
  247ACOH    C110873   7.317   5.337   0.357  0.2517 -0.2413  0.3929
  247ACOH    H110874   7.331   5.400   0.444  0.7200  0.5438 -0.2421
  247ACOH    H210875   7.259   5.248   0.381  1.8010 -0.9971  1.3737
  247ACOH    H310876   7.280   5.390   0.269  0.2690 -1.8672 -0.6103
  248ACOH    H410877   4.985   1.604   1.916  0.5917  0.9925 -1.5642
  248ACOH    O210878   5.040   1.649   1.982  0.0678  0.0222 -0.4463
  248ACOH    C210879   4.988   1.667   2.108  0.4393 -0.3546  0.0022
  248ACOH    O110880   4.868   1.660   2.133 -0.1230 -0.0276 -0.2086
  248ACOH    C110881   5.090   1.715   2.200 -0.5961  0.2203 -0.1224
  248ACOH    H110882   5.066   1.819   2.220 -0.2930  0.8057 -2.6506
  248ACOH    H210883   5.187   1.712   2.151  2.0063  2.6580  4.6149
  248ACOH    H310884   5.085   1.655   2.291  0.2093  0.9991  0.4372
  249ACOH    H410885   1.812   3.117   3.025 -0.0101  2.8245  1.1704
  249ACOH    O210886   1.845   3.078   3.108 -1.1659 -0.2359  0.2567
  249ACOH    C210887   1.845   3.170   3.204  0.6673  0.2534 -0.2950
  249ACOH    O110888   1.797   3.281   3.200 -0.5750  0.1693 -0.1019
  249ACOH    C110889   1.903   3.116   3.323  0.1705  0.9268 -0.2191
  249ACOH    H110890   1.963   3.189   3.377  0.2953  0.1826  0.6696
  249ACOH    H210891   1.969   3.030   3.307  1.5985  2.0967 -0.7431
  249ACOH    H310892   1.821   3.078   3.383  0.3692 -0.3340 -0.7190
  250ACOH    H410893   7.004   4.523   0.071 -0.7839 -1.0921  1.7310
  250ACOH    O210894   6.928   4.497   0.017 -0.1085  0.0989  0.1878
  250ACOH    C210895   6.907   4.366   0.030  0.1746 -0.3748  0.0155
  250ACOH    O110896   6.980   4.282   0.089 -0.7234  0.6719  0.6801
  250ACOH    C110897   6.791   4.321  -0.055  0.2437 -0.1382  0.0675
  250ACOH    H110898   6.793   4.213  -0.067  0.1769 -0.3936  2.1483
  250ACOH    H210899   6.802   4.368  -0.153 -0.2319  1.1125  0.6110
  250ACOH    H310900   6.701   4.364  -0.010  1.1173  1.6797  0.1545
  251ACOH    H410901   4.658   3.479   0.903  0.8417  0.0664  0.5418
  251ACOH    O210902   4.713   3.399   0.890  0.5415  0.0124 -0.4499
  251ACOH    C210903   4.708   3.319   1.000 -0.6246  0.1674 -1.0354
  251ACOH    O110904   4.627   3.322   1.092  0.2363  0.0691 -0.0123
  251ACOH    C110905   4.817   3.222   1.013 -0.2395 -0.0755 -0.1202
  251ACOH    H110906   4.801   3.165   1.105 -1.9287  1.5444  0.6099
  251ACOH    H210907   4.910   3.277   1.024  0.9360 -2.3203  1.5789
  251ACOH    H310908   4.823   3.156   0.925 -0.7897  0.9323 -0.9227
  252ACOH    H410909   9.709   4.969   1.731  0.5516 -0.3796  2.1471
  252ACOH    O210910   9.663   5.050   1.759 -0.6038 -0.3066  0.1853
  252ACOH    C210911   9.535   5.026   1.791 -0.1348  0.2711  0.7787
  252ACOH    O110912   9.495   4.913   1.812  0.1693 -0.1550 -0.3584
  252ACOH    C110913   9.454   5.149   1.808 -0.5652 -0.6366  0.0151
  252ACOH    H110914   9.510   5.237   1.840 -1.0363  0.0586 -1.0404
  252ACOH    H210915   9.365   5.133   1.869 -1.9136  0.9237 -1.4770
  252ACOH    H310916   9.420   5.165   1.705  0.5912  0.0830 -0.2729
  253ACOH    H410917   3.455   0.840   2.974 -1.6237  1.0965  0.1490
  253ACOH    O210918   3.419   0.788   3.048 -0.1480  0.1201  0.2188
  253ACOH    C210919   3.524   0.747   3.118 -0.0848  0.2515  0.3217
  253ACOH    O110920   3.642   0.756   3.083  0.0812  0.5493 -0.0808
  253ACOH    C110921   3.472   0.666   3.232  0.2511 -0.1582 -0.2211
  253ACOH    H110922   3.409   0.732   3.292  0.8018  1.0414 -0.9558
  253ACOH    H210923   3.556   0.633   3.293 -0.9317  0.3106  1.6957
  253ACOH    H310924   3.416   0.578   3.199 -2.0340  1.5756 -1.0787
  254ACOH    H410925   8.609   5.302   0.604  1.0849 -0.0443 -0.7338
  254ACOH    O210926   8.635   5.394   0.586  0.1573  0.3799 -0.0027
  254ACOH    C210927   8.741   5.388   0.506  0.0301  0.0105  0.0599
  254ACOH    O110928   8.807   5.287   0.495  0.7144  0.0594  0.2758
  254ACOH    C110929   8.792   5.523   0.469  0.7716  0.3077 -0.1261
  254ACOH    H110930   8.714   5.599   0.472 -0.2324 -0.6690 -1.0742
  254ACOH    H210931   8.832   5.522   0.367 -0.1886  0.9207 -0.5191
  254ACOH    H310932   8.876   5.567   0.524  1.8748 -1.8204 -0.0594
  255ACOH    H410933   4.471   3.684   1.013 -0.1010  1.5816  0.5117
  255ACOH    O210934   4.413   3.721   1.082 -0.8535 -0.0986  0.8043
  255ACOH    C210935   4.401   3.853   1.040 -0.3483  0.6018 -0.1479
  255ACOH    O110936   4.464   3.894   0.943 -0.2853  0.0393  0.2377
  255ACOH    C110937   4.314   3.926   1.131  0.3724 -0.1980  0.3765
  255ACOH    H110938   4.250   3.991   1.071  2.7705  2.3419  0.4333
  255ACOH    H210939   4.378   3.999   1.182 -0.9237  0.6107  0.8580
  255ACOH    H310940   4.259   3.863   1.200  0.7187  0.7508  1.5434
  256ACOH    H410941   2.835   5.472   0.591 -1.1323  1.3705 -2.1731
  256ACOH    O210942   2.863   5.555   0.633  0.2872  0.0014 -0.3144
  256ACOH    C210943   2.940   5.526   0.741  0.0608 -0.5068 -0.0670
  256ACOH    O110944   2.953   5.416   0.795 -0.2908  0.0636 -0.3795
  256ACOH    C110945   2.982   5.652   0.800  0.6542 -0.3761  0.1343
  256ACOH    H110946   3.036   5.701   0.720 -1.2855  1.1411 -0.2634
  256ACOH    H210947   3.053   5.640   0.882 -1.7513  1.8145  2.6676
  256ACOH    H310948   2.896   5.710   0.836  0.2249 -1.0353  0.1848
  257ACOH    H410949   3.470   4.675   2.318 -4.1494 -3.5365 -0.6984
  257ACOH    O210950   3.431   4.744   2.261 -0.2103 -0.1771  0.3602
  257ACOH    C210951   3.375   4.829   2.339  0.2847  0.4381  0.1280
  257ACOH    O110952   3.317   4.799   2.436 -0.0038 -0.0257  0.4576
  257ACOH    C110953   3.346   4.958   2.281  0.5374  0.3202 -0.3669
  257ACOH    H110954   3.248   4.952   2.235  0.0096 -1.0104  0.8794
  257ACOH    H210955   3.425   4.980   2.209  0.3505 -1.2744 -1.0639
  257ACOH    H310956   3.346   5.038   2.356 -0.0633 -1.6460  1.8064
  258ACOH    H410957   4.857   3.557   0.563  0.0210  0.8050  0.0567
  258ACOH    O210958   4.953   3.559   0.552  0.0723  0.2282  0.3568
  258ACOH    C210959   4.991   3.611   0.432  0.7098 -0.8786 -0.2587
  258ACOH    O110960   4.923   3.685   0.359 -0.2061  0.1246 -0.0945
  258ACOH    C110961   5.133   3.595   0.409  0.4687  0.2138  0.4894
  258ACOH    H110962   5.154   3.581   0.303 -1.3797 -1.1875  0.2892
  258ACOH    H210963   5.168   3.508   0.464  1.4411  0.8113  0.8334
  258ACOH    H310964   5.194   3.677   0.446  0.8355  0.6768 -1.1376
  259ACOH    H410965   4.550   7.763   1.064 -3.7384 -0.2865 -1.0502
  259ACOH    O210966   4.582   7.678   1.031 -0.3640  0.3325  0.3829
  259ACOH    C210967   4.465   7.606   1.010  0.3156  0.4635  0.3914
  259ACOH    O110968   4.350   7.636   1.035 -0.1334 -0.4663 -0.0608
  259ACOH    C110969   4.498   7.465   0.971  0.1392 -0.0486  0.2725
  259ACOH    H110970   4.513   7.463   0.863  0.4886 -1.3487  0.3319
  259ACOH    H210971   4.412   7.401   0.989 -0.0485 -0.0388 -0.5838
  259ACOH    H310972   4.586   7.434   1.028  0.8158 -2.8761 -2.1449
  260ACOH    H410973   4.037   0.876   3.391  0.4972  0.7768  1.0445
  260ACOH    O210974   4.119   0.903   3.346 -0.0688  0.1095 -0.4229
  260ACOH    C210975   4.221   0.865   3.423  0.3782  0.1962 -0.0295
  260ACOH    O110976   4.215   0.828   3.535  0.3976  0.5281  0.4220
  260ACOH    C110977   4.349   0.902   3.364  0.5797 -1.1191 -0.6440
  260ACOH    H110978   4.429   0.915   3.436  1.0475 -1.9218 -1.0145
  260ACOH    H210979   4.329   0.993   3.307 -0.3146  0.6640  2.4241
  260ACOH    H310980   4.383   0.828   3.291 -0.1409 -1.0138 -1.1001
  261ACOH    H410981   4.703   9.730   2.990  1.3121  0.7569  0.3338
  261ACOH    O210982   4.660   9.800   3.041 -0.0177  0.1416  0.1022
  261ACOH    C210983   4.636   9.751   3.164 -0.0256 -0.1796 -0.0127
  261ACOH    O110984   4.644   9.636   3.206 -0.1303 -0.1495  0.0867
  261ACOH    C110985   4.580   9.854   3.253  0.1916 -0.3911 -0.1318
  261ACOH    H110986   4.619   9.955   3.244 -1.2623  0.1938  0.0716
  261ACOH    H210987   4.591   9.828   3.358  1.4034 -0.5365 -0.2804
  261ACOH    H310988   4.474   9.865   3.232 -0.0949 -1.1545  0.8909
  262ACOH    H410989   3.657   4.595   0.866  0.6060 -2.7349 -3.0734
  262ACOH    O210990   3.734   4.567   0.920 -0.2392  0.0744 -0.2417
  262ACOH    C210991   3.841   4.602   0.854 -0.7515 -0.1113 -0.3256
  262ACOH    O110992   3.849   4.696   0.777 -0.2808  0.1707  0.4056
  262ACOH    C110993   3.960   4.540   0.923 -0.8626  0.6928  0.0969
  262ACOH    H110994   3.991   4.607   1.002  2.8283 -1.3177  0.4730
  262ACOH    H210995   4.039   4.513   0.853 -0.4699 -0.9414  1.1210
  262ACOH    H310996   3.937   4.445   0.972  1.0971  0.1367 -0.0045
  263SOL     OW10997   3.665   3.237   1.724  0.2478  0.5827  0.2789
  263SOL    HW110998   3.607   3.174   1.673 -0.4869  1.0414  0.5376
  263SOL    HW210999   3.609   3.310   1.763  0.7445  0.0670  2.0235
  264SOL     OW11000   2.916   6.588   2.040  0.5600  0.8822 -0.4408
  264SOL    HW111001   2.989   6.534   1.998  2.1517  3.2247 -0.7304
  264SOL    HW211002   2.910   6.566   2.138 -0.1035 -1.2040 -0.9241
  265SOL     OW11003   3.464   8.517   1.948  0.6135 -0.0200  0.2333
  265SOL    HW111004   3.481   8.429   1.993  0.4621 -0.6942 -1.0024
  265SOL    HW211005   3.548   8.572   1.951 -0.6053  1.7531  5.1815
  266SOL     OW11006   0.138   2.947   2.149  0.0309  0.2618 -0.8707
  266SOL    HW111007   0.190   3.015   2.097  0.6015 -1.4886 -2.6068
  266SOL    HW211008   0.199   2.895   2.208 -0.2077  0.2818 -0.6023
  267SOL     OW11009   3.968   2.131   0.833  0.1122  0.6144  0.7023
  267SOL    HW111010   3.903   2.084   0.773 -0.6347  1.8346  0.5299
  267SOL    HW211011   4.011   2.206   0.782 -1.2220  2.2506  1.9607
  268SOL     OW11012   1.695   3.431   2.693 -0.4723  0.0664 -0.5562
  268SOL    HW111013   1.762   3.464   2.626 -0.5870  0.5983 -0.4089
  268SOL    HW211014   1.669   3.505   2.755  2.3933 -1.3362  2.4453
  269SOL     OW11015   3.653   1.710   3.076  0.7477 -0.5859  0.3525
  269SOL    HW111016   3.687   1.753   3.160 -0.3057 -0.5051  0.7497
  269SOL    HW211017   3.647   1.611   3.090  0.0340 -0.5156  0.5751
  270SOL     OW11018   1.086   9.519   1.535  0.3914  0.1558  0.1510
  270SOL    HW111019   1.038   9.474   1.611  0.2633  0.1696  0.0774
  270SOL    HW211020   1.169   9.467   1.514 -0.1891 -0.5247 -0.4848
  271SOL     OW11021   1.414   7.467   1.616  0.0904 -0.1617  0.4822
  271SOL    HW111022   1.509   7.460   1.646  0.0133 -0.1263  0.7354
  271SOL    HW211023   1.408   7.444   1.519  0.4569  0.4586  0.3054
  272SOL     OW11024   2.658   2.135   1.876 -0.7477 -0.3319  0.6766
  272SOL    HW111025   2.663   2.208   1.945  2.3264 -1.0085  1.2744
  272SOL    HW211026   2.634   2.049   1.921 -2.2052 -0.1198  0.3202
  273SOL     OW11027   3.387   1.516   0.385 -0.6376  0.2819  0.2952
  273SOL    HW111028   3.403   1.534   0.288  0.4635 -0.4239  0.3289
  273SOL    HW211029   3.307   1.567   0.416 -3.2143 -2.3026 -1.8467
  274SOL     OW11030   2.117   8.858   0.106 -0.7103 -0.2604  0.2706
  274SOL    HW111031   2.162   8.793   0.045 -2.8098 -1.2694 -0.2574
  274SOL    HW211032   2.122   8.950   0.066  1.6297 -0.1894  0.6649
  275SOL     OW11033   1.061   7.545   2.922  0.0443  0.2853  0.4443
  275SOL    HW111034   0.994   7.620   2.926 -1.5277 -1.0713  0.0333
  275SOL    HW211035   1.119   7.548   3.003  0.2186  2.1388  0.2819
  276SOL     OW11036   2.697   4.256   2.541 -0.2157  0.1895 -0.6864
  276SOL    HW111037   2.694   4.164   2.500  2.6361 -0.8176  1.2441
  276SOL    HW211038   2.766   4.311   2.493  1.3143 -0.1745  1.0554
  277SOL     OW11039   9.749   1.308   2.195  0.3679  0.9550  0.2335
  277SOL    HW111040   9.655   1.277   2.206  0.5338  0.4368  0.2102
  277SOL    HW211041   9.773   1.308   2.097 -0.2825  3.1105  0.0403
  278SOL     OW11042   0.743   5.265   1.206 -0.2244  0.7332 -0.0079
  278SOL    HW111043   0.820   5.244   1.146  0.9638 -0.5533  1.8862
  278SOL    HW211044   0.743   5.363   1.227 -0.4115  1.1170 -1.7379
  279SOL     OW11045   1.107   0.658   0.575  0.3536  0.3885 -0.3011
  279SOL    HW111046   1.091   0.745   0.621 -2.7319 -0.9034  1.2402
  279SOL    HW211047   1.022   0.625   0.535  1.5298 -1.7772 -1.1045
  280SOL     OW11048   8.807   2.901   1.692  0.3166  0.2298  0.1691
  280SOL    HW111049   8.778   2.983   1.643  0.2054  0.7503  1.0876
  280SOL    HW211050   8.890   2.864   1.649  0.4036  0.8648 -0.2118
  281SOL     OW11051   1.566   4.723   2.466  0.0263 -0.3740  0.2046
  281SOL    HW111052   1.530   4.758   2.380 -0.3258  0.9038  0.8488
  281SOL    HW211053   1.659   4.689   2.452  0.3305  0.7109 -0.4935
  282SOL     OW11054   0.433   1.592   0.056 -0.4865 -0.2432  0.5865
  282SOL    HW111055   0.465   1.540   0.135 -1.9268 -1.9257  0.1018
  282SOL    HW211056   0.372   1.665   0.088  1.1489  0.8678  1.2319
  283SOL     OW11057   1.157   2.333   1.154  0.3308 -0.2130 -0.2467
  283SOL    HW111058   1.098   2.414   1.150 -0.1879 -0.6259 -1.0817
  283SOL    HW211059   1.103   2.254   1.184  0.7538 -0.3312  0.2105
  284SOL     OW11060   7.736   1.154   2.181 -0.0502 -0.0850 -0.3795
  284SOL    HW111061   7.662   1.210   2.216 -1.1689 -0.8882 -1.4278
  284SOL    HW211062   7.706   1.058   2.175  2.3613 -1.1634  2.9992
  285SOL     OW11063   3.159   4.172   3.323  0.2187  0.0105  0.7190
  285SOL    HW111064   3.229   4.227   3.369  1.5129 -0.3155 -0.8078
  285SOL    HW211065   3.189   4.077   3.320 -1.6211 -0.6543  2.5919
  286SOL     OW11066   4.114   1.110   2.321 -0.0901 -0.1559  0.3824
  286SOL    HW111067   4.192   1.097   2.261 -0.2073  1.8334 -0.2227
  286SOL    HW211068   4.030   1.115   2.267 -0.3329  0.4173  0.8009
  287SOL     OW11069   4.113   9.056   2.459 -0.0655  0.3440  0.4287
  287SOL    HW111070   4.187   8.989   2.456  0.3233  0.7774  0.3746
  287SOL    HW211071   4.095   9.090   2.367 -0.3122  0.2674  0.4468
  288SOL     OW11072   0.459   7.748   1.721  0.2656  0.2668  0.3002
  288SOL    HW111073   0.389   7.737   1.792  2.0790 -2.1695  1.7703
  288SOL    HW211074   0.547   7.769   1.764  1.1673 -0.1660 -1.3104
  289SOL     OW11075   0.523   3.418   1.409  0.2449  0.5684 -0.0416
  289SOL    HW111076   0.555   3.365   1.487  1.5764  0.8394 -0.3845
  289SOL    HW211077   0.449   3.369   1.363  1.4168 -0.9802 -0.3268
  290SOL     OW11078   1.392   2.870   2.220  0.0260 -0.2551 -0.2141
  290SOL    HW111079   1.321   2.940   2.234 -0.4677 -0.7244 -0.3926
  290SOL    HW211080   1.359   2.800   2.157  0.6027 -0.5437 -0.1996
  291SOL     OW11081   8.136   3.274   2.276  0.7049 -0.5978  0.0658
  291SOL    HW111082   8.203   3.323   2.219  1.1728 -0.2863  0.8630
  291SOL    HW211083   8.077   3.341   2.321  0.3607 -0.8416 -0.0302
  292SOL     OW11084   2.939   9.256   2.967 -0.0975  0.4479  0.1656
  292SOL    HW111085   2.937   9.231   3.064  1.1365 -0.3863 -0.0243
  292SOL    HW211086   2.972   9.179   2.913 -1.3334  0.7254 -0.9872
  293SOL     OW11087   1.279   5.592   2.383  0.2118  0.0414  0.4313
  293SOL    HW111088   1.300   5.634   2.472  1.2303 -0.8932  0.6422
  293SOL    HW211089   1.333   5.637   2.312  1.4475 -1.0004  0.6844
  294SOL     OW11090   0.289   4.509   0.708  0.0130  0.3236  0.0122
  294SOL    HW111091   0.256   4.599   0.680  0.2899  0.7864  1.1340
  294SOL    HW211092   0.258   4.490   0.801  1.7666  0.1988  0.5950
  295SOL     OW11093   1.692   4.954   3.171 -0.4521 -0.4119  0.9215
  295SOL    HW111094   1.737   4.871   3.137 -0.2837  0.4127 -0.9153
  295SOL    HW211095   1.675   5.016   3.095 -0.7156  1.1846  2.2587
  296SOL     OW11096   9.348   4.379   3.260  0.1897 -0.3354 -0.1848
  296SOL    HW111097   9.420   4.314   3.286 -0.3600 -0.7778  0.2404
  296SOL    HW211098   9.347   4.455   3.324  1.6399  0.7364 -1.3782
  297SOL     OW11099   1.122   6.461   1.966 -0.1077  0.0390 -0.3811
  297SOL    HW111100   1.153   6.374   1.927 -2.0701 -0.6081 -0.5402
  297SOL    HW211101   1.027   6.453   1.996 -0.3664  2.1656 -0.5200
  298SOL     OW11102   2.140   0.290   1.270 -0.1283 -0.4313 -0.3586
  298SOL    HW111103   2.054   0.262   1.313  0.3683  0.0172  0.9395
  298SOL    HW211104   2.131   0.284   1.170 -1.7468 -0.1287 -0.2379
  299SOL     OW11105   1.508   7.197   3.414  0.4640  0.5011  0.4108
  299SOL    HW111106   1.565   7.210   3.495  1.6844 -0.5911 -0.2516
  299SOL    HW211107   1.478   7.102   3.409  0.8109  0.4388 -0.6725
  300SOL     OW11108   9.941   9.495   0.316 -0.4873 -0.2806  0.7568
  300SOL    HW111109  10.030   9.462   0.284 -0.4938  1.4059 -1.1285
  300SOL    HW211110   9.868   9.453   0.261 -0.5987  1.3429 -0.3827
  301SOL     OW11111   3.259   7.554   1.862 -0.0777 -0.8406  0.7704
  301SOL    HW111112   3.238   7.627   1.797 -0.4253  0.3640  2.2114
  301SOL    HW211113   3.257   7.466   1.815 -1.5216 -0.1008 -0.6028
  302SOL     OW11114   4.351   1.300   2.537  0.2805  0.5267 -0.1738
  302SOL    HW111115   4.357   1.224   2.602  1.2911 -0.7357 -1.6990
  302SOL    HW211116   4.257   1.334   2.534 -0.3249 -1.0784  0.0893
  303SOL     OW11117   0.794   5.306   2.899 -0.0368  0.1394 -0.1998
  303SOL    HW111118   0.890   5.302   2.872  0.4242 -0.2509  1.4516
  303SOL    HW211119   0.756   5.396   2.875  0.7694  0.3406 -0.7378
  304SOL     OW11120   9.691   3.877   1.230 -0.0350 -0.1331  0.2220
  304SOL    HW111121   9.739   3.949   1.180 -2.1149  1.2471  0.1744
  304SOL    HW211122   9.709   3.887   1.328  0.4087 -0.1007  0.1372
  305SOL     OW11123   8.473   2.719   1.028 -1.3107  0.4652 -0.0979
  305SOL    HW111124   8.558   2.730   0.978 -0.9057  0.0420  0.4885
  305SOL    HW211125   8.466   2.788   1.100 -1.5146  0.5714 -0.2193
  306SOL     OW11126   2.290   3.567   3.427 -0.1006 -0.1180 -0.1985
  306SOL    HW111127   2.316   3.659   3.397 -1.5253  0.8089  1.3329
  306SOL    HW211128   2.313   3.555   3.524  1.4584 -1.9196 -0.7665
  307SOL     OW11129   9.769   3.057   3.287 -0.4419  0.1366 -0.5890
  307SOL    HW111130   9.792   2.999   3.365 -1.2059  0.3673 -0.1834
  307SOL    HW211131   9.671   3.080   3.290 -0.6428 -0.4590 -2.0172
  308SOL     OW11132   4.504   9.423   2.746  0.1970  0.7225  0.4391
  308SOL    HW111133   4.525   9.432   2.844 -2.9457 -1.9830  1.4904
  308SOL    HW211134   4.527   9.330   2.716  1.5202  1.6676 -1.5073
  309SOL     OW11135   8.239   2.458   2.747 -0.1879  0.0115  0.1378
  309SOL    HW111136   8.226   2.359   2.742 -0.1805 -0.0592  1.4109
  309SOL    HW211137   8.257   2.494   2.655 -1.1276 -1.0308 -0.4716
  310SOL     OW11138   3.687   8.251   2.867  0.2250 -0.0557 -0.0653
  310SOL    HW111139   3.597   8.207   2.864  0.5854 -0.7647 -0.6724
  310SOL    HW211140   3.701   8.303   2.783  0.9153 -1.0282 -0.5649
  311SOL     OW11141   1.219   1.613   3.272  0.0105  0.0391  0.1840
  311SOL    HW111142   1.286   1.550   3.311  0.5318 -0.1994 -1.0664
  311SOL    HW211143   1.142   1.623   3.335 -0.0336 -1.7669  0.4290
  312SOL     OW11144   3.964   8.464   1.697 -0.0235 -0.3488 -0.6400
  312SOL    HW111145   3.933   8.531   1.630  0.7280 -0.2487 -0.8964
  312SOL    HW211146   3.912   8.379   1.685 -0.4089 -0.0850 -0.8530
  313SOL     OW11147   9.087   3.635   3.233  0.0007  0.2192 -0.0430
  313SOL    HW111148   9.131   3.621   3.322  1.1075 -0.2111 -0.6491
  313SOL    HW211149   9.014   3.702   3.242  2.3033  2.7255  0.5250
  314SOL     OW11150   3.084   6.461   0.659  0.4258  0.5259  0.3234
  314SOL    HW111151   3.003   6.430   0.608  0.3972 -2.0389  1.8540
  314SOL    HW211152   3.138   6.522   0.601 -1.1534  0.0652 -1.7031
  315SOL     OW11153   2.612   8.047   3.226  0.7616  0.4570 -0.1100
  315SOL    HW111154   2.541   7.986   3.191  1.9838 -0.3021 -1.3234
  315SOL    HW211155   2.573   8.107   3.296 -0.9893 -0.1413 -0.5477
  316SOL     OW11156   1.121   9.323   0.483  0.6429 -0.2204 -0.0559
  316SOL    HW111157   1.083   9.410   0.452  0.5150  0.0753  0.9226
  316SOL    HW211158   1.218   9.318   0.458  0.8241  0.5027  0.5057
  317SOL     OW11159   3.486   5.042   0.732 -0.2301  0.1888 -0.1267
  317SOL    HW111160   3.434   5.060   0.815 -0.7753  0.9275 -0.6189
  317SOL    HW211161   3.423   5.042   0.653 -0.0066 -2.2088 -0.3549
  318SOL     OW11162   0.236   9.592   2.794 -0.2124 -0.4508 -0.0213
  318SOL    HW111163   0.216   9.563   2.700 -1.0873 -0.8661  0.2970
  318SOL    HW211164   0.164   9.561   2.855 -0.5766  1.4189  0.5091
  319SOL     OW11165   0.842   7.401   0.804 -0.2503  0.0418  0.2057
  319SOL    HW111166   0.801   7.375   0.716 -0.6333 -0.4352  0.5236
  319SOL    HW211167   0.829   7.327   0.870 -0.1688  0.4946  0.7342
  320SOL     OW11168   2.870   4.635   2.845  0.0625  0.5684  0.4242
  320SOL    HW111169   2.863   4.634   2.746  2.3725  1.2095  0.2266
  320SOL    HW211170   2.813   4.562   2.883  0.4909 -0.7799 -1.4719
  321SOL     OW11171   3.298   7.961   2.660  0.3039 -0.6559  0.4844
  321SOL    HW111172   3.297   7.871   2.702 -1.7888 -1.1753 -0.5859
  321SOL    HW211173   3.205   7.984   2.629  0.0915  3.1702  3.5158
  322SOL     OW11174   0.870   5.763   1.859 -0.1317 -0.5598  0.3882
  322SOL    HW111175   0.903   5.767   1.954  4.5490 -0.5432 -1.1100
  322SOL    HW211176   0.854   5.667   1.834 -1.9246 -0.5294  1.2885
  323SOL     OW11177   2.196   4.905   0.543  0.2766 -0.0056  0.4162
  323SOL    HW111178   2.209   4.837   0.471  1.8276 -1.4906  2.0228
  323SOL    HW211179   2.107   4.892   0.586 -0.5390  0.7077 -1.0032
  324SOL     OW11180   1.814   8.997   0.507  0.0070 -0.4396 -0.5724
  324SOL    HW111181   1.829   8.979   0.410 -2.5859 -0.3115 -1.0445
  324SOL    HW211182   1.716   8.990   0.527  0.3995  0.5127  1.8370
  325SOL     OW11183   0.924   1.453   3.124  0.1740  0.0001 -0.6344
  325SOL    HW111184   0.910   1.385   3.053  0.6988 -1.8866  1.0428
  325SOL    HW211185   1.020   1.482   3.124  0.2332 -0.1977 -0.5108
  326SOL     OW11186   2.232   6.489   1.706 -0.5767  0.5911  0.1502
  326SOL    HW111187   2.303   6.431   1.666  1.0907  2.7541 -0.0683
  326SOL    HW211188   2.259   6.585   1.699 -3.3420  1.4207  0.4352
  327SOL     OW11189   9.840   9.220   1.055  0.5688 -0.5843 -0.2512
  327SOL    HW111190   9.881   9.187   0.971  0.2312 -0.4605 -0.4682
  327SOL    HW211191   9.777   9.295   1.034 -0.2933 -1.2299 -0.0040
  328SOL     OW11192   1.405   3.622   2.764 -0.3518  0.1614 -0.0442
  328SOL    HW111193   1.413   3.551   2.694  1.6729 -0.8820  1.2117
  328SOL    HW211194   1.478   3.612   2.831  0.5214  3.9778 -0.2992
  329SOL     OW11195   0.645   9.725   1.262 -0.1176  0.1747 -0.1776
  329SOL    HW111196   0.711   9.672   1.314 -0.6135 -0.1769  0.0953
  329SOL    HW211197   0.564   9.743   1.318 -0.5701 -0.0417 -0.7522
  330SOL     OW11198   5.317   8.821   2.074  0.4296 -0.0179 -0.3444
  330SOL    HW111199   5.358   8.730   2.065 -2.4963 -1.6395  1.8796
  330SOL    HW211200   5.359   8.883   2.008  2.6642 -2.8884 -1.7384
  331SOL     OW11201   3.123   9.964   2.155  0.1784 -0.8353 -0.0332
  331SOL    HW111202   3.112   9.938   2.059  0.2132 -0.5602 -0.1119
  331SOL    HW211203   3.166  10.054   2.161 -0.7320 -0.3999  0.2170
  332SOL     OW11204   0.623   4.885   1.359  0.3965 -0.3588 -0.1086
  332SOL    HW111205   0.581   4.976   1.362 -0.4341 -0.7450  0.1135
  332SOL    HW211206   0.653   4.866   1.265 -1.1036 -0.5986 -0.5437
  333SOL     OW11207   8.232   2.309   2.243  0.5121  0.5258 -0.4421
  333SOL    HW111208   8.325   2.343   2.232 -0.1411  1.9508 -1.7149
  333SOL    HW211209   8.174   2.381   2.283 -0.0049 -0.4171  0.5482
  334SOL     OW11210   1.083   0.820   1.174 -0.5992 -0.5910 -0.3577
  334SOL    HW111211   1.125   0.768   1.099  0.6308 -0.4538  0.2332
  334SOL    HW211212   1.058   0.912   1.141  1.8830  0.2139 -0.0482
  335SOL     OW11213   2.166   6.067   1.849  0.4420  0.3507 -0.5377
  335SOL    HW111214   2.136   6.080   1.755 -2.5579  1.5362  0.5063
  335SOL    HW211215   2.184   6.156   1.891  1.4115 -0.1462  0.0955
  336SOL     OW11216   1.679   2.914   0.152 -0.4766 -0.1705 -0.2580
  336SOL    HW111217   1.702   2.822   0.184  0.0835 -0.2615 -0.9248
  336SOL    HW211218   1.737   2.981   0.199  1.5019 -0.4307 -2.2377
  337SOL     OW11219   1.379   9.954   1.009  0.1750 -0.0085 -0.0184
  337SOL    HW111220   1.426   9.907   0.934  1.0193  0.5369  0.1678
  337SOL    HW211221   1.283   9.967   0.984  0.4407  0.1339 -0.9916
  338SOL     OW11222   4.835   2.110   1.050 -0.3764  0.1607  0.6623
  338SOL    HW111223   4.736   2.109   1.061 -0.3857  0.4028  0.5909
  338SOL    HW211224   4.858   2.121   0.953 -0.2798  0.0509  0.6725
  339SOL     OW11225   3.225   2.456   0.362  1.0837 -0.3226 -0.2138
  339SOL    HW111226   3.214   2.403   0.446  1.9823  0.4307  0.3929
  339SOL    HW211227   3.136   2.480   0.325  0.6846 -0.4079  0.6861
  340SOL     OW11228   1.592   0.140   2.182 -0.0244  0.6745 -0.5187
  340SOL    HW111229   1.676   0.195   2.189  1.6464 -1.7852 -0.6736
  340SOL    HW211230   1.551   0.154   2.092  1.3526  0.3690 -1.2137
  341SOL     OW11231   3.734   0.742   0.960 -0.2087 -0.0580 -0.3675
  341SOL    HW111232   3.637   0.767   0.965  0.0542  1.0443 -0.5724
  341SOL    HW211233   3.745   0.645   0.982 -1.2425  0.0512  0.6616
  342SOL     OW11234   1.008   6.307   3.343  0.3034 -0.2702  0.3133
  342SOL    HW111235   0.994   6.325   3.246  2.2632 -0.5648 -0.0258
  342SOL    HW211236   0.919   6.294   3.387 -0.5967 -0.1077 -1.4230
  343SOL     OW11237   9.003   0.801   2.095  0.4808 -0.0291  0.6033
  343SOL    HW111238   8.930   0.865   2.117 -0.1668 -1.5610  3.2102
  343SOL    HW211239   9.073   0.804   2.168  0.4938 -2.1541  0.7043
  344SOL     OW11240   9.815   3.904   1.465 -0.4535  0.4516 -0.3864
  344SOL    HW111241   9.850   3.875   1.553 -1.7633 -0.5978 -0.1874
  344SOL    HW211242   9.891   3.926   1.404  0.4587  1.0591  0.9456
  345SOL     OW11243   7.784   2.265   2.841 -0.3889 -0.3293  0.1747
  345SOL    HW111244   7.876   2.280   2.803 -0.5548 -0.8291 -0.4381
  345SOL    HW211245   7.765   2.334   2.910  0.7111 -0.6136  0.7837
  346SOL     OW11246   0.881   4.996   2.753 -0.4560  0.1891  0.3476
  346SOL    HW111247   0.899   5.080   2.805  1.3638  0.5377 -0.7736
  346SOL    HW211248   0.821   5.017   2.676 -0.9629  0.2070  0.7409
  347SOL     OW11249   8.820   3.561   1.027 -0.3108  0.0050 -0.5665
  347SOL    HW111250   8.843   3.621   0.950 -0.6057  2.7413  1.4166
  347SOL    HW211251   8.734   3.591   1.068 -0.9747 -2.4064 -0.1065
  348SOL     OW11252   3.296   6.922   1.180 -0.2083 -0.3015 -0.1604
  348SOL    HW111253   3.257   6.851   1.122  1.1234 -2.1830  1.1815
  348SOL    HW211254   3.311   6.885   1.272 -0.9476  2.1853  1.0015
  349SOL     OW11255   9.167   0.337   0.752 -0.0022  0.0335  0.2387
  349SOL    HW111256   9.112   0.254   0.760  1.0783 -0.6937  0.3582
  349SOL    HW211257   9.256   0.321   0.795  0.3788  1.1078 -0.1411
  350SOL     OW11258   3.403   7.407   1.515 -0.1652 -0.5712  0.2654
  350SOL    HW111259   3.328   7.393   1.579  0.6107  1.4706  1.6575
  350SOL    HW211260   3.369   7.399   1.421 -1.8212 -1.0306  0.8930
  351SOL     OW11261   0.567   7.944   2.792 -0.3866 -0.0280 -0.3139
  351SOL    HW111262   0.592   7.870   2.731  0.9915 -0.5041  0.8122
  351SOL    HW211263   0.481   7.922   2.839  0.4264 -1.2669  0.6068
  352SOL     OW11264   3.659   3.739   3.185  0.0413 -0.1660  0.0917
  352SOL    HW111265   3.676   3.674   3.259 -0.6170  1.3175  1.6015
  352SOL    HW211266   3.652   3.831   3.223 -1.1544  0.5339 -1.7205
  353SOL     OW11267   0.212   3.945   3.349 -0.0532 -0.3574 -0.0196
  353SOL    HW111268   0.217   3.852   3.312  1.9219 -0.2883  0.0361
  353SOL    HW211269   0.271   3.952   3.429 -1.4686  0.5131  0.9562
  354SOL     OW11270   1.006   6.988   2.179  0.1930  0.4121 -0.3528
  354SOL    HW111271   1.042   6.949   2.094 -1.5599  0.0867 -0.9473
  354SOL    HW211272   0.911   7.015   2.167 -0.0986  0.3326  1.5226
  355SOL     OW11273   2.612   6.341   0.336  0.0854  0.3398 -0.1783
  355SOL    HW111274   2.623   6.406   0.261  2.0510  0.7650  0.4560
  355SOL    HW211275   2.599   6.390   0.422 -1.5356 -0.1471 -0.1196
  356SOL     OW11276   4.276   1.806   0.934  0.3816 -0.7320  0.0655
  356SOL    HW111277   4.268   1.818   1.033  0.5452  0.1227 -0.0181
  356SOL    HW211278   4.311   1.890   0.893 -0.3132 -0.8542 -0.7954
  357SOL     OW11279   1.618   4.318   1.655  0.4394  0.2729  0.0102
  357SOL    HW111280   1.674   4.262   1.594  0.1611  0.0237 -0.0188
  357SOL    HW211281   1.655   4.411   1.659  1.0146  0.0330  0.2111
  358SOL     OW11282   2.136   2.384   0.950 -0.3965  0.2744 -0.8820
  358SOL    HW111283   2.153   2.287   0.939 -0.6556  0.3294 -1.8216
  358SOL    HW211284   2.042   2.399   0.981  0.7195  0.0496  2.8502
  359SOL     OW11285   2.463   1.142   0.996 -0.1498 -0.3878  0.4273
  359SOL    HW111286   2.534   1.163   0.928 -2.0567  0.2571 -1.4224
  359SOL    HW211287   2.415   1.058   0.969 -1.5959  0.4341  0.4086
  360SOL     OW11288   9.750   4.566   1.782 -0.1550 -0.4125 -0.1807
  360SOL    HW111289   9.673   4.522   1.736  0.0098  0.7459 -1.5779
  360SOL    HW211290   9.751   4.538   1.878 -1.7981 -1.1170 -0.3513
  361SOL     OW11291   1.279   2.844   0.897  0.2244  0.1710 -0.0966
  361SOL    HW111292   1.351   2.909   0.873 -2.0176  2.7938  0.0312
  361SOL    HW211293   1.271   2.840   0.996  0.8361 -0.8712 -0.0853
  362SOL     OW11294   1.892   1.431   2.262  0.2361  0.4200 -0.5162
  362SOL    HW111295   1.982   1.392   2.244  0.7553  0.7085  1.3441
  362SOL    HW211296   1.868   1.495   2.189  2.0717  1.2545 -0.4082
  363SOL     OW11297   1.298   8.092   0.557  0.0546 -0.0156 -0.2682
  363SOL    HW111298   1.272   8.131   0.468 -1.4785  0.8006  0.5029
  363SOL    HW211299   1.392   8.118   0.579 -0.3572  1.8023 -0.5791
  364SOL     OW11300   0.162   0.198   3.259  0.0554 -0.1118 -0.0046
  364SOL    HW111301   0.165   0.292   3.292 -0.9897  0.6881 -2.0611
  364SOL    HW211302   0.254   0.168   3.234  0.7159 -0.4133  2.6574
  365SOL     OW11303   8.712   3.915   0.960  0.0248 -0.1101 -0.1373
  365SOL    HW111304   8.640   3.985   0.954  0.0734 -0.1098 -0.7979
  365SOL    HW211305   8.674   3.825   0.939  0.0016 -0.2569  0.5241
  366SOL     OW11306   3.880   1.877   1.778  0.0323  0.1733 -0.4171
  366SOL    HW111307   3.913   1.832   1.694  0.5249  1.9644 -1.2052
  366SOL    HW211308   3.788   1.912   1.763 -0.5953 -1.0816  0.4013
  367SOL     OW11309   2.432   8.349   3.010  0.6823 -0.0273 -0.3055
  367SOL    HW111310   2.438   8.424   2.944  0.3088 -0.3302 -0.6909
  367SOL    HW211311   2.507   8.284   2.994  1.5536  0.7334  0.6298
  368SOL     OW11312   2.658   7.024   1.399 -0.0296 -0.5910  0.6443
  368SOL    HW111313   2.590   7.096   1.413 -0.5897 -1.0163  0.1159
  368SOL    HW211314   2.749   7.066   1.388 -0.4278  0.0729 -0.2131
  369SOL     OW11315   9.830   2.442   0.444  0.7961 -0.1901 -0.1820
  369SOL    HW111316   9.773   2.392   0.509  0.8403  1.3129  1.0254
  369SOL    HW211317   9.798   2.536   0.435  0.4686 -0.4947 -2.7640
  370SOL     OW11318   4.354   3.445   2.570 -0.5003 -0.3683 -0.0033
  370SOL    HW111319   4.257   3.436   2.547 -0.6209  0.5736  0.1412
  370SOL    HW211320   4.370   3.532   2.614  0.2279 -1.0130  1.0131
  371SOL     OW11321   7.517   1.265   0.664 -0.0297 -0.8963  0.5975
  371SOL    HW111322   7.435   1.288   0.716  0.3614 -0.2492  0.9236
  371SOL    HW211323   7.597   1.266   0.724  0.3380 -0.7226  0.1078
  372SOL     OW11324   3.323   2.421   2.380 -0.1545 -0.7561  0.3471
  372SOL    HW111325   3.368   2.423   2.290 -0.3402  2.0485  0.2488
  372SOL    HW211326   3.288   2.512   2.400 -1.2830 -1.6906  2.7094
  373SOL     OW11327   4.359   8.488   2.240 -0.2238  0.0011 -0.4494
  373SOL    HW111328   4.384   8.547   2.163 -1.1276  0.6715 -0.2367
  373SOL    HW211329   4.398   8.397   2.226  2.1199  0.9416 -0.2366
  374SOL     OW11330   1.901   6.307   0.969 -0.4091  0.0650 -0.5377
  374SOL    HW111331   1.804   6.309   0.948 -0.6858  0.9537  0.7312
  374SOL    HW211332   1.915   6.269   1.061  0.1206  3.2087  0.7620
  375SOL     OW11333   8.946   2.804   1.249 -0.4126 -0.3191  0.0723
  375SOL    HW111334   8.937   2.784   1.346  0.7923  0.7310  0.4069
  375SOL    HW211335   8.978   2.722   1.201 -0.0976 -0.5688  0.7037
  376SOL     OW11336   1.304   1.291   0.207 -0.0333 -0.1431 -0.1666
  376SOL    HW111337   1.261   1.381   0.212 -3.0842 -1.5096 -0.2877
  376SOL    HW211338   1.344   1.277   0.116 -1.0450  0.4396 -0.7039
  377SOL     OW11339   0.577   9.016   1.312  0.1387 -0.0374 -0.0084
  377SOL    HW111340   0.599   9.095   1.255  0.0423 -0.4060 -0.5699
  377SOL    HW211341   0.563   8.936   1.253 -0.1321 -0.3877  0.5249
  378SOL     OW11342   0.511   5.457   0.764  0.0941 -0.1465  0.0390
  378SOL    HW111343   0.451   5.382   0.738  0.1320 -0.2431  0.2329
  378SOL    HW211344   0.556   5.493   0.683 -2.1976  1.6282 -0.4977
  379SOL     OW11345   0.878   0.514   2.993  0.1747 -0.4120 -0.3904
  379SOL    HW111346   0.962   0.469   3.023  0.7045  0.2445 -0.8791
  379SOL    HW211347   0.809   0.507   3.065  1.7683  2.1107  1.4713
  380SOL     OW11348   9.117   4.480   0.343  0.2277 -0.4167  0.3031
  380SOL    HW111349   9.056   4.518   0.413  1.0237  2.0960 -0.3072
  380SOL    HW211350   9.067   4.473   0.256  0.2012 -0.3337  0.3110
  381SOL     OW11351   9.812   1.285   1.912  0.2161 -0.4276  0.1870
  381SOL    HW111352   9.821   1.331   1.823  1.8342 -0.0219  0.5414
  381SOL    HW211353   9.884   1.218   1.922 -1.1002 -1.8340  0.4231
  382SOL     OW11354   2.578   6.845   0.007  0.6058  0.0191  0.1927
  382SOL    HW111355   2.513   6.831   0.083  0.8412  0.8569  0.5541
  382SOL    HW211356   2.527   6.864  -0.077  0.3829  1.5488  0.6550
  383SOL     OW11357   3.231   0.003   1.156  0.6059  0.5640 -0.2364
  383SOL    HW111358   3.136  -0.017   1.178  0.9578 -0.2664  0.5815
  383SOL    HW211359   3.266  -0.065   1.091  1.3002 -0.4973  1.2213
  384SOL     OW11360   2.332   0.373   0.273 -0.0453  0.5378  0.3212
  384SOL    HW111361   2.283   0.443   0.324  0.5976 -0.8228  2.8632
  384SOL    HW211362   2.405   0.334   0.329 -0.8667 -2.7224 -0.7196
  385SOL     OW11363   3.123   2.742   1.300 -0.0214 -0.1958  0.1269
  385SOL    HW111364   3.147   2.645   1.309  0.9602  0.0171 -0.1651
  385SOL    HW211365   3.130   2.770   1.205 -0.1988  0.1917  0.2267
  386SOL     OW11366   9.352   1.895   1.962 -0.2191  0.6958  0.1262
  386SOL    HW111367   9.427   1.898   1.895 -0.0573 -0.8581  0.2260
  386SOL    HW211368   9.390   1.901   2.054 -0.3182  1.1268  0.1426
  387SOL     OW11369   2.064   3.218   2.671 -0.5743 -0.2752  0.4804
  387SOL    HW111370   1.987   3.224   2.735 -0.0727  1.3294  0.9487
  387SOL    HW211371   2.149   3.212   2.722 -0.3198 -1.1681 -0.0454
  388SOL     OW11372   3.696   5.005   1.880  0.5968  0.2141  0.4893
  388SOL    HW111373   3.609   4.979   1.923  0.8315  0.4631  1.1110
  388SOL    HW211374   3.723   4.934   1.816  0.3852 -0.2844  0.9511
  389SOL     OW11375   2.095   3.990   1.491  0.0968  0.3830  0.5584
  389SOL    HW111376   2.153   4.072   1.497 -0.0162  0.3311  2.8797
  389SOL    HW211377   2.035   3.987   1.571 -1.1463 -1.0563 -0.4154
  390SOL     OW11378   2.332   5.890   2.146  0.1784 -0.0484  0.3920
  390SOL    HW111379   2.395   5.813   2.148  0.8118  0.4921  1.4269
  390SOL    HW211380   2.336   5.934   2.056  0.2245 -0.8669 -0.0143
  391SOL     OW11381   2.970   7.974   2.637  0.1312 -0.2985 -0.2115
  391SOL    HW111382   2.965   8.031   2.720  1.1320  0.3941 -0.6237
  391SOL    HW211383   2.964   7.878   2.663 -0.5515 -0.0572  0.5802
  392SOL     OW11384   3.657   3.266   0.546 -0.2197  0.0918 -0.1167
  392SOL    HW111385   3.719   3.341   0.569  0.3973 -1.1731  2.6433
  392SOL    HW211386   3.572   3.303   0.510  1.1479  1.9740 -1.4800
  393SOL     OW11387   2.921   3.346   0.358  0.0345 -0.2309 -0.6156
  393SOL    HW111388   2.951   3.432   0.316 -0.3399  0.7333  1.0179
  393SOL    HW211389   2.980   3.326   0.436 -0.0899 -1.2981 -0.7906
  394SOL     OW11390   1.378   6.585   1.034  0.0484 -0.0695 -0.5358
  394SOL    HW111391   1.345   6.661   1.090 -0.1649  0.0221 -0.7842
  394SOL    HW211392   1.300   6.540   0.989  0.1699 -0.4609 -0.3533
  395SOL     OW11393   0.802   5.067   0.018 -0.0473  0.0353 -0.2345
  395SOL    HW111394   0.870   5.061   0.090  0.9470 -1.3870 -1.2876
  395SOL    HW211395   0.809   5.157  -0.027  0.8525  0.0447 -0.0791
  396SOL     OW11396   3.846   9.199   1.635  0.3435 -0.2376 -0.3623
  396SOL    HW111397   3.872   9.116   1.585 -1.5620 -0.8203 -0.4119
  396SOL    HW211398   3.910   9.214   1.710  1.2878 -1.1982 -0.9630
  397SOL     OW11399   0.179   8.054   2.826  0.3812  0.3929 -0.0902
  397SOL    HW111400   0.231   8.086   2.747  0.7185  0.6474  0.2338
  397SOL    HW211401   0.239   8.000   2.886  0.2162  0.4848  0.1621
  398SOL     OW11402   1.095   8.046   1.622  0.6465  0.3567  0.2372
  398SOL    HW111403   1.138   7.957   1.616  0.6791  0.4497 -0.8816
  398SOL    HW211404   1.138   8.099   1.696  1.2786 -0.1838  0.2539
  399SOL     OW11405   4.104   9.425   0.965  0.1166  0.1660  0.1160
  399SOL    HW111406   4.178   9.490   0.980 -0.1732  0.4737  0.2199
  399SOL    HW211407   4.084   9.419   0.867 -1.0116  1.5285  0.2462
  400SOL     OW11408   2.802   4.528   0.679  0.2672  0.4449  0.1005
  400SOL    HW111409   2.845   4.469   0.748 -1.7531 -0.4248  0.6657
  400SOL    HW211410   2.839   4.506   0.589  0.5422 -0.7366  0.4883
  401SOL     OW11411   1.676   8.278   2.905  0.1539  0.0298 -0.1402
  401SOL    HW111412   1.583   8.300   2.934 -0.3711 -0.0942 -1.6937
  401SOL    HW211413   1.713   8.207   2.965 -1.3075 -0.9966 -0.4196
  402SOL     OW11414   0.775   0.330   2.266  0.4514 -0.1194  0.5462
  402SOL    HW111415   0.839   0.381   2.324  0.1435  1.2318 -0.2996
  402SOL    HW211416   0.684   0.369   2.275 -0.0899 -1.4762  1.0463
  403SOL     OW11417   0.889   5.193   0.314 -0.1415  0.2403 -0.4637
  403SOL    HW111418   0.812   5.233   0.364 -0.5388 -0.2915 -0.6486
  403SOL    HW211419   0.879   5.210   0.217 -1.4884 -2.2048 -0.8039
  404SOL     OW11420   9.254   2.433   1.137 -0.6723 -0.0609 -0.8675
  404SOL    HW111421   9.353   2.449   1.126 -0.8226  1.4372 -0.2039
  404SOL    HW211422   9.238   2.336   1.151  0.8639 -0.1617  0.4329
  405SOL     OW11423   2.306   8.536   0.295 -0.5778 -0.5345 -0.3631
  405SOL    HW111424   2.224   8.496   0.336 -0.1229 -2.2399 -1.0593
  405SOL    HW211425   2.280   8.609   0.232 -1.6249 -1.5986 -1.1898
  406SOL     OW11426   5.195   8.367   2.767  0.1453 -0.0224  0.4983
  406SOL    HW111427   5.264   8.398   2.701 -1.2463  1.0112 -0.5215
  406SOL    HW211428   5.182   8.268   2.757  0.5644 -0.0167 -0.1935
  407SOL     OW11429   8.770   0.984   0.350  0.2979 -0.7508 -0.2221
  407SOL    HW111430   8.771   1.017   0.445  2.6641 -2.1705  0.3026
  407SOL    HW211431   8.792   1.060   0.288 -1.4132  0.2182  0.3329
  408SOL     OW11432   0.769   4.209   2.648  0.0559 -0.4508 -0.6158
  408SOL    HW111433   0.797   4.286   2.706 -0.5490  1.7487 -3.0833
  408SOL    HW211434   0.843   4.188   2.583 -0.3713 -0.9006 -0.9614
  409SOL     OW11435   1.771   0.347   2.206 -0.0984 -0.5619  0.1878
  409SOL    HW111436   1.794   0.346   2.303  0.4038  1.3891  0.1096
  409SOL    HW211437   1.686   0.398   2.192 -0.4440 -1.2731 -0.3518
  410SOL     OW11438   8.077   3.567   0.525  0.0455 -0.3138  0.3092
  410SOL    HW111439   8.062   3.665   0.514  0.3454  0.0382  2.7076
  410SOL    HW211440   7.989   3.519   0.527 -0.3100  0.3525  2.5696
  411SOL     OW11441   0.022   6.353   0.607 -0.5544  0.4125  0.9967
  411SOL    HW111442  -0.047   6.422   0.630 -0.1146  0.4612  2.1838
  411SOL    HW211443  -0.019   6.285   0.546 -1.6744  0.4235  1.7131
  412SOL     OW11444   1.879   6.362   3.157  0.2792 -0.1904  1.1065
  412SOL    HW111445   1.851   6.346   3.063  2.4666  2.1734  0.0044
  412SOL    HW211446   1.829   6.441   3.194  2.1340  1.2542  0.6161
  413SOL     OW11447   8.318   4.122   3.101  0.2755 -0.2546 -0.6666
  413SOL    HW111448   8.235   4.178   3.097  0.4532  0.0059 -0.6804
  413SOL    HW211449   8.385   4.156   3.035  0.7270  0.0659 -0.0503
  414SOL     OW11450   3.118   8.945   3.301 -0.2099  0.2310 -0.0359
  414SOL    HW111451   3.206   8.936   3.255  0.0007  0.5461  0.2992
  414SOL    HW211452   3.114   8.882   3.379 -0.4433 -0.0813 -0.3030
  415SOL     OW11453   3.142   5.906   3.329 -0.4466 -0.6692 -0.9799
  415SOL    HW111454   3.127   5.942   3.237 -0.4437  0.1435 -0.6705
  415SOL    HW211455   3.055   5.875   3.368 -0.6948  0.3332 -0.7104
  416SOL     OW11456   3.974   0.022   1.728 -0.2198 -0.2323 -0.8230
  416SOL    HW111457   4.071   0.039   1.714 -0.0870 -0.1282  0.1625
  416SOL    HW211458   3.928   0.108   1.754 -1.0029  0.1959 -3.4641
  417SOL     OW11459   1.532   9.735   0.098  0.3376  0.2797  0.7431
  417SOL    HW111460   1.485   9.747   0.185 -2.1161 -1.0082 -0.3559
  417SOL    HW211461   1.477   9.677   0.038  1.7196  1.5709 -1.8598
  418SOL     OW11462   1.001   8.149   2.880  0.4719 -0.4958  0.2974
  418SOL    HW111463   0.951   8.063   2.885 -2.6404  1.2385  0.2828
  418SOL    HW211464   1.013   8.175   2.784 -2.4258  1.1548  0.3212
  419SOL     OW11465   2.945   0.516   1.843 -0.4598  0.3361 -0.4831
  419SOL    HW111466   2.955   0.567   1.929  1.0223  1.3195 -1.2170
  419SOL    HW211467   2.955   0.578   1.766  2.7199 -1.2227 -1.4089
  420SOL     OW11468   2.586   0.046   2.941 -0.7058 -0.2000  0.2877
  420SOL    HW111469   2.670   0.052   2.996 -1.4247  1.4415  1.2437
  420SOL    HW211470   2.608   0.067   2.846  0.2338 -1.2439  0.2690
  421SOL     OW11471   8.408   0.472   2.878 -0.2212  0.0640 -0.6404
  421SOL    HW111472   8.466   0.532   2.823 -1.2113 -0.3082 -2.1236
  421SOL    HW211473   8.313   0.502   2.871 -0.5044 -0.6772 -0.0511
  422SOL     OW11474   7.899   0.640   0.614  0.0025 -0.1679  0.1942
  422SOL    HW111475   7.908   0.660   0.711 -0.5479 -2.0182  0.6521
  422SOL    HW211476   7.803   0.646   0.587  0.0208 -0.6470  0.0070
  423SOL     OW11477   2.359   0.378   0.662  0.1449  0.0119 -0.0088
  423SOL    HW111478   2.420   0.299   0.661 -0.5606 -0.5673 -2.7899
  423SOL    HW211479   2.406   0.457   0.621 -0.4197 -0.0353 -0.7746
  424SOL     OW11480   4.014   0.882   2.471  0.2514  0.1028  0.0735
  424SOL    HW111481   4.072   0.941   2.415 -2.6059  1.7481 -1.2758
  424SOL    HW211482   3.978   0.936   2.548 -0.3026 -0.6299  0.3244
  425SOL     OW11483   4.250   1.655   1.580  0.5460  0.3520 -0.4439
  425SOL    HW111484   4.350   1.664   1.586  0.6352  0.4187 -1.7727
  425SOL    HW211485   4.226   1.558   1.576  0.5792  0.3409 -0.3763
  426SOL     OW11486   4.321   2.843   1.702  0.0770  0.2535 -0.2571
  426SOL    HW111487   4.246   2.824   1.639 -0.9946  0.7583  0.8315
  426SOL    HW211488   4.405   2.803   1.667 -1.1042 -2.1148 -0.5319
  427SOL     OW11489   7.731   0.766   1.648 -0.0346  0.3210 -0.2796
  427SOL    HW111490   7.706   0.784   1.553 -0.5440  0.1236 -0.1839
  427SOL    HW211491   7.651   0.733   1.698  0.4647 -0.5216 -0.0276
  428SOL     OW11492   1.702   3.583   1.512  0.2821  0.0026  0.2539
  428SOL    HW111493   1.798   3.560   1.528  0.4087 -0.1141 -0.6700
  428SOL    HW211494   1.696   3.671   1.464 -0.0266 -0.6130 -0.8435
  429SOL     OW11495   2.185   7.829   0.799  0.2859  0.4953  0.4447
  429SOL    HW111496   2.141   7.748   0.762 -1.0011  1.1295  0.5206
  429SOL    HW211497   2.162   7.908   0.742  1.3891  0.8371  0.4615
  430SOL     OW11498   3.907   2.732   0.409  0.2407  0.5471  0.1042
  430SOL    HW111499   3.825   2.677   0.394  0.4142  0.3291 -0.0500
  430SOL    HW211500   3.935   2.724   0.505  0.8014 -0.3830 -0.1306
  431SOL     OW11501   2.428   4.173   1.784  0.4853 -0.2372 -0.2756
  431SOL    HW111502   2.447   4.156   1.880  2.1885 -1.2499 -0.7649
  431SOL    HW211503   2.488   4.246   1.750 -2.0605  2.0780  0.1130
  432SOL     OW11504   3.107   0.975   0.878  0.4840  0.3680  0.2631
  432SOL    HW111505   3.181   0.950   0.940  1.0311  0.5519 -0.3057
  432SOL    HW211506   3.052   1.048   0.918  0.5066  0.1058  0.7648
  433SOL     OW11507   8.443   4.406   2.720  0.2165  1.1769  0.6690
  433SOL    HW111508   8.515   4.379   2.656 -0.1435 -1.5972  1.3722
  433SOL    HW211509   8.473   4.486   2.772  1.6598  1.7249 -0.9726
  434SOL     OW11510   0.904   1.835   0.934 -0.3380  0.2299 -0.2779
  434SOL    HW111511   0.964   1.884   0.871 -0.1890  1.4625  0.8078
  434SOL    HW211512   0.814   1.824   0.892 -0.2438  1.0552 -0.7043
  435SOL     OW11513   8.746   4.469   3.171 -0.9674 -0.4330 -0.1162
  435SOL    HW111514   8.734   4.405   3.095 -2.4178  0.2591 -0.4918
  435SOL    HW211515   8.717   4.560   3.142 -2.3647 -0.3318  1.5320
  436SOL     OW11516   3.010   4.994   2.649  0.1656  0.1541  0.0446
  436SOL    HW111517   2.995   5.043   2.735 -1.2119 -0.4918  0.1928
  436SOL    HW211518   3.086   4.929   2.660  1.2796  1.4579  0.1679
  437SOL     OW11519   3.462   0.299   1.675 -0.3020 -0.4749 -0.2512
  437SOL    HW111520   3.501   0.210   1.651  2.7312  1.3096 -2.2002
  437SOL    HW211521   3.533   0.358   1.713 -1.9966  1.5454 -0.1251
  438SOL     OW11522   2.874   2.672   1.968 -0.0983 -0.2982 -0.1476
  438SOL    HW111523   2.927   2.593   1.939 -0.1583  1.3089 -5.1056
  438SOL    HW211524   2.776   2.652   1.961 -0.1141  0.1728 -1.4336
  439SOL     OW11525   4.491   7.700   1.811  0.0567  0.9117 -0.2020
  439SOL    HW111526   4.555   7.624   1.819 -1.4835 -0.2202  1.5659
  439SOL    HW211527   4.522   7.777   1.866 -1.0184 -0.3003  2.1548
  440SOL     OW11528   0.223   7.422   0.400 -0.4931 -0.7727  0.4551
  440SOL    HW111529   0.255   7.509   0.436 -1.6346 -0.7929  1.5726
  440SOL    HW211530   0.151   7.385   0.460 -2.4070 -0.8445 -1.7993
  441SOL     OW11531   2.947   7.082   1.363  0.3416 -0.2690  0.3163
  441SOL    HW111532   3.011   7.156   1.386  0.6325 -0.4810  0.1830
  441SOL    HW211533   2.998   7.003   1.330 -0.0470 -0.0919 -0.7287
  442SOL     OW11534   8.499   4.173   2.902 -0.4072 -0.3902 -0.3724
  442SOL    HW111535   8.597   4.181   2.920 -0.7947 -1.2628  2.4686
  442SOL    HW211536   8.465   4.259   2.862  1.2754  0.3789 -0.1902
  443SOL     OW11537   8.957   3.964   2.121  0.7331  0.4545 -0.1101
  443SOL    HW111538   9.018   3.988   2.045  0.7748 -0.2091 -0.2861
  443SOL    HW211539   8.984   4.014   2.203  0.0990  1.9278 -0.7691
  444SOL     OW11540   3.593   5.121   3.352  0.0479  0.0193 -0.4748
  444SOL    HW111541   3.574   5.181   3.430 -1.3052 -0.9395 -0.0462
  444SOL    HW211542   3.587   5.173   3.267 -0.6281  0.6110 -0.0738
  445SOL     OW11543   7.484   0.781   3.236  0.0017  0.0785  0.0140
  445SOL    HW111544   7.543   0.833   3.298  1.1820 -1.7400  0.4776
  445SOL    HW211545   7.426   0.720   3.290 -0.2678 -0.1898 -0.5789
  446SOL     OW11546   9.702   5.935   2.165  0.3373 -0.2135 -0.5298
  446SOL    HW111547   9.651   6.015   2.135 -0.9530 -0.4145  1.1242
  446SOL    HW211548   9.749   5.895   2.086  1.8002  2.7093 -1.2142
  447SOL     OW11549   2.444   4.779   2.285 -0.3135  0.1561 -0.1607
  447SOL    HW111550   2.350   4.790   2.252 -0.6008 -0.9728  0.2696
  447SOL    HW211551   2.507   4.786   2.207 -0.7289  1.1233 -0.4209
  448SOL     OW11552   8.904   2.318   2.030  0.4151  0.5681 -0.7826
  448SOL    HW111553   8.939   2.309   2.123  0.1520 -0.2960 -0.7621
  448SOL    HW211554   8.809   2.287   2.027  0.5654  0.1556 -1.4308
  449SOL     OW11555   1.024   5.115   3.028  0.2430  0.6227  0.2542
  449SOL    HW111556   1.048   5.177   3.103  1.0786  1.3626 -0.6139
  449SOL    HW211557   1.108   5.075   2.990 -0.0283  1.4252 -1.2618
  450SOL     OW11558   4.295   9.029   2.057 -0.4379  0.2724  0.9048
  450SOL    HW111559   4.309   9.098   1.986 -1.0067 -0.4012  0.1265
  450SOL    HW211560   4.230   8.959   2.024 -1.9312  0.7859  2.6633
  451SOL     OW11561   2.370   2.722   3.037  0.0721 -0.1261 -0.2455
  451SOL    HW111562   2.286   2.772   3.058 -0.1534  0.1828 -1.8527
  451SOL    HW211563   2.448   2.783   3.048  0.0099 -0.1341  0.2649
  452SOL     OW11564   0.168   8.967   1.013  0.4921  0.6313  0.0864
  452SOL    HW111565   0.254   9.007   0.980 -0.1600  0.9844 -1.2428
  452SOL    HW211566   0.159   8.874   0.977 -0.1024  0.9236 -0.5370
  453SOL     OW11567   2.952   7.331   2.831  0.2532  0.1668 -0.2480
  453SOL    HW111568   2.862   7.293   2.853 -0.5235  1.5401 -1.0098
  453SOL    HW211569   2.960   7.422   2.872  1.1341  0.2168 -0.5336
  454SOL     OW11570   0.404   9.576   3.010  0.3762  0.8729 -0.5743
  454SOL    HW111571   0.413   9.487   3.055  0.8204  2.1594  1.9774
  454SOL    HW211572   0.344   9.567   2.931 -2.0591 -1.0943  1.3850
  455SOL     OW11573   9.518   1.354   2.979 -0.1261  0.1635  0.3695
  455SOL    HW111574   9.561   1.277   2.931 -1.5901  0.6878 -1.8646
  455SOL    HW211575   9.576   1.435   2.970 -1.7625  1.0400 -3.2012
  456SOL     OW11576   0.738   8.415   0.214 -0.3081 -0.3493  0.0903
  456SOL    HW111577   0.668   8.402   0.143 -1.3757 -0.6252  1.1853
  456SOL    HW211578   0.744   8.332   0.270  1.4282 -0.6081 -0.4603
  457SOL     OW11579   3.153   5.287   1.575  0.1070 -0.3924 -0.2837
  457SOL    HW111580   3.111   5.365   1.621  0.4623 -0.6195  0.4416
  457SOL    HW211581   3.122   5.202   1.618 -0.6389 -0.6758 -1.3659
  458SOL     OW11582   0.398   4.060   0.631  0.4761  0.9248  0.1805
  458SOL    HW111583   0.363   3.976   0.672  0.6947 -0.2399 -1.9501
  458SOL    HW211584   0.327   4.130   0.631 -0.5164 -0.0678 -0.2909
  459SOL     OW11585   0.236   3.515   0.644 -0.2112 -0.4855 -0.2376
  459SOL    HW111586   0.169   3.588   0.633 -1.1746 -0.9070  2.3623
  459SOL    HW211587   0.197   3.443   0.702  2.0896 -1.2284  0.4418
  460SOL     OW11588   0.694   1.260   2.064  0.0738  0.1063  0.4463
  460SOL    HW111589   0.718   1.212   2.148 -0.3485 -0.0702  0.4690
  460SOL    HW211590   0.737   1.351   2.063  0.7070 -0.1914  0.4952
  461SOL     OW11591   3.761   9.670   0.530  0.0082  0.9619  0.3532
  461SOL    HW111592   3.819   9.677   0.611  0.2273 -0.3876  0.3233
  461SOL    HW211593   3.817   9.647   0.450 -0.9355 -4.1823  0.9930
  462SOL     OW11594   2.841   3.963   2.946 -0.1225  0.3670  0.1054
  462SOL    HW111595   2.928   3.916   2.937 -0.8571 -0.8424 -0.8296
  462SOL    HW211596   2.795   3.966   2.857 -0.6843  1.6860  0.4267
  463SOL     OW11597   9.283   5.028   3.035 -0.0302  0.5927 -0.4628
  463SOL    HW111598   9.326   5.110   3.072  0.8792 -0.0624 -0.0682
  463SOL    HW211599   9.247   4.972   3.110  0.5524 -0.0328 -0.6437
  464SOL     OW11600   3.782   3.512   0.435 -0.4883  0.2616 -0.5767
  464SOL    HW111601   3.802   3.467   0.347 -1.2138  1.7158 -1.5087
  464SOL    HW211602   3.868   3.525   0.485 -0.1885 -1.5573 -0.5639
  465SOL     OW11603   0.637   2.312   3.061  0.3330  0.1484 -0.2759
  465SOL    HW111604   0.707   2.240   3.054 -0.6290 -0.8593  0.2566
  465SOL    HW211605   0.599   2.312   3.153  0.2295  1.2619 -0.3170
  466SOL     OW11606   9.425   3.323   3.055 -0.2954  0.3713 -0.1535
  466SOL    HW111607   9.360   3.335   3.129  0.2272 -3.2392  1.0229
  466SOL    HW211608   9.377   3.319   2.968 -1.8178 -2.7733  0.7480
  467SOL     OW11609   0.791   1.556   0.519 -0.1123  0.1995  0.6903
  467SOL    HW111610   0.718   1.624   0.517 -0.6304 -0.3722 -2.6867
  467SOL    HW211611   0.770   1.487   0.588 -0.9988  1.9129  2.1701
  468SOL     OW11612   8.196   3.744   1.763 -0.7429 -0.3723 -0.1874
  468SOL    HW111613   8.296   3.747   1.764 -0.7544 -0.1466  0.2744
  468SOL    HW211614   8.159   3.824   1.810 -1.1451 -0.3834 -0.4758
  469SOL     OW11615   1.420   9.355   2.423  0.2739 -0.2432  0.3661
  469SOL    HW111616   1.332   9.398   2.400  0.5322  0.8717  1.3870
  469SOL    HW211617   1.477   9.350   2.341  0.4766  1.9707  0.3301
  470SOL     OW11618   9.567   4.662   0.949 -0.4109 -0.0051 -0.3136
  470SOL    HW111619   9.595   4.757   0.960 -2.1927  0.2305  2.7422
  470SOL    HW211620   9.470   4.658   0.926 -0.3157 -1.1031 -0.5545
  471SOL     OW11621   9.814   3.440   0.315  0.0665 -0.1033  0.1767
  471SOL    HW111622   9.734   3.475   0.365  0.1781 -0.9543  0.9562
  471SOL    HW211623   9.784   3.371   0.249  0.0580  0.2081 -0.1504
  472SOL     OW11624   9.766   9.049   2.012  1.0473  0.1767  0.0543
  472SOL    HW111625   9.822   8.998   1.947  0.9136 -0.3647  0.3643
  472SOL    HW211626   9.695   8.989   2.050  1.2049  0.4522  0.7914
  473SOL     OW11627   0.337   6.513   2.403  0.0934  0.7135  0.0098
  473SOL    HW111628   0.425   6.484   2.365 -0.7483 -2.2387  0.1606
  473SOL    HW211629   0.353   6.573   2.482  1.9976 -0.3602  0.4765
  474SOL     OW11630   9.421   9.953   1.471 -0.4325  0.1680 -0.2266
  474SOL    HW111631   9.456   9.865   1.502 -0.8233  0.2836  0.5635
  474SOL    HW211632   9.420   9.956   1.371 -0.3800 -0.6995 -0.2531
  475SOL     OW11633   0.403   9.184   2.966  0.1240  0.1628 -0.1355
  475SOL    HW111634   0.381   9.209   2.872 -0.8977  0.6850  0.2372
  475SOL    HW211635   0.323   9.143   3.010 -0.7512  3.6451  1.7619
  476SOL     OW11636   9.834   9.854   1.316 -0.0089 -0.0773  0.0966
  476SOL    HW111637   9.865   9.911   1.392 -1.0983  0.4735  0.1382
  476SOL    HW211638   9.815   9.912   1.237  1.0267 -0.6381 -0.5603
  477SOL     OW11639   0.088   1.983   0.304 -0.1896  0.2615 -0.4416
  477SOL    HW111640   0.042   1.932   0.377  2.6950  1.3563  2.2478
  477SOL    HW211641   0.143   1.920   0.249  0.1540 -0.1278  0.3385
  478SOL     OW11642   2.939   7.757   0.945  0.0481 -0.3491 -0.2796
  478SOL    HW111643   2.922   7.679   0.884 -1.6143  0.4813 -0.9187
  478SOL    HW211644   2.947   7.841   0.890 -0.0063  0.1957  0.5352
  479SOL     OW11645   9.782   9.377   1.271 -0.2353  0.0808  0.5574
  479SOL    HW111646   9.847   9.325   1.214 -1.2856  0.1258 -0.7212
  479SOL    HW211647   9.818   9.468   1.288 -0.6135  0.6183 -1.4157
  480SOL     OW11648   2.537   1.473   1.111  0.7554  0.2727  0.5004
  480SOL    HW111649   2.489   1.515   1.034  1.9009 -0.6445 -0.7298
  480SOL    HW211650   2.477   1.409   1.157 -0.3125  1.6630  1.0822
  481SOL     OW11651   0.730   0.068   0.849 -0.4121 -0.1121  0.0713
  481SOL    HW111652   0.704   0.005   0.922 -2.0311  1.4261  0.8672
  481SOL    HW211653   0.656   0.134   0.833  0.8613  1.0364 -1.3481
  482SOL     OW11654   0.510   9.187   1.538  0.2221  0.2472 -0.8579
  482SOL    HW111655   0.421   9.158   1.574  0.6733 -1.0144 -0.7480
  482SOL    HW211656   0.550   9.114   1.484  2.3166 -0.1244  1.1290
  483SOL     OW11657   0.984   4.539   1.334  0.6909 -0.6162  0.4344
  483SOL    HW111658   0.898   4.578   1.365  1.1874  0.0753  0.9715
  483SOL    HW211659   0.992   4.444   1.367  0.0893 -0.7202  0.2752
  484SOL     OW11660   1.969   1.560   3.427 -0.2651 -0.0092 -0.1702
  484SOL    HW111661   1.911   1.491   3.470 -0.4359  0.0849 -0.2493
  484SOL    HW211662   1.915   1.642   3.407  0.2182  0.6396  1.0885
  485SOL     OW11663   1.128   8.639   2.884 -0.3413 -0.3277  0.3651
  485SOL    HW111664   1.177   8.562   2.843  1.1827 -0.2444  1.9492
  485SOL    HW211665   1.080   8.608   2.966 -0.3482  0.2519  0.5824
  486SOL     OW11666   4.045   8.397   3.286 -0.2186 -0.2377  0.1400
  486SOL    HW111667   4.092   8.362   3.367 -1.1254 -0.7542  0.4469
  486SOL    HW211668   3.957   8.351   3.275 -0.6436  0.6886 -0.4505
  487SOL     OW11669   2.037   0.570   3.334 -0.6079 -0.2694  0.2876
  487SOL    HW111670   2.097   0.636   3.289 -0.0845 -2.1398 -1.8199
  487SOL    HW211671   1.951   0.615   3.357  1.4173  2.3966  3.1455
  488SOL     OW11672   3.843   3.237   3.420 -0.1060 -1.3124  0.5432
  488SOL    HW111673   3.789   3.224   3.337 -0.4613  0.2854  0.5016
  488SOL    HW211674   3.875   3.148   3.454 -2.1986 -2.2168  0.2164
  489SOL     OW11675   8.425   4.451   0.634 -0.0425 -0.0927 -0.2919
  489SOL    HW111676   8.438   4.453   0.535  2.3038 -0.6867 -0.0179
  489SOL    HW211677   8.465   4.534   0.674  1.5536 -1.1640  0.4086
  490SOL     OW11678   3.202   8.616   3.192 -0.3789  0.2410 -0.2349
  490SOL    HW111679   3.190   8.669   3.109 -0.0612  1.0612  0.2406
  490SOL    HW211680   3.299   8.609   3.214 -0.5816  1.7564  1.1826
  491SOL     OW11681   1.964   4.843   1.381  0.3119  0.5294  0.0836
  491SOL    HW111682   2.063   4.839   1.398  0.6722  0.8618 -1.8540
  491SOL    HW211683   1.922   4.757   1.411  1.5907 -0.6832 -1.5341
  492SOL     OW11684   9.562   2.775   0.995 -0.0457 -0.3555 -0.1806
  492SOL    HW111685   9.465   2.769   0.972 -0.3595  0.9237  0.7896
  492SOL    HW211686   9.616   2.780   0.911 -0.8926  0.0209 -0.7007
  493SOL     OW11687   3.840   1.309   2.076  0.2360  0.3033  0.4974
  493SOL    HW111688   3.939   1.303   2.080  0.2762  0.6367  0.0260
  493SOL    HW211689   3.813   1.375   2.005 -0.3092  0.5308  0.9139
  494SOL     OW11690   9.300   0.753   0.676 -0.3596  0.9943 -0.1108
  494SOL    HW111691   9.308   0.769   0.775 -1.9754  2.5927 -0.2052
  494SOL    HW211692   9.232   0.682   0.659  2.7123 -2.1134  0.0516
  495SOL     OW11693   0.866   5.833   3.270 -0.4912 -0.1667 -0.2399
  495SOL    HW111694   0.855   5.735   3.282 -1.3810  0.0319  0.5985
  495SOL    HW211695   0.799   5.866   3.204 -1.3780  0.1580  0.8064
  496SOL     OW11696   3.686   2.839   1.299 -0.1848 -0.0958  0.5503
  496SOL    HW111697   3.687   2.807   1.393  0.2158 -1.6955  0.0085
  496SOL    HW211698   3.711   2.764   1.237  0.9576  1.2880 -0.7159
  497SOL     OW11699   0.340   3.869   0.202 -0.4956 -0.0894 -0.8394
  497SOL    HW111700   0.433   3.834   0.192  0.3192  1.3048  1.5474
  497SOL    HW211701   0.343   3.963   0.237 -2.8529 -0.6480  0.9757
  498SOL     OW11702   1.211   6.022   2.794 -0.5536  0.0712  0.0058
  498SOL    HW111703   1.196   5.976   2.882 -0.3150  0.0952  0.0596
  498SOL    HW211704   1.310   6.032   2.778 -0.5679 -1.6230 -1.1491
  499SOL     OW11705   1.605   8.566   0.022 -0.2573 -0.6038 -0.0180
  499SOL    HW111706   1.608   8.653  -0.027 -1.4414 -1.0438 -0.8748
  499SOL    HW211707   1.534   8.508  -0.017  0.3569 -1.8618  0.7135
  500SOL     OW11708   5.052   8.416   2.054 -0.1874  0.0416 -0.1778
  500SOL    HW111709   5.097   8.334   2.090 -2.3899 -1.3352 -0.5143
  500SOL    HW211710   4.959   8.422   2.089 -0.6897  1.3954 -1.6587
  501SOL     OW11711   9.775   0.970   1.775  0.1326 -0.7056 -0.4721
  501SOL    HW111712   9.713   1.008   1.706 -1.4087 -0.6806  0.9007
  501SOL    HW211713   9.760   0.871   1.783  0.3225 -0.7111 -0.1792
  502SOL     OW11714   9.802   2.577   2.854 -0.3389 -0.6584 -0.1114
  502SOL    HW111715   9.795   2.671   2.885 -0.4036 -1.1689  1.4445
  502SOL    HW211716   9.713   2.532   2.862 -0.8235 -0.2762 -2.8114
  503SOL     OW11717   1.626   6.515   3.042  0.4758  0.3901  0.5058
  503SOL    HW111718   1.650   6.502   2.946  0.8378  1.5307  0.4372
  503SOL    HW211719   1.534   6.479   3.059  0.8143 -0.7323 -0.0362
  504SOL     OW11720   3.641   4.994   2.555  0.1992 -0.0971  0.2462
  504SOL    HW111721   3.689   4.928   2.612 -0.4794  0.6500  1.7172
  504SOL    HW211722   3.574   5.044   2.611 -0.7514  0.3846 -1.2861
  505SOL     OW11723   2.946   1.933   1.656 -0.0876 -0.0109  0.4142
  505SOL    HW111724   2.903   2.001   1.596 -1.7690  0.4881  2.1443
  505SOL    HW211725   2.894   1.847   1.651  0.3137 -0.2559  0.4510
  506SOL     OW11726   9.971   3.118   0.380  0.4980  0.4665 -0.1688
  506SOL    HW111727   9.998   3.169   0.299  0.4781 -0.3532 -0.6971
  506SOL    HW211728   9.880   3.078   0.366  0.2142  0.8489  0.5074
  507SOL     OW11729   8.939   4.387   0.133 -0.3291 -0.1593 -0.2760
  507SOL    HW111730   8.960   4.295   0.165  0.1822 -0.3372 -1.0888
  507SOL    HW211731   8.871   4.382   0.060 -1.5526  0.2445  0.8184
  508SOL     OW11732   3.724   8.858   2.344  0.4295  0.1669  0.6097
  508SOL    HW111733   3.721   8.765   2.308 -0.4478  0.5208 -0.2725
  508SOL    HW211734   3.791   8.863   2.418 -0.1291 -1.3583  1.2471
  509SOL     OW11735   2.581   4.366   1.704 -0.0245  0.2221 -0.2488
  509SOL    HW111736   2.559   4.397   1.612  1.8958  0.7905 -0.5465
  509SOL    HW211737   2.635   4.437   1.751 -2.5829  0.7769  2.0101
  510SOL     OW11738   8.558   0.295   3.062 -0.0452  0.1376 -0.7310
  510SOL    HW111739   8.516   0.204   3.059 -0.4445  0.3081 -0.1896
  510SOL    HW211740   8.501   0.360   3.011  0.0148  0.1786 -0.7451
  511SOL     OW11741   2.278   8.114   1.792  1.0442 -0.3886 -0.7284
  511SOL    HW111742   2.179   8.131   1.789  1.2092  0.7839  0.2687
  511SOL    HW211743   2.296   8.031   1.845  0.6393 -0.2815 -0.4217
  512SOL     OW11744   1.349   9.963   2.921 -0.2397  0.5603  0.6666
  512SOL    HW111745   1.271  10.022   2.898  0.3347  0.5883 -1.3751
  512SOL    HW211746   1.430   9.995   2.872  0.9138  0.1459  2.2674
  513SOL     OW11747   9.143   2.915   2.432 -0.9465  0.1960  0.3644
  513SOL    HW111748   9.196   2.907   2.516 -0.6621 -0.2664  0.1405
  513SOL    HW211749   9.130   2.824   2.392  1.2214  0.6680 -1.5299
  514SOL     OW11750   3.082   3.984   2.639  0.0159  0.8974  0.0954
  514SOL    HW111751   3.043   4.071   2.668 -0.3693  1.1511 -1.1684
  514SOL    HW211752   3.051   3.962   2.547  0.1286 -0.5702  0.3930
  515SOL     OW11753   2.741   0.529   0.412 -0.0203  0.4334 -0.5017
  515SOL    HW111754   2.770   0.531   0.316 -0.2441 -4.0444 -0.7772
  515SOL    HW211755   2.821   0.530   0.471  0.3547 -1.3519 -0.9385
  516SOL     OW11756   9.561   2.542   3.247 -0.0077 -0.2654  0.0471
  516SOL    HW111757   9.500   2.551   3.326  0.9101 -1.3300  0.8841
  516SOL    HW211758   9.656   2.533   3.279  0.6528  1.8318 -1.2541
  517SOL     OW11759   4.400   0.670   2.507 -0.3679 -0.1316 -0.3784
  517SOL    HW111760   4.396   0.769   2.494  1.7746  0.4313  2.8705
  517SOL    HW211761   4.472   0.631   2.450  1.3942  0.7520  1.2079
  518SOL     OW11762   0.622   5.953   1.855  0.3555 -0.2547  0.1410
  518SOL    HW111763   0.557   5.884   1.887  0.0091 -0.6738 -1.4150
  518SOL    HW211764   0.715   5.922   1.873  0.3516 -2.8180 -3.6677
  519SOL     OW11765   0.046   1.286   0.888 -0.3569  0.6937 -0.6903
  519SOL    HW111766   0.111   1.347   0.934 -0.7793  0.4081  0.3138
  519SOL    HW211767   0.053   1.194   0.927 -0.6524  0.4202 -1.2746
  520SOL     OW11768   3.165   2.135   3.327 -0.1766  0.4457  0.2799
  520SOL    HW111769   3.086   2.179   3.370 -0.3922 -0.1438  0.4977
  520SOL    HW211770   3.202   2.195   3.257 -2.1995 -0.1743 -1.3844
  521SOL     OW11771   3.823   3.655   1.543  0.2152  0.1712  0.2584
  521SOL    HW111772   3.897   3.695   1.489  1.7439 -1.5340  0.9937
  521SOL    HW211773   3.789   3.572   1.498 -1.8243  1.3802 -0.4729
  522SOL     OW11774   0.051   0.119   3.014 -0.5035  0.0531  0.3844
  522SOL    HW111775   0.053   0.170   3.100 -1.2392  0.0696  0.3943
  522SOL    HW211776  -0.042   0.089   2.995 -0.7752  1.9754 -1.5513
  523SOL     OW11777   8.666   4.920   0.566  0.2715  0.3597  0.1443
  523SOL    HW111778   8.679   4.863   0.647  1.2832 -0.5762 -0.6637
  523SOL    HW211779   8.746   4.911   0.506  0.1449  2.1040 -0.3075
  524SOL     OW11780   1.987   5.977   0.044  0.2236  0.1257  0.2200
  524SOL    HW111781   1.922   6.029  -0.012 -0.0694  0.6814  1.0659
  524SOL    HW211782   1.992   6.018   0.135  0.5466 -0.8945  0.6632
  525SOL     OW11783   1.254   8.782   1.344 -0.0990  0.1526 -0.3883
  525SOL    HW111784   1.186   8.791   1.417 -0.4164  0.8384 -0.7571
  525SOL    HW211785   1.327   8.849   1.358  0.0286  0.0335 -0.4873
  526SOL     OW11786   8.937   2.076   2.780  0.1204 -0.6399 -0.0459
  526SOL    HW111787   8.934   2.172   2.808 -1.6072  0.3176 -3.2533
  526SOL    HW211788   9.025   2.037   2.804  1.7958  2.4705 -0.8307
  527SOL     OW11789   8.829   1.291   2.803  0.3758 -0.0040  0.1167
  527SOL    HW111790   8.891   1.350   2.854 -0.2502  0.9861 -0.2468
  527SOL    HW211791   8.876   1.256   2.722  0.7663 -0.0580  0.3620
  528SOL     OW11792   2.490   1.372   2.641  0.3358  0.2682  0.2703
  528SOL    HW111793   2.509   1.309   2.716 -0.4553  0.7351  0.8580
  528SOL    HW211794   2.408   1.342   2.592  1.1659 -0.3638 -0.7798
  529SOL     OW11795   9.979   4.505   1.663 -0.0226  0.4090  0.4394
  529SOL    HW111796   9.891   4.525   1.706 -0.3741 -1.7065  0.8050
  529SOL    HW211797  10.052   4.545   1.717 -0.6370  0.1724  1.4669
  530SOL     OW11798   2.136   6.665   0.058  0.2312 -0.3682 -0.5204
  530SOL    HW111799   2.185   6.587   0.020  0.9889 -0.7171  1.1263
  530SOL    HW211800   2.041   6.665   0.024  0.7821 -0.8456 -2.0992
  531SOL     OW11801   2.464   2.316   2.818  0.0674 -0.3800  0.1895
  531SOL    HW111802   2.489   2.356   2.730  0.0775 -1.6648 -0.3909
  531SOL    HW211803   2.544   2.315   2.878  0.6343 -1.5928 -0.5783
  532SOL     OW11804   1.892   6.610   2.780 -0.2565 -0.3967 -0.9506
  532SOL    HW111805   1.839   6.676   2.726 -0.4936  0.0338 -0.2002
  532SOL    HW211806   1.966   6.574   2.724 -0.6091 -0.0905 -1.6264
  533SOL     OW11807   2.479   9.717   0.906  0.4796 -0.2323  0.2245
  533SOL    HW111808   2.456   9.814   0.901 -0.5008 -0.4273  0.8831
  533SOL    HW211809   2.561   9.705   0.961  0.7555  0.2432 -0.0773
  534SOL     OW11810   9.985   6.074   0.717 -0.1119  0.5636  0.4761
  534SOL    HW111811  10.002   6.172   0.701 -4.4510  1.3978  0.1495
  534SOL    HW211812  10.005   6.023   0.633 -0.6593  1.6296 -0.3297
  535SOL     OW11813   6.152   8.928   1.720  0.2181  0.0695 -0.1161
  535SOL    HW111814   6.179   8.975   1.635 -2.9985  0.4056 -1.0278
  535SOL    HW211815   6.181   8.983   1.798  1.1319  0.9569 -1.0429
  536SOL     OW11816   2.853   8.612   0.391  0.2411 -0.1172 -0.6849
  536SOL    HW111817   2.792   8.536   0.369  0.9206  0.1098 -3.5898
  536SOL    HW211818   2.931   8.578   0.443  0.0145 -1.2441 -1.0547
  537SOL     OW11819   8.443   3.226   3.121 -0.2418  0.0025  0.1279
  537SOL    HW111820   8.514   3.294   3.101 -0.1775  0.2731  1.2454
  537SOL    HW211821   8.356   3.258   3.085  0.1875 -0.3037 -1.2053
  538SOL     OW11822   2.095   9.615   2.932  0.2042  0.4086  0.2426
  538SOL    HW111823   2.038   9.570   2.863  0.1475 -0.0276  0.5744
  538SOL    HW211824   2.061   9.592   3.023  0.3420  0.9033  0.4194
  539SOL     OW11825   2.010   3.511   2.108  0.0215 -0.1928  0.1020
  539SOL    HW111826   1.989   3.421   2.143  1.8821  0.0195  1.8229
  539SOL    HW211827   2.081   3.504   2.037  0.7044 -0.0478  0.7540
  540SOL     OW11828   1.482   0.211   1.943  0.2759 -0.0920 -0.1112
  540SOL    HW111829   1.503   0.309   1.940 -0.4725  0.0509 -1.0276
  540SOL    HW211830   1.510   0.169   1.857  0.7299 -0.7137  0.3430
  541SOL     OW11831   0.223   4.815   0.427 -0.5503 -0.7399  0.1619
  541SOL    HW111832   0.135   4.777   0.457 -1.6108  1.4730  0.0069
  541SOL    HW211833   0.247   4.892   0.486 -0.1625  0.4831 -1.5496
  542SOL     OW11834   3.510   0.193   0.277  0.1406 -0.2781  0.2500
  542SOL    HW111835   3.430   0.233   0.233 -0.4040  1.1439  2.4797
  542SOL    HW211836   3.593   0.228   0.233 -0.4048 -0.7027 -1.1627
  543SOL     OW11837   2.532   8.021   2.857  0.4932 -0.1981 -0.1712
  543SOL    HW111838   2.536   8.059   2.764  1.3841  0.3317  0.0789
  543SOL    HW211839   2.601   8.065   2.914  0.0462 -0.6260  0.7111
  544SOL     OW11840   3.569   2.862   0.862  0.0762 -0.5129  0.2484
  544SOL    HW111841   3.634   2.879   0.936  0.2588 -0.1391  0.0033
  544SOL    HW211842   3.576   2.935   0.794 -1.8877  0.5320  1.1275
  545SOL     OW11843   2.920   9.246   2.658 -0.0185  0.3152  0.5378
  545SOL    HW111844   2.926   9.239   2.758  0.6812  0.5968  0.5208
  545SOL    HW211845   3.009   9.275   2.622 -0.3815  0.5932 -0.1357
  546SOL     OW11846   3.439   1.506   2.424 -0.3451  0.6215  0.3312
  546SOL    HW111847   3.417   1.601   2.404  0.3306  0.6583 -0.2751
  546SOL    HW211848   3.515   1.502   2.489 -0.7914  0.5024  0.8380
  547SOL     OW11849   1.709   4.429   0.883 -0.1795  0.7027 -0.6469
  547SOL    HW111850   1.655   4.464   0.960 -0.8090 -0.7583 -0.4007
  547SOL    HW211851   1.725   4.331   0.896  0.9456  0.7495 -1.6626
  548SOL     OW11852   3.032   1.834   0.912  0.0491  0.4656 -0.6718
  548SOL    HW111853   3.030   1.858   1.009 -0.4471  0.3112 -0.6443
  548SOL    HW211854   3.101   1.764   0.896  0.0559  0.4134 -0.4126
  549SOL     OW11855   4.535   8.575   1.518  0.1022 -0.1071 -0.6594
  549SOL    HW111856   4.499   8.655   1.470  0.4848  0.4432 -0.0512
  549SOL    HW211857   4.569   8.603   1.608  1.9294 -0.6093 -1.1645
  550SOL     OW11858   9.943   4.217   0.456  0.2032  0.1410 -0.6178
  550SOL    HW111859   9.908   4.274   0.382 -2.4704 -1.4634 -0.6893
  550SOL    HW211860   9.890   4.131   0.459  2.9665 -1.5800  0.5516
  551SOL     OW11861   3.297   1.711   0.919  0.4594  0.1226 -0.3129
  551SOL    HW111862   3.336   1.799   0.894 -0.3048  0.7858  0.7897
  551SOL    HW211863   3.311   1.694   1.017 -0.0926 -0.6182 -0.3530
  552SOL     OW11864   4.103   0.089   0.915 -0.2284 -0.2755  0.5294
  552SOL    HW111865   4.064   0.177   0.941  0.6093  0.7043 -1.4535
  552SOL    HW211866   4.035   0.035   0.865 -0.7913 -0.8493  1.8762
  553SOL     OW11867   2.569   1.077   2.345  0.2533  0.4556  0.1225
  553SOL    HW111868   2.504   1.105   2.416  0.4210  0.6929  0.1845
  553SOL    HW211869   2.652   1.042   2.389 -0.3799 -1.1731  0.0532
  554SOL     OW11870   7.670   0.856   2.537  0.1220 -0.3382  0.2061
  554SOL    HW111871   7.629   0.768   2.510 -0.5649  0.2007 -0.5521
  554SOL    HW211872   7.725   0.892   2.462 -1.9560  1.2656 -0.6288
  555SOL     OW11873   7.870   0.855   2.323 -0.2802  0.3012  0.5977
  555SOL    HW111874   7.901   0.760   2.326  1.0721  0.6973 -0.3453
  555SOL    HW211875   7.818   0.871   2.240 -1.9652 -0.0311  1.5656
  556SOL     OW11876   3.760   2.429   2.041 -0.1060  0.0529 -0.7651
  556SOL    HW111877   3.848   2.435   1.993  0.0990 -0.2520 -0.4328
  556SOL    HW211878   3.740   2.333   2.062  0.0783  0.2284  0.2515
  557SOL     OW11879   9.146   5.039   1.210 -0.3329  0.4339  0.2038
  557SOL    HW111880   9.098   4.983   1.142  1.2464 -0.4764 -0.1976
  557SOL    HW211881   9.152   5.133   1.178 -0.6400  0.2670 -0.3521
  558SOL     OW11882   0.865   7.268   0.074 -0.1565  0.3702  0.5077
  558SOL    HW111883   0.773   7.301   0.053 -1.0350 -0.4626  2.8610
  558SOL    HW211884   0.881   7.182   0.026 -1.3170 -0.4142  1.4813
  559SOL     OW11885   0.105   1.830   1.332  0.0775  0.4283 -0.1657
  559SOL    HW111886   0.106   1.850   1.430  0.4516  0.4134 -0.1689
  559SOL    HW211887   0.161   1.895   1.283  1.2430 -0.5695 -0.1783
  560SOL     OW11888   1.610   3.752   1.236 -0.0821 -0.3798 -0.2680
  560SOL    HW111889   1.589   3.656   1.215  1.3053 -0.8245  0.3246
  560SOL    HW211890   1.601   3.807   1.153 -0.3298 -1.1170 -0.7366
  561SOL     OW11891   0.552   0.914   1.119  0.2739  0.1391 -0.1501
  561SOL    HW111892   0.564   1.010   1.141  3.0857 -0.1512 -0.2718
  561SOL    HW211893   0.575   0.858   1.198  0.8458 -0.5123 -0.7618
  562SOL     OW11894   3.741   8.771   0.382 -0.0726  0.0142 -0.3444
  562SOL    HW111895   3.644   8.748   0.394  0.8337 -3.3307  1.1072
  562SOL    HW211896   3.749   8.867   0.356 -3.8194  0.1570 -1.3135
  563SOL     OW11897   3.458   0.452   1.213  0.0448 -0.0301  0.2250
  563SOL    HW111898   3.432   0.432   1.307  0.2294 -0.5447  0.1696
  563SOL    HW211899   3.450   0.369   1.158 -1.8294  0.6733 -0.6215
  564SOL     OW11900   2.506   2.675   2.694 -0.0032  0.1517  0.8256
  564SOL    HW111901   2.569   2.719   2.759  1.3652  1.5042 -1.3733
  564SOL    HW211902   2.539   2.583   2.674  0.7212  0.4827  0.4785
  565SOL     OW11903   9.308   4.596   0.867 -0.1225  0.1014  0.1844
  565SOL    HW111904   9.242   4.624   0.797 -1.2695  1.2635  1.6928
  565SOL    HW211905   9.259   4.567   0.949  1.2145 -0.9765  0.6208
  566SOL     OW11906   0.944   5.049   1.876  0.5373  0.3422 -0.0994
  566SOL    HW111907   1.027   5.091   1.911  0.7960  0.0867 -0.4017
  566SOL    HW211908   0.942   5.056   1.776 -0.3994  1.4445 -0.0123
  567SOL     OW11909   9.581   9.737   1.497 -0.1579 -0.0484  0.6253
  567SOL    HW111910   9.661   9.765   1.443  0.0126 -0.8011  0.4886
  567SOL    HW211911   9.571   9.638   1.493 -0.8096 -0.0008  1.0559
  568SOL     OW11912   3.101   7.513   2.106 -0.4535 -0.0705  0.0628
  568SOL    HW111913   3.163   7.502   2.029  0.4788 -1.4371  0.9876
  568SOL    HW211914   3.117   7.602   2.150  0.4770 -0.2004 -0.0219
  569SOL     OW11915   0.227   4.546   0.187 -0.3893  0.0546 -0.7063
  569SOL    HW111916   0.285   4.474   0.225 -0.6906  0.7898  1.1479
  569SOL    HW211917   0.285   4.613   0.140  0.1667  0.1669  0.1216
  570SOL     OW11918   7.952   1.396   1.468  0.0037  0.0043  0.4208
  570SOL    HW111919   7.879   1.354   1.521 -0.4753  0.0753 -0.1755
  570SOL    HW211920   7.914   1.436   1.384  1.0194 -1.6608 -0.8570
  571SOL     OW11921   9.183   2.551   0.203 -0.2181  0.5182  0.2697
  571SOL    HW111922   9.146   2.514   0.288 -1.1948  0.2883 -0.2509
  571SOL    HW211923   9.107   2.576   0.141  0.4447  2.0063  0.0338
  572SOL     OW11924   1.077   0.137   2.878 -0.0833 -0.7573 -0.0774
  572SOL    HW111925   1.041   0.105   2.965 -0.3251 -0.7698 -0.1817
  572SOL    HW211926   1.011   0.118   2.805 -0.1212 -0.2460 -0.1786
  573SOL     OW11927   3.443   7.741   0.967 -0.2650  1.1012 -0.4781
  573SOL    HW111928   3.502   7.817   0.994  0.7281 -0.0781  0.7664
  573SOL    HW211929   3.360   7.743   1.023 -1.0891  2.3360 -1.7251
  574SOL     OW11930   3.667   9.687   2.622 -0.5204  0.4248 -0.2243
  574SOL    HW111931   3.635   9.623   2.553  0.1010  0.3250 -0.4179
  574SOL    HW211932   3.589   9.717   2.678 -0.6748 -1.1479  0.4183
  575SOL     OW11933   9.888   4.853   0.974  0.0105  0.8283  0.2317
  575SOL    HW111934   9.928   4.773   1.019 -0.2529  0.4185 -0.2528
  575SOL    HW211935   9.823   4.897   1.037  0.4711  0.9105  0.6523
  576SOL     OW11936   8.504   2.002   1.997 -0.1757 -0.2401  0.3435
  576SOL    HW111937   8.424   2.039   2.043 -0.9275  2.0541 -2.6333
  576SOL    HW211938   8.478   1.920   1.946 -0.1989 -0.5424  0.8357
  577SOL     OW11939   9.518   3.406   2.320  0.3023  0.2473  0.4663
  577SOL    HW111940   9.430   3.416   2.366 -0.2857  1.4971 -0.8848
  577SOL    HW211941   9.592   3.413   2.387 -0.5973 -0.1931  1.5195
  578SOL     OW11942   3.875   9.440   1.901 -0.4170 -0.3299  0.2719
  578SOL    HW111943   3.928   9.516   1.864 -0.5302  0.8679  2.5405
  578SOL    HW211944   3.778   9.460   1.891 -0.4525 -0.6170  0.0206
  579SOL     OW11945   2.110   1.613   0.777 -0.0539  0.5004 -0.5808
  579SOL    HW111946   2.197   1.570   0.754 -0.5591 -0.4044 -0.8017
  579SOL    HW211947   2.062   1.638   0.693  0.1115  1.2554 -0.4569
  580SOL     OW11948   4.042   0.085   0.188 -0.1100 -0.0188  0.2692
  580SOL    HW111949   4.108   0.012   0.205 -1.1783 -1.0331  0.1280
  580SOL    HW211950   3.985   0.099   0.269 -0.3361  0.2097  0.0735
  581SOL     OW11951   8.869   2.464   1.788 -0.5933 -0.7863  0.3879
  581SOL    HW111952   8.882   2.422   1.878  0.6625 -1.2964 -0.0272
  581SOL    HW211953   8.780   2.438   1.751 -1.0719 -0.6579  1.4365
  582SOL     OW11954   2.962   7.250   0.112 -0.2617  0.6314 -0.5315
  582SOL    HW111955   2.970   7.214   0.205 -0.0219 -1.1021 -1.2125
  582SOL    HW211956   2.865   7.264   0.091 -0.4164 -0.5522 -0.6115
  583SOL     OW11957   3.316   4.244   0.978 -0.2643  0.6847  0.1166
  583SOL    HW111958   3.323   4.318   1.044 -1.7405 -2.0900  3.5568
  583SOL    HW211959   3.222   4.210   0.975  0.6220 -1.9051 -0.3578
  584SOL     OW11960   3.626   2.000   1.443 -0.1879 -0.2056 -0.1099
  584SOL    HW111961   3.608   1.982   1.540  0.0076 -1.5076 -0.3131
  584SOL    HW211962   3.640   2.098   1.430 -0.3920  0.0031  1.1498
  585SOL     OW11963   1.490   6.303   1.299  0.5809 -0.2523 -0.3596
  585SOL    HW111964   1.397   6.339   1.304  0.7725 -0.0013  1.6401
  585SOL    HW211965   1.488   6.205   1.281  0.0053  0.2207 -3.1380
  586SOL     OW11966   3.617   9.348   1.556 -0.5790  0.1693  0.4477
  586SOL    HW111967   3.706   9.314   1.584 -1.4789 -0.9972  1.9662
  586SOL    HW211968   3.550   9.274   1.561 -1.5239  0.8789 -1.2593
  587SOL     OW11969   1.620   4.456   2.953 -0.0283  0.3661 -0.0509
  587SOL    HW111970   1.703   4.413   2.918 -0.1984 -0.9773  1.1647
  587SOL    HW211971   1.551   4.459   2.881  0.7517  0.6827 -0.8010
  588SOL     OW11972   3.122   2.663   0.513  0.3224 -0.3334 -0.0901
  588SOL    HW111973   3.169   2.614   0.440  1.7190  2.4364 -1.1368
  588SOL    HW211974   3.079   2.745   0.475  0.2979  0.6677  2.0429
  589SOL     OW11975   2.192   0.668   1.790 -0.1102 -0.3888  0.4429
  589SOL    HW111976   2.236   0.579   1.805 -0.6598 -1.0954 -1.9621
  589SOL    HW211977   2.093   0.656   1.785 -0.1026  0.1149 -1.3494
  590SOL     OW11978   9.068   0.488   1.082  0.5863  0.2098  0.4476
  590SOL    HW111979   9.087   0.585   1.069  1.2142  0.0153 -0.1030
  590SOL    HW211980   9.085   0.439   0.996  0.4681 -0.4164  0.7786
  591SOL     OW11981   9.971   0.295   2.351 -0.0184 -0.4761  0.0189
  591SOL    HW111982   9.895   0.344   2.308 -0.3189 -0.8436  0.1256
  591SOL    HW211983  10.051   0.300   2.292  0.2048  0.8575  0.4174
  592SOL     OW11984   4.531   2.941   1.324 -0.7104  0.0970  0.2299
  592SOL    HW111985   4.546   2.951   1.423  0.7398  2.1202 -0.1770
  592SOL    HW211986   4.618   2.922   1.279 -1.1510  0.6398 -0.8391
  593SOL     OW11987   1.538   0.017   2.424  0.2692 -0.4291  0.2452
  593SOL    HW111988   1.594   0.034   2.343  2.3669 -2.0908  1.2888
  593SOL    HW211989   1.497  -0.074   2.418  1.6204 -1.1698  1.6695
  594SOL     OW11990   3.181   3.358   0.048 -0.1757 -0.2301  0.2421
  594SOL    HW111991   3.244   3.282   0.065 -2.1511 -1.5240  1.9397
  594SOL    HW211992   3.147   3.394   0.135 -2.4073 -0.0893 -0.6467
  595SOL     OW11993   1.341   8.632   2.375  0.0303 -0.0818  0.3118
  595SOL    HW111994   1.248   8.601   2.359  0.5493 -1.5555  0.0248
  595SOL    HW211995   1.389   8.639   2.288  1.0369 -2.1703  0.6490
  596SOL     OW11996   9.024   1.935   0.352 -0.9547 -0.5724 -0.2506
  596SOL    HW111997   8.931   1.969   0.336 -0.7470  0.1469  0.0588
  596SOL    HW211998   9.025   1.881   0.436 -1.4221 -1.9111 -1.0845
  597SOL     OW11999   2.262   4.641   2.445  0.2328  0.1439 -0.8322
  597SOL    HW112000   2.342   4.676   2.396  1.3233  0.7725  1.3392
  597SOL    HW212001   2.290   4.563   2.502 -1.0053 -0.5522 -1.1518
  598SOL     OW12002   1.342   6.021   2.428 -0.4555 -0.1276 -0.3064
  598SOL    HW112003   1.249   5.991   2.406 -0.8367  1.0782 -0.3702
  598SOL    HW212004   1.340   6.116   2.461  0.9578  0.5639 -2.1065
  599SOL     OW12005   4.440   0.739   1.167  0.4285 -0.4754 -0.6824
  599SOL    HW112006   4.410   0.694   1.083 -1.2415  0.0899 -0.4182
  599SOL    HW212007   4.403   0.832   1.170  0.7518 -0.3784  0.5140
  600SOL     OW12008   0.205   2.169   1.259  0.2222 -0.2411  0.4954
  600SOL    HW112009   0.243   2.181   1.167 -0.6466  0.5999  0.2257
  600SOL    HW212010   0.275   2.188   1.327  0.0951  2.1113  0.0140
  601SOL     OW12011   1.999   0.866   0.374  0.3635  0.2871  0.3274
  601SOL    HW112012   2.055   0.792   0.336 -1.7022 -1.0266 -0.2696
  601SOL    HW212013   2.004   0.864   0.474  0.0372 -0.9078  0.3274
  602SOL     OW12014   8.746   1.002   1.162 -0.0127 -0.7547 -0.1729
  602SOL    HW112015   8.815   1.074   1.151 -0.4529 -0.3117 -0.0669
  602SOL    HW212016   8.689   0.998   1.080 -1.0177  0.1171  0.4702
  603SOL     OW12017   8.272   2.941   1.126  0.2183 -0.4916  0.7811
  603SOL    HW112018   8.191   2.998   1.141 -0.5834 -0.6835 -2.4718
  603SOL    HW212019   8.269   2.863   1.188 -2.3061 -0.6907  0.4739
  604SOL     OW12020   4.244   0.457   1.242  0.0950  0.2311 -0.2504
  604SOL    HW112021   4.149   0.472   1.269 -0.2920  0.5084 -1.7633
  604SOL    HW212022   4.267   0.361   1.257 -0.6692 -0.0175 -0.6297
  605SOL     OW12023   1.099   5.885   2.386  0.3332 -0.6399 -0.7891
  605SOL    HW112024   1.026   5.918   2.447  1.3193  0.5978 -0.2703
  605SOL    HW212025   1.064   5.881   2.292 -0.0490  1.1434 -0.7456
  606SOL     OW12026   4.351   3.026   2.128 -0.3053  0.1470 -0.0419
  606SOL    HW112027   4.330   2.988   2.038 -0.8957 -0.6222  0.4164
  606SOL    HW212028   4.272   3.078   2.162 -0.4383 -0.3684  0.4468
  607SOL     OW12029   3.008   3.250   3.182 -0.5064 -0.1065  0.4891
  607SOL    HW112030   3.080   3.315   3.206  0.3947 -1.6340  2.0559
  607SOL    HW212031   3.013   3.228   3.084 -0.2095  1.4101  0.1596
  608SOL     OW12032   3.556   1.831   2.554 -0.2650 -0.4684 -0.6702
  608SOL    HW112033   3.459   1.816   2.535 -0.3170 -0.7819 -0.1435
  608SOL    HW212034   3.573   1.826   2.652  0.3926 -1.0615 -0.8065
  609SOL     OW12035   3.109   8.537   2.556 -0.1272 -0.3202  0.7264
  609SOL    HW112036   3.154   8.592   2.487 -2.1889  0.5415  0.0085
  609SOL    HW212037   3.127   8.575   2.647  2.0438 -1.0720  0.6305
  610SOL     OW12038   0.150   0.113   1.906 -0.0011  0.0134  0.1704
  610SOL    HW112039   0.071   0.076   1.858  0.3188 -1.8667  1.0478
  610SOL    HW212040   0.195   0.181   1.848 -0.6103 -0.9620 -1.4785
  611SOL     OW12041   9.764   1.608   2.669  0.5103 -0.1473  0.1829
  611SOL    HW112042   9.822   1.583   2.591  0.5229  0.1295  0.1002
  611SOL    HW212043   9.668   1.605   2.641  0.5213  0.0701  0.1248
  612SOL     OW12044   3.631   7.333   3.392  1.0337  0.4725 -0.3175
  612SOL    HW112045   3.537   7.345   3.363  0.3734 -2.1722  0.5632
  612SOL    HW212046   3.684   7.291   3.319  1.0015  0.0110 -0.0800
  613SOL     OW12047   9.293   0.184   3.233 -0.1516 -0.5077  0.0353
  613SOL    HW112048   9.306   0.085   3.229 -0.8862 -0.6717  1.3424
  613SOL    HW212049   9.206   0.204   3.278  0.5136  0.7416  0.8123
  614SOL     OW12050   3.432   4.770   1.673 -0.3138  0.7441 -0.5337
  614SOL    HW112051   3.525   4.808   1.673  0.9286 -2.1241  1.5785
  614SOL    HW212052   3.436   4.672   1.654 -3.1730  1.0409 -2.9430
  615SOL     OW12053   1.983   9.482   0.183 -0.0394 -0.1895  0.4170
  615SOL    HW112054   2.069   9.512   0.141 -0.7824 -0.1140 -1.1034
  615SOL    HW212055   1.990   9.385   0.206  0.4189 -0.2163  0.1808
  616SOL     OW12056   4.150   9.491   2.318 -0.0655 -0.5752  0.2531
  616SOL    HW112057   4.078   9.425   2.334 -0.9550  0.6496  1.3830
  616SOL    HW212058   4.128   9.577   2.364  0.6055  0.8199 -1.9336
  617SOL     OW12059   5.192   8.089   2.717 -0.1656  0.2631  0.2235
  617SOL    HW112060   5.154   8.021   2.654 -1.9113  0.4879  1.0241
  617SOL    HW212061   5.241   8.042   2.790 -3.4137 -0.3087  2.1344
  618SOL     OW12062   1.668   0.515   0.028 -0.8102  0.2060  0.7066
  618SOL    HW112063   1.625   0.446  -0.030  1.6759  0.4098 -1.4609
  618SOL    HW212064   1.747   0.476   0.074 -0.3457  1.1696  0.7489
  619SOL     OW12065   1.701   2.608   0.703 -0.2105 -0.2191 -0.3559
  619SOL    HW112066   1.762   2.675   0.746  0.5617 -2.9100  2.8797
  619SOL    HW212067   1.731   2.516   0.725 -3.9066 -1.6475 -0.8818
  620SOL     OW12068   4.559   1.062   2.280 -0.3729 -0.0653 -0.4577
  620SOL    HW112069   4.577   1.095   2.372 -0.5929  1.1529 -0.8428
  620SOL    HW212070   4.575   0.964   2.276  1.1135  0.1301  0.4933
  621SOL     OW12071   9.287   3.236   2.536 -0.0479 -0.0160  0.1191
  621SOL    HW112072   9.218   3.168   2.557  1.1085 -1.6507 -1.2408
  621SOL    HW212073   9.372   3.215   2.584  0.2112  0.6666 -0.0237
  622SOL     OW12074   3.815   0.110   0.042  0.1492  0.1170 -0.3211
  622SOL    HW112075   3.908   0.103   0.080 -0.6837  0.3464  1.8245
  622SOL    HW212076   3.775   0.018   0.035  1.2866 -0.2193 -3.3046
  623SOL     OW12077   8.378   3.488   1.641 -0.2397  0.4576 -0.0431
  623SOL    HW112078   8.378   3.393   1.671 -0.3503  0.8674  1.2487
  623SOL    HW212079   8.407   3.548   1.716  0.8533  1.3523 -1.1511
  624SOL     OW12080   9.963   9.795   0.657 -0.5136  0.1648 -0.2486
  624SOL    HW112081   9.978   9.776   0.560 -0.1750  1.1254 -0.3845
  624SOL    HW212082  10.044   9.766   0.709 -0.2216  0.7241 -0.3902
  625SOL     OW12083   0.595   7.644   0.068  0.6854 -0.2103  0.1192
  625SOL    HW112084   0.654   7.716   0.031  0.1503 -0.4030 -1.1328
  625SOL    HW212085   0.603   7.562   0.011 -1.3696  0.0164 -0.5466
  626SOL     OW12086   3.628   8.026   0.606 -0.1380  0.5847  0.4423
  626SOL    HW112087   3.575   7.993   0.528  0.6847  2.4274 -0.9252
  626SOL    HW212088   3.724   8.004   0.593  0.1989  2.1571  0.2557
  627SOL     OW12089   0.597   3.034   0.558  0.6768  0.3809  0.0352
  627SOL    HW112090   0.518   3.081   0.597  0.3451  0.8486 -1.1539
  627SOL    HW212091   0.625   3.082   0.474  0.2391 -1.6300 -1.2783
  628SOL     OW12092   1.686   5.227   0.089  0.1390  0.0654 -0.7437
  628SOL    HW112093   1.621   5.215   0.164  0.7523  0.1638 -0.1989
  628SOL    HW212094   1.670   5.156   0.020  0.8490 -1.2309  0.4010
  629SOL     OW12095   4.187   2.426   1.522  0.0839  0.1467 -0.1227
  629SOL    HW112096   4.245   2.363   1.471 -1.4715 -0.3731 -1.2919
  629SOL    HW212097   4.134   2.482   1.458 -1.9509 -0.5570  0.9063
  630SOL     OW12098   1.195   0.521   0.131 -0.0327 -0.4232 -0.4721
  630SOL    HW112099   1.217   0.541   0.226  1.5243 -0.1859 -0.8656
  630SOL    HW212100   1.218   0.426   0.111  0.6751 -0.1682 -0.8963
  631SOL     OW12101   2.784   7.451   1.009  0.2884 -0.4246  0.4876
  631SOL    HW112102   2.714   7.486   0.947 -0.2195 -0.9371  0.7599
  631SOL    HW212103   2.764   7.355   1.030 -0.2009  0.0738  2.3618
  632SOL     OW12104   9.162   1.868   2.791  0.2841  0.2531  0.1375
  632SOL    HW112105   9.189   1.888   2.885  0.1773  1.6798 -0.1215
  632SOL    HW212106   9.076   1.816   2.791 -0.0053  0.7274  0.8028
  633SOL     OW12107   3.822   4.208   0.250 -0.7487 -0.3132 -0.6343
  633SOL    HW112108   3.906   4.159   0.227 -0.3884  0.4985 -1.0552
  633SOL    HW212109   3.812   4.287   0.190 -1.2999  0.1719  0.0917
  634SOL     OW12110   1.270   6.685   0.459 -0.2376 -0.2907 -0.3340
  634SOL    HW112111   1.346   6.631   0.422  0.7354  0.9753 -0.2239
  634SOL    HW212112   1.257   6.767   0.403 -1.0428 -0.1251  0.0884
  635SOL     OW12113   1.854   2.386   2.700 -0.2029  0.6494 -0.4873
  635SOL    HW112114   1.802   2.341   2.627 -0.5559 -1.0612  0.7683
  635SOL    HW212115   1.917   2.320   2.740 -0.3904  1.4242  1.1004
  636SOL     OW12116   1.903   9.570   1.136 -0.5448 -0.1004  0.4552
  636SOL    HW112117   1.883   9.474   1.154  3.1416 -0.9394  0.6162
  636SOL    HW212118   1.867   9.596   1.047  0.6502 -2.4174 -0.7601
  637SOL     OW12119   0.734   1.360   0.678 -0.6005 -0.4703 -0.4007
  637SOL    HW112120   0.749   1.394   0.771  0.8772 -1.1288 -0.3830
  637SOL    HW212121   0.704   1.265   0.682 -2.0502 -0.0336 -0.5556
  638SOL     OW12122   3.510   9.808   0.578 -0.0236 -0.0695 -0.0411
  638SOL    HW112123   3.438   9.746   0.610 -0.3953  1.2136  1.6392
  638SOL    HW212124   3.599   9.762   0.585 -0.3489 -0.5861  0.7337
  639SOL     OW12125   8.532   5.192   1.504  0.1419 -0.4937  0.2092
  639SOL    HW112126   8.606   5.156   1.561  0.1920 -2.3314 -0.9976
  639SOL    HW212127   8.460   5.123   1.496  0.7206 -0.7729 -3.0143
  640SOL     OW12128   3.306   2.196   0.956 -0.1875  0.7156  0.3298
  640SOL    HW112129   3.364   2.115   0.963 -0.3262  0.7305  1.7518
  640SOL    HW212130   3.231   2.178   0.892 -0.1451 -0.2344  0.5395
  641SOL     OW12131   1.971   4.855   0.154 -0.2394 -0.2764 -0.2308
  641SOL    HW112132   1.895   4.907   0.114 -0.7616  0.0367  1.1607
  641SOL    HW212133   1.967   4.761   0.122 -0.3320  0.0910 -1.3423
  642SOL     OW12134   8.918   0.432   2.373  0.7154 -0.2093 -0.7168
  642SOL    HW112135   8.915   0.413   2.471  2.0810 -2.4225 -1.0780
  642SOL    HW212136   8.853   0.506   2.352 -0.2457 -0.3116  1.6915
  643SOL     OW12137   3.783   1.577   0.323 -0.0175 -0.1932 -0.3177
  643SOL    HW112138   3.761   1.586   0.226  0.1710 -0.8816 -0.4290
  643SOL    HW212139   3.851   1.504   0.335  0.2770  0.1721  0.2861
  644SOL     OW12140   2.354   2.434   1.389 -0.4075  0.1957  0.2684
  644SOL    HW112141   2.394   2.471   1.305 -1.0363 -0.2535 -0.2244
  644SOL    HW212142   2.317   2.343   1.372  1.2463 -0.7438  1.5060
  645SOL     OW12143   2.002   7.639   2.580 -0.1312 -0.1279  0.4725
  645SOL    HW112144   2.016   7.633   2.679 -0.0786 -0.3238  0.4535
  645SOL    HW212145   1.933   7.572   2.552  0.1301 -0.3345  0.3230
  646SOL     OW12146   3.071   4.108   1.955  0.6885  0.2926  0.2100
  646SOL    HW112147   3.152   4.110   2.013  0.7359 -1.5333  0.2460
  646SOL    HW212148   3.093   4.145   1.865  1.5727 -0.2040  0.2165
  647SOL     OW12149   5.622   8.608   2.505 -0.0761 -0.2796 -0.5008
  647SOL    HW112150   5.655   8.655   2.423 -2.6277  0.1301 -1.3332
  647SOL    HW212151   5.606   8.512   2.484  1.5009 -0.6963  0.1690
  648SOL     OW12152   0.955   2.001   1.694  0.4290  0.5789  0.0547
  648SOL    HW112153   0.975   1.904   1.712 -2.8517 -0.0173  0.9701
  648SOL    HW212154   0.993   2.028   1.606  0.4943 -1.8721 -0.7088
  649SOL     OW12155   0.979   6.459   1.146  0.4643  0.6822 -0.6790
  649SOL    HW112156   0.955   6.555   1.158  1.7968  0.7131  2.1954
  649SOL    HW212157   0.910   6.414   1.089 -1.2683  2.8765 -0.3767
  650SOL     OW12158   0.723   9.692   2.639  0.3214  0.2654 -0.5357
  650SOL    HW112159   0.737   9.770   2.579 -0.6647  0.7379 -0.1546
  650SOL    HW212160   0.756   9.714   2.731 -0.2500  0.3497 -0.3491
  651SOL     OW12161   7.891   2.325   0.604 -0.3776  0.1152 -0.1951
  651SOL    HW112162   7.837   2.379   0.668 -1.5866  1.7217 -2.5056
  651SOL    HW212163   7.831   2.281   0.538  1.0020  0.6610 -1.8612
  652SOL     OW12164   1.852   2.107   1.349 -0.1102  0.2789  0.1544
  652SOL    HW112165   1.934   2.051   1.338  0.3154  0.7631  0.8565
  652SOL    HW212166   1.875   2.203   1.332 -0.5811  0.3851  0.1219
  653SOL     OW12167   3.037   9.595   2.052  0.3463  0.1828  0.2378
  653SOL    HW112168   3.100   9.618   2.126  1.3024  1.0072 -0.8127
  653SOL    HW212169   2.986   9.676   2.026  1.5763  0.4476 -1.4545
  654SOL     OW12170   0.481   7.973   1.529 -0.6496 -0.3300  0.5588
  654SOL    HW112171   0.451   7.945   1.438  2.2256 -1.2519 -0.1568
  654SOL    HW212172   0.419   7.936   1.598 -2.8138  0.3253 -1.0185
  655SOL     OW12173   3.414   2.801   2.622 -0.2282  0.0062  0.4420
  655SOL    HW112174   3.458   2.724   2.575  1.2004  2.4706 -2.3896
  655SOL    HW212175   3.324   2.817   2.582  0.4981  1.3544 -0.6740
  656SOL     OW12176   9.689   5.450   1.290 -0.2153 -0.8376  0.2875
  656SOL    HW112177   9.721   5.541   1.261 -1.8912  0.1318  1.4158
  656SOL    HW212178   9.702   5.386   1.214 -0.7531  0.7545 -1.1937
  657SOL     OW12179   0.887   3.309   1.506 -0.4932 -0.4395 -0.6407
  657SOL    HW112180   0.903   3.407   1.515  0.0352 -0.5501 -0.3303
  657SOL    HW212181   0.789   3.291   1.506 -0.6098  0.1641 -1.5240
  658SOL     OW12182   9.824   4.246   0.097  0.8390  0.2248 -0.4006
  658SOL    HW112183   9.875   4.175   0.049  0.1194  0.9156 -2.2730
  658SOL    HW212184   9.887   4.317   0.129  1.2149  0.4127 -1.5245
  659SOL     OW12185   0.542   7.289   0.903 -0.3726 -0.0551 -0.2806
  659SOL    HW112186   0.582   7.344   0.976  0.6781  0.7924 -1.4703
  659SOL    HW212187   0.528   7.195   0.935  0.8524  0.1087  0.7423
  660SOL     OW12188   3.035   3.424   0.594 -0.7276 -0.7531 -0.4098
  660SOL    HW112189   2.961   3.487   0.569  0.1640 -0.2418 -1.7932
  660SOL    HW212190   3.110   3.476   0.634 -0.9664 -1.2362  0.6898
  661SOL     OW12191   3.820   8.345   0.658 -0.1804 -0.7031  0.3385
  661SOL    HW112192   3.852   8.427   0.704  0.6299 -1.3929  1.0375
  661SOL    HW212193   3.749   8.369   0.593 -0.8415  0.3890  1.4322
  662SOL     OW12194   9.025   3.265   1.083 -0.5087  0.2208  0.3551
  662SOL    HW112195   9.072   3.185   1.118  2.0273  1.5348  0.0637
  662SOL    HW212196   8.954   3.237   1.018 -0.4978 -1.8163  1.1884
  663SOL     OW12197   3.483   5.733   3.017 -0.3331 -0.0846  0.0533
  663SOL    HW112198   3.488   5.687   3.106  0.0368 -0.7525 -0.3078
  663SOL    HW212199   3.431   5.818   3.026 -1.5066 -0.8582  0.6086
  664SOL     OW12200   9.427   4.510   2.040 -0.4109 -0.0014  0.1071
  664SOL    HW112201   9.475   4.595   2.064  0.6007 -0.4468 -0.2897
  664SOL    HW212202   9.340   4.532   1.995  0.7899  0.8406 -1.8824
  665SOL     OW12203   0.790   6.852   0.554 -0.9534  0.2336 -0.2283
  665SOL    HW112204   0.870   6.912   0.554 -2.3320  2.1485  0.1464
  665SOL    HW212205   0.783   6.805   0.641  0.1789 -0.5231 -0.5436
  666SOL     OW12206   3.837   4.473   0.111  0.3542  0.2174  0.0117
  666SOL    HW112207   3.925   4.483   0.158  0.9957  1.1794 -1.3466
  666SOL    HW212208   3.779   4.552   0.133 -0.4158 -0.7128  1.3856
  667SOL     OW12209   2.030   0.390   1.560  0.6867  0.5881  0.2297
  667SOL    HW112210   2.031   0.439   1.473 -0.4555 -0.1300 -0.2037
  667SOL    HW212211   2.105   0.324   1.561  0.2449  0.0629 -0.5349
  668SOL     OW12212   9.880   2.983   2.173  0.2876 -0.2590  0.2602
  668SOL    HW112213   9.847   2.897   2.132 -0.5223  0.7935 -1.3289
  668SOL    HW212214   9.980   2.981   2.177  0.2220 -1.7712  1.3199
  669SOL     OW12215   9.909   3.110   0.639 -0.2877 -0.3547 -0.0796
  669SOL    HW112216   9.820   3.152   0.653  0.1435  0.4995  0.1830
  669SOL    HW212217   9.943   3.131   0.548 -0.3580 -0.6957 -0.1868
  670SOL     OW12218   9.874   0.313   0.563 -0.6295  0.9645  0.0751
  670SOL    HW112219   9.938   0.241   0.535  0.8214  1.3814  2.2076
  670SOL    HW212220   9.847   0.366   0.482  2.5536  1.4427 -0.7414
  671SOL     OW12221   1.310   1.614   2.165  0.0363  0.6132 -0.2551
  671SOL    HW112222   1.233   1.658   2.211  1.4528  2.6772  0.1812
  671SOL    HW212223   1.379   1.589   2.232  0.8749  1.0809 -0.9359
  672SOL     OW12224   8.884   2.378   3.331 -0.3739 -0.0149  0.1923
  672SOL    HW112225   8.982   2.396   3.336 -0.4274  0.5262 -0.7066
  672SOL    HW212226   8.864   2.319   3.253 -0.8463  0.4774 -0.0656
  673SOL     OW12227   0.446   9.849   2.575 -0.3096 -0.5940  0.0893
  673SOL    HW112228   0.484   9.900   2.498  0.6301 -0.2697  0.7533
  673SOL    HW212229   0.480   9.755   2.572  2.2076  0.1999  1.7862
  674SOL     OW12230   4.338   8.097   2.677 -0.3133  0.3982 -0.7185
  674SOL    HW112231   4.244   8.110   2.708 -0.1429  1.5341 -0.6701
  674SOL    HW212232   4.391   8.180   2.692  1.4938 -1.1465  1.9528
  675SOL     OW12233   9.415   2.233   3.252  0.2809  0.1576 -0.7499
  675SOL    HW112234   9.464   2.307   3.206 -0.4795  0.9438 -0.3055
  675SOL    HW212235   9.454   2.145   3.225  1.5245  0.7427 -0.8918
  676SOL     OW12236   8.363   2.887   0.373  0.0840 -0.3414  0.5329
  676SOL    HW112237   8.380   2.810   0.312 -1.5337 -0.3070  0.0064
  676SOL    HW212238   8.364   2.855   0.468  2.3536 -0.4408  0.5061
  677SOL     OW12239   0.221   1.163   1.753 -0.2452  0.9818  0.3289
  677SOL    HW112240   0.253   1.182   1.846  0.0763  1.2633  0.1582
  677SOL    HW212241   0.211   1.248   1.703 -0.6820  0.8520  0.1873
  678SOL     OW12242   2.655   6.715   1.060  0.0412 -0.3120 -0.4477
  678SOL    HW112243   2.693   6.804   1.035  0.4298 -0.4889 -0.4830
  678SOL    HW212244   2.664   6.701   1.158 -2.9890  1.1062  0.0916
  679SOL     OW12245   0.012   3.950   1.284 -0.7143 -0.3184 -0.2641
  679SOL    HW112246   0.014   3.985   1.190  0.5032 -1.2296 -0.5967
  679SOL    HW212247   0.070   3.868   1.290  0.4334  0.6032  1.6327
  680SOL     OW12248   1.391   2.193   2.845  0.1088 -0.5608  0.5750
  680SOL    HW112249   1.416   2.288   2.859 -1.6984 -0.1478  1.2297
  680SOL    HW212250   1.408   2.141   2.929  0.9088 -0.7717  0.2827
  681SOL     OW12251   1.440   0.717   1.387  0.1105  0.1370  0.0861
  681SOL    HW112252   1.392   0.639   1.346 -0.3898  0.2638  0.4299
  681SOL    HW212253   1.374   0.779   1.428  0.6816 -0.7591  2.4524
  682SOL     OW12254   3.450   6.953   3.432  0.7013 -0.1055 -0.5409
  682SOL    HW112255   3.476   6.881   3.496  0.7874 -1.9663 -2.6091
  682SOL    HW212256   3.401   7.026   3.481  1.5624 -1.0390  1.7589
  683SOL     OW12257   4.521   9.085   2.948  0.4144 -0.0475 -0.0859
  683SOL    HW112258   4.465   9.009   2.981 -0.3531  0.5780  0.0594
  683SOL    HW212259   4.524   9.083   2.848 -1.2408  0.8969 -0.1570
  684SOL     OW12260   0.804   6.932   3.178 -0.0391 -0.2200 -0.0617
  684SOL    HW112261   0.820   6.987   3.096 -1.5511  0.3023 -0.0200
  684SOL    HW212262   0.798   6.835   3.152  0.5240 -0.1659 -0.4150
  685SOL     OW12263   9.769   4.369   2.601 -0.4162 -0.1881 -0.6452
  685SOL    HW112264   9.852   4.368   2.656 -1.2926 -0.4795  0.6813
  685SOL    HW212265   9.723   4.457   2.611 -0.4026 -0.1150 -1.1961
  686SOL     OW12266   2.614   4.232   0.390  0.2813 -0.8395  0.8536
  686SOL    HW112267   2.639   4.309   0.330 -0.0379 -0.6898  0.9130
  686SOL    HW212268   2.516   4.216   0.385  0.3167 -1.1083  1.0059
  687SOL     OW12269   8.709   3.051   3.331  0.8028 -0.2868 -0.2362
  687SOL    HW112270   8.752   3.142   3.330 -1.5382  0.8885  0.4796
  687SOL    HW212271   8.702   3.019   3.426 -0.1633 -0.3078 -0.3068
  688SOL     OW12272   4.058   3.676   1.042  0.0694  0.1851 -0.5564
  688SOL    HW112273   4.046   3.577   1.049 -0.2361  0.2625  0.0233
  688SOL    HW212274   4.120   3.697   0.966  1.0964 -0.5067  0.0936
  689SOL     OW12275   1.827   7.728   0.454 -0.0028  0.5985  0.1399
  689SOL    HW112276   1.822   7.812   0.400  0.3570  0.3759 -0.2491
  689SOL    HW212277   1.818   7.749   0.551 -0.2697  1.0469  0.0177
  690SOL     OW12278   1.811   4.741   3.075 -0.0084 -0.1497 -0.6412
  690SOL    HW112279   1.891   4.721   3.131  0.2334 -0.2302 -1.0124
  690SOL    HW212280   1.735   4.681   3.102 -0.0570  0.1877 -0.0341
  691SOL     OW12281   8.837   3.727   2.934  0.3646 -0.0553  0.3483
  691SOL    HW112282   8.810   3.675   2.852 -0.1812 -2.1776  1.8421
  691SOL    HW212283   8.771   3.711   3.007  0.8771  1.7907  1.2318
  692SOL     OW12284   2.086   5.306   1.624  0.2392 -0.4438  0.9702
  692SOL    HW112285   2.130   5.388   1.590  0.7777 -0.1185  2.3977
  692SOL    HW212286   1.990   5.326   1.646  0.2732 -0.2876  0.9758
  693SOL     OW12287   9.563   3.890   3.141 -0.3942  0.0917  0.0063
  693SOL    HW112288   9.466   3.872   3.157 -0.4552  1.9429  1.7910
  693SOL    HW212289   9.574   3.979   3.098  0.5979  0.3944  0.8776
  694SOL     OW12290   3.240   8.795   0.440  0.8736 -0.0681 -0.3115
  694SOL    HW112291   3.256   8.869   0.505  0.3188  1.7895 -2.2141
  694SOL    HW212292   3.146   8.802   0.404  0.7047 -1.8999 -0.2660
  695SOL     OW12293   1.090   9.570   0.360 -0.3067 -0.6631  0.1228
  695SOL    HW112294   1.142   9.548   0.278 -0.1231  0.6038 -0.1071
  695SOL    HW212295   1.024   9.642   0.339 -2.5899 -2.6355  0.2484
  696SOL     OW12296   1.302   4.363   1.467 -0.3708 -0.1298 -0.0448
  696SOL    HW112297   1.338   4.278   1.506  1.0315  0.7479  0.6231
  696SOL    HW212298   1.202   4.361   1.470 -0.3189 -0.1330  3.5374
  697SOL     OW12299   0.630   9.132   1.054 -0.9963 -0.2140 -0.8641
  697SOL    HW112300   0.608   9.183   0.971 -2.3479  0.3379 -0.1875
  697SOL    HW212301   0.635   9.035   1.034  0.7076  0.0962 -1.9894
  698SOL     OW12302   8.625   1.049   0.948  0.2604  0.0013  0.2153
  698SOL    HW112303   8.654   1.138   0.914  1.7450 -0.3598  0.5255
  698SOL    HW212304   8.583   0.997   0.873 -1.3466  1.2519  0.2215
  699SOL     OW12305   3.513   2.496   0.622 -0.3436 -0.1332 -0.5094
  699SOL    HW112306   3.484   2.587   0.595 -0.1913  0.4290  1.1871
  699SOL    HW212307   3.473   2.472   0.710  2.2340 -0.3534  0.6615
  700SOL     OW12308   9.372   4.210   1.110  0.6506  0.2266 -0.7540
  700SOL    HW112309   9.342   4.223   1.015  2.1095 -1.6754 -1.5098
  700SOL    HW212310   9.472   4.222   1.114  0.4641  1.3430  0.7508
  701SOL     OW12311   2.347   2.790   1.445 -0.2679 -0.7876  0.0281
  701SOL    HW112312   2.333   2.749   1.355  0.3664  0.1332 -0.4984
  701SOL    HW212313   2.440   2.772   1.476 -0.2633 -0.5025  0.1853
  702SOL     OW12314   7.428   5.260   1.061 -0.8272 -0.0175  0.2875
  702SOL    HW112315   7.523   5.232   1.072 -0.3270  1.8506  1.0688
  702SOL    HW212316   7.393   5.227   0.974  0.3868 -1.1090  0.1975
  703SOL     OW12317   0.558   3.074   0.112 -0.5737  0.3818  0.0240
  703SOL    HW112318   0.552   3.006   0.039 -0.8696  0.2234  0.1969
  703SOL    HW212319   0.476   3.131   0.112 -0.7049  0.1987  0.4098
  704SOL     OW12320   2.304   7.580   3.025  0.2786  0.2341 -0.4924
  704SOL    HW112321   2.309   7.671   2.983  1.5301  0.6084  0.4100
  704SOL    HW212322   2.224   7.574   3.084  0.0965  0.7050 -0.6962
  705SOL     OW12323   3.385   3.444   3.009  0.3834  0.7008 -0.0839
  705SOL    HW112324   3.337   3.531   3.024  0.8927  0.8758  0.5131
  705SOL    HW212325   3.471   3.462   2.962  0.1599  0.4419 -0.6034
  706SOL     OW12326   8.277   4.099   0.848  0.2386 -0.5551  0.1701
  706SOL    HW112327   8.273   4.134   0.754  1.2002 -1.5625 -0.2576
  706SOL    HW212328   8.228   4.012   0.853  0.3472 -0.5932  0.5537
  707SOL     OW12329   1.382   1.844   1.798  0.1249  0.1714  0.6163
  707SOL    HW112330   1.361   1.910   1.870 -1.0524 -1.6099  1.9518
  707SOL    HW212331   1.454   1.783   1.830  0.4983  0.1715 -0.2223
  708SOL     OW12332   0.828   1.517   1.847 -0.1950  0.0698  0.3632
  708SOL    HW112333   0.917   1.472   1.845 -0.6728 -0.8572 -1.1272
  708SOL    HW212334   0.756   1.449   1.831 -1.2323  0.6769  2.3168
  709SOL     OW12335   1.692   7.668   2.292 -0.2374 -0.0564  0.4716
  709SOL    HW112336   1.634   7.719   2.356 -0.2766  1.6295 -0.8648
  709SOL    HW212337   1.635   7.610   2.234 -0.6885  1.9584 -1.1612
  710SOL     OW12338   0.013   0.544   0.635  0.1859 -0.0305 -0.3424
  710SOL    HW112339  -0.039   0.461   0.615 -1.8244  1.0846  0.1590
  710SOL    HW212340   0.049   0.582   0.550 -3.0838  1.2768 -1.2273
  711SOL     OW12341   8.656   1.575   2.037 -0.5174  0.7182 -0.2929
  711SOL    HW112342   8.653   1.653   1.974  2.5896  1.4772  0.3762
  711SOL    HW212343   8.738   1.521   2.019  0.7199  1.2090  3.2693
  712SOL     OW12344   1.982   5.628   0.503 -0.1701  0.8608  0.0504
  712SOL    HW112345   1.913   5.648   0.573 -3.1724 -2.0337 -1.9202
  712SOL    HW212346   2.036   5.710   0.485 -2.6301  3.0492  2.2229
  713SOL     OW12347   9.132   3.726   0.975  0.3535  0.3732  0.6004
  713SOL    HW112348   9.079   3.798   1.019  0.6120 -0.0733  1.6702
  713SOL    HW212349   9.074   3.678   0.909 -0.3426  0.4034  1.1801
  714SOL     OW12350   9.923   3.097   1.424  0.0718 -0.9481 -0.4191
  714SOL    HW112351   9.913   3.126   1.519 -0.6949  0.3490 -0.8806
  714SOL    HW212352   9.868   3.014   1.409  1.5879 -2.1700  0.6919
  715SOL     OW12353   9.132   1.053   3.009 -0.2000  0.1361 -0.0650
  715SOL    HW112354   9.178   1.073   3.095  2.7134  1.1279 -1.8037
  715SOL    HW212355   9.153   0.960   2.980 -2.7662 -0.8917  1.2193
  716SOL     OW12356   4.283   0.387   1.566  0.2496  0.3700 -0.1200
  716SOL    HW112357   4.229   0.472   1.562  0.5804  0.5496 -0.8355
  716SOL    HW212358   4.256   0.328   1.490 -0.7941 -0.6634  1.0295
  717SOL     OW12359   7.733   0.685   1.923  0.0789 -0.0530  0.2188
  717SOL    HW112360   7.817   0.688   1.868 -0.4844 -1.0782 -0.7366
  717SOL    HW212361   7.754   0.706   2.018  1.7575 -2.2695  0.3690
  718SOL     OW12362   0.077   7.471   3.035  0.6527  0.2818 -0.2509
  718SOL    HW112363   0.018   7.486   3.114  2.8979  1.4188  1.2337
  718SOL    HW212364   0.081   7.554   2.979 -2.0003 -0.9252 -2.3649
  719SOL     OW12365   0.036   3.455   1.901 -0.4193 -0.2759 -0.6440
  719SOL    HW112366   0.051   3.360   1.927 -0.2742 -0.1961 -0.4370
  719SOL    HW212367   0.076   3.472   1.811 -0.5793 -0.4496 -0.7494
  720SOL     OW12368   3.295   5.187   2.594 -0.9386 -0.0135 -0.8795
  720SOL    HW112369   3.304   5.228   2.503 -0.1835  2.0419  0.0981
  720SOL    HW212370   3.229   5.240   2.647 -0.4603 -0.4832  0.1866
  721SOL     OW12371   3.130   4.575   2.766  0.5194  0.6916  0.0508
  721SOL    HW112372   3.053   4.618   2.813 -0.1344  1.5449 -1.7861
  721SOL    HW212373   3.212   4.585   2.822  0.0830  3.1242  0.2951
  722SOL     OW12374   0.506   9.484   1.666 -0.0478 -0.1416 -0.3675
  722SOL    HW112375   0.496   9.442   1.575  0.6354 -3.4482  1.0202
  722SOL    HW212376   0.416   9.508   1.702 -0.4831 -0.7087 -1.0686
  723SOL     OW12377   4.673   0.472   1.781 -0.3565 -0.0971 -0.1197
  723SOL    HW112378   4.718   0.558   1.803 -0.4903  0.1596 -0.8570
  723SOL    HW212379   4.616   0.483   1.700  0.2250 -1.0859 -0.6770
  724SOL     OW12380   8.037   3.847   0.507 -0.0868  0.8257 -0.1950
  724SOL    HW112381   8.016   3.860   0.603 -0.9473  2.1282 -0.5467
  724SOL    HW212382   8.007   3.927   0.455  0.7833  0.3342 -1.4785
  725SOL     OW12383   3.009   7.937   0.542 -0.0561  0.4988  0.2325
  725SOL    HW112384   3.012   7.933   0.642  1.1943  2.5203  0.3115
  725SOL    HW212385   2.927   7.986   0.513  0.0778  0.7788  0.3195
  726SOL     OW12386   9.787   1.225   0.790 -0.2211  0.5461 -0.4543
  726SOL    HW112387   9.791   1.197   0.694  1.1133  0.6788 -0.4563
  726SOL    HW212388   9.880   1.234   0.826 -0.7202 -0.2999  1.0907
  727SOL     OW12389   1.598   3.759   2.388  0.0479  0.4461  0.0297
  727SOL    HW112390   1.657   3.704   2.447 -2.3294 -1.0225  1.0928
  727SOL    HW212391   1.512   3.779   2.435 -0.4286  2.3516 -1.5777
  728SOL     OW12392   2.065   7.602   1.038 -0.4761  0.0265 -0.1833
  728SOL    HW112393   2.037   7.578   1.131  1.1169  0.1786  0.3505
  728SOL    HW212394   2.068   7.701   1.028 -1.0380  0.0128 -0.5301
  729SOL     OW12395   7.975   1.119   1.436  0.2543  0.0991  0.8898
  729SOL    HW112396   7.993   1.217   1.429  0.9237 -0.0644  0.3148
  729SOL    HW212397   8.006   1.085   1.525  1.8938  0.0169  0.3044
  730SOL     OW12398   5.222   9.093   2.777  0.2871  0.3147  0.5772
  730SOL    HW112399   5.243   9.058   2.686 -0.7414  0.3033  0.3321
  730SOL    HW212400   5.197   9.017   2.837  1.8294  0.2189  1.1308
  731SOL     OW12401   9.417   4.465   2.687  0.1613 -0.0119 -0.3473
  731SOL    HW112402   9.435   4.540   2.623  1.5374 -0.3651 -0.3751
  731SOL    HW212403   9.380   4.387   2.637 -0.6001  0.3923 -0.4230
  732SOL     OW12404   1.220   6.220   1.778 -0.7034  0.1800 -0.1281
  732SOL    HW112405   1.312   6.213   1.816 -0.7374  0.5906  0.0397
  732SOL    HW212406   1.225   6.220   1.678 -0.5749 -0.4176 -0.1250
  733SOL     OW12407   0.343   7.523   3.096 -0.1303 -0.5111  0.4838
  733SOL    HW112408   0.250   7.486   3.092  0.3189 -1.5980  0.1074
  733SOL    HW212409   0.396   7.489   3.019  0.6596 -0.0903  0.8378
  734SOL     OW12410   2.160   3.078   0.485  0.5572 -0.8885 -0.1208
  734SOL    HW112411   2.075   3.035   0.454  0.0763 -0.6867  0.9183
  734SOL    HW212412   2.191   3.144   0.416 -1.3220  0.6737  0.4808
  735SOL     OW12413   0.618   2.960   2.759  0.3236 -0.3570  0.3022
  735SOL    HW112414   0.711   2.947   2.725 -0.0805 -0.1760 -0.8952
  735SOL    HW212415   0.554   2.917   2.696 -0.4505  0.1409  0.7499
  736SOL     OW12416   3.097   7.586   1.448 -0.4238 -0.1748 -0.3173
  736SOL    HW112417   3.162   7.632   1.510 -1.3838 -0.1311  0.6793
  736SOL    HW212418   3.012   7.639   1.444 -0.0679  0.2856 -2.3830
  737SOL     OW12419   2.176   6.384   3.420  0.6412  0.2934 -0.7140
  737SOL    HW112420   2.092   6.330   3.424  1.3001 -0.8505 -1.8554
  737SOL    HW212421   2.223   6.366   3.333  1.8392  1.2632 -0.2847
  738SOL     OW12422   9.786   1.459   0.068  0.7139 -0.4995  0.2356
  738SOL    HW112423   9.798   1.362   0.045  0.3537 -0.0446 -2.0481
  738SOL    HW212424   9.834   1.514  -0.000 -0.6550  0.9655  0.4466
  739SOL     OW12425   3.170   3.639   1.324  0.2452  0.0404 -0.0358
  739SOL    HW112426   3.158   3.548   1.364 -2.7352  0.6663  0.6787
  739SOL    HW212427   3.266   3.654   1.303  0.9470 -2.8585  0.8020
  740SOL     OW12428   1.430   6.708   2.887  0.5207  0.3061 -0.2990
  740SOL    HW112429   1.457   6.627   2.939 -0.9580 -1.1393 -1.7163
  740SOL    HW212430   1.349   6.749   2.928 -0.8879 -1.0692 -1.6232
  741SOL     OW12431   0.368   2.398   0.452 -0.4586 -0.0351  0.2253
  741SOL    HW112432   0.404   2.473   0.396 -1.6306 -0.5559 -1.2757
  741SOL    HW212433   0.268   2.405   0.457 -0.5058 -0.9980  0.7912
  742SOL     OW12434   0.013   5.892   2.106  0.5512  0.0567 -1.0674
  742SOL    HW112435   0.026   5.941   2.192  0.7413 -0.7317 -0.6421
  742SOL    HW212436  -0.029   5.952   2.039  2.3708  1.3549 -1.0961
  743SOL     OW12437   9.574   1.839   0.280  0.4665  0.4155  0.6459
  743SOL    HW112438   9.571   1.742   0.253 -0.6493 -0.2835  3.1196
  743SOL    HW212439   9.526   1.894   0.211  0.1848 -0.9275 -0.2611
  744SOL     OW12440   4.110   1.306   2.096  0.2534  0.0954  0.2111
  744SOL    HW112441   4.142   1.351   2.180  0.6652  1.1706 -0.5088
  744SOL    HW212442   4.179   1.241   2.065  1.1910  1.4386 -0.5988
  745SOL     OW12443   2.651   8.033   2.254  0.6687  0.0183  0.7959
  745SOL    HW112444   2.702   8.001   2.174  0.1304  1.8392 -0.3190
  745SOL    HW212445   2.591   7.960   2.286 -0.1564 -0.2891 -1.3577
  746SOL     OW12446   2.979   5.494   1.644 -0.3880  1.0615  0.3350
  746SOL    HW112447   2.931   5.574   1.679 -0.4839  1.5332 -0.8741
  746SOL    HW212448   2.929   5.456   1.566 -0.8711 -0.7549  1.4774
  747SOL     OW12449   4.914   9.330   2.891  0.3644 -0.1603 -0.0455
  747SOL    HW112450   4.864   9.284   2.966  0.8277 -1.1970 -0.3682
  747SOL    HW212451   4.907   9.275   2.808  0.6238  0.5453 -0.5382
  748SOL     OW12452   0.432   0.361   1.100  0.5467 -0.4780  0.1822
  748SOL    HW112453   0.363   0.400   1.162  1.2401  0.3142  0.4669
  748SOL    HW212454   0.510   0.423   1.094  1.0262 -1.1422 -0.5220
  749SOL     OW12455   0.376   6.182   1.023 -0.3415  0.3406 -0.1537
  749SOL    HW112456   0.293   6.211   0.977 -0.7323 -2.3262 -1.2432
  749SOL    HW212457   0.371   6.206   1.120 -1.9879  0.9574 -0.3802
  750SOL     OW12458   1.454   5.089   2.705  0.3436  0.4508 -0.1120
  750SOL    HW112459   1.507   5.168   2.672 -0.4929  0.8261 -0.5732
  750SOL    HW212460   1.360   5.095   2.671 -0.3652  0.4748  1.7682
  751SOL     OW12461   9.505   2.948   2.159  0.0457  0.5408  0.2826
  751SOL    HW112462   9.577   2.882   2.137  1.1492  1.4071  1.2401
  751SOL    HW212463   9.431   2.941   2.092  1.6262  0.5729 -1.4895
  752SOL     OW12464   3.479   7.086   3.203 -0.4017  0.3598 -0.7844
  752SOL    HW112465   3.444   7.179   3.209 -0.1228  0.4583 -0.7306
  752SOL    HW212466   3.455   7.036   3.286  2.5560  1.4200  0.7665
  753SOL     OW12467   8.263   0.595   1.640 -0.0337 -0.4112  0.4040
  753SOL    HW112468   8.347   0.553   1.675 -1.1285 -3.0933 -0.0809
  753SOL    HW212469   8.261   0.587   1.541 -1.4261 -1.5164  0.4985
  754SOL     OW12470   8.986   3.513   2.284  0.3843  0.1668  0.3232
  754SOL    HW112471   9.057   3.443   2.289  0.2096 -0.0052  0.3957
  754SOL    HW212472   9.008   3.578   2.211  0.3334 -0.2009 -0.0215
  755SOL     OW12473   1.938   7.470   1.583  0.1337  0.1986 -0.0252
  755SOL    HW112474   1.947   7.523   1.668 -0.5587 -0.7357  0.6342
  755SOL    HW212475   1.890   7.385   1.602  0.0197 -0.0370 -1.3573
  756SOL     OW12476   1.396   4.425   2.792 -0.3283  0.0419  0.1839
  756SOL    HW112477   1.330   4.410   2.718 -1.3192  0.6717  0.9244
  756SOL    HW212478   1.432   4.337   2.823 -3.2639 -0.6305  1.9430
  757SOL     OW12479   3.433   3.861   3.046 -0.1965 -0.5019  0.5461
  757SOL    HW112480   3.501   3.820   3.107  0.8083 -1.4068 -1.1407
  757SOL    HW212481   3.475   3.938   2.997 -1.2929  0.8697  1.7278
  758SOL     OW12482   3.958   1.509   1.057  0.6405  0.1432  0.3774
  758SOL    HW112483   3.984   1.455   0.977 -0.0305 -0.7284  0.7394
  758SOL    HW212484   4.036   1.564   1.088  0.0586  2.8673 -2.7301
  759SOL     OW12485   1.197   4.633   1.974  0.6875 -0.4646  0.0915
  759SOL    HW112486   1.225   4.553   1.921 -2.4422 -0.6867 -1.3565
  759SOL    HW212487   1.169   4.605   2.066  0.4798 -0.9048 -0.1064
  760SOL     OW12488   9.090   5.184   0.591 -0.2562  0.0133  0.1636
  760SOL    HW112489   9.030   5.255   0.553 -0.3326 -0.7237 -1.1155
  760SOL    HW212490   9.143   5.142   0.517 -0.3964 -1.4444  0.8747
  761SOL     OW12491   2.887   0.438   2.915  0.4087 -0.7058  0.2965
  761SOL    HW112492   2.941   0.369   2.964  1.1673 -1.1926 -1.1766
  761SOL    HW212493   2.917   0.441   2.820 -0.1376  1.1442  0.1632
  762SOL     OW12494   3.366   0.420   1.463  0.4385 -0.2434 -0.4316
  762SOL    HW112495   3.380   0.375   1.551 -0.5081  0.0424 -0.1213
  762SOL    HW212496   3.305   0.365   1.406  1.0771 -0.4454 -0.9237
  763SOL     OW12497   2.780   5.031   3.229  0.2070  0.3046  1.0363
  763SOL    HW112498   2.771   5.127   3.202 -1.3116 -0.1223 -0.0111
  763SOL    HW212499   2.812   4.977   3.151 -0.2928 -0.2775  1.2301
  764SOL     OW12500   1.027   4.276   1.430  1.2677  0.0577  0.0628
  764SOL    HW112501   1.065   4.194   1.386 -0.2695 -1.1424  0.9399
  764SOL    HW212502   0.931   4.262   1.451  0.9437  2.1624  0.1063
  765SOL     OW12503   7.422   0.225   2.058 -0.2382  0.7515  0.2146
  765SOL    HW112504   7.332   0.221   2.102 -1.4382  3.8723 -1.7745
  765SOL    HW212505   7.488   0.268   2.119 -0.9986  1.6968  0.3859
  766SOL     OW12506   0.546   4.226   1.299 -0.1835 -0.2275  0.0085
  766SOL    HW112507   0.591   4.176   1.225 -0.1321 -0.7640  0.3954
  766SOL    HW212508   0.610   4.238   1.375 -0.2605  0.2487 -0.0005
  767SOL     OW12509   1.768   8.117   3.106 -0.5660 -0.1354  0.5681
  767SOL    HW112510   1.730   8.172   3.181  1.4527 -0.4172  1.8148
  767SOL    HW212511   1.787   8.025   3.139  0.3935 -0.2374 -0.2599
  768SOL     OW12512   2.934   2.148   1.799 -0.7716  0.1387  0.2019
  768SOL    HW112513   2.838   2.163   1.823 -0.3360 -1.7996  3.3748
  768SOL    HW212514   2.942   2.062   1.749 -0.5431 -0.3712  1.1040
  769SOL     OW12515   2.738   0.799   1.533 -0.3312  0.4362  0.2909
  769SOL    HW112516   2.722   0.882   1.587 -1.1878  0.3021  0.2528
  769SOL    HW212517   2.656   0.742   1.535  0.8874 -1.3230  1.9005
  770SOL     OW12518   3.542   2.151   3.229  0.4928  0.4947  0.3721
  770SOL    HW112519   3.506   2.241   3.204 -0.7347  0.0462  0.4901
  770SOL    HW212520   3.515   2.084   3.160 -0.4224 -0.1919  1.3892
  771SOL     OW12521   8.993   4.923   1.448 -0.1442  0.3339 -0.3210
  771SOL    HW112522   9.039   4.929   1.536  0.9518 -1.4283 -0.7673
  771SOL    HW212523   9.014   5.005   1.394  0.9692  0.3908  0.1901
  772SOL     OW12524   5.910   9.752   2.630  0.3706 -0.5049  0.0868
  772SOL    HW112525   5.913   9.692   2.550  1.4620 -0.2076 -0.1011
  772SOL    HW212526   5.999   9.751   2.676  0.3486  0.8011  0.1945
  773SOL     OW12527   3.532   9.531   1.728 -0.0746 -0.5419 -0.1685
  773SOL    HW112528   3.434   9.515   1.729 -0.2127  0.2145 -1.4434
  773SOL    HW212529   3.576   9.463   1.669 -0.0987  0.5757 -1.4877
  774SOL     OW12530   9.135   2.450   3.319  0.3066 -0.1600  0.4467
  774SOL    HW112531   9.133   2.549   3.305  0.9514 -0.0621  1.0931
  774SOL    HW212532   9.204   2.426   3.386 -0.9773 -0.9073  1.5339
  775SOL     OW12533   3.566   4.641   1.206  0.8457 -0.1723  0.9180
  775SOL    HW112534   3.580   4.701   1.128  1.2467 -0.4342  0.7879
  775SOL    HW212535   3.514   4.690   1.277 -0.9680 -0.4662 -0.1712
  776SOL     OW12536   3.029   0.305   0.924  0.0795 -0.7130  0.1408
  776SOL    HW112537   3.066   0.293   0.832 -0.5951  1.2790 -0.4138
  776SOL    HW212538   3.051   0.396   0.958 -1.2252 -0.7750  1.2259
  777SOL     OW12539   1.549   0.237   3.400  0.2024  0.3929  0.2060
  777SOL    HW112540   1.621   0.222   3.468 -0.3749  0.2988  0.8045
  777SOL    HW212541   1.558   0.169   3.327  2.3326  2.0262 -1.1107
  778SOL     OW12542   0.869   1.292   2.891 -0.7977 -0.0908 -0.3186
  778SOL    HW112543   0.808   1.270   2.815 -1.6550  0.7768  0.1094
  778SOL    HW212544   0.958   1.320   2.855 -1.3055  0.6466 -1.0166
  779SOL     OW12545   3.834   2.417   0.765  0.3432 -0.4923 -0.2354
  779SOL    HW112546   3.861   2.366   0.846  0.9949  0.8658  0.4243
  779SOL    HW212547   3.781   2.358   0.704 -0.1570 -1.5111  1.1715
  780SOL     OW12548   3.510   7.972   0.333  0.1875 -0.3378  0.4740
  780SOL    HW112549   3.526   7.877   0.307  1.4045  0.1023 -0.4341
  780SOL    HW212550   3.423   7.979   0.382 -0.6004 -1.6940 -0.6918
  781SOL     OW12551   2.735   4.352   2.806  0.2851 -0.0298  0.4603
  781SOL    HW112552   2.780   4.337   2.894  0.3462  0.0552  0.4433
  781SOL    HW212553   2.735   4.267   2.753 -0.7845 -0.3804  1.0238
  782SOL     OW12554   4.377   1.909   1.362 -0.1190  0.1111 -0.0397
  782SOL    HW112555   4.452   1.904   1.428  0.4320 -0.6637 -0.7318
  782SOL    HW212556   4.306   1.971   1.398  0.8926  0.9456  0.5547
  783SOL     OW12557   0.286   4.186   1.943  0.1366 -0.1577 -0.2064
  783SOL    HW112558   0.319   4.193   1.848 -2.5944  0.8359 -1.1115
  783SOL    HW212559   0.201   4.237   1.953 -0.0595 -0.9616  2.6039
  784SOL     OW12560   1.475   7.145   2.302 -0.4204 -0.1780  0.1560
  784SOL    HW112561   1.437   7.071   2.248  0.4098 -0.4895 -0.0159
  784SOL    HW212562   1.418   7.161   2.383 -1.5625  0.1759 -0.7211
  785SOL     OW12563   2.829   0.373   3.318  0.0955  0.1140  0.0639
  785SOL    HW112564   2.761   0.427   3.368 -0.3501  0.4407 -0.8806
  785SOL    HW212565   2.790   0.284   3.296  0.7459 -0.5228  1.4108
  786SOL     OW12566   0.532   4.740   2.651  0.2306 -0.2044 -0.2441
  786SOL    HW112567   0.603   4.686   2.605  0.0659 -1.6285  1.1190
  786SOL    HW212568   0.561   4.760   2.745 -0.9915 -0.4767  0.2026
  787SOL     OW12569   4.463   8.373   2.961 -0.0089 -0.1794 -0.3010
  787SOL    HW112570   4.533   8.343   2.895  0.2363 -0.5122  0.1098
  787SOL    HW212571   4.433   8.295   3.016 -1.0718 -0.1322 -0.8115
  788SOL     OW12572   2.022   7.303   2.332 -0.0296  0.3127 -0.3917
  788SOL    HW112573   2.071   7.381   2.293  0.3075  0.6625  0.7097
  788SOL    HW212574   1.929   7.330   2.356 -0.6889 -0.2632 -2.1682
  789SOL     OW12575   7.928   0.314   1.379  0.1334  0.1052  0.0079
  789SOL    HW112576   7.875   0.325   1.463  0.2499  1.6943 -0.1165
  789SOL    HW212577   7.990   0.236   1.389 -1.6068 -1.2745  0.4612
  790SOL     OW12578   9.025   3.096   1.807  0.2282  0.5946  0.2117
  790SOL    HW112579   8.971   3.065   1.885  1.7892  0.9023  1.4386
  790SOL    HW212580   8.967   3.148   1.745 -0.5783  2.1743  2.2375
  791SOL     OW12581   1.796   8.883   2.885 -0.3025  0.1039  0.0847
  791SOL    HW112582   1.771   8.971   2.926  1.0217  0.2298  0.6769
  791SOL    HW212583   1.880   8.894   2.831 -0.5862 -0.6240 -0.5127
  792SOL     OW12584   0.696   8.896   3.031 -0.0476  0.1414  0.1888
  792SOL    HW112585   0.658   8.804   3.039  1.9234 -0.6938  0.2626
  792SOL    HW212586   0.711   8.917   2.934  2.6180 -0.9546  0.3343
  793SOL     OW12587   2.812   0.225   1.064  0.6073  0.4112  0.2849
  793SOL    HW112588   2.801   0.126   1.056  0.6129  0.5255 -1.3563
  793SOL    HW212589   2.890   0.255   1.009  1.6548  1.1460  2.0952
  794SOL     OW12590   7.813   2.577   1.213 -0.0751 -0.0725  0.4863
  794SOL    HW112591   7.879   2.637   1.169 -1.0049 -0.4546 -1.4808
  794SOL    HW212592   7.753   2.631   1.272 -0.2751  0.8125 -0.5048
  795SOL     OW12593   8.553   3.251   2.253 -0.1755 -0.7291 -0.5829
  795SOL    HW112594   8.589   3.344   2.251 -3.0403  0.4601  0.7275
  795SOL    HW212595   8.614   3.191   2.202  1.3306  1.9910 -2.1091
  796SOL     OW12596   1.788   3.241   0.221 -0.1083 -0.8173 -0.1323
  796SOL    HW112597   1.697   3.224   0.183 -0.0851 -1.2800  0.0150
  796SOL    HW212598   1.830   3.318   0.174 -1.0436  0.1376  0.5750
  797SOL     OW12599   1.083   5.811   0.016  0.3706  0.0964  0.1228
  797SOL    HW112600   1.137   5.893   0.032  2.0083 -0.6546 -1.3110
  797SOL    HW212601   1.005   5.833  -0.043  0.4053  0.7292  0.3072
  798SOL     OW12602   1.322   4.726   3.360  0.2918  0.8545 -0.2629
  798SOL    HW112603   1.336   4.636   3.318 -1.4234  0.6176 -0.3512
  798SOL    HW212604   1.399   4.747   3.420  0.1104 -1.2383  0.7537
  799SOL     OW12605   1.304   5.424   2.015 -0.0906  0.6345 -0.0324
  799SOL    HW112606   1.208   5.441   2.035 -0.1522 -1.2363  1.5104
  799SOL    HW212607   1.313   5.375   1.928 -0.8500 -2.1017  1.3491
  800SOL     OW12608   9.951   5.244   2.676  0.3104  0.2865 -0.0408
  800SOL    HW112609  10.050   5.233   2.691  0.3813  0.8658 -0.0601
  800SOL    HW212610   9.906   5.155   2.682  0.8183  0.0377  0.0996
  801SOL     OW12611   1.994   6.661   0.535  0.1524 -0.1590  0.3706
  801SOL    HW112612   1.905   6.628   0.568 -0.0741  0.7104  0.6296
  801SOL    HW212613   2.005   6.634   0.440 -0.3465 -0.3593  0.3638
  802SOL     OW12614   3.235   4.280   1.812  0.3284  0.1858  0.3073
  802SOL    HW112615   3.289   4.340   1.753 -0.1560 -0.2759 -0.6159
  802SOL    HW212616   3.222   4.323   1.902  1.6866  0.5638  0.3188
  803SOL     OW12617   3.793   0.417   2.416 -0.5635  0.3866  0.3384
  803SOL    HW112618   3.836   0.338   2.460  1.2739  1.1506 -0.0315
  803SOL    HW212619   3.837   0.500   2.449 -0.3351  1.0613 -1.6348
  804SOL     OW12620   8.735   1.766   3.029 -0.0877  0.6234  0.1804
  804SOL    HW112621   8.718   1.803   2.938 -1.0701 -0.4263 -0.0760
  804SOL    HW212622   8.756   1.668   3.022  3.4114  1.2492  0.7542
  805SOL     OW12623   1.838   2.148   1.656 -0.1790 -0.2091  0.2230
  805SOL    HW112624   1.744   2.181   1.669  0.6787  1.9528  1.2427
  805SOL    HW212625   1.858   2.146   1.558 -1.2095 -0.4817  0.0051
  806SOL     OW12626   1.239   8.595   0.616 -0.2194  0.3669  0.1108
  806SOL    HW112627   1.303   8.534   0.569  0.9022  0.6145  1.3058
  806SOL    HW212628   1.151   8.593   0.568  0.3203 -0.8550 -0.8724
  807SOL     OW12629   3.650   8.556   2.906 -0.1637 -0.1856 -0.1065
  807SOL    HW112630   3.635   8.482   2.841  0.1262  0.8620 -1.3938
  807SOL    HW212631   3.715   8.526   2.977  2.8711 -0.0043 -2.6846
  808SOL     OW12632   1.689   1.208   1.488 -0.0214 -0.1457 -0.0524
  808SOL    HW112633   1.600   1.181   1.452 -0.5073  1.0318  0.2618
  808SOL    HW212634   1.761   1.174   1.427 -0.6169 -2.1467  0.3403
  809SOL     OW12635   8.451   1.638   0.648  0.3051  0.7705 -0.2832
  809SOL    HW112636   8.399   1.626   0.563 -1.4856  1.8681  0.6208
  809SOL    HW212637   8.497   1.552   0.670 -1.5397 -0.4244 -0.8754
  810SOL     OW12638   1.994   8.086   1.583 -0.4115 -0.0730 -0.6752
  810SOL    HW112639   2.023   7.993   1.562  0.2968  0.2302 -1.0372
  810SOL    HW212640   2.000   8.142   1.500 -0.8933  0.2826 -0.4716
  811SOL     OW12641   2.414   4.795   0.646 -0.5124 -0.4297 -0.2836
  811SOL    HW112642   2.387   4.864   0.578 -0.2804 -1.1718 -1.1334
  811SOL    HW212643   2.352   4.717   0.641  0.4749 -1.1981 -0.7727
  812SOL     OW12644   0.317   6.290   0.545 -0.2274  0.4168  0.2146
  812SOL    HW112645   0.370   6.351   0.487  0.3024  0.9397  1.2339
  812SOL    HW212646   0.220   6.312   0.537 -0.3639 -0.8340 -1.9924
  813SOL     OW12647   9.823   2.946   0.096  0.5741  0.0021  0.0203
  813SOL    HW112648   9.906   2.998   0.118  0.5296  1.0875 -2.2342
  813SOL    HW212649   9.779   2.917   0.181  2.5945  0.4770  1.2673
  814SOL     OW12650   4.614   2.643   1.012  0.0082  0.0741 -0.0514
  814SOL    HW112651   4.577   2.623   0.921  0.4505 -0.2899 -0.1506
  814SOL    HW212652   4.670   2.567   1.043  0.7118  0.6387  0.0811
  815SOL     OW12653   9.918   1.628   0.490  0.1326 -0.0113 -0.2899
  815SOL    HW112654   9.906   1.670   0.400 -2.1778  0.3808  0.1475
  815SOL    HW212655   9.971   1.688   0.549  2.3928 -0.6516 -1.6270
  816SOL     OW12656   1.323   3.777   2.463  0.5037  0.2727 -0.0451
  816SOL    HW112657   1.322   3.806   2.367 -0.7165  1.1119  0.2052
  816SOL    HW212658   1.232   3.743   2.487  0.9024 -0.2410  0.7271
  817SOL     OW12659   3.092   6.596   1.788 -0.5444  0.3226 -0.6582
  817SOL    HW112660   3.105   6.695   1.795  0.6678  0.2491 -1.6541
  817SOL    HW212661   3.043   6.574   1.704  0.6757 -0.0245 -1.2970
  818SOL     OW12662   2.059   0.812   0.661  0.1499 -0.0617  0.3857
  818SOL    HW112663   2.064   0.726   0.711 -0.1871 -0.4507 -0.2319
  818SOL    HW212664   1.991   0.871   0.704  2.6235  1.1798  2.7062
  819SOL     OW12665   1.357   4.200   1.171 -0.3345 -0.2460  0.0187
  819SOL    HW112666   1.436   4.207   1.231  1.2907 -0.2810 -2.0615
  819SOL    HW212667   1.307   4.287   1.173  0.8564  0.4635 -0.1158
  820SOL     OW12668   8.273   0.701   0.282  0.1909  0.1350  0.5134
  820SOL    HW112669   8.278   0.615   0.231 -0.6843 -0.3870  1.3039
  820SOL    HW212670   8.250   0.775   0.219 -1.7828 -0.6507  0.2727
  821SOL     OW12671   0.357   3.127   0.623 -0.3348 -0.3094 -0.0682
  821SOL    HW112672   0.330   3.220   0.600  1.1489  0.2030  0.1899
  821SOL    HW212673   0.311   3.062   0.562  1.7074  0.8493 -2.9469
  822SOL     OW12674   0.591   8.525   3.342 -0.4785  0.0588  0.1557
  822SOL    HW112675   0.681   8.539   3.301 -0.5706 -2.0491 -0.8397
  822SOL    HW212676   0.594   8.444   3.401 -1.5162  0.4662  0.7772
  823SOL     OW12677   0.026   7.298   2.651 -0.6604 -0.1481  0.3514
  823SOL    HW112678   0.027   7.397   2.665  1.2418 -0.0843 -0.1499
  823SOL    HW212679   0.039   7.252   2.739  0.2938  0.0895  0.3447
  824SOL     OW12680   3.440   2.435   2.143  0.0070  0.0602  0.0280
  824SOL    HW112681   3.539   2.436   2.158 -0.0264  1.5127  0.2299
  824SOL    HW212682   3.416   2.504   2.073 -1.0459  1.0073  1.2903
  825SOL     OW12683   8.526   2.889   2.577 -0.4366 -0.0278 -0.3233
  825SOL    HW112684   8.564   2.841   2.657 -3.8115 -1.5410  0.4788
  825SOL    HW212685   8.495   2.980   2.605  2.9314  1.4070 -1.0925
  826SOL     OW12686   3.035   4.573   1.128 -0.0716  0.2376 -0.3948
  826SOL    HW112687   3.081   4.523   1.201  1.0396 -0.3892 -1.5118
  826SOL    HW212688   2.938   4.549   1.127  0.0205 -0.1968  0.4903
  827SOL     OW12689   4.271   2.112   0.925  0.4422 -0.0439  0.5859
  827SOL    HW112690   4.275   2.070   0.834  1.8090  1.9499 -0.3023
  827SOL    HW212691   4.181   2.097   0.965  0.2840 -2.1843 -0.4706
  828SOL     OW12692   8.846   4.007   2.939 -0.0661  0.0054  0.4313
  828SOL    HW112693   8.880   4.056   3.019 -1.0182  0.6124  0.4743
  828SOL    HW212694   8.849   3.909   2.957 -0.5981  0.1492  1.3577
  829SOL     OW12695   1.798   5.276   3.121  0.3186 -0.1982 -0.1114
  829SOL    HW112696   1.734   5.218   3.073 -0.7348  1.5771 -0.9106
  829SOL    HW212697   1.842   5.338   3.056  1.4954 -0.1633  0.6975
  830SOL     OW12698   1.505   7.899   2.968 -0.0364  0.3969 -0.0972
  830SOL    HW112699   1.528   7.889   3.065 -0.1361  0.0530 -0.1081
  830SOL    HW212700   1.472   7.992   2.951 -2.7488 -0.3609  0.7563
  831SOL     OW12701   2.506   1.740   2.785 -0.5479 -0.0557 -0.0270
  831SOL    HW112702   2.457   1.682   2.720 -1.5118 -0.3479  0.9506
  831SOL    HW212703   2.445   1.813   2.817  0.8353  1.9224 -1.7350
  832SOL     OW12704   0.178   0.472   3.349 -0.4140  0.2811  0.1162
  832SOL    HW112705   0.122   0.536   3.296 -0.9150 -0.1164  0.1735
  832SOL    HW212706   0.271   0.470   3.310 -0.3721  1.0994  0.1607
  833SOL     OW12707   4.048   4.471   0.309  0.2940 -0.1291  0.1707
  833SOL    HW112708   3.997   4.529   0.372 -0.7238 -1.5287  0.6523
  833SOL    HW212709   4.146   4.487   0.320  0.0022  2.4887 -0.6707
  834SOL     OW12710   3.746   9.861   3.405  0.6750  0.3440 -0.0569
  834SOL    HW112711   3.787   9.890   3.319 -1.3530  0.1309 -1.1185
  834SOL    HW212712   3.658   9.817   3.388  0.3424  0.0742  2.1086
  835SOL     OW12713   7.558   0.605   2.442  0.5398  0.0458  0.0548
  835SOL    HW112714   7.595   0.551   2.519 -1.4980 -0.2839  0.8321
  835SOL    HW212715   7.490   0.551   2.393  2.9109 -0.3034 -2.9670
  836SOL     OW12716   8.664   0.490   2.260  0.3400  0.3773 -0.1343
  836SOL    HW112717   8.707   0.401   2.245  1.3936  0.7864  0.4361
  836SOL    HW212718   8.648   0.535   2.172  1.1852  0.2693 -0.3475
  837SOL     OW12719   2.397   6.422   1.406 -0.3029  0.5692 -0.0054
  837SOL    HW112720   2.463   6.459   1.341  1.1696 -3.9408 -1.2704
  837SOL    HW212721   2.444   6.396   1.490 -0.8679 -0.4805 -0.0031
  838SOL     OW12722   0.225   9.775   2.301 -0.2682  0.1043 -0.0447
  838SOL    HW112723   0.269   9.830   2.230 -0.4136 -0.6959 -0.7647
  838SOL    HW212724   0.153   9.829   2.344  1.4403  1.4475  1.1931
  839SOL     OW12725   4.260   2.520   2.616  0.0837 -0.0006  0.0259
  839SOL    HW112726   4.261   2.482   2.524 -0.1570  1.2043 -0.4795
  839SOL    HW212727   4.349   2.506   2.659  0.0353 -1.0115 -0.1995
  840SOL     OW12728   9.344   2.533   1.810 -1.1721 -0.0782 -0.2044
  840SOL    HW112729   9.431   2.514   1.763 -2.9412 -1.9937 -2.8277
  840SOL    HW212730   9.268   2.512   1.750 -3.5660 -1.8882  3.2597
  841SOL     OW12731   8.749   3.217   0.355 -0.5305  0.0352  0.2286
  841SOL    HW112732   8.656   3.181   0.345 -0.4906 -0.2941  1.0109
  841SOL    HW212733   8.773   3.219   0.452  1.1338 -2.0181 -0.1224
  842SOL     OW12734   2.167   2.462   0.683  0.5979  0.1258 -0.5785
  842SOL    HW112735   2.169   2.449   0.782  1.0757  1.0261 -0.4685
  842SOL    HW212736   2.169   2.373   0.637  0.9641 -0.2673  0.2069
  843SOL     OW12737   9.745   9.339   0.146  0.1359 -0.4986 -0.5895
  843SOL    HW112738   9.654   9.298   0.160  0.2252 -0.1834  0.9503
  843SOL    HW212739   9.814   9.268   0.145  0.0591 -0.5848  0.0090
  844SOL     OW12740   1.319   5.678   2.919  0.4391  0.8964  0.1949
  844SOL    HW112741   1.413   5.707   2.938  1.1349  0.1877 -1.9764
  844SOL    HW212742   1.299   5.694   2.822 -0.7000 -1.5652 -0.0083
  845SOL     OW12743   2.990   3.631   0.873  0.0415 -0.6189  0.7909
  845SOL    HW112744   2.995   3.661   0.968 -0.1470 -0.6473  0.8097
  845SOL    HW212745   2.897   3.642   0.840  0.6030  1.6577 -0.1315
  846SOL     OW12746   0.624   9.415   0.079  0.6756 -1.0181 -0.2457
  846SOL    HW112747   0.604   9.325   0.039 -0.1534 -0.8963 -0.1196
  846SOL    HW212748   0.698   9.405   0.146  0.1907 -1.7314  0.2072
  847SOL     OW12749   1.606   3.671   3.333  0.1341 -0.0157  0.3157
  847SOL    HW112750   1.558   3.614   3.266  0.3164 -0.9303  0.9476
  847SOL    HW212751   1.705   3.659   3.323  0.1614 -0.1727  0.7629
  848SOL     OW12752   0.904   1.778   0.210  0.3508  0.3616  0.2813
  848SOL    HW112753   0.894   1.857   0.270 -0.5787  0.2540  0.2669
  848SOL    HW212754   0.819   1.763   0.160  1.0982  0.4163 -1.0211
  849SOL     OW12755   2.588   4.733   0.082 -0.6765 -0.1108  0.0620
  849SOL    HW112756   2.671   4.772   0.041 -0.4048  0.0138  0.7037
  849SOL    HW212757   2.510   4.792   0.062 -0.5587 -0.0810 -0.3147
  850SOL     OW12758   2.343   9.501   0.700 -0.0562 -0.1351  0.3498
  850SOL    HW112759   2.442   9.509   0.690 -0.0732  0.6602  0.8050
  850SOL    HW212760   2.309   9.574   0.759 -1.0001 -0.0368 -0.3081
  851SOL     OW12761   1.943   3.536   0.808  0.1722 -0.0162 -0.0291
  851SOL    HW112762   1.858   3.519   0.759 -1.9736 -0.2132  3.5997
  851SOL    HW212763   2.004   3.457   0.797 -0.3711 -0.1788 -2.0718
  852SOL     OW12764   8.309   1.848   2.662 -0.6632 -0.0403 -0.3180
  852SOL    HW112765   8.221   1.885   2.631 -0.3166  1.8349  0.8924
  852SOL    HW212766   8.303   1.748   2.667 -2.5737  0.0325 -0.6842
  853SOL     OW12767   2.814   2.864   0.032  0.4147 -0.3268  0.0939
  853SOL    HW112768   2.795   2.904   0.122  3.6330  0.6839  0.3928
  853SOL    HW212769   2.852   2.934  -0.028  0.9511 -1.6759 -1.1695
  854SOL     OW12770   1.074   2.511   3.263  0.0193 -0.1257  0.0938
  854SOL    HW112771   1.165   2.517   3.221 -1.1455 -0.3446 -2.5941
  854SOL    HW212772   1.083   2.479   3.357  2.7870  0.6974  0.1655
  855SOL     OW12773   1.958   3.371   0.432  0.0369 -0.1753  0.1826
  855SOL    HW112774   1.895   3.320   0.373 -0.5610  0.1528  0.5382
  855SOL    HW212775   1.932   3.358   0.528  1.3714 -1.2112  0.4228
  856SOL     OW12776   1.388   7.283   0.846 -0.7765  0.9051 -0.0848
  856SOL    HW112777   1.425   7.349   0.780  0.6196 -0.1536 -0.3759
  856SOL    HW212778   1.316   7.327   0.899 -0.2268  2.5178 -0.6347
  857SOL     OW12779   3.226   7.372   1.030  0.2755  0.2512  0.3325
  857SOL    HW112780   3.148   7.357   1.091 -0.8835  2.2275 -0.5950
  857SOL    HW212781   3.300   7.417   1.080  0.0404  0.1915  0.7330
  858SOL     OW12782   2.339   1.505   0.634 -0.1301 -0.2544  0.4963
  858SOL    HW112783   2.378   1.418   0.663 -1.4654 -0.6376  1.1759
  858SOL    HW212784   2.296   1.494   0.544  2.1255  0.4033 -0.6914
  859SOL     OW12785   2.083   8.535   2.752 -0.0101 -0.6263 -0.0598
  859SOL    HW112786   2.183   8.544   2.756  0.0179  0.4835 -2.3064
  859SOL    HW212787   2.058   8.479   2.673 -1.2253  0.6625 -0.5999
  860SOL     OW12788   7.821   1.034   1.781 -0.1941 -0.2316 -0.1819
  860SOL    HW112789   7.817   0.934   1.784  0.9389 -0.2393  1.2446
  860SOL    HW212790   7.892   1.063   1.717  0.0211 -0.3438  0.0059
  861SOL     OW12791   1.151   7.771   2.533  0.7163 -0.0682 -0.3506
  861SOL    HW112792   1.114   7.773   2.439  2.2674 -0.8210 -0.9945
  861SOL    HW212793   1.236   7.823   2.536  0.1119  0.8446  0.8962
  862SOL     OW12794   1.605   2.290   1.699  0.4062  0.1209  0.4450
  862SOL    HW112795   1.593   2.386   1.722  1.3293 -0.1171  2.0594
  862SOL    HW212796   1.522   2.239   1.724  0.1238  0.4120  0.0953
  863SOL     OW12797   3.308   7.070   0.502 -0.4313  0.2245 -0.3595
  863SOL    HW112798   3.377   7.136   0.533 -2.0687  0.6190  2.6682
  863SOL    HW212799   3.227   7.118   0.471 -0.4553 -0.3011 -1.1250
  864SOL     OW12800   4.092   0.102   2.397  0.4164 -0.0282  0.9769
  864SOL    HW112801   4.019   0.041   2.429 -0.0306  0.1230  0.2747
  864SOL    HW212802   4.141   0.140   2.475  1.0571 -1.7080  1.4157
  865SOL     OW12803   3.155   4.947   1.132  0.1771 -0.5411  0.0372
  865SOL    HW112804   3.192   4.884   1.064 -1.1969  0.5674 -1.7835
  865SOL    HW212805   3.208   5.032   1.131 -0.3693 -0.2031 -0.2515
  866SOL     OW12806   9.927   5.980   2.922  0.7495  0.1239 -0.2347
  866SOL    HW112807   9.934   5.993   3.021 -1.7654  1.2262 -0.1478
  866SOL    HW212808   9.956   5.887   2.899  2.2272  0.1375  1.4068
  867SOL     OW12809   9.852   0.552   1.320  0.6316  0.5044  0.2776
  867SOL    HW112810   9.901   0.613   1.259 -0.7600  2.0768  0.7055
  867SOL    HW212811   9.798   0.605   1.386 -2.1470 -1.1254 -0.5727
  868SOL     OW12812   0.842   4.421   3.194 -0.4521 -0.0036 -0.4298
  868SOL    HW112813   0.766   4.383   3.247  1.0204 -0.6044  1.2989
  868SOL    HW212814   0.844   4.520   3.205 -0.2650 -0.1043  0.5280
  869SOL     OW12815   2.808   1.133   1.495  0.7792 -0.3752  0.4502
  869SOL    HW112816   2.758   1.110   1.411  2.7758  0.3226 -0.9464
  869SOL    HW212817   2.773   1.077   1.570 -2.1538  0.1323 -0.4598
  870SOL     OW12818   8.703   4.472   1.132 -0.0506 -0.3435 -0.2484
  870SOL    HW112819   8.659   4.541   1.190  0.4197 -0.2607  0.0169
  870SOL    HW212820   8.800   4.467   1.155 -0.2911 -1.9172  0.5635
  871SOL     OW12821   9.572   5.042   0.135  0.0163  0.7203 -0.3286
  871SOL    HW112822   9.555   5.032   0.233  2.0812  0.4021  0.0165
  871SOL    HW212823   9.670   5.047   0.119 -0.3866  3.6031 -2.1458
  872SOL     OW12824   0.690   0.443   0.456 -0.0755  0.3810  0.0042
  872SOL    HW112825   0.625   0.513   0.427  0.0894  0.5028 -0.0751
  872SOL    HW212826   0.781   0.466   0.422 -0.0033  0.1741  0.0534
  873SOL     OW12827   4.905   1.029   2.386  0.0663  0.0153 -0.6877
  873SOL    HW112828   4.937   0.993   2.298  0.2203  1.9743 -1.4631
  873SOL    HW212829   4.810   1.061   2.376 -0.7285 -1.8962  0.4905
  874SOL     OW12830   2.224   3.830   2.897 -0.5854  0.1093  0.2390
  874SOL    HW112831   2.135   3.793   2.871 -0.4325 -0.5321  0.6134
  874SOL    HW212832   2.251   3.902   2.833 -2.1020  1.4054  1.0387
  875SOL     OW12833   0.436   1.666   3.226  0.0529  0.0537 -0.4511
  875SOL    HW112834   0.506   1.601   3.195  0.0477 -0.7482  1.1860
  875SOL    HW212835   0.411   1.646   3.320 -0.1935  2.2467 -0.0208
  876SOL     OW12836   2.938   5.309   2.561 -0.5461  0.1476  0.4891
  876SOL    HW112837   2.954   5.393   2.509 -2.5177 -0.3593 -0.9678
  876SOL    HW212838   3.005   5.240   2.533  0.4538  0.9049  0.9788
  877SOL     OW12839   5.296   8.968   2.515  0.0277  0.3430  0.2952
  877SOL    HW112840   5.355   9.038   2.474 -0.6675  1.2677  0.8406
  877SOL    HW212841   5.267   8.903   2.445  0.4587  0.7645 -0.2771
  878SOL     OW12842   9.601   2.706   0.157  0.4125  0.2262 -0.3053
  878SOL    HW112843   9.689   2.671   0.188  0.5390  1.4430  0.7331
  878SOL    HW212844   9.615   2.781   0.093  0.1201  0.8707  0.3905
  879SOL     OW12845   4.273   8.925   2.703  0.3973 -0.5245 -0.0193
  879SOL    HW112846   4.298   8.911   2.608 -2.5782  0.5847 -1.0206
  879SOL    HW212847   4.293   9.020   2.730 -0.9146 -0.1708 -0.2600
  880SOL     OW12848   1.444   3.392   2.613  0.0107 -0.0758  0.1926
  880SOL    HW112849   1.539   3.364   2.630 -0.4857 -1.3305  0.9382
  880SOL    HW212850   1.388   3.368   2.692 -0.6038  2.2850  0.5308
  881SOL     OW12851   1.462   4.157   3.159 -0.0103  0.5307  0.0407
  881SOL    HW112852   1.401   4.082   3.133 -0.2731  1.0563 -0.8745
  881SOL    HW212853   1.423   4.244   3.129  0.9951  0.9078 -0.2011
  882SOL     OW12854   1.929   8.932   1.880 -0.5986 -0.8456 -0.3887
  882SOL    HW112855   2.001   8.883   1.930  0.8567  1.5970 -0.0348
  882SOL    HW212856   1.918   8.890   1.790  0.5165 -1.9337 -0.0355
  883SOL     OW12857   2.504   0.345   3.118  0.0228 -0.6229  0.4343
  883SOL    HW112858   2.531   0.275   3.184 -2.2298 -0.7032  1.3148
  883SOL    HW212859   2.529   0.315   3.026  0.0054 -2.1323  0.9023
  884SOL     OW12860   7.989   1.618   2.166 -0.0410  0.5502 -0.0949
  884SOL    HW112861   8.015   1.715   2.165  0.4023  0.4361  0.0086
  884SOL    HW212862   8.039   1.569   2.094  1.2618  0.0251  1.1412
  885SOL     OW12863   9.261   0.165   1.463 -0.4934  0.1713  0.5056
  885SOL    HW112864   9.319   0.087   1.485  0.7885  0.8860 -0.2993
  885SOL    HW212865   9.191   0.176   1.534 -2.6496 -3.5495 -0.8772
  886SOL     OW12866   2.248   1.132   2.175 -0.2107 -0.2971 -0.1972
  886SOL    HW112867   2.183   1.061   2.149 -1.0350  0.4083 -0.0678
  886SOL    HW212868   2.341   1.102   2.153 -0.3615 -2.2299  1.6716
  887SOL     OW12869   3.314   7.647   2.389 -0.6224  0.1781  0.4079
  887SOL    HW112870   3.289   7.743   2.378 -0.1152  0.3584  0.7995
  887SOL    HW212871   3.390   7.626   2.327  0.8762  0.6626  2.0234
  888SOL     OW12872   2.700   3.328   2.915 -0.2372 -0.1181  0.5348
  888SOL    HW112873   2.623   3.347   2.976 -3.1261  2.3449 -3.5914
  888SOL    HW212874   2.766   3.402   2.921  0.5740 -0.9409  2.1581
  889SOL     OW12875   1.410   9.551   2.633  0.8776  0.3948 -0.7024
  889SOL    HW112876   1.310   9.541   2.635  0.8659  0.5874 -0.1328
  889SOL    HW212877   1.449   9.485   2.569  0.5252 -0.9330  0.4054
  890SOL     OW12878   0.132   9.863   2.961 -0.5652 -0.3617  0.3389
  890SOL    HW112879   0.152   9.843   2.865 -1.2612 -1.0429  0.3303
  890SOL    HW212880   0.123   9.962   2.974 -0.6095 -0.2772 -0.3257
  891SOL     OW12881   8.486   1.843   0.464  0.2111 -0.3941 -0.0092
  891SOL    HW112882   8.514   1.775   0.532 -0.5765 -0.4643  0.2490
  891SOL    HW212883   8.466   1.930   0.509  0.0405 -0.3366 -0.1919
  892SOL     OW12884   3.630   4.224   2.716 -0.1555  0.0271 -0.0162
  892SOL    HW112885   3.694   4.297   2.694 -0.1488  0.0880  0.2050
  892SOL    HW212886   3.553   4.225   2.652  0.3018 -0.3420 -0.5773
  893SOL     OW12887   2.510   9.490   2.077  0.1468  0.2375 -0.0063
  893SOL    HW112888   2.440   9.462   2.011 -0.7101  2.6909 -0.2147
  893SOL    HW212889   2.573   9.414   2.094 -2.1512 -1.7872 -0.3545
  894SOL     OW12890   5.631   8.927   1.701 -0.7667  0.1495 -0.9917
  894SOL    HW112891   5.729   8.922   1.720 -0.5133  2.2665 -1.5564
  894SOL    HW212892   5.602   8.846   1.652  0.0888 -1.9182  1.8062
  895SOL     OW12893   0.910   0.304   2.027  0.2592 -0.5073  0.2432
  895SOL    HW112894   0.838   0.319   2.095  0.0836  0.2975 -0.1175
  895SOL    HW212895   0.973   0.382   2.027 -1.5600  1.0425 -2.7664
  896SOL     OW12896   9.785   3.301   0.074 -0.6806  0.2935  0.0066
  896SOL    HW112897   9.719   3.252   0.132  1.1934 -0.6390  1.4064
  896SOL    HW212898   9.838   3.235   0.021 -0.6656  1.0297 -0.9098
  897SOL     OW12899   2.328   7.794   2.866  0.3926  0.4318  0.1541
  897SOL    HW112900   2.353   7.748   2.781 -1.6350  1.1133 -0.8588
  897SOL    HW212901   2.322   7.893   2.850 -2.4073  0.3407  0.4485
  898SOL     OW12902   9.615   3.727   2.690  0.1110  0.0231 -0.7841
  898SOL    HW112903   9.640   3.687   2.778  0.1975  1.2790 -0.2378
  898SOL    HW212904   9.656   3.673   2.617  1.8308  0.2444  0.0108
  899SOL     OW12905   0.076   6.298   0.187  0.4982  0.0790 -0.1746
  899SOL    HW112906  -0.004   6.312   0.246 -0.2537 -0.4570 -1.0561
  899SOL    HW212907   0.157   6.337   0.232  0.1514 -1.2672  1.7011
  900SOL     OW12908   2.161   4.304   0.058  0.0844 -0.6800 -0.1961
  900SOL    HW112909   2.126   4.237   0.124  2.7206 -2.1495 -0.2318
  900SOL    HW212910   2.180   4.258  -0.029 -0.4656  0.6440 -1.0384
  901SOL     OW12911   3.484   0.949   0.715  0.0574  0.4511 -0.6461
  901SOL    HW112912   3.552   1.021   0.728 -0.4013  0.5371  1.3543
  901SOL    HW212913   3.428   0.939   0.797  0.3179 -2.3867 -0.7370
  902SOL     OW12914   0.121   5.398   2.371  0.0341 -0.4208 -0.6462
  902SOL    HW112915   0.060   5.424   2.446  0.1510 -1.8382 -0.0392
  902SOL    HW212916   0.106   5.458   2.293 -1.6940 -0.3700 -0.2850
  903SOL     OW12917   3.744   0.620   0.429  0.4564 -0.6236  0.0290
  903SOL    HW112918   3.678   0.611   0.355  1.4986 -0.8550 -0.8795
  903SOL    HW212919   3.824   0.669   0.396  0.6367 -0.1271  1.1944
  904SOL     OW12920   2.032   7.108   1.065 -0.8982  0.1551  1.0741
  904SOL    HW112921   2.086   7.169   1.006 -2.9510  1.9018  0.9760
  904SOL    HW212922   2.036   7.015   1.028  1.8170  0.2903  0.9209
  905SOL     OW12923   3.419   6.042   0.175 -0.5983  0.1743  0.4325
  905SOL    HW112924   3.349   5.991   0.225 -1.6125  0.2704 -0.8739
  905SOL    HW212925   3.498   5.983   0.157 -1.5847 -0.7947 -0.6946
  906SOL     OW12926   9.749   2.972   2.780  0.5223  0.1529 -0.0171
  906SOL    HW112927   9.782   2.986   2.686 -0.0054  0.0803 -0.2113
  906SOL    HW212928   9.823   2.995   2.844  1.0813 -0.3829 -0.4630
  907SOL     OW12929   1.781   0.909   0.158 -0.3023  0.4919  0.8831
  907SOL    HW112930   1.873   0.906   0.197  1.0499 -0.9597 -2.2533
  907SOL    HW212931   1.753   1.005   0.147  1.9940  1.0263 -0.6474
  908SOL     OW12932   9.967   0.702   1.727 -0.5927 -0.1799 -0.1672
  908SOL    HW112933  10.024   0.739   1.800  0.4182 -1.0879 -0.4659
  908SOL    HW212934   9.992   0.745   1.640 -0.2945 -0.6300 -0.3099
  909SOL     OW12935   0.123   8.945   2.631 -0.0755  0.1825 -0.6610
  909SOL    HW112936   0.137   8.885   2.709  0.0966 -0.4526 -1.1740
  909SOL    HW212937   0.184   9.024   2.637  0.9557 -0.5911 -0.8851
  910SOL     OW12938   9.142   1.683   2.014 -0.2888 -0.7095  0.1725
  910SOL    HW112939   9.201   1.602   2.007 -1.9504 -1.9867  0.6284
  910SOL    HW212940   9.193   1.764   1.986  0.8701 -2.1675 -2.0601
  911SOL     OW12941   4.203   1.045   1.477  0.0726 -0.1691 -0.2062
  911SOL    HW112942   4.266   0.974   1.444 -0.9503 -0.7660 -0.9181
  911SOL    HW212943   4.109   1.011   1.472 -0.6183  1.9180 -2.4071
  912SOL     OW12944   2.556   7.070   0.450  0.2186  0.3554  0.6625
  912SOL    HW112945   2.498   7.033   0.523  1.2582 -2.1393  0.2771
  912SOL    HW212946   2.499   7.116   0.382 -0.9145  1.2074  2.1589
  913SOL     OW12947   1.269   7.183   2.839  0.6404  0.5672 -0.0234
  913SOL    HW112948   1.335   7.193   2.914  3.3473 -1.6326 -1.9928
  913SOL    HW212949   1.211   7.104   2.855 -0.6886  1.7552  1.0937
  914SOL     OW12950   3.146   2.280   0.563 -0.0601  0.0814 -0.4114
  914SOL    HW112951   3.143   2.220   0.643  0.8978  1.3209  0.5654
  914SOL    HW212952   3.126   2.227   0.481  1.5934 -1.7362  0.3432
  915SOL     OW12953   2.639   5.360   1.052 -0.1490 -0.2240 -0.6564
  915SOL    HW112954   2.734   5.390   1.065  0.3086 -1.2824 -1.4707
  915SOL    HW212955   2.577   5.434   1.078  0.8632 -0.0275  1.3203
  916SOL     OW12956   1.466   3.714   0.135 -0.5970 -0.1923  0.3090
  916SOL    HW112957   1.522   3.714   0.052 -0.1614 -0.9622  0.6012
  916SOL    HW212958   1.409   3.796   0.136 -0.7190 -0.2516 -0.8298
  917SOL     OW12959   3.377   0.774   0.133  0.0282  0.2844 -0.4509
  917SOL    HW112960   3.340   0.715   0.060 -0.5898  2.4714 -1.9552
  917SOL    HW212961   3.302   0.827   0.174  0.2074 -1.6847  2.5487
  918SOL     OW12962   2.534   5.119   1.720  0.0234 -0.0654  0.0493
  918SOL    HW112963   2.461   5.126   1.652  0.5984 -0.8402 -0.6597
  918SOL    HW212964   2.496   5.129   1.812 -0.7642  0.9415 -0.3801
  919SOL     OW12965   2.958   8.287   1.373  0.4114  0.0963  0.7299
  919SOL    HW112966   2.999   8.371   1.336 -1.0556 -0.0498 -1.3035
  919SOL    HW212967   2.862   8.304   1.394  0.3996 -0.7817  1.3970
  920SOL     OW12968   3.001   2.492   1.512 -0.7040  0.1827  0.5839
  920SOL    HW112969   3.096   2.464   1.506 -1.4519 -2.5999  0.9703
  920SOL    HW212970   2.971   2.492   1.607 -1.1279  0.9944  0.4622
  921SOL     OW12971   4.326   0.197   2.054 -0.0510  0.3103  0.0157
  921SOL    HW112972   4.366   0.257   1.984 -2.2546  1.3236 -0.4158
  921SOL    HW212973   4.371   0.215   2.141  1.3189  0.5063 -0.7109
  922SOL     OW12974   1.515   0.577   0.310  0.1077 -0.0702 -0.0032
  922SOL    HW112975   1.549   0.488   0.280 -0.2945  0.3829 -1.8752
  922SOL    HW212976   1.428   0.565   0.358 -0.7919 -0.5516 -1.7129
  923SOL     OW12977   0.754   4.083   2.315 -0.2480 -0.2172  0.4870
  923SOL    HW112978   0.680   4.039   2.265  0.4440 -2.9646  1.7594
  923SOL    HW212979   0.737   4.076   2.414  1.6822 -0.8678  0.7939
  924SOL     OW12980   4.338   3.489   0.770  0.1922 -0.4412 -0.1284
  924SOL    HW112981   4.264   3.444   0.820 -0.7357  0.5785 -0.5818
  924SOL    HW212982   4.345   3.451   0.678 -0.7549  0.5136 -0.5962
  925SOL     OW12983   1.215   1.473   1.298  0.5285  0.2762 -0.0003
  925SOL    HW112984   1.208   1.557   1.244 -1.4711 -0.4991 -0.9976
  925SOL    HW212985   1.178   1.489   1.390 -0.3388  0.3523 -0.3598
  926SOL     OW12986   0.495   8.543   1.330  0.2397 -0.1396 -0.0810
  926SOL    HW112987   0.414   8.601   1.330  0.9217  0.8161 -0.0245
  926SOL    HW212988   0.575   8.596   1.301  0.6324 -1.3933 -1.3542
  927SOL     OW12989   3.617   3.452   2.895  0.3018  0.1738 -0.1752
  927SOL    HW112990   3.684   3.524   2.911  1.6184 -0.7331 -1.5068
  927SOL    HW212991   3.642   3.400   2.813 -1.2998 -1.0242  0.0639
  928SOL     OW12992   3.698   8.514   1.108 -0.2451  0.5100  0.9826
  928SOL    HW112993   3.753   8.551   1.183 -2.4790  0.2030  2.8261
  928SOL    HW212994   3.664   8.424   1.134  0.4378 -0.3920 -1.1644
  929SOL     OW12995   1.859   0.459   0.198  0.4435  0.5249  0.1391
  929SOL    HW112996   1.840   0.362   0.215 -1.2140  0.7702 -0.2412
  929SOL    HW212997   1.907   0.497   0.277  1.1640 -0.6175  0.2680
  930SOL     OW12998   2.897   3.208   2.030 -0.3827 -0.0428  0.2341
  930SOL    HW112999   2.923   3.116   2.060 -0.4560 -0.1897 -0.1433
  930SOL    HW213000   2.866   3.204   1.935  0.8972  0.5892 -0.2285
  931SOL     OW13001   1.590   4.791   0.727 -0.2489 -0.3185  0.1771
  931SOL    HW113002   1.499   4.803   0.767 -0.2461  1.6490 -0.3592
  931SOL    HW213003   1.591   4.709   0.670 -0.6390 -2.3845  3.0652
  932SOL     OW13004   0.941   3.250   2.022  0.2979  0.2748  0.2300
  932SOL    HW113005   0.881   3.241   2.101  2.2660 -2.2299  1.5057
  932SOL    HW213006   0.900   3.203   1.944 -0.3338  0.3504  0.5117
  933SOL     OW13007   9.406   3.412   0.291 -0.1074  0.4348 -0.4504
  933SOL    HW113008   9.326   3.369   0.333 -0.5161  1.8566  0.2493
  933SOL    HW213009   9.382   3.448   0.201  0.0520 -0.1281 -0.7252
  934SOL     OW13010   3.248   5.676   2.142 -0.3461  0.1529 -0.0955
  934SOL    HW113011   3.320   5.650   2.078 -1.1111 -1.5223 -0.3027
  934SOL    HW213012   3.282   5.668   2.236 -0.2344 -0.6088 -0.1940
  935SOL     OW13013   9.979   0.449   0.089  0.2390 -0.0023 -0.1013
  935SOL    HW113014  10.061   0.460   0.034  0.2944  0.2399  0.0269
  935SOL    HW213015   9.899   0.442   0.030  0.2105  1.0411 -0.1882
  936SOL     OW13016   9.869   4.834   2.972 -0.0720 -0.4247 -0.7785
  936SOL    HW113017   9.805   4.798   3.041  0.7831 -2.0139 -0.7854
  936SOL    HW213018   9.948   4.773   2.966  1.0488  1.0772 -1.3765
  937SOL     OW13019   9.983   3.548   1.112  0.1879 -0.7608  0.2477
  937SOL    HW113020   9.890   3.578   1.130  0.5282 -1.3210  3.1279
  937SOL    HW213021  10.031   3.533   1.198  2.6592 -1.4028 -1.1796
  938SOL     OW13022   9.810   2.502   1.353  0.8234 -0.4030  0.3829
  938SOL    HW113023   9.871   2.572   1.390  0.2909  0.7168 -0.8363
  938SOL    HW213024   9.716   2.521   1.382 -0.0027  1.8845 -3.3917
  939SOL     OW13025   0.692   6.826   1.650 -0.0675 -0.0431 -0.8043
  939SOL    HW113026   0.637   6.776   1.718  0.9950 -1.8784 -1.2530
  939SOL    HW213027   0.779   6.852   1.691  0.4299 -0.8412 -1.3350
  940SOL     OW13028   3.660   9.268   0.988 -0.1270  0.1919  0.2477
  940SOL    HW113029   3.619   9.327   0.918 -0.9724  0.8769  1.3039
  940SOL    HW213030   3.590   9.244   1.055  0.3208 -1.6787  0.0519
  941SOL     OW13031   2.454   7.818   3.122  0.4476 -0.2974 -0.2117
  941SOL    HW113032   2.417   7.744   3.178  0.7830  0.8056  1.4871
  941SOL    HW213033   2.409   7.818   3.033  1.4318 -3.4549 -0.7995
  942SOL     OW13034   8.659   2.053   1.293 -0.2630  0.2092  0.3042
  942SOL    HW113035   8.613   2.105   1.365  0.8663 -1.0602  1.9888
  942SOL    HW213036   8.757   2.075   1.293 -0.4480  1.1359 -1.6985
  943SOL     OW13037   2.450   3.194   3.102  0.7794  0.2059  0.4350
  943SOL    HW113038   2.399   3.191   3.188  2.6605 -0.3085  1.5703
  943SOL    HW213039   2.509   3.275   3.101 -0.1779  0.9092 -0.9471
  944SOL     OW13040   9.068   3.229   0.670  0.1976 -0.0378 -0.0524
  944SOL    HW113041   9.087   3.300   0.739  1.3723 -0.0741 -0.3323
  944SOL    HW213042   8.969   3.221   0.658 -0.0505 -0.2140  1.8294
  945SOL     OW13043   1.479   9.443   3.176 -0.3591  0.0705  0.2604
  945SOL    HW113044   1.404   9.387   3.140 -0.5422  1.2139 -1.1732
  945SOL    HW213045   1.442   9.515   3.234 -0.2689 -0.1245  0.5612
  946SOL     OW13046   9.920   1.207   2.598  0.6662  0.6263 -0.0199
  946SOL    HW113047   9.965   1.231   2.684  0.3237  0.4431  0.2122
  946SOL    HW213048   9.962   1.124   2.561 -2.1292 -1.9623  2.2872
  947SOL     OW13049   1.171   0.417   0.744 -0.0537  0.1198 -0.3445
  947SOL    HW113050   1.246   0.357   0.717 -0.7345 -0.9909  0.1834
  947SOL    HW213051   1.169   0.498   0.684  2.3064  0.7775  0.4366
  948SOL     OW13052   3.713   4.416   1.159 -0.2830 -0.1017 -0.1175
  948SOL    HW113053   3.660   4.492   1.196 -1.6648 -0.9960 -0.2155
  948SOL    HW213054   3.732   4.433   1.063 -0.8383 -0.0023 -0.2145
  949SOL     OW13055   1.419   5.348   2.910  0.0727  0.5429  0.1978
  949SOL    HW113056   1.378   5.363   2.820  1.3593 -3.1944 -1.0887
  949SOL    HW213057   1.515   5.377   2.908  0.2045  0.1132  0.2434
  950SOL     OW13058   3.695   1.234   0.135 -0.5971 -0.0942  0.4639
  950SOL    HW113059   3.789   1.215   0.163 -0.1663  0.2792 -0.6806
  950SOL    HW213060   3.694   1.313   0.073 -1.8805  1.0111  1.8636
  951SOL     OW13061   8.467   3.587   2.622  0.6472  0.6467 -0.1245
  951SOL    HW113062   8.402   3.517   2.650  2.8074 -1.2369  0.3396
  951SOL    HW213063   8.431   3.636   2.542 -1.1267 -0.6360 -0.1445
  952SOL     OW13064   0.835   5.406   0.697 -0.0921 -0.0093 -0.4938
  952SOL    HW113065   0.789   5.371   0.615  1.4921 -2.6995 -0.2606
  952SOL    HW213066   0.785   5.376   0.778  1.0917 -1.5271 -0.3068
  953SOL     OW13067   3.223   7.752   1.656 -0.8242  0.0965  0.2151
  953SOL    HW113068   3.188   7.811   1.728 -2.6027  1.3070 -1.5859
  953SOL    HW213069   3.224   7.802   1.569 -0.7941 -1.9898 -1.0288
  954SOL     OW13070   1.376   2.197   3.322 -0.4623 -0.2573 -0.0705
  954SOL    HW113071   1.378   2.242   3.233  1.5371  0.0938  0.1365
  954SOL    HW213072   1.389   2.265   3.394  0.3661 -0.8686  0.3647
  955SOL     OW13073   2.643   6.143   3.086  0.2529  0.5897  0.6548
  955SOL    HW113074   2.655   6.046   3.067 -1.0315  0.2250  1.6890
  955SOL    HW213075   2.722   6.177   3.138 -0.9653 -0.7482  3.4396
  956SOL     OW13076   9.187   4.174   1.316 -0.8702  0.9481 -0.4097
  956SOL    HW113077   9.218   4.161   1.222 -0.8839 -0.6810 -0.2040
  956SOL    HW213078   9.240   4.115   1.377 -2.1649  0.5596  0.3539
  957SOL     OW13079   1.062   8.254   2.628 -0.0987  0.3947 -0.0880
  957SOL    HW113080   1.039   8.239   2.532  0.7295 -0.6929 -0.1367
  957SOL    HW213081   1.153   8.296   2.635  1.0476 -2.0536  0.2644
  958SOL     OW13082   0.303   9.680   1.335  0.3453  0.3722  0.8469
  958SOL    HW113083   0.340   9.591   1.360 -0.2569 -0.1199  0.0348
  958SOL    HW213084   0.288   9.683   1.236 -0.0680  1.2066  0.9316
  959SOL     OW13085   1.237   1.780   2.660  0.4183 -0.3828 -0.0535
  959SOL    HW113086   1.270   1.834   2.582  0.2504  0.3844  0.4087
  959SOL    HW213087   1.257   1.828   2.745 -2.3027  0.3365  0.2328
  960SOL     OW13088   0.906   3.159   0.731 -0.6451  0.8528  0.4544
  960SOL    HW113089   0.841   3.177   0.657 -0.6774  0.0850  0.2907
  960SOL    HW213090   0.955   3.243   0.754  0.6971  0.6882 -1.7043
  961SOL     OW13091   2.215   9.313   0.879  0.7271 -0.8946  0.5174
  961SOL    HW113092   2.244   9.302   0.974 -1.6156  0.1556  1.3961
  961SOL    HW213093   2.263   9.390   0.838 -0.3358  0.4427  1.7485
  962SOL     OW13094   3.538   7.261   0.850  0.7100 -0.4170 -0.2700
  962SOL    HW113095   3.555   7.343   0.904 -0.3794  0.6599 -1.5226
  962SOL    HW213096   3.624   7.215   0.830  1.5309  1.4538 -1.1500
  963SOL     OW13097   1.339   0.044   0.695 -0.1317  0.3034  0.6542
  963SOL    HW113098   1.241   0.045   0.711 -0.2511  0.0075 -0.0474
  963SOL    HW213099   1.382   0.120   0.744 -0.6306  0.0704  1.4605
  964SOL     OW13100   0.647   4.145   1.972  0.0991 -0.3621 -0.2167
  964SOL    HW113101   0.658   4.221   2.036 -1.1380 -0.6564  0.3702
  964SOL    HW213102   0.713   4.153   1.898 -0.1906  1.4337 -0.2916
  965SOL     OW13103   4.476   0.530   2.273  0.1837 -0.0434  0.2288
  965SOL    HW113104   4.437   0.441   2.298 -0.5086  0.4914  1.0753
  965SOL    HW213105   4.425   0.568   2.196 -0.7068  0.4674  1.0700
  966SOL     OW13106   1.334   6.081   1.531 -0.1880  0.2304  0.5359
  966SOL    HW113107   1.367   6.146   1.463  1.3950 -0.5737  0.4986
  966SOL    HW213108   1.300   5.999   1.486  0.3816 -0.0897  0.6744
  967SOL     OW13109   1.327   4.075   2.305 -0.0795 -0.0561 -0.5263
  967SOL    HW113110   1.408   4.086   2.363  0.8820  0.7876 -1.9949
  967SOL    HW213111   1.348   4.014   2.229 -1.2905 -1.0570 -0.0676
  968SOL     OW13112   8.148   4.327   0.934 -0.0036 -0.0717 -0.1314
  968SOL    HW113113   8.223   4.363   0.989  3.0949  0.5013 -4.4536
  968SOL    HW213114   8.175   4.238   0.896 -1.1749  0.4649 -2.2908
  969SOL     OW13115   1.045   2.387   0.097  0.7150 -0.3135 -0.5970
  969SOL    HW113116   1.056   2.300   0.051  1.7584 -0.2812 -0.4257
  969SOL    HW213117   0.957   2.390   0.143  0.9966 -1.5914  0.0498
  970SOL     OW13118   3.712   0.843   1.341  0.4546  0.0371  0.0678
  970SOL    HW113119   3.797   0.852   1.393  1.2463 -0.8040 -1.0520
  970SOL    HW213120   3.717   0.901   1.259 -0.2240  0.2868  0.1955
  971SOL     OW13121   8.859   3.772   3.338  0.3801 -0.0769  0.2236
  971SOL    HW113122   8.818   3.703   3.397  0.5221 -0.1277  0.2652
  971SOL    HW213123   8.790   3.839   3.311  0.9386  1.6002  2.8252
  972SOL     OW13124   8.877   1.514   3.009 -0.4879 -0.2351 -0.2845
  972SOL    HW113125   8.960   1.501   3.064 -0.7993 -0.5797  0.0984
  972SOL    HW213126   8.807   1.450   3.038 -1.1138  0.4883 -0.1684
  973SOL     OW13127   2.745   4.008   2.445 -0.1246  0.8611  0.4610
  973SOL    HW113128   2.664   3.981   2.393 -0.2001  1.7238  0.1259
  973SOL    HW213129   2.827   3.980   2.395 -0.2133 -0.8194  1.2321
  974SOL     OW13130   4.406   9.119   0.879  0.2464 -0.0460 -0.0016
  974SOL    HW113131   4.329   9.135   0.941 -0.0503 -1.3650 -0.0265
  974SOL    HW213132   4.400   9.027   0.841  1.0260  0.3731 -1.1565
  975SOL     OW13133   8.987   1.465   2.468 -0.1423  0.4005  0.6936
  975SOL    HW113134   8.968   1.379   2.517 -0.4341 -0.2862 -0.5912
  975SOL    HW213135   8.931   1.538   2.508  0.8803  0.2456  2.4845
  976SOL     OW13136   0.209   4.652   1.008  0.0438  0.0591 -0.4276
  976SOL    HW113137   0.131   4.590   1.008 -0.4055  0.6301 -0.2602
  976SOL    HW213138   0.240   4.668   1.101  1.4837 -1.5757 -0.5937
  977SOL     OW13139   8.349   1.548   2.754  0.0181 -0.3116  0.1196
  977SOL    HW113140   8.395   1.492   2.823 -0.8935  0.1499  1.1170
  977SOL    HW213141   8.253   1.521   2.748  0.0716 -0.3029 -0.9396
  978SOL     OW13142   2.554   8.618   2.493  0.6458 -0.3529 -0.5168
  978SOL    HW113143   2.506   8.566   2.423  1.1723  1.5575 -2.3834
  978SOL    HW213144   2.508   8.706   2.506  2.9098  1.0328 -1.5262
  979SOL     OW13145   1.890   3.724   3.286 -0.1152  0.0707  0.0549
  979SOL    HW113146   1.988   3.717   3.268 -0.3126 -0.3927 -0.9049
  979SOL    HW213147   1.849   3.785   3.218 -0.5944 -0.2610  0.0479
  980SOL     OW13148   9.118   0.890   2.567 -0.0704 -0.1483 -0.3174
  980SOL    HW113149   9.019   0.898   2.579 -0.0233  0.2664 -0.1804
  980SOL    HW213150   9.162   0.975   2.597  0.4651 -0.9346  1.1935
  981SOL     OW13151   0.447   0.063   3.208  0.5348  0.0316  0.1688
  981SOL    HW113152   0.423   0.033   3.116  0.2120  1.7585 -0.3284
  981SOL    HW213153   0.530   0.119   3.205  1.5061 -1.3104  1.1642
  982SOL     OW13154   2.806   1.506   2.272 -0.1183  0.3027  0.2131
  982SOL    HW113155   2.770   1.507   2.365  1.4475  1.2849  0.8410
  982SOL    HW213156   2.888   1.564   2.268  0.1556 -0.1861 -1.6438
  983SOL     OW13157   2.511   6.048   1.668 -0.1144 -0.0838 -0.2916
  983SOL    HW113158   2.604   6.046   1.705 -0.8919  1.1926  1.8175
  983SOL    HW213159   2.503   5.983   1.593  1.7120 -2.2742  1.3517
  984SOL     OW13160   1.870   3.399   0.016  0.3152 -0.4465  0.1387
  984SOL    HW113161   1.826   3.385  -0.073  0.8453  1.1814 -0.3864
  984SOL    HW213162   1.962   3.436   0.002  0.2069  0.2921  1.3741
  985SOL     OW13163   9.219   4.841   2.600 -0.3352  0.2293  0.2085
  985SOL    HW113164   9.167   4.756   2.613 -4.0377  2.4804  0.8899
  985SOL    HW213165   9.300   4.839   2.658 -0.0169 -3.0771 -0.2524
  986SOL     OW13166   1.157   5.312   0.794  0.5059  0.4417  0.0454
  986SOL    HW113167   1.255   5.328   0.804  0.4872 -0.0346  1.0319
  986SOL    HW213168   1.135   5.297   0.698  1.6729 -1.1996  0.0228
  987SOL     OW13169   2.064   3.315   3.041  0.5848  0.0589  0.2145
  987SOL    HW113170   1.971   3.331   3.074  1.3563  2.8721  1.1326
  987SOL    HW213171   2.125   3.303   3.119  1.3126  0.0325 -0.3573
  988SOL     OW13172   3.513   2.213   0.113 -0.2612  0.1139 -0.4873
  988SOL    HW113173   3.491   2.305   0.146 -1.1153  0.6715 -2.5307
  988SOL    HW213174   3.497   2.208   0.014 -0.6624 -2.3571 -0.3381
  989SOL     OW13175   3.026   8.706   1.659 -0.2537  0.3531  0.0948
  989SOL    HW113176   3.021   8.793   1.709 -0.5223  0.3988 -0.0100
  989SOL    HW213177   3.005   8.631   1.721 -0.6065  0.4121  0.0528
  990SOL     OW13178   7.370   1.799   0.679 -0.4529  0.1541  0.3179
  990SOL    HW113179   7.348   1.855   0.599 -0.9692 -1.9823 -1.0912
  990SOL    HW213180   7.343   1.846   0.762 -0.1273  2.3196 -0.7807
  991SOL     OW13181   6.197   9.408   2.682 -0.3862 -0.4101 -0.1886
  991SOL    HW113182   6.164   9.317   2.655 -0.6853 -0.3818  0.0770
  991SOL    HW213183   6.192   9.470   2.604 -1.5518 -0.2441  0.0146
  992SOL     OW13184   9.648   0.904   2.175  0.1071  0.5549 -0.7870
  992SOL    HW113185   9.617   0.922   2.269  1.0822  0.5604 -0.4559
  992SOL    HW213186   9.731   0.957   2.157  1.3997 -1.3783 -0.7562
  993SOL     OW13187   9.905   0.059   1.777 -0.5798  0.3683 -0.1009
  993SOL    HW113188   9.861   0.137   1.821 -0.3644  1.2187 -1.3616
  993SOL    HW213189   9.857  -0.025   1.802 -1.6378  1.0488  0.2086
  994SOL     OW13190   8.310   2.138   1.510 -0.0344  0.4647 -0.5949
  994SOL    HW113191   8.219   2.116   1.545  0.6601  2.5091  2.7558
  994SOL    HW213192   8.375   2.068   1.541  0.1273  0.9082  0.0917
  995SOL     OW13193   0.911   2.293   0.799 -0.3170 -0.4820 -0.1107
  995SOL    HW113194   0.847   2.334   0.864  0.0419 -0.5244  0.2701
  995SOL    HW213195   1.004   2.306   0.832 -0.0789  0.3352 -1.0985
  996SOL     OW13196   8.274   1.481   0.417  0.2893  0.1574 -0.3180
  996SOL    HW113197   8.334   1.524   0.349  2.0371  1.6882  2.1301
  996SOL    HW213198   8.324   1.409   0.465 -1.3956 -1.9313 -1.5866
  997SOL     OW13199   3.024   8.510   0.577 -0.4967  0.2556  0.4337
  997SOL    HW113200   3.100   8.454   0.543 -0.4979  0.7842 -0.4516
  997SOL    HW213201   2.987   8.468   0.660  0.4016 -0.3050  0.5620
  998SOL     OW13202   2.444   0.076   3.320  0.4908 -0.1857  0.7996
  998SOL    HW113203   2.389   0.090   3.238 -1.4920 -1.8949  1.7877
  998SOL    HW213204   2.457  -0.022   3.335  0.4149  0.0966  2.7920
  999SOL     OW13205   2.205   2.429   1.983  0.4738  0.4531  0.7573
  999SOL    HW113206   2.213   2.331   2.003  0.8051  0.2243 -0.4663
  999SOL    HW213207   2.222   2.481   2.067  2.5014 -0.4606  0.9556
 1000SOL     OW13208   9.969   0.873   1.506 -0.0062  0.1869 -0.5899
 1000SOL    HW113209   9.921   0.931   1.572 -0.1103 -0.0866 -0.4241
 1000SOL    HW213210   9.941   0.898   1.413 -0.8687 -0.3215 -0.4766
 1001SOL     OW13211   2.145   1.800   1.008  0.4640  0.4330 -0.2556
 1001SOL    HW113212   2.227   1.761   1.050 -1.1995 -1.8103  1.0476
 1001SOL    HW213213   2.131   1.760   0.917  0.1411 -0.1866  0.0562
 1002SOL     OW13214   8.574   2.317   1.430  0.4603 -0.6964 -0.4334
 1002SOL    HW113215   8.585   2.408   1.471 -1.2108 -1.2388  1.3148
 1002SOL    HW213216   8.515   2.324   1.349 -2.0974 -0.5699  1.3623
 1003SOL     OW13217   2.645   9.640   0.425  0.3535  0.5253  0.0986
 1003SOL    HW113218   2.640   9.600   0.516  1.6064 -1.2847 -0.5795
 1003SOL    HW213219   2.567   9.609   0.370  0.8127 -0.2623 -0.1273
 1004SOL     OW13220   2.878   0.391   1.390  0.2675 -0.1662  0.2125
 1004SOL    HW113221   2.844   0.398   1.484 -0.6389 -0.9740 -0.0515
 1004SOL    HW213222   2.971   0.426   1.386 -0.0651  0.8619  1.2079
 1005SOL     OW13223   2.074   1.961   1.243  0.1839 -0.0065 -0.1575
 1005SOL    HW113224   2.098   1.905   1.163 -1.3927 -0.6015 -0.2455
 1005SOL    HW213225   2.150   2.020   1.267  2.1177 -2.5520  0.2339
 1006SOL     OW13226   2.548   7.345   0.108  0.5190 -0.5651  0.2515
 1006SOL    HW113227   2.547   7.407   0.029 -0.1160  0.2937  0.9270
 1006SOL    HW213228   2.603   7.264   0.086  0.0051 -0.5284 -1.2174
 1007SOL     OW13229   3.667   0.502   2.156 -0.3693  0.6589 -0.1263
 1007SOL    HW113230   3.709   0.425   2.108 -0.1458  0.1051  0.9346
 1007SOL    HW213231   3.710   0.512   2.246  0.0272  2.4272 -0.5076
 1008SOL     OW13232   0.713   4.343   1.483 -0.1805  0.1072  0.0150
 1008SOL    HW113233   0.709   4.318   1.580 -0.3890  1.3471  0.3361
 1008SOL    HW213234   0.751   4.435   1.474 -0.8302  0.2767 -1.0331
 1009SOL     OW13235   9.770   9.210   0.428  0.3179 -0.0526  0.0688
 1009SOL    HW113236   9.757   9.309   0.434  2.4315  0.1921  0.7573
 1009SOL    HW213237   9.715   9.165   0.499  0.0794  0.6808  0.3525
 1010SOL     OW13238   8.704   0.757   0.573  0.1076 -0.2287  0.2065
 1010SOL    HW113239   8.696   0.679   0.511 -1.0104  0.2678 -0.2925
 1010SOL    HW213240   8.762   0.732   0.650  2.3333 -0.5359 -1.5237
 1011SOL     OW13241   0.074   3.897   2.407 -0.3774 -0.5013  0.2309
 1011SOL    HW113242   0.017   3.844   2.469  1.0506  0.0835  2.1184
 1011SOL    HW213243   0.097   3.985   2.449  0.7263 -0.1373 -1.0667
 1012SOL     OW13244   9.289   2.653   2.993  0.7115  0.3763  0.0852
 1012SOL    HW113245   9.382   2.683   3.016  1.1342 -1.2717  0.6131
 1012SOL    HW213246   9.228   2.732   2.991  1.6764  1.2042  1.9638
 1013SOL     OW13247   8.586   3.018   3.022  0.0444 -0.1987  0.2943
 1013SOL    HW113248   8.551   3.105   3.055  1.4861  0.9418 -1.1189
 1013SOL    HW213249   8.514   2.949   3.026 -0.7066  0.6956  2.7303
 1014SOL     OW13250   9.237   2.697   1.992 -0.2646 -0.4438 -0.3093
 1014SOL    HW113251   9.153   2.654   2.025 -0.5181 -0.3997 -0.8860
 1014SOL    HW213252   9.287   2.632   1.935 -0.8647  0.1634 -1.5420
 1015SOL     OW13253   0.161   5.050   3.432  0.0524  0.3105 -0.3178
 1015SOL    HW113254   0.238   5.011   3.382 -0.5861 -1.1487 -0.1859
 1015SOL    HW213255   0.076   5.029   3.384 -0.3169  1.4193 -0.1625
 1016SOL     OW13256   4.462   0.882   1.872  0.0177 -0.3374 -0.2477
 1016SOL    HW113257   4.427   0.810   1.812 -1.0475 -0.9794  1.1230
 1016SOL    HW213258   4.450   0.971   1.828 -0.5973 -0.8078 -1.0449
 1017SOL     OW13259   0.570   8.563   0.557 -0.0101 -0.5430  0.3868
 1017SOL    HW113260   0.606   8.537   0.647  1.5066  0.4523  0.0976
 1017SOL    HW213261   0.646   8.587   0.497 -1.0533 -0.5665 -0.9648
 1018SOL     OW13262   2.329   3.879   2.600 -0.3065 -0.4302 -0.1236
 1018SOL    HW113263   2.346   3.858   2.504 -1.1508  0.7170 -0.5339
 1018SOL    HW213264   2.416   3.892   2.648  0.1825 -2.9057 -0.2794
 1019SOL     OW13265   9.340   3.015   1.031 -0.4473 -0.0772  0.6197
 1019SOL    HW113266   9.267   3.000   1.097  0.7979 -1.6299  1.6650
 1019SOL    HW213267   9.351   2.934   0.973  2.3228 -1.0219  2.3676
 1020SOL     OW13268   1.064   8.143   1.203 -0.0447  0.0326 -0.0835
 1020SOL    HW113269   0.989   8.077   1.210  0.2283 -0.1234  1.6191
 1020SOL    HW213270   1.152   8.095   1.211  0.1926  0.3947 -0.5165
 1021SOL     OW13271   9.874   9.814   0.048  0.1581  0.1747 -0.0466
 1021SOL    HW113272   9.860   9.828   0.146  2.0721  0.7392  0.1525
 1021SOL    HW213273   9.838   9.725   0.022 -0.1498 -0.0804  1.2048
 1022SOL     OW13274   0.998   5.400   1.960  0.4321 -0.2439  0.2052
 1022SOL    HW113275   0.986   5.301   1.965  0.8147 -0.3474 -0.8207
 1022SOL    HW213276   0.990   5.439   2.052  0.9567 -1.2971  0.7081
 1023SOL     OW13277   2.560   2.174   1.610  0.0652 -0.2291  0.8104
 1023SOL    HW113278   2.567   2.272   1.591 -1.5529  0.2101  2.2901
 1023SOL    HW213279   2.596   2.156   1.702  2.0386 -1.3117 -0.1664
 1024SOL     OW13280   0.001   4.578   2.070  0.0086 -0.2931  0.1229
 1024SOL    HW113281  -0.013   4.669   2.032 -2.8501 -1.5267 -1.9487
 1024SOL    HW213282   0.088   4.575   2.119  1.0688  2.9968 -1.4433
 1025SOL     OW13283   3.072   6.234   0.221 -0.2709 -0.3472  0.1934
 1025SOL    HW113284   3.038   6.328   0.209 -0.6507 -0.8352 -2.8969
 1025SOL    HW213285   3.008   6.170   0.178  1.5097 -1.7765 -0.3932
 1026SOL     OW13286   3.809   7.705   2.310 -0.1849 -0.2771  0.7641
 1026SOL    HW113287   3.836   7.685   2.404  1.9903  0.3502  0.3079
 1026SOL    HW213288   3.850   7.792   2.281 -0.8009 -0.4778 -0.7595
 1027SOL     OW13289   0.537   1.953   2.053 -0.0033  0.0653  0.1149
 1027SOL    HW113290   0.562   1.949   1.957 -1.3412 -1.3419 -0.1913
 1027SOL    HW213291   0.562   1.866   2.098  0.7133  0.7475  1.0770
 1028SOL     OW13292   3.549   8.265   1.459  0.0380 -0.1294  0.0262
 1028SOL    HW113293   3.587   8.175   1.480 -0.5099 -0.5156 -0.6137
 1028SOL    HW213294   3.559   8.325   1.538  1.1933 -0.4899  0.1563
 1029SOL     OW13295   0.657   3.382   2.520  0.0014  0.0858 -1.0066
 1029SOL    HW113296   0.587   3.413   2.456 -2.3410 -1.9506  0.4948
 1029SOL    HW213297   0.701   3.461   2.562 -1.5744  1.3984 -1.7644
 1030SOL     OW13298   3.182   0.270   1.287 -0.1516 -0.7075 -0.3995
 1030SOL    HW113299   3.203   0.176   1.264  0.4668 -0.0888 -2.4402
 1030SOL    HW213300   3.146   0.318   1.207 -0.5102  0.7906  0.6167
 1031SOL     OW13301   3.888   9.410   2.805 -0.2498 -0.0959  0.1588
 1031SOL    HW113302   3.945   9.379   2.729 -1.9778 -1.5086 -0.6060
 1031SOL    HW213303   3.860   9.505   2.791  1.2855  0.3636  0.1779
 1032SOL     OW13304   2.697   4.195   2.025  0.2141  0.0617 -0.2450
 1032SOL    HW113305   2.653   4.128   2.086  1.1834 -0.2617  0.1065
 1032SOL    HW213306   2.715   4.153   1.937  0.2327  0.0601 -0.2405
 1033SOL     OW13307   1.730   7.161   0.216 -0.0861  0.1368  0.0672
 1033SOL    HW113308   1.808   7.099   0.208 -0.6828 -0.6272  0.0252
 1033SOL    HW213309   1.762   7.255   0.217  0.8216 -0.1602 -0.1443
 1034SOL     OW13310   8.372   4.057   0.346 -0.4546 -0.6283  0.1439
 1034SOL    HW113311   8.340   4.079   0.254 -1.0321  0.3616  0.5805
 1034SOL    HW213312   8.412   3.965   0.346  0.5683 -0.1910 -1.3375
 1035SOL     OW13313   4.338   8.301   1.524 -0.3496  0.0802  0.1701
 1035SOL    HW113314   4.339   8.202   1.510  0.9960 -0.0187  0.8461
 1035SOL    HW213315   4.310   8.346   1.439  1.9198 -0.7614 -1.0711
 1036SOL     OW13316   7.731   2.760   0.975  0.5952  0.1259  0.3070
 1036SOL    HW113317   7.781   2.827   1.029  2.2805 -0.0319 -0.9872
 1036SOL    HW213318   7.764   2.668   0.998  1.2312  0.0496 -0.8517
 1037SOL     OW13319   9.797   5.406   2.812 -0.3846  0.0624  0.2825
 1037SOL    HW113320   9.853   5.354   2.748  0.5708  0.6488  0.6315
 1037SOL    HW213321   9.737   5.343   2.861 -0.6165 -0.4719 -0.6737
 1038SOL     OW13322   2.404   6.222   0.634 -0.2147 -0.4815  0.3622
 1038SOL    HW113323   2.313   6.244   0.600 -0.9379 -1.6791  1.4327
 1038SOL    HW213324   2.460   6.186   0.559 -0.9331 -0.6412 -0.1032
 1039SOL     OW13325   3.226   9.218   1.026  0.4955  0.3297 -0.1430
 1039SOL    HW113326   3.138   9.182   1.058  0.6162  0.3616  0.2257
 1039SOL    HW213327   3.232   9.207   0.927  0.6873 -0.9958  0.0073
 1040SOL     OW13328   4.314   1.046   2.163 -0.3581 -0.1394  0.0488
 1040SOL    HW113329   4.332   1.005   2.073  0.1507 -1.6264  0.8113
 1040SOL    HW213330   4.400   1.053   2.214 -0.7247  0.2352  0.6128
 1041SOL     OW13331   3.315   4.849   2.999 -1.1177  0.9323 -0.4516
 1041SOL    HW113332   3.319   4.889   2.908  3.7722  0.8887 -0.3953
 1041SOL    HW213333   3.316   4.749   2.993 -0.3628  0.9327 -0.3433
 1042SOL     OW13334   8.424   4.283   2.341 -0.0384  0.3279 -0.0402
 1042SOL    HW113335   8.379   4.196   2.363  0.0124  0.4592  0.5950
 1042SOL    HW213336   8.400   4.310   2.247 -0.0523 -0.3694 -0.2431
 1043SOL     OW13337   3.449   0.648   1.002 -0.0008 -0.2611  0.0760
 1043SOL    HW113338   3.358   0.633   0.962 -0.1632 -0.8970  0.6718
 1043SOL    HW213339   3.456   0.597   1.088  0.8866 -0.1294  0.0845
 1044SOL     OW13340   0.167   3.793   2.893 -0.3257  0.2059  0.2040
 1044SOL    HW113341   0.260   3.783   2.928 -0.2474  0.2247  0.0030
 1044SOL    HW213342   0.103   3.750   2.956  0.0199 -1.7911 -0.7735
 1045SOL     OW13343   1.971   7.916   1.924 -0.2092  0.2757 -0.2062
 1045SOL    HW113344   1.892   7.892   1.980 -2.0012 -0.2550 -2.8628
 1045SOL    HW213345   1.972   8.015   1.910  0.9656  0.5548  1.7805
 1046SOL     OW13346   3.409   7.291   0.244 -0.0881 -0.3157 -0.4855
 1046SOL    HW113347   3.396   7.282   0.343 -2.6655  1.8973 -0.5674
 1046SOL    HW213348   3.487   7.351   0.225 -1.7229  2.1098  0.2727
 1047SOL     OW13349   9.460   1.066   0.923  0.0066  0.1400 -0.2015
 1047SOL    HW113350   9.414   0.978   0.932  2.1919 -0.9544  0.4265
 1047SOL    HW213351   9.453   1.098   0.828 -1.4879 -0.2872 -0.2563
 1048SOL     OW13352   7.928   0.527   0.144  0.3746  0.1968 -0.0977
 1048SOL    HW113353   7.974   0.529   0.232 -0.0656 -0.0898  0.1464
 1048SOL    HW213354   7.993   0.504   0.072  0.1877 -2.5142  0.5493
 1049SOL     OW13355   0.188   9.034   3.046 -0.4886  0.0427  0.1711
 1049SOL    HW113356   0.097   9.060   3.015  0.9886  2.6935 -2.1502
 1049SOL    HW213357   0.182   8.948   3.097 -4.2991  0.3304  0.3657
 1050SOL     OW13358   1.860   5.602   1.114 -0.2864  0.4037  0.1173
 1050SOL    HW113359   1.785   5.645   1.164 -0.6787 -1.9939  1.7153
 1050SOL    HW213360   1.833   5.508   1.090  1.3462  0.2838 -1.3033
 1051SOL     OW13361   0.508   9.191   3.383 -0.1046  0.3498 -0.5166
 1051SOL    HW113362   0.412   9.217   3.369 -1.2860 -2.5840  1.4569
 1051SOL    HW213363   0.542   9.143   3.303 -0.8377 -0.0357 -0.6030
 1052SOL     OW13364   0.937   5.225   0.955 -0.0260 -0.5600  0.0100
 1052SOL    HW113365   1.004   5.270   0.897  1.6962 -1.1319  1.5016
 1052SOL    HW213366   0.860   5.192   0.899  0.0659  1.6498 -1.4742
 1053SOL     OW13367   0.522   7.110   1.232 -0.3732 -0.3399 -0.3533
 1053SOL    HW113368   0.425   7.110   1.257 -0.0301 -1.9050  1.0463
 1053SOL    HW213369   0.533   7.073   1.140 -1.2783  1.6555 -1.2728
 1054SOL     OW13370   3.412   9.418   0.036 -0.7920 -0.1486 -0.2403
 1054SOL    HW113371   3.406   9.483   0.112 -2.3422 -0.5144 -0.0380
 1054SOL    HW213372   3.447   9.331   0.069 -0.1016  0.1183 -0.2391
 1055SOL     OW13373   1.356   1.354   3.350 -0.2233  0.2457 -0.0401
 1055SOL    HW113374   1.448   1.320   3.328 -0.2782  0.2693 -0.3169
 1055SOL    HW213375   1.295   1.336   3.272 -0.0934  1.5813 -0.4650
 1056SOL     OW13376   4.316   8.163   3.091 -0.1767  0.0017 -0.3848
 1056SOL    HW113377   4.335   8.161   3.189 -1.8017 -1.4213 -0.0867
 1056SOL    HW213378   4.278   8.075   3.063 -1.6957  1.1250 -1.8973
 1057SOL     OW13379   3.766   2.559   0.063 -0.2152  0.5243  0.5171
 1057SOL    HW113380   3.688   2.550   0.000 -1.0362 -0.5390  1.6783
 1057SOL    HW213381   3.737   2.609   0.144  0.0793 -0.6429  1.3431
 1058SOL     OW13382   2.416   9.099   3.430 -0.7587  0.2678 -0.2540
 1058SOL    HW113383   2.472   9.140   3.502 -0.3421 -0.8841  0.0963
 1058SOL    HW213384   2.320   9.118   3.448 -0.7212 -0.6362  1.0498
 1059SOL     OW13385   2.923   9.293   0.429  0.1187  0.0578 -0.3762
 1059SOL    HW113386   2.901   9.303   0.332 -2.1632 -1.6423 -0.0755
 1059SOL    HW213387   2.965   9.204   0.445  0.7957  0.4714  0.1515
 1060SOL     OW13388   1.861   7.586   1.833  0.2431 -0.2963  0.5718
 1060SOL    HW113389   1.872   7.498   1.879  0.0545 -0.2534  0.7007
 1060SOL    HW213390   1.768   7.619   1.847  0.3265 -0.0579  0.5559
 1061SOL     OW13391   2.970   0.381   2.654  0.4466 -0.5085  0.0969
 1061SOL    HW113392   2.896   0.406   2.592 -0.4804  1.3673  1.9056
 1061SOL    HW213393   2.956   0.287   2.686 -3.3348  1.0151  3.3254
 1062SOL     OW13394   2.277   1.367   3.008 -0.3188 -0.6314 -0.3776
 1062SOL    HW113395   2.353   1.431   3.006 -1.0668  0.2486 -1.0436
 1062SOL    HW213396   2.194   1.413   3.038 -1.2448 -0.8423 -2.4994
 1063SOL     OW13397   4.518   2.464   0.770  0.8939  0.0182 -0.0826
 1063SOL    HW113398   4.477   2.490   0.683 -0.7692  1.6497  1.1495
 1063SOL    HW213399   4.446   2.442   0.836  2.0782  0.2830  1.3267
 1064SOL     OW13400   2.406   6.888   0.626  0.5499 -0.0799  0.1978
 1064SOL    HW113401   2.353   6.811   0.592  0.7033 -0.1603  0.1386
 1064SOL    HW213402   2.459   6.860   0.706 -0.0380  0.1902  0.6870
 1065SOL     OW13403   8.211   0.711   1.376  0.3800  0.2872  0.0723
 1065SOL    HW113404   8.113   0.721   1.362  0.2629 -0.8692  0.0368
 1065SOL    HW213405   8.253   0.671   1.294  0.1636 -3.5848  1.7530
 1066SOL     OW13406   8.499   1.134   0.269  0.1769  0.2622 -0.0807
 1066SOL    HW113407   8.576   1.080   0.303  0.7807  0.9211 -0.3836
 1066SOL    HW213408   8.520   1.232   0.277 -0.9585  0.4591  0.5853
 1067SOL     OW13409   8.512   2.841   1.469  0.3118 -0.1446 -0.3550
 1067SOL    HW113410   8.514   2.878   1.562 -0.2340  1.8423 -1.1191
 1067SOL    HW213411   8.578   2.889   1.412  0.1038 -0.8434 -1.1942
 1068SOL     OW13412   8.895   0.905   0.936 -0.2262 -0.0033 -0.2827
 1068SOL    HW113413   8.817   0.887   0.996  0.7884 -1.4725  0.6352
 1068SOL    HW213414   8.897   1.002   0.912 -1.3487  0.3727  1.0797
 1069SOL     OW13415   9.953   2.699   1.451  0.5077  0.3684 -0.4877
 1069SOL    HW113416   9.989   2.671   1.540 -1.0395  0.1807  0.0942
 1069SOL    HW213417   9.974   2.796   1.435  2.3032 -0.0485 -0.7002
 1070SOL     OW13418   8.003   5.170   0.556 -0.1506 -0.1970  0.1518
 1070SOL    HW113419   7.974   5.261   0.527 -1.3511 -0.0695  1.7121
 1070SOL    HW213420   8.068   5.178   0.631  1.7871 -0.5729 -1.4407
 1071SOL     OW13421   8.530   1.146   2.210  0.0329 -0.4257 -0.4821
 1071SOL    HW113422   8.469   1.211   2.255  1.7608 -0.1126  1.4681
 1071SOL    HW213423   8.622   1.185   2.203  0.9806 -2.4422  0.2604
 1072SOL     OW13424   3.197   0.742   0.583  0.5885 -0.1345 -0.1795
 1072SOL    HW113425   3.190   0.769   0.679  0.1473  1.1917 -0.5763
 1072SOL    HW213426   3.293   0.741   0.555  0.6609  0.3096  0.0452
 1073SOL     OW13427   0.831   9.443   0.261  0.0693 -0.0337  0.2932
 1073SOL    HW113428   0.896   9.401   0.198  0.5028 -1.2447  1.5248
 1073SOL    HW213429   0.861   9.536   0.283  0.7058 -0.1315 -0.1463
 1074SOL     OW13430   9.988   0.692   2.378  0.0020 -0.0807  0.0344
 1074SOL    HW113431  10.035   0.772   2.343 -0.3752  0.3961  0.6074
 1074SOL    HW213432   9.970   0.628   2.303  0.1594  0.4388 -0.4503
 1075SOL     OW13433   1.318   9.423   1.409 -0.3325 -0.4428 -0.0081
 1075SOL    HW113434   1.386   9.477   1.359 -1.0731 -0.4252 -1.0235
 1075SOL    HW213435   1.277   9.357   1.347 -1.0461 -0.6354  0.6660
 1076SOL     OW13436   0.934   8.534   1.399  0.2616 -0.0024  0.4468
 1076SOL    HW113437   0.927   8.549   1.301 -0.7550 -0.8475  0.3786
 1076SOL    HW213438   0.966   8.440   1.417 -0.5017 -0.1752  0.9266
 1077SOL     OW13439   0.346   2.997   3.220  0.2945  0.0301 -0.8394
 1077SOL    HW113440   0.320   2.937   3.144  0.6330  0.1110 -1.0192
 1077SOL    HW213441   0.428   2.960   3.264 -0.5152 -0.6132  0.1690
 1078SOL     OW13442   3.778   2.007   2.607 -0.2116 -0.1938  0.1476
 1078SOL    HW113443   3.692   1.961   2.589 -0.9569  1.2968 -0.1840
 1078SOL    HW213444   3.772   2.059   2.692  0.9254 -1.4297  1.0022
 1079SOL     OW13445   2.064   2.042   2.293 -0.4933  0.1718  0.5217
 1079SOL    HW113446   2.053   2.069   2.197  0.5085  1.0158  0.6382
 1079SOL    HW213447   2.005   2.099   2.350 -0.7143  0.0083  0.4574
 1080SOL     OW13448   9.138   1.994   2.277  0.1592 -1.0965 -0.6258
 1080SOL    HW113449   9.062   2.052   2.246  0.3591 -1.3892 -1.7083
 1080SOL    HW213450   9.212   1.999   2.209  3.3763  3.4461  2.8959
 1081SOL     OW13451   2.652   3.938   1.057  0.4207  0.0134  0.2819
 1081SOL    HW113452   2.562   3.955   1.015  1.2468  1.5435 -0.9403
 1081SOL    HW213453   2.724   3.967   0.994  1.7817 -0.7063  1.4663
 1082SOL     OW13454   1.444   8.184   1.340  0.1015  0.2893  0.4999
 1082SOL    HW113455   1.434   8.173   1.241  1.5154  0.9922  0.2684
 1082SOL    HW213456   1.540   8.177   1.364 -0.4898 -2.7939  2.2005
 1083SOL     OW13457   0.440   6.808   0.676  0.3412 -0.1673 -0.2238
 1083SOL    HW113458   0.451   6.842   0.582  0.7959  0.3515  0.0160
 1083SOL    HW213459   0.515   6.746   0.697  0.0480 -0.5555 -0.3215
 1084SOL     OW13460   0.357   7.863   2.937  0.0620  0.3654 -0.1442
 1084SOL    HW113461   0.388   7.848   3.031  0.1269  1.5679  0.0348
 1084SOL    HW213462   0.291   7.793   2.912  0.2044 -0.0876  0.7225
 1085SOL     OW13463   2.599   4.759   2.063  0.7080  0.0471  0.3586
 1085SOL    HW113464   2.666   4.805   2.005  1.1259  0.7321  1.3698
 1085SOL    HW213465   2.616   4.661   2.063  2.1251  0.2717  1.1029
 1086SOL     OW13466   1.033   2.756   1.596  0.0169 -0.5797  0.2388
 1086SOL    HW113467   1.075   2.674   1.635  1.1820 -0.5324 -0.8849
 1086SOL    HW213468   0.933   2.748   1.601  0.1342 -0.7789  2.7675
 1087SOL     OW13469   3.361   4.095   2.080  0.0341 -0.4449 -0.0851
 1087SOL    HW113470   3.396   4.052   1.997  2.2558 -0.0748  0.6147
 1087SOL    HW213471   3.438   4.125   2.137 -1.3722 -2.1531  2.8793
 1088SOL     OW13472   2.000   8.511   2.480  0.3525 -0.7087  0.4246
 1088SOL    HW113473   2.054   8.594   2.467 -0.9676  0.1997  0.6760
 1088SOL    HW213474   1.925   8.509   2.413 -0.8290 -0.6991  1.7299
 1089SOL     OW13475   4.999   2.717   1.041 -0.6407 -0.5237  0.0235
 1089SOL    HW113476   5.095   2.698   1.023 -1.1423 -2.4514 -0.7160
 1089SOL    HW213477   4.967   2.662   1.118 -1.2593 -0.2113 -0.0029
 1090SOL     OW13478   0.907   1.103   1.769 -0.4243  0.9584  0.8288
 1090SOL    HW113479   0.980   1.168   1.788 -0.3033  0.7944  0.9137
 1090SOL    HW213480   0.888   1.048   1.850 -0.5435  0.9026  0.7634
 1091SOL     OW13481   3.247   9.748   0.103  0.3291  0.6331  0.6196
 1091SOL    HW113482   3.148   9.730   0.102  0.2582  0.8573 -1.9749
 1091SOL    HW213483   3.269   9.815   0.173 -1.5799  1.6414  0.2748
 1092SOL     OW13484   9.100   4.941   1.687  0.0870  0.2065  0.1739
 1092SOL    HW113485   9.050   5.005   1.746 -1.5576  0.2921 -1.2390
 1092SOL    HW213486   9.183   4.911   1.732  0.3764  2.5684  1.2928
 1093SOL     OW13487   8.565   1.790   1.327  0.3866 -0.0609  0.0720
 1093SOL    HW113488   8.605   1.872   1.285 -1.0577  0.8070  0.3647
 1093SOL    HW213489   8.629   1.714   1.317  1.2705  0.8135 -1.2218
 1094SOL     OW13490   1.753   6.914   2.140 -0.2573  0.6555  0.5089
 1094SOL    HW113491   1.775   6.818   2.157 -0.3251  1.0478  2.9359
 1094SOL    HW213492   1.822   6.954   2.079  0.0683 -0.7797 -0.0746
 1095SOL     OW13493   1.434   4.097   1.514  0.0032  0.0925  0.8040
 1095SOL    HW113494   1.424   4.094   1.613  0.9216 -1.9497  0.8618
 1095SOL    HW213495   1.417   4.006   1.476  2.2444  0.2281 -0.6367
 1096SOL     OW13496   1.563   0.081   1.707 -0.0105  0.7538  0.2255
 1096SOL    HW113497   1.522   0.043   1.624 -0.6941  1.0809  0.4129
 1096SOL    HW213498   1.632   0.149   1.681  0.4348  0.1924 -0.0874
 1097SOL     OW13499   9.949   1.574   2.485 -0.5788 -0.1045 -0.6310
 1097SOL    HW113500   9.937   1.584   2.386  1.2798 -1.9982 -1.1024
 1097SOL    HW213501  10.014   1.500   2.503 -1.0285  0.0910  2.0278
 1098SOL     OW13502   2.249   7.508   0.145  0.1689  0.6794  0.1425
 1098SOL    HW113503   2.273   7.461   0.230 -0.9016 -1.1677 -0.5362
 1098SOL    HW213504   2.259   7.445   0.068  0.8284  2.2397 -1.0837
 1099SOL     OW13505   0.727   6.881   0.831  0.0487  0.1422 -0.2630
 1099SOL    HW113506   0.685   6.793   0.809  0.0302  0.1102 -0.0956
 1099SOL    HW213507   0.822   6.867   0.859  0.2235  0.2301 -0.8051
 1100SOL     OW13508   2.773   4.504   1.069  0.7422 -0.3178  0.4476
 1100SOL    HW113509   2.725   4.447   1.136  0.6795  0.2735  0.9105
 1100SOL    HW213510   2.805   4.447   0.993  2.2723 -1.2990  1.7851
 1101SOL     OW13511   7.583   2.131   0.036  0.4904 -0.1699 -1.0126
 1101SOL    HW113512   7.631   2.090   0.113 -1.2615  0.3371  0.3692
 1101SOL    HW213513   7.649   2.152  -0.037  2.0731 -1.1647  0.1042
 1102SOL     OW13514   2.472   3.774   0.539  0.0798  0.1046 -0.1468
 1102SOL    HW113515   2.395   3.816   0.491 -0.6113 -0.7709  0.1696
 1102SOL    HW213516   2.515   3.706   0.480  0.7060  0.6997 -0.3773
 1103SOL     OW13517   8.088   2.478   1.639  0.2389 -0.2193 -0.3317
 1103SOL    HW113518   8.171   2.533   1.639  0.6661 -0.8464  0.6837
 1103SOL    HW213519   8.067   2.449   1.733 -0.0463 -1.6794 -0.8350
 1104SOL     OW13520   2.719   6.939   1.758 -0.2559  0.0020  0.4908
 1104SOL    HW113521   2.776   7.012   1.721 -0.0052 -0.4900 -0.1118
 1104SOL    HW213522   2.770   6.891   1.830 -0.2781  0.1896  0.6295
 1105SOL     OW13523   3.924   1.489   2.617  0.4967 -0.3034  0.2241
 1105SOL    HW113524   3.857   1.534   2.556  0.1629  0.9549  1.4895
 1105SOL    HW213525   3.883   1.476   2.707  0.8238 -2.6148  0.0541
 1106SOL     OW13526   0.466   2.000   0.208  0.0501 -0.4800 -0.4437
 1106SOL    HW113527   0.540   1.989   0.274  2.5251 -0.0018 -3.0886
 1106SOL    HW213528   0.414   2.083   0.231  0.3574 -0.7460  1.3405
 1107SOL     OW13529   0.382   5.347   3.028 -0.2542 -0.8247  0.6705
 1107SOL    HW113530   0.348   5.440   3.046  1.5637 -0.1449  0.7316
 1107SOL    HW213531   0.342   5.313   2.943 -3.3575 -1.2488  2.2156
 1108SOL     OW13532   3.748   2.406   2.973 -0.5913 -0.1776 -0.0975
 1108SOL    HW113533   3.772   2.491   2.927  0.3767 -0.7974 -0.7518
 1108SOL    HW213534   3.687   2.426   3.050 -0.3965  1.0976 -0.2605
 1109SOL     OW13535   4.538   2.426   1.773  0.7110  0.0482  0.3389
 1109SOL    HW113536   4.565   2.512   1.729  0.5131  0.3581  0.8223
 1109SOL    HW213537   4.440   2.411   1.760  0.7895 -0.2211  0.0553
 1110SOL     OW13538   3.294   0.665   2.383 -0.4379 -0.7579  0.1361
 1110SOL    HW113539   3.208   0.653   2.333  1.3308 -1.6642 -2.7875
 1110SOL    HW213540   3.288   0.748   2.439 -3.4344 -1.1626  0.5186
 1111SOL     OW13541   9.706   5.235   2.314 -0.5981  0.4993 -0.0388
 1111SOL    HW113542   9.708   5.165   2.385 -0.7915  0.9441  0.4047
 1111SOL    HW213543   9.630   5.218   2.252  1.0511 -1.3331 -1.6123
 1112SOL     OW13544   1.073   1.134   0.285 -0.3966 -0.2107 -0.7400
 1112SOL    HW113545   1.063   1.168   0.378  0.9657  1.2050 -1.0849
 1112SOL    HW213546   1.156   1.171   0.245 -0.5755 -1.4072 -2.2702
 1113SOL     OW13547   1.625   5.022   2.462 -0.3425  0.2865 -0.0310
 1113SOL    HW113548   1.711   5.048   2.417 -1.2541 -0.3904 -2.2084
 1113SOL    HW213549   1.639   4.937   2.512  1.3887  2.3941  3.2631
 1114SOL     OW13550   1.606   8.819   0.347  0.1761 -0.3843  0.2224
 1114SOL    HW113551   1.603   8.919   0.348 -2.5442 -0.4542  0.7293
 1114SOL    HW213552   1.579   8.784   0.437  0.2139 -1.6146 -0.2355
 1115SOL     OW13553   0.633   3.787   3.187  0.4212  0.2506  0.3458
 1115SOL    HW113554   0.574   3.865   3.167  0.7078  0.5629  0.7322
 1115SOL    HW213555   0.727   3.807   3.159  0.0453 -0.8823 -1.8552
 1116SOL     OW13556   8.284   4.557   0.194  0.0246 -0.1880  0.2278
 1116SOL    HW113557   8.345   4.478   0.205  2.7384  1.6389 -1.0106
 1116SOL    HW213558   8.286   4.613   0.277 -0.7675 -0.6460  0.5610
 1117SOL     OW13559   0.658   6.325   2.597 -0.4359 -0.1699  0.3229
 1117SOL    HW113560   0.750   6.301   2.567  0.0409  1.0100  0.8086
 1117SOL    HW213561   0.651   6.424   2.607 -1.9915 -0.1787 -0.4711
 1118SOL     OW13562   2.189   1.424   0.370  0.1834  0.1038  0.5146
 1118SOL    HW113563   2.144   1.344   0.410 -0.4999 -0.0039 -0.4413
 1118SOL    HW213564   2.253   1.393   0.299  1.4520  0.2835  1.5661
 1119SOL     OW13565   2.427   4.848   1.865  0.6184  0.4885  0.0661
 1119SOL    HW113566   2.501   4.826   1.928  1.5493  2.9165 -0.1395
 1119SOL    HW213567   2.464   4.871   1.775 -0.4534  0.6170 -0.3599
 1120SOL     OW13568   8.307   4.044   2.487  0.3944 -0.2242 -0.6091
 1120SOL    HW113569   8.365   4.008   2.559  1.7219  1.3750 -0.8427
 1120SOL    HW213570   8.224   4.083   2.527  0.3187 -0.8839 -0.1124
 1121SOL     OW13571   4.715   2.420   1.108  0.7940  0.0005 -0.8885
 1121SOL    HW113572   4.651   2.365   1.161  0.9763 -1.3706 -2.0694
 1121SOL    HW213573   4.809   2.395   1.132  0.8837  0.1174 -1.1116
 1122SOL     OW13574   3.601   3.971   3.339  0.0560 -0.2646  0.0846
 1122SOL    HW113575   3.584   4.044   3.272  1.3610 -0.6653 -0.6881
 1122SOL    HW213576   3.626   4.013   3.426  0.2004  0.2340 -0.1888
 1123SOL     OW13577   1.351   4.723   0.853 -0.0144  0.3508  0.1902
 1123SOL    HW113578   1.288   4.647   0.840  2.1134 -1.6997  1.4228
 1123SOL    HW213579   1.380   4.725   0.949  0.8364  2.0438 -0.0895
 1124SOL     OW13580   0.970   3.795   3.030  0.0708  0.0473 -0.0052
 1124SOL    HW113581   0.999   3.887   3.004 -0.2651  0.0175 -0.4946
 1124SOL    HW213582   1.024   3.764   3.108  1.9316 -0.3293 -1.3927
 1125SOL     OW13583   5.050   8.715   2.043  0.5368 -0.2944 -0.2038
 1125SOL    HW113584   5.052   8.631   1.988  2.2520  0.5826 -1.5197
 1125SOL    HW213585   5.142   8.750   2.053 -0.0638  0.9149  1.1895
 1126SOL     OW13586   9.930   8.739   2.310  0.0325  0.2041 -0.6150
 1126SOL    HW113587   9.875   8.670   2.358 -2.0516  1.3608 -1.2476
 1126SOL    HW213588  10.020   8.746   2.352 -1.0562 -0.2008  1.8571
 1127SOL     OW13589   2.514   4.953   0.955 -0.2230  0.6173  0.1428
 1127SOL    HW113590   2.445   4.964   1.026 -0.7209 -0.6727 -0.1403
 1127SOL    HW213591   2.476   4.899   0.879  0.4090  1.6854 -0.9515
 1128SOL     OW13592   2.050   9.095   1.167  0.4151 -0.5017 -0.4146
 1128SOL    HW113593   2.106   9.129   1.242 -1.4004  0.1413  0.6795
 1128SOL    HW213594   2.045   8.995   1.172 -0.7669 -0.3820  1.1188
 1129SOL     OW13595   0.420   0.515   1.468 -0.4071  0.1553 -0.3964
 1129SOL    HW113596   0.393   0.513   1.564  1.6294 -1.7989  0.1750
 1129SOL    HW213597   0.345   0.481   1.412 -1.0307 -0.2422  0.6633
 1130SOL     OW13598   3.029   1.666   2.256  0.6622  0.4396  0.5043
 1130SOL    HW113599   3.062   1.761   2.259 -0.0045  0.6695  0.7663
 1130SOL    HW213600   3.055   1.625   2.169 -0.1215  1.2676 -0.1352
 1131SOL     OW13601   2.709   4.748   0.344 -0.5449 -0.5770 -0.1503
 1131SOL    HW113602   2.725   4.666   0.288 -1.4342 -0.0432 -1.2111
 1131SOL    HW213603   2.660   4.816   0.290  1.3335  1.1904  0.3000
 1132SOL     OW13604   2.838   1.211   3.066 -0.4345 -0.4996  0.0770
 1132SOL    HW113605   2.799   1.257   3.146  1.6103 -0.0390  0.8526
 1132SOL    HW213606   2.906   1.271   3.024  0.1210 -1.6367 -0.6740
 1133SOL     OW13607   2.082   8.164   0.733 -0.1917  0.2076  0.6462
 1133SOL    HW113608   2.156   8.199   0.791 -0.9203 -0.8286  2.2480
 1133SOL    HW213609   2.001   8.222   0.745  0.2368  1.1352 -0.8376
 1134SOL     OW13610   4.012   7.951   2.310 -0.5384  0.3909  0.4418
 1134SOL    HW113611   3.978   7.963   2.217 -0.6628 -0.0344  0.4306
 1134SOL    HW213612   4.037   8.040   2.348  0.7268  0.4389 -0.4559
 1135SOL     OW13613   2.840   6.479   3.402  0.1823  0.0259 -0.0176
 1135SOL    HW113614   2.879   6.570   3.394  2.0656 -0.6860  0.7743
 1135SOL    HW213615   2.740   6.486   3.413  0.0176  1.8464 -2.4566
 1136SOL     OW13616   0.109   9.439   0.755  1.0592  0.1518 -0.1008
 1136SOL    HW113617   0.046   9.361   0.754 -1.2543  1.9656 -1.1499
 1136SOL    HW213618   0.100   9.488   0.841 -0.7795  1.7880 -1.1829
 1137SOL     OW13619   3.061   2.184   2.283  0.3306  0.2305 -0.5041
 1137SOL    HW113620   3.052   2.284   2.292 -1.4791  0.0880 -0.4475
 1137SOL    HW213621   3.122   2.149   2.354 -1.8967  0.8886  1.8001
 1138SOL     OW13622   0.612   7.773   2.590 -0.3562  0.1223  0.2868
 1138SOL    HW113623   0.583   7.687   2.547  0.4640 -0.7356  1.4112
 1138SOL    HW213624   0.694   7.808   2.543  0.4939 -0.7712  1.0849
 1139SOL     OW13625   2.360   1.105   1.466  0.1350 -0.2844  0.9367
 1139SOL    HW113626   2.278   1.162   1.473 -1.0781 -1.9414  0.7034
 1139SOL    HW213627   2.398   1.090   1.558 -0.2520 -0.1081  1.1270
 1140SOL     OW13628   9.005   4.137   0.231  0.4719 -0.4533 -0.7164
 1140SOL    HW113629   9.102   4.156   0.219  0.3371 -0.1218 -1.2682
 1140SOL    HW213630   8.993   4.073   0.307  1.1573 -0.8832 -0.9648
 1141SOL     OW13631   7.272   0.741   2.235 -0.4244 -0.2968 -0.5121
 1141SOL    HW113632   7.287   0.837   2.260  1.9394 -0.9883  0.9306
 1141SOL    HW213633   7.324   0.720   2.152 -0.6798 -0.3953 -0.6458
 1142SOL     OW13634   2.028   8.788   0.973  0.5479 -0.3325 -0.2206
 1142SOL    HW113635   2.013   8.786   1.072 -3.4076  1.6378 -0.6599
 1142SOL    HW213636   2.072   8.875   0.948 -1.5760  0.7161 -0.4672
 1143SOL     OW13637   1.887   9.165   2.078 -0.1416  0.0587  0.2000
 1143SOL    HW113638   1.916   9.123   1.992 -1.1255  0.0294 -0.1297
 1143SOL    HW213639   1.967   9.184   2.135  0.8188  2.8006 -1.9660
 1144SOL     OW13640   8.756   2.217   0.112  0.0739  0.3238 -0.2346
 1144SOL    HW113641   8.690   2.183   0.045  0.8374  0.4363 -1.0602
 1144SOL    HW213642   8.835   2.255   0.064 -0.0833  1.8720  0.6921
 1145SOL     OW13643   1.128   4.879   1.016 -0.1873 -0.3679 -0.8082
 1145SOL    HW113644   1.081   4.857   0.931 -2.8989  1.4054  0.1363
 1145SOL    HW213645   1.199   4.947   0.998  0.3653 -1.2140 -1.8846
 1146SOL     OW13646   2.451   1.488   2.040 -0.2037 -0.3650  0.2417
 1146SOL    HW113647   2.436   1.409   2.099  0.7054 -1.6831 -1.2796
 1146SOL    HW213648   2.534   1.475   1.986  0.4385  2.0103  0.5884
 1147SOL     OW13649   0.448   5.153   0.341  0.1442  0.5686 -1.0527
 1147SOL    HW113650   0.501   5.140   0.257 -0.2926  0.4343 -1.3110
 1147SOL    HW213651   0.355   5.119   0.327  0.6561 -1.4259  0.1882
 1148SOL     OW13652   9.615   1.940   0.532  0.3970  0.1531 -0.3072
 1148SOL    HW113653   9.609   1.891   0.445 -0.6000  0.8134 -0.6173
 1148SOL    HW213654   9.523   1.961   0.565  0.7869  0.5556  0.5348
 1149SOL     OW13655   2.455   8.848   3.303 -0.3497  0.6060  0.2347
 1149SOL    HW113656   2.452   8.937   3.349  0.2609  1.3663 -1.1776
 1149SOL    HW213657   2.385   8.845   3.232  0.6089  0.5215 -0.7200
 1150SOL     OW13658   9.545   9.972   0.678  0.0309  0.3451 -0.6661
 1150SOL    HW113659   9.472   9.987   0.745 -1.0022 -0.9392 -1.4772
 1150SOL    HW213660   9.626   9.936   0.724 -0.2464  0.6609  0.0740
 1151SOL     OW13661   1.215   9.768   1.608  0.1737 -0.0364  0.0806
 1151SOL    HW113662   1.247   9.755   1.702  0.5724  1.0168  0.1023
 1151SOL    HW213663   1.169   9.685   1.577 -2.2783  0.5085  2.0946
 1152SOL     OW13664   7.951   1.836   2.953 -0.0708 -0.1079 -0.6239
 1152SOL    HW113665   7.944   1.914   2.890  0.1938 -0.6567 -1.3356
 1152SOL    HW213666   7.885   1.848   3.027  1.0403  1.5741  0.1301
 1153SOL     OW13667   2.520   4.393   0.605 -0.4170 -0.1531 -0.0178
 1153SOL    HW113668   2.605   4.446   0.601  0.4360 -1.5952 -1.3198
 1153SOL    HW213669   2.481   4.386   0.513 -1.7770  0.2112  0.5255
 1154SOL     OW13670   2.506   1.888   1.397 -0.0935  0.1300 -0.1669
 1154SOL    HW113671   2.570   1.828   1.349  1.1743  0.6627  0.8141
 1154SOL    HW213672   2.496   1.856   1.491  0.4466  1.3275  0.3045
 1155SOL     OW13673   2.322   5.576   0.612 -0.0529  0.2942 -0.1264
 1155SOL    HW113674   2.317   5.624   0.524  0.1128  0.3198 -0.1230
 1155SOL    HW213675   2.372   5.633   0.677  0.0443  0.1653 -0.0889
 1156SOL     OW13676   4.365   8.868   2.432  0.2737 -0.6962 -0.5656
 1156SOL    HW113677   4.327   8.777   2.449  1.2513 -0.8889  0.6712
 1156SOL    HW213678   4.422   8.866   2.350 -1.4652 -0.6579 -1.8095
 1157SOL     OW13679   1.807   8.984   3.324 -0.1979  0.2121 -0.2863
 1157SOL    HW113680   1.798   8.886   3.341 -0.2994  0.4034  0.8158
 1157SOL    HW213681   1.904   9.006   3.311 -0.2474 -0.1540 -1.3580
 1158SOL     OW13682   8.498   4.935   0.314 -0.0669 -0.2543  0.4083
 1158SOL    HW113683   8.448   5.021   0.309 -0.4290 -0.4883 -0.1261
 1158SOL    HW213684   8.563   4.938   0.390  1.0218  1.0688 -0.5581
 1159SOL     OW13685   0.621   0.145   0.144  0.1703  0.1044 -0.2162
 1159SOL    HW113686   0.575   0.079   0.085 -0.2444 -1.3838  1.6967
 1159SOL    HW213687   0.552   0.204   0.188  0.5208  1.6735 -1.7159
 1160SOL     OW13688   3.945   1.795   0.367 -0.0630  0.3247  0.0433
 1160SOL    HW113689   3.902   1.706   0.383  0.1144  0.3785  0.8397
 1160SOL    HW213690   3.888   1.849   0.306 -0.6140  0.0016  0.2693
 1161SOL     OW13691   1.524   1.031   2.759 -0.0432  0.3260  0.3690
 1161SOL    HW113692   1.611   1.041   2.806  0.3543  0.4200 -0.3732
 1161SOL    HW213693   1.456   1.090   2.801  0.4351  0.7820  0.5063
 1162SOL     OW13694   1.689   0.906   1.367  0.3542  0.2941 -0.6391
 1162SOL    HW113695   1.765   0.866   1.419  1.0439  1.0971 -1.0017
 1162SOL    HW213696   1.606   0.853   1.382  1.4058 -1.7156 -1.6789
 1163SOL     OW13697   0.414   0.282   1.999 -0.4895  0.1711 -0.0673
 1163SOL    HW113698   0.341   0.288   2.068  0.8612 -1.1113  1.5237
 1163SOL    HW213699   0.436   0.374   1.967  0.0022  1.0021  2.4805
 1164SOL     OW13700   9.312   2.786   0.881 -0.0282 -0.7991  0.6877
 1164SOL    HW113701   9.267   2.697   0.879 -1.4550 -0.0691 -0.4234
 1164SOL    HW213702   9.273   2.844   0.810  1.2505  0.5431  1.0759
 1165SOL     OW13703   3.348   5.337   2.340 -0.3060 -0.1528 -0.3216
 1165SOL    HW113704   3.354   5.425   2.387  0.7182 -0.0267 -0.6745
 1165SOL    HW213705   3.267   5.336   2.281 -1.4470 -0.2142  1.2286
 1166SOL     OW13706   1.288   0.495   0.416 -0.4148 -0.0250 -0.2589
 1166SOL    HW113707   1.202   0.540   0.441 -1.0280 -1.0737 -0.4319
 1166SOL    HW213708   1.329   0.454   0.497 -0.7616 -0.6678 -0.4060
 1167SOL     OW13709   1.097   0.157   1.360 -0.4733  0.0230  0.6208
 1167SOL    HW113710   1.005   0.189   1.382  0.0824  1.5423  0.7705
 1167SOL    HW213711   1.162   0.198   1.424  0.2327 -1.5897  0.9561
 1168SOL     OW13712   4.635   2.170   2.073  0.2044  0.4830 -0.4185
 1168SOL    HW113713   4.539   2.180   2.048  0.6812  1.2393 -2.0361
 1168SOL    HW213714   4.673   2.258   2.099 -0.0311 -0.1439  2.1486
 1169SOL     OW13715   8.167   0.750   3.264 -0.3351 -0.0015  0.4853
 1169SOL    HW113716   8.067   0.758   3.270 -0.5996 -2.1481 -0.5178
 1169SOL    HW213717   8.197   0.672   3.319  0.5865 -0.5367 -0.7625
 1170SOL     OW13718   0.616   5.531   2.026  0.0658  0.4994 -0.0272
 1170SOL    HW113719   0.683   5.510   1.955  1.0313 -0.9076  1.2637
 1170SOL    HW213720   0.640   5.618   2.069  0.6341  0.3805 -0.0923
 1171SOL     OW13721   3.797   0.917   0.553  0.4636 -0.6583 -0.0281
 1171SOL    HW113722   3.866   0.928   0.625  0.5051 -1.4060  0.0523
 1171SOL    HW213723   3.706   0.915   0.594  0.2143  2.5946 -0.3376
 1172SOL     OW13724   2.687   3.339   0.492  0.2550  0.1067  0.2957
 1172SOL    HW113725   2.779   3.336   0.453  0.0137 -0.7917 -0.2285
 1172SOL    HW213726   2.687   3.398   0.573  1.2679  0.2062  0.2337
 1173SOL     OW13727   1.591   8.436   0.262  0.6661 -0.0397 -0.3422
 1173SOL    HW113728   1.653   8.357   0.259  0.9616  0.1715  0.0937
 1173SOL    HW213729   1.609   8.496   0.184  1.7542  0.5678  0.3589
 1174SOL     OW13730   0.372   0.746   2.092  0.1429 -0.4356  0.0727
 1174SOL    HW113731   0.314   0.773   2.169  0.8854  0.8530  0.1972
 1174SOL    HW213732   0.449   0.691   2.126  0.7088  0.4995  0.3133
 1175SOL     OW13733   8.661   3.915   1.754  0.7486  0.1082 -0.4691
 1175SOL    HW113734   8.753   3.952   1.764  0.4526  0.5290  0.8576
 1175SOL    HW213735   8.621   3.948   1.669  0.5870  2.7162  0.5703
 1176SOL     OW13736   2.077   9.123   3.396  0.2905 -0.2465 -0.1810
 1176SOL    HW113737   2.059   9.142   3.493  0.6631  0.3724 -0.2305
 1176SOL    HW213738   2.036   9.194   3.339 -0.3771 -0.8930 -0.5138
 1177SOL     OW13739   2.371   3.715   2.361 -0.1049 -0.4029  0.0488
 1177SOL    HW113740   2.434   3.645   2.396 -0.8590 -1.3637 -0.4673
 1177SOL    HW213741   2.404   3.749   2.273  0.1548 -0.2686  0.1996
 1178SOL     OW13742   1.649   5.989   1.920  0.3188 -0.0953 -0.4710
 1178SOL    HW113743   1.582   5.946   1.859 -0.8181  1.7265 -0.5370
 1178SOL    HW213744   1.740   5.951   1.900 -0.3199 -0.9042 -1.9955
 1179SOL     OW13745   3.528   1.282   1.440  0.2702  0.0900 -0.5070
 1179SOL    HW113746   3.592   1.221   1.486 -0.1904  1.1306  1.5772
 1179SOL    HW213747   3.578   1.354   1.392  0.7566 -1.0493 -1.7493
 1180SOL     OW13748   0.994   1.262   0.574 -0.2611  0.4700  0.2834
 1180SOL    HW113749   1.091   1.282   0.591 -0.5548  0.6917  1.7618
 1180SOL    HW213750   0.940   1.344   0.592 -0.7156  0.4255 -0.8134
 1181SOL     OW13751   8.823   1.236   0.241 -0.5729  0.2149 -0.5105
 1181SOL    HW113752   8.875   1.287   0.309 -0.3115  0.7996 -1.1473
 1181SOL    HW213753   8.887   1.187   0.181 -0.7597  1.0176 -1.3606
 1182SOL     OW13754   3.445   2.946   0.438  0.9578  0.1227  0.0545
 1182SOL    HW113755   3.422   2.851   0.460 -1.8104  0.2654 -1.8825
 1182SOL    HW213756   3.511   2.948   0.363  0.6317 -0.2712 -0.2432
 1183SOL     OW13757   5.248   2.222   1.337 -0.7092  0.0139  0.1671
 1183SOL    HW113758   5.217   2.177   1.420  0.5783 -3.6305 -1.2180
 1183SOL    HW213759   5.200   2.183   1.258  0.7075  0.8374 -1.1298
 1184SOL     OW13760   0.637   2.424   1.647  0.0273  0.2409 -0.1963
 1184SOL    HW113761   0.685   2.342   1.678 -0.0431 -0.0604 -0.8728
 1184SOL    HW213762   0.650   2.497   1.713 -0.8006 -0.6334  0.9438
 1185SOL     OW13763   7.871   1.742   0.432  0.1555  0.2882 -0.8753
 1185SOL    HW113764   7.968   1.750   0.410  0.4721  0.8328  0.6612
 1185SOL    HW213765   7.836   1.653   0.400  1.5689 -0.6235  0.1037
 1186SOL     OW13766   2.637   0.807   1.220 -0.1272  0.0773  0.0958
 1186SOL    HW113767   2.571   0.738   1.191 -0.6258  0.3998  0.4514
 1186SOL    HW213768   2.641   0.810   1.319  0.4417  0.0505  0.0772
 1187SOL     OW13769   4.081   1.094   0.387  0.0655  0.3595 -0.0950
 1187SOL    HW113770   4.002   1.049   0.344 -0.7328  0.6769  1.0248
 1187SOL    HW213771   4.157   1.029   0.391  0.1451  0.2967 -1.9097
 1188SOL     OW13772   3.879   9.685   2.788  0.6084  0.2586  0.2859
 1188SOL    HW113773   3.794   9.712   2.743  0.1335 -1.5513  0.0967
 1188SOL    HW213774   3.956   9.709   2.729  0.1190 -0.0604 -0.4932
 1189SOL     OW13775   0.506   5.921   3.256 -0.4048  0.1769  0.1180
 1189SOL    HW113776   0.559   5.949   3.176  1.1712  1.4759  1.5708
 1189SOL    HW213777   0.418   5.969   3.256 -0.4687  0.0711 -0.9034
 1190SOL     OW13778   0.872   4.729   1.729  0.1328  0.0592 -0.1308
 1190SOL    HW113779   0.798   4.791   1.754  0.2684  1.0861 -2.1757
 1190SOL    HW213780   0.959   4.778   1.733  0.3641 -0.3053 -0.7100
 1191SOL     OW13781   2.854   1.195   0.284  0.4577 -0.4912  0.7971
 1191SOL    HW113782   2.916   1.213   0.361  1.6638  1.7924 -0.6675
 1191SOL    HW213783   2.901   1.140   0.215  0.7760  0.9975 -0.1858
 1192SOL     OW13784   3.724   3.202   2.434  0.0771  0.1941  0.2815
 1192SOL    HW113785   3.677   3.217   2.347  0.1294 -0.8544  0.0619
 1192SOL    HW213786   3.707   3.108   2.464  0.5542  0.3723  1.1037
 1193SOL     OW13787   1.054   5.765   2.100  0.4324  0.2135  0.6355
 1193SOL    HW113788   1.143   5.799   2.069 -0.3857  1.1403 -0.7073
 1193SOL    HW213789   1.063   5.669   2.125  1.3274 -0.3229 -1.6182
 1194SOL     OW13790   7.427   1.986   0.443  0.0734 -0.5069  0.1586
 1194SOL    HW113791   7.499   1.935   0.396 -0.9551 -0.6396 -1.2882
 1194SOL    HW213792   7.405   2.069   0.392 -1.5042 -0.9846  0.0272
 1195SOL     OW13793   3.212   7.342   2.732  0.1031 -0.0340 -0.7323
 1195SOL    HW113794   3.124   7.315   2.770 -0.4985 -0.6003 -2.4814
 1195SOL    HW213795   3.207   7.436   2.697 -0.0186 -0.2872 -1.4158
 1196SOL     OW13796   9.163   3.291   3.169  0.0967 -0.0411 -0.0420
 1196SOL    HW113797   9.217   3.295   3.253  0.8226  1.1406 -0.5537
 1196SOL    HW213798   9.088   3.226   3.181  0.4173 -0.1665  1.3906
 1197SOL     OW13799   3.224   9.821   2.542  0.0659 -0.1633 -0.5412
 1197SOL    HW113800   3.290   9.846   2.471 -1.0453 -2.0901 -2.3005
 1197SOL    HW213801   3.145   9.883   2.537  0.3529  0.2132 -0.4495
 1198SOL     OW13802   7.933   1.801   0.915  0.3742  0.0616 -0.0463
 1198SOL    HW113803   7.866   1.804   0.841 -0.3525  0.5191  0.6265
 1198SOL    HW213804   7.970   1.892   0.931 -0.0157  0.1034  0.6432
 1199SOL     OW13805   1.953   6.182   1.209 -0.1353  0.5126  0.2890
 1199SOL    HW113806   2.051   6.163   1.209  0.0144  1.2713  0.4400
 1199SOL    HW213807   1.920   6.190   1.303 -0.8925 -2.4594  0.3316
 1200SOL     OW13808   9.441   1.909   2.216 -0.2016 -0.1601  0.0485
 1200SOL    HW113809   9.490   1.981   2.266  0.0104 -0.0213 -0.3577
 1200SOL    HW213810   9.448   1.823   2.266  3.6474 -1.0425 -1.8103
 1201SOL     OW13811   8.317   1.673   1.627 -0.2628  0.4673  0.1645
 1201SOL    HW113812   8.279   1.614   1.555  0.0572 -0.2477  0.5836
 1201SOL    HW213813   8.250   1.685   1.699  0.0321 -0.1878  0.5492
 1202SOL     OW13814   0.956   8.199   2.189  0.0192 -0.3940  0.3644
 1202SOL    HW113815   0.925   8.245   2.105 -1.1220 -1.7289  0.0334
 1202SOL    HW213816   0.903   8.233   2.267 -0.9745 -1.2863  0.0875
 1203SOL     OW13817   0.963   6.776   2.349  0.4899  0.3271 -0.1256
 1203SOL    HW113818   0.969   6.854   2.288  0.4035 -0.4554 -1.1577
 1203SOL    HW213819   0.880   6.782   2.405  0.8538  1.3209  0.3171
 1204SOL     OW13820   8.107   2.810   0.036 -0.2673 -0.8214  0.2259
 1204SOL    HW113821   8.187   2.812   0.096 -0.1827  2.3331  0.1345
 1204SOL    HW213822   8.024   2.813   0.090 -0.2378 -0.7554  0.2683
 1205SOL     OW13823   8.481   3.144   0.705  0.1730 -0.0006 -0.3325
 1205SOL    HW113824   8.437   3.150   0.616 -1.1352  1.4634  0.4004
 1205SOL    HW213825   8.433   3.202   0.771  0.9008 -1.3348  1.4239
 1206SOL     OW13826   3.622   5.383   2.649  0.3702 -0.5295  0.3344
 1206SOL    HW113827   3.598   5.435   2.567  0.8485 -0.4325  0.2504
 1206SOL    HW213828   3.692   5.315   2.626 -0.6695 -1.5981  0.3335
 1207SOL     OW13829   1.676   5.763   1.275 -0.1451 -0.2708 -0.3003
 1207SOL    HW113830   1.643   5.793   1.364  0.5770  0.9592 -0.4481
 1207SOL    HW213831   1.598   5.730   1.221 -0.4810 -1.7835  1.0584
 1208SOL     OW13832   1.047   7.429   3.362  0.4218  0.4245 -0.2860
 1208SOL    HW113833   0.975   7.361   3.376 -1.3135  1.5260 -3.6216
 1208SOL    HW213834   1.007   7.520   3.354  2.2899  1.1997 -1.0773
 1209SOL     OW13835   2.000   4.411   1.503  0.3942  0.3547 -0.2517
 1209SOL    HW113836   2.049   4.383   1.586 -0.2583  0.8829  0.3179
 1209SOL    HW213837   2.061   4.464   1.444  0.6340  0.6586  0.2674
 1210SOL     OW13838   3.820   2.222   1.742 -0.5230  0.5036  0.2713
 1210SOL    HW113839   3.886   2.258   1.808  0.0974  0.1360 -0.1400
 1210SOL    HW213840   3.859   2.227   1.650 -1.5263  1.3473 -0.1099
 1211SOL     OW13841   7.695   5.060   0.363  0.1475  0.2259 -0.7025
 1211SOL    HW113842   7.727   5.003   0.438 -0.4826  0.1243 -0.5103
 1211SOL    HW213843   7.726   5.021   0.276 -0.0992 -0.2971 -0.5590
 1212SOL     OW13844   8.288   3.547   0.372 -0.6175  0.3153  0.6634
 1212SOL    HW113845   8.277   3.599   0.288  0.5043  0.1943  0.4335
 1212SOL    HW213846   8.212   3.566   0.434 -0.4420  1.8891  0.4090
 1213SOL     OW13847   2.416   1.040   2.564 -0.1919  0.3096  0.4965
 1213SOL    HW113848   2.341   0.975   2.552 -0.6816  1.1613 -1.2214
 1213SOL    HW213849   2.383   1.121   2.613 -0.3002  0.5099  0.0951
 1214SOL     OW13850   9.972   4.728   0.240 -0.2588 -0.1151 -0.1516
 1214SOL    HW113851   9.949   4.820   0.274  1.5743 -0.0248  0.9051
 1214SOL    HW213852  10.047   4.735   0.174 -0.7863 -0.7732 -0.8286
 1215SOL     OW13853   3.669   0.416   0.573  0.2587  0.1818  0.0073
 1215SOL    HW113854   3.591   0.375   0.527  0.1692 -0.9265  1.1173
 1215SOL    HW213855   3.711   0.485   0.514 -2.2075  1.5753 -0.1876
 1216SOL     OW13856   4.378   1.203   2.891  0.0524 -0.7892 -0.4809
 1216SOL    HW113857   4.283   1.202   2.860  0.1616  2.8601 -1.2079
 1216SOL    HW213858   4.396   1.288   2.941  2.4607 -2.2587  1.2553
 1217SOL     OW13859   9.714   0.545   2.459  0.5522  0.3192 -0.9149
 1217SOL    HW113860   9.674   0.615   2.399 -0.2397  0.5267 -0.1519
 1217SOL    HW213861   9.798   0.580   2.500 -0.6097  1.4108  0.6204
 1218SOL     OW13862   2.974   1.313   2.590 -0.9843 -0.0492  0.4491
 1218SOL    HW113863   3.042   1.360   2.534  0.5219 -0.3791  1.9611
 1218SOL    HW213864   2.882   1.340   2.561 -0.2163  0.7404 -1.3288
 1219SOL     OW13865   9.538   4.262   2.460 -0.5462 -0.2240 -1.1555
 1219SOL    HW113866   9.602   4.304   2.523 -0.5988 -0.4739 -0.9372
 1219SOL    HW213867   9.518   4.169   2.489  0.0138 -0.5967 -1.9690
 1220SOL     OW13868   3.949   9.707   1.067  0.3983 -0.1993  0.0378
 1220SOL    HW113869   3.937   9.713   0.968  0.8725  0.2434  0.0095
 1220SOL    HW213870   4.003   9.626   1.088 -0.6873 -0.9477  0.0165
 1221SOL     OW13871   2.391   8.948   2.749  0.0340 -0.6354 -0.0850
 1221SOL    HW113872   2.449   8.966   2.828 -0.1387 -0.1685 -0.0589
 1221SOL    HW213873   2.447   8.941   2.667  0.1012  0.1338 -0.1084
 1222SOL     OW13874   0.839   2.918   0.099  0.4768  0.3042  0.3566
 1222SOL    HW113875   0.807   2.910   0.005  1.1393  1.1625  0.0446
 1222SOL    HW213876   0.779   2.980   0.149  1.6692  2.0066 -0.2601
 1223SOL     OW13877   0.095   4.294   0.870 -0.0250  0.4186 -0.4713
 1223SOL    HW113878   0.181   4.247   0.889 -0.2641 -1.1560 -2.9415
 1223SOL    HW213879   0.064   4.344   0.951  1.6279 -1.5274  1.3941
 1224SOL     OW13880   2.351   0.143   1.342 -0.2575  0.1677 -0.1139
 1224SOL    HW113881   2.338   0.049   1.311  0.3318  0.1851 -0.4101
 1224SOL    HW213882   2.278   0.200   1.304  1.4540  0.5524 -3.0546
 1225SOL     OW13883   1.183   8.270   3.044  0.2076 -0.1621 -0.4718
 1225SOL    HW113884   1.114   8.222   2.988  1.5376 -1.2006 -1.2528
 1225SOL    HW213885   1.241   8.325   2.985 -1.2658  2.4326  0.4234
 1226SOL     OW13886   0.966   9.139   1.222  0.1554  0.1716  0.2462
 1226SOL    HW113887   1.059   9.165   1.197  0.1598 -0.8021 -0.7577
 1226SOL    HW213888   0.901   9.202   1.180  0.2765 -0.1242 -0.3803
 1227SOL     OW13889   9.828   1.859   1.102  0.2492 -0.1459  0.5984
 1227SOL    HW113890   9.815   1.927   1.173 -4.2177 -0.6409  0.4291
 1227SOL    HW213891   9.826   1.904   1.012 -4.9150 -0.4877  0.3569
 1228SOL     OW13892   9.627   3.293   0.675 -0.4337 -0.9181 -0.1923
 1228SOL    HW113893   9.602   3.311   0.770 -0.2914 -1.2448 -0.0918
 1228SOL    HW213894   9.547   3.305   0.616 -0.7331 -1.5955  0.0817
 1229SOL     OW13895   2.135   6.251   0.590  0.3526  0.0244 -0.2621
 1229SOL    HW113896   2.097   6.197   0.666  1.8506 -0.1916  0.3465
 1229SOL    HW213897   2.126   6.348   0.610  2.9482 -0.0165  1.3590
 1230SOL     OW13898   3.014   7.788   3.202  0.4865 -0.1062  0.2264
 1230SOL    HW113899   3.058   7.784   3.292  0.2283  1.3690  0.4387
 1230SOL    HW213900   3.085   7.792   3.131  0.7181  1.3496  0.5180
 1231SOL     OW13901   1.581   0.958   1.939 -0.9041  0.0331  1.1992
 1231SOL    HW113902   1.594   0.870   1.985 -1.3650 -1.0102 -0.6498
 1231SOL    HW213903   1.666   0.985   1.894 -0.4196  1.1161  2.6949
 1232SOL     OW13904   1.104   8.906   2.579  0.3295  0.6120 -0.2558
 1232SOL    HW113905   1.150   8.968   2.515  1.0284  0.4018  0.0396
 1232SOL    HW213906   1.165   8.886   2.656  0.8117 -1.8489 -1.2281
 1233SOL     OW13907   1.222   1.959   1.980 -0.0030  0.2068 -0.8370
 1233SOL    HW113908   1.223   1.870   2.026 -0.9193 -0.3109 -1.8032
 1233SOL    HW213909   1.143   2.012   2.011 -2.1007 -1.1587 -3.6744
 1234SOL     OW13910   2.581   3.016   1.402  0.1024 -0.5140 -1.0890
 1234SOL    HW113911   2.522   3.021   1.483  0.6562  1.2012 -0.7847
 1234SOL    HW213912   2.533   2.967   1.330 -0.6172 -1.5711  0.0777
 1235SOL     OW13913   0.130   1.609   0.103  0.9002  0.0459 -0.9111
 1235SOL    HW113914   0.152   1.707   0.100 -2.5735  0.8590 -1.6044
 1235SOL    HW213915   0.153   1.573   0.194 -0.8559  2.3265  0.5060
 1236SOL     OW13916   2.760   1.993   1.237 -0.2907 -0.0773  0.6094
 1236SOL    HW113917   2.676   2.039   1.266 -1.3030  0.5194 -2.9851
 1236SOL    HW213918   2.737   1.904   1.200  0.7558 -0.1964  0.2454
 1237SOL     OW13919   2.585   1.269   0.283 -0.4983  0.0960 -0.4829
 1237SOL    HW113920   2.529   1.192   0.313 -0.5379 -0.2429 -1.3925
 1237SOL    HW213921   2.681   1.243   0.285 -0.5186 -0.0198 -0.8883
 1238SOL     OW13922   1.495   4.193   2.843 -0.1884  0.3111  0.1929
 1238SOL    HW113923   1.557   4.162   2.915  1.8022  0.5784 -1.3559
 1238SOL    HW213924   1.473   4.117   2.782  1.2808  0.9435 -1.1545
 1239SOL     OW13925   8.740   3.655   0.574  0.7791  0.5260 -0.2476
 1239SOL    HW113926   8.680   3.733   0.590  2.5883  1.7720  0.6299
 1239SOL    HW213927   8.702   3.573   0.618  0.0098  1.4222  0.7699
 1240SOL     OW13928   0.637   2.998   1.800 -0.1529 -0.1066 -0.5361
 1240SOL    HW113929   0.700   3.068   1.765 -0.0084  0.2747  0.4750
 1240SOL    HW213930   0.641   2.917   1.740  0.9448  0.0964 -0.7517
 1241SOL     OW13931   1.033   9.358   3.014  0.4056 -0.3486 -0.0101
 1241SOL    HW113932   1.096   9.422   3.057 -0.5983  0.9992 -0.5165
 1241SOL    HW213933   0.940   9.376   3.046 -0.1309 -0.3536 -1.5547
 1242SOL     OW13934   4.255   0.850   0.411 -0.2245  0.2718 -0.3812
 1242SOL    HW113935   4.265   0.869   0.314  0.0709  1.1854 -0.1761
 1242SOL    HW213936   4.238   0.752   0.424 -1.8147  0.3907 -1.4465
 1243SOL     OW13937   3.079   6.836   0.529 -0.5233  0.4399 -0.2865
 1243SOL    HW113938   3.112   6.759   0.475 -1.1913 -0.5398  0.6852
 1243SOL    HW213939   3.143   6.913   0.519 -0.0423 -0.1103 -1.5359
 1244SOL     OW13940   0.362   3.342   1.186  0.2186 -0.5329 -0.4914
 1244SOL    HW113941   0.356   3.243   1.171 -1.3298 -0.4094 -0.8507
 1244SOL    HW213942   0.338   3.389   1.101 -1.3293  0.1600  0.3148
 1245SOL     OW13943   1.494   6.914   3.286  0.7597  0.8238  0.6756
 1245SOL    HW113944   1.588   6.905   3.251  1.9073  1.7002  3.3585
 1245SOL    HW213945   1.465   6.827   3.326  0.7405  0.7740  0.5529
 1246SOL     OW13946   9.299   4.224   1.778  0.0494 -0.2283  0.6511
 1246SOL    HW113947   9.384   4.249   1.825  0.3868 -1.6839  0.8377
 1246SOL    HW213948   9.281   4.291   1.706  0.9469  0.5263  1.1060
 1247SOL     OW13949   1.158   2.408   0.360  0.7332  0.0129  0.2827
 1247SOL    HW113950   1.107   2.398   0.274  2.2961 -0.3903 -0.6276
 1247SOL    HW213951   1.098   2.444   0.431 -0.8064 -0.4604 -0.7568
 1248SOL     OW13952   1.180   4.737   1.270 -0.0085  0.0143  0.1258
 1248SOL    HW113953   1.146   4.783   1.188 -0.8928 -0.4401  0.2236
 1248SOL    HW213954   1.103   4.697   1.320  0.3071  1.6563  2.0336
 1249SOL     OW13955   3.295   9.383   3.038 -0.5893  0.7240  0.1299
 1249SOL    HW113956   3.363   9.435   3.091 -0.9486  1.2266  0.0983
 1249SOL    HW213957   3.266   9.303   3.092  3.9399 -2.5514 -1.9212
 1250SOL     OW13958   1.236   7.960   1.257  0.7578 -0.7506  0.2929
 1250SOL    HW113959   1.207   7.878   1.307  1.5070 -1.8819 -1.0915
 1250SOL    HW213960   1.334   7.955   1.238  0.0440 -1.6424 -3.5945
 1251SOL     OW13961   1.965   9.901   3.300  0.0869 -0.0282  0.3092
 1251SOL    HW113962   1.878   9.854   3.313 -0.4902  0.4923 -1.6502
 1251SOL    HW213963   1.952   9.982   3.244  1.7654  0.3204  0.3857
 1252SOL     OW13964   3.335   3.148   0.100 -0.3031  0.7966  0.3653
 1252SOL    HW113965   3.414   3.109   0.148 -1.6674 -1.6224  0.6989
 1252SOL    HW213966   3.310   3.089   0.024 -0.7435  2.4694 -0.8139
 1253SOL     OW13967   1.366   6.447   3.028 -0.2308 -0.5662 -0.0867
 1253SOL    HW113968   1.328   6.371   2.974 -0.9948  1.3171 -2.2932
 1253SOL    HW213969   1.303   6.469   3.102 -1.8106  0.2487 -1.6232
 1254SOL     OW13970   4.247   8.046   1.228  0.5756 -0.2232 -0.1055
 1254SOL    HW113971   4.229   8.038   1.326 -0.6885 -0.9492 -0.3807
 1254SOL    HW213972   4.319   8.113   1.212 -1.6363  2.5222  1.0904
 1255SOL     OW13973   1.077   1.156   2.614 -0.3647 -0.2029  0.1755
 1255SOL    HW113974   0.992   1.104   2.623  0.5414 -1.4698  1.6225
 1255SOL    HW213975   1.083   1.194   2.521 -2.0026 -0.9836 -0.2676
 1256SOL     OW13976   3.473   0.708   0.565 -0.0660 -0.0733  0.3626
 1256SOL    HW113977   3.567   0.703   0.529  0.0493 -0.6587  0.7341
 1256SOL    HW213978   3.463   0.790   0.621 -0.3758  1.0853 -1.3555
 1257SOL     OW13979   0.450   5.479   1.696 -0.2649 -0.4746  0.1422
 1257SOL    HW113980   0.410   5.494   1.786  0.9903  1.5017  0.4099
 1257SOL    HW213981   0.436   5.561   1.640 -0.5921 -1.4972 -1.2981
 1258SOL     OW13982   9.900   3.759   2.596 -0.3224 -0.1849 -0.1756
 1258SOL    HW113983   9.855   3.678   2.559  0.1590 -0.6524  0.2517
 1258SOL    HW213984   9.947   3.735   2.681  1.1737  0.1687 -0.8764
 1259SOL     OW13985   1.061   4.462   3.035 -0.3405  0.0730 -0.1906
 1259SOL    HW113986   1.011   4.453   3.121  1.0283 -2.5473  0.3875
 1259SOL    HW213987   1.011   4.415   2.962  0.6280 -1.5573  0.1512
 1260SOL     OW13988   0.024   0.993   0.931  0.4223 -0.1093  0.4443
 1260SOL    HW113989  -0.052   0.959   0.876  1.7903 -1.2124 -0.8254
 1260SOL    HW213990   0.053   0.923   0.996  1.5547 -0.4169 -0.3757
 1261SOL     OW13991   0.788   4.958   2.078 -0.3087  0.0631  0.1415
 1261SOL    HW113992   0.860   4.991   2.017 -0.1926 -0.8618 -0.2338
 1261SOL    HW213993   0.750   5.035   2.129  1.9051  0.3989  1.3908
 1262SOL     OW13994   9.238   0.909   1.863  0.0618 -0.0623 -0.1082
 1262SOL    HW113995   9.227   0.813   1.837 -0.0979  0.3046 -1.4219
 1262SOL    HW213996   9.151   0.944   1.899  0.1102 -0.3888  0.3391
 1263SOL     OW13997   2.453   9.240   1.714  0.6628 -0.5299 -0.8528
 1263SOL    HW113998   2.376   9.178   1.729  0.7695 -0.8526 -1.6376
 1263SOL    HW213999   2.537   9.187   1.703  1.1112 -0.1561  0.6372
 1264SOL     OW14000   0.211   0.157   1.587 -0.1910 -0.2354 -0.4009
 1264SOL    HW114001   0.113   0.171   1.605 -0.1977  0.4582 -0.9673
 1264SOL    HW214002   0.224   0.069   1.540 -0.5576 -0.2559 -0.4683
 1265SOL     OW14003   4.203   0.197   1.387  0.2725  0.6168  0.5598
 1265SOL    HW114004   4.128   0.131   1.381 -0.1226  1.1688 -0.7458
 1265SOL    HW214005   4.272   0.176   1.318  1.3599  0.0814  1.7926
 1266SOL     OW14006   9.227   1.550   2.328  0.5043 -0.1021  0.0450
 1266SOL    HW114007   9.170   1.502   2.394  0.2264 -1.6757 -1.3111
 1266SOL    HW214008   9.226   1.648   2.349 -0.8554 -0.3772  1.3948
 1267SOL     OW14009   2.723   1.934   0.331  0.3288  0.2071 -0.4794
 1267SOL    HW114010   2.702   2.016   0.278  0.4778 -0.2751 -1.2891
 1267SOL    HW214011   2.801   1.887   0.290 -0.1971 -0.7132 -0.4292
 1268SOL     OW14012   4.243   7.639   1.957 -0.3632 -0.0824  0.1576
 1268SOL    HW114013   4.310   7.649   1.883 -0.3623  0.0734  0.1776
 1268SOL    HW214014   4.288   7.603   2.039  0.2469  2.3951  0.9597
 1269SOL     OW14015   0.619   1.119   0.561  0.3612  0.3304 -0.2350
 1269SOL    HW114016   0.556   1.070   0.621  0.6641 -0.6927 -0.7535
 1269SOL    HW214017   0.594   1.103   0.465  1.5953 -0.3365 -0.4493
 1270SOL     OW14018   1.930   5.387   0.388 -0.2927 -0.5565  0.4047
 1270SOL    HW114019   1.965   5.453   0.454  0.9908 -0.5622 -0.2533
 1270SOL    HW214020   1.934   5.426   0.296  0.4560 -1.5291  0.0120
 1271SOL     OW14021   3.710   0.602   1.460  1.1068 -0.3902 -0.2428
 1271SOL    HW114022   3.716   0.515   1.411  0.4398 -0.0667 -0.9051
 1271SOL    HW214023   3.704   0.677   1.394  0.8690  0.0971  0.3296
 1272SOL     OW14024   1.531   7.856   2.379  0.0877  0.2638 -0.7792
 1272SOL    HW114025   1.553   7.943   2.335  2.9567  0.6306  1.2266
 1272SOL    HW214026   1.493   7.873   2.470  1.9800 -0.5700  0.1919
 1273SOL     OW14027   2.118   3.338   0.807 -0.4407  0.4933  0.0331
 1273SOL    HW114028   2.194   3.275   0.795 -0.4747  0.4973 -0.2148
 1273SOL    HW214029   2.133   3.394   0.888  1.1810  2.4220 -1.5370
 1274SOL     OW14030   0.577   4.770   0.660  0.1195  0.8031 -0.5183
 1274SOL    HW114031   0.584   4.709   0.739  0.1198  0.1219 -1.0344
 1274SOL    HW214032   0.527   4.853   0.686 -1.1359 -0.0468 -0.1723
 1275SOL     OW14033   3.823   9.464   1.160  0.0786  0.3092  0.0512
 1275SOL    HW114034   3.828   9.389   1.094 -2.8456 -0.1819  0.2942
 1275SOL    HW214035   3.850   9.431   1.250 -1.3869 -0.5547  0.1941
 1276SOL     OW14036   1.680   6.883   0.862  0.1122  0.0354  0.3515
 1276SOL    HW114037   1.689   6.811   0.931  1.0700  0.6035  0.8126
 1276SOL    HW214038   1.611   6.949   0.892 -1.4667 -1.1750 -0.5061
 1277SOL     OW14039   0.377   7.867   2.481 -0.3765  0.7797 -0.4104
 1277SOL    HW114040   0.353   7.961   2.505 -0.8712  1.2716 -2.6798
 1277SOL    HW214041   0.462   7.841   2.526 -0.5695  2.0848  0.7417
 1278SOL     OW14042   1.980   5.988   3.006 -0.5522 -0.5162 -0.1315
 1278SOL    HW114043   1.978   6.087   2.992  0.9583 -0.2948  1.0661
 1278SOL    HW214044   2.057   5.948   2.957 -2.2839 -1.4053 -2.2259
 1279SOL     OW14045   3.149   9.374   0.009 -0.4905 -0.3371  0.3305
 1279SOL    HW114046   3.247   9.394   0.000 -0.7922  0.0201 -3.0299
 1279SOL    HW214047   3.103   9.452   0.051  0.4074  0.3258  0.0974
 1280SOL     OW14048   4.260   0.670   1.768  0.5168 -0.2264 -0.3185
 1280SOL    HW114049   4.186   0.644   1.706 -0.5178  0.6421  0.5383
 1280SOL    HW214050   4.262   0.609   1.846 -0.0886  0.5051  0.2729
 1281SOL     OW14051   0.393   1.912   0.970  0.6166 -0.1259 -0.3063
 1281SOL    HW114052   0.319   1.850   0.944  0.3706  0.3333 -0.7141
 1281SOL    HW214053   0.461   1.862   1.023 -0.3769 -0.3548  0.7617
 1282SOL     OW14054   3.798   2.638   2.274  0.8170 -0.0107 -0.1362
 1282SOL    HW114055   3.753   2.726   2.256 -1.0021 -0.8901 -0.0582
 1282SOL    HW214056   3.771   2.573   2.203  1.6312 -0.6983  0.1819
 1283SOL     OW14057   4.167   9.174   1.053 -0.1185  0.1319 -0.2981
 1283SOL    HW114058   4.145   9.267   1.024 -0.5005  0.3269  0.6053
 1283SOL    HW214059   4.094   9.112   1.023  0.0451  0.1554 -0.7407
 1284SOL     OW14060   9.848   2.102   1.245  0.0926 -0.5504  0.3845
 1284SOL    HW114061   9.875   2.154   1.326  0.3893  0.3821 -0.3068
 1284SOL    HW214062   9.929   2.086   1.188 -0.2802 -0.3700 -0.1970
 1285SOL     OW14063   3.010   1.792   3.111  0.1924  0.0785  1.4166
 1285SOL    HW114064   2.935   1.780   3.045  0.1449 -1.1736  1.6850
 1285SOL    HW214065   2.977   1.773   3.203  0.8184 -0.3926  1.5457
 1286SOL     OW14066   1.980   6.020   2.255 -0.2831  0.0052 -0.0933
 1286SOL    HW114067   1.984   5.933   2.206  1.2315 -0.0393  0.0922
 1286SOL    HW214068   2.005   6.094   2.193 -0.0499  0.1305  0.1460
 1287SOL     OW14069   1.805   1.252   2.723  0.3358  0.2915  0.3047
 1287SOL    HW114070   1.806   1.159   2.761  1.9390  1.5411  3.4581
 1287SOL    HW214071   1.856   1.253   2.637 -0.0980 -1.8289 -0.0107
 1288SOL     OW14072   3.768   8.612   3.436 -0.0661  0.2046 -0.4028
 1288SOL    HW114073   3.745   8.525   3.392 -0.6412  0.3256 -0.3366
 1288SOL    HW214074   3.868   8.620   3.442 -0.0128 -0.8486  0.3694
 1289SOL     OW14075   9.471   1.780   3.073 -0.6222  0.4251  0.4724
 1289SOL    HW114076   9.528   1.748   2.997  1.1980  1.5734  1.2971
 1289SOL    HW214077   9.430   1.868   3.049  0.5237  1.1388  1.0332
 1290SOL     OW14078   2.142   1.375   2.156 -0.4669 -0.5448  0.6473
 1290SOL    HW114079   2.159   1.419   2.068  0.4574  0.2957  1.2405
 1290SOL    HW214080   2.195   1.291   2.163 -1.8540 -1.5182 -0.2864
 1291SOL     OW14081   9.865   3.268   3.168 -0.2306 -0.2116 -0.0274
 1291SOL    HW114082   9.920   3.209   3.110 -0.0264  0.8713 -0.9564
 1291SOL    HW214083   9.810   3.212   3.231  2.2161 -1.2973  1.2078
 1292SOL     OW14084   2.162   2.185   1.700  0.0621  0.3429  0.4871
 1292SOL    HW114085   2.066   2.191   1.730 -0.1098  1.0405 -0.1800
 1292SOL    HW214086   2.206   2.274   1.713  0.0773  0.5640 -1.0263
 1293SOL     OW14087   2.200   9.665   1.685  0.0610  0.4741 -0.9464
 1293SOL    HW114088   2.255   9.619   1.615 -0.0212  2.3367 -2.2867
 1293SOL    HW214089   2.261   9.720   1.743  0.0623 -0.6414  0.1346
 1294SOL     OW14090   2.924   6.744   3.364 -0.4580  0.6082 -0.6243
 1294SOL    HW114091   3.020   6.745   3.391 -0.5286  2.2106 -0.3894
 1294SOL    HW214092   2.873   6.812   3.417 -1.4469  0.7311 -1.7020
 1295SOL     OW14093   2.616   4.561   2.425 -0.0165 -0.2143  0.4784
 1295SOL    HW114094   2.582   4.653   2.405  0.7911 -0.1047 -0.4384
 1295SOL    HW214095   2.671   4.529   2.349  0.9673 -0.8569  1.4462
 1296SOL     OW14096   2.874   5.313   0.110 -0.1357 -0.0190 -0.2551
 1296SOL    HW114097   2.777   5.304   0.085 -1.2242  1.9227  2.9446
 1296SOL    HW214098   2.900   5.238   0.171  0.6144 -0.9385 -1.6744
 1297SOL     OW14099   2.054   9.871   0.434  0.0008 -0.3560 -0.2292
 1297SOL    HW114100   2.096   9.783   0.412  2.1121  0.1327  1.6599
 1297SOL    HW214101   1.989   9.860   0.509  1.6332 -0.0433  1.2713
 1298SOL     OW14102   0.632   9.931   1.087 -0.0873  0.7698 -0.3406
 1298SOL    HW114103   0.624   9.858   1.154 -0.1073  0.6995 -0.4185
 1298SOL    HW214104   0.574  10.008   1.115  0.5477  1.0698  0.1453
 1299SOL     OW14105   8.783   1.628   2.591 -0.6049 -0.3495  0.4480
 1299SOL    HW114106   8.832   1.647   2.676 -1.2507 -0.3887  0.8323
 1299SOL    HW214107   8.798   1.704   2.527  1.4901 -1.2300 -0.1556
 1300SOL     OW14108   9.959   4.456   0.205  0.0216 -0.4694 -0.0073
 1300SOL    HW114109   9.932   4.546   0.239 -1.8206 -0.7821 -0.5914
 1300SOL    HW214110  10.051   4.461   0.165 -0.5722  1.4141 -1.1552
 1301SOL     OW14111   1.378   2.215   1.225 -0.2100  0.6598 -0.0015
 1301SOL    HW114112   1.301   2.273   1.200 -1.5104 -1.5581 -1.3223
 1301SOL    HW214113   1.450   2.223   1.156 -0.0047  1.3429  0.2834
 1302SOL     OW14114   2.368   7.185   0.657  0.6367 -0.7243  0.2517
 1302SOL    HW114115   2.398   7.090   0.646  0.4717 -0.7635  0.1519
 1302SOL    HW214116   2.272   7.187   0.685  0.5583 -0.5789 -0.0254
 1303SOL     OW14117   1.227   7.596   1.754 -0.2468 -0.4523 -0.3399
 1303SOL    HW114118   1.142   7.571   1.707 -0.2466 -0.2267 -0.4640
 1303SOL    HW214119   1.300   7.534   1.725 -0.0995  0.0671 -1.1250
 1304SOL     OW14120   3.171   1.481   1.288 -0.3746  0.2359  0.1894
 1304SOL    HW114121   3.242   1.547   1.265 -0.5783 -0.0690 -1.3566
 1304SOL    HW214122   3.186   1.447   1.381  0.9140  0.9105  0.2379
 1305SOL     OW14123   8.694   0.908   2.806 -0.4005  0.3956  0.1293
 1305SOL    HW114124   8.663   0.999   2.779  1.5539  0.8278 -0.8037
 1305SOL    HW214125   8.714   0.907   2.904 -0.8910  0.8364  0.2338
 1306SOL     OW14126   3.141   3.388   1.675 -0.2278  0.2815  0.0969
 1306SOL    HW114127   3.233   3.394   1.634 -0.4309  0.9963 -0.2712
 1306SOL    HW214128   3.084   3.327   1.620  0.1217 -0.4214  0.5098
 1307SOL     OW14129   9.812   2.710   0.821 -0.4780  0.3542 -0.2214
 1307SOL    HW114130   9.849   2.756   0.902 -0.6987 -1.2979  0.8286
 1307SOL    HW214131   9.794   2.614   0.842 -2.5411  0.4166 -1.6121
 1308SOL     OW14132   1.429   6.286   0.290 -0.3089  0.5722 -0.0401
 1308SOL    HW114133   1.385   6.248   0.208 -0.0426 -0.0013  0.0865
 1308SOL    HW214134   1.457   6.212   0.351  0.8161  0.9412 -0.1034
 1309SOL     OW14135   2.902   6.678   1.565  0.5253 -0.7171 -0.4689
 1309SOL    HW114136   2.899   6.590   1.519  1.3470 -0.1920 -1.5396
 1309SOL    HW214137   2.815   6.695   1.610 -0.1010 -1.4691 -1.3885
 1310SOL     OW14138   0.782   7.331   1.883  0.0129 -0.2562 -0.7108
 1310SOL    HW114139   0.742   7.423   1.886  0.1279 -0.2734  3.0175
 1310SOL    HW214140   0.727   7.274   1.823 -2.0662  1.3532 -0.4051
 1311SOL     OW14141   9.733   2.284   2.377 -0.1847 -0.3286  0.3046
 1311SOL    HW114142   9.754   2.368   2.427  0.0342  0.5623 -1.2443
 1311SOL    HW214143   9.816   2.229   2.366  0.0738  0.1811 -0.3441
 1312SOL     OW14144   1.328   9.756   1.873  0.0375 -0.2481  0.1206
 1312SOL    HW114145   1.407   9.776   1.813 -1.8294  0.7612 -2.0920
 1312SOL    HW214146   1.361   9.716   1.958  2.9676  0.2252 -0.7059
 1313SOL     OW14147   4.746   2.831   1.199 -0.2317  0.2967  0.4790
 1313SOL    HW114148   4.818   2.878   1.148  1.4910 -1.7607  0.9417
 1313SOL    HW214149   4.715   2.752   1.147 -0.5874 -0.0957  1.2832
 1314SOL     OW14150   0.649   3.350   3.052 -0.4216  0.3595  0.0085
 1314SOL    HW114151   0.579   3.371   2.984  1.0132  2.1371 -0.9465
 1314SOL    HW214152   0.687   3.259   3.034 -1.9768 -0.3372  0.1312
 1315SOL     OW14153   9.416   4.365   0.490  0.0358  0.5802  0.1417
 1315SOL    HW114154   9.353   4.323   0.424  0.7108  1.0467 -0.8140
 1315SOL    HW214155   9.482   4.422   0.441  2.2850 -1.2760  0.9597
 1316SOL     OW14156   3.882   0.906   3.112  0.0311 -0.1354  0.0714
 1316SOL    HW114157   3.960   0.846   3.132  0.1801 -0.4559 -1.4380
 1316SOL    HW214158   3.799   0.850   3.102  0.2447 -0.1596 -1.7553
 1317SOL     OW14159   0.717   5.136   0.811  0.1116 -0.3470  0.1229
 1317SOL    HW114160   0.624   5.114   0.843 -0.5997  0.9712 -0.9568
 1317SOL    HW214161   0.744   5.073   0.739 -0.3530 -0.1147 -0.2562
 1318SOL     OW14162   4.625   0.794   2.295 -0.4463  0.1178  0.0796
 1318SOL    HW114163   4.583   0.711   2.256 -2.1072  1.1585 -0.4004
 1318SOL    HW214164   4.714   0.810   2.252 -0.2553 -1.2349 -0.0562
 1319SOL     OW14165   2.244   2.129   1.429 -0.0222 -0.3378 -0.5323
 1319SOL    HW114166   2.215   2.152   1.522 -0.4484  1.2678 -1.0403
 1319SOL    HW214167   2.323   2.068   1.433  0.6559  0.6058  0.8905
 1320SOL     OW14168   1.354   1.018   0.830  0.0563  0.0377 -0.1175
 1320SOL    HW114169   1.405   0.989   0.749 -2.2674 -0.4658 -1.4349
 1320SOL    HW214170   1.336   0.939   0.889  2.0963  0.4666  1.1463
 1321SOL     OW14171   1.963   7.424   2.040  0.2384 -0.0624  0.6426
 1321SOL    HW114172   2.005   7.498   2.093  2.4211 -1.3842  0.8316
 1321SOL    HW214173   1.874   7.401   2.079  0.6931  0.6894  2.1718
 1322SOL     OW14174   1.632   9.581   2.841 -0.0056 -0.4048 -0.1412
 1322SOL    HW114175   1.554   9.560   2.782 -0.1999 -0.7839  0.2498
 1322SOL    HW214176   1.616   9.666   2.890 -0.5852 -0.9575  0.6450
 1323SOL     OW14177   1.699   9.901   3.414  0.1911  0.2140  0.0069
 1323SOL    HW114178   1.748   9.963   3.475  0.8865 -0.6036  0.2813
 1323SOL    HW214179   1.648   9.834   3.468 -1.7929  1.4668 -0.2529
 1324SOL     OW14180   0.950   0.516   0.367 -0.4024  0.9353 -0.7137
 1324SOL    HW114181   0.927   0.611   0.344 -2.4177  1.2713  2.2923
 1324SOL    HW214182   0.898   0.454   0.308 -1.7898  1.7471 -0.3879
 1325SOL     OW14183   3.058   0.085   1.529  0.1090  0.3724 -0.2631
 1325SOL    HW114184   3.056   0.090   1.629 -0.6627 -0.0536 -0.2511
 1325SOL    HW214185   3.108   0.163   1.493 -0.2793  0.9533  0.4245
 1326SOL     OW14186   1.147   4.535   0.803 -0.8773  0.4205 -0.5209
 1326SOL    HW114187   1.114   4.460   0.860  0.5405 -0.9018 -1.3505
 1326SOL    HW214188   1.073   4.569   0.746 -1.9885  0.9082  1.1931
 1327SOL     OW14189   1.005   6.387   2.972 -0.4485 -0.1271  0.3895
 1327SOL    HW114190   0.968   6.478   2.954 -2.9974 -1.2529 -0.2918
 1327SOL    HW214191   1.080   6.369   2.908 -2.8364 -0.1917 -2.5142
 1328SOL     OW14192   0.622   6.601   2.631 -0.0381 -0.9286  0.0800
 1328SOL    HW114193   0.652   6.688   2.593  0.5367 -2.0186 -2.0776
 1328SOL    HW214194   0.662   6.589   2.722 -0.4056  1.1953  0.5327
 1329SOL     OW14195   8.167   1.326   2.680 -0.1820 -0.4404  0.0827
 1329SOL    HW114196   8.083   1.344   2.730  0.3403 -2.3935  1.7133
 1329SOL    HW214197   8.220   1.256   2.727  1.7586 -0.1695 -1.6138
 1330SOL     OW14198   0.691   5.777   2.133 -1.0859 -0.5322 -0.1960
 1330SOL    HW114199   0.744   5.734   2.206 -2.2587 -2.0299 -0.1999
 1330SOL    HW214200   0.718   5.873   2.124  3.6746 -1.9305 -2.1573
 1331SOL     OW14201   7.103   0.482   2.707  0.1477  0.1386  0.5227
 1331SOL    HW114202   7.122   0.467   2.610  2.8510 -0.9092  1.1627
 1331SOL    HW214203   7.110   0.580   2.727 -1.8822  0.5384 -0.5921
 1332SOL     OW14204   4.690   2.070   1.410 -0.2996  0.5339 -0.2806
 1332SOL    HW114205   4.635   2.081   1.327 -1.9015 -0.8566  0.5769
 1332SOL    HW214206   4.648   2.120   1.485  0.0927  0.1790  0.1791
 1333SOL     OW14207   3.956   3.314   2.547  0.0644  0.5713 -0.2105
 1333SOL    HW114208   3.888   3.270   2.488 -0.9066  1.4287  0.2561
 1333SOL    HW214209   4.030   3.250   2.566  0.0866  0.0916 -1.8716
 1334SOL     OW14210   2.514   9.251   0.207  0.0291  0.3083  0.2143
 1334SOL    HW114211   2.469   9.259   0.296  1.8521 -3.1635  1.5551
 1334SOL    HW214212   2.600   9.300   0.208  0.0615  0.2469  0.3862
 1335SOL     OW14213   0.860   3.183   1.755  0.1787  0.4027 -0.4547
 1335SOL    HW114214   0.900   3.231   1.678  0.2173 -1.1408 -1.4205
 1335SOL    HW214215   0.913   3.100   1.774 -0.2418  0.4050  0.7750
 1336SOL     OW14216   0.159   4.287   1.546 -0.7784  0.3175 -0.2715
 1336SOL    HW114217   0.083   4.337   1.585 -1.4451  2.1159 -3.6815
 1336SOL    HW214218   0.129   4.194   1.521 -0.9702 -0.0339  1.2316
 1337SOL     OW14219   8.986   5.046   2.994 -0.1230 -0.2151  0.2675
 1337SOL    HW114220   8.957   4.951   3.000  1.2153 -0.6160  0.7737
 1337SOL    HW214221   9.084   5.049   2.974 -0.5226  1.0742 -1.6455
 1338SOL     OW14222   9.847   0.106   3.428  0.2672  0.1805  0.0563
 1338SOL    HW114223   9.867   0.009   3.444 -1.3435 -0.4509 -1.5922
 1338SOL    HW214224   9.892   0.135   3.344 -1.7092  0.0377 -1.0727
 1339SOL     OW14225   0.293   8.627   0.207 -0.3834 -0.0557 -0.3546
 1339SOL    HW114226   0.273   8.530   0.211 -0.6899 -0.2274 -3.9653
 1339SOL    HW214227   0.274   8.670   0.295 -4.3339 -2.4949  0.0846
 1340SOL     OW14228   9.436   4.581   0.029 -0.2644 -0.4428 -0.0811
 1340SOL    HW114229   9.436   4.675  -0.005 -0.6695 -0.3176  0.2574
 1340SOL    HW214230   9.530   4.547   0.036  0.0752  0.8479  2.2816
 1341SOL     OW14231   1.096   5.387   2.893  0.1456  0.1353 -0.0099
 1341SOL    HW114232   1.093   5.472   2.945  0.1942 -0.3975  0.8686
 1341SOL    HW214233   1.176   5.334   2.920  0.0670 -0.2296 -0.4922
 1342SOL     OW14234   2.352   8.729   2.249  0.1365  0.2061 -0.6673
 1342SOL    HW114235   2.347   8.827   2.233  0.9960  0.6753  1.7082
 1342SOL    HW214236   2.265   8.696   2.283  0.6638  0.6751  1.1718
 1343SOL     OW14237   8.630   3.139   2.745 -0.5035 -0.6111 -0.8308
 1343SOL    HW114238   8.643   3.067   2.813 -0.8629 -1.5992 -1.7945
 1343SOL    HW214239   8.597   3.222   2.791 -1.2462 -1.4160  0.1329
 1344SOL     OW14240   6.137   9.371   2.343 -0.3438  0.2702  0.2659
 1344SOL    HW114241   6.071   9.412   2.279  1.2556  1.0067 -0.9477
 1344SOL    HW214242   6.185   9.443   2.392  0.4625 -0.2280  0.2139
 1345SOL     OW14243   3.439   8.182   1.705  0.0005 -0.5936 -0.3218
 1345SOL    HW114244   3.506   8.115   1.672  0.9404 -0.0685  0.4874
 1345SOL    HW214245   3.483   8.271   1.714 -1.2735  0.1711 -1.5094
 1346SOL     OW14246   2.061   7.147   1.620 -0.4717 -0.0390  0.1907
 1346SOL    HW114247   2.084   7.185   1.710  0.1126  0.4737 -0.1730
 1346SOL    HW214248   2.018   7.058   1.632  0.9359 -0.6283  0.9173
 1347SOL     OW14249   3.502   4.600   0.468  0.3445 -0.3844  0.1997
 1347SOL    HW114250   3.464   4.681   0.424 -1.3964 -2.8156 -2.9270
 1347SOL    HW214251   3.590   4.577   0.425  0.0969 -1.0283  0.0333
 1348SOL     OW14252   7.608   1.890   0.253 -0.0407 -0.0499  0.1308
 1348SOL    HW114253   7.702   1.897   0.285  0.7584 -0.5875 -2.0184
 1348SOL    HW214254   7.606   1.898   0.153 -2.1232 -1.4028  0.0353
 1349SOL     OW14255   3.071   4.307   2.443 -0.1656 -0.1904  0.0144
 1349SOL    HW114256   3.157   4.257   2.440  0.5030  0.8974  0.7229
 1349SOL    HW214257   3.087   4.403   2.420 -1.8218 -0.7456 -3.7468
 1350SOL     OW14258   2.514   4.476   3.412  0.6044 -0.0215 -0.7109
 1350SOL    HW114259   2.511   4.569   3.448 -0.2991  0.3599 -1.7459
 1350SOL    HW214260   2.481   4.413   3.481 -0.1395  0.5918 -0.5011
 1351SOL     OW14261   2.596   7.431   0.785 -0.0171 -0.3817  0.0849
 1351SOL    HW114262   2.681   7.469   0.750  0.6398 -1.0344  0.9682
 1351SOL    HW214263   2.534   7.413   0.708  0.2794  0.9545 -0.4658
 1352SOL     OW14264   2.239   0.021   1.003  0.0148  0.3442 -0.3662
 1352SOL    HW114265   2.332   0.019   0.967  0.0708 -0.4550 -0.1966
 1352SOL    HW214266   2.239  -0.017   1.096 -1.0918 -3.5503 -1.8494
 1353SOL     OW14267   0.682   0.483   1.140 -0.4739 -0.1152  0.4572
 1353SOL    HW114268   0.724   0.395   1.118  0.4496  0.8099 -1.6571
 1353SOL    HW214269   0.749   0.556   1.125 -1.5187  1.0291  1.2910
 1354SOL     OW14270   9.147   2.938   2.107  0.1411  0.0830  0.1188
 1354SOL    HW114271   9.182   2.851   2.073 -0.1608 -0.2426  0.6173
 1354SOL    HW214272   9.166   2.945   2.205 -0.2808  0.3480  0.1857
 1355SOL     OW14273   8.510   4.400   0.336 -0.1480 -0.2095 -0.1253
 1355SOL    HW114274   8.515   4.342   0.255 -1.7660 -0.7889  0.1691
 1355SOL    HW214275   8.599   4.443   0.352  1.2864 -3.1376  0.0648
 1356SOL     OW14276   2.068   5.888   0.544  0.6722  0.8897 -0.0402
 1356SOL    HW114277   2.015   5.955   0.493  0.7792  1.0856  0.1051
 1356SOL    HW214278   2.163   5.918   0.551  1.1664 -0.2426 -1.6865
 1357SOL     OW14279   3.839   3.060   2.102 -0.4529  0.0158 -0.0664
 1357SOL    HW114280   3.778   3.136   2.125 -2.7375 -1.5030 -0.9286
 1357SOL    HW214281   3.933   3.083   2.128 -1.1061  3.1011 -0.3111
 1358SOL     OW14282   2.977   9.100   1.038  0.8320  0.1860  0.0071
 1358SOL    HW114283   2.950   9.039   0.963  2.8973  0.1329 -0.7328
 1358SOL    HW214284   2.920   9.082   1.118 -2.3832  1.2497 -1.9756
 1359SOL     OW14285   1.397   2.326   2.577 -0.0784  0.2668 -0.1349
 1359SOL    HW114286   1.338   2.301   2.654 -0.1265 -0.5794 -0.4331
 1359SOL    HW214287   1.478   2.266   2.577  0.9005  1.5667  0.4061
 1360SOL     OW14288   1.979   2.146   2.841 -0.0602 -0.3939 -0.9750
 1360SOL    HW114289   2.069   2.152   2.798  0.1685 -0.6682 -0.5426
 1360SOL    HW214290   1.982   2.192   2.930 -0.3133 -0.5099 -0.9067
 1361SOL     OW14291   1.069   5.294   3.268 -0.3504  0.1654 -0.6489
 1361SOL    HW114292   1.055   5.385   3.308 -0.9294 -0.3406  0.3220
 1361SOL    HW214293   1.163   5.285   3.238  0.4010  0.1750  1.6071
 1362SOL     OW14294   9.556   9.958   0.416 -0.0780  0.1053  0.5946
 1362SOL    HW114295   9.638   9.913   0.383 -0.6578 -1.3445  1.0734
 1362SOL    HW214296   9.542   9.935   0.513 -0.4022  1.2920  0.8388
 1363SOL     OW14297   7.858   1.166   0.516 -0.2223  0.1100 -0.2359
 1363SOL    HW114298   7.918   1.096   0.556 -0.8063 -0.2176  0.0840
 1363SOL    HW214299   7.912   1.233   0.466  0.3524 -0.5154 -0.4470
 1364SOL     OW14300   9.539   4.619   0.636  0.0657  0.1103 -0.3883
 1364SOL    HW114301   9.538   4.585   0.730 -0.0988  1.1928  0.0131
 1364SOL    HW214302   9.460   4.583   0.587 -0.8808  1.0083  0.4415
 1365SOL     OW14303   0.113   1.127   2.176 -0.2225  0.1608 -0.6329
 1365SOL    HW114304   0.072   1.122   2.085  2.6995  1.1430 -2.0870
 1365SOL    HW214305   0.095   1.216   2.216  0.2651  0.5087 -1.1736
 1366SOL     OW14306   2.274   3.279   2.851 -0.1058 -0.5822 -0.5918
 1366SOL    HW114307   2.356   3.246   2.896 -0.0580 -1.8973 -1.6066
 1366SOL    HW214308   2.201   3.291   2.919 -0.1138 -2.7587 -0.1685
 1367SOL     OW14309   9.199   2.970   0.717  0.1164  0.0580 -0.6679
 1367SOL    HW114310   9.155   3.057   0.695 -1.8288 -0.6979  0.1480
 1367SOL    HW214311   9.194   2.910   0.637  0.3408  0.2384 -0.8194
 1368SOL     OW14312   1.741   0.262   1.614 -0.6492 -0.1295  0.3124
 1368SOL    HW114313   1.696   0.324   1.550  1.3554 -0.7979 -1.8070
 1368SOL    HW214314   1.816   0.309   1.659 -0.2386 -0.5165  0.0293
 1369SOL     OW14315   1.700   7.568   1.599 -0.1641 -0.8359  0.0538
 1369SOL    HW114316   1.792   7.530   1.591  0.6500  0.9734  0.4468
 1369SOL    HW214317   1.687   7.604   1.692 -0.6948  0.3132 -0.4567
 1370SOL     OW14318   0.840   7.596   0.443 -0.1036  0.1121  0.5010
 1370SOL    HW114319   0.860   7.589   0.540  0.0405  1.0462  0.5400
 1370SOL    HW214320   0.910   7.548   0.391  0.5768  0.7773  0.7928
 1371SOL     OW14321   1.745   0.723   2.370 -0.4980 -0.0762  0.7006
 1371SOL    HW114322   1.744   0.748   2.467  1.1581  0.8892  0.4886
 1371SOL    HW214323   1.758   0.805   2.315 -2.0961 -0.5338 -0.3869
 1372SOL     OW14324   9.600   0.312   2.287 -0.1234  0.5045 -0.2625
 1372SOL    HW114325   9.637   0.387   2.341 -1.1886  0.2522  0.8624
 1372SOL    HW214326   9.500   0.319   2.284 -0.2546 -0.9907  0.0533
 1373SOL     OW14327   8.942   1.133   0.736  0.1478  0.0875 -0.4103
 1373SOL    HW114328   8.988   1.047   0.713 -0.3992 -0.6258  1.0580
 1373SOL    HW214329   9.009   1.201   0.763  0.5676  0.0631 -1.3483
 1374SOL     OW14330   3.661   4.877   1.054 -0.5617 -0.6665  0.2926
 1374SOL    HW114331   3.716   4.904   0.975  0.6995 -0.4506  1.2344
 1374SOL    HW214332   3.580   4.935   1.060  1.2155  1.7979  1.2761
 1375SOL     OW14333   1.376   1.363   1.659  0.4441  0.2677 -0.0936
 1375SOL    HW114334   1.441   1.412   1.601 -0.5006 -0.2902 -1.6480
 1375SOL    HW214335   1.386   1.394   1.754  0.6103  2.6616 -0.8628
 1376SOL     OW14336   0.697   4.457   2.349 -0.4517  0.2250  0.9699
 1376SOL    HW114337   0.647   4.370   2.344 -2.4890  1.3739  0.7700
 1376SOL    HW214338   0.774   4.447   2.412 -0.3011 -1.8941  0.4951
 1377SOL     OW14339   2.290   3.450   2.260 -0.0248  0.6741  0.4788
 1377SOL    HW114340   2.367   3.462   2.323  1.8844  0.5697 -1.7467
 1377SOL    HW214341   2.271   3.353   2.248 -0.0365  0.6727  0.5118
 1378SOL     OW14342   1.126   0.737   1.877 -0.1229  0.4961 -0.3318
 1378SOL    HW114343   1.160   0.766   1.788 -0.3625 -0.0305 -0.6031
 1378SOL    HW214344   1.043   0.787   1.900  0.7547  1.6838  0.2689
 1379SOL     OW14345   3.830   3.431   1.240 -0.0016 -0.0487 -0.0849
 1379SOL    HW114346   3.816   3.409   1.337 -1.6397 -1.0346 -0.5339
 1379SOL    HW214347   3.755   3.393   1.186  0.5991  0.9957 -1.6822
 1380SOL     OW14348   1.233   0.311   1.856 -0.1169  0.0144 -0.0448
 1380SOL    HW114349   1.309   0.262   1.899 -0.0713  0.7256  0.6909
 1380SOL    HW214350   1.208   0.264   1.771  0.6473 -0.6535  0.0843
 1381SOL     OW14351   9.059   0.316   2.140 -0.5315 -0.0692 -0.2458
 1381SOL    HW114352   9.030   0.384   2.073  1.3771 -0.2644 -1.2908
 1381SOL    HW214353   9.021   0.340   2.230 -0.3297  2.0575 -0.7077
 1382SOL     OW14354   3.023   1.321   1.784  0.0939 -0.4977 -0.2160
 1382SOL    HW114355   3.117   1.290   1.799  0.7256  2.3332  2.3099
 1382SOL    HW214356   3.022   1.393   1.715 -0.1397 -0.2732  0.0159
 1383SOL     OW14357   2.283   7.184   2.887 -0.0628 -0.0895 -0.0434
 1383SOL    HW114358   2.343   7.259   2.861 -0.2056 -0.0533 -0.2690
 1383SOL    HW214359   2.338   7.102   2.905  0.2248  0.4828  1.7195
 1384SOL     OW14360   9.068   4.316   0.608 -0.1068  0.8614 -0.3900
 1384SOL    HW114361   8.970   4.300   0.612  0.4500 -2.8735 -0.4835
 1384SOL    HW214362   9.090   4.372   0.528 -2.0495  0.9723 -0.8582
 1385SOL     OW14363   4.287   7.618   2.721  0.3385 -0.0130  0.4324
 1385SOL    HW114364   4.345   7.697   2.704 -0.6418  1.0222  1.7416
 1385SOL    HW214365   4.194   7.648   2.742 -0.7272 -1.6521 -1.7366
 1386SOL     OW14366   9.470   0.190   0.211 -0.1545  0.1268 -0.7257
 1386SOL    HW114367   9.505   0.111   0.160 -0.0961 -1.2026  1.3072
 1386SOL    HW214368   9.469   0.168   0.309 -1.5424  2.1323 -0.2730
 1387SOL     OW14369   1.735   1.606   2.832 -0.3499  0.4147 -0.0999
 1387SOL    HW114370   1.792   1.669   2.780 -0.4136  1.0065  0.5298
 1387SOL    HW214371   1.640   1.615   2.801 -0.3061  0.3972 -0.2375
 1388SOL     OW14372   2.905   5.512   0.339 -0.1246 -0.0607 -0.1321
 1388SOL    HW114373   2.865   5.524   0.248 -0.9959  1.9293  0.4879
 1388SOL    HW214374   2.849   5.449   0.392  1.5157 -2.9304 -1.6001
 1389SOL     OW14375   4.099   4.195   0.291  0.5421 -0.3047  0.4040
 1389SOL    HW114376   4.193   4.208   0.260  0.1603  1.3078 -0.1122
 1389SOL    HW214377   4.065   4.280   0.330 -0.4842 -1.0762  1.2280
 1390SOL     OW14378   3.181   6.753   0.027 -0.1829 -0.1665  0.1803
 1390SOL    HW114379   3.226   6.664   0.018 -0.6145 -0.4703  0.9439
 1390SOL    HW214380   3.222   6.804   0.102  1.2744  1.0363 -1.3966
 1391SOL     OW14381   9.660   9.455   1.489  0.6031  0.1997 -0.4097
 1391SOL    HW114382   9.714   9.429   1.568  0.2506  1.2157  0.1725
 1391SOL    HW214383   9.696   9.409   1.407  1.7175  0.0971  0.1295
 1392SOL     OW14384   9.115   4.624   2.700 -0.4219  0.0598  0.4536
 1392SOL    HW114385   9.164   4.544   2.666  0.3373  0.4314  0.6642
 1392SOL    HW214386   9.023   4.597   2.728 -0.0851 -0.7891  0.7680
 1393SOL     OW14387   1.221   5.808   0.990  0.1986 -0.5259  0.2686
 1393SOL    HW114388   1.125   5.784   1.005 -0.0100 -0.2832 -0.6494
 1393SOL    HW214389   1.234   5.905   1.009  0.0172 -0.3065 -0.6739
 1394SOL     OW14390   1.183   4.793   2.423 -0.0674  0.4038 -0.1342
 1394SOL    HW114391   1.247   4.753   2.489 -0.0736 -0.1672 -0.4682
 1394SOL    HW214392   1.188   4.742   2.337 -2.3487 -0.8819  0.4469
 1395SOL     OW14393   8.194   2.102   1.863 -0.2914 -0.2407 -0.7195
 1395SOL    HW114394   8.193   2.201   1.867 -0.4384 -0.2446 -0.6430
 1395SOL    HW214395   8.174   2.071   1.770  0.8249 -0.1807 -0.9792
 1396SOL     OW14396   3.638   2.022   1.744 -0.4523 -0.2178  0.3043
 1396SOL    HW114397   3.569   2.026   1.816  0.9053  0.6706  1.5979
 1396SOL    HW214398   3.693   2.106   1.746  1.0455 -1.1541 -0.2956
 1397SOL     OW14399   0.127   2.262   3.039 -0.7254  0.1508  0.3454
 1397SOL    HW114400   0.136   2.167   3.066 -0.2029  0.7146  2.2208
 1397SOL    HW214401   0.107   2.267   2.941  0.8445 -1.8141 -0.1053
 1398SOL     OW14402   3.963   0.617   2.516 -0.3623  0.2048 -0.4703
 1398SOL    HW114403   4.043   0.581   2.564 -1.1633 -1.1264 -0.0909
 1398SOL    HW214404   3.979   0.712   2.490  0.3934  0.7024  1.7280
 1399SOL     OW14405   8.419   0.890   3.218 -0.0519  0.0861 -0.3578
 1399SOL    HW114406   8.413   0.926   3.311 -0.6052  2.2233 -1.1943
 1399SOL    HW214407   8.339   0.832   3.200 -0.3813  0.3524  0.2095
 1400SOL     OW14408   9.916   0.963   3.028  0.4222  0.1217  0.1566
 1400SOL    HW114409   9.946   0.923   2.942  0.0495 -0.1217  0.1399
 1400SOL    HW214410   9.992   0.963   3.093  0.5725 -0.1167 -0.0198
 1401SOL     OW14411   3.987   0.039   1.451  0.2034 -0.3604 -0.0808
 1401SOL    HW114412   3.933   0.063   1.531 -0.0911 -0.8674 -0.1256
 1401SOL    HW214413   3.996  -0.060   1.445  2.4171 -0.2237  0.7718
 1402SOL     OW14414   0.575   2.214   1.990 -0.7052  0.3773 -0.4751
 1402SOL    HW114415   0.546   2.119   2.004 -0.2100  0.1548 -0.9379
 1402SOL    HW214416   0.648   2.236   2.055 -0.7412  0.4074 -0.4448
 1403SOL     OW14417   1.992   6.224   2.064 -0.3262  0.1427  0.3628
 1403SOL    HW114418   2.071   6.276   2.031 -0.4371 -0.1913 -0.4261
 1403SOL    HW214419   1.951   6.272   2.142  0.6993  0.2795  0.8330
 1404SOL     OW14420   8.572   0.791   0.065 -0.3816 -0.4165  1.0219
 1404SOL    HW114421   8.635   0.752   0.132  0.4566  2.1165  1.7683
 1404SOL    HW214422   8.593   0.888   0.051 -1.2618 -0.5958 -2.0776
 1405SOL     OW14423   9.968   1.613   1.984 -0.7145  0.3176 -0.1355
 1405SOL    HW114424   9.908   1.559   2.043 -1.1148  0.6198 -0.2709
 1405SOL    HW214425  10.043   1.651   2.038 -0.2264 -0.6601 -0.0975
 1406SOL     OW14426   8.818   5.136   0.238 -0.2344  0.3844  0.4716
 1406SOL    HW114427   8.825   5.190   0.323 -0.5819  1.9010 -0.4370
 1406SOL    HW214428   8.744   5.070   0.246 -1.0604  1.3517  0.9082
 1407SOL     OW14429   0.280   3.099   0.226 -0.4923 -0.1231  0.2941
 1407SOL    HW114430   0.323   3.020   0.270 -2.3272 -0.8279  0.8538
 1407SOL    HW214431   0.267   3.172   0.293 -1.4132 -0.4282  0.4536
 1408SOL     OW14432   9.085   4.143   2.314  0.0725  0.3957  0.2256
 1408SOL    HW114433   9.145   4.117   2.390  2.0954  1.0093 -1.1224
 1408SOL    HW214434   9.130   4.211   2.257 -2.5452  2.0101 -0.0063
 1409SOL     OW14435   2.076   8.673   1.557 -0.2028 -0.2799  0.2478
 1409SOL    HW114436   2.073   8.669   1.457 -0.1161 -2.1087  0.3130
 1409SOL    HW214437   2.163   8.711   1.586 -0.7352  1.4943 -0.3873
 1410SOL     OW14438   3.324   6.620   2.952 -0.1806 -0.0378 -0.6318
 1410SOL    HW114439   3.292   6.669   2.871 -1.1283  0.4922  0.0546
 1410SOL    HW214440   3.373   6.683   3.013  0.7488 -0.4877 -0.8956
 1411SOL     OW14441   0.216   7.818   0.314  0.4322  0.3935 -0.1557
 1411SOL    HW114442   0.263   7.775   0.237  0.8816  1.9250 -0.7610
 1411SOL    HW214443   0.255   7.909   0.330  0.7804 -0.1623  2.3031
 1412SOL     OW14444   8.191   3.137   0.177  0.1291  0.5753  0.2808
 1412SOL    HW114445   8.267   3.200   0.190 -0.2252  1.3035 -1.0944
 1412SOL    HW214446   8.212   3.076   0.101 -1.2404  1.6980 -1.0198
 1413SOL     OW14447   2.308   0.492   0.909  0.0905  0.3475  0.7623
 1413SOL    HW114448   2.353   0.468   0.823 -1.0355 -0.1870  0.3142
 1413SOL    HW214449   2.261   0.412   0.947 -2.6719  1.4727 -0.1153
 1414SOL     OW14450   0.595   8.425   1.065 -0.1546  0.3996  0.1828
 1414SOL    HW114451   0.652   8.493   1.111  0.2838  0.2024 -0.0705
 1414SOL    HW214452   0.602   8.337   1.112 -0.5788  0.4754  0.3993
 1415SOL     OW14453   7.495   1.471   1.888  0.2331 -0.2390  0.0906
 1415SOL    HW114454   7.507   1.534   1.965 -0.3286 -2.6934  2.2704
 1415SOL    HW214455   7.584   1.436   1.859  0.6431  2.3570 -1.8474
 1416SOL     OW14456   3.965   3.380   3.090 -0.1306  0.2623 -0.3731
 1416SOL    HW114457   4.044   3.336   3.134 -0.6488 -0.0177  0.2778
 1416SOL    HW214458   3.956   3.347   2.996  0.6271  0.4192 -0.5082
 1417SOL     OW14459   9.600   0.256   0.642  0.3838 -0.4457  0.6420
 1417SOL    HW114460   9.695   0.282   0.624  0.4455 -0.7513  0.5067
 1417SOL    HW214461   9.586   0.161   0.612 -0.0169 -0.3330  0.4714
 1418SOL     OW14462   1.468   4.843   1.074  0.0564 -0.2216  0.1396
 1418SOL    HW114463   1.411   4.918   1.041 -0.7721 -1.2710 -0.8745
 1418SOL    HW214464   1.562   4.857   1.045 -0.0661  0.4914  0.0777
 1419SOL     OW14465   4.843   9.558   2.495 -0.1408  0.3083  0.0819
 1419SOL    HW114466   4.860   9.473   2.544 -0.2264 -0.6742 -1.5786
 1419SOL    HW214467   4.867   9.547   2.399  0.6067  2.4031 -0.0076
 1420SOL     OW14468   1.428   4.815   2.827  0.1066 -0.6053  1.1226
 1420SOL    HW114469   1.455   4.885   2.761 -1.1930 -0.0698  1.1438
 1420SOL    HW214470   1.381   4.741   2.780 -0.7219 -0.2780  1.4190
 1421SOL     OW14471   2.654   4.352   1.271 -0.3577 -0.4933 -0.8298
 1421SOL    HW114472   2.655   4.427   1.338 -0.7529 -0.5731 -0.7348
 1421SOL    HW214473   2.702   4.273   1.310 -1.3280 -0.8307 -0.2968
 1422SOL     OW14474   2.368   7.693   1.315 -0.0812  0.4350 -0.6924
 1422SOL    HW114475   2.269   7.695   1.298 -0.3104  0.3568  0.5664
 1422SOL    HW214476   2.387   7.731   1.405  1.1681  1.5888 -1.4198
 1423SOL     OW14477   3.329   9.751   1.031 -0.5501  0.3094  0.0762
 1423SOL    HW114478   3.306   9.683   0.961  0.6953  0.7259 -0.7574
 1423SOL    HW214479   3.323   9.710   1.122 -1.6834 -0.3766 -0.3003
 1424SOL     OW14480   9.460   0.373   3.375  0.2780 -0.0239  0.3415
 1424SOL    HW114481   9.468   0.329   3.465  0.5424 -1.7510 -0.5249
 1424SOL    HW214482   9.410   0.314   3.313  0.4354  1.0066 -0.7726
 1425SOL     OW14483   2.939   1.523   3.238 -0.1290  0.2413  0.0462
 1425SOL    HW114484   2.908   1.605   3.286 -0.0572  0.0601  0.4061
 1425SOL    HW214485   3.011   1.548   3.173 -0.9021  0.6257 -0.6520
 1426SOL     OW14486   3.382   6.242   3.082 -0.3859  0.0090 -0.1549
 1426SOL    HW114487   3.443   6.205   3.152  1.3893 -0.6521 -1.9813
 1426SOL    HW214488   3.382   6.342   3.087  1.2465  0.0396 -0.4066
 1427SOL     OW14489   8.549   4.738   0.112 -0.8739  0.9521  0.6142
 1427SOL    HW114490   8.544   4.816   0.175 -0.9975 -0.5587  2.5395
 1427SOL    HW214491   8.586   4.659   0.161  2.0424  0.5766 -2.0914
 1428SOL     OW14492   0.279   3.278   3.266  0.4432  0.5742 -0.3352
 1428SOL    HW114493   0.364   3.302   3.314  1.7375 -1.3356 -1.5689
 1428SOL    HW214494   0.279   3.180   3.246 -1.3075  0.8456 -1.7919
 1429SOL     OW14495   0.342   7.695   0.093 -0.2729  0.1588  0.5853
 1429SOL    HW114496   0.432   7.651   0.084 -0.6351 -0.5064  0.1132
 1429SOL    HW214497   0.294   7.688   0.006 -1.0426 -0.0750  1.0228
 1430SOL     OW14498   3.379   8.213   1.045 -0.1284  0.7152 -0.2424
 1430SOL    HW114499   3.373   8.268   1.128  1.5103  0.5511  0.0005
 1430SOL    HW214500   3.447   8.253   0.983  1.0828 -0.9859 -0.0623
 1431SOL     OW14501   9.688   5.079   3.301 -0.2607 -0.0532 -0.6274
 1431SOL    HW114502   9.601   5.037   3.327 -0.3555 -1.1630 -2.6080
 1431SOL    HW214503   9.676   5.129   3.215  1.0049 -0.0237 -0.7914
 1432SOL     OW14504   4.053   8.697   1.510  0.0845  0.5883  0.6359
 1432SOL    HW114505   3.982   8.767   1.504  1.8030  2.6538  3.4335
 1432SOL    HW214506   4.125   8.727   1.572  2.0131 -2.7081  0.1271
 1433SOL     OW14507   2.752   0.009   0.281 -0.1248 -0.0139 -0.1779
 1433SOL    HW114508   2.663   0.035   0.318  0.8512  0.0462  2.2019
 1433SOL    HW214509   2.802   0.091   0.251 -0.1010  0.1386  0.2763
 1434SOL     OW14510   1.487   7.996   0.323 -0.0951 -0.3131  0.2041
 1434SOL    HW114511   1.453   7.903   0.306  1.3773 -0.7404 -0.5142
 1434SOL    HW214512   1.428   8.062   0.278 -0.6598 -0.9655 -0.0247
 1435SOL     OW14513   0.531   7.566   2.117 -0.2157  0.3643  0.0954
 1435SOL    HW114514   0.612   7.516   2.148  0.0865  1.0763  0.4654
 1435SOL    HW214515   0.462   7.502   2.085 -0.5279 -0.3821  2.2017
 1436SOL     OW14516   1.399   0.780   1.813 -0.6479  0.0843 -0.2916
 1436SOL    HW114517   1.456   0.851   1.856 -1.3590 -1.4028  3.2907
 1436SOL    HW214518   1.307   0.783   1.852 -1.2001 -1.6970 -1.3814
 1437SOL     OW14519   0.528   4.030   3.359 -0.2134  0.1770 -0.7035
 1437SOL    HW114520   0.496   4.118   3.394 -2.2536  0.1714 -2.4496
 1437SOL    HW214521   0.499   4.019   3.264  0.6243 -2.0730 -0.7315
 1438SOL     OW14522   1.308   7.476   2.780 -0.1269  0.1600 -0.3900
 1438SOL    HW114523   1.225   7.505   2.830 -0.9438  0.2760 -1.7885
 1438SOL    HW214524   1.336   7.386   2.813  0.9687  1.3871  2.2251
 1439SOL     OW14525   0.458   1.751   0.641 -0.3715  0.2848  0.2901
 1439SOL    HW114526   0.425   1.831   0.591  0.8065  1.7353  1.7879
 1439SOL    HW214527   0.386   1.719   0.703 -0.3560  1.0681  0.7236
 1440SOL     OW14528   0.610   2.765   0.486 -0.0306  0.5096  0.3586
 1440SOL    HW114529   0.603   2.861   0.515  0.7562  0.7375 -0.1790
 1440SOL    HW214530   0.659   2.713   0.556  1.7259  1.0251 -0.4627
 1441SOL     OW14531   1.845   9.383   2.418 -0.2752 -0.1555 -0.1555
 1441SOL    HW114532   1.920   9.384   2.484  1.4855  0.5589 -2.1055
 1441SOL    HW214533   1.767   9.333   2.456 -0.3651  2.5890  3.5721
 1442SOL     OW14534   0.781   4.945   0.649  0.3247  0.1844 -0.0662
 1442SOL    HW114535   0.841   4.928   0.570 -0.8134  0.2565 -0.9660
 1442SOL    HW214536   0.712   4.873   0.654 -0.3699  0.8621  0.1281
 1443SOL     OW14537   3.210   6.214   2.567 -0.1656 -0.2110  0.4039
 1443SOL    HW114538   3.131   6.250   2.518 -0.8122 -2.5010 -0.2847
 1443SOL    HW214539   3.246   6.285   2.628 -1.1482  1.6970 -1.1842
 1444SOL     OW14540   0.088   7.215   2.368 -0.0538  0.2978  0.1402
 1444SOL    HW114541   0.020   7.286   2.349 -0.4492  0.0486  0.5951
 1444SOL    HW214542   0.113   7.219   2.465  2.0802  1.6937 -0.4431
 1445SOL     OW14543   2.283   2.169   2.062 -0.0413 -0.4932 -0.3348
 1445SOL    HW114544   2.313   2.150   2.155  0.4907  1.4220 -0.0916
 1445SOL    HW214545   2.348   2.130   1.997  0.3989 -0.5043  0.1154
 1446SOL     OW14546   2.625   2.718   1.461 -0.0573  0.1457 -0.0074
 1446SOL    HW114547   2.664   2.769   1.538  1.1930 -0.9313  0.0863
 1446SOL    HW214548   2.688   2.722   1.383 -0.1067 -0.9460 -0.1117
 1447SOL     OW14549   0.810   5.289   3.213 -0.0780 -0.2912 -0.1445
 1447SOL    HW114550   0.794   5.344   3.131 -0.2278  0.1684  0.1954
 1447SOL    HW214551   0.901   5.307   3.249  0.6592 -1.7779 -1.1969
 1448SOL     OW14552   4.026   0.326   3.267 -0.3209 -0.4545  1.0995
 1448SOL    HW114553   4.062   0.234   3.254  0.9732 -0.3070  3.4781
 1448SOL    HW214554   4.084   0.392   3.219  0.9510 -0.5162  2.5139
 1449SOL     OW14555   9.333   2.044   0.522 -0.1566  0.1478 -0.5330
 1449SOL    HW114556   9.301   2.125   0.572  0.2018  1.5550 -2.5214
 1449SOL    HW214557   9.254   1.994   0.487 -0.4363 -1.1107  1.7556
 1450SOL     OW14558   3.902   2.360   0.354  0.1353 -0.3518 -0.2029
 1450SOL    HW114559   3.829   2.428   0.357 -1.6363 -2.2074  0.0249
 1450SOL    HW214560   3.886   2.296   0.279  1.9088 -0.3869 -0.5741
 1451SOL     OW14561   9.348   2.195   0.889 -0.0623  0.5536  0.0444
 1451SOL    HW114562   9.366   2.101   0.919  0.7561  0.4586 -0.7165
 1451SOL    HW214563   9.291   2.194   0.807 -1.0005  0.7659  0.6853
 1452SOL     OW14564   9.325   3.763   2.325 -0.0994 -0.0333  0.2033
 1452SOL    HW114565   9.302   3.752   2.421  1.4675  0.1941  0.6163
 1452SOL    HW214566   9.425   3.772   2.315 -0.2252 -0.3110 -1.4547
 1453SOL     OW14567   3.989   2.990   3.280  0.1626  0.2334 -0.2349
 1453SOL    HW114568   4.056   3.043   3.334  0.5776  0.4099 -0.9201
 1453SOL    HW214569   4.035   2.948   3.202  0.2125 -2.6094  1.2428
 1454SOL     OW14570   3.818   3.404   0.188  0.2328  0.0774  0.1233
 1454SOL    HW114571   3.872   3.488   0.184  1.1437 -0.4736  0.7477
 1454SOL    HW214572   3.826   3.355   0.101 -1.4079  1.3169 -0.7300
 1455SOL     OW14573   9.302   3.306   2.824  0.0125 -0.1059  0.0675
 1455SOL    HW114574   9.296   3.341   2.731 -1.1343  0.1084  0.2102
 1455SOL    HW214575   9.227   3.240   2.840  0.5553 -0.6005  0.6419
 1456SOL     OW14576   8.852   4.723   0.160 -0.2807  0.1216  0.1641
 1456SOL    HW114577   8.913   4.649   0.130 -1.3692 -1.1033  0.9526
 1456SOL    HW214578   8.831   4.782   0.081  0.1124 -0.7422 -0.5967
 1457SOL     OW14579   1.771   8.149   2.573 -0.3957 -0.3564  0.0328
 1457SOL    HW114580   1.719   8.064   2.570  0.8596 -1.1399 -0.0676
 1457SOL    HW214581   1.864   8.130   2.605 -0.0046  0.9204 -0.3072
 1458SOL     OW14582   0.805   7.883   2.436  0.6385 -0.5305 -0.3736
 1458SOL    HW114583   0.850   7.908   2.350  1.3378 -1.3680 -0.2477
 1458SOL    HW214584   0.857   7.921   2.512  1.0933 -1.4495 -0.2306
 1459SOL     OW14585   2.576   9.359   2.998 -0.0611 -0.9205 -0.5163
 1459SOL    HW114586   2.511   9.430   2.971  0.3950  0.1095  1.0165
 1459SOL    HW214587   2.596   9.300   2.919 -0.2513  0.8057 -1.8880
 1460SOL     OW14588   9.612   9.311   2.289  0.8175  0.1989  0.3869
 1460SOL    HW114589   9.582   9.247   2.359 -1.4194 -0.2655 -0.9614
 1460SOL    HW214590   9.605   9.404   2.323 -0.8703  0.0111  0.5772
 1461SOL     OW14591   2.206   2.238   2.505  0.4454  0.2433  0.0683
 1461SOL    HW114592   2.223   2.231   2.603  0.3930 -1.6625 -0.0451
 1461SOL    HW214593   2.108   2.240   2.488  0.4515  0.0839  0.0176
 1462SOL     OW14594   2.598   3.579   0.394 -0.3260  0.2507 -0.2236
 1462SOL    HW114595   2.603   3.479   0.402 -1.4690  0.3012  1.5014
 1462SOL    HW214596   2.676   3.613   0.342 -0.7309 -1.6756 -2.1567
 1463SOL     OW14597   2.075   5.646   1.765  0.1752 -0.4211 -0.8392
 1463SOL    HW114598   2.138   5.586   1.715  2.3387  3.2299 -2.6671
 1463SOL    HW214599   1.985   5.640   1.723  0.4761 -1.9555 -1.3472
 1464SOL     OW14600   3.074   6.852   1.688 -1.0792  0.7319 -0.0027
 1464SOL    HW114601   3.109   6.933   1.641 -2.9557  1.9146  0.5589
 1464SOL    HW214602   3.025   6.794   1.622  0.1960  0.0883 -0.3894
 1465SOL     OW14603   0.401   2.596   0.709  0.3671  0.5579  0.0455
 1465SOL    HW114604   0.339   2.673   0.699  0.6879  0.8654  0.4348
 1465SOL    HW214605   0.398   2.541   0.625  0.6628  1.3815 -0.5163
 1466SOL     OW14606   2.487   8.239   3.421  0.4407  0.0230  0.5903
 1466SOL    HW114607   2.519   8.334   3.418  0.3813  0.0125 -1.0081
 1466SOL    HW214608   2.410   8.228   3.358  0.7140 -1.1753  0.4520
 1467SOL     OW14609   8.765   5.179   3.014  0.2254  0.1765  0.2705
 1467SOL    HW114610   8.857   5.139   3.009 -0.6603 -2.2056  1.8276
 1467SOL    HW214611   8.752   5.223   3.103  0.3274  1.7646 -0.4899
 1468SOL     OW14612   0.019   6.412   1.090  0.0984  0.7803 -0.7559
 1468SOL    HW114613   0.099   6.401   1.149 -0.6976  0.6501  0.2987
 1468SOL    HW214614  -0.057   6.357   1.125  0.5139 -1.7381 -3.5915
 1469SOL     OW14615   2.490   7.303   1.314  0.0088  0.5465 -0.4923
 1469SOL    HW114616   2.474   7.282   1.217  0.4170  0.2734 -0.5025
 1469SOL    HW214617   2.549   7.384   1.320 -1.1309  1.3977 -0.4566
 1470SOL     OW14618   3.677   0.964   1.969  0.1032 -0.2042  0.6441
 1470SOL    HW114619   3.651   1.042   1.912 -1.2567 -0.8063  0.4228
 1470SOL    HW214620   3.604   0.944   2.035  1.1697 -0.2347  1.8405
 1471SOL     OW14621   1.876   8.963   0.232  0.0500 -0.2237  0.3692
 1471SOL    HW114622   1.797   8.966   0.170  0.6146  0.5066 -0.3264
 1471SOL    HW214623   1.936   8.887   0.206 -1.0008 -1.4982  1.6216
 1472SOL     OW14624   4.530   2.081   1.160 -0.3888  0.2198  0.7392
 1472SOL    HW114625   4.539   1.982   1.166  1.3677  0.3027 -0.0309
 1472SOL    HW214626   4.455   2.104   1.098 -0.2246 -0.6358  0.2108
 1473SOL     OW14627   0.059   8.497   2.763  0.5982  0.2256  0.0777
 1473SOL    HW114628   0.001   8.416   2.764  0.7244  0.1387  1.4110
 1473SOL    HW214629   0.130   8.488   2.833  0.2397  1.7513  0.6628
 1474SOL     OW14630   0.173   4.024   2.125 -0.0921 -0.1638 -0.0500
 1474SOL    HW114631   0.208   4.096   2.065  0.0346 -0.9870 -0.9589
 1474SOL    HW214632   0.212   4.036   2.216 -0.7028  1.4056  0.0245
 1475SOL     OW14633   0.857   0.293   1.382  0.0022 -0.0101  0.3548
 1475SOL    HW114634   0.783   0.284   1.449 -0.7013  0.7584 -0.2983
 1475SOL    HW214635   0.818   0.289   1.290  0.9035 -0.5819 -0.0078
 1476SOL     OW14636   2.952   1.818   0.257  0.7975 -0.5959  0.6143
 1476SOL    HW114637   2.944   1.724   0.225 -0.8069 -0.3727  0.3117
 1476SOL    HW214638   3.003   1.872   0.189  0.2854 -0.8807 -0.0057
 1477SOL     OW14639   9.112   4.811   0.667  0.4248 -0.6539  0.1680
 1477SOL    HW114640   9.047   4.736   0.655 -0.5801  0.1064  0.8218
 1477SOL    HW214641   9.066   4.890   0.708  1.7724 -0.1270  0.7163
 1478SOL     OW14642   3.126   1.497   2.054  0.0050 -0.2314  1.0680
 1478SOL    HW114643   3.038   1.471   2.016 -1.0029  0.8016  2.6174
 1478SOL    HW214644   3.156   1.428   2.120 -1.0892  0.8488  2.7345
 1479SOL     OW14645   7.611   2.043   0.639 -0.3343  0.5336 -0.0628
 1479SOL    HW114646   7.597   2.079   0.731 -0.4062 -1.0163  0.5534
 1479SOL    HW214647   7.524   2.010   0.602 -0.0972  0.0211 -0.1810
 1480SOL     OW14648   2.472   6.829   0.871 -0.1816 -0.8376  0.2478
 1480SOL    HW114649   2.495   6.775   0.952 -0.2192 -0.6840  0.3594
 1480SOL    HW214650   2.492   6.925   0.888 -1.9652 -0.5375  0.7444
 1481SOL     OW14651   2.330   0.569   3.221 -0.3219 -0.3069 -0.6315
 1481SOL    HW114652   2.369   0.646   3.171 -0.2560 -0.2511 -0.4956
 1481SOL    HW214653   2.351   0.484   3.172 -0.3315 -0.2453 -0.7428
 1482SOL     OW14654   3.808   0.375   3.435 -0.3833  0.8352  0.2354
 1482SOL    HW114655   3.887   0.380   3.374  0.0732  3.6625  1.0168
 1482SOL    HW214656   3.805   0.285   3.478  1.5647  0.1884 -0.9048
 1483SOL     OW14657   0.774   8.603   0.404  0.0950  0.0539 -0.0456
 1483SOL    HW114658   0.773   8.538   0.328 -1.2119  1.5201 -1.3212
 1483SOL    HW214659   0.789   8.695   0.369 -0.8202  0.7907  1.4336
 1484SOL     OW14660   3.206   2.150   1.772  0.3695  0.7965 -0.1032
 1484SOL    HW114661   3.242   2.240   1.799  0.6306  0.2791  1.3070
 1484SOL    HW214662   3.106   2.153   1.772  0.3426  0.5215  1.9833
 1485SOL     OW14663   2.417   9.841   2.886  0.4459  0.0278 -0.1993
 1485SOL    HW114664   2.476   9.921   2.893  0.7155 -0.2165  0.3659
 1485SOL    HW214665   2.463   9.770   2.833 -0.7859  1.1362 -2.8376
 1486SOL     OW14666   8.759   2.946   0.700 -0.4677  0.6587  0.3074
 1486SOL    HW114667   8.743   2.894   0.616  1.2287 -0.3788  0.5943
 1486SOL    HW214668   8.819   2.894   0.760  2.1866  3.3707  0.1364
 1487SOL     OW14669   9.399   3.808   1.374 -0.5824 -0.4735 -0.1612
 1487SOL    HW114670   9.470   3.814   1.305 -0.0507 -2.2368  0.2132
 1487SOL    HW214671   9.384   3.898   1.415 -0.1295  0.3473 -1.7840
 1488SOL     OW14672   8.215   2.040   2.286 -0.6486  0.4894  0.1446
 1488SOL    HW114673   8.232   2.137   2.272 -1.4470  0.5551 -0.4246
 1488SOL    HW214674   8.301   1.994   2.308  0.2720  0.8241 -2.5180
 1489SOL     OW14675   2.668   5.668   0.456 -0.3557 -0.0079 -0.2848
 1489SOL    HW114676   2.753   5.709   0.489  0.6578 -1.4708 -1.0710
 1489SOL    HW214677   2.617   5.630   0.533  0.4337 -0.4817  0.0077
 1490SOL     OW14678   1.579   9.079   0.325  0.3192 -0.2549 -0.0640
 1490SOL    HW114679   1.496   9.113   0.370  1.4107  1.8095  0.4449
 1490SOL    HW214680   1.561   9.069   0.227 -0.5042  0.2709  0.0235
 1491SOL     OW14681   2.234   4.683   1.741  0.3792  0.3215 -0.0672
 1491SOL    HW114682   2.301   4.742   1.785  1.2077 -0.3626 -0.3984
 1491SOL    HW214683   2.146   4.692   1.787  0.9695  0.4186  1.0461
 1492SOL     OW14684   0.051   9.451   1.475  0.8128  0.5079 -0.1600
 1492SOL    HW114685   0.025   9.543   1.447 -2.1480 -0.4734 -0.8066
 1492SOL    HW214686   0.106   9.408   1.403 -1.3251  0.3152 -1.7338
 1493SOL     OW14687   7.638   0.183   2.486 -0.0930  0.0092  0.3176
 1493SOL    HW114688   7.616   0.090   2.514 -2.6769  0.3394 -0.4681
 1493SOL    HW214689   7.647   0.241   2.567  1.3566 -0.8620  0.7995
 1494SOL     OW14690   0.267   2.377   3.243  0.2755  0.4385  0.2318
 1494SOL    HW114691   0.257   2.316   3.165 -1.0288  0.2565  0.5390
 1494SOL    HW214692   0.213   2.343   3.320  0.4434  1.3682  0.7744
 1495SOL     OW14693   2.785   9.496   2.764 -0.0001  0.5324  0.0798
 1495SOL    HW114694   2.750   9.405   2.740  1.2081  0.3066 -0.8558
 1495SOL    HW214695   2.884   9.498   2.751  0.0321  1.8613  0.5122
 1496SOL     OW14696   1.124   0.127   1.649 -0.3617 -0.1882 -0.0905
 1496SOL    HW114697   1.036   0.127   1.696  0.2022  0.8870  0.9832
 1496SOL    HW214698   1.138   0.039   1.604 -1.7461 -0.5512  0.1684
 1497SOL     OW14699   3.250   5.193   2.028  0.9508 -0.3178 -0.5313
 1497SOL    HW114700   3.228   5.160   1.936  1.0961  0.5685 -0.8867
 1497SOL    HW214701   3.288   5.286   2.022 -0.5979  0.4133  0.5346
 1498SOL     OW14702   3.271   1.278   3.039 -0.2352 -0.2191  0.8365
 1498SOL    HW114703   3.336   1.204   3.022 -0.2679 -0.2775  0.9587
 1498SOL    HW214704   3.178   1.243   3.029 -0.2466 -0.1193  0.5971
 1499SOL     OW14705   3.450   3.686   0.824 -0.3170  0.2067 -0.3673
 1499SOL    HW114706   3.450   3.606   0.884 -0.7346  0.0850 -0.5299
 1499SOL    HW214707   3.514   3.671   0.749  0.5229  0.5341  0.2749
 1500SOL     OW14708   3.220   7.601   2.642 -0.3132  0.3287 -0.6921
 1500SOL    HW114709   3.125   7.633   2.641 -0.5016 -0.2351 -0.8970
 1500SOL    HW214710   3.260   7.611   2.552 -0.7523 -1.1298 -1.0632
 1501SOL     OW14711   1.638   5.422   0.434  0.0071 -0.1028  0.4335
 1501SOL    HW114712   1.627   5.498   0.498  0.2582  0.1436  0.1845
 1501SOL    HW214713   1.735   5.410   0.412  0.0314 -0.8685  0.9252
 1502SOL     OW14714   3.397   8.198   0.564 -0.0005  0.1728  0.1749
 1502SOL    HW114715   3.495   8.182   0.578  0.7720  2.7300 -1.7969
 1502SOL    HW214716   3.352   8.112   0.541  1.9206 -0.9296  0.4240
 1503SOL     OW14717   8.926   4.109   3.210 -0.3452  0.1153 -0.1610
 1503SOL    HW114718   8.848   4.063   3.252 -1.2967  0.9722 -0.9330
 1503SOL    HW214719   8.988   4.142   3.281 -0.8212 -0.3559  0.4765
 1504SOL     OW14720   7.411   0.577   2.741 -0.0296  0.1480  0.3379
 1504SOL    HW114721   7.383   0.671   2.719 -0.0349  0.0037 -0.2995
 1504SOL    HW214722   7.374   0.551   2.830 -2.4003 -0.2185 -0.7259
 1505SOL     OW14723   9.763   9.858   0.808 -0.6802 -0.3949 -0.4141
 1505SOL    HW114724   9.750   9.799   0.888  1.8743 -0.0197  0.3527
 1505SOL    HW214725   9.844   9.827   0.757  0.3959  2.0803 -0.2912
 1506SOL     OW14726   3.285   9.645   0.562 -0.0251 -0.3743  0.3524
 1506SOL    HW114727   3.264   9.582   0.487  0.7067 -0.6469  0.3733
 1506SOL    HW214728   3.213   9.714   0.569 -0.7900 -1.1564  0.2745
 1507SOL     OW14729   0.966   4.817   0.804 -0.5036  0.2319 -0.1048
 1507SOL    HW114730   0.882   4.870   0.806  0.6027  1.9991  0.2841
 1507SOL    HW214731   0.944   4.720   0.790 -2.5801  0.6716 -0.0035
 1508SOL     OW14732   2.871   7.725   1.371 -0.3626  0.5483 -0.2954
 1508SOL    HW114733   2.827   7.731   1.282  0.9926 -0.9322 -1.0833
 1508SOL    HW214734   2.908   7.815   1.396 -1.1132  1.0640 -1.0379
 1509SOL     OW14735   7.805   0.360   1.598 -0.1841  0.6543 -1.3327
 1509SOL    HW114736   7.715   0.404   1.594 -0.3441  0.5936  0.8822
 1509SOL    HW214737   7.844   0.372   1.690  0.0083 -3.3266 -0.8238
 1510SOL     OW14738   3.386   3.804   1.870 -0.1160 -0.4060 -0.4555
 1510SOL    HW114739   3.353   3.888   1.828  0.5138  0.1290  0.1036
 1510SOL    HW214740   3.485   3.796   1.857  0.7110  1.4744  3.7404
 1511SOL     OW14741   8.274   4.212   0.611 -0.6114  0.8742 -0.4566
 1511SOL    HW114742   8.266   4.191   0.514 -3.5838  3.4605 -0.8648
 1511SOL    HW214743   8.332   4.292   0.623  2.0030 -1.0432  0.2010
 1512SOL     OW14744   2.807   6.919   0.771 -0.6204 -0.3751 -0.1277
 1512SOL    HW114745   2.904   6.924   0.796 -0.7489  0.8371  0.1523
 1512SOL    HW214746   2.795   6.853   0.698  0.7715  1.1215 -1.7574
 1513SOL     OW14747   0.026   6.197   3.119 -0.4155  0.0425 -0.0061
 1513SOL    HW114748  -0.006   6.249   3.039  1.1158 -0.4031 -0.9181
 1513SOL    HW214749   0.002   6.247   3.203 -0.5166  1.3522 -0.8037
 1514SOL     OW14750   8.918   1.190   1.035 -0.1038 -0.0750  0.1290
 1514SOL    HW114751   8.827   1.229   1.022  0.2485  1.4767  2.0411
 1514SOL    HW214752   8.985   1.243   0.983 -0.3133 -1.3131 -1.4037
 1515SOL     OW14753   3.560   9.253   0.543 -0.6385  0.1848  0.3480
 1515SOL    HW114754   3.544   9.274   0.640 -1.1830  0.6304  0.1660
 1515SOL    HW214755   3.576   9.337   0.493 -2.3302  0.1473 -0.2993
 1516SOL     OW14756   9.886   4.070   2.855 -0.0877 -0.1893 -0.6205
 1516SOL    HW114757   9.905   4.090   2.951  0.1056 -1.0552 -0.4809
 1516SOL    HW214758   9.787   4.065   2.841 -0.0822 -2.3636  0.0064
 1517SOL     OW14759   3.755   8.073   0.192 -0.4971 -0.0376 -0.3964
 1517SOL    HW114760   3.838   8.079   0.249 -0.2659 -1.7456 -0.5202
 1517SOL    HW214761   3.684   8.023   0.242 -1.2566  0.9237 -0.5183
 1518SOL     OW14762   1.237   1.401   0.600 -0.1259 -0.3233 -0.2901
 1518SOL    HW114763   1.317   1.397   0.661 -0.3304  0.3515  0.0256
 1518SOL    HW214764   1.257   1.461   0.523  0.4182 -1.7896 -1.3293
 1519SOL     OW14765   3.390   0.614   1.891 -0.2952 -0.0311 -0.0890
 1519SOL    HW114766   3.340   0.606   1.977 -1.4477 -0.1596 -0.7611
 1519SOL    HW214767   3.387   0.708   1.859  0.5826  0.1273  0.2611
 1520SOL     OW14768   1.444   2.105   0.184 -0.4324 -0.0605 -0.3484
 1520SOL    HW114769   1.480   2.174   0.121  0.0615 -0.5890 -0.6425
 1520SOL    HW214770   1.463   2.014   0.148  0.1892 -0.3690  0.7565
 1521SOL     OW14771   0.041   1.842   0.649  0.0736  0.1851 -0.2826
 1521SOL    HW114772   0.022   1.937   0.674  0.0643 -0.2260  1.3168
 1521SOL    HW214773   0.122   1.810   0.699 -0.0295 -0.7088 -0.6843
 1522SOL     OW14774   9.152   3.692   2.785  0.6057 -0.6531  0.0792
 1522SOL    HW114775   9.081   3.624   2.803  0.9474 -0.9949  0.1347
 1522SOL    HW214776   9.208   3.704   2.867 -1.2860  1.8807  1.0628
 1523SOL     OW14777   4.379   9.305   2.427 -0.2789 -0.2886 -0.3543
 1523SOL    HW114778   4.429   9.376   2.377 -0.1432 -1.6563 -2.2105
 1523SOL    HW214779   4.281   9.327   2.426 -0.0233  1.0063  0.9963
 1524SOL     OW14780   1.815   4.637   2.428 -0.4699  0.3057 -1.0739
 1524SOL    HW114781   1.885   4.646   2.357  0.1331 -1.1550 -0.6818
 1524SOL    HW214782   1.858   4.645   2.518 -1.0707  1.1177 -0.8593
 1525SOL     OW14783   3.004   6.305   2.858  0.1835  0.1264 -0.1096
 1525SOL    HW114784   2.984   6.382   2.919  0.8501 -0.2534  0.6109
 1525SOL    HW214785   3.095   6.316   2.819 -0.2055  0.3182 -0.9698
 1526SOL     OW14786   2.653   5.235   2.296  0.6999 -0.4630  0.4590
 1526SOL    HW114787   2.655   5.138   2.270 -1.8642 -0.4012 -0.1078
 1526SOL    HW214788   2.618   5.243   2.390 -0.9251 -0.0145 -0.1563
 1527SOL     OW14789   3.814   0.526   1.715  0.3136 -0.4144 -0.6376
 1527SOL    HW114790   3.782   0.547   1.622 -1.5192  2.6147  0.6145
 1527SOL    HW214791   3.736   0.507   1.774  1.1735  1.2580  1.0971
 1528SOL     OW14792   4.712   1.736   1.399 -0.4025 -0.0956  0.4200
 1528SOL    HW114793   4.801   1.738   1.444  0.2165 -0.2433 -0.7982
 1528SOL    HW214794   4.648   1.684   1.456  0.2592  0.0679  1.3296
 1529SOL     OW14795   0.577   1.809   1.181 -0.0717 -0.6544  0.4553
 1529SOL    HW114796   0.606   1.724   1.136 -1.2661 -1.1151  0.5333
 1529SOL    HW214797   0.517   1.787   1.258 -1.5273  0.2999 -0.3686
 1530SOL     OW14798   0.497   2.732   1.256 -0.0515 -0.5000 -0.4344
 1530SOL    HW114799   0.496   2.632   1.253  0.2578 -0.5590  0.9156
 1530SOL    HW214800   0.468   2.769   1.168  0.0197 -1.7810 -1.0023
 1531SOL     OW14801   9.487   1.219   2.215  0.1886 -0.1730 -0.2610
 1531SOL    HW114802   9.398   1.246   2.253  1.1285  2.0053  0.4923
 1531SOL    HW214803   9.475   1.146   2.149 -2.0636 -0.5563  0.5451
 1532SOL     OW14804   2.822   6.199   3.285 -0.5254 -0.2334 -0.4819
 1532SOL    HW114805   2.921   6.201   3.269 -0.3329  0.6492  0.7987
 1532SOL    HW214806   2.795   6.276   3.342 -1.6437 -1.6135  0.9299
 1533SOL     OW14807   3.684   8.574   2.323 -0.6806 -0.1440  0.0858
 1533SOL    HW114808   3.736   8.489   2.320  0.1950  0.4260 -1.1388
 1533SOL    HW214809   3.594   8.560   2.281  0.3041  0.0834 -2.1826
 1534SOL     OW14810   2.602   0.147   1.994 -0.8736 -0.1486 -0.0264
 1534SOL    HW114811   2.589   0.098   1.908 -0.9086  0.1490 -0.1897
 1534SOL    HW214812   2.584   0.085   2.070 -0.1151 -0.6264 -0.2239
 1535SOL     OW14813   0.543   8.197   2.629  0.3167 -0.2983 -0.3390
 1535SOL    HW114814   0.555   8.165   2.535  3.0865  1.7297 -0.7379
 1535SOL    HW214815   0.577   8.127   2.692  0.1512 -0.9117 -0.9188
 1536SOL     OW14816   1.535   5.175   1.715 -0.0659  0.1911 -0.2195
 1536SOL    HW114817   1.522   5.163   1.813  0.0431 -1.3588 -0.3754
 1536SOL    HW214818   1.572   5.091   1.676  1.3470  1.2988 -1.3450
 1537SOL     OW14819   3.844   8.357   3.061  0.3058 -0.4775 -0.4353
 1537SOL    HW114820   3.921   8.384   3.004 -0.5835  1.0729 -0.9400
 1537SOL    HW214821   3.771   8.320   3.003 -0.1915  0.1106 -0.1828
 1538SOL     OW14822   0.051   2.271   3.418 -0.5713  0.1416  0.3425
 1538SOL    HW114823  -0.004   2.266   3.501 -0.8713  1.9104  0.2640
 1538SOL    HW214824   0.053   2.180   3.375 -1.4500 -0.4991  1.6007
 1539SOL     OW14825   2.218   0.557   0.428 -0.4287  0.2408 -0.2946
 1539SOL    HW114826   2.131   0.545   0.476 -0.9729  0.2669 -1.2716
 1539SOL    HW214827   2.248   0.652   0.437 -1.4526  0.6946 -1.5515
 1540SOL     OW14828   2.098   9.886   1.435 -0.0632  0.1186  0.3130
 1540SOL    HW114829   2.093   9.790   1.460  2.3546 -0.1210 -0.0121
 1540SOL    HW214830   2.077   9.943   1.515  0.7366 -0.6853  1.1070
 1541SOL     OW14831   1.137   1.446   1.557 -0.3913  0.1107  0.2741
 1541SOL    HW114832   1.076   1.368   1.543 -1.0037  0.7660 -0.8222
 1541SOL    HW214833   1.232   1.415   1.554 -0.5872 -0.4165 -1.6504
 1542SOL     OW14834   2.518   9.340   2.334 -0.1533 -0.5556 -0.6598
 1542SOL    HW114835   2.594   9.370   2.276 -0.8626 -0.0955 -1.3643
 1542SOL    HW214836   2.536   9.247   2.367 -0.2329 -1.2435 -2.4929
 1543SOL     OW14837   3.273   2.006   0.483 -0.1535 -0.5800  0.0294
 1543SOL    HW114838   3.275   1.945   0.404 -0.6472 -0.6195  0.0469
 1543SOL    HW214839   3.179   2.016   0.516 -0.2691  1.3327 -0.8449
 1544SOL     OW14840   2.783   0.289   1.648  0.3270  0.4583  0.1935
 1544SOL    HW114841   2.851   0.306   1.719 -0.5036  2.5392  0.5162
 1544SOL    HW214842   2.692   0.314   1.682 -0.2689  0.0863 -1.0967
 1545SOL     OW14843   3.595   8.661   0.704 -0.0474  0.3207  0.2162
 1545SOL    HW114844   3.581   8.654   0.605  0.9409  0.0217  0.0956
 1545SOL    HW214845   3.538   8.593   0.751 -1.0742  0.9511 -0.0931
 1546SOL     OW14846   1.919   0.037   1.606  0.2357  1.2413 -0.2472
 1546SOL    HW114847   1.840   0.098   1.600 -0.3134  0.3063 -2.9260
 1546SOL    HW214848   1.889  -0.055   1.632  0.4829  0.9999 -0.7999
 1547SOL     OW14849   2.789   9.359   0.679  0.2696  0.2712  0.6228
 1547SOL    HW114850   2.728   9.280   0.678 -1.4598  1.5569 -0.0392
 1547SOL    HW214851   2.856   9.351   0.606  1.2241 -1.3868  1.6442
 1548SOL     OW14852   1.089   1.727   2.357 -0.2117  0.1210  0.1361
 1548SOL    HW114853   1.050   1.695   2.443  1.1429 -2.2895 -0.0989
 1548SOL    HW214854   1.075   1.826   2.348 -3.3539 -0.1620  1.5117
 1549SOL     OW14855   3.749   9.288   2.121  0.3908  0.0087 -0.2012
 1549SOL    HW114856   3.746   9.364   2.056  0.1362  0.1062 -0.0731
 1549SOL    HW214857   3.834   9.292   2.173  1.2304 -0.8360 -1.4598
 1550SOL     OW14858   2.404   6.430   2.454  0.2560  0.5185 -0.4726
 1550SOL    HW114859   2.497   6.456   2.480  0.2502 -1.2657  1.4404
 1550SOL    HW214860   2.400   6.331   2.439 -0.7762  0.8966 -3.0963
 1551SOL     OW14861   1.962   6.406   1.683 -0.8405 -0.6714 -0.7538
 1551SOL    HW114862   2.056   6.438   1.690 -1.0952  0.0074 -0.3781
 1551SOL    HW214863   1.949   6.326   1.741 -1.1024  0.6489  1.0475
 1552SOL     OW14864   6.567   9.614   2.539 -0.4205 -0.1574  0.7564
 1552SOL    HW114865   6.628   9.574   2.607  3.3487  1.5096 -1.4750
 1552SOL    HW214866   6.598   9.588   2.447 -3.9752 -0.4027 -0.4784
 1553SOL     OW14867   8.831   2.662   3.085  0.3174  0.4982  0.1677
 1553SOL    HW114868   8.850   2.564   3.075  1.6124  0.7170  0.3898
 1553SOL    HW214869   8.732   2.677   3.081  0.1214 -0.7846 -0.1348
 1554SOL     OW14870   9.686   3.710   2.974  0.0419  0.1455  0.2488
 1554SOL    HW114871   9.702   3.623   3.020 -0.9288  0.0193  0.3533
 1554SOL    HW214872   9.645   3.775   3.038  2.0243  1.1285  0.5529
 1555SOL     OW14873   1.617   8.722   1.225 -0.6882 -0.0043 -0.2470
 1555SOL    HW114874   1.684   8.719   1.299 -0.6919  1.2333 -0.1913
 1555SOL    HW214875   1.534   8.674   1.255 -0.4468 -0.0961  0.2939
 1556SOL     OW14876   4.259   9.524   0.668 -0.0349  0.4641 -0.3139
 1556SOL    HW114877   4.240   9.553   0.574  0.8424  1.4455 -0.2021
 1556SOL    HW214878   4.311   9.438   0.667 -1.0871 -0.1722 -0.6956
 1557SOL     OW14879   3.730   3.919   1.564 -0.1720 -0.0656 -0.0014
 1557SOL    HW114880   3.696   3.960   1.479  0.7261 -0.1818 -0.4161
 1557SOL    HW214881   3.774   3.832   1.544 -0.6005 -0.4457  0.6786
 1558SOL     OW14882   2.464   0.975   2.820  0.4068 -0.7830 -0.4553
 1558SOL    HW114883   2.538   0.915   2.852  0.3105 -0.5650  0.1800
 1558SOL    HW214884   2.449   0.960   2.722 -0.4694 -2.7310 -0.0612
 1559SOL     OW14885   9.131   0.264   0.355  0.1263  0.2756 -1.1070
 1559SOL    HW114886   9.111   0.166   0.357 -0.5190  0.3915 -1.5664
 1559SOL    HW214887   9.218   0.282   0.400 -0.3291 -0.3714  0.0373
 1560SOL     OW14888   8.999   2.428   1.400 -0.1301 -0.1234  0.2541
 1560SOL    HW114889   9.098   2.415   1.397  0.0040  0.9927 -0.4865
 1560SOL    HW214890   8.960   2.370   1.471  0.8883 -1.5651 -0.3323
 1561SOL     OW14891   1.815   5.068   1.428 -0.1342  0.0016 -0.5429
 1561SOL    HW114892   1.867   4.983   1.417 -0.1768 -0.1263  0.2044
 1561SOL    HW214893   1.733   5.050   1.481 -0.6087  0.3396 -1.1561
 1562SOL     OW14894   8.042   2.692   1.128 -0.0622 -0.0246  0.4934
 1562SOL    HW114895   8.081   2.651   1.045 -1.5450  1.6288 -1.0631
 1562SOL    HW214896   8.116   2.714   1.191  1.0372 -1.9315 -0.0659
 1563SOL     OW14897   1.167   0.006   0.416  0.2140  0.2038 -0.0036
 1563SOL    HW114898   1.185   0.101   0.442 -0.6562  0.0525  1.1711
 1563SOL    HW214899   1.075  -0.020   0.445  1.5199 -1.9477  2.4442
 1564SOL     OW14900   1.840   9.303   1.206 -0.5209 -0.2744  0.2682
 1564SOL    HW114901   1.913   9.235   1.216 -0.2905 -0.0684  0.0189
 1564SOL    HW214902   1.762   9.262   1.158 -1.4275 -1.1127  2.3940
 1565SOL     OW14903   0.242   7.348   1.762  0.3263  0.3384  0.4763
 1565SOL    HW114904   0.243   7.263   1.709 -0.1316 -0.6150  1.9684
 1565SOL    HW214905   0.147   7.371   1.786  0.5084  0.8814  0.6768
 1566SOL     OW14906   3.592   9.940   0.972  0.0127 -0.1943  0.6136
 1566SOL    HW114907   3.621   9.849   0.943 -1.0900 -0.9877  1.9169
 1566SOL    HW214908   3.503   9.961   0.931 -0.0388  0.0221  0.8378
 1567SOL     OW14909   2.657   0.830   3.278 -0.8558  0.2783  0.5993
 1567SOL    HW114910   2.727   0.879   3.228 -0.4654 -1.8516 -1.0136
 1567SOL    HW214911   2.570   0.836   3.228 -0.8944 -0.3249  0.5898
 1568SOL     OW14912   0.854   2.980   3.223 -0.3106  0.7201 -0.5421
 1568SOL    HW114913   0.930   3.041   3.241 -1.3182  1.7444  0.3245
 1568SOL    HW214914   0.822   2.993   3.129 -0.7679  1.8286 -0.2435
 1569SOL     OW14915   9.791   9.554   2.050 -0.0142  0.4177  0.3900
 1569SOL    HW114916   9.721   9.504   2.000  2.2939 -1.4331 -1.1109
 1569SOL    HW214917   9.848   9.490   2.101  2.1667  1.5971 -0.4742
 1570SOL     OW14918   4.067   8.258   1.066  0.6529  0.4211 -0.2753
 1570SOL    HW114919   4.115   8.187   1.118 -0.2877  0.3672  0.5449
 1570SOL    HW214920   4.026   8.217   0.985  0.0437 -0.0054  0.2383
 1571SOL     OW14921   0.234   2.710   0.256 -0.0405 -0.1624  0.5087
 1571SOL    HW114922   0.330   2.684   0.264 -0.4103 -0.8438  3.3001
 1571SOL    HW214923   0.193   2.714   0.347 -2.2752  1.6534 -0.5314
 1572SOL     OW14924   1.574   9.834   1.762 -0.0394  0.2498  0.2126
 1572SOL    HW114925   1.650   9.822   1.826  0.1516  1.4757  0.2366
 1572SOL    HW214926   1.569   9.930   1.735 -2.8402  0.6098  1.7837
 1573SOL     OW14927   4.386   9.187   3.403  0.5471 -0.1149 -0.3596
 1573SOL    HW114928   4.436   9.100   3.405  1.1872  0.2180 -1.1385
 1573SOL    HW214929   4.400   9.231   3.314 -1.9921 -0.4973 -0.9892
 1574SOL     OW14930   1.771   7.477   2.728  0.0498  0.4794 -0.3621
 1574SOL    HW114931   1.842   7.503   2.793 -0.3434 -0.8019  0.6106
 1574SOL    HW214932   1.761   7.377   2.727 -2.7784  0.6914  0.6926
 1575SOL     OW14933   9.841   2.489   3.427  0.2633 -0.2890  0.5226
 1575SOL    HW114934   9.815   2.424   3.498  2.3891 -1.7106  0.0603
 1575SOL    HW214935   9.881   2.440   3.350 -0.0193  1.4099 -0.7476
 1576SOL     OW14936   2.083   4.452   1.070  0.0174 -0.2311  0.5108
 1576SOL    HW114937   2.081   4.444   0.970  0.0698 -1.5977  0.6118
 1576SOL    HW214938   2.075   4.548   1.095 -0.5766  0.0828 -0.7947
 1577SOL     OW14939   0.695   0.003   0.578  0.2109  0.5378 -0.0438
 1577SOL    HW114940   0.684   0.021   0.676  1.3776  0.1431  0.1686
 1577SOL    HW214941   0.627  -0.065   0.549 -0.4836  1.0414  0.3668
 1578SOL     OW14942   3.281   1.274   0.385  0.3885  0.2780  0.3806
 1578SOL    HW114943   3.330   1.359   0.401  2.3554 -0.7872  0.1881
 1578SOL    HW214944   3.327   1.200   0.434 -0.2045 -1.0082 -0.9903
 1579SOL     OW14945   0.827   5.682   2.338  0.3466  0.7299 -0.4004
 1579SOL    HW114946   0.850   5.614   2.408 -1.0284  0.1907 -0.4569
 1579SOL    HW214947   0.836   5.774   2.377  0.6157  0.4646  0.1728
 1580SOL     OW14948   3.140   4.358   2.074  0.1587  0.1146  0.4267
 1580SOL    HW114949   3.091   4.415   2.140  0.4775 -0.3762  1.0921
 1580SOL    HW214950   3.090   4.272   2.060 -1.2615  1.2533 -1.9080
 1581SOL     OW14951   9.642   1.617   0.868  0.1807 -0.6773  1.1878
 1581SOL    HW114952   9.669   1.713   0.870 -0.0525 -0.6325  2.3370
 1581SOL    HW214953   9.666   1.577   0.779  0.9150  0.2523  0.9673
 1582SOL     OW14954   2.850   4.886   2.974 -0.4582  0.2003  0.8854
 1582SOL    HW114955   2.937   4.934   2.959 -1.1191  0.7401 -1.4065
 1582SOL    HW214956   2.862   4.789   2.955 -0.6783  0.4939 -0.8150
 1583SOL     OW14957   1.577   5.692   3.017 -0.1858 -0.4130 -0.3893
 1583SOL    HW114958   1.671   5.723   3.031  0.3550 -2.2271  0.0720
 1583SOL    HW214959   1.533   5.676   3.105 -1.4755  1.9298 -0.5488
 1584SOL     OW14960   3.491   0.231   1.057  0.4222 -0.5932  0.3847
 1584SOL    HW114961   3.472   0.201   0.964 -2.5387  2.0324  0.0565
 1584SOL    HW214962   3.568   0.179   1.094  2.8211 -0.4687 -4.1057
 1585SOL     OW14963   3.022   4.547   2.244 -0.4054 -0.1688  0.0304
 1585SOL    HW114964   2.941   4.491   2.260  0.5458 -1.3936  0.6298
 1585SOL    HW214965   3.056   4.583   2.331 -1.1541  1.5515 -0.3753
 1586SOL     OW14966   2.400   6.194   3.266 -0.6869  0.2012  0.6300
 1586SOL    HW114967   2.308   6.209   3.229 -0.8690  0.0103  1.0016
 1586SOL    HW214968   2.467   6.195   3.191 -1.1599 -1.1780  0.1719
 1587SOL     OW14969   1.515   6.036   1.309 -0.5118 -0.3378 -0.3152
 1587SOL    HW114970   1.598   6.036   1.365 -0.3618 -1.1315 -0.5314
 1587SOL    HW214971   1.531   5.984   1.225 -0.5930  1.2495 -1.3294
 1588SOL     OW14972   2.398   9.755   2.096 -0.1787  0.0637 -0.2475
 1588SOL    HW114973   2.451   9.674   2.122  2.1006  1.3351 -0.7748
 1588SOL    HW214974   2.301   9.737   2.110  0.2541 -2.8587 -0.6257
 1589SOL     OW14975   3.350   9.469   2.575  0.1986  0.5247  0.1163
 1589SOL    HW114976   3.328   9.567   2.576  0.8067  0.7237 -2.3150
 1589SOL    HW214977   3.433   9.454   2.521  0.7953 -1.2216  1.4658
 1590SOL     OW14978   3.729   1.581   0.040  0.0423  0.2779  0.4209
 1590SOL    HW114979   3.738   1.670  -0.003 -0.2589  0.7672  1.3533
 1590SOL    HW214980   3.807   1.523   0.015 -0.7436  0.1162 -1.7683
 1591SOL     OW14981   2.719   3.035   0.535  0.1737  0.1986 -0.2652
 1591SOL    HW114982   2.673   2.989   0.611  0.9885  1.3547  0.9428
 1591SOL    HW214983   2.711   3.134   0.545  2.3842  0.4242 -0.3478
 1592SOL     OW14984   8.081   4.590   0.007 -0.1961  0.2454 -0.0191
 1592SOL    HW114985   8.071   4.509  -0.052 -0.6091 -0.0100  0.3909
 1592SOL    HW214986   8.142   4.568   0.083 -1.2585 -0.0701  0.7569
 1593SOL     OW14987   3.961   0.950   2.828  0.6969  0.1101 -0.2647
 1593SOL    HW114988   4.041   1.009   2.825  0.0240  1.0928  0.9091
 1593SOL    HW214989   3.931   0.938   2.923 -0.1841 -0.7469 -0.6382
 1594SOL     OW14990   1.309   7.437   2.518  0.7999 -0.0433  0.0067
 1594SOL    HW114991   1.346   7.343   2.520  0.3022 -0.2216  1.2941
 1594SOL    HW214992   1.271   7.459   2.608 -2.7739 -0.0601 -1.4242
 1595SOL     OW14993   9.332   1.608   0.052  0.0860 -0.5369  0.1881
 1595SOL    HW114994   9.354   1.615  -0.045  1.2565 -1.1966  0.3996
 1595SOL    HW214995   9.254   1.668   0.073 -0.1514 -0.3705 -1.1400
 1596SOL     OW14996   0.641   2.658   0.850 -0.2390  0.3466 -0.0453
 1596SOL    HW114997   0.632   2.752   0.881  1.8077  0.8415 -0.8658
 1596SOL    HW214998   0.552   2.626   0.815 -0.2015  3.1247 -2.9128
 1597SOL     OW14999   2.321   8.348   1.065 -0.0342  0.3965  0.1825
 1597SOL    HW115000   2.255   8.421   1.086 -0.5746 -0.2384  0.7013
 1597SOL    HW215001   2.332   8.341   0.966 -2.8951 -1.3715 -0.0719
 1598SOL     OW15002   4.243   0.100   1.735  0.1059 -0.1844  0.6264
 1598SOL    HW115003   4.292   0.150   1.807 -0.3027  1.8860 -0.5175
 1598SOL    HW215004   4.299   0.097   1.652 -0.3575 -0.6402  0.3247
 1599SOL     OW15005   1.821   3.949   0.539 -0.2627 -0.3835  0.1604
 1599SOL    HW115006   1.727   3.936   0.570 -0.9517  2.5460 -0.5453
 1599SOL    HW215007   1.845   3.877   0.474 -2.4214 -0.5129 -0.5107
 1600SOL     OW15008   3.921   0.924   1.495  0.3280  0.0220  0.0890
 1600SOL    HW115009   3.896   0.867   1.574 -1.1903  0.5527 -0.0115
 1600SOL    HW215010   3.874   1.012   1.500 -0.8214 -0.4364 -2.0891
 1601SOL     OW15011   9.671   4.549   1.207  0.3512 -0.1159  0.1798
 1601SOL    HW115012   9.749   4.563   1.268  0.5082 -0.6495  0.1012
 1601SOL    HW215013   9.678   4.612   1.130 -0.4867  1.4203  1.3225
 1602SOL     OW15014   3.439   3.006   1.282 -0.4924  0.5757  0.1118
 1602SOL    HW115015   3.496   2.923   1.283 -1.2210  0.0805  0.7702
 1602SOL    HW215016   3.391   3.011   1.195  0.6381  1.0555 -0.4966
 1603SOL     OW15017   0.675   3.487   1.875 -0.4636 -0.2887 -0.0980
 1603SOL    HW115018   0.647   3.395   1.903 -1.2413  0.4907  1.7380
 1603SOL    HW215019   0.623   3.513   1.793 -0.2605 -1.4611 -0.6131
 1604SOL     OW15020   2.125   3.601   0.443 -0.6651 -0.1795 -0.7460
 1604SOL    HW115021   2.066   3.523   0.465 -0.4010  0.3040  1.8491
 1604SOL    HW215022   2.164   3.637   0.527 -0.1352  2.2565 -2.0064
 1605SOL     OW15023   3.017   0.291   3.121 -0.3451 -0.3439  0.0874
 1605SOL    HW115024   2.945   0.328   3.179 -1.1016 -2.2286  0.3932
 1605SOL    HW215025   3.100   0.278   3.175 -0.4609 -0.2554  0.2860
 1606SOL     OW15026   9.165   1.613   1.324  0.2538  0.1994 -0.6598
 1606SOL    HW115027   9.141   1.519   1.346  1.0546  0.1020 -0.1581
 1606SOL    HW215028   9.153   1.629   1.226 -1.2890  0.0089 -0.5022
 1607SOL     OW15029   8.797   1.819   2.416 -0.1047  0.3396 -0.1392
 1607SOL    HW115030   8.857   1.789   2.342  0.3445 -0.8572  0.6917
 1607SOL    HW215031   8.704   1.787   2.397  0.1754 -0.7357  0.2243
 1608SOL     OW15032   0.288   8.513   1.885  0.2944 -0.0020  0.0162
 1608SOL    HW115033   0.311   8.566   1.804  0.3671 -1.9973 -1.2986
 1608SOL    HW215034   0.192   8.530   1.910  0.2286  0.5069 -0.5634
 1609SOL     OW15035   1.322   5.280   3.168 -0.4940  0.4223  0.4815
 1609SOL    HW115036   1.358   5.299   3.077  0.6185  1.2230  1.0705
 1609SOL    HW215037   1.317   5.181   3.183  0.1913  0.2985 -0.1108
 1610SOL     OW15038   4.396   8.389   3.418 -0.4915  0.2735 -0.1783
 1610SOL    HW115039   4.398   8.292   3.392 -0.1521 -0.0023  0.8703
 1610SOL    HW215040   4.458   8.440   3.358  2.0479 -0.7359  1.5255
 1611SOL     OW15041   0.263   3.855   0.765 -0.4492 -0.1656 -0.2211
 1611SOL    HW115042   0.322   3.775   0.770 -1.0116 -0.7460 -2.2724
 1611SOL    HW215043   0.214   3.866   0.851 -0.0307 -1.7722  0.2351
 1612SOL     OW15044   4.233   7.830   0.785 -0.0557 -0.6344 -0.2793
 1612SOL    HW115045   4.243   7.783   0.872  1.7552 -1.2110 -0.7690
 1612SOL    HW215046   4.136   7.840   0.762 -0.5583 -0.0065  2.0322
 1613SOL     OW15047   0.513   1.279   3.003  0.5161  0.0391 -0.2630
 1613SOL    HW115048   0.560   1.229   2.930  0.1983  0.6684 -0.9012
 1613SOL    HW215049   0.566   1.271   3.088  1.8815  0.9063 -1.0241
 1614SOL     OW15050   9.545   2.917   2.454 -0.6552  0.2718  0.0525
 1614SOL    HW115051   9.514   2.962   2.369 -1.8355  1.5314  1.1154
 1614SOL    HW215052   9.465   2.885   2.505  0.0049  0.2646  1.0840
 1615SOL     OW15053   3.468   1.264   2.276 -0.5595 -0.4097 -0.0303
 1615SOL    HW115054   3.513   1.181   2.308  0.5473  0.3174  0.3496
 1615SOL    HW215055   3.483   1.338   2.342 -0.7250  0.3397 -0.8126
 1616SOL     OW15056   4.317   8.981   1.261  0.4116  0.9761 -0.1748
 1616SOL    HW115057   4.262   8.998   1.179 -0.1164 -1.0902 -0.2851
 1616SOL    HW215058   4.400   9.037   1.257 -0.8241  2.8147 -0.8559
 1617SOL     OW15059   3.714   8.305   3.305 -0.2802  0.0105 -0.4552
 1617SOL    HW115060   3.774   8.322   3.227  0.6323  1.3981  0.5213
 1617SOL    HW215061   3.723   8.210   3.335  1.5379  0.2353 -0.2465
 1618SOL     OW15062   2.023   4.612   0.367 -0.0268 -0.4017 -0.1529
 1618SOL    HW115063   1.966   4.688   0.398 -0.9831 -1.1961  0.0637
 1618SOL    HW215064   2.024   4.610   0.267 -0.3258 -0.3358 -0.1589
 1619SOL     OW15065   3.775   3.932   2.782 -0.5447 -0.3328 -0.3283
 1619SOL    HW115066   3.773   3.836   2.754 -1.4807 -0.4642  0.1798
 1619SOL    HW215067   3.699   3.951   2.844  0.2711  0.4805  0.4378
 1620SOL     OW15068   4.156   1.394   0.872 -0.0744  0.1031  0.2693
 1620SOL    HW115069   4.157   1.488   0.837  2.9730  0.3079  0.7463
 1620SOL    HW215070   4.172   1.331   0.796 -1.4551  0.0070  0.0540
 1621SOL     OW15071   9.556   5.044   2.749 -0.2021  0.2078  0.0016
 1621SOL    HW115072   9.487   5.111   2.720  0.4710  0.3026 -1.4072
 1621SOL    HW215073   9.510   4.966   2.791 -1.3841 -0.8189 -3.0571
 1622SOL     OW15074   1.891   0.245   2.455 -0.3704  0.1825  0.2554
 1622SOL    HW115075   1.927   0.290   2.537 -0.6243  0.4755  0.2043
 1622SOL    HW215076   1.962   0.186   2.416 -0.3977 -0.3216  0.9498
 1623SOL     OW15077   3.644   1.444   3.143 -0.4204 -0.2454  0.0158
 1623SOL    HW115078   3.715   1.397   3.195 -0.7631 -0.8095 -0.0232
 1623SOL    HW215079   3.559   1.443   3.194 -0.7134 -0.6474 -0.4821
 1624SOL     OW15080   1.106   3.801   1.197 -0.7593  0.6271  0.0618
 1624SOL    HW115081   1.186   3.743   1.181  0.1280  1.5400  1.1420
 1624SOL    HW215082   1.030   3.744   1.228 -0.5858 -0.2698 -1.1252
 1625SOL     OW15083   2.869   0.228   1.937  0.4924  0.0811  0.2900
 1625SOL    HW115084   2.783   0.204   1.983  0.4477 -0.4741 -0.0686
 1625SOL    HW215085   2.914   0.303   1.985  0.6963 -0.8225  1.5244
 1626SOL     OW15086   1.746   2.340   0.760 -0.5922 -0.0846  0.1605
 1626SOL    HW115087   1.822   2.309   0.703  0.5877  1.1807  1.0446
 1626SOL    HW215088   1.660   2.329   0.709  0.4504  1.1254 -1.9234
 1627SOL     OW15089   1.406   4.243   0.863 -0.5299 -0.0868  0.3644
 1627SOL    HW115090   1.401   4.189   0.947  0.8017  0.4426  0.7968
 1627SOL    HW215091   1.472   4.317   0.875  1.3199 -1.2975 -1.8354
 1628SOL     OW15092   4.223   3.226   3.045 -0.5834  0.2118  0.0823
 1628SOL    HW115093   4.224   3.269   3.135  2.5939  0.1577  0.1356
 1628SOL    HW215094   4.272   3.284   2.980 -3.1006  0.3966 -1.7282
 1629SOL     OW15095   2.081   6.802   1.843  0.4778 -0.2684  0.0146
 1629SOL    HW115096   2.100   6.755   1.929 -0.4239 -0.5977  0.0341
 1629SOL    HW215097   2.167   6.816   1.793  1.3072  1.7862  1.8952
 1630SOL     OW15098   1.139   6.750   0.750 -0.1918  0.7485 -0.2803
 1630SOL    HW115099   1.213   6.812   0.775  0.7206 -0.2679 -0.4055
 1630SOL    HW215100   1.156   6.714   0.658 -0.4447 -0.0571 -0.0157
 1631SOL     OW15101   9.336   4.057   1.525  0.6272 -0.0583 -0.2974
 1631SOL    HW115102   9.304   4.070   1.619  1.1131 -0.0419 -0.1340
 1631SOL    HW215103   9.432   4.083   1.519  0.2375  1.2512 -1.1070
 1632SOL     OW15104   3.652   3.302   2.679  0.0525  0.8448 -0.3272
 1632SOL    HW115105   3.708   3.291   2.597  0.1895  0.8740 -0.2376
 1632SOL    HW215106   3.589   3.225   2.687  1.2668 -0.0819  0.4962
 1633SOL     OW15107   2.705   3.688   0.873 -0.0920  0.3344  0.2787
 1633SOL    HW115108   2.618   3.733   0.854  0.0146  0.6435  0.5240
 1633SOL    HW215109   2.711   3.665   0.970 -0.5293 -1.0138 -0.0035
 1634SOL     OW15110   9.760   3.967   2.470  0.6152  0.0161 -0.4095
 1634SOL    HW115111   9.801   4.055   2.444  0.7374  0.1874  0.3622
 1634SOL    HW215112   9.820   3.920   2.534  0.5515 -0.6363 -0.8333
 1635SOL     OW15113   8.934   3.108   0.156  0.8422  0.0923 -0.1828
 1635SOL    HW115114   8.860   3.175   0.162 -0.1199 -0.9551 -0.1616
 1635SOL    HW215115   8.957   3.092   0.060 -0.7792 -1.5217 -0.3301
 1636SOL     OW15116   2.365   6.033   2.838 -0.0659 -0.3011  0.5775
 1636SOL    HW115117   2.393   5.979   2.918  0.0906 -1.0124  0.0422
 1636SOL    HW215118   2.266   6.038   2.835 -0.0690 -0.1261  0.9140
 1637SOL     OW15119   2.515   3.961   2.262  0.2238 -0.3446 -0.3788
 1637SOL    HW115120   2.506   3.889   2.193 -0.8120  0.1285 -0.7443
 1637SOL    HW215121   2.429   4.011   2.270 -0.0289 -1.0735  2.0133
 1638SOL     OW15122   9.548   9.486   1.854  0.2783  0.4236  0.0170
 1638SOL    HW115123   9.458   9.494   1.896 -0.1286  0.0695 -0.7773
 1638SOL    HW215124   9.593   9.403   1.889 -0.7127 -0.7550 -1.4355
 1639SOL     OW15125   3.051   5.047   3.406  0.6761  0.2406 -0.4308
 1639SOL    HW115126   2.990   4.968   3.404  2.2579 -1.0124  0.4261
 1639SOL    HW215127   3.033   5.101   3.489 -0.6498  1.0045 -1.1952
 1640SOL     OW15128   0.234   1.736   2.573 -0.3004 -0.4785 -0.6760
 1640SOL    HW115129   0.320   1.743   2.623 -0.2997  1.5447 -0.9146
 1640SOL    HW215130   0.253   1.715   2.477 -0.1639 -1.5649 -0.4190
 1641SOL     OW15131   8.601   5.011   2.891  0.1270  0.3739  0.3241
 1641SOL    HW115132   8.656   5.078   2.941  0.0827  0.7959 -0.1924
 1641SOL    HW215133   8.554   5.057   2.816  0.6167 -0.3630 -0.4338
 1642SOL     OW15134   3.612   1.039   2.365  0.3694  0.6754  0.2644
 1642SOL    HW115135   3.669   1.032   2.447 -0.3727  2.7540  0.9932
 1642SOL    HW215136   3.572   0.950   2.344  0.8456  0.0464  1.9516
 1643SOL     OW15137   9.784   5.511   2.261  0.7761  0.4570  0.1715
 1643SOL    HW115138   9.750   5.425   2.298  0.0234  0.5110 -0.3799
 1643SOL    HW215139   9.736   5.587   2.306  2.3937  0.6629  1.6491
 1644SOL     OW15140   3.716   9.201   2.777  0.6317 -0.5900  0.2388
 1644SOL    HW115141   3.779   9.131   2.812  1.4776 -1.2027 -2.3557
 1644SOL    HW215142   3.763   9.289   2.776  0.9093 -0.7358 -0.1176
 1645SOL     OW15143   1.516   7.091   0.951 -0.5525 -0.1412  0.4160
 1645SOL    HW115144   1.479   7.172   0.905 -0.4890  0.6281  1.6882
 1645SOL    HW215145   1.549   7.117   1.041  1.6851 -1.1028 -0.0873
 1646SOL     OW15146   3.314   4.912   2.694 -0.4034 -0.2835 -0.4834
 1646SOL    HW115147   3.309   4.847   2.618 -1.8502  0.0796 -0.7184
 1646SOL    HW215148   3.287   5.002   2.662  1.5096  0.4258 -0.1355
 1647SOL     OW15149   3.158   0.557   1.353 -0.0604 -0.2157  0.1725
 1647SOL    HW115150   3.242   0.522   1.395 -0.2048  0.8311  1.3725
 1647SOL    HW215151   3.142   0.650   1.384 -0.6258  0.3064 -1.5968
 1648SOL     OW15152   2.360   5.493   0.177  0.2392 -0.1081  0.0952
 1648SOL    HW115153   2.296   5.428   0.216  0.5902 -0.6614 -0.2399
 1648SOL    HW215154   2.349   5.582   0.221 -1.8697  0.2341 -1.0803
 1649SOL     OW15155   9.294   9.892   3.151  0.4309 -0.3922  0.2517
 1649SOL    HW115156   9.345   9.887   3.065  1.5299 -1.8239  0.9643
 1649SOL    HW215157   9.258   9.801   3.173 -1.4208  0.3562  0.3782
 1650SOL     OW15158   9.903   6.824   1.637  0.1982 -0.5715  0.0913
 1650SOL    HW115159   9.945   6.769   1.709  1.0609  0.5465  0.4521
 1650SOL    HW215160   9.855   6.902   1.678 -0.6297 -0.8040 -0.4390
 1651SOL     OW15161   5.185   8.535   2.325 -0.2814  0.0979 -0.3336
 1651SOL    HW115162   5.153   8.515   2.418  0.5676  1.7879  0.3414
 1651SOL    HW215163   5.150   8.465   2.262  0.9961 -2.3325  1.5938
 1652SOL     OW15164   2.258   8.856   1.626  0.3173  0.1476  0.0065
 1652SOL    HW115165   2.238   8.931   1.690  0.8027 -0.4353  0.8454
 1652SOL    HW215166   2.313   8.787   1.672 -1.2502 -1.3642 -0.3549
 1653SOL     OW15167   3.295   1.685   1.638 -0.4691 -0.3648  0.7051
 1653SOL    HW115168   3.394   1.688   1.649 -0.5589  0.5757  1.2503
 1653SOL    HW215169   3.260   1.777   1.622 -1.0045 -0.9469 -1.7007
 1654SOL     OW15170   9.624   4.349   0.261  0.0636 -0.3890 -0.6460
 1654SOL    HW115171   9.611   4.448   0.262  1.4296 -0.2017  1.6804
 1654SOL    HW215172   9.704   4.325   0.206  0.2367 -0.1269 -0.5063
 1655SOL     OW15173   1.002   4.144   0.951 -1.2708  0.5068 -0.2420
 1655SOL    HW115174   1.048   4.223   0.991  3.3611 -1.0210 -2.1169
 1655SOL    HW215175   0.980   4.077   1.022 -1.7663  1.8472  0.8717
 1656SOL     OW15176   0.439   3.471   0.231 -0.1021 -0.4039 -0.1821
 1656SOL    HW115177   0.389   3.539   0.179 -0.3079 -1.3752 -1.2649
 1656SOL    HW215178   0.467   3.510   0.319 -0.4312  0.9839 -0.6882
 1657SOL     OW15179   0.291   8.934   0.246 -0.0365  0.2363  0.1244
 1657SOL    HW115180   0.198   8.901   0.227 -0.3008  1.1701 -0.2341
 1657SOL    HW215181   0.353   8.856   0.255 -1.3629 -0.5246  3.0500
 1658SOL     OW15182   0.369   3.652   1.792  0.3187  0.0453 -0.3979
 1658SOL    HW115183   0.356   3.748   1.816 -0.2419 -0.2585  0.5642
 1658SOL    HW215184   0.462   3.638   1.759  0.7469  0.7128  0.4969
 1659SOL     OW15185   0.476   5.688   1.476 -0.3174 -0.3026  0.0189
 1659SOL    HW115186   0.556   5.637   1.445  0.1055  0.5747 -0.3329
 1659SOL    HW215187   0.504   5.777   1.511 -0.8659 -0.9730  2.2262
 1660SOL     OW15188   2.793   4.459   3.386  0.0649  0.2187 -0.1602
 1660SOL    HW115189   2.843   4.525   3.329 -0.7078  1.5940  0.7265
 1660SOL    HW215190   2.696   4.463   3.364 -0.0034 -0.5590 -0.0122
 1661SOL     OW15191   2.811   4.867   3.424  0.5422  0.1791  0.3733
 1661SOL    HW115192   2.787   4.936   3.356  0.4168 -1.0789 -0.8725
 1661SOL    HW215193   2.862   4.793   3.381  1.7980  0.0988  1.9440
 1662SOL     OW15194   1.611   1.163   0.896 -1.2414  0.0932  0.0647
 1662SOL    HW115195   1.521   1.157   0.854 -1.5928 -3.3667  1.1649
 1662SOL    HW215196   1.606   1.223   0.976 -2.4731  0.2161 -0.0992
 1663SOL     OW15197   4.581   3.946   0.489 -0.7055  0.1748 -0.0142
 1663SOL    HW115198   4.521   3.997   0.427 -1.4038 -0.9557 -0.2757
 1663SOL    HW215199   4.660   3.911   0.438 -0.1696  1.0860  0.1885
 1664SOL     OW15200   2.175   9.779   3.369 -0.5341 -0.4649  0.3564
 1664SOL    HW115201   2.239   9.838   3.418  1.6791 -0.8922 -1.9103
 1664SOL    HW215202   2.092   9.831   3.348  1.0486  1.6971 -0.9052
 1665SOL     OW15203   9.512   1.328   3.253 -0.3978  0.7445  0.4284
 1665SOL    HW115204   9.532   1.328   3.155  1.9510  0.5259  0.8796
 1665SOL    HW215205   9.445   1.400   3.274 -0.2205  1.3931 -1.1855
 1666SOL     OW15206   9.367   1.964   1.052 -0.0227  0.0437  0.0164
 1666SOL    HW115207   9.303   2.022   1.103 -0.3626  1.2584 -1.7279
 1666SOL    HW215208   9.414   1.902   1.115 -0.4901  1.4339  1.7753
 1667SOL     OW15209   0.162   6.248   1.335 -0.3463  0.2896  0.1073
 1667SOL    HW115210   0.087   6.289   1.386 -0.4983  0.9258 -0.6096
 1667SOL    HW215211   0.247   6.297   1.355 -0.2515  0.0140  0.3825
 1668SOL     OW15212   0.552   0.781   1.350  0.2583 -0.1189  0.1003
 1668SOL    HW115213   0.556   0.682   1.368  1.9667  0.1703  1.5345
 1668SOL    HW215214   0.596   0.830   1.426 -2.2817  1.8763  0.3490
 1669SOL     OW15215   7.658   5.368   0.701 -0.3591  0.1442  0.2007
 1669SOL    HW115216   7.689   5.287   0.752 -0.5203 -0.8963 -1.3349
 1669SOL    HW215217   7.726   5.393   0.633 -2.1264 -1.2124 -2.1348
 1670SOL     OW15218   2.422   2.793   0.665 -0.0312 -0.2472  0.5885
 1670SOL    HW115219   2.329   2.827   0.685 -0.6784 -2.9733  2.4360
 1670SOL    HW215220   2.488   2.844   0.720 -0.4645  1.1376 -0.1186
 1671SOL     OW15221   3.124   4.088   1.624  0.0976 -0.2028  0.2543
 1671SOL    HW115222   3.104   4.032   1.543  0.9833  1.2914 -1.0249
 1671SOL    HW215223   3.194   4.042   1.679  2.8528  0.8883 -2.2288
 1672SOL     OW15224   3.488   8.913   1.119 -0.5720  0.0906  0.3382
 1672SOL    HW115225   3.517   8.933   1.025 -0.5069  0.1028  0.3610
 1672SOL    HW215226   3.565   8.922   1.181 -1.1117  2.4110  0.7314
 1673SOL     OW15227   1.197   7.812   1.953  0.0878  0.1064 -0.2758
 1673SOL    HW115228   1.202   7.718   1.919 -2.2373  0.1717 -0.8710
 1673SOL    HW215229   1.254   7.872   1.896  1.0583 -0.8067 -0.2861
 1674SOL     OW15230   3.514   1.359   2.848  1.0990 -0.5228 -0.1419
 1674SOL    HW115231   3.473   1.278   2.889 -0.5203  0.2645 -0.2027
 1674SOL    HW215232   3.532   1.342   2.751  2.3779 -1.4083  0.2376
 1675SOL     OW15233   3.934   7.443   2.898 -0.5547  0.3860  0.4838
 1675SOL    HW115234   3.890   7.453   2.809  0.1492  0.7726  0.1735
 1675SOL    HW215235   4.019   7.392   2.888 -0.9522 -0.4071  1.0896
 1676SOL     OW15236   1.164   4.282   2.345  0.0543 -0.0467  0.0758
 1676SOL    HW115237   1.234   4.212   2.328 -0.0697  0.1206 -1.2223
 1676SOL    HW215238   1.080   4.256   2.297 -0.4490  0.2615  0.7958
 1677SOL     OW15239   2.288   5.213   3.112  0.7715  0.4868  0.3222
 1677SOL    HW115240   2.364   5.276   3.096  2.3768 -1.4041  0.3509
 1677SOL    HW215241   2.244   5.191   3.025  0.6459  1.0930  0.2287
 1678SOL     OW15242   3.094   5.261   2.240  0.5890 -0.1588  0.3539
 1678SOL    HW115243   3.003   5.284   2.206  0.3450  0.7991  1.6021
 1678SOL    HW215244   3.156   5.245   2.163 -0.9359 -2.1015 -0.5120
 1679SOL     OW15245   9.531   0.488   2.688  0.6137  0.4483 -0.2717
 1679SOL    HW115246   9.589   0.499   2.607  0.2352 -0.2418 -0.6417
 1679SOL    HW215247   9.557   0.404   2.735 -1.7343 -1.2284 -1.8327
 1680SOL     OW15248   8.048   3.117   0.433  0.3133 -0.3642 -0.1377
 1680SOL    HW115249   8.105   3.123   0.351 -0.8823  1.1926 -0.8835
 1680SOL    HW215250   8.105   3.131   0.514  1.2114 -0.1891 -0.7878
 1681SOL     OW15251   7.667   0.255   2.862 -0.0928 -0.0355  0.7001
 1681SOL    HW115252   7.652   0.275   2.959  0.3542 -0.6231  0.8910
 1681SOL    HW215253   7.727   0.324   2.822 -1.7716  1.2934  0.3730
 1682SOL     OW15254   2.952   7.403   1.594 -0.7576  0.1333  0.5271
 1682SOL    HW115255   2.858   7.437   1.582 -1.1350 -1.5204 -1.4516
 1682SOL    HW215256   3.014   7.456   1.537 -0.4708  1.2888  1.9096
 1683SOL     OW15257   2.133   6.053   1.548  0.3159 -0.5702 -0.0286
 1683SOL    HW115258   2.198   5.992   1.503 -0.2899 -1.0515 -0.2541
 1683SOL    HW215259   2.117   6.133   1.489  0.5060 -0.5749 -0.0869
 1684SOL     OW15260   2.720   9.660   0.986  0.0780  0.1618  0.4260
 1684SOL    HW115261   2.716   9.653   1.086 -2.6031  0.0192  0.3378
 1684SOL    HW215262   2.777   9.586   0.950  1.1127  0.2522  1.8412
 1685SOL     OW15263   8.181   1.862   2.071  0.0713 -0.3420  0.2554
 1685SOL    HW115264   8.168   1.913   1.986 -2.4950  0.2096  0.9315
 1685SOL    HW215265   8.196   1.925   2.147 -0.4582 -0.6814  0.6552
 1686SOL     OW15266   9.201   2.805   0.503  0.1478  0.5898  0.0337
 1686SOL    HW115267   9.108   2.801   0.466  0.4858 -0.0208 -0.7606
 1686SOL    HW215268   9.267   2.800   0.429  0.8347 -0.2178  0.6854
 1687SOL     OW15269   0.755   6.780   2.023  0.5778  0.5063 -0.1637
 1687SOL    HW115270   0.699   6.743   1.949 -0.5040  3.0888 -0.6867
 1687SOL    HW215271   0.833   6.829   1.984  1.4643 -0.3435  0.5014
 1688SOL     OW15272   2.023   0.549   0.792 -0.1723 -0.3073  0.2735
 1688SOL    HW115273   1.954   0.501   0.846 -0.3703  0.4025  0.6567
 1688SOL    HW215274   2.112   0.505   0.805 -0.8000 -2.0441 -1.2886
 1689SOL     OW15275   1.348   4.668   2.593  0.0876  0.3314 -0.7702
 1689SOL    HW115276   1.432   4.710   2.559  0.0258  0.8936 -0.2454
 1689SOL    HW215277   1.349   4.570   2.576  0.9617  0.3039 -0.5493
 1690SOL     OW15278   4.607   7.671   2.094  0.2028  0.0446  0.4053
 1690SOL    HW115279   4.611   7.571   2.097  2.0426  0.0502 -0.7404
 1690SOL    HW215280   4.516   7.702   2.121 -0.8602 -2.0009 -0.7477
 1691SOL     OW15281   2.677   8.221   3.005  0.2104  0.2029  0.1178
 1691SOL    HW115282   2.771   8.254   2.993  0.6696 -0.8609  0.7198
 1691SOL    HW215283   2.673   8.161   3.085  0.1304 -4.0988 -2.9804
 1692SOL     OW15284   2.166   6.906   0.221  0.5106  0.2250  0.1496
 1692SOL    HW115285   2.249   6.962   0.221  0.9230 -0.3586 -1.2229
 1692SOL    HW215286   2.184   6.821   0.170 -0.8241 -0.0619  0.1472
 1693SOL     OW15287   9.164   2.258   0.685  0.2942 -0.2622 -0.3245
 1693SOL    HW115288   9.155   2.357   0.677 -0.4222 -0.4180 -1.7180
 1693SOL    HW215289   9.081   2.221   0.728  0.7563 -0.2165  0.6123
 1694SOL     OW15290   1.182   2.320   0.866  0.4599  0.0916 -0.1256
 1694SOL    HW115291   1.225   2.408   0.847 -2.0855  1.3642 -0.2691
 1694SOL    HW215292   1.176   2.306   0.965  0.6421  0.1914 -0.1003
 1695SOL     OW15293   0.789   0.492   1.677 -0.7521  0.5995  0.2164
 1695SOL    HW115294   0.754   0.419   1.619  2.4169 -1.9201  1.3167
 1695SOL    HW215295   0.745   0.488   1.767  2.8011 -3.2461  1.9646
 1696SOL     OW15296   9.516   1.997   0.096 -0.7533 -0.3352  0.4501
 1696SOL    HW115297   9.582   2.056   0.049  0.8489 -1.4733  1.2194
 1696SOL    HW215298   9.423   2.027   0.074 -0.0073  0.7664 -1.3454
 1697SOL     OW15299   8.733   2.049   0.659  0.1297  0.5249  0.9931
 1697SOL    HW115300   8.824   2.062   0.696  0.4057 -0.9929  0.8840
 1697SOL    HW215301   8.727   2.091   0.568  0.9393  0.0060  0.6975
 1698SOL     OW15302   2.792   9.939   0.926  0.3263  0.2360  0.3628
 1698SOL    HW115303   2.880   9.961   0.969  1.6892 -0.6815 -1.8731
 1698SOL    HW215304   2.783   9.839   0.919  1.1352  0.3642 -3.3899
 1699SOL     OW15305   2.439   0.807   3.078 -0.2096  0.1942  0.8023
 1699SOL    HW115306   2.451   0.904   3.058  2.3097 -0.1271  0.4876
 1699SOL    HW215307   2.442   0.754   2.993 -1.9643 -0.1449  0.9327
 1700SOL     OW15308   1.134   1.268   1.845  0.0672  0.6446  0.1615
 1700SOL    HW115309   1.158   1.358   1.806 -0.0589  0.4662 -0.3306
 1700SOL    HW215310   1.217   1.225   1.882  0.5085  0.0698 -1.4638
 1701SOL     OW15311   3.315   0.971   3.303  0.8329  0.0774 -0.2334
 1701SOL    HW115312   3.240   1.018   3.257  0.1319 -0.4050  0.4086
 1701SOL    HW215313   3.278   0.902   3.365  1.8274 -1.0982 -0.9112
 1702SOL     OW15314   2.231   1.679   1.647 -0.2507  0.5874  0.5284
 1702SOL    HW115315   2.289   1.761   1.651  0.9746 -0.1742 -0.9674
 1702SOL    HW215316   2.213   1.647   1.739  2.4339  0.3669  1.0364
 1703SOL     OW15317   3.608   4.476   1.955 -0.0780  0.0014 -0.2491
 1703SOL    HW115318   3.651   4.500   2.043 -0.0547  3.7113 -1.1913
 1703SOL    HW215319   3.665   4.408   1.909  2.4427  1.4590  0.5554
 1704SOL     OW15320   1.155   8.397   0.891 -0.4157  0.2917  0.3345
 1704SOL    HW115321   1.197   8.453   0.963  1.7940  0.0724 -0.7634
 1704SOL    HW215322   1.161   8.445   0.804  2.4334 -2.0189 -0.8301
 1705SOL     OW15323   3.104   9.980   0.253  0.6195 -0.0132 -0.0284
 1705SOL    HW115324   3.097  10.041   0.332 -2.0138  1.7095 -1.5380
 1705SOL    HW215325   3.041   9.903   0.265 -0.4369  0.7147 -0.8191
 1706SOL     OW15326   3.963   9.094   2.934 -0.0493  0.2798 -0.2246
 1706SOL    HW115327   3.949   9.189   2.904 -0.1992  0.1670 -0.5137
 1706SOL    HW215328   4.040   9.091   2.998  0.9201  0.3873 -1.3660
 1707SOL     OW15329   0.683   8.612   1.534 -0.0140  0.0081  0.1648
 1707SOL    HW115330   0.752   8.588   1.465 -0.3165  0.2334 -0.2197
 1707SOL    HW215331   0.668   8.711   1.532  1.3089  0.2691  1.8105
 1708SOL     OW15332   1.655   0.266   2.833 -1.1373 -0.2447  0.4248
 1708SOL    HW115333   1.662   0.359   2.869  2.3386 -0.8437  1.4381
 1708SOL    HW215334   1.653   0.270   2.733 -0.8059  0.9237  0.4553
 1709SOL     OW15335   0.835   6.373   1.993 -0.1819  0.0682  0.0522
 1709SOL    HW115336   0.815   6.444   2.060 -1.5481  1.0496 -1.3597
 1709SOL    HW215337   0.894   6.303   2.034 -1.2064  0.5138  2.3298
 1710SOL     OW15338   0.219   4.683   2.611 -0.3092  0.1915  0.0705
 1710SOL    HW115339   0.173   4.750   2.668  0.2510  0.7928 -0.1845
 1710SOL    HW215340   0.314   4.711   2.594 -1.2756  1.5336 -3.5484
 1711SOL     OW15341   0.599   9.968   2.339  0.2746 -0.4419 -0.1077
 1711SOL    HW115342   0.622   9.912   2.259  0.5417  0.7476 -0.8742
 1711SOL    HW215343   0.679   9.975   2.399  0.1435 -1.1381  0.1623
 1712SOL     OW15344   1.419   3.967   2.680  0.4399 -0.4230  0.1396
 1712SOL    HW115345   1.455   3.922   2.762  1.9417  0.4156 -0.0367
 1712SOL    HW215346   1.453   3.920   2.599  2.6730  1.4888 -0.0563
 1713SOL     OW15347   0.988   7.706   3.386  0.3211 -0.0723 -0.0772
 1713SOL    HW115348   0.989   7.780   3.319  0.6397 -0.1910 -0.2019
 1713SOL    HW215349   0.937   7.735   3.467  2.3720  1.1214  0.8384
 1714SOL     OW15350   3.471   5.812   2.483  0.2436 -0.8047  0.8347
 1714SOL    HW115351   3.506   5.812   2.577 -0.8965 -2.1766  1.2835
 1714SOL    HW215352   3.392   5.874   2.477  0.0890 -0.9974  0.8720
 1715SOL     OW15353   0.127   2.210   2.793  0.0783  0.0451  0.0546
 1715SOL    HW115354   0.201   2.158   2.750 -0.5179  0.8675 -2.0377
 1715SOL    HW215355   0.044   2.203   2.737 -1.3207 -0.5212  2.1583
 1716SOL     OW15356   1.931   5.114   2.433  0.1536 -0.5693 -0.8182
 1716SOL    HW115357   1.960   5.068   2.349 -0.2005 -0.5196 -0.9699
 1716SOL    HW215358   1.942   5.052   2.511 -0.2192 -0.8782 -1.0073
 1717SOL     OW15359   1.686   9.926   0.398 -0.8568 -0.2250 -0.2407
 1717SOL    HW115360   1.746   9.912   0.476 -0.2705 -0.3540 -0.7169
 1717SOL    HW215361   1.712   9.864   0.324 -2.1557 -0.9416 -0.1155
 1718SOL     OW15362   1.141   5.315   1.554  0.1326 -0.1143  0.0729
 1718SOL    HW115363   1.188   5.246   1.499 -0.7139  0.0184 -0.8400
 1718SOL    HW215364   1.046   5.324   1.522  0.7991  2.9366 -1.2455
 1719SOL     OW15365   3.760   4.982   0.779 -0.6142 -0.3242 -0.4210
 1719SOL    HW115366   3.664   5.007   0.766 -1.2602 -1.3995  1.9537
 1719SOL    HW215367   3.775   4.889   0.747 -0.5978 -0.4909  0.0585
 1720SOL     OW15368   9.879   0.647   2.892  0.4891 -0.3600  0.3585
 1720SOL    HW115369   9.790   0.667   2.932  0.8569  1.0879  0.4815
 1720SOL    HW215370   9.875   0.661   2.793  1.0377  1.4816  0.5735
 1721SOL     OW15371   0.361   4.123   2.347 -0.8153 -0.2342 -0.3973
 1721SOL    HW115372   0.435   4.146   2.411 -1.0407  0.9076 -0.5356
 1721SOL    HW215373   0.273   4.132   2.393 -0.9902  0.8193 -0.9357
 1722SOL     OW15374   0.876   8.068   1.831  0.6666 -0.3920 -0.5424
 1722SOL    HW115375   0.831   8.048   1.744 -0.3051 -0.2829 -0.0717
 1722SOL    HW215376   0.963   8.115   1.814  1.6044 -2.4257 -1.5529
 1723SOL     OW15377   1.813   7.154   0.848  0.3698 -0.2470 -0.1181
 1723SOL    HW115378   1.908   7.162   0.818  0.4631 -0.4333  0.1242
 1723SOL    HW215379   1.770   7.077   0.801 -0.0155  0.5671 -1.1311
 1724SOL     OW15380   1.110   6.995   2.889  0.4343  0.4001  0.4870
 1724SOL    HW115381   1.043   6.927   2.857 -0.5800  0.2846  2.7466
 1724SOL    HW215382   1.062   7.073   2.929  1.5561  3.1446 -3.2227
 1725SOL     OW15383   3.391   0.444   2.236 -0.0833 -0.0317  0.1926
 1725SOL    HW115384   3.360   0.513   2.302 -0.3315 -1.5991  1.7321
 1725SOL    HW215385   3.489   0.453   2.222  0.5456 -1.7181  3.2263
 1726SOL     OW15386   2.542   3.096   0.137  0.0933  0.6006  0.0277
 1726SOL    HW115387   2.580   3.029   0.201  0.1840  0.4504 -0.1825
 1726SOL    HW215388   2.588   3.184   0.149  1.6222  0.0006 -1.3178
 1727SOL     OW15389   7.398   1.221   1.805  0.2069 -0.3062 -0.2443
 1727SOL    HW115390   7.399   1.316   1.838  0.7521 -0.3001 -0.2869
 1727SOL    HW215391   7.414   1.221   1.706 -2.5577 -0.2311 -0.7433
 1728SOL     OW15392   3.153   5.793   2.616  0.1709  0.0163 -0.7308
 1728SOL    HW115393   3.178   5.830   2.526  0.9879  0.1200 -0.4671
 1728SOL    HW215394   3.187   5.855   2.687  0.7472 -0.7746 -0.3122
 1729SOL     OW15395   2.454   1.069   3.300  0.1524 -0.1156 -0.6135
 1729SOL    HW115396   2.468   0.985   3.352 -1.7184  0.1779  0.3975
 1729SOL    HW215397   2.527   1.133   3.320  0.9763 -1.0667 -0.5202
 1730SOL     OW15398   9.761   9.821   2.471 -0.0489 -0.3973  0.1927
 1730SOL    HW115399   9.682   9.879   2.449 -1.1554 -1.8532  0.2735
 1730SOL    HW215400   9.802   9.853   2.556 -0.0818  0.8300 -0.2335
 1731SOL     OW15401   0.320   3.521   2.742 -0.1871 -0.4727  0.4600
 1731SOL    HW115402   0.380   3.567   2.807 -0.2335  0.1657  0.0604
 1731SOL    HW215403   0.362   3.436   2.712  0.3591 -0.2026  0.4538
 1732SOL     OW15404   0.285   3.617   2.071 -0.0792  0.2972  0.2082
 1732SOL    HW115405   0.274   3.631   1.972  1.6145 -2.6384 -0.4513
 1732SOL    HW215406   0.380   3.637   2.097  0.1525 -1.4093  0.7388
 1733SOL     OW15407   1.665   3.141   1.945  0.0584  0.6650 -0.7220
 1733SOL    HW115408   1.625   3.179   2.028  1.8493  0.4314  0.2652
 1733SOL    HW215409   1.742   3.198   1.916  0.3358 -0.0475 -1.4027
 1734SOL     OW15410   8.507   1.372   1.836 -0.2440  0.7292  0.0275
 1734SOL    HW115411   8.418   1.360   1.792  0.0087  1.1496 -0.6094
 1734SOL    HW215412   8.500   1.442   1.907 -0.5694  0.3114  0.4091
 1735SOL     OW15413   0.513   0.494   0.692 -0.0031  0.1507  0.3956
 1735SOL    HW115414   0.575   0.472   0.617 -1.2935  0.5338 -0.8304
 1735SOL    HW215415   0.563   0.541   0.765  1.0582  0.8514 -0.7574
 1736SOL     OW15416   8.087   2.256   2.980 -0.1486  0.0354 -0.2893
 1736SOL    HW115417   8.162   2.252   3.046  0.7036  1.9421 -1.1343
 1736SOL    HW215418   8.017   2.320   3.013 -0.2044  0.2135 -0.7584
 1737SOL     OW15419   2.737   9.328   1.392 -0.2288  0.1824 -0.0888
 1737SOL    HW115420   2.644   9.350   1.419  0.1424 -2.8334  4.1171
 1737SOL    HW215421   2.745   9.231   1.371  2.0183  0.3182 -0.0621
 1738SOL     OW15422   1.952   0.147   3.179  0.3789 -0.9845  0.0082
 1738SOL    HW115423   1.969   0.167   3.275  0.2596 -1.0149  0.0362
 1738SOL    HW215424   1.995   0.217   3.122  0.3212 -0.8830  0.0892
 1739SOL     OW15425   0.443   3.609   0.488 -0.6363 -0.5869 -0.3098
 1739SOL    HW115426   0.475   3.699   0.515  2.2680 -1.7803  0.3383
 1739SOL    HW215427   0.376   3.576   0.555 -0.1608  0.1991  0.5585
 1740SOL     OW15428   3.053   1.157   1.312  0.4147  0.1827 -0.0299
 1740SOL    HW115429   2.977   1.171   1.376 -0.8594 -3.7968 -0.5014
 1740SOL    HW215430   3.139   1.153   1.362 -0.2570 -0.1913  1.1261
 1741SOL     OW15431   0.786   4.285   0.945  0.2469  0.3014 -0.2161
 1741SOL    HW115432   0.716   4.246   1.005  0.7544 -0.4553 -0.1051
 1741SOL    HW215433   0.868   4.229   0.949  1.8599  2.7092  1.7945
 1742SOL     OW15434   2.558   6.112   1.280 -0.0754  0.1297 -0.2638
 1742SOL    HW115435   2.644   6.136   1.234  1.3962 -1.5076  1.5344
 1742SOL    HW215436   2.520   6.193   1.325 -0.1342  1.1430 -2.0866
 1743SOL     OW15437   1.793   1.109   3.248 -0.1931  0.0478 -0.4919
 1743SOL    HW115438   1.861   1.053   3.296  0.7953  0.5305 -1.3167
 1743SOL    HW215439   1.721   1.051   3.212  0.5754 -0.6436 -0.9226
 1744SOL     OW15440   2.161   7.293   0.340 -0.2406 -0.4616  0.3271
 1744SOL    HW115441   2.077   7.321   0.292 -0.9642 -2.9688  0.0981
 1744SOL    HW215442   2.141   7.214   0.397  2.5313 -2.6421 -1.6251
 1745SOL     OW15443   0.691   6.837   1.362  0.3133  0.5018  0.3002
 1745SOL    HW115444   0.690   6.815   1.460  1.4340 -0.4518  0.1052
 1745SOL    HW215445   0.597   6.845   1.329 -0.0710  2.1472  1.7309
 1746SOL     OW15446   0.027   0.451   3.052 -0.6329 -0.2036 -0.2423
 1746SOL    HW115447  -0.055   0.397   3.068 -0.9105  0.0559 -0.7978
 1746SOL    HW215448   0.002   0.545   3.027 -0.1516  0.2464  0.9278
 1747SOL     OW15449   0.171   8.728   0.867  0.0470  0.1328  0.3149
 1747SOL    HW115450   0.242   8.715   0.797  0.2486  0.5832  0.4310
 1747SOL    HW215451   0.207   8.703   0.957  0.0573  0.3417  0.3711
 1748SOL     OW15452   0.795   1.688   2.707  0.1412 -0.2405  0.2301
 1748SOL    HW115453   0.882   1.734   2.726  1.2140 -1.9569 -0.4385
 1748SOL    HW215454   0.749   1.666   2.794  1.1971 -0.8760  0.6356
 1749SOL     OW15455   3.725   4.440   2.208 -0.7814 -0.0908  0.0490
 1749SOL    HW115456   3.662   4.488   2.270  1.0552  0.3054  1.6370
 1749SOL    HW215457   3.746   4.350   2.244  0.4595  0.2190  0.1130
 1750SOL     OW15458   2.961   5.027   2.359  0.2017 -0.1852 -0.1025
 1750SOL    HW115459   3.047   5.060   2.318  0.3884 -1.6116 -0.8741
 1750SOL    HW215460   2.972   5.022   2.458  1.0846 -0.5387 -0.2076
 1751SOL     OW15461   3.198   7.214   1.467 -0.2815  0.0933  0.2010
 1751SOL    HW115462   3.269   7.206   1.397  0.8458 -1.2052  1.4567
 1751SOL    HW215463   3.241   7.224   1.557 -1.6629 -1.0763  1.0189
 1752SOL     OW15464   9.991   3.735   0.288 -0.1777  0.6333 -0.3110
 1752SOL    HW115465  10.029   3.724   0.379  0.4161  0.9730 -0.5111
 1752SOL    HW215466  10.014   3.655   0.232 -2.5915 -0.6983  0.5222
 1753SOL     OW15467   8.611   2.568   1.518  0.4867  0.6658  0.6898
 1753SOL    HW115468   8.706   2.601   1.517  0.8163 -0.2935  0.1191
 1753SOL    HW215469   8.549   2.646   1.512  1.2598  1.2171 -0.2420
 1754SOL     OW15470   4.396   0.206   3.370 -0.0480  0.0696 -0.4178
 1754SOL    HW115471   4.445   0.284   3.332 -1.1534  0.1731 -1.6816
 1754SOL    HW215472   4.329   0.238   3.437 -0.7729  0.2452 -1.2233
 1755SOL     OW15473   1.758   7.325   2.157 -0.1693  0.9298  0.3121
 1755SOL    HW115474   1.755   7.226   2.141 -2.4068  1.2310 -1.3020
 1755SOL    HW215475   1.726   7.345   2.250 -1.1403  0.2272  0.1376
 1756SOL     OW15476   9.487   3.993   2.537  0.4273  0.8262 -0.6066
 1756SOL    HW115477   9.438   3.908   2.558 -0.2769  1.1357 -0.9825
 1756SOL    HW215478   9.579   3.971   2.504 -0.0818  0.1679 -1.6139
 1757SOL     OW15479   3.107   1.063   3.040  0.3659 -0.3035 -0.1598
 1757SOL    HW115480   3.050   1.084   3.120  3.3319  0.3969  1.8296
 1757SOL    HW215481   3.099   0.965   3.018 -1.0152 -0.3591  0.5257
 1758SOL     OW15482   2.773   1.483   2.883  0.8815 -0.1342 -0.5008
 1758SOL    HW115483   2.821   1.433   2.954 -1.5348  0.5727  1.7153
 1758SOL    HW215484   2.741   1.420   2.813 -0.0771 -1.3866  1.0399
 1759SOL     OW15485   1.400   8.409   3.367  0.4401  0.0768  0.2333
 1759SOL    HW115486   1.350   8.496   3.364  1.8268  0.8428 -1.0934
 1759SOL    HW215487   1.349   8.344   3.424 -0.4597  1.8357  1.4832
 1760SOL     OW15488   9.912   9.035   2.258  0.3527  0.4586 -0.2593
 1760SOL    HW115489   9.894   9.061   2.163 -0.1671 -0.0103 -0.2945
 1760SOL    HW215490   9.893   8.938   2.270 -2.5100  1.1155  1.0264
 1761SOL     OW15491   9.120   4.601   0.064 -0.3686  0.0456  0.1570
 1761SOL    HW115492   9.076   4.515   0.039 -0.6120  0.5769 -1.2609
 1761SOL    HW215493   9.218   4.595   0.045  0.1205 -0.9512  2.8260
 1762SOL     OW15494   2.760   0.901   0.431 -0.3625  0.3774  0.0424
 1762SOL    HW115495   2.858   0.920   0.429 -0.3368  0.2590  0.1395
 1762SOL    HW215496   2.710   0.979   0.393 -0.3460  1.2328  1.6994
 1763SOL     OW15497   2.049   4.268   2.227 -0.1528 -0.3372  0.9070
 1763SOL    HW115498   1.953   4.296   2.231 -0.5762 -1.5619 -0.2849
 1763SOL    HW215499   2.066   4.220   2.141  1.0308 -1.9488  2.0125
 1764SOL     OW15500   2.584   6.494   0.875 -0.1065 -0.3208 -0.4385
 1764SOL    HW115501   2.653   6.549   0.922 -1.1146  1.2736 -0.7609
 1764SOL    HW215502   2.500   6.494   0.930 -1.6984  2.5713 -2.7330
 1765SOL     OW15503   2.280   0.794   3.410 -0.3648 -0.5448  0.5104
 1765SOL    HW115504   2.288   0.709   3.357 -3.2785 -1.2759  1.1208
 1765SOL    HW215505   2.208   0.851   3.370  1.9816  1.9586 -0.2467
 1766SOL     OW15506   1.718   9.633   2.357 -0.1109  0.0410 -0.4638
 1766SOL    HW115507   1.757   9.543   2.340 -0.4539 -0.6343  2.1033
 1766SOL    HW215508   1.776   9.683   2.422 -2.7139 -0.4805  2.3965
 1767SOL     OW15509   1.847   8.922   2.315 -0.3901 -0.2782 -0.0014
 1767SOL    HW115510   1.774   8.873   2.362  0.1345 -0.3890  0.7160
 1767SOL    HW215511   1.920   8.943   2.381  0.3545 -0.4348 -0.7775
 1768SOL     OW15512   9.620   2.192   3.051 -0.7508 -0.7994 -0.0551
 1768SOL    HW115513   9.544   2.239   3.006  0.7564  2.3905  0.5804
 1768SOL    HW215514   9.690   2.170   2.983  0.4736  1.8897  0.2683
 1769SOL     OW15515   0.655   8.897   1.556 -0.2432 -0.2951  0.6093
 1769SOL    HW115516   0.631   8.923   1.462 -0.1156  0.4206  0.7779
 1769SOL    HW215517   0.578   8.915   1.617  0.1667  0.5511  0.8828
 1770SOL     OW15518   2.139   3.761   0.742  0.5697 -0.2678  0.0234
 1770SOL    HW115519   2.212   3.698   0.769 -0.5203 -1.0514  1.1886
 1770SOL    HW215520   2.050   3.721   0.766 -0.1891  1.1435 -0.4133
 1771SOL     OW15521   8.150   2.392   0.511  0.3171  0.4268 -0.3553
 1771SOL    HW115522   8.060   2.373   0.549 -0.2704  1.2580 -1.2867
 1771SOL    HW215523   8.208   2.435   0.580 -0.5012  1.2737 -0.1957
 1772SOL     OW15524   2.958   1.566   0.166  0.2739 -0.3784  0.6257
 1772SOL    HW115525   2.949   1.482   0.221  0.0746 -0.5160  0.3843
 1772SOL    HW215526   2.869   1.589   0.127 -0.0317  0.8423  1.9972
 1773SOL     OW15527   0.494   2.594   0.325 -0.7798 -0.0339  0.1266
 1773SOL    HW115528   0.532   2.660   0.389  0.0133 -2.8468  2.6718
 1773SOL    HW215529   0.554   2.586   0.245  1.0385 -0.3114  1.5051
 1774SOL     OW15530   3.107   0.398   0.406 -0.2604 -0.4268 -0.0121
 1774SOL    HW115531   3.067   0.478   0.451 -0.6974 -1.1958  1.0122
 1774SOL    HW215532   3.108   0.321   0.471  0.8525 -1.0351 -0.7339
 1775SOL     OW15533   0.807   1.438   0.916  0.1918 -0.1454  0.7154
 1775SOL    HW115534   0.783   1.500   0.990  1.2470  0.7151  0.3395
 1775SOL    HW215535   0.904   1.448   0.893 -0.1192 -0.3977 -0.7706
 1776SOL     OW15536   1.588   3.152   0.066 -0.1753  0.1755  0.1663
 1776SOL    HW115537   1.624   3.062   0.091  1.2241  0.5714 -0.3774
 1776SOL    HW215538   1.513   3.140   0.000 -1.5978 -0.6860  1.8970
 1777SOL     OW15539   9.324   1.994   2.575 -0.2087 -0.3875 -0.2865
 1777SOL    HW115540   9.264   2.073   2.583  0.5601  0.2598 -0.8359
 1777SOL    HW215541   9.316   1.937   2.657 -0.0225  0.7858  0.5476
 1778SOL     OW15542   1.145   6.470   0.086 -0.8537  0.6026  0.3406
 1778SOL    HW115543   1.244   6.460   0.082 -0.8145  1.0228  0.2052
 1778SOL    HW215544   1.101   6.401   0.029 -0.6504  0.2516  0.6040
 1779SOL     OW15545   4.222   2.701   2.239  0.5245  0.0329  0.3812
 1779SOL    HW115546   4.238   2.758   2.158  0.7578 -0.1007  0.3357
 1779SOL    HW215547   4.243   2.754   2.321  0.1878  0.2023  0.3582
 1780SOL     OW15548   2.673   6.731   1.353 -0.1628  0.6900  0.0913
 1780SOL    HW115549   2.661   6.827   1.379  0.2461  0.8708 -0.3947
 1780SOL    HW215550   2.647   6.673   1.431 -2.7376  1.1044 -0.4124
 1781SOL     OW15551   2.601   7.985   0.259  0.4362  0.2137  0.0223
 1781SOL    HW115552   2.669   7.989   0.331  0.1620 -1.4351  0.3939
 1781SOL    HW215553   2.591   8.075   0.217  0.4674  1.2311  2.1505
 1782SOL     OW15554   3.337   6.777   2.367  0.3648  0.6140  0.0186
 1782SOL    HW115555   3.414   6.719   2.393  1.0991  1.3369 -0.5071
 1782SOL    HW215556   3.256   6.751   2.418  0.4926 -1.3978 -0.7666
 1783SOL     OW15557   3.533   5.012   2.826  0.0760 -0.1831 -0.3644
 1783SOL    HW115558   3.453   4.968   2.785  0.3831 -0.7775 -0.3365
 1783SOL    HW215559   3.571   4.952   2.896  1.5091 -0.6170 -1.4936
 1784SOL     OW15560   6.403   8.599   1.974 -0.3295  0.4816  0.0134
 1784SOL    HW115561   6.369   8.512   2.010 -1.4413  1.1191  0.5164
 1784SOL    HW215562   6.483   8.582   1.916 -0.3739 -0.8458  0.3276
 1785SOL     OW15563   0.038   7.834   2.521 -0.0642 -0.3909  0.2139
 1785SOL    HW115564  -0.039   7.883   2.480 -1.8727 -2.2099  1.3551
 1785SOL    HW215565   0.114   7.833   2.457 -1.4210  0.3436 -1.4617
 1786SOL     OW15566   3.144   7.190   2.376  0.1667 -0.5377 -0.7824
 1786SOL    HW115567   3.235   7.199   2.417  0.1768  0.1740 -0.9618
 1786SOL    HW215568   3.092   7.274   2.390 -1.3994 -1.8472  1.5758
 1787SOL     OW15569   9.579   3.674   0.683 -0.6319 -0.0808  0.0971
 1787SOL    HW115570   9.660   3.659   0.741  0.2682  1.5073 -0.7072
 1787SOL    HW215571   9.501   3.699   0.741  0.3424  1.8095  0.6530
 1788SOL     OW15572   9.874   4.200   2.386 -0.1813 -0.0024 -0.4118
 1788SOL    HW115573   9.969   4.198   2.418 -0.2880 -0.2236 -0.1042
 1788SOL    HW215574   9.826   4.275   2.431 -0.7866 -1.3492  1.2865
 1789SOL     OW15575   6.155   9.147   1.910 -0.5845  0.2002  0.1438
 1789SOL    HW115576   6.086   9.110   1.971 -0.9432  0.6273  0.0037
 1789SOL    HW215577   6.240   9.163   1.961 -0.4441 -0.7597  0.2100
 1790SOL     OW15578   0.439   6.807   1.243 -0.3724  0.4853  0.1208
 1790SOL    HW115579   0.486   6.729   1.203 -0.4469  1.0535 -1.0977
 1790SOL    HW215580   0.428   6.878   1.174 -0.9672  1.2752  1.0185
 1791SOL     OW15581   9.787   0.681   3.364 -0.1687 -0.1654 -0.3115
 1791SOL    HW115582   9.754   0.732   3.285 -0.8140 -0.1969 -0.0678
 1791SOL    HW215583   9.745   0.718   3.447  0.2708 -0.3259 -0.0157
 1792SOL     OW15584   2.011   1.770   2.335  0.0134 -0.0180  0.0748
 1792SOL    HW115585   2.040   1.863   2.357 -0.7359  0.3562 -0.5057
 1792SOL    HW215586   1.959   1.732   2.412 -0.2658  0.2941  0.0412
 1793SOL     OW15587   2.782   7.568   0.259 -0.1628 -0.2118 -0.4241
 1793SOL    HW115588   2.742   7.562   0.167 -0.9050 -2.1478  0.0189
 1793SOL    HW215589   2.729   7.513   0.322  0.4873  0.9240  1.1515
 1794SOL     OW15590   2.110   2.844   3.086  0.9551  0.5860  0.0014
 1794SOL    HW115591   2.088   2.784   3.163  0.8341  1.0323  0.3212
 1794SOL    HW215592   2.050   2.924   3.088  0.2295  0.0646 -1.2025
 1795SOL     OW15593   3.673   9.120   2.326  0.5737 -0.6230  0.3378
 1795SOL    HW115594   3.705   9.025   2.319 -0.8324 -0.9938 -1.8876
 1795SOL    HW215595   3.699   9.169   2.243 -1.4373  0.0335  0.0710
 1796SOL     OW15596   9.139   0.058   0.744  0.3662  0.1316  0.0465
 1796SOL    HW115597   9.144   0.027   0.649  2.3070  1.3542 -0.2776
 1796SOL    HW215598   9.226   0.041   0.790 -1.2255 -2.4754  2.3016
 1797SOL     OW15599   8.682   1.308   0.985 -0.1415 -0.6154 -0.1121
 1797SOL    HW115600   8.584   1.317   1.001 -0.0829 -0.1584 -0.0056
 1797SOL    HW215601   8.725   1.398   0.993  0.1801 -0.7050 -0.8212
 1798SOL     OW15602   2.915   6.444   3.087 -0.1286 -0.4884  0.1438
 1798SOL    HW115603   2.876   6.536   3.083  0.5976 -0.2075 -0.7440
 1798SOL    HW215604   2.858   6.386   3.145 -0.3038  0.6617  1.1450
 1799SOL     OW15605   2.366   6.731   1.713 -0.2226  0.7891 -0.3013
 1799SOL    HW115606   2.303   6.754   1.639 -1.5509 -1.3835  0.1019
 1799SOL    HW215607   2.407   6.815   1.750 -3.0017  2.2825 -0.4586
 1800SOL     OW15608   5.478   8.299   2.014 -0.1377  0.1089 -0.3084
 1800SOL    HW115609   5.433   8.302   1.925  1.7474  1.3327 -1.2569
 1800SOL    HW215610   5.510   8.391   2.038 -1.7272  0.0603  2.2442
 1801SOL     OW15611   1.828   4.603   1.439  0.0871  0.0885 -0.2616
 1801SOL    HW115612   1.888   4.528   1.463 -3.3918 -3.1431 -1.1890
 1801SOL    HW215613   1.774   4.630   1.519 -0.6582 -0.3155 -0.6229
 1802SOL     OW15614   2.676   7.101   0.074 -0.2031  0.0011  0.4413
 1802SOL    HW115615   2.737   7.035   0.117 -0.7359  1.3164  3.3637
 1802SOL    HW215616   2.598   7.053   0.034  1.7044 -1.4943 -1.5573
 1803SOL     OW15617   1.277   2.183   1.485 -0.0214 -0.0627  0.0053
 1803SOL    HW115618   1.330   2.101   1.502 -1.8322 -1.6180 -1.5797
 1803SOL    HW215619   1.302   2.222   1.396 -0.6638 -0.1178 -0.2036
 1804SOL     OW15620   1.893   8.693   3.395  0.3345 -0.2114 -0.3362
 1804SOL    HW115621   1.992   8.699   3.384  0.2834  0.4393 -0.4599
 1804SOL    HW215622   1.870   8.698   3.492  0.4151 -0.2961 -0.3120
 1805SOL     OW15623   0.946   2.506   1.165 -0.2312  0.6378 -0.1492
 1805SOL    HW115624   0.891   2.486   1.246  0.2638  1.6385  0.4454
 1805SOL    HW215625   1.021   2.567   1.190  2.2964 -2.1897 -0.5392
 1806SOL     OW15626   9.902   8.031   2.401  0.0765  0.5107  0.1129
 1806SOL    HW115627   9.841   8.109   2.416  0.2377  0.7395 -0.3929
 1806SOL    HW215628   9.993   8.064   2.376  0.5043  0.1692  1.2035
 1807SOL     OW15629   2.186   2.766   1.667  0.0551 -0.3890  0.4673
 1807SOL    HW115630   2.231   2.802   1.585 -0.3439 -0.0423  0.3980
 1807SOL    HW215631   2.090   2.792   1.667  0.0566 -0.3623  1.0631
 1808SOL     OW15632   1.674   5.430   3.307 -0.2039 -0.2966 -0.3161
 1808SOL    HW115633   1.683   5.382   3.395  1.8698  0.0261 -0.3165
 1808SOL    HW215634   1.726   5.380   3.237 -0.5335  0.3120 -0.9959
 1809SOL     OW15635   4.547   8.297   1.705  0.1174 -0.0049  0.1026
 1809SOL    HW115636   4.484   8.297   1.627 -1.4147  1.8372  1.3113
 1809SOL    HW215637   4.570   8.391   1.730  0.0979 -0.5433  2.2471
 1810SOL     OW15638   8.546   1.232   2.812  0.4733 -0.0255 -0.4896
 1810SOL    HW115639   8.645   1.245   2.807  0.0519  3.0563 -1.4655
 1810SOL    HW215640   8.508   1.291   2.883 -0.9931  0.8028 -1.9429
 1811SOL     OW15641   1.616   5.099   2.941 -0.2982  0.1956 -0.5450
 1811SOL    HW115642   1.544   5.165   2.919 -0.4336 -0.4201 -1.9888
 1811SOL    HW215643   1.604   5.016   2.886 -0.8168 -1.5316  2.0709
 1812SOL     OW15644   2.789   6.177   0.685 -0.2968  0.7902 -0.2017
 1812SOL    HW115645   2.712   6.156   0.746  1.2284 -0.6260  1.3094
 1812SOL    HW215646   2.761   6.164   0.590 -2.3222  1.6986  0.2383
 1813SOL     OW15647   1.322   9.954   3.185  0.0563 -0.1158  0.2143
 1813SOL    HW115648   1.233   9.971   3.226 -0.0353  1.7704 -0.7126
 1813SOL    HW215649   1.312   9.939   3.086  0.7171 -0.3765  0.1783
 1814SOL     OW15650   0.129   0.673   0.409  0.1783 -0.4238  0.0318
 1814SOL    HW115651   0.209   0.695   0.465 -1.0680  0.3719  1.5571
 1814SOL    HW215652   0.158   0.647   0.317  2.0772  1.5935  0.0233
 1815SOL     OW15653   8.841   1.627   0.717 -0.0102 -0.1956  0.4468
 1815SOL    HW115654   8.832   1.637   0.816  0.3221 -0.4165  0.5009
 1815SOL    HW215655   8.781   1.693   0.672 -1.2493 -1.0589  0.7910
 1816SOL     OW15656   1.647   1.849   0.891  0.6197  0.6390 -0.0108
 1816SOL    HW115657   1.671   1.832   0.987  4.2196  0.1146 -0.9174
 1816SOL    HW215658   1.550   1.872   0.884  0.4371  1.3262  3.8227
 1817SOL     OW15659   8.070   0.530   0.420 -0.3137 -0.4722  0.3959
 1817SOL    HW115660   8.129   0.598   0.376  0.7701 -1.0562  0.9330
 1817SOL    HW215661   8.022   0.573   0.497 -1.2369  0.2151 -0.5409
 1818SOL     OW15662   2.058   1.540   1.491  0.4497 -0.1432  0.2314
 1818SOL    HW115663   2.106   1.599   1.556  1.0686 -0.6403  0.2263
 1818SOL    HW215664   2.079   1.570   1.398 -0.1821  0.3689  0.2526
 1819SOL     OW15665   9.071   3.429   0.843  0.1757  0.0590 -0.4977
 1819SOL    HW115666   9.026   3.509   0.804 -1.1253  0.1454  1.1469
 1819SOL    HW215667   9.030   3.407   0.931  2.0692 -1.0304  0.1408
 1820SOL     OW15668   3.639   7.948   0.943 -0.3352 -0.0955  0.3853
 1820SOL    HW115669   3.651   7.965   1.041 -1.3447 -1.4336  0.7663
 1820SOL    HW215670   3.667   8.028   0.891 -1.5089  1.3268  1.8810
 1821SOL     OW15671   9.983   0.347   1.585 -0.2577 -0.4887 -0.4066
 1821SOL    HW115672  10.004   0.409   1.510 -1.2143  1.9139  1.2452
 1821SOL    HW215673  10.011   0.389   1.672 -0.4177 -2.6213  0.7116
 1822SOL     OW15674   7.622   0.934   3.380 -0.2051  0.5003 -0.1825
 1822SOL    HW115675   7.633   1.031   3.360 -1.3645  0.7090  0.1889
 1822SOL    HW215676   7.613   0.921   3.479 -0.3380  0.0437 -0.2531
 1823SOL     OW15677   1.786   3.072   2.439  0.2610  0.1904  0.5441
 1823SOL    HW115678   1.814   2.979   2.414 -0.6614  0.4569 -1.5144
 1823SOL    HW215679   1.774   3.076   2.539 -1.6362 -2.4636  0.4941
 1824SOL     OW15680   9.825   0.315   1.899 -0.0541  0.4505  0.0293
 1824SOL    HW115681   9.913   0.335   1.942  1.2659 -1.1256 -1.8483
 1824SOL    HW215682   9.770   0.258   1.961  1.6746 -1.4856 -0.1476
 1825SOL     OW15683   0.444   1.369   0.460 -0.2636  0.0921 -0.0169
 1825SOL    HW115684   0.369   1.311   0.494 -1.5714  1.7196 -0.0429
 1825SOL    HW215685   0.524   1.358   0.519 -0.5544 -1.5968  0.0853
 1826SOL     OW15686   1.143   3.758   3.243  0.4370  0.2555  0.5953
 1826SOL    HW115687   1.198   3.685   3.285 -1.6320 -0.8172  1.5063
 1826SOL    HW215688   1.092   3.806   3.314 -1.7313 -0.4219 -0.4457
 1827SOL     OW15689   1.351   1.523   1.893  0.4239  0.1949 -0.1961
 1827SOL    HW115690   1.299   1.547   1.975  0.9458 -0.7940  0.4379
 1827SOL    HW215691   1.443   1.562   1.901  0.7434 -0.6171  0.0745
 1828SOL     OW15692   4.671   7.405   2.793 -0.5714 -0.3986 -0.0183
 1828SOL    HW115693   4.672   7.327   2.856  0.0102  0.2510  0.8046
 1828SOL    HW215694   4.639   7.376   2.703 -1.2384 -1.3882  0.5332
 1829SOL     OW15695   1.402   0.976   2.241  0.0613 -0.7817 -0.0562
 1829SOL    HW115696   1.464   1.017   2.173 -1.1491  0.0126 -0.7132
 1829SOL    HW215697   1.342   1.047   2.278  1.5317 -0.9561  2.8099
 1830SOL     OW15698   9.741   0.968   0.876  0.0927 -0.4079 -0.6238
 1830SOL    HW115699   9.672   0.949   0.946 -0.1435 -0.1318 -0.7818
 1830SOL    HW215700   9.758   1.066   0.873 -1.3223 -0.1925 -2.3141
 1831SOL     OW15701   3.931   8.680   2.053 -0.4081 -1.0488  0.5124
 1831SOL    HW115702   3.953   8.702   2.148  1.2511  2.3551 -0.5841
 1831SOL    HW215703   3.958   8.585   2.034  2.7475 -0.6204  2.4263
 1832SOL     OW15704   1.765   3.588   2.196  0.1464 -0.3842  0.0720
 1832SOL    HW115705   1.705   3.655   2.151 -1.8239 -1.2958  1.2931
 1832SOL    HW215706   1.834   3.556   2.130  0.3033  1.8537 -0.8978
 1833SOL     OW15707   2.827   2.407   0.892 -0.5856 -0.1417 -0.3836
 1833SOL    HW115708   2.737   2.450   0.887 -1.2011 -1.3902 -0.1709
 1833SOL    HW215709   2.897   2.474   0.870 -1.3783  1.5173  1.9122
 1834SOL     OW15710   1.804   8.176   0.124 -0.0014 -0.1361  0.2657
 1834SOL    HW115711   1.764   8.207   0.038  0.5081 -0.0695  0.0478
 1834SOL    HW215712   1.872   8.242   0.155  1.3467 -1.1750 -0.3825
 1835SOL     OW15713   8.336   5.493   0.785 -0.5867  0.0082  0.2999
 1835SOL    HW115714   8.347   5.591   0.799 -0.7637 -0.0830  1.1219
 1835SOL    HW215715   8.426   5.448   0.789 -0.6061  0.0198  0.8810
 1836SOL     OW15716   9.904   5.901   1.171 -1.0556 -0.1856  0.5913
 1836SOL    HW115717   9.855   5.948   1.098 -0.1012  0.1026  0.1256
 1836SOL    HW215718   9.977   5.960   1.205 -0.1237 -1.1510  0.2984
 1837SOL     OW15719   8.429   2.536   0.664 -0.3762 -0.3330  0.2954
 1837SOL    HW115720   8.430   2.635   0.650  0.9016 -0.5993 -1.5927
 1837SOL    HW215721   8.478   2.514   0.748  1.4992  0.4570 -0.5800
 1838SOL     OW15722   2.371   4.539   3.163 -0.0935 -0.4011 -0.0522
 1838SOL    HW115723   2.434   4.543   3.240  0.0131 -0.4278 -0.1372
 1838SOL    HW215724   2.317   4.455   3.168  0.6237 -0.8972 -0.5549
 1839SOL     OW15725   8.936   2.878   0.355 -0.2113  0.3361 -0.7172
 1839SOL    HW115726   8.921   2.973   0.326  0.2158  0.6262  0.0066
 1839SOL    HW215727   8.853   2.843   0.397  0.0925  0.8722  0.3396
 1840SOL     OW15728   2.849   2.104   3.159 -0.3317 -0.2216  0.4991
 1840SOL    HW115729   2.873   2.123   3.254 -0.3459  0.1997  0.4196
 1840SOL    HW215730   2.932   2.095   3.105 -0.3170 -0.8997  0.6366
 1841SOL     OW15731   3.992   3.974   2.056  0.0123  0.3325 -0.0998
 1841SOL    HW115732   4.047   3.890   2.055 -0.1220  0.2454 -1.7075
 1841SOL    HW215733   4.050   4.052   2.079  0.6719  0.1463 -1.1052
 1842SOL     OW15734   2.427   0.638   2.852 -0.3488 -0.2159 -0.2049
 1842SOL    HW115735   2.518   0.605   2.879 -0.4482  1.4679  2.4219
 1842SOL    HW215736   2.358   0.570   2.879 -0.1882  0.2013  1.2837
 1843SOL     OW15737   3.591   9.481   0.411  0.6536  0.1813 -0.2037
 1843SOL    HW115738   3.651   9.542   0.462  0.4926  0.8983 -0.8654
 1843SOL    HW215739   3.545   9.532   0.338  0.5544 -0.7339 -0.7934
 1844SOL     OW15740   1.329   5.536   0.361  0.4034  0.0811 -0.0107
 1844SOL    HW115741   1.354   5.544   0.457 -2.2050  1.1300  0.6106
 1844SOL    HW215742   1.290   5.446   0.344  3.2864 -1.1154 -0.7318
 1845SOL     OW15743   2.792   9.282   2.405 -0.0299 -0.0664  0.3724
 1845SOL    HW115744   2.844   9.270   2.489  1.0340 -0.2914 -0.3006
 1845SOL    HW215745   2.849   9.330   2.338 -0.1995 -1.5423 -0.8527
 1846SOL     OW15746   9.561   4.156   3.031  0.2925  0.1518 -0.2268
 1846SOL    HW115747   9.499   4.231   3.009  0.0541  0.3103  0.9841
 1846SOL    HW215748   9.564   4.092   2.954 -1.4004  0.1230 -0.2792
 1847SOL     OW15749   1.332   7.569   2.296 -0.1041  0.0202 -0.3196
 1847SOL    HW115750   1.331   7.528   2.388 -0.7710  0.9045  0.0776
 1847SOL    HW215751   1.304   7.665   2.303 -2.1077 -0.4463 -1.7154
 1848SOL     OW15752   8.828   4.013   2.661 -0.5302  0.0567 -0.0071
 1848SOL    HW115753   8.757   3.944   2.651  0.0607 -0.8113  1.6065
 1848SOL    HW215754   8.837   4.038   2.758  2.3805 -0.9879  0.0551
 1849SOL     OW15755   8.846   3.299   3.338  0.4824  0.5051  0.3349
 1849SOL    HW115756   8.917   3.233   3.316  0.7320  0.5129  1.1194
 1849SOL    HW215757   8.887   3.389   3.355  0.1545  0.8611 -0.6420
 1850SOL     OW15758   9.406   2.568   2.592 -0.0489  0.4141  1.0923
 1850SOL    HW115759   9.390   2.486   2.647 -0.3577 -0.0548  0.3242
 1850SOL    HW215760   9.448   2.639   2.648 -1.5800  0.4263  2.2550
 1851SOL     OW15761   9.777   0.541   0.851 -0.2872 -0.4318  0.1891
 1851SOL    HW115762   9.846   0.589   0.797  0.0134 -0.1859  0.7892
 1851SOL    HW215763   9.822   0.488   0.923 -0.7099 -0.4379  0.4475
 1852SOL     OW15764   0.553   6.690   1.839 -0.2210  0.0212  0.3843
 1852SOL    HW115765   0.510   6.611   1.796  0.7374 -0.7216  0.7790
 1852SOL    HW215766   0.484   6.743   1.888 -1.1485  0.3034 -1.1776
 1853SOL     OW15767   7.801   1.209   0.179 -0.0508 -0.0537 -0.1886
 1853SOL    HW115768   7.729   1.156   0.223  0.4524 -1.2505 -0.7834
 1853SOL    HW215769   7.867   1.239   0.248 -0.3856 -0.1184  0.1615
 1854SOL     OW15770   2.294   3.208   1.464 -0.0242 -0.1818 -0.2191
 1854SOL    HW115771   2.198   3.185   1.453  0.1342 -1.4798  1.0210
 1854SOL    HW215772   2.324   3.187   1.557  0.8892  2.3466  0.1146
 1855SOL     OW15773   0.588   2.026   3.179 -0.1885 -0.1947 -0.4399
 1855SOL    HW115774   0.493   2.011   3.207 -0.2470  0.0691 -0.4889
 1855SOL    HW215775   0.638   2.071   3.253  0.1127 -1.0573 -0.1089
 1856SOL     OW15776   8.228   1.927   1.228 -0.5242 -0.1866 -0.2179
 1856SOL    HW115777   8.245   1.969   1.317  1.5481  0.8890 -1.0920
 1856SOL    HW215778   8.253   1.830   1.233 -1.2335 -0.3306  0.6132
 1857SOL     OW15779   2.285   5.112   1.572  0.0056  0.2590  0.0427
 1857SOL    HW115780   2.218   5.186   1.574 -1.0563 -0.6869  0.5933
 1857SOL    HW215781   2.302   5.084   1.478  1.0212  1.7261 -0.2254
 1858SOL     OW15782   8.212   1.090   0.415 -0.2629  0.2638 -0.5858
 1858SOL    HW115783   8.293   1.096   0.358  1.7943 -2.0629  1.9526
 1858SOL    HW215784   8.169   1.000   0.404 -0.6830  0.3329  0.3983
 1859SOL     OW15785   1.099   8.236   3.318 -0.0219  0.6910 -0.1886
 1859SOL    HW115786   1.058   8.312   3.369  0.4243  1.0328 -0.3373
 1859SOL    HW215787   1.152   8.272   3.241  0.6782  0.2567  0.0868
 1860SOL     OW15788   2.556   2.873   1.150  0.2819  0.1957 -0.3181
 1860SOL    HW115789   2.641   2.849   1.197  0.1012  0.8997  0.3870
 1860SOL    HW215790   2.519   2.792   1.104  0.8916 -0.3110  0.0772
 1861SOL     OW15791   0.837   8.268   2.411  0.3034  0.8745 -0.1517
 1861SOL    HW115792   0.771   8.194   2.424  0.5635  1.0632  2.3555
 1861SOL    HW215793   0.802   8.352   2.452  1.5155  1.3034  0.0234
 1862SOL     OW15794   2.387   4.399   2.556  0.1416  0.6593 -0.2033
 1862SOL    HW115795   2.368   4.320   2.499 -1.8661  0.0163  1.2900
 1862SOL    HW215796   2.486   4.411   2.566  0.4592 -0.9933 -1.3398
 1863SOL     OW15797   3.730   1.455   1.892  0.4868 -0.0152  0.5030
 1863SOL    HW115798   3.729   1.463   1.792  1.1845 -1.1510  0.3983
 1863SOL    HW215799   3.688   1.536   1.932 -1.1970 -0.2446 -0.7498
 1864SOL     OW15800   2.817   9.747   0.171 -0.1573 -0.0391 -1.0881
 1864SOL    HW115801   2.798   9.834   0.215 -0.2902 -1.0760  0.9744
 1864SOL    HW215802   2.751   9.731   0.097 -0.0482  1.6293 -1.5704
 1865SOL     OW15803   4.523   9.236   2.033  0.4966  0.4908  0.8829
 1865SOL    HW115804   4.524   9.146   2.077 -1.9102  0.0202  0.0063
 1865SOL    HW215805   4.443   9.287   2.063  0.5465  1.3984 -0.5189
 1866SOL     OW15806   2.451   4.046   0.900 -0.0674 -0.4323  0.2258
 1866SOL    HW115807   2.489   4.103   0.827 -1.5421  0.1157 -0.1274
 1866SOL    HW215808   2.361   4.080   0.926  0.1023 -1.0903  1.7755
 1867SOL     OW15809   3.019   1.376   2.956 -1.0238 -0.0785  0.1292
 1867SOL    HW115810   3.118   1.375   2.969 -0.9668  1.1079 -0.1820
 1867SOL    HW215811   2.999   1.399   2.861 -1.6083  0.3475  0.3535
 1868SOL     OW15812   6.664   9.489   2.270 -0.0849  0.4735  0.5976
 1868SOL    HW115813   6.620   9.421   2.210  0.1311  0.0093  0.9626
 1868SOL    HW215814   6.694   9.567   2.215 -0.8527  0.5320  0.2626
 1869SOL     OW15815   3.767   7.223   3.182 -0.3240  0.0924  0.0432
 1869SOL    HW115816   3.829   7.174   3.120 -0.3506  1.4776 -1.0854
 1869SOL    HW215817   3.673   7.192   3.165 -0.2864  0.1760 -0.3283
 1870SOL     OW15818   0.014   0.788   2.010  0.2724 -0.5618 -1.1951
 1870SOL    HW115819  -0.020   0.703   2.050  0.7111 -0.0655  0.2649
 1870SOL    HW215820   0.113   0.790   2.016  0.1073  1.4200  1.6664
 1871SOL     OW15821   3.253   8.713   2.961  0.0348  0.1127 -0.1056
 1871SOL    HW115822   3.304   8.793   2.992  0.1548 -0.4614  1.1981
 1871SOL    HW215823   3.281   8.689   2.868 -0.5339  2.0266 -0.7960
 1872SOL     OW15824   3.172   9.405   0.350  0.1091 -0.5577  0.6198
 1872SOL    HW115825   3.103   9.369   0.412  0.2437 -0.1997  0.9777
 1872SOL    HW215826   3.246   9.339   0.339 -0.7545 -1.3539 -0.5200
 1873SOL     OW15827   0.235   1.675   0.782  0.1998 -0.3632  0.7582
 1873SOL    HW115828   0.205   1.588   0.744 -1.5184  0.6440 -0.2977
 1873SOL    HW215829   0.197   1.687   0.873  0.4378 -0.7186  0.9035
 1874SOL     OW15830   1.287   3.133   2.387  0.0733 -0.1125  0.3187
 1874SOL    HW115831   1.333   3.104   2.471  1.2486 -0.7171 -0.5181
 1874SOL    HW215832   1.225   3.208   2.408 -1.3927 -1.7822  2.1451
 1875SOL     OW15833   3.727   5.129   2.119 -0.5163 -0.0557  0.4730
 1875SOL    HW115834   3.714   5.100   2.024  1.9077  3.8283 -1.1420
 1875SOL    HW215835   3.654   5.192   2.145  0.4180  1.1659  0.1793
 1876SOL     OW15836   2.435   5.408   1.473 -0.3809 -0.0281  0.1792
 1876SOL    HW115837   2.455   5.319   1.432  0.6584  0.0379  0.5363
 1876SOL    HW215838   2.390   5.466   1.405 -0.7136 -0.6942 -0.1714
 1877SOL     OW15839   3.245   3.355   3.207 -0.8373  0.5502 -0.3129
 1877SOL    HW115840   3.262   3.403   3.293 -0.1139 -1.9497  0.9930
 1877SOL    HW215841   3.311   3.385   3.138  1.4126 -0.5676  1.2931
 1878SOL     OW15842   0.111   8.455   2.479  0.8053  0.1292  0.3232
 1878SOL    HW115843   0.140   8.549   2.465  0.0162  0.2089 -0.8805
 1878SOL    HW215844   0.108   8.434   2.577  0.6006  1.4705  0.6030
 1879SOL     OW15845   2.744   5.312   3.191 -0.2295  0.1311  0.0561
 1879SOL    HW115846   2.798   5.346   3.114  2.0625 -3.2890  0.0449
 1879SOL    HW215847   2.774   5.358   3.275 -0.1395  1.1635 -0.5302
 1880SOL     OW15848   4.140   7.647   2.306 -0.4485 -0.0002 -0.1350
 1880SOL    HW115849   4.118   7.742   2.286  0.1242  0.2372  0.3553
 1880SOL    HW215850   4.070   7.608   2.366 -0.8417  0.0197 -0.5759
 1881SOL     OW15851   0.048   4.651   2.990  0.1455 -0.1403  0.2026
 1881SOL    HW115852   0.141   4.687   2.981  0.0768 -0.3832 -1.7625
 1881SOL    HW215853   0.053   4.554   3.015  0.4561 -0.4706 -1.1023
 1882SOL     OW15854   9.564   2.313   0.245  0.2140 -0.5049  0.8167
 1882SOL    HW115855   9.526   2.239   0.300 -1.6859  0.4170  0.8237
 1882SOL    HW215856   9.629   2.277   0.179 -1.6756 -2.3680 -0.0838
 1883SOL     OW15857   9.724   3.600   1.203 -0.1695  0.4008 -0.6123
 1883SOL    HW115858   9.638   3.553   1.223  0.0979 -0.7585 -2.0906
 1883SOL    HW215859   9.707   3.697   1.186 -0.9162  0.5828  1.0766
 1884SOL     OW15860   2.782   8.090   0.475  0.1839 -0.7012  0.2303
 1884SOL    HW115861   2.811   8.111   0.382  0.9756 -0.9171  0.4200
 1884SOL    HW215862   2.756   8.174   0.522 -1.3858 -0.7240 -0.5613
 1885SOL     OW15863   7.378   0.365   2.575  0.5285  0.5067 -0.4967
 1885SOL    HW115864   7.344   0.409   2.492  2.2109  0.5554 -1.1735
 1885SOL    HW215865   7.378   0.432   2.650  0.0585  0.7723 -0.7290
 1886SOL     OW15866   4.123   9.705   2.513  0.3430 -0.3995 -0.1839
 1886SOL    HW115867   4.206   9.684   2.563  0.5045 -0.3429 -0.4266
 1886SOL    HW215868   4.054   9.635   2.530  0.1603 -0.0256  0.6542
 1887SOL     OW15869   0.287   3.967   1.360  0.2528  0.0667  0.1779
 1887SOL    HW115870   0.271   4.054   1.314  0.3249 -0.3854 -0.7069
 1887SOL    HW215871   0.298   3.894   1.292  0.2930 -0.6185  0.9063
 1888SOL     OW15872   0.203   5.800   1.494 -0.0669 -0.2371  0.6540
 1888SOL    HW115873   0.283   5.743   1.476  0.7979  1.3229 -0.6248
 1888SOL    HW215874   0.195   5.816   1.592  0.5013 -1.3791  0.8927
 1889SOL     OW15875   1.779   9.788   1.938  0.7549  0.1507  0.4954
 1889SOL    HW115876   1.841   9.849   1.989  0.8967  0.3206  0.1218
 1889SOL    HW215877   1.713   9.748   2.002  0.1531  1.3172  0.6300
 1890SOL     OW15878   7.972   3.463   2.423 -0.5021 -0.7654 -0.4212
 1890SOL    HW115879   7.887   3.504   2.391  0.8099  0.6557 -2.2316
 1890SOL    HW215880   7.997   3.502   2.512 -1.2480 -0.4748 -0.3378
 1891SOL     OW15881   8.865   3.473   2.789  0.1839  0.8466  0.2759
 1891SOL    HW115882   8.905   3.481   2.698  2.4242  1.4208  1.2625
 1891SOL    HW215883   8.936   3.487   2.858 -0.9811 -1.8435  2.1220
 1892SOL     OW15884   1.589   0.472   1.895  0.1694  0.1925  0.1350
 1892SOL    HW115885   1.632   0.539   1.955 -0.5757  0.0268  0.8798
 1892SOL    HW215886   1.539   0.519   1.823 -0.1343  0.4369  0.5021
 1893SOL     OW15887   2.378   5.528   1.987  0.2232 -0.2478  0.0713
 1893SOL    HW115888   2.423   5.442   1.963  0.8344 -0.1261  0.7898
 1893SOL    HW215889   2.311   5.551   1.916  2.0844  0.1649 -1.5633
 1894SOL     OW15890   2.566   6.658   2.762  0.1324 -0.4170  0.0865
 1894SOL    HW115891   2.595   6.709   2.681 -0.9103  1.5348  0.9123
 1894SOL    HW215892   2.614   6.570   2.765  1.8671  0.4450 -1.4348
 1895SOL     OW15893   2.949   8.066   0.033  0.2106  0.5706 -0.2492
 1895SOL    HW115894   3.039   8.050  -0.007 -0.1077 -1.1812 -0.3195
 1895SOL    HW215895   2.883   8.000  -0.005 -1.3479  2.4706 -0.9616
 1896SOL     OW15896   2.569   2.155   0.296 -0.0984 -0.4163 -0.5059
 1896SOL    HW115897   2.589   2.136   0.392  2.3428 -0.7101 -1.0272
 1896SOL    HW215898   2.482   2.113   0.271 -0.7707 -0.3254  1.5615
 1897SOL     OW15899   2.507   1.906   2.377 -0.7150  0.0811  0.2575
 1897SOL    HW115900   2.462   1.830   2.330  1.2959 -0.2319 -1.2323
 1897SOL    HW215901   2.587   1.873   2.427  1.3566  1.4371 -2.0415
 1898SOL     OW15902   1.631   1.369   2.314  0.2469  0.8560  0.3531
 1898SOL    HW115903   1.604   1.330   2.402 -1.7699  2.2656  0.3931
 1898SOL    HW215904   1.721   1.335   2.289 -0.2883 -1.6554  1.6839
 1899SOL     OW15905   1.980   1.933   1.951 -0.2214  0.2278 -0.1496
 1899SOL    HW115906   1.943   1.934   1.859 -0.1875  1.3716 -0.1688
 1899SOL    HW215907   1.935   2.004   2.006 -0.6316 -0.7958  0.8719
 1900SOL     OW15908   7.828   0.599   3.107  0.4803  0.0053  0.1871
 1900SOL    HW115909   7.729   0.584   3.096  0.4559 -1.1119  1.7037
 1900SOL    HW215910   7.843   0.659   3.186  0.9537  1.7260 -1.1730
 1901SOL     OW15911   2.030   4.572   1.956 -0.4291 -0.0878 -0.2597
 1901SOL    HW115912   2.059   4.555   2.050  2.0073 -0.6040 -1.0880
 1901SOL    HW215913   2.063   4.499   1.897  1.6551  2.3467 -2.2105
 1902SOL     OW15914   0.418   3.325   2.138 -0.0105  0.6000  0.0308
 1902SOL    HW115915   0.371   3.403   2.098 -1.3496 -0.5505 -0.6842
 1902SOL    HW215916   0.515   3.328   2.113 -0.0533  1.9990 -0.0059
 1903SOL     OW15917   3.183   7.904   1.431 -0.0782  0.1318 -0.4568
 1903SOL    HW115918   3.106   7.938   1.377  0.1764 -0.8573 -1.4552
 1903SOL    HW215919   3.262   7.890   1.371  0.9778  1.4094  0.6078
 1904SOL     OW15920   4.436   8.174   1.953 -0.0110 -0.0761 -0.1100
 1904SOL    HW115921   4.500   8.191   1.878 -1.0094  0.8338 -0.7761
 1904SOL    HW215922   4.343   8.164   1.916 -0.7871  2.1846  1.1235
 1905SOL     OW15923   1.619   1.697   0.635  1.1691 -0.0979 -0.1704
 1905SOL    HW115924   1.626   1.730   0.729  2.9166  0.7575 -0.5723
 1905SOL    HW215925   1.642   1.600   0.631 -0.9052 -0.6393  0.5667
 1906SOL     OW15926   0.342   9.370   1.040  0.0645 -0.9430 -0.0528
 1906SOL    HW115927   0.337   9.296   0.973  0.8751 -0.0230 -1.1499
 1906SOL    HW215928   0.436   9.377   1.075  0.0040 -0.4124  0.0150
 1907SOL     OW15929   2.616   9.245   2.676 -0.0275 -0.6371  0.0438
 1907SOL    HW115930   2.657   9.267   2.587 -1.9321 -0.5545 -0.8395
 1907SOL    HW215931   2.628   9.148   2.695 -1.0351 -1.0076 -1.0979
 1908SOL     OW15932   4.530   8.387   1.325  0.0006  0.4289  0.4581
 1908SOL    HW115933   4.598   8.318   1.352 -0.1043  0.3680  0.5677
 1908SOL    HW215934   4.554   8.475   1.364  0.6491  0.6631 -0.4676
 1909SOL     OW15935   2.519   6.255   2.866  0.2801  0.5237  0.5736
 1909SOL    HW115936   2.576   6.217   2.939  0.8090 -0.9243 -0.5706
 1909SOL    HW215937   2.443   6.192   2.848 -0.0913  1.0864  0.1700
 1910SOL     OW15938   0.762   2.831   1.279 -0.2686 -0.0942  0.0139
 1910SOL    HW115939   0.680   2.777   1.262 -1.2104  1.3521 -0.1245
 1910SOL    HW215940   0.783   2.829   1.377  0.7310 -2.1371 -0.2186
 1911SOL     OW15941   2.079   1.093   1.725 -0.5009  0.1862 -0.1741
 1911SOL    HW115942   2.094   1.185   1.689 -0.4564  0.3626  0.2815
 1911SOL    HW215943   2.090   1.025   1.652 -1.3002  0.5977 -0.6840
 1912SOL     OW15944   2.979   8.680   1.397 -0.5408 -0.2537 -0.0794
 1912SOL    HW115945   2.973   8.686   1.497 -0.6561 -0.1566 -0.0911
 1912SOL    HW215946   3.051   8.617   1.371 -2.3532 -2.4683  0.0936
 1913SOL     OW15947   1.924   3.810   2.471  0.3415  0.1454 -0.5724
 1913SOL    HW115948   1.885   3.732   2.520 -2.1373  1.5484 -0.2060
 1913SOL    HW215949   2.003   3.780   2.418 -0.1118 -2.4492  0.1374
 1914SOL     OW15950   7.378   0.183   2.808  0.5551  0.3873 -0.3413
 1914SOL    HW115951   7.377   0.249   2.734  1.6089  2.1166  1.1573
 1914SOL    HW215952   7.469   0.142   2.817  1.4920  2.8581  2.2570
 1915SOL     OW15953   1.784   4.324   2.277 -0.5494  0.1202 -0.0394
 1915SOL    HW115954   1.764   4.235   2.234  2.6402  0.0769 -1.6622
 1915SOL    HW215955   1.796   4.312   2.375 -0.6617 -1.1891 -0.1748
 1916SOL     OW15956   0.454   0.399   0.200  0.0121  0.2745 -0.0205
 1916SOL    HW115957   0.467   0.440   0.291  1.4454 -0.6618  0.2091
 1916SOL    HW215958   0.356   0.388   0.183 -0.2810  0.6713  1.3150
 1917SOL     OW15959   3.695   2.132   2.878 -0.9239 -0.3301  0.1293
 1917SOL    HW115960   3.723   2.227   2.888 -1.8923  0.2825 -2.5780
 1917SOL    HW215961   3.751   2.074   2.938  1.6957  1.6006 -0.3669
 1918SOL     OW15962   1.373   1.975   2.482  0.3069 -0.5124 -0.0191
 1918SOL    HW115963   1.449   2.014   2.534 -0.4962  1.1326 -0.0459
 1918SOL    HW215964   1.375   2.009   2.388 -1.2307  0.6535  0.3362
 1919SOL     OW15965   1.370   1.914   3.358 -0.0992 -0.1355  0.0473
 1919SOL    HW115966   1.377   2.010   3.331 -0.8294 -0.0668  0.0867
 1919SOL    HW215967   1.275   1.893   3.381  0.3603 -0.4094  1.7429
 1920SOL     OW15968   9.405   3.269   1.800  0.1634  0.0413 -0.2845
 1920SOL    HW115969   9.411   3.251   1.702 -1.2096  0.8227 -0.5253
 1920SOL    HW215970   9.495   3.297   1.834  0.3218  1.2125 -1.6245
 1921SOL     OW15971   1.585   1.936   0.487 -0.2181 -0.1673 -0.4976
 1921SOL    HW115972   1.587   1.878   0.569 -0.3524  0.1518 -0.2691
 1921SOL    HW215973   1.620   1.884   0.409  1.7232  0.1284  0.1380
 1922SOL     OW15974   3.267   0.172   1.961 -0.3318  0.0917  0.2498
 1922SOL    HW115975   3.366   0.183   1.960 -0.3852  0.5416 -0.3038
 1922SOL    HW215976   3.223   0.261   1.969 -0.7043  0.0049 -0.7361
 1923SOL     OW15977   0.514   9.692   0.149 -0.4682 -0.0358  0.0973
 1923SOL    HW115978   0.463   9.690   0.063 -0.5501 -1.4713  0.1667
 1923SOL    HW215979   0.564   9.606   0.160  2.8644  1.7267 -0.4854
 1924SOL     OW15980   2.664   6.835   0.376 -0.4881 -0.4799  0.6554
 1924SOL    HW115981   2.624   6.773   0.309 -0.0576 -0.3424  0.2751
 1924SOL    HW215982   2.610   6.919   0.381 -0.6693 -0.5961  0.6747
 1925SOL     OW15983   0.422   0.101   1.169  0.1793  0.5738  0.5863
 1925SOL    HW115984   0.405   0.197   1.146  1.0125  0.5791 -0.0554
 1925SOL    HW215985   0.336   0.050   1.170 -0.0684  0.9575 -0.8143
 1926SOL     OW15986   9.627   5.113   0.628 -0.0571 -0.1941  0.5734
 1926SOL    HW115987   9.724   5.095   0.613 -0.1859  1.0182 -2.0536
 1926SOL    HW215988   9.612   5.211   0.639 -0.8359 -0.4896  2.2070
 1927SOL     OW15989   9.619   9.563   2.448  0.0866 -0.4399 -0.0665
 1927SOL    HW115990   9.617   9.552   2.547  0.4073  2.0135  0.2376
 1927SOL    HW215991   9.667   9.648   2.424 -0.2085 -0.8633 -2.3124
 1928SOL     OW15992   1.773   0.723   3.119  0.8373  0.2274  0.1853
 1928SOL    HW115993   1.773   0.713   3.218  0.5569 -0.3126  0.1362
 1928SOL    HW215994   1.864   0.752   3.088  1.4795 -1.4371  0.4374
 1929SOL     OW15995   9.869   1.632   3.142 -0.2190 -0.7217  0.3127
 1929SOL    HW115996   9.794   1.672   3.193 -0.2258 -0.7222  0.3025
 1929SOL    HW215997   9.835   1.591   3.057 -0.0932  0.0186 -0.1028
 1930SOL     OW15998   3.960   8.123   0.554  0.3388 -0.3280  0.6598
 1930SOL    HW115999   4.054   8.155   0.553  0.1137  0.3248 -0.5677
 1930SOL    HW216000   3.901   8.195   0.591  0.1360 -0.1819  0.0603
 1931SOL     OW16001   8.633   2.967   0.175 -0.3155  0.3875  0.0922
 1931SOL    HW116002   8.593   2.875   0.169  1.4546 -0.3773 -0.3939
 1931SOL    HW216003   8.720   2.962   0.224 -0.2571  1.8348  0.1646
 1932SOL     OW16004   9.032   4.465   0.840  0.0377 -0.0721 -0.2070
 1932SOL    HW116005   9.052   4.431   0.749  0.6484 -2.8728  0.9120
 1932SOL    HW216006   8.979   4.396   0.890 -2.2130  2.3135  0.8410
 1933SOL     OW16007   4.586   3.804   0.707 -0.4589 -0.4080 -0.2013
 1933SOL    HW116008   4.590   3.868   0.631 -0.3262 -0.2718 -0.0785
 1933SOL    HW216009   4.537   3.845   0.783 -1.5206 -0.9339 -0.5917
 1934SOL     OW16010   1.915   1.876   1.682 -0.2970 -0.3283 -0.1497
 1934SOL    HW116011   1.857   1.958   1.679 -0.2345 -0.3302 -2.8565
 1934SOL    HW216012   2.000   1.894   1.632 -0.3514 -2.0921 -0.9070
 1935SOL     OW16013   3.774   0.085   2.662  0.1946 -0.0869  0.3255
 1935SOL    HW116014   3.833   0.019   2.615 -1.1940 -0.1621 -1.3661
 1935SOL    HW216015   3.811   0.104   2.752  2.3422 -0.7723 -0.3798
 1936SOL     OW16016   3.720   0.367   1.277 -0.4216 -0.1252 -0.3445
 1936SOL    HW116017   3.625   0.400   1.285 -0.2577  0.9381 -2.3895
 1936SOL    HW216018   3.722   0.289   1.215 -0.0752 -0.6723  0.3623
 1937SOL     OW16019   8.499   1.197   3.254 -0.0762 -0.0846 -0.3059
 1937SOL    HW116020   8.521   1.114   3.304  0.6338  0.6880  0.6903
 1937SOL    HW216021   8.401   1.203   3.239 -0.2559 -0.4984  0.6892
 1938SOL     OW16022   1.786   9.356   2.797 -0.0866  0.4766 -0.3347
 1938SOL    HW116023   1.726   9.324   2.724  0.3858 -0.8995 -0.1414
 1938SOL    HW216024   1.748   9.439   2.838 -0.3448  1.2600 -2.1386
 1939SOL     OW16025   4.449   2.538   1.217 -0.1762  0.0832  0.6098
 1939SOL    HW116026   4.496   2.586   1.143  0.7823 -0.5523  0.7900
 1939SOL    HW216027   4.517   2.496   1.277 -0.9619  0.1187  1.5300
 1940SOL     OW16028   1.065   9.515   1.988  0.1610 -0.2045  0.3457
 1940SOL    HW116029   1.054   9.613   1.972 -1.0043 -0.2839  0.6036
 1940SOL    HW216030   1.028   9.464   1.911 -1.1242 -0.4745  1.1130
 1941SOL     OW16031   9.967   3.964   3.139  0.1867  0.2556 -0.1934
 1941SOL    HW116032   9.971   3.878   3.087  0.9257  0.2869 -0.2011
 1941SOL    HW216033  10.014   3.952   3.227  0.0124  0.5585 -0.0564
 1942SOL     OW16034   7.987   4.303   3.348 -0.5141  0.1328 -0.2677
 1942SOL    HW116035   8.055   4.302   3.275 -0.5471  0.1808 -0.2981
 1942SOL    HW216036   7.913   4.366   3.325 -1.7360 -1.6392 -1.3040
 1943SOL     OW16037   2.323   1.299   1.712  0.7926  0.1351 -0.4687
 1943SOL    HW116038   2.374   1.385   1.704 -1.5002  1.4190 -1.8874
 1943SOL    HW216039   2.225   1.318   1.707  0.1608 -2.3636  1.3603
 1944SOL     OW16040   0.289   7.493   0.913 -0.1287  0.5513  0.0662
 1944SOL    HW116041   0.308   7.561   0.842 -0.9424  0.2471 -0.4514
 1944SOL    HW216042   0.368   7.431   0.923 -0.1376  0.3995 -0.7937
 1945SOL     OW16043   8.234   3.270   1.381  0.1054 -0.0153 -0.0059
 1945SOL    HW116044   8.195   3.252   1.291  0.6066  2.3372 -0.7313
 1945SOL    HW216045   8.162   3.298   1.444  0.0267  0.2392 -0.2070
 1946SOL     OW16046   1.184   9.165   1.894 -0.6420  0.4388  0.1832
 1946SOL    HW116047   1.241   9.088   1.865 -1.4827  1.1383 -3.5286
 1946SOL    HW216048   1.240   9.229   1.947  1.5059  0.0638 -1.5635
 1947SOL     OW16049   0.494   1.217   0.962 -0.2211 -0.1813 -0.3689
 1947SOL    HW116050   0.449   1.187   1.046  0.1417 -1.1941 -0.5420
 1947SOL    HW216051   0.592   1.228   0.978 -0.3031  0.6186 -0.3878
 1948SOL     OW16052   3.978   8.801   2.957  0.3503 -0.2398 -0.3319
 1948SOL    HW116053   3.948   8.896   2.943  1.9039  0.4677  0.9893
 1948SOL    HW216054   3.961   8.775   3.052  0.8719 -0.9388 -0.4279
 1949SOL     OW16055   0.769   3.826   2.567  0.6096 -0.0416  0.0693
 1949SOL    HW116056   0.684   3.840   2.517  1.9055 -1.8772 -2.7739
 1949SOL    HW216057   0.773   3.731   2.600  1.4964  0.0667  0.2847
 1950SOL     OW16058   2.226   8.851   0.347 -0.0735  0.0607  0.0809
 1950SOL    HW116059   2.323   8.874   0.336  0.1854 -1.5998 -1.4415
 1950SOL    HW216060   2.180   8.860   0.259 -0.7208 -1.7298  0.2203
 1951SOL     OW16061   1.503   4.217   2.488  0.2475 -0.5468  0.4392
 1951SOL    HW116062   1.442   4.199   2.565  0.2155  0.9974  0.8056
 1951SOL    HW216063   1.594   4.180   2.508  0.0687 -0.7180  0.9513
 1952SOL     OW16064   2.603   9.129   3.164 -0.2105 -0.0928 -0.8700
 1952SOL    HW116065   2.633   9.208   3.111 -2.9025 -0.9257 -3.7763
 1952SOL    HW216066   2.525   9.154   3.220  1.6906  0.3910  1.6403
 1953SOL     OW16067   3.278   4.251   0.138  0.1844 -0.4392 -0.1636
 1953SOL    HW116068   3.227   4.329   0.102  1.1321  0.8850  1.2987
 1953SOL    HW216069   3.232   4.217   0.220  1.5794  0.6971  1.1033
 1954SOL     OW16070   2.419   5.849   3.041  0.0164 -0.5471 -0.0719
 1954SOL    HW116071   2.406   5.750   3.041  0.7779 -0.6472  0.8299
 1954SOL    HW216072   2.428   5.882   3.135  6.4498 -0.4940 -0.4807
 1955SOL     OW16073   2.637   5.740   1.656  0.3670 -0.1324 -0.0916
 1955SOL    HW116074   2.704   5.785   1.715 -1.1746  0.7914  1.0049
 1955SOL    HW216075   2.643   5.641   1.669 -0.2838  0.0789  2.0307
 1956SOL     OW16076   1.305   5.992   0.507  0.1332  0.3128 -0.6665
 1956SOL    HW116077   1.279   5.928   0.435 -0.1402 -1.1202  0.6808
 1956SOL    HW216078   1.283   5.953   0.596  0.4778  2.0526  0.2132
 1957SOL     OW16079   1.946   1.194   2.434  0.0375  0.3781  0.5083
 1957SOL    HW116080   1.986   1.286   2.438  1.0457 -0.0753  1.0732
 1957SOL    HW216081   1.915   1.176   2.341  1.9476  0.4325 -0.1706
 1958SOL     OW16082   0.158   2.450   0.200 -0.1767 -0.0957 -0.2089
 1958SOL    HW116083   0.177   2.547   0.209  0.4635 -0.0716 -1.6219
 1958SOL    HW216084   0.139   2.429   0.104 -1.8424 -1.0955  0.3158
 1959SOL     OW16085   2.065   5.218   1.896  0.1328 -0.0139  0.2859
 1959SOL    HW116086   2.137   5.163   1.939  0.0748 -1.2128 -1.1226
 1959SOL    HW216087   2.073   5.212   1.796 -1.7473  0.0640  0.1115
 1960SOL     OW16088   8.648   3.818   2.609  0.4815 -0.1388  0.5798
 1960SOL    HW116089   8.676   3.824   2.513 -1.7673 -0.3718 -0.1139
 1960SOL    HW216090   8.595   3.734   2.623  0.9798 -0.2233  2.0850
 1961SOL     OW16091   9.724   6.621   1.563 -0.1362 -0.0720  0.0869
 1961SOL    HW116092   9.780   6.697   1.596  0.1009  0.1234 -0.7489
 1961SOL    HW216093   9.735   6.612   1.464  0.0577 -1.3727  0.2135
 1962SOL     OW16094   1.030   5.330   2.623 -0.4488  0.3253  0.1827
 1962SOL    HW116095   1.041   5.326   2.722 -0.0724  0.2631  0.1411
 1962SOL    HW216096   0.941   5.369   2.600  0.1262  1.9215  0.5538
 1963SOL     OW16097   0.658   6.409   3.211 -0.0772 -0.1289  0.0861
 1963SOL    HW116098   0.692   6.361   3.291  0.7273  1.3090  0.6282
 1963SOL    HW216099   0.578   6.361   3.174 -0.7434 -0.5288  2.0153
 1964SOL     OW16100   0.496   9.124   0.267  0.2611 -0.0355  0.1442
 1964SOL    HW116101   0.520   9.184   0.190  0.7647 -0.8090 -0.2995
 1964SOL    HW216102   0.418   9.067   0.241  1.3399 -1.3209 -0.3134
 1965SOL     OW16103   9.050   2.345   2.583 -0.0547 -0.1465 -0.0080
 1965SOL    HW116104   9.060   2.441   2.558 -2.2041  0.3010  0.7354
 1965SOL    HW216105   9.063   2.335   2.682  1.1787 -0.8013 -0.2179
 1966SOL     OW16106   3.418   8.292   3.318 -0.1198  0.0951 -0.2169
 1966SOL    HW116107   3.514   8.270   3.301 -0.1319 -0.3908  0.2951
 1966SOL    HW216108   3.410   8.387   3.347  0.3189 -0.1030  0.5947
 1967SOL     OW16109   3.453   9.414   1.312 -0.3428 -0.4003 -0.1825
 1967SOL    HW116110   3.402   9.330   1.294 -0.7899 -0.2526  0.3948
 1967SOL    HW216111   3.535   9.391   1.364 -0.8594 -0.3879  0.6471
 1968SOL     OW16112   1.267   4.989   2.985 -0.2504  0.7330  0.1397
 1968SOL    HW116113   1.300   4.982   3.079 -0.1074  0.8013  0.0947
 1968SOL    HW216114   1.330   4.942   2.924  0.0665  1.3532 -0.0148
 1969SOL     OW16115   2.089   7.606   3.207  0.7575  0.2613  0.1925
 1969SOL    HW116116   2.109   7.701   3.230  2.6107  0.5174 -2.3225
 1969SOL    HW216117   1.990   7.596   3.193  0.5302  1.7851  0.5764
 1970SOL     OW16118   8.922   2.097   1.318  0.0602  0.0965  0.1599
 1970SOL    HW116119   8.991   2.027   1.300  0.1582  0.3362 -0.3837
 1970SOL    HW216120   8.942   2.143   1.404  0.4757  0.0434  0.0891
 1971SOL     OW16121   9.846   6.022   2.533 -0.2789  0.2029  0.0673
 1971SOL    HW116122   9.777   6.094   2.522 -1.3247 -0.5449  1.6351
 1971SOL    HW216123   9.838   5.981   2.624 -1.4366 -3.7054 -1.6979
 1972SOL     OW16124   0.131   4.014   2.732 -0.0853 -0.8244  0.4802
 1972SOL    HW116125   0.043   4.030   2.777  0.2099  0.1107  0.7386
 1972SOL    HW216126   0.180   3.941   2.780 -1.1452 -2.0459 -0.2787
 1973SOL     OW16127   2.150   9.432   1.521 -0.0152 -0.1402  0.2203
 1973SOL    HW116128   2.087   9.489   1.467 -0.0920 -0.6374 -0.2104
 1973SOL    HW216129   2.241   9.473   1.519  0.0239 -0.2602 -0.4369
 1974SOL     OW16130   0.600   9.574   0.822  0.2882  0.1479 -0.3578
 1974SOL    HW116131   0.543   9.571   0.740  1.4808 -1.6796 -1.1467
 1974SOL    HW216132   0.665   9.650   0.815 -1.3715  1.6579  0.1268
 1975SOL     OW16133   0.538   3.041   1.329  0.3182  0.0547 -0.5755
 1975SOL    HW116134   0.579   2.950   1.330  0.4700  0.1266 -0.2003
 1975SOL    HW216135   0.602   3.106   1.286  0.3524  0.0529 -0.5269
 1976SOL     OW16136   3.275   1.786   2.511  0.1911 -0.3624 -0.3385
 1976SOL    HW116137   3.195   1.744   2.469  1.0673 -0.8568 -1.5400
 1976SOL    HW216138   3.272   1.773   2.610 -0.0136 -2.4525 -0.5978
 1977SOL     OW16139   9.131   9.961   0.466  0.4720 -0.2187  0.3041
 1977SOL    HW116140   9.046   9.941   0.417 -0.6490  3.5046  0.6201
 1977SOL    HW216141   9.209   9.954   0.403 -0.4603  0.0121 -0.8843
 1978SOL     OW16142   3.431   3.258   2.045  0.3514  0.3358 -0.0024
 1978SOL    HW116143   3.348   3.303   2.012  0.2524 -0.0890 -0.3399
 1978SOL    HW216144   3.417   3.226   2.139 -0.3793 -1.0306 -0.5672
 1979SOL     OW16145   2.103   2.390   3.365 -0.3444 -0.0807  0.0043
 1979SOL    HW116146   2.058   2.311   3.323  0.3229 -2.1087  2.9166
 1979SOL    HW216147   2.045   2.471   3.357 -2.5942 -1.6712 -0.0690
 1980SOL     OW16148   2.819   5.278   1.509 -0.0011  0.3613  0.5185
 1980SOL    HW116149   2.780   5.270   1.418 -0.2256  0.9355  0.5599
 1980SOL    HW216150   2.857   5.190   1.537 -0.7358 -0.0521  0.2335
 1981SOL     OW16151   0.425   8.292   2.058 -0.5584  0.5574  0.1921
 1981SOL    HW116152   0.495   8.348   2.103 -0.7825  0.8712  0.1536
 1981SOL    HW216153   0.386   8.343   1.981  1.9946 -1.1260 -2.3149
 1982SOL     OW16154   2.345   9.507   2.982  0.4092  0.7289 -0.2293
 1982SOL    HW116155   2.371   9.591   3.031  0.1220  0.6675  0.0300
 1982SOL    HW216156   2.247   9.508   2.965  0.2872  0.0949  0.4381
 1983SOL     OW16157   4.588   1.535   1.820 -0.0185  0.1201  0.1211
 1983SOL    HW116158   4.572   1.486   1.906 -0.3633  0.1041  0.0468
 1983SOL    HW216159   4.584   1.633   1.836 -3.2101  0.1296 -0.4570
 1984SOL     OW16160   2.853   6.163   2.259  0.8820  0.1293  0.2035
 1984SOL    HW116161   2.835   6.065   2.250 -1.3738  0.8089 -3.5103
 1984SOL    HW216162   2.790   6.203   2.325 -0.0595 -0.4503 -0.3375
 1985SOL     OW16163   6.275   9.585   2.471 -0.5291  0.3270 -0.3082
 1985SOL    HW116164   6.237   9.676   2.486 -1.0791  0.1772 -0.7554
 1985SOL    HW216165   6.365   9.578   2.514 -1.0450  0.6540  0.8330
 1986SOL     OW16166   1.017   1.004   3.084  0.0993 -0.2059 -0.2259
 1986SOL    HW116167   1.025   0.944   3.165 -1.3116 -1.4471 -0.9743
 1986SOL    HW216168   0.929   0.987   3.040  0.4057  1.2647 -1.4091
 1987SOL     OW16169   8.259   0.461   1.959  0.0370 -0.0634  0.7839
 1987SOL    HW116170   8.291   0.553   1.984  0.7406  0.1627 -0.9095
 1987SOL    HW216171   8.177   0.468   1.903  0.2108 -0.4595  0.4770
 1988SOL     OW16172   1.884   8.818   1.650 -0.7265 -0.3671 -0.4984
 1988SOL    HW116173   1.957   8.756   1.621 -0.5168 -1.4337  2.1437
 1988SOL    HW216174   1.803   8.765   1.676 -0.6835  0.4497  1.4044
 1989SOL     OW16175   2.037   5.470   1.332  0.1417  0.1247 -0.0448
 1989SOL    HW116176   2.006   5.491   1.240  0.0118 -3.5350 -0.9223
 1989SOL    HW216177   1.971   5.410   1.377  0.7254  0.9948  2.0590
 1990SOL     OW16178   3.584   8.004   1.552  1.0013 -0.2376 -0.7000
 1990SOL    HW116179   3.499   7.979   1.506  0.1509  0.3204  0.5300
 1990SOL    HW216180   3.656   7.939   1.527 -0.4378 -2.2329  0.2097
 1991SOL     OW16181   2.540   1.486   1.695  0.3622 -0.1795 -0.0650
 1991SOL    HW116182   2.568   1.581   1.682  0.6138 -0.0384  1.4034
 1991SOL    HW216183   2.620   1.427   1.698  0.1691 -0.5181 -1.5968
 1992SOL     OW16184   0.594   4.378   3.328 -0.2139  0.2131 -0.2234
 1992SOL    HW116185   0.609   4.474   3.304 -1.8728  0.5836  0.2075
 1992SOL    HW216186   0.577   4.370   3.426 -1.2782 -0.3762 -0.4448
 1993SOL     OW16187   3.556   8.278   0.247 -0.0886 -0.1787  0.4883
 1993SOL    HW116188   3.474   8.220   0.252 -0.9520  0.8172 -1.5863
 1993SOL    HW216189   3.631   8.225   0.207 -0.6168 -0.1541 -0.5512
 1994SOL     OW16190   1.792   7.020   2.967  0.3070  0.3300  0.1689
 1994SOL    HW116191   1.805   7.116   2.939 -0.2367  0.0943 -0.9429
 1994SOL    HW216192   1.862   6.964   2.923  0.0920  0.0995  0.1218
 1995SOL     OW16193   8.650   4.393   0.866  0.0878  0.4381 -0.3958
 1995SOL    HW116194   8.584   4.456   0.827  1.9677  1.4297 -2.0720
 1995SOL    HW216195   8.655   4.406   0.965 -2.6561 -0.1001 -0.1733
 1996SOL     OW16196   9.907   9.436   2.571  0.2304  0.0257  0.3346
 1996SOL    HW116197   9.912   9.484   2.483 -2.6769  1.2057  0.7376
 1996SOL    HW216198   9.924   9.339   2.556 -0.1237  0.2172 -1.5488
 1997SOL     OW16199   3.672   2.865   2.207 -0.0107 -0.0432  0.0815
 1997SOL    HW116200   3.714   2.934   2.149 -1.1717  0.0537 -0.6670
 1997SOL    HW216201   3.578   2.848   2.176  0.1327 -1.6848  0.4717
 1998SOL     OW16202   1.388   9.682   3.258 -0.3438 -0.1046  0.2433
 1998SOL    HW116203   1.304   9.652   3.213 -0.7225  0.2298  0.7176
 1998SOL    HW216204   1.389   9.782   3.264  1.2869  0.0403 -2.0427
 1999SOL     OW16205   7.730   1.250   1.554 -0.0608  0.2718 -0.1183
 1999SOL    HW116206   7.631   1.260   1.563 -0.4184  0.7480 -3.7152
 1999SOL    HW216207   7.755   1.153   1.556 -0.4782  0.1846  1.5313
 2000SOL     OW16208   4.648   1.070   2.006 -0.4591 -0.0421 -0.1863
 2000SOL    HW116209   4.617   0.990   1.955 -0.4523 -0.2273  0.1016
 2000SOL    HW216210   4.612   1.066   2.099  0.6708 -0.3959  0.2363
 2001SOL     OW16211   1.816   1.794   3.361 -0.2722 -0.1691  0.2726
 2001SOL    HW116212   1.832   1.778   3.264 -0.7425 -1.0901  0.3465
 2001SOL    HW216213   1.778   1.886   3.373  2.6663  1.1726 -0.1076
 2002SOL     OW16214   3.025   4.265   2.714 -0.0246  0.4119  0.1010
 2002SOL    HW116215   3.041   4.352   2.761 -1.0419  0.7861 -0.2228
 2002SOL    HW216216   3.006   4.283   2.617 -2.7823  0.0532  0.5401
 2003SOL     OW16217   3.596   8.955   0.826  0.6825  0.1263 -0.0299
 2003SOL    HW116218   3.603   8.860   0.795  0.0205  0.8437 -2.5273
 2003SOL    HW216219   3.684   9.000   0.817  0.1739  0.7136 -2.2460
 2004SOL     OW16220   0.779   8.937   3.291 -0.4506  0.3490 -0.4957
 2004SOL    HW116221   0.740   8.926   3.199 -1.7414  0.8368 -0.0156
 2004SOL    HW216222   0.856   9.000   3.287  0.4033 -0.7156 -1.4757
 2005SOL     OW16223   1.865   6.667   1.737 -0.1332  0.1293 -0.3166
 2005SOL    HW116224   1.929   6.724   1.788  0.2045  1.6978 -2.4019
 2005SOL    HW216225   1.910   6.583   1.710  0.0244 -0.2181  0.9821
 2006SOL     OW16226   2.753   3.666   2.438 -0.3868 -0.1135 -0.8613
 2006SOL    HW116227   2.824   3.604   2.405  0.9621  1.0158 -0.1069
 2006SOL    HW216228   2.666   3.617   2.440  0.0659 -1.1143 -3.1313
 2007SOL     OW16229   4.162   3.604   1.867  0.1641  0.1324 -0.1651
 2007SOL    HW116230   4.081   3.614   1.809  0.2551  0.2800 -0.2695
 2007SOL    HW216231   4.240   3.579   1.811 -0.0552 -1.1820  0.0971
 2008SOL     OW16232   0.617   0.262   3.224 -0.1149  0.3304 -0.1914
 2008SOL    HW116233   0.547   0.329   3.248 -2.0556 -1.7578  0.1016
 2008SOL    HW216234   0.706   0.307   3.220 -0.9952  2.4246  2.4331
 2009SOL     OW16235   0.166   9.161   2.242 -0.0200 -0.5947 -0.1533
 2009SOL    HW116236   0.080   9.112   2.256 -0.5882  0.2340 -0.7115
 2009SOL    HW216237   0.230   9.104   2.191  0.0312 -1.4923  0.8941
 2010SOL     OW16238   9.997   0.419   1.027  0.3744 -0.1293 -0.1467
 2010SOL    HW116239   9.980   0.464   1.114 -2.1778  1.8605 -1.6123
 2010SOL    HW216240  10.069   0.468   0.977  0.3114  0.0068 -0.1030
 2011SOL     OW16241   2.534   9.812   3.324  0.6058  0.0989  0.1433
 2011SOL    HW116242   2.492   9.818   3.415 -1.0369  1.7075 -0.6920
 2011SOL    HW216243   2.467   9.779   3.259  1.8463 -1.2587 -0.4764
 2012SOL     OW16244   3.824   8.587   0.821  0.2520  0.3587 -0.4717
 2012SOL    HW116245   3.791   8.550   0.908  2.3281  0.5968  0.4573
 2012SOL    HW216246   3.747   8.624   0.769 -1.2239 -1.1393  0.5965
 2013SOL     OW16247   3.849   8.823   3.200  0.7100 -0.2138 -0.1207
 2013SOL    HW116248   3.911   8.786   3.269  0.4540  2.1709  1.4336
 2013SOL    HW216249   3.841   8.922   3.212 -0.9996 -0.0616 -2.2555
 2014SOL     OW16250   2.962   6.220   0.917 -0.4302  0.2423  0.0737
 2014SOL    HW116251   2.895   6.208   0.844  1.0821 -0.1100 -1.2520
 2014SOL    HW216252   3.054   6.205   0.882  0.3757  0.8655  1.8592
 2015SOL     OW16253   2.239   5.383   2.209 -0.4043  0.0300  0.0744
 2015SOL    HW116254   2.327   5.408   2.167  0.4061  0.7780  2.1416
 2015SOL    HW216255   2.165   5.427   2.158  0.5554  1.0274 -0.5129
 2016SOL     OW16256   9.563   0.799   0.113 -0.4033  0.1272 -0.3353
 2016SOL    HW116257   9.496   0.785   0.041 -0.2318 -0.4050 -0.3965
 2016SOL    HW216258   9.574   0.897   0.131 -0.8964  0.2304 -0.6035
 2017SOL     OW16259   3.447   8.582   3.298  0.4923 -0.2943 -0.3387
 2017SOL    HW116260   3.518   8.606   3.231 -0.1904  1.6630 -0.3950
 2017SOL    HW216261   3.465   8.629   3.384  0.3360 -1.3520  0.2835
 2018SOL     OW16262   2.087   5.316   2.647  0.5293  0.5106 -0.1685
 2018SOL    HW116263   2.121   5.385   2.584 -1.0753  0.7253 -0.8303
 2018SOL    HW216264   2.013   5.264   2.603 -0.2183  0.2812  1.3102
 2019SOL     OW16265   9.621   4.220   0.877 -0.1786  0.6164 -0.1100
 2019SOL    HW116266   9.523   4.201   0.868 -0.2889  0.9232  0.3936
 2019SOL    HW216267   9.673   4.149   0.831 -0.6830  1.5505 -2.1824
 2020SOL     OW16268   2.253   0.239   1.572  0.5020  0.4860  0.1369
 2020SOL    HW116269   2.229   0.169   1.639  2.2371  1.3222  1.6733
 2020SOL    HW216270   2.280   0.196   1.486 -1.0882 -0.6231  0.1715
 2021SOL     OW16271   7.814   1.267   0.802 -0.9070 -0.1461  0.1166
 2021SOL    HW116272   7.834   1.361   0.776 -0.6203  0.4184  2.2668
 2021SOL    HW216273   7.838   1.206   0.727  1.0839  1.2976 -0.4786
 2022SOL     OW16274   4.167   0.587   0.451 -0.0464 -0.5545  0.0536
 2022SOL    HW116275   4.089   0.580   0.390 -1.0093 -1.2073  1.3192
 2022SOL    HW216276   4.172   0.505   0.508  1.1205 -0.1854  0.5113
 2023SOL     OW16277   1.020   6.054   2.614  0.1145  0.4756  0.3508
 2023SOL    HW116278   0.928   6.019   2.634 -0.5264  0.4744 -2.4016
 2023SOL    HW216279   1.075   6.052   2.697 -2.6099  1.1836  2.2486
 2024SOL     OW16280   7.432   0.644   0.337  0.0341  0.4125 -0.1651
 2024SOL    HW116281   7.403   0.723   0.283 -1.0463  1.0261  1.2860
 2024SOL    HW216282   7.364   0.625   0.408  0.5875 -1.4475 -0.1082
 2025SOL     OW16283   0.742   2.140   2.734  0.3436  0.5385  0.3790
 2025SOL    HW116284   0.775   2.221   2.685  0.2686  0.3455  0.0067
 2025SOL    HW216285   0.794   2.060   2.703 -0.6619  0.1850 -0.4094
 2026SOL     OW16286   1.779   1.010   1.762 -0.1266 -0.5563  0.1574
 2026SOL    HW116287   1.878   1.013   1.753 -0.2740 -2.1627 -2.8926
 2026SOL    HW216288   1.741   1.102   1.746  0.8647  0.1867  1.9420
 2027SOL     OW16289   3.187   6.858   2.842  0.4472  1.1136  0.0743
 2027SOL    HW116290   3.195   6.940   2.785 -0.3227  1.1817  0.0674
 2027SOL    HW216291   3.115   6.871   2.910  0.2663  0.4127  0.0219
 2028SOL     OW16292   2.526   2.951   3.004  0.1560 -0.1888 -0.7739
 2028SOL    HW116293   2.565   2.957   2.912 -1.0417  0.4380 -1.2517
 2028SOL    HW216294   2.510   3.043   3.039 -0.8369 -0.4343 -0.5689
 2029SOL     OW16295   3.268   0.847   2.571  0.5217  0.3999  0.9410
 2029SOL    HW116296   3.173   0.847   2.604 -0.1576 -0.1789 -0.9495
 2029SOL    HW216297   3.298   0.941   2.556  1.1659  0.7525  3.9833
 2030SOL     OW16298   1.104   0.465   3.283  0.5816  0.3125 -0.2712
 2030SOL    HW116299   1.196   0.456   3.321  0.2231 -2.5045  0.0368
 2030SOL    HW216300   1.110   0.503   3.190  1.9902  0.8332  0.0215
 2031SOL     OW16301   3.195   9.013   2.567 -0.6478 -0.3684  0.4041
 2031SOL    HW116302   3.218   9.097   2.518  1.6448 -1.4812 -0.4535
 2031SOL    HW216303   3.128   8.961   2.515 -1.9228  0.8027  0.8400
 2032SOL     OW16304   2.870   9.895   2.259  0.7791  0.4074 -0.1562
 2032SOL    HW116305   2.796   9.886   2.192  0.5533 -1.4521  0.3159
 2032SOL    HW216306   2.954   9.923   2.213  0.0233  1.6166 -0.8329
 2033SOL     OW16307   3.340   8.653   2.707 -0.0633 -0.1064  0.8125
 2033SOL    HW116308   3.376   8.576   2.654 -2.1512 -1.5773  1.4738
 2033SOL    HW216309   3.391   8.735   2.684  0.6998 -1.2046 -1.6507
 2034SOL     OW16310   7.697   1.120   1.250 -0.2963 -1.0196  0.3831
 2034SOL    HW116311   7.613   1.082   1.290  0.0612 -0.3112  1.8365
 2034SOL    HW216312   7.772   1.112   1.316  0.2347  0.4687 -0.0301
 2035SOL     OW16313   1.037   7.469   2.355  0.4189  0.5314 -0.0569
 2035SOL    HW116314   1.137   7.470   2.358  0.3700 -0.8243  2.9626
 2035SOL    HW216315   1.008   7.428   2.268  2.4855 -0.4483 -0.3319
 2036SOL     OW16316   9.908   1.884   2.589  0.1680 -0.2495 -0.1516
 2036SOL    HW116317   9.949   1.793   2.589  1.0973  0.1427 -1.9647
 2036SOL    HW216318   9.809   1.876   2.592  0.2884 -1.2653  1.7310
 2037SOL     OW16319   0.558   9.302   0.847 -0.2453  0.1455  0.3648
 2037SOL    HW116320   0.585   9.398   0.838 -1.5918  0.5781  0.7744
 2037SOL    HW216321   0.493   9.280   0.774 -2.1349  0.3534  1.9510
 2038SOL     OW16322   1.161   0.518   2.316 -0.2399  0.0447  0.1520
 2038SOL    HW116323   1.241   0.577   2.326  0.2894 -0.5747 -0.5123
 2038SOL    HW216324   1.125   0.525   2.223 -0.0020 -0.9143 -0.0135
 2039SOL     OW16325   1.279   1.890   0.357  0.0502 -0.1682 -0.0353
 2039SOL    HW116326   1.293   1.826   0.432 -0.4836  0.7001  0.8214
 2039SOL    HW216327   1.347   1.963   0.362 -0.4600  0.3051  0.0631
 2040SOL     OW16328   8.524   4.592   2.857  0.1143  0.5348 -0.1223
 2040SOL    HW116329   8.457   4.644   2.909  0.1573 -1.0288  1.5421
 2040SOL    HW216330   8.606   4.648   2.843  0.0671  1.0203  1.4384
 2041SOL     OW16331   3.969   7.688   1.982  0.1153  0.9162  0.1454
 2041SOL    HW116332   4.068   7.674   1.983 -0.1013 -0.9805 -2.2648
 2041SOL    HW216333   3.925   7.617   2.037  0.0049  1.1858  0.4104
 2042SOL     OW16334   4.261   3.950   0.402  0.6673  0.8006 -0.3737
 2042SOL    HW116335   4.319   4.016   0.353 -0.9720  1.7608 -1.0552
 2042SOL    HW216336   4.233   3.989   0.490  2.8813 -0.5694  0.9878
 2043SOL     OW16337   3.935   4.887   0.472  0.2109 -0.0040 -0.3555
 2043SOL    HW116338   4.022   4.845   0.446  0.1810 -0.4222  0.1925
 2043SOL    HW216339   3.947   4.940   0.556 -0.5121 -1.8577  0.9696
 2044SOL     OW16340   2.467   7.422   0.543 -0.4974  0.2848 -0.1725
 2044SOL    HW116341   2.396   7.446   0.477 -1.2476 -1.9957 -0.2592
 2044SOL    HW216342   2.449   7.330   0.579  3.4725 -1.1531 -1.6127
 2045SOL     OW16343   3.429   4.490   1.751 -0.0358  0.7875  0.0861
 2045SOL    HW116344   3.462   4.412   1.697 -0.1419  0.8649 -0.0915
 2045SOL    HW216345   3.478   4.493   1.838  0.0792  0.6128  0.0287
 2046SOL     OW16346   0.390   4.019   3.112  0.0801 -0.3852 -0.0287
 2046SOL    HW116347   0.389   3.992   3.015  2.2740 -0.6070 -0.0170
 2046SOL    HW216348   0.297   4.015   3.148 -0.5953 -1.5130 -1.7934
 2047SOL     OW16349   1.226   3.269   0.632  0.0085 -0.0570 -0.7193
 2047SOL    HW116350   1.176   3.211   0.568  0.5829  1.0295 -2.1691
 2047SOL    HW216351   1.305   3.310   0.587  0.0652  1.2378  0.4946
 2048SOL     OW16352   1.467   6.091   2.816  0.3888 -0.1299  0.0743
 2048SOL    HW116353   1.556   6.064   2.781  0.7318 -1.3799  1.8625
 2048SOL    HW216354   1.475   6.181   2.861  0.4110  0.4454 -1.0527
 2049SOL     OW16355   0.995   4.565   0.216 -0.3485  0.0068  0.1388
 2049SOL    HW116356   0.928   4.584   0.288  0.3589 -0.6516  0.9945
 2049SOL    HW216357   0.981   4.627   0.139 -0.5100  1.3661  1.2480
 2050SOL     OW16358   2.205   0.153   0.089 -0.2698  0.0254  0.6410
 2050SOL    HW116359   2.285   0.121   0.038 -0.6712  1.1907 -0.7551
 2050SOL    HW216360   2.234   0.218   0.160 -0.1648  2.2934 -1.4175
 2051SOL     OW16361   9.824   2.750   3.338  0.8600  0.0330 -0.0633
 2051SOL    HW116362   9.851   2.657   3.366  0.1045 -0.6299 -1.4798
 2051SOL    HW216363   9.861   2.816   3.403  2.4617 -1.1598  0.2822
 2052SOL     OW16364   2.485   4.453   2.868 -0.2128  0.4371  0.3913
 2052SOL    HW116365   2.563   4.403   2.830 -1.3965 -1.0458 -0.1500
 2052SOL    HW216366   2.482   4.441   2.967  0.3488  0.6438  0.4311
 2053SOL     OW16367   0.095   3.317   0.771  0.3090 -0.3388 -0.2669
 2053SOL    HW116368   0.021   3.347   0.711  0.0295 -0.8226 -0.1651
 2053SOL    HW216369   0.093   3.218   0.780 -0.5044 -0.1737  1.6305
 2054SOL     OW16370   8.478   3.787   0.389 -0.2005  0.5527 -0.3148
 2054SOL    HW116371   8.452   3.690   0.385 -2.3054  1.0493  0.7950
 2054SOL    HW216372   8.531   3.804   0.472 -0.4324  0.4995 -0.1561
 2055SOL     OW16373   1.770   2.723   2.135 -0.0257 -0.0977  0.0869
 2055SOL    HW116374   1.778   2.780   2.054  1.2833 -2.6567 -1.6807
 2055SOL    HW216375   1.781   2.779   2.217  2.0487  2.0557 -1.5818
 2056SOL     OW16376   9.799   5.448   1.991  0.1918  0.2239  0.3520
 2056SOL    HW116377   9.800   5.500   2.077 -0.9672  1.5222 -0.3916
 2056SOL    HW216378   9.749   5.363   2.004 -1.9389  1.4618  0.3960
 2057SOL     OW16379   0.198   8.962   1.408 -0.3842 -0.5944  0.5001
 2057SOL    HW116380   0.157   9.006   1.328  0.6901 -0.0481  0.2385
 2057SOL    HW216381   0.217   9.032   1.477  1.4086 -0.6233  0.0532
 2058SOL     OW16382   0.720   8.737   0.849 -0.2807 -0.3212 -0.9394
 2058SOL    HW116383   0.816   8.729   0.875 -0.4615 -0.5672 -0.3370
 2058SOL    HW216384   0.675   8.648   0.857 -0.9561  0.1229  0.4073
 2059SOL     OW16385   7.357   1.230   2.173  0.1530  0.2062  0.2394
 2059SOL    HW116386   7.429   1.296   2.152 -0.2288  0.4716 -0.2609
 2059SOL    HW216387   7.270   1.262   2.135  0.0595 -0.8194 -0.4601
 2060SOL     OW16388   0.770   7.859   0.054 -0.5007 -0.5325 -0.3163
 2060SOL    HW116389   0.815   7.849   0.143  0.5477 -0.8831 -0.8660
 2060SOL    HW216390   0.782   7.952   0.020 -1.5466 -0.1911  0.2448
 2061SOL     OW16391   8.040   3.014   1.272 -0.0750  0.7247 -0.1399
 2061SOL    HW116392   7.953   2.995   1.228 -1.0900  2.8036  0.8848
 2061SOL    HW216393   8.047   2.961   1.357 -1.0797  1.7536  0.6056
 2062SOL     OW16394   2.642   8.481   0.028  0.5621  0.6044  0.6731
 2062SOL    HW116395   2.663   8.561  -0.028  3.9354 -0.3754  0.4536
 2062SOL    HW216396   2.679   8.493   0.120  0.1746 -0.2776  0.9542
 2063SOL     OW16397   1.177   8.116   2.065 -0.2517  0.2616  0.3069
 2063SOL    HW116398   1.090   8.139   2.109 -0.0282 -0.4921  1.1734
 2063SOL    HW216399   1.178   8.018   2.042  0.5471  0.1569  0.7540
 2064SOL     OW16400   2.742   8.390   0.253  0.1704 -0.5045 -0.0993
 2064SOL    HW116401   2.655   8.347   0.231  1.8743 -1.4052 -5.8098
 2064SOL    HW216402   2.813   8.321   0.261  1.3813  0.6354 -0.8707
 2065SOL     OW16403   9.589   1.003   1.537 -0.3316  0.4575  0.3017
 2065SOL    HW116404   9.511   1.007   1.599  1.5097 -1.5120  2.8566
 2065SOL    HW216405   9.570   0.941   1.462 -0.8624 -0.8368  1.4870
 2066SOL     OW16406   1.605   1.644   1.811  0.0911  0.3260 -0.1239
 2066SOL    HW116407   1.684   1.675   1.864  1.6734  0.7260 -2.6321
 2066SOL    HW216408   1.635   1.617   1.719 -2.2120 -2.6602 -0.0782
 2067SOL     OW16409   3.989   8.477   1.234 -0.0642 -0.1064 -0.6494
 2067SOL    HW116410   4.073   8.471   1.287  0.7256  2.5356 -1.4948
 2067SOL    HW216411   3.990   8.410   1.160  1.1400 -0.3363 -0.4305
 2068SOL     OW16412   0.891   8.904   1.690 -0.3773  0.4329  0.4603
 2068SOL    HW116413   0.947   8.975   1.647 -0.4613  0.1443 -0.1213
 2068SOL    HW216414   0.801   8.902   1.647 -0.6349  0.4859  0.9914
 2069SOL     OW16415   2.059   1.460   3.186  0.0269  0.0914  0.0810
 2069SOL    HW116416   1.996   1.436   3.112 -0.4656 -1.2438  0.9332
 2069SOL    HW216417   2.007   1.486   3.267  0.5791  0.2244  0.3944
 2070SOL     OW16418   3.256   7.997   0.951 -0.8616 -0.2630  0.2509
 2070SOL    HW116419   3.299   8.076   0.995 -2.2486 -1.0191  3.1113
 2070SOL    HW216420   3.299   7.981   0.862  0.6889  2.5689  0.4210
 2071SOL     OW16421   1.762   5.609   0.084  0.0871 -0.3728  0.4005
 2071SOL    HW116422   1.793   5.657   0.002  1.0498 -0.1844  0.8686
 2071SOL    HW216423   1.668   5.636   0.104  0.4375  0.9492  0.3675
 2072SOL     OW16424   3.671   1.569   2.782 -1.0495 -0.5392  0.4226
 2072SOL    HW116425   3.597   1.514   2.822 -0.6895 -0.8238  0.6950
 2072SOL    HW216426   3.649   1.666   2.793 -1.4392 -0.6225  0.4019
 2073SOL     OW16427   2.311   9.892   1.246 -0.1567 -0.0572  0.3171
 2073SOL    HW116428   2.225   9.884   1.297  0.8101 -1.3521  1.7685
 2073SOL    HW216429   2.365   9.810   1.258  0.6147  0.0902 -1.9022
 2074SOL     OW16430   1.878   2.247   0.541  0.5669  0.4124  0.1315
 2074SOL    HW116431   1.841   2.185   0.472 -2.1354  1.4647  0.5913
 2074SOL    HW216432   1.861   2.342   0.514  1.1843  0.8782  1.3362
 2075SOL     OW16433   1.361   9.477   0.673 -0.3918  0.9531 -0.8102
 2075SOL    HW116434   1.280   9.459   0.730 -1.1889  0.5922 -2.0378
 2075SOL    HW216435   1.371   9.575   0.660  0.7409  1.1399  1.2906
 2076SOL     OW16436   3.813   3.607   2.988 -0.5580  0.2899 -0.5036
 2076SOL    HW116437   3.877   3.548   3.039 -2.8724 -4.0674 -2.3360
 2076SOL    HW216438   3.780   3.680   3.048  1.9969 -0.5730  2.0844
 2077SOL     OW16439   8.322   3.190   2.469  0.5840  0.5145 -0.0197
 2077SOL    HW116440   8.271   3.190   2.383  0.3592  0.2432  0.1102
 2077SOL    HW216441   8.415   3.222   2.453  0.6349  0.1793 -0.4176
 2078SOL     OW16442   3.182   1.894   2.248 -0.1066 -0.3629 -0.1847
 2078SOL    HW116443   3.131   1.979   2.240  0.8031  0.4390  2.1929
 2078SOL    HW216444   3.273   1.905   2.208  0.4966  0.2138  1.3326
 2079SOL     OW16445   2.693   7.035   3.058  0.0601 -0.0469  0.1178
 2079SOL    HW116446   2.710   7.063   3.152  3.0582  1.1033 -0.6955
 2079SOL    HW216447   2.696   6.935   3.052  2.9123 -0.0367  0.7638
 2080SOL     OW16448   2.467   9.469   2.581 -0.0635  0.2536  0.1980
 2080SOL    HW116449   2.471   9.375   2.615 -2.3108  0.6789  1.7530
 2080SOL    HW216450   2.512   9.474   2.492  1.7093 -1.8947  0.9146
 2081SOL     OW16451   3.864   9.072   3.275 -0.1686  0.9379 -0.0121
 2081SOL    HW116452   3.809   9.111   3.349  0.2414  1.4986 -0.0011
 2081SOL    HW216453   3.960   9.070   3.301 -0.1509  0.1548 -0.1172
 2082SOL     OW16454   1.586   3.795   2.021 -0.0312  0.1700  0.3804
 2082SOL    HW116455   1.619   3.712   1.975 -1.0668  0.2682 -0.5621
 2082SOL    HW216456   1.636   3.874   1.986  0.4315  0.0298  0.7264
 2083SOL     OW16457   0.797   1.776   2.319  0.1672 -0.3098  0.0709
 2083SOL    HW116458   0.831   1.705   2.380 -0.2182 -0.1368  0.4894
 2083SOL    HW216459   0.745   1.734   2.244 -2.5829 -0.3369  1.9060
 2084SOL     OW16460   2.037   8.837   1.231 -0.7790 -0.5463 -0.4259
 2084SOL    HW116461   2.115   8.855   1.290 -0.7308  0.1590 -0.6984
 2084SOL    HW216462   1.973   8.776   1.278 -0.4800 -0.4302  0.1395
 2085SOL     OW16463   9.745   1.901   0.815  0.0059 -0.4177  0.0129
 2085SOL    HW116464   9.674   1.971   0.809  1.1886  0.8731  0.6736
 2085SOL    HW216465   9.788   1.889   0.726 -0.0156 -0.0958 -0.0421
 2086SOL     OW16466   4.094   9.469   2.989 -0.5762  0.0129  0.1248
 2086SOL    HW116467   4.010   9.438   2.944  0.7393 -3.2421 -0.2000
 2086SOL    HW216468   4.082   9.564   3.019 -3.5915  0.3185 -1.7889
 2087SOL     OW16469   3.764   9.085   0.378  0.6716  0.2192  0.5786
 2087SOL    HW116470   3.849   9.098   0.429  0.3327  2.8968  0.5318
 2087SOL    HW216471   3.686   9.104   0.438  0.2050  1.0773 -0.2873
 2088SOL     OW16472   1.185   1.528   0.218  0.2027  0.3777  0.1862
 2088SOL    HW116473   1.255   1.566   0.278  0.3356 -0.1427  0.3705
 2088SOL    HW216474   1.102   1.509   0.271 -0.2271  1.3867 -0.1173
 2089SOL     OW16475   2.817   6.857   2.712  0.0880  0.0645  0.1184
 2089SOL    HW116476   2.736   6.828   2.660 -1.0196  0.5604  1.5076
 2089SOL    HW216477   2.883   6.900   2.651 -0.8934  0.0366 -0.9774
 2090SOL     OW16478   1.521   0.940   0.615 -0.2142 -0.0964  0.1059
 2090SOL    HW116479   1.501   0.954   0.518  2.4068  2.0702 -0.1955
 2090SOL    HW216480   1.540   0.843   0.631 -0.3260 -0.4375 -1.6296
 2091SOL     OW16481   2.762   8.748   1.219 -0.2106  0.2821 -0.7705
 2091SOL    HW116482   2.821   8.708   1.288  1.1766  1.3581 -1.3054
 2091SOL    HW216483   2.758   8.689   1.139 -1.4814 -0.7607  0.0473
 2092SOL     OW16484   9.403   1.465   1.693 -0.2788 -0.1724 -0.3048
 2092SOL    HW116485   9.478   1.517   1.651  0.0720  1.5604  2.3776
 2092SOL    HW216486   9.442   1.391   1.748 -0.4784  0.9394  1.3692
 2093SOL     OW16487   8.509   1.411   3.434  0.3911 -0.4631 -0.2369
 2093SOL    HW116488   8.515   1.321   3.391  0.8006  0.4955 -2.2429
 2093SOL    HW216489   8.434   1.463   3.394  1.8203  1.0627 -1.0131
 2094SOL     OW16490   3.349   4.336   0.735 -0.3870 -0.1322 -0.2081
 2094SOL    HW116491   3.319   4.302   0.824  0.2943  1.5120  0.6581
 2094SOL    HW216492   3.441   4.302   0.716  0.3594  1.3207  0.7313
 2095SOL     OW16493   1.816   9.566   0.513  0.1519  0.3058 -0.2437
 2095SOL    HW116494   1.798   9.593   0.418  0.0855  1.6398  0.1419
 2095SOL    HW216495   1.760   9.487   0.536 -0.5159  0.5447 -1.0308
 2096SOL     OW16496   1.220   0.024   0.129 -0.1416  0.1138  0.0346
 2096SOL    HW116497   1.187  -0.019   0.213  0.1095  1.8502  1.0397
 2096SOL    HW216498   1.175  -0.019   0.050 -1.1052 -0.8721  1.0969
 2097SOL     OW16499   7.694   1.794   1.885 -0.4756  0.0254  0.1055
 2097SOL    HW116500   7.615   1.836   1.929  0.2978 -0.1886  1.7587
 2097SOL    HW216501   7.716   1.709   1.932  0.9032  0.2294 -0.1607
 2098SOL     OW16502   2.561   3.949   1.320  0.9338 -0.1864  0.6431
 2098SOL    HW116503   2.609   4.006   1.386 -0.2654  1.3779  0.2032
 2098SOL    HW216504   2.592   3.971   1.227 -0.7295  0.9981  0.3367
 2099SOL     OW16505   1.235   6.718   1.228 -0.2137 -0.1442 -0.6043
 2099SOL    HW116506   1.170   6.791   1.204  1.6347  1.7485  0.0750
 2099SOL    HW216507   1.275   6.737   1.317  0.5158 -1.8545 -0.5554
 2100SOL     OW16508   0.587   4.259   3.076 -0.1745 -0.1538  0.2272
 2100SOL    HW116509   0.500   4.227   3.036 -0.3268 -0.9464  1.1617
 2100SOL    HW216510   0.569   4.295   3.167  0.5228 -0.5701  0.5275
 2101SOL     OW16511   3.226   9.373   2.780  0.4193 -0.1970  0.0723
 2101SOL    HW116512   3.298   9.399   2.715  0.3383  0.4174  0.2215
 2101SOL    HW216513   3.261   9.376   2.873  0.2262  0.0356  0.1403
 2102SOL     OW16514   2.370   4.603   0.989 -0.5121 -0.1802  0.0541
 2102SOL    HW116515   2.454   4.644   0.954  0.0768 -1.9276 -0.6324
 2102SOL    HW216516   2.342   4.528   0.929 -0.7382 -1.7630  2.0790
 2103SOL     OW16517   1.751   2.449   0.276  0.0711 -0.2354 -0.0722
 2103SOL    HW116518   1.658   2.475   0.302  0.3250 -1.0484  1.7146
 2103SOL    HW216519   1.760   2.350   0.276  0.6843 -0.1900 -1.1811
 2104SOL     OW16520   0.299   0.010   0.931  0.1766 -0.1625  0.0603
 2104SOL    HW116521   0.377   0.072   0.937  0.2823 -0.3550  0.7571
 2104SOL    HW216522   0.215   0.063   0.925  0.4693  0.0464 -2.3483
 2105SOL     OW16523   3.409   8.536   2.257 -0.3639  0.0036 -0.1955
 2105SOL    HW116524   3.345   8.582   2.319  0.6108  0.1396  0.7264
 2105SOL    HW216525   3.374   8.540   2.164 -2.2390 -0.8998  0.4592
 2106SOL     OW16526   2.293   8.653   3.110  0.4500 -0.4106  0.3275
 2106SOL    HW116527   2.323   8.599   3.188  1.7006 -0.9447 -0.5011
 2106SOL    HW216528   2.210   8.614   3.071 -0.0403 -0.2805  1.2355
 2107SOL     OW16529   3.366   3.213   2.311 -0.1255  0.2505  0.3227
 2107SOL    HW116530   3.308   3.294   2.326  0.9915  1.0792  0.2556
 2107SOL    HW216531   3.425   3.200   2.391  0.8474  0.4710 -0.3609
 2108SOL     OW16532   0.764   0.490   3.251  0.2006 -0.9073 -0.4131
 2108SOL    HW116533   0.704   0.476   3.330  0.7321 -0.4998  0.0696
 2108SOL    HW216534   0.852   0.525   3.282 -0.0607  0.6291 -1.3098
 2109SOL     OW16535   7.847   2.302   0.103 -0.0749 -0.2902  0.1830
 2109SOL    HW116536   7.885   2.226   0.155 -0.1080 -0.6318 -0.2835
 2109SOL    HW216537   7.868   2.290   0.006 -0.3746  0.1177  0.0643
 2110SOL     OW16538   9.785   3.992   0.538 -0.3634 -0.0601 -0.0003
 2110SOL    HW116539   9.782   3.892   0.528 -2.0093  0.0682 -0.9819
 2110SOL    HW216540   9.697   4.031   0.511  0.5959  1.7539 -0.6083
 2111SOL     OW16541   9.836   5.082   1.376 -0.0979 -1.1862 -0.3679
 2111SOL    HW116542   9.894   5.161   1.397 -1.9376  0.1367 -0.1128
 2111SOL    HW216543   9.842   5.016   1.451  0.9807 -1.0050 -0.2877
 2112SOL     OW16544   1.901   1.558   0.949  0.5457 -0.1371 -0.6833
 2112SOL    HW116545   1.977   1.586   0.891  1.0237 -1.1287 -0.5472
 2112SOL    HW216546   1.914   1.463   0.978 -0.7088 -0.2921 -0.6043
 2113SOL     OW16547   2.114   6.498   2.671 -0.5410 -0.0964  0.1710
 2113SOL    HW116548   2.196   6.500   2.728 -1.2070 -0.1973  1.1397
 2113SOL    HW216549   2.110   6.410   2.622 -0.0444 -0.0678  0.0793
 2114SOL     OW16550   9.605   1.637   3.260  0.5092 -0.0334  0.2701
 2114SOL    HW116551   9.548   1.684   3.193  1.1555  1.1189  0.5207
 2114SOL    HW216552   9.571   1.544   3.273 -0.6949  0.3135 -0.3297
 2115SOL     OW16553   1.619   2.821   2.799 -0.2042  0.4045 -0.8369
 2115SOL    HW116554   1.550   2.750   2.781  0.3150 -0.4666  0.5924
 2115SOL    HW216555   1.670   2.798   2.882  1.1862  1.5285 -1.3670
 2116SOL     OW16556   3.730   0.350   0.837  0.1404 -0.5381 -0.5554
 2116SOL    HW116557   3.742   0.402   0.922  2.3251  1.0019 -1.7548
 2116SOL    HW216558   3.711   0.414   0.762  1.5088 -1.5826 -1.8132
 2117SOL     OW16559   9.135   4.061   1.941  0.1444  0.0437  0.1493
 2117SOL    HW116560   9.194   4.045   2.020  1.9306 -1.3409 -1.4222
 2117SOL    HW216561   9.179   4.126   1.879 -0.6574  0.1585 -0.3078
 2118SOL     OW16562   1.235   6.414   1.257 -0.3375 -0.0902  0.2025
 2118SOL    HW116563   1.137   6.422   1.235  0.1986 -0.0154 -2.4043
 2118SOL    HW216564   1.278   6.503   1.249  0.1996 -0.3697 -0.0730
 2119SOL     OW16565   3.555   0.495   2.518  0.2516  0.2069 -0.5226
 2119SOL    HW116566   3.618   0.480   2.442  0.7925  1.3547 -0.3051
 2119SOL    HW216567   3.607   0.507   2.602 -0.3850 -2.9282  0.4033
 2120SOL     OW16568   1.146   1.879   0.100 -0.2046  0.3329 -0.1334
 2120SOL    HW116569   1.187   1.906   0.187 -0.9407  0.6424  0.1201
 2120SOL    HW216570   1.071   1.815   0.117  1.2664 -1.5976 -0.7020
 2121SOL     OW16571   1.544   6.970   2.805 -0.4434 -0.0790 -0.2405
 2121SOL    HW116572   1.612   6.994   2.874  0.9212 -0.7274 -1.3223
 2121SOL    HW216573   1.498   6.885   2.832  1.5422 -1.4662 -1.0946
 2122SOL     OW16574   2.831   7.125   3.289 -0.2245  0.1654 -0.0348
 2122SOL    HW116575   2.923   7.112   3.328 -0.7146  0.0026  1.0748
 2122SOL    HW216576   2.763   7.123   3.362 -1.2560 -1.1194 -0.9953
 2123SOL     OW16577   7.322   0.488   2.324 -0.1281 -0.5544 -0.2143
 2123SOL    HW116578   7.267   0.416   2.280 -0.7992 -0.0523 -0.2123
 2123SOL    HW216579   7.288   0.578   2.295  1.3851 -0.2280 -1.0563
 2124SOL     OW16580   4.178   1.549   2.475  0.0476  0.0152  0.3911
 2124SOL    HW116581   4.091   1.508   2.503 -0.0622  0.9077  1.4062
 2124SOL    HW216582   4.203   1.621   2.540  0.2095  1.5740 -1.3540
 2125SOL     OW16583   2.286   0.418   2.952 -0.2389  0.1106  0.5758
 2125SOL    HW116584   2.195   0.407   2.993  0.4614 -1.2730  1.8276
 2125SOL    HW216585   2.351   0.358   2.999  0.3768 -2.5180 -3.4119
 2126SOL     OW16586   1.301   1.395   2.452 -0.1188  0.0308  0.6634
 2126SOL    HW116587   1.340   1.428   2.366 -0.4519  0.9555  0.8593
 2126SOL    HW216588   1.373   1.354   2.508  0.4125  0.9361  0.6521
 2127SOL     OW16589   0.893   7.675   2.071  0.1866 -0.3119  0.4254
 2127SOL    HW116590   0.962   7.655   2.141  1.9380  0.2229 -1.1234
 2127SOL    HW216591   0.899   7.771   2.044 -0.3117 -0.5771 -0.6559
 2128SOL     OW16592   3.148   0.795   2.902 -0.2115 -0.5405 -0.0545
 2128SOL    HW116593   3.207   0.782   2.982  2.0914 -0.8209 -1.7433
 2128SOL    HW216594   3.161   0.719   2.838 -2.4382 -0.6062 -0.4902
 2129SOL     OW16595   3.074   9.545   3.011 -0.2519 -0.4909 -0.1302
 2129SOL    HW116596   3.111   9.452   3.007 -0.7175 -0.6548 -0.5980
 2129SOL    HW216597   2.975   9.542   3.019 -0.0860 -0.0543  2.5291
 2130SOL     OW16598   8.565   3.803   0.125 -0.1427 -0.2224 -0.2358
 2130SOL    HW116599   8.567   3.799   0.225  0.5573 -0.5909 -0.2568
 2130SOL    HW216600   8.634   3.740   0.088  0.9491  1.3182 -0.9061
 2131SOL     OW16601   1.393   0.999   0.301 -0.0422  0.5405  0.2168
 2131SOL    HW116602   1.313   1.019   0.245 -0.1774  0.1652  0.2743
 2131SOL    HW216603   1.450   0.931   0.255 -0.6033 -0.4289  0.9281
 2132SOL     OW16604   0.765   4.666   0.363  0.1639  0.3481 -0.3604
 2132SOL    HW116605   0.797   4.760   0.361  4.4602 -0.9546  1.6016
 2132SOL    HW216606   0.682   4.660   0.419 -0.1428  2.9239 -0.5000
 2133SOL     OW16607   2.212   9.099   1.787 -0.2705 -0.0233  0.2922
 2133SOL    HW116608   2.166   9.048   1.860 -1.6832 -0.1863 -0.6817
 2133SOL    HW216609   2.143   9.139   1.727  0.8639 -1.4412 -2.0190
 2134SOL     OW16610   0.049   0.156   0.932 -0.3321  0.3142 -0.5882
 2134SOL    HW116611   0.021   0.250   0.954 -1.8050 -0.8654  2.7882
 2134SOL    HW216612  -0.004   0.123   0.854 -2.5922  0.9635  0.6242
 2135SOL     OW16613   2.078   1.052   0.217  0.3265 -0.0590 -0.4057
 2135SOL    HW116614   2.072   0.967   0.269 -2.2666 -0.0820 -0.6703
 2135SOL    HW216615   2.064   1.130   0.279 -0.1022  0.0400 -0.6279
 2136SOL     OW16616   1.724   1.881   2.145 -0.3559  0.0374  0.0499
 2136SOL    HW116617   1.776   1.963   2.120  2.0128 -1.4189  0.1696
 2136SOL    HW216618   1.701   1.885   2.243 -1.7360  1.3290 -0.2885
 2137SOL     OW16619   2.381   7.161   0.256  0.3016 -0.0570  0.2958
 2137SOL    HW116620   2.433   7.223   0.197  1.5149 -0.8987  0.4646
 2137SOL    HW216621   2.295   7.204   0.282  0.5745  1.0513 -0.6088
 2138SOL     OW16622   2.592   6.639   1.599 -0.5199  0.4360  0.4252
 2138SOL    HW116623   2.499   6.666   1.620 -0.9112  0.8174 -1.7255
 2138SOL    HW216624   2.633   6.596   1.680 -2.5016  0.3587  1.4159
 2139SOL     OW16625   1.441   6.931   2.165 -0.4935  0.4762 -0.5833
 2139SOL    HW116626   1.391   6.844   2.163 -0.4584  0.4100  1.0410
 2139SOL    HW216627   1.534   6.916   2.133 -1.0118  0.2693 -2.0161
 2140SOL     OW16628   8.934   2.334   2.831  0.3238 -0.6225 -0.0475
 2140SOL    HW116629   8.836   2.330   2.847 -0.0045  0.1921 -1.6987
 2140SOL    HW216630   8.980   2.368   2.912 -0.9691  0.8502  0.0816
 2141SOL     OW16631   9.951   6.140   0.388 -0.1325  0.6287 -0.9402
 2141SOL    HW116632   9.897   6.078   0.331 -2.0415  0.6311  0.8215
 2141SOL    HW216633  10.037   6.096   0.412 -1.1297 -1.0680 -0.3701
 2142SOL     OW16634   9.689   0.139   2.641 -0.5268  0.3595  0.5445
 2142SOL    HW116635   9.782   0.170   2.619 -0.2090 -1.0697 -0.2188
 2142SOL    HW216636   9.656   0.080   2.568 -1.8984  0.5458  1.0016
 2143SOL     OW16637   0.545   2.762   1.675  0.5252  0.0025 -0.3047
 2143SOL    HW116638   0.546   2.688   1.741 -1.2519  1.4045  1.3412
 2143SOL    HW216639   0.465   2.754   1.616  0.1616  0.7780  0.0792
 2144SOL     OW16640   0.756   8.961   1.905  0.0011  0.1311  0.1103
 2144SOL    HW116641   0.754   8.885   1.970 -0.1452  0.6199  0.6827
 2144SOL    HW216642   0.803   8.932   1.822 -0.4171 -0.7130  0.1578
 2145SOL     OW16643   7.890   0.713   2.680  0.2109  0.0420 -0.2614
 2145SOL    HW116644   7.843   0.782   2.625  0.6014  2.0199  1.8209
 2145SOL    HW216645   7.972   0.752   2.720 -0.0506 -1.3557  1.7301
 2146SOL     OW16646   0.475   9.526   0.585 -0.2474  0.0539 -0.3632
 2146SOL    HW116647   0.381   9.493   0.579  0.6014 -2.4493 -0.3503
 2146SOL    HW216648   0.529   9.487   0.511  1.2141 -0.0382  0.7223
 2147SOL     OW16649   3.459   4.228   3.365 -0.3333 -0.5326  0.6388
 2147SOL    HW116650   3.550   4.207   3.400 -0.2548 -0.0374  0.7366
 2147SOL    HW216651   3.394   4.232   3.442 -0.5764 -1.5659  0.5017
 2148SOL     OW16652   1.072   6.955   1.190  0.7600 -0.1944  0.3188
 2148SOL    HW116653   1.098   7.050   1.172 -1.8154  0.6761  0.9836
 2148SOL    HW216654   1.046   6.945   1.286 -1.2926 -0.9819 -0.2821
 2149SOL     OW16655   2.394   7.080   3.356  0.2210 -0.3212 -0.2504
 2149SOL    HW116656   2.322   7.148   3.373  0.3650 -0.0775 -0.6196
 2149SOL    HW216657   2.354   6.989   3.360  0.4112 -0.3225  2.3064
 2150SOL     OW16658   2.831   6.728   0.557 -0.5143 -0.1131  0.1585
 2150SOL    HW116659   2.923   6.767   0.546 -0.6611  0.4410  0.8076
 2150SOL    HW216660   2.768   6.772   0.493 -0.1996 -0.9502 -0.7363
 2151SOL     OW16661   3.120   3.397   1.996  0.2744 -0.4840 -0.2359
 2151SOL    HW116662   3.051   3.327   2.013 -0.0197 -0.4959 -1.4300
 2151SOL    HW216663   3.124   3.416   1.898  0.5364  0.9860  0.0569
 2152SOL     OW16664   5.219   8.816   2.317  0.4640  0.0908  0.0839
 2152SOL    HW116665   5.214   8.720   2.344 -3.1645  0.0033 -0.6959
 2152SOL    HW216666   5.231   8.822   2.218  0.6841  0.4691  0.1290
 2153SOL     OW16667   8.251   3.192   2.873  0.0282  0.6319 -0.5172
 2153SOL    HW116668   8.224   3.098   2.855 -1.4338  0.8079  0.6950
 2153SOL    HW216669   8.201   3.228   2.951  3.2001  1.2711  1.3365
 2154SOL     OW16670   0.375   3.690   3.342  0.2502 -0.0380 -0.4903
 2154SOL    HW116671   0.397   3.593   3.329 -0.0272 -0.2807  0.7842
 2154SOL    HW216672   0.460   3.741   3.357  0.3884 -0.1018 -1.0570
 2155SOL     OW16673   2.326   7.877   0.335  0.2185  0.1694 -0.1893
 2155SOL    HW116674   2.401   7.942   0.324 -0.6334  1.2908  0.5263
 2155SOL    HW216675   2.239   7.925   0.332 -0.3667 -0.6252  2.4116
 2156SOL     OW16676   8.574   3.862   0.640 -0.0995  0.1495 -0.1209
 2156SOL    HW116677   8.489   3.847   0.691  0.5690 -0.9927  0.6927
 2156SOL    HW216678   8.588   3.961   0.627 -1.4343  0.3529 -0.0779
 2157SOL     OW16679   7.488   2.377   1.051 -0.5078  0.3835 -0.6506
 2157SOL    HW116680   7.451   2.455   1.001  0.7636  1.2673 -0.2548
 2157SOL    HW216681   7.520   2.407   1.140 -0.0484 -0.6016 -0.4746
 2158SOL     OW16682   4.083   4.325   2.370  0.4232 -0.4530 -0.6286
 2158SOL    HW116683   4.106   4.418   2.343 -0.5598  0.2208  0.8039
 2158SOL    HW216684   4.090   4.317   2.470 -1.2142 -1.4355 -0.5854
 2159SOL     OW16685   1.598   9.244   1.737  0.6719  0.0056 -0.2278
 2159SOL    HW116686   1.583   9.342   1.747  1.7947  0.0942  0.6449
 2159SOL    HW216687   1.603   9.201   1.827  0.2672 -0.8363 -0.6024
 2160SOL     OW16688   2.099   3.661   2.700 -0.0937 -0.0895 -0.2786
 2160SOL    HW116689   2.106   3.588   2.632 -0.8990 -0.9606  0.5590
 2160SOL    HW216690   2.188   3.704   2.711  0.2971 -0.6596 -1.0903
 2161SOL     OW16691   2.395   8.353   0.791  1.4553 -0.1075 -0.4953
 2161SOL    HW116692   2.339   8.407   0.728  1.6676  0.9712  0.2271
 2161SOL    HW216693   2.434   8.275   0.743 -0.5074 -0.7765 -1.0648
 2162SOL     OW16694   2.826   8.396   2.743  0.0001  0.3438 -0.1865
 2162SOL    HW116695   2.823   8.388   2.644  3.2096 -0.2484 -0.2987
 2162SOL    HW216696   2.910   8.443   2.770 -1.4191  1.6255  2.2261
 2163SOL     OW16697   2.504   3.022   1.677  0.2543  0.0710 -0.2433
 2163SOL    HW116698   2.571   3.001   1.748 -0.0063 -0.1967 -0.0715
 2163SOL    HW216699   2.416   3.044   1.720  0.0752 -0.1657 -0.4813
 2164SOL     OW16700   9.697   0.335   1.547  0.0643  0.6163  0.2738
 2164SOL    HW116701   9.676   0.237   1.547  0.2505  0.5628  1.7382
 2164SOL    HW216702   9.795   0.348   1.561  0.1527  1.0063 -0.6527
 2165SOL     OW16703   2.445   9.543   0.275  0.5586  0.2474  0.1899
 2165SOL    HW116704   2.466   9.502   0.186  0.6242 -0.6171  0.6009
 2165SOL    HW216705   2.348   9.529   0.297  0.4467  0.8142  0.0755
 2166SOL     OW16706   2.878   5.959   2.796 -0.1262  0.0283 -0.4172
 2166SOL    HW116707   2.883   5.925   2.702  0.8716 -0.3644 -0.2345
 2166SOL    HW216708   2.799   5.918   2.842  0.2407 -0.9485 -0.6339
 2167SOL     OW16709   0.096   1.118   0.616  0.0795  0.4561  0.0067
 2167SOL    HW116710   0.155   1.141   0.539  0.3455  0.6776  0.2773
 2167SOL    HW216711   0.150   1.072   0.687 -0.0267  0.8496  0.3443
 2168SOL     OW16712   0.261   3.755   1.155 -0.3645  0.3407 -0.1566
 2168SOL    HW116713   0.196   3.759   1.078 -0.6861  0.0609  0.0949
 2168SOL    HW216714   0.225   3.692   1.224  0.9100 -1.0071 -0.6963
 2169SOL     OW16715   0.633   9.159   3.108 -0.7533 -0.8303 -0.5636
 2169SOL    HW116716   0.541   9.166   3.070 -0.5663 -0.9769 -1.0490
 2169SOL    HW216717   0.673   9.071   3.082 -1.0415 -1.4274  0.9191
 2170SOL     OW16718   2.464   5.939   3.315  0.5289 -0.4999 -0.2295
 2170SOL    HW116719   2.440   6.035   3.299  0.2146 -0.4809  0.3229
 2170SOL    HW216720   2.381   5.888   3.339  0.5457 -1.1174 -1.5005
 2171SOL     OW16721   3.558   2.423   1.113 -0.1055 -0.3621  0.0041
 2171SOL    HW116722   3.618   2.345   1.093 -0.2148 -0.6838  0.9015
 2171SOL    HW216723   3.609   2.508   1.102  0.5467 -0.6399  0.8503
 2172SOL     OW16724   0.583   1.495   0.261  0.2716  0.0740  0.2759
 2172SOL    HW116725   0.618   1.581   0.297  2.0570 -0.5832  0.1320
 2172SOL    HW216726   0.541   1.442   0.335 -3.7174  2.3910 -0.1555
 2173SOL     OW16727   1.859   5.825   2.453  0.7222 -0.0005 -0.0543
 2173SOL    HW116728   1.886   5.731   2.433 -1.3296 -1.1453  2.3165
 2173SOL    HW216729   1.934   5.887   2.431  1.8095 -2.0768 -2.4345
 2174SOL     OW16730   0.483   8.540   2.921 -0.2121  0.4451 -0.0539
 2174SOL    HW116731   0.486   8.532   2.821 -2.7648 -0.4870 -0.1032
 2174SOL    HW216732   0.543   8.471   2.962 -0.5762 -0.4236 -0.9449
 2175SOL     OW16733   9.887   5.630   1.194 -0.2469  0.4545  0.0550
 2175SOL    HW116734   9.883   5.730   1.199 -1.7407  0.3434  1.6715
 2175SOL    HW216735   9.965   5.602   1.138  0.2351  2.5213 -0.3396
 2176SOL     OW16736   4.506   9.158   2.661  0.5625  0.3856  0.6069
 2176SOL    HW116737   4.576   9.109   2.610 -1.4251  0.2472 -2.1007
 2176SOL    HW216738   4.448   9.210   2.598 -1.7027  0.6040  2.7514
 2177SOL     OW16739   3.499   0.914   1.504 -0.2446  0.0248 -0.3357
 2177SOL    HW116740   3.479   0.821   1.535  0.3702 -0.1280 -0.3995
 2177SOL    HW216741   3.578   0.913   1.442 -2.0537  0.1853 -2.7091
 2178SOL     OW16742   9.633   0.663   2.044 -0.3205 -0.5559  0.3732
 2178SOL    HW116743   9.636   0.753   2.087 -0.1406 -1.0127  1.3436
 2178SOL    HW216744   9.539   0.630   2.042 -0.7626  0.7045 -2.2640
 2179SOL     OW16745   9.235   5.315   2.594 -0.1823 -0.4791 -0.1863
 2179SOL    HW116746   9.190   5.289   2.679  0.7667  0.8185  0.7254
 2179SOL    HW216747   9.331   5.337   2.612 -0.9076  3.5589 -0.9192
 2180SOL     OW16748   7.432   1.501   0.469  0.4170  0.0986 -0.0468
 2180SOL    HW116749   7.352   1.502   0.529  0.5567 -1.7424  0.2216
 2180SOL    HW216750   7.509   1.459   0.518  1.5701  1.8783 -0.2882
 2181SOL     OW16751   8.667   2.161   0.898 -0.0356  0.2686 -0.4963
 2181SOL    HW116752   8.703   2.135   0.808 -0.0520 -0.6908 -0.2264
 2181SOL    HW216753   8.600   2.094   0.928  1.0497 -0.2231  0.8852
 2182SOL     OW16754   3.911   2.082   2.012  0.0722 -0.0300  0.1749
 2182SOL    HW116755   3.878   2.010   1.950  1.6569 -0.8553  0.2632
 2182SOL    HW216756   4.010   2.072   2.024  0.0061  1.0527  1.6582
 2183SOL     OW16757   0.990   5.975   0.795 -0.1493 -0.5358  0.0947
 2183SOL    HW116758   1.083   5.997   0.822 -0.9080  0.4413  1.9393
 2183SOL    HW216759   0.989   5.948   0.698  1.8155  0.8405 -0.3260
 2184SOL     OW16760   4.003   9.974   0.451 -0.1951  0.1090 -0.4128
 2184SOL    HW116761   3.916  10.015   0.480 -0.3003 -1.2458  1.2331
 2184SOL    HW216762   4.078  10.013   0.506  0.1029  0.4319 -1.0439
 2185SOL     OW16763   1.919   1.748   0.595 -0.4891  0.2486  0.2014
 2185SOL    HW116764   1.827   1.710   0.606 -0.7215  0.6620 -0.3187
 2185SOL    HW216765   1.926   1.834   0.645 -0.9055  1.0686 -1.1226
 2186SOL     OW16766   3.793   3.101   1.310 -0.3462  0.2871  0.2786
 2186SOL    HW116767   3.728   3.159   1.261 -0.5046 -0.2013 -0.0867
 2186SOL    HW216768   3.758   3.007   1.314 -0.2579  0.2834  1.1783
 2187SOL     OW16769   0.602   1.694   2.113 -0.0829 -0.4074  0.1458
 2187SOL    HW116770   0.555   1.612   2.080 -0.2857 -0.2025 -0.0804
 2187SOL    HW216771   0.662   1.729   2.041 -1.2426  0.5832 -0.3503
 2188SOL     OW16772   1.262   8.657   3.381 -0.0900  0.5945  0.1712
 2188SOL    HW116773   1.167   8.641   3.407 -0.0052 -1.8590 -0.9531
 2188SOL    HW216774   1.314   8.685   3.462 -1.6199  1.4031  0.9089
 2189SOL     OW16775   1.625   1.493   0.918 -0.4581 -0.1282  0.4393
 2189SOL    HW116776   1.709   1.546   0.907  0.6424 -1.5615  1.6531
 2189SOL    HW216777   1.630   1.442   1.004 -1.9865 -1.2976 -0.1551
 2190SOL     OW16778   3.883   8.016   2.067  0.6005  0.0517  0.1706
 2190SOL    HW116779   3.837   7.971   1.990 -0.6238 -0.6025  1.2528
 2190SOL    HW216780   3.928   8.099   2.036 -1.6390  0.9013 -0.8643
 2191SOL     OW16781   1.247   9.207   1.262  0.1556 -0.3022  0.1348
 2191SOL    HW116782   1.285   9.131   1.315  1.4755  0.9462  1.0239
 2191SOL    HW216783   1.251   9.185   1.164  0.9446 -1.1902  0.3651
 2192SOL     OW16784   0.435   3.888   2.853 -0.4943  0.8145  0.9527
 2192SOL    HW116785   0.526   3.927   2.836 -0.1505  0.4736  2.0125
 2192SOL    HW216786   0.389   3.871   2.765  0.5727  0.7217  0.4099
 2193SOL     OW16787   4.006   1.719   1.980 -0.4050 -0.1285 -0.4626
 2193SOL    HW116788   3.946   1.782   1.931 -0.1273  1.9658  1.7799
 2193SOL    HW216789   4.061   1.668   1.914 -0.6421  1.9806 -2.3720
 2194SOL     OW16790   3.355   3.974   2.687 -0.5624 -0.5412  0.0177
 2194SOL    HW116791   3.257   3.965   2.671 -0.5190 -0.7353 -0.1495
 2194SOL    HW216792   3.372   3.996   2.783 -0.8661  1.4050 -0.3467
 2195SOL     OW16793   9.904   6.213   2.272  0.3827 -0.3344 -0.6693
 2195SOL    HW116794   9.810   6.212   2.238  0.9794  0.8508 -2.4241
 2195SOL    HW216795   9.913   6.279   2.346 -0.4065 -1.2513  0.2551
 2196SOL     OW16796   9.945   9.156   2.501 -0.3236  0.4932  0.3959
 2196SOL    HW116797   9.991   9.087   2.557 -2.6823 -1.5485 -0.0745
 2196SOL    HW216798   9.968   9.141   2.405 -1.3193 -0.0944  0.2306
 2197SOL     OW16799   2.246   2.627   2.707  0.1747 -0.3255  0.0254
 2197SOL    HW116800   2.227   2.568   2.785  0.7006 -1.0475 -0.3772
 2197SOL    HW216801   2.335   2.671   2.719  0.0014  0.0106  0.0959
 2198SOL     OW16802   3.539   7.719   0.235 -0.3763 -0.4563  0.2078
 2198SOL    HW116803   3.439   7.721   0.231 -0.4898 -0.4519  2.4891
 2198SOL    HW216804   3.569   7.719   0.331  1.8340  0.9677 -0.4431
 2199SOL     OW16805   0.521   2.709   2.861  0.0774  0.6270  0.4713
 2199SOL    HW116806   0.477   2.781   2.914  1.5846  1.8059  0.1448
 2199SOL    HW216807   0.561   2.641   2.923  0.1723  0.9934  0.8073
 2200SOL     OW16808   1.620   2.462   1.926  0.2195 -0.0916  0.1689
 2200SOL    HW116809   1.690   2.391   1.931  0.7437  0.4808  0.9905
 2200SOL    HW216810   1.533   2.425   1.957  0.4588 -0.4168  0.4576
 2201SOL     OW16811   8.350   0.860   2.941  0.1817 -0.7308 -0.5857
 2201SOL    HW116812   8.433   0.804   2.944  0.0953 -0.8738 -0.8722
 2201SOL    HW216813   8.351   0.925   3.017 -0.5156 -2.2000  0.7046
 2202SOL     OW16814   9.609   0.678   2.981 -0.6326 -0.3782  0.0164
 2202SOL    HW116815   9.629   0.763   3.030 -2.2175  0.0915 -0.1256
 2202SOL    HW216816   9.518   0.684   2.940 -0.3029 -1.7157 -0.9411
 2203SOL     OW16817   4.109   8.042   2.833 -0.0882 -0.3627  0.2778
 2203SOL    HW116818   4.012   8.040   2.856 -0.0930  3.0141  0.9001
 2203SOL    HW216819   4.162   8.003   2.908 -0.6808  2.6881  2.3812
 2204SOL     OW16820   3.014   8.823   2.427 -0.1120 -0.0382 -0.6065
 2204SOL    HW116821   2.965   8.898   2.382 -1.4399 -0.9873 -0.7883
 2204SOL    HW216822   2.948   8.764   2.473  0.8525 -1.5378 -1.1242
 2205SOL     OW16823   9.557   4.131   0.451 -0.5681  0.1171  0.0363
 2205SOL    HW116824   9.545   4.218   0.403  1.3632  1.1142  1.2925
 2205SOL    HW216825   9.479   4.114   0.511 -1.0205  0.9131 -0.3248
 2206SOL     OW16826   1.587   8.122   0.741  0.4240  0.4607  0.2120
 2206SOL    HW116827   1.535   8.041   0.712  0.9126 -0.1694  1.0707
 2206SOL    HW216828   1.579   8.133   0.840 -1.0518  2.4722 -0.1084
 2207SOL     OW16829   2.170   0.871   1.588 -0.5098 -0.3321  0.4166
 2207SOL    HW116830   2.254   0.912   1.551 -1.0615 -1.6625 -2.4254
 2207SOL    HW216831   2.194   0.811   1.665  1.1775 -0.9234 -0.5412
 2208SOL     OW16832   3.453   3.111   2.588  0.2292  0.1253 -0.4201
 2208SOL    HW116833   3.358   3.102   2.620  0.8198 -0.5502  1.1949
 2208SOL    HW216834   3.493   3.021   2.577  1.2912  0.4326  0.8041
 2209SOL     OW16835   3.167   1.718   0.424  0.2081  0.7467  0.2235
 2209SOL    HW116836   3.159   1.674   0.513  0.3904  0.0125 -0.1230
 2209SOL    HW216837   3.075   1.738   0.389  0.0882 -0.4199 -0.1429
 2210SOL     OW16838   2.141   4.509   0.627  0.0987  0.4928 -0.5848
 2210SOL    HW116839   2.079   4.530   0.703  1.9968  1.5532  0.7165
 2210SOL    HW216840   2.102   4.542   0.541 -1.8160 -0.2046  0.0106
 2211SOL     OW16841   0.905   7.167   0.533 -0.3331 -0.6156 -0.1402
 2211SOL    HW116842   0.899   7.126   0.442 -1.1696  1.5985 -1.1223
 2211SOL    HW216843   0.815   7.202   0.559 -0.0721 -1.1256  1.5072
 2212SOL     OW16844   6.229   9.874   2.456 -0.2866 -0.1035 -0.1743
 2212SOL    HW116845   6.161   9.933   2.499  0.2714  0.3185  0.1303
 2212SOL    HW216846   6.317   9.886   2.501  0.6176  1.2626 -2.2214
 2213SOL     OW16847   9.421   2.451   0.815  0.0733  0.1117 -0.3968
 2213SOL    HW116848   9.333   2.498   0.824  0.7943  1.5649 -0.8540
 2213SOL    HW216849   9.413   2.359   0.853 -1.3944  0.5427  0.3821
 2214SOL     OW16850   1.325   2.210   0.422  0.8025  0.0842  0.1807
 2214SOL    HW116851   1.354   2.173   0.333  1.8610  1.8114 -0.2149
 2214SOL    HW216852   1.260   2.284   0.408 -0.3388 -0.7757  0.9218
 2215SOL     OW16853   1.651   5.452   2.845  0.0679 -0.1393 -0.0307
 2215SOL    HW116854   1.655   5.460   2.745  2.4269 -0.5812 -0.0173
 2215SOL    HW216855   1.644   5.543   2.886  2.7837  0.3676 -0.5405
 2216SOL     OW16856   0.519   5.959   1.586  0.2956  0.0919  0.3702
 2216SOL    HW116857   0.487   6.045   1.547 -1.1693 -1.0837 -1.0862
 2216SOL    HW216858   0.575   5.978   1.666  0.8952  2.4433 -0.5509
 2217SOL     OW16859   7.220   1.562   0.680 -0.3021 -0.0003 -0.2372
 2217SOL    HW116860   7.225   1.520   0.771 -0.4411  1.7177  0.5818
 2217SOL    HW216861   7.262   1.652   0.682 -0.8672  0.3156 -1.7276
 2218SOL     OW16862   0.097   2.917   1.573 -0.0706 -0.0769  0.1175
 2218SOL    HW116863   0.133   2.935   1.664 -1.7595 -2.5771  1.3630
 2218SOL    HW216864   0.059   3.001   1.534 -2.3446  0.3711  3.1322
 2219SOL     OW16865   2.526   5.122   2.000  0.0471  0.1272 -0.0316
 2219SOL    HW116866   2.428   5.118   2.022 -0.2722 -1.0816 -1.6395
 2219SOL    HW216867   2.577   5.065   2.064 -0.8610 -3.2343 -2.2167
 2220SOL     OW16868   1.545   6.214   2.041  0.4119 -0.0199 -0.2919
 2220SOL    HW116869   1.598   6.288   2.000  0.6327  0.3518  0.6585
 2220SOL    HW216870   1.574   6.127   2.001  2.1981  0.1141  0.6367
 2221SOL     OW16871   1.310   7.716   3.346 -0.2619 -0.4616 -0.2883
 2221SOL    HW116872   1.217   7.712   3.383  0.0026 -0.0707  0.4258
 2221SOL    HW216873   1.370   7.655   3.398  0.3141  0.7902  0.5494
 2222SOL     OW16874   3.596   3.297   3.133  0.4203 -0.0745  0.5240
 2222SOL    HW116875   3.662   3.351   3.080 -1.2864  1.6957  0.1523
 2222SOL    HW216876   3.503   3.324   3.107 -0.4601 -2.2474  1.3369
 2223SOL     OW16877   8.912   2.809   2.704 -0.4130 -0.3268  0.7193
 2223SOL    HW116878   8.982   2.828   2.773  0.6201  1.6119 -0.8193
 2223SOL    HW216879   8.883   2.894   2.661 -1.8326 -1.3963 -0.4905
 2224SOL     OW16880   9.948   3.136   1.702  0.2638  0.7579 -0.4281
 2224SOL    HW116881   9.967   3.234   1.714 -0.5565  0.8146  0.4131
 2224SOL    HW216882   9.863   3.113   1.748  0.1629 -0.2455 -1.1191
 2225SOL     OW16883   0.335   8.342   0.207 -0.2496 -0.7828  0.0919
 2225SOL    HW116884   0.402   8.315   0.138  0.2099  0.6785 -0.0565
 2225SOL    HW216885   0.357   8.298   0.294 -1.0248 -2.9010 -0.7538
 2226SOL     OW16886   7.498   2.609   0.881  0.1926  0.0705  0.1581
 2226SOL    HW116887   7.566   2.680   0.902  0.1056  0.3146 -0.3826
 2226SOL    HW216888   7.422   2.649   0.831  0.4420 -0.5238 -0.7137
 2227SOL     OW16889   0.759   2.453   0.973  0.6605 -0.0775  0.1410
 2227SOL    HW116890   0.842   2.480   1.022  1.1461 -2.6013  0.7914
 2227SOL    HW216891   0.710   2.535   0.943  3.4276  1.4588 -0.3732
 2228SOL     OW16892   9.731   0.416   3.329  0.4376 -0.4278 -0.4484
 2228SOL    HW116893   9.745   0.515   3.327 -0.6250 -0.2736 -1.1179
 2228SOL    HW216894   9.640   0.396   3.366  1.3650 -1.2563  1.4845
 2229SOL     OW16895   9.716   2.773   2.108 -0.1379  0.4969  0.0723
 2229SOL    HW116896   9.741   2.689   2.154  1.7188 -0.0244 -1.8124
 2229SOL    HW216897   9.676   2.752   2.019 -1.0147  1.5683  0.1946
 2230SOL     OW16898   2.402   2.769   0.385 -0.0471 -0.5151 -0.4349
 2230SOL    HW116899   2.439   2.768   0.478 -0.4574 -1.8269 -0.2701
 2230SOL    HW216900   2.412   2.860   0.345  0.8270 -0.1473  0.6192
 2231SOL     OW16901   7.895   4.784   0.067 -0.3128  0.3857 -0.0379
 2231SOL    HW116902   7.955   4.717   0.023 -0.5513  0.6257 -0.7261
 2231SOL    HW216903   7.947   4.832   0.138  0.3502  0.6749 -0.7050
 2232SOL     OW16904   3.017   8.676   2.168  0.9816  0.1302  0.1817
 2232SOL    HW116905   3.061   8.720   2.247  1.2746  0.4609 -0.1561
 2232SOL    HW216906   3.085   8.666   2.095  1.0314 -1.3289  0.4291
 2233SOL     OW16907   1.608   6.445   1.498 -0.1406 -0.0987  0.1495
 2233SOL    HW116908   1.578   6.403   1.412 -0.7993  0.8094 -0.0742
 2233SOL    HW216909   1.558   6.404   1.574 -0.7817  0.2781 -0.0657
 2234SOL     OW16910   1.362   2.355   1.993  0.6311 -0.3212 -0.2411
 2234SOL    HW116911   1.356   2.301   1.909 -0.4388  0.5990 -0.7525
 2234SOL    HW216912   1.271   2.380   2.024  1.0352 -0.3794  1.0246
 2235SOL     OW16913   3.531   2.542   1.501 -0.2006  0.2935 -0.0385
 2235SOL    HW116914   3.598   2.616   1.513 -0.6262  0.3433  2.4567
 2235SOL    HW216915   3.459   2.552   1.571 -1.2965 -1.3696 -0.9149
 2236SOL     OW16916   4.237   9.843   2.294 -0.1672  1.0416 -0.2157
 2236SOL    HW116917   4.186   9.813   2.375  0.5305 -3.5730 -1.3096
 2236SOL    HW216918   4.190   9.920   2.251 -3.5001  0.1031  1.5897
 2237SOL     OW16919   1.478   7.237   2.992  0.5317  0.2403 -0.2971
 2237SOL    HW116920   1.547   7.208   3.058  2.5444  0.4747 -2.2142
 2237SOL    HW216921   1.508   7.210   2.900 -1.7766  0.6887 -1.2112
 2238SOL     OW16922   0.814   6.086   1.456  0.3349  0.4231 -0.2250
 2238SOL    HW116923   0.721   6.099   1.422 -0.3594 -2.8658  0.2186
 2238SOL    HW216924   0.823   6.125   1.547 -1.0735 -0.6197  0.3679
 2239SOL     OW16925   1.510   7.260   2.004  0.6957  0.1415  0.1123
 2239SOL    HW116926   1.594   7.236   1.956 -0.1828 -2.2835 -0.2828
 2239SOL    HW216927   1.505   7.208   2.089 -0.1095  0.7817  0.4653
 2240SOL     OW16928   0.291   6.100   2.889  0.1382 -0.1522 -0.4218
 2240SOL    HW116929   0.203   6.149   2.895  0.2194 -0.0660  0.0523
 2240SOL    HW216930   0.274   6.002   2.891  0.0455 -0.1369 -0.4108
 2241SOL     OW16931   4.259   7.428   2.511  0.2703 -0.6478  0.0816
 2241SOL    HW116932   4.195   7.359   2.544 -1.3399  0.0389 -1.5484
 2241SOL    HW216933   4.274   7.497   2.583  0.6749 -1.8131  1.1377
 2242SOL     OW16934   0.361   5.392   1.386 -0.0187 -0.5639 -0.0733
 2242SOL    HW116935   0.315   5.457   1.325 -0.4181 -0.9582 -0.1921
 2242SOL    HW216936   0.382   5.437   1.473 -0.9179 -0.4839  0.1034
 2243SOL     OW16937   2.210   9.549   2.477  0.0188 -0.1788  0.2245
 2243SOL    HW116938   2.152   9.549   2.558  0.6862  1.7606  0.7366
 2243SOL    HW216939   2.306   9.544   2.505  0.2512  0.5094 -0.4351
 2244SOL     OW16940   2.412   3.799   3.355 -0.3461  0.6477 -0.0144
 2244SOL    HW116941   2.491   3.841   3.310  0.0064  0.0608  0.0495
 2244SOL    HW216942   2.391   3.848   3.440  0.3137  0.4460  0.2644
 2245SOL     OW16943   0.451   8.786   0.440  0.4538 -0.5097  0.2144
 2245SOL    HW116944   0.540   8.829   0.425  0.8855 -1.1692  0.8197
 2245SOL    HW216945   0.465   8.695   0.480 -0.4199 -1.4220 -1.5188
 2246SOL     OW16946   1.195   8.486   0.168  0.0987 -0.1845  0.2434
 2246SOL    HW116947   1.151   8.555   0.226 -1.3900 -1.4609  0.6782
 2246SOL    HW216948   1.261   8.434   0.223 -0.5037 -0.6577  0.5292
 2247SOL     OW16949   2.549   2.414   2.557 -0.0748 -0.1545 -0.9329
 2247SOL    HW116950   2.617   2.341   2.551 -0.1834 -0.3258 -0.1436
 2247SOL    HW216951   2.496   2.417   2.472  0.9219 -0.0069 -1.5708
 2248SOL     OW16952   1.390   4.452   3.309  0.1760  0.4332  0.4986
 2248SOL    HW116953   1.322   4.424   3.241  1.3312 -0.8602 -0.1610
 2248SOL    HW216954   1.377   4.399   3.393  1.9182 -1.6715 -0.5048
 2249SOL     OW16955   7.300   1.747   2.460 -0.3741  0.6152  0.1613
 2249SOL    HW116956   7.366   1.817   2.487  2.3982 -1.5393 -0.7515
 2249SOL    HW216957   7.253   1.776   2.377  0.1764  1.7380  0.2350
 2250SOL     OW16958   8.881   4.254   0.950 -0.4153  0.3443  0.1682
 2250SOL    HW116959   8.857   4.198   1.029  0.2486 -1.3282 -0.7913
 2250SOL    HW216960   8.798   4.273   0.896 -0.2542 -2.1291 -1.0246
 2251SOL     OW16961   1.049   8.095   0.653 -0.3547  0.1019 -0.6607
 2251SOL    HW116962   1.148   8.102   0.641 -0.0860 -0.9610  0.8080
 2251SOL    HW216963   1.027   8.103   0.750 -1.6547 -0.4634 -0.9055
 2252SOL     OW16964   9.038   2.274   2.273  0.7278  0.1684 -0.0766
 2252SOL    HW116965   9.019   2.236   2.363  0.4156  1.3091  0.3591
 2252SOL    HW216966   9.136   2.267   2.253  0.9633  0.8637  0.8100
 2253SOL     OW16967   3.587   7.513   1.010  0.3742  0.6316  0.2649
 2253SOL    HW116968   3.591   7.491   1.107  1.6549 -0.8402 -0.1062
 2253SOL    HW216969   3.535   7.597   0.997 -0.9636  0.1215  2.1074
 2254SOL     OW16970   2.787   7.971   1.985  0.4423  0.3230  1.0959
 2254SOL    HW116971   2.715   8.028   1.944  1.4677  0.5440 -0.4517
 2254SOL    HW216972   2.769   7.875   1.965 -0.0449  0.2773  1.7271
 2255SOL     OW16973   8.777   4.263   0.627 -0.1136  0.1079  0.1547
 2255SOL    HW116974   8.709   4.220   0.568 -0.2100 -0.6483  0.8122
 2255SOL    HW216975   8.732   4.322   0.693  0.0694  1.8504 -1.2406
 2256SOL     OW16976   3.465   8.936   3.340 -0.4667  0.4252 -0.2790
 2256SOL    HW116977   3.478   8.900   3.248 -2.2404 -0.6806 -0.1296
 2256SOL    HW216978   3.539   8.903   3.399 -0.3164 -0.3482 -0.8910
 2257SOL     OW16979   0.625   3.285   1.637 -0.4901  0.1245  0.5901
 2257SOL    HW116980   0.545   3.227   1.622  0.2482 -0.4441 -1.3248
 2257SOL    HW216981   0.692   3.235   1.693 -0.1190 -0.6680 -0.5329
 2258SOL     OW16982   1.854   2.479   3.121 -0.0094 -0.1658 -0.0895
 2258SOL    HW116983   1.797   2.492   3.201  3.3134  0.1607  2.3275
 2258SOL    HW216984   1.897   2.566   3.096  0.0779 -0.5652 -1.3803
 2259SOL     OW16985   2.046   3.817   1.962  0.3564  0.4009  0.2738
 2259SOL    HW116986   1.976   3.793   2.030 -0.1427  1.5820  0.1987
 2259SOL    HW216987   2.033   3.760   1.881 -0.3689  0.4335  0.3566
 2260SOL     OW16988   8.566   2.660   0.269  0.0549 -0.4682  0.3735
 2260SOL    HW116989   8.641   2.639   0.205  0.3406 -0.9216  0.8529
 2260SOL    HW216990   8.508   2.579   0.280 -1.4974  0.3740 -1.2923
 2261SOL     OW16991   0.367   9.034   0.824 -0.1588  0.2879 -0.1588
 2261SOL    HW116992   0.352   9.122   0.778  0.9081  0.6119  0.0884
 2261SOL    HW216993   0.465   9.012   0.821 -0.5828 -1.5202 -1.3538
 2262SOL     OW16994   0.972   5.778   1.581 -0.2958 -0.1620  0.3499
 2262SOL    HW116995   0.931   5.767   1.672  0.2900 -0.0112  0.6344
 2262SOL    HW216996   0.941   5.865   1.541 -1.0013 -0.4953  0.1671
 2263SOL     OW16997   0.234   9.310   1.314 -0.4844 -0.0628 -0.2948
 2263SOL    HW116998   0.265   9.360   1.233  0.3250  0.3159  0.2454
 2263SOL    HW216999   0.178   9.232   1.285 -1.5156  0.9768 -1.1573
 2264SOL     OW17000   3.813   1.137   3.228  0.1709  0.3485  0.2446
 2264SOL    HW117001   3.881   1.065   3.216  1.0780  1.1484  0.4972
 2264SOL    HW217002   3.725   1.096   3.252 -0.0750 -0.8583 -2.5959
 2265SOL     OW17003   0.023   2.186   2.371  0.3165  0.2392  0.6013
 2265SOL    HW117004   0.113   2.212   2.405  0.6886  0.5448 -0.5864
 2265SOL    HW217005   0.026   2.179   2.271 -0.6510 -1.0279  0.6532
 2266SOL     OW17006   0.037   5.584   2.194  0.0020 -0.2291  0.6832
 2266SOL    HW117007   0.035   5.677   2.157  1.9289 -1.0180 -1.5170
 2266SOL    HW217008  -0.056   5.548   2.197 -0.7945  1.8037  1.7301
 2267SOL     OW17009   1.559   4.213   0.232  0.7419 -0.0754 -0.0392
 2267SOL    HW117010   1.499   4.216   0.152  1.0891 -0.3386 -0.3110
 2267SOL    HW217011   1.610   4.127   0.232  1.2038  0.1957  0.1292
 2268SOL     OW17012   2.292   7.651   0.496  0.5344  0.3207  0.3912
 2268SOL    HW117013   2.370   7.652   0.559  0.8121 -2.4369  0.1841
 2268SOL    HW217014   2.307   7.716   0.422  1.3122  1.8567  1.8819
 2269SOL     OW17015   4.012   0.697   1.056 -0.4847 -0.0839  0.3379
 2269SOL    HW117016   4.047   0.746   1.136  0.0884  0.3380 -0.1634
 2269SOL    HW217017   4.043   0.743   0.972  0.6203 -1.6542 -0.1478
 2270SOL     OW17018   2.148   9.071   0.824  0.0326 -0.0431  0.1997
 2270SOL    HW117019   2.057   9.060   0.784 -0.4666 -1.3265  1.6520
 2270SOL    HW217020   2.169   9.169   0.832  0.0651  0.2525 -2.9313
 2271SOL     OW17021   4.117   4.546   2.204 -0.4543  0.2382  0.1494
 2271SOL    HW117022   4.157   4.637   2.213  1.2519 -0.3831 -0.7312
 2271SOL    HW217023   4.037   4.549   2.145 -1.2570  1.3900  1.2785
 2272SOL     OW17024   2.797   2.706   1.254 -0.0288 -0.1386  0.4982
 2272SOL    HW117025   2.838   2.615   1.256 -0.1412 -0.1980  0.0973
 2272SOL    HW217026   2.868   2.774   1.271  0.0146 -0.3134  1.0232
 2273SOL     OW17027   2.549   4.988   2.507  0.2631 -0.2303 -0.5006
 2273SOL    HW117028   2.505   4.960   2.592  0.7118  2.4885  0.6872
 2273SOL    HW217029   2.485   4.979   2.431 -0.9784 -0.2757  0.5420
 2274SOL     OW17030   0.354   4.899   3.294  0.0143 -0.5172  0.5015
 2274SOL    HW117031   0.453   4.891   3.288 -0.0582 -0.6707 -0.6509
 2274SOL    HW217032   0.314   4.892   3.203 -1.0534 -0.3654  0.9414
 2275SOL     OW17033   1.104   5.176   0.546 -0.3750 -0.5232 -0.1811
 2275SOL    HW117034   1.028   5.141   0.491  2.1289 -1.3175 -3.3218
 2275SOL    HW217035   1.151   5.100   0.590  0.7288 -0.4191 -1.1605
 2276SOL     OW17036   1.434   4.815   1.372  0.8105  0.3104  0.4969
 2276SOL    HW117037   1.519   4.797   1.323 -1.3944 -2.2370 -2.6372
 2276SOL    HW217038   1.356   4.798   1.311 -1.9966  1.6261  3.5458
 2277SOL     OW17039   2.115   6.449   0.940 -0.3255  0.1003 -0.1901
 2277SOL    HW117040   2.038   6.401   0.981  1.0947 -0.5853  1.7412
 2277SOL    HW217041   2.098   6.462   0.842 -1.9882 -1.8108 -0.1840
 2278SOL     OW17042   2.109   0.266   0.994 -0.6275  0.2314  0.3985
 2278SOL    HW117043   2.010   0.277   1.002 -0.8198  0.0885 -1.5638
 2278SOL    HW217044   2.132   0.169   0.988 -0.5987  0.3510 -1.6445
 2279SOL     OW17045   1.180   6.241   0.548  0.4318  0.4305 -0.6755
 2279SOL    HW117046   1.214   6.159   0.502  0.0198 -0.2884  0.2770
 2279SOL    HW217047   1.156   6.219   0.643  0.5020  1.7011 -0.3498
 2280SOL     OW17048   1.077   8.749   1.556  0.0670 -0.0442  0.6002
 2280SOL    HW117049   1.024   8.809   1.615  1.2090  0.5783  0.9959
 2280SOL    HW217050   1.020   8.672   1.527 -0.7290  0.0538  1.8793
 2281SOL     OW17051   9.286   2.293   0.051  0.2360  0.4267 -0.8620
 2281SOL    HW117052   9.338   2.314   0.134  1.1970 -0.5929 -1.2096
 2281SOL    HW217053   9.348   2.278  -0.026 -0.6464  1.1275 -1.7244
 2282SOL     OW17054   3.164   0.678   3.396  0.7476 -0.3522  0.1131
 2282SOL    HW117055   3.173   0.578   3.404  0.0290 -0.8124 -3.9901
 2282SOL    HW217056   3.067   0.702   3.389  1.0247  0.3890 -1.3352
 2283SOL     OW17057   4.416   1.017   1.159 -0.3262  0.0489  0.3420
 2283SOL    HW117058   4.351   1.015   1.084 -1.9763 -1.6121  1.7809
 2283SOL    HW217059   4.478   1.095   1.147 -0.2022 -0.4971 -2.9989
 2284SOL     OW17060   2.633   2.445   1.533  0.0184 -0.4157  1.3794
 2284SOL    HW117061   2.686   2.529   1.524  0.0681 -0.2693  2.8187
 2284SOL    HW217062   2.576   2.432   1.452  0.1142  0.9329  1.0837
 2285SOL     OW17063   3.490   9.107   2.897  0.5259  0.4250 -0.1242
 2285SOL    HW117064   3.544   9.181   2.856 -1.0473  1.4812 -0.3083
 2285SOL    HW217065   3.471   9.038   2.828  2.0152 -0.1824  0.0515
 2286SOL     OW17066   7.980   0.788   0.855  0.0447  0.0370  0.1120
 2286SOL    HW117067   7.978   0.847   0.936 -1.4213  0.1351  0.0198
 2286SOL    HW217068   8.052   0.720   0.866 -0.4613 -0.2659  1.7281
 2287SOL     OW17069   8.038   4.859   0.283 -0.1107 -0.0743  0.2088
 2287SOL    HW117070   8.108   4.824   0.345 -1.0041 -2.4673 -0.0585
 2287SOL    HW217071   8.065   4.949   0.249  1.0776  0.6413  2.9184
 2288SOL     OW17072   3.451   8.437   2.530  0.2241  0.9083 -0.1658
 2288SOL    HW117073   3.415   8.347   2.554  0.3460  0.7059 -0.7250
 2288SOL    HW217074   3.426   8.458   2.435  2.3796  0.3541 -0.8797
 2289SOL     OW17075   3.981   8.666   0.427 -0.2625 -0.0010 -0.6282
 2289SOL    HW117076   4.000   8.668   0.525  1.7971  0.7006 -1.0396
 2289SOL    HW217077   3.886   8.693   0.411 -0.0981  1.5828  1.0239
 2290SOL     OW17078   9.441   0.354   0.871  0.5216  0.2962 -0.3338
 2290SOL    HW117079   9.505   0.328   0.798 -1.0251 -1.7140 -1.0075
 2290SOL    HW217080   9.470   0.441   0.911  2.2812  0.6415 -2.2835
 2291SOL     OW17081   2.899   8.388   2.448  0.0754 -0.4979  0.2748
 2291SOL    HW117082   2.934   8.310   2.396  2.0035  0.5277 -0.0345
 2291SOL    HW217083   2.976   8.439   2.487 -1.1740  1.0321  0.8000
 2292SOL     OW17084   2.549   9.958   2.206 -0.1551  0.1300  0.3595
 2292SOL    HW117085   2.568   9.964   2.304 -0.5634  2.1058  0.3385
 2292SOL    HW217086   2.499   9.874   2.187 -0.1413 -0.2317  1.8483
 2293SOL     OW17087   4.376   8.019   0.607  0.0778 -0.3403 -0.6851
 2293SOL    HW117088   4.328   8.089   0.554 -0.3073 -0.9050 -1.0854
 2293SOL    HW217089   4.310   7.956   0.647  0.4054 -0.2624 -0.0214
 2294SOL     OW17090   1.167   9.592   3.079 -0.6655  0.3435 -0.0691
 2294SOL    HW117091   1.094   9.660   3.087 -0.3071  0.7405 -0.1842
 2294SOL    HW217092   1.194   9.583   2.983 -0.1029  0.6732  0.0611
 2295SOL     OW17093   3.973   3.630   3.311 -0.2713  0.2434  0.2177
 2295SOL    HW117094   3.899   3.605   3.374  1.1461 -1.2529  1.3399
 2295SOL    HW217095   3.986   3.556   3.245 -1.1688  1.4308 -1.2999
 2296SOL     OW17096   2.264   5.327   0.524 -0.8684  0.2704 -0.2415
 2296SOL    HW117097   2.220   5.323   0.434  0.8697  1.0421 -1.1486
 2296SOL    HW217098   2.290   5.421   0.545  3.3780 -0.5802 -1.2660
 2297SOL     OW17099   9.907   1.658   1.292 -0.5674 -0.7682 -0.0433
 2297SOL    HW117100   9.855   1.695   1.215  0.4108  0.9175  0.0990
 2297SOL    HW217101   9.977   1.723   1.320 -1.4421 -0.9912  2.8320
 2298SOL     OW17102   9.739   2.069   2.822  0.4668  0.4945 -0.4204
 2298SOL    HW117103   9.781   1.981   2.843  0.8523  1.1193  1.5419
 2298SOL    HW217104   9.791   2.115   2.749  2.3575  0.6355  0.9812
 2299SOL     OW17105   9.885   4.850   0.707  0.1088 -0.4201  0.1949
 2299SOL    HW117106   9.889   4.757   0.670 -1.1183 -0.8972  1.2408
 2299SOL    HW217107   9.835   4.850   0.793  2.3706  0.7919  1.5756
 2300SOL     OW17108   1.544   9.097   1.971  0.2588 -0.0107  0.4595
 2300SOL    HW117109   1.610   9.050   2.028  0.2484  1.1203  1.4168
 2300SOL    HW217110   1.453   9.093   2.014 -0.6850 -3.0376 -1.6653
 2301SOL     OW17111   3.845   8.146   1.347 -0.0903  0.7194  0.5449
 2301SOL    HW117112   3.850   8.137   1.446 -1.2647  0.7217  0.6024
 2301SOL    HW217113   3.863   8.242   1.322  0.4883  0.6622  0.7277
 2302SOL     OW17114   8.537   5.182   1.136 -0.3788 -0.1645  0.3251
 2302SOL    HW117115   8.635   5.176   1.156 -0.3532  0.8610  0.5151
 2302SOL    HW217116   8.492   5.237   1.206 -0.7478  1.1238 -0.8944
 2303SOL     OW17117   2.423   7.577   1.607 -0.5094 -0.1303  0.0771
 2303SOL    HW117118   2.364   7.564   1.527 -0.7340  0.1152  0.2039
 2303SOL    HW217119   2.450   7.673   1.614 -0.0525 -0.2514 -0.0106
 2304SOL     OW17120   8.927   2.613   2.524  0.4498 -0.5126  0.0441
 2304SOL    HW117121   8.909   2.703   2.565 -0.4629 -0.0588 -1.3074
 2304SOL    HW217122   8.856   2.549   2.551 -0.0163 -0.2783 -0.5917
 2305SOL     OW17123   0.186   9.934   0.049 -0.1645 -0.3518 -0.3209
 2305SOL    HW117124   0.186   9.866  -0.024  0.6325  0.4243 -1.0512
 2305SOL    HW217125   0.133  10.014   0.022  1.1363  0.4537 -0.5586
 2306SOL     OW17126   3.370   9.133   2.232  0.4723 -0.0223  0.2116
 2306SOL    HW117127   3.469   9.139   2.218  0.3198  0.5280 -0.6898
 2306SOL    HW217128   3.326   9.211   2.189 -0.2679  0.3038  1.5558
 2307SOL     OW17129   8.121   1.155   1.716  0.1052  0.4566 -0.4655
 2307SOL    HW117130   8.091   1.207   1.796  0.4099  2.0646 -1.3773
 2307SOL    HW217131   8.202   1.199   1.676  2.2588 -2.4361  0.5285
 2308SOL     OW17132   3.760   7.514   3.109  0.1209 -0.1864  0.0874
 2308SOL    HW117133   3.704   7.433   3.124 -1.4240  0.6123 -1.2891
 2308SOL    HW217134   3.830   7.494   3.040 -0.2442 -0.3708 -0.2333
 2309SOL     OW17135   9.735   5.249   1.109 -0.5093  0.0150  0.5506
 2309SOL    HW117136   9.722   5.197   1.194  0.0945 -1.3242 -0.1677
 2309SOL    HW217137   9.814   5.213   1.060 -0.6773  0.9867 -0.4394
 2310SOL     OW17138   9.428   4.859   2.871  0.0629 -0.0653  0.2621
 2310SOL    HW117139   9.446   4.767   2.906  0.6806 -0.1587 -0.2952
 2310SOL    HW217140   9.360   4.904   2.929 -0.1484 -0.8268  0.6094
 2311SOL     OW17141   2.915   9.031   0.171 -0.4586 -0.1347  0.2394
 2311SOL    HW117142   3.009   9.056   0.194 -1.2202  0.3469  2.9814
 2311SOL    HW217143   2.913   8.985   0.082  2.3182  0.1153  0.0291
 2312SOL     OW17144   7.712   2.176   0.429  0.0827  0.1236  0.0343
 2312SOL    HW117145   7.684   2.118   0.505  1.3116 -1.6989 -0.8588
 2312SOL    HW217146   7.632   2.222   0.391 -0.6577  0.4029  1.8697
 2313SOL     OW17147   2.864   6.151   1.449  0.5968 -0.1143  0.3321
 2313SOL    HW117148   2.917   6.078   1.492  0.8076 -0.7665 -1.0092
 2313SOL    HW217149   2.861   6.137   1.350  0.7694  1.7957  0.0338
 2314SOL     OW17150   3.988   8.652   2.428 -0.0880 -0.8962  0.2344
 2314SOL    HW117151   3.946   8.729   2.477  1.0951 -1.0493  1.5191
 2314SOL    HW217152   3.922   8.579   2.418 -0.8151 -0.2439  0.2207
 2315SOL     OW17153   3.070   7.522   0.150  0.1081 -0.1666 -0.2059
 2315SOL    HW117154   2.985   7.544   0.197 -0.6726  1.7937 -2.4495
 2315SOL    HW217155   3.074   7.423   0.134 -1.4580 -0.3495  0.4328
 2316SOL     OW17156   3.007   5.141   0.275  0.3763 -0.4155  0.1743
 2316SOL    HW117157   2.995   5.060   0.333 -0.8949 -0.6302 -0.3733
 2316SOL    HW217158   3.056   5.212   0.327 -0.0535 -0.8861  1.2487
 2317SOL     OW17159   0.578   9.702   2.125  0.7316  0.5020  0.0714
 2317SOL    HW117160   0.644   9.715   2.199 -0.2740 -1.2747  1.3130
 2317SOL    HW217161   0.619   9.646   2.053 -0.1219 -2.5792  1.8927
 2318SOL     OW17162   2.612   2.336   3.045  0.5199  0.3548  0.1032
 2318SOL    HW117163   2.636   2.246   3.081  0.0757 -0.2103 -0.9698
 2318SOL    HW217164   2.588   2.397   3.120  0.7242 -0.4531  0.8359
 2319SOL     OW17165   1.211   3.610   2.114  0.0131  0.2367  0.5725
 2319SOL    HW117166   1.298   3.568   2.089  0.5629  0.8071  1.4898
 2319SOL    HW217167   1.136   3.561   2.070  0.8886  0.6431 -1.3770
 2320SOL     OW17168   4.255   9.722   0.854 -0.1786  0.2673 -0.3490
 2320SOL    HW117169   4.252   9.658   0.777  1.1559  0.0853 -0.2697
 2320SOL    HW217170   4.307   9.803   0.828 -0.7673  0.7540 -0.0277
 2321SOL     OW17171   2.181   9.836   2.770 -0.3171 -0.5948  0.0426
 2321SOL    HW117172   2.123   9.786   2.835  0.3834 -1.7868 -0.2406
 2321SOL    HW217173   2.277   9.831   2.800  0.0982 -1.7178 -1.4235
 2322SOL     OW17174   3.833   0.841   1.765 -0.2344 -0.2663 -0.4784
 2322SOL    HW117175   3.824   0.741   1.772 -0.5128 -0.0864  2.7056
 2322SOL    HW217176   3.766   0.885   1.825  3.2833  1.6715  2.2871
 2323SOL     OW17177   0.562   4.558   0.823 -0.3216 -0.0907  0.3752
 2323SOL    HW117178   0.483   4.523   0.772 -0.5603  0.3055  0.4665
 2323SOL    HW217179   0.561   4.521   0.916 -0.2453 -0.3071  0.2890
 2324SOL     OW17180   1.069   5.871   3.029 -0.2261 -0.1881  0.1185
 2324SOL    HW117181   1.008   5.854   3.106  1.1335 -0.2314  1.2119
 2324SOL    HW217182   1.053   5.803   2.958 -1.2112 -0.4020  0.5375
 2325SOL     OW17183   4.086   7.447   0.972  0.7430  0.0162 -0.0962
 2325SOL    HW117184   4.005   7.502   0.953 -0.0660 -0.9246  0.5484
 2325SOL    HW217185   4.152   7.458   0.898  0.5547  1.7452 -0.0334
 2326SOL     OW17186   8.927   1.115   1.534  0.0961  0.2123 -0.3445
 2326SOL    HW117187   9.002   1.182   1.539  0.7247 -0.4981 -0.0424
 2326SOL    HW217188   8.957   1.036   1.481 -0.7198  0.2692 -0.8861
 2327SOL     OW17189   2.229   0.571   2.528  0.1515 -0.4069  0.1877
 2327SOL    HW117190   2.326   0.565   2.550 -0.0634 -0.8733  1.0297
 2327SOL    HW217191   2.177   0.514   2.591 -0.4879 -1.8845 -1.6174
 2328SOL     OW17192   9.776   3.252   2.138 -0.1695 -0.2121  0.2258
 2328SOL    HW117193   9.698   3.281   2.193 -1.1440 -0.4897 -0.9764
 2328SOL    HW217194   9.815   3.168   2.175 -1.9365 -1.3819 -0.5559
 2329SOL     OW17195   1.986   8.551   2.999 -0.1803 -0.3619  0.3214
 2329SOL    HW117196   2.008   8.636   3.046  1.2614 -1.2531  1.3321
 2329SOL    HW217197   2.029   8.550   2.909  2.6697 -1.3917  1.6320
 2330SOL     OW17198   2.111   7.225   3.108  0.1715 -0.2996  0.0105
 2330SOL    HW117199   2.172   7.192   3.037  0.8022 -1.3223  1.0060
 2330SOL    HW217200   2.161   7.284   3.171  0.2563 -1.4421  1.0443
 2331SOL     OW17201   2.376   1.798   0.509  0.6084  0.3471 -0.1570
 2331SOL    HW117202   2.283   1.777   0.479  0.7301 -0.9351  0.3197
 2331SOL    HW217203   2.440   1.737   0.462  1.1831  1.0219 -0.2563
 2332SOL     OW17204   2.009   7.813   1.551 -0.4865 -0.3601 -0.2349
 2332SOL    HW117205   2.058   7.781   1.632  0.5225  2.6005  0.3764
 2332SOL    HW217206   1.919   7.847   1.577  0.7228  2.7955  0.0999
 2333SOL     OW17207   8.993   2.495   0.414 -0.0974  0.2315 -0.1944
 2333SOL    HW117208   8.905   2.455   0.443 -1.0147  2.6315  0.4331
 2333SOL    HW217209   9.065   2.464   0.476 -0.6657 -0.9909 -0.1295
 2334SOL     OW17210   2.634   0.097   2.665  0.3615  0.9269  0.2882
 2334SOL    HW117211   2.734   0.098   2.667  0.3701  0.8620 -0.0456
 2334SOL    HW217212   2.602   0.017   2.615  0.1608  1.4141 -0.3778
 2335SOL     OW17213   2.422   2.856   1.984  0.3008  0.3635  0.1931
 2335SOL    HW117214   2.512   2.891   1.958  1.0562 -2.3053 -0.9380
 2335SOL    HW217215   2.354   2.889   1.918  0.9807 -0.2123 -0.8184
 2336SOL     OW17216   0.201   1.968   3.008  1.0217 -0.1012  0.2823
 2336SOL    HW117217   0.195   2.030   2.929  0.7187 -0.1253  0.2833
 2336SOL    HW217218   0.146   1.886   2.990 -0.3371  0.6000  1.1611
 2337SOL     OW17219   0.337   7.664   0.505  0.5493  0.5461  0.6993
 2337SOL    HW117220   0.430   7.674   0.469 -0.5201 -0.3648 -2.4528
 2337SOL    HW217221   0.277   7.732   0.463 -1.0571 -1.5753 -0.5444
 2338SOL     OW17222   9.538   3.689   3.373 -0.4359 -0.1615  0.0693
 2338SOL    HW117223   9.546   3.706   3.275  1.4714 -1.7601 -0.0829
 2338SOL    HW217224   9.598   3.753   3.423 -0.3706 -0.2588  0.1144
 2339SOL     OW17225   2.094   8.004   2.673 -0.5493 -0.2319  0.8085
 2339SOL    HW117226   2.165   8.042   2.732  1.1144 -1.6670 -0.1914
 2339SOL    HW217227   2.027   7.955   2.728  0.9478 -1.4954  1.5391
 2340SOL     OW17228   1.482   5.798   2.298 -0.2170 -0.8438  0.1374
 2340SOL    HW117229   1.540   5.862   2.247  0.2583 -1.6868 -0.3911
 2340SOL    HW217230   1.418   5.850   2.355  2.2305  0.0832  2.1076
 2341SOL     OW17231   0.283   5.831   0.581  0.4615 -0.1067 -0.0122
 2341SOL    HW117232   0.236   5.811   0.667  0.4739 -1.8939 -0.4092
 2341SOL    HW217233   0.364   5.773   0.573  0.2745 -0.1898 -1.3780
 2342SOL     OW17234   1.763   6.888   3.248  0.6777  0.2841 -0.4998
 2342SOL    HW117235   1.806   6.841   3.171  2.2546 -1.7247  1.5210
 2342SOL    HW217236   1.823   6.962   3.279  1.3618 -0.6600  0.4833
 2343SOL     OW17237   8.959   2.721   0.093 -0.1757  0.2810 -0.3708
 2343SOL    HW117238   8.971   2.737   0.192  0.1317 -0.2176 -0.3269
 2343SOL    HW217239   8.867   2.685   0.076 -0.4440  0.9327 -0.3377
 2344SOL     OW17240   8.548   3.381   1.906  0.1966  0.1203 -0.6585
 2344SOL    HW117241   8.606   3.376   1.825  1.2116  0.4659  0.0395
 2344SOL    HW217242   8.572   3.461   1.960  0.0067 -0.4868  0.3468
 2345SOL     OW17243   7.894   0.811   3.323  0.4008  0.4770  0.0624
 2345SOL    HW117244   7.952   0.877   3.371  1.0550 -0.2692  0.3118
 2345SOL    HW217245   7.798   0.833   3.340  0.5426  3.0050 -2.0663
 2346SOL     OW17246   8.943   4.636   1.737 -0.3249 -0.1148 -0.6320
 2346SOL    HW117247   8.910   4.720   1.779 -1.4793 -0.9154  0.1156
 2346SOL    HW217248   8.979   4.656   1.645  1.7209  1.5572  0.4997
 2347SOL     OW17249   3.042   6.513   0.956 -0.0345  0.4454  0.2459
 2347SOL    HW117250   3.039   6.507   0.857  0.0620 -0.3335  0.2884
 2347SOL    HW217251   3.022   6.423   0.996  0.1215  0.7072  0.9253
 2348SOL     OW17252   1.400   8.568   1.958  0.2677  0.7428  0.0907
 2348SOL    HW117253   1.363   8.611   1.876  0.4872 -0.3293 -0.5725
 2348SOL    HW217254   1.325   8.530   2.013  0.1266  1.4130  0.3704
 2349SOL     OW17255   0.644   8.410   2.181  0.0994 -0.3021 -0.3418
 2349SOL    HW117256   0.731   8.420   2.132 -0.7319 -0.5380 -1.8956
 2349SOL    HW217257   0.630   8.313   2.204 -1.0745 -0.6871 -2.5978
 2350SOL     OW17258   0.271   7.114   1.632  0.0825  0.1416  0.3321
 2350SOL    HW117259   0.253   7.136   1.536 -0.2358  0.1557  0.3924
 2350SOL    HW217260   0.243   7.020   1.650 -0.4801  0.3470  0.5660
 2351SOL     OW17261   3.121   3.097   2.559 -0.1731 -0.4286 -0.2377
 2351SOL    HW117262   3.151   3.164   2.626 -2.9629  0.5619  0.0922
 2351SOL    HW217263   3.102   3.010   2.605  0.3615 -0.5067 -0.1611
 2352SOL     OW17264   3.981   0.391   1.319 -0.6890 -0.0412  0.4487
 2352SOL    HW117265   3.890   0.400   1.278  0.0854 -0.5049 -1.4206
 2352SOL    HW217266   4.024   0.307   1.287  1.0132  0.9468  0.0974
 2353SOL     OW17267   8.297   3.725   0.151  0.1945  0.3470  0.7101
 2353SOL    HW117268   8.276   3.668   0.071 -0.3784  0.0868  1.0373
 2353SOL    HW217269   8.377   3.782   0.132 -1.6379  2.4201 -1.1226
 2354SOL     OW17270   3.707   9.799   2.358 -0.5597 -0.5308  0.4444
 2354SOL    HW117271   3.751   9.766   2.274 -1.8639  0.2988 -0.5989
 2354SOL    HW217272   3.631   9.737   2.381 -0.9809 -0.0724  0.2988
 2355SOL     OW17273   8.546   0.650   2.448  0.0684 -0.0455 -0.0995
 2355SOL    HW117274   8.608   0.616   2.378  1.4098  2.3835 -0.1554
 2355SOL    HW217275   8.453   0.658   2.411 -0.4485 -4.1990  0.1353
 2356SOL     OW17276   2.821   8.644   2.486 -0.2200 -0.4749 -0.2671
 2356SOL    HW117277   2.860   8.556   2.459 -0.0769 -0.3556 -0.4495
 2356SOL    HW217278   2.722   8.640   2.475 -0.3134 -0.9547  0.6939
 2357SOL     OW17279   9.569   0.569   1.562  0.7309  0.1107 -0.2258
 2357SOL    HW117280   9.612   0.484   1.529  1.6057  0.3469  0.3059
 2357SOL    HW217281   9.607   0.594   1.650  1.4636  1.7966 -0.9945
 2358SOL     OW17282   0.238   1.350   1.322 -0.4179 -0.7183 -0.5655
 2358SOL    HW117283   0.143   1.351   1.290 -0.6756 -0.8664  0.1820
 2358SOL    HW217284   0.292   1.413   1.267 -1.4067  1.0416  0.4395
 2359SOL     OW17285   1.711   1.448   0.598 -0.4995 -0.4719 -0.2236
 2359SOL    HW117286   1.755   1.447   0.509 -0.1752 -0.6052 -0.0603
 2359SOL    HW217287   1.741   1.370   0.652  0.0158  0.1170  0.3537
 2360SOL     OW17288   9.734   3.054   1.874 -0.0501 -0.1465  0.2996
 2360SOL    HW117289   9.694   3.146   1.866  0.5519 -0.0976 -2.3957
 2360SOL    HW217290   9.768   3.042   1.967 -0.7051  2.1321  0.8825
 2361SOL     OW17291   2.113   5.848   0.796 -0.2051  0.5037 -0.1949
 2361SOL    HW117292   2.178   5.775   0.814 -0.7604 -0.3039 -1.3699
 2361SOL    HW217293   2.094   5.852   0.697  1.6924  3.8289 -0.5042
 2362SOL     OW17294   9.925   0.741   2.635  0.2613  0.0156 -0.0092
 2362SOL    HW117295   9.887   0.831   2.655 -2.3736 -1.2472  0.8575
 2362SOL    HW217296   9.942   0.734   2.537 -0.2867  1.1582 -0.2017
 2363SOL     OW17297   1.002   9.886   3.342  0.0529  0.7500 -0.2691
 2363SOL    HW117298   0.952   9.819   3.287 -0.6685  0.4152  0.7791
 2363SOL    HW217299   0.938   9.935   3.401  0.7750  1.3552  0.0166
 2364SOL     OW17300   1.804   7.260   1.123  0.2378  0.0156 -0.1604
 2364SOL    HW117301   1.891   7.237   1.168 -0.1083 -1.2461 -0.1025
 2364SOL    HW217302   1.801   7.217   1.033 -0.1639  0.3845 -0.3239
 2365SOL     OW17303   0.066   4.331   1.938  0.8517  0.4296  0.2874
 2365SOL    HW117304   0.053   4.422   1.980  2.1007  0.6251  0.2725
 2365SOL    HW217305  -0.002   4.317   1.867  1.0963  1.6694 -0.2089
 2366SOL     OW17306   1.680   9.138   2.289  0.0623 -0.3571  0.4258
 2366SOL    HW117307   1.761   9.166   2.238 -0.7775 -0.1260 -0.8139
 2366SOL    HW217308   1.696   9.049   2.332  1.1803 -0.0190  0.7028
 2367SOL     OW17309   8.305   1.135   2.851  0.1833  0.0427 -0.0297
 2367SOL    HW117310   8.308   1.038   2.875 -1.1227  0.0937  0.3843
 2367SOL    HW217311   8.398   1.169   2.841  0.6687 -1.1359  0.3063
 2368SOL     OW17312   9.566   5.685   0.468 -0.1513  0.0534  0.0230
 2368SOL    HW117313   9.653   5.692   0.516 -0.3306  2.3362  0.0450
 2368SOL    HW217314   9.492   5.672   0.534  0.1917 -2.5201 -0.0308
 2369SOL     OW17315   2.723   0.018   1.695 -0.0930 -0.1110  0.4264
 2369SOL    HW117316   2.764   0.109   1.705 -0.4141  0.1783 -0.7390
 2369SOL    HW217317   2.672   0.015   1.609  1.3297 -1.9276 -0.3857
 2370SOL     OW17318   3.878   2.890   0.724  0.0849 -0.0370 -0.6558
 2370SOL    HW117319   3.804   2.869   0.789  1.4625 -0.8554  0.6839
 2370SOL    HW217320   3.922   2.804   0.695  0.6321  0.4596 -1.3102
 2371SOL     OW17321   0.806   8.023   1.262  0.1571  0.1835  0.3756
 2371SOL    HW117322   0.835   7.927   1.258  1.5478  0.5460  1.1880
 2371SOL    HW217323   0.793   8.058   1.170  1.2026 -0.3394  0.0217
 2372SOL     OW17324   1.745   9.140   2.989  0.0770 -0.2361 -0.1867
 2372SOL    HW117325   1.735   9.183   3.078  1.1429  0.1755 -0.2553
 2372SOL    HW217326   1.771   9.209   2.921  0.6317 -0.7794 -0.5359
 2373SOL     OW17327   8.214   1.609   1.980  0.4038  0.0864  0.1698
 2373SOL    HW117328   8.286   1.564   2.032  0.5865  1.5080  1.1936
 2373SOL    HW217329   8.197   1.700   2.019 -2.1021 -0.3188  0.1002
 2374SOL     OW17330   8.553   3.498   3.086 -0.2137 -0.0055 -0.2085
 2374SOL    HW117331   8.553   3.598   3.078 -0.3587 -0.0082 -0.2375
 2374SOL    HW217332   8.572   3.458   2.996  3.3640  0.0513  0.4483
 2375SOL     OW17333   9.938   1.376   0.372  0.2852 -0.1185  0.3904
 2375SOL    HW117334   9.894   1.405   0.287 -2.3767 -1.3629  1.2649
 2375SOL    HW217335   9.941   1.452   0.436 -3.9405 -0.8270  1.5946
 2376SOL     OW17336   1.780   6.055   2.738 -0.0110  0.1075  0.2449
 2376SOL    HW117337   1.738   5.985   2.680  0.2251  0.8056 -0.7896
 2376SOL    HW217338   1.869   6.022   2.771 -0.8285 -0.9052  1.4861
 2377SOL     OW17339   7.868   2.342   1.071 -0.2321 -0.7933 -0.2916
 2377SOL    HW117340   7.827   2.257   1.104  0.1506 -0.4014  1.2509
 2377SOL    HW217341   7.836   2.418   1.129 -0.6374  0.1187 -1.6967
 2378SOL     OW17342   2.719   4.865   0.603 -0.8992  0.3058 -0.3808
 2378SOL    HW117343   2.693   4.822   0.517 -0.6684 -0.4624 -0.0758
 2378SOL    HW217344   2.644   4.856   0.669 -1.7043  2.2986 -0.9854
 2379SOL     OW17345   3.809   2.693   2.630 -0.3855 -0.6245  0.1917
 2379SOL    HW117346   3.813   2.641   2.715 -0.7541 -0.9038  0.0414
 2379SOL    HW217347   3.896   2.684   2.582 -0.4562 -1.1309  0.1549
 2380SOL     OW17348   1.848   4.719   2.082 -0.1511 -0.7331 -0.8116
 2380SOL    HW117349   1.915   4.663   2.035  0.6448 -2.2651  2.0411
 2380SOL    HW217350   1.779   4.661   2.124 -0.4554  0.5296  0.4858
 2381SOL     OW17351   9.052   3.912   0.041 -0.1263 -0.4678  0.4092
 2381SOL    HW117352   9.073   4.005   0.013 -0.8313 -0.4704 -0.1337
 2381SOL    HW217353   8.994   3.868  -0.027  1.8268 -1.9853 -0.3238
 2382SOL     OW17354   3.246   7.303   1.748  0.4610  0.1313 -0.6288
 2382SOL    HW117355   3.182   7.250   1.804  1.1424  0.1776  0.2119
 2382SOL    HW217356   3.339   7.271   1.765  0.6959  0.3279 -1.5479
 2383SOL     OW17357   3.086   9.204   1.849  0.5774  0.2911 -0.1749
 2383SOL    HW117358   3.126   9.295   1.861  0.9862  0.2463 -1.1045
 2383SOL    HW217359   3.009   9.211   1.785  0.2620  0.0687  0.1793
 2384SOL     OW17360   8.222   0.302   0.439 -0.3018  0.0788  0.1138
 2384SOL    HW117361   8.168   0.383   0.418 -0.2245  0.7291  2.2579
 2384SOL    HW217362   8.171   0.245   0.504  1.0172  0.0585  1.1507
 2385SOL     OW17363   9.681   9.717   1.738 -0.3842  0.2633  0.1259
 2385SOL    HW117364   9.642   9.643   1.793  1.5361 -1.0224 -0.1851
 2385SOL    HW217365   9.633   9.721   1.650 -0.6967 -0.4094  0.2601
 2386SOL     OW17366   1.911   9.756   1.656 -0.2403 -0.0824 -0.2842
 2386SOL    HW117367   2.004   9.719   1.660  0.3556  1.4735  0.5624
 2386SOL    HW217368   1.858   9.721   1.733 -0.8421 -2.1996 -1.6186
 2387SOL     OW17369   3.122   7.052   3.240  0.2634 -0.2205 -0.0673
 2387SOL    HW117370   3.053   7.037   3.169  0.2901  1.9262 -0.5871
 2387SOL    HW217371   3.177   6.969   3.251 -2.5535 -2.0853  0.5812
 2388SOL     OW17372   1.391   4.080   0.458  0.4065 -0.2856  0.7397
 2388SOL    HW117373   1.476   4.114   0.418  1.0477  0.2589  2.5054
 2388SOL    HW217374   1.362   4.142   0.532 -0.1726 -1.8047  1.8144
 2389SOL     OW17375   1.659   8.278   3.345 -0.6042  0.2873  0.1335
 2389SOL    HW117376   1.717   8.351   3.309  1.2368 -1.1513  0.1134
 2389SOL    HW217377   1.564   8.310   3.350 -0.4807  1.4775 -3.4049
 2390SOL     OW17378   2.661   8.332   2.014 -0.7224  0.1007 -0.2591
 2390SOL    HW117379   2.659   8.276   1.931  0.7743 -0.9711  0.3995
 2390SOL    HW217380   2.596   8.297   2.080  0.7088 -1.3157  0.4193
 2391SOL     OW17381   0.756   6.040   2.158  0.0455  0.3794  0.3909
 2391SOL    HW117382   0.698   6.088   2.223  0.0430  1.0309 -0.0949
 2391SOL    HW217383   0.831   6.099   2.130 -1.5264  1.1131 -2.3629
 2392SOL     OW17384   2.918   9.135   1.613  0.5780 -0.1521 -0.4247
 2392SOL    HW117385   2.968   9.092   1.538 -0.6741 -0.9445 -0.8155
 2392SOL    HW217386   2.820   9.117   1.603  0.3685 -0.0345  1.2496
 2393SOL     OW17387   3.178   7.760   1.093 -0.3915 -0.4608 -0.0767
 2393SOL    HW117388   3.208   7.852   1.070 -1.5872 -0.1547 -0.4614
 2393SOL    HW217389   3.082   7.748   1.066 -0.3598 -1.6960  0.2979
 2394SOL     OW17390   3.962   9.963   1.171 -0.1317  0.8783  0.0915
 2394SOL    HW117391   3.951   9.869   1.141 -0.4747  0.6997  0.7611
 2394SOL    HW217392   4.028   9.967   1.246 -0.4423  1.1038  0.3597
 2395SOL     OW17393   1.913   8.092   2.198 -0.4892  0.2448 -0.2460
 2395SOL    HW117394   1.978   8.070   2.270 -2.3388  2.5170  2.2309
 2395SOL    HW217395   1.947   8.169   2.143  0.8341 -1.3670 -1.7340
 2396SOL     OW17396   4.011   8.990   1.395  0.5185  0.6393 -0.5098
 2396SOL    HW117397   3.947   9.025   1.327  0.4668 -1.6094 -1.6320
 2396SOL    HW217398   4.099   9.037   1.385  0.2468  0.9352 -1.5485
 2397SOL     OW17399   2.820   1.301   3.338 -0.1258  0.1952 -0.5366
 2397SOL    HW117400   2.870   1.388   3.329 -1.0997  0.8061 -0.1320
 2397SOL    HW217401   2.731   1.318   3.381  0.3019 -1.2201  0.9848
 2398SOL     OW17402   3.403   7.355   3.218  0.4844 -0.0413  0.1137
 2398SOL    HW117403   3.435   7.444   3.186 -1.3206  0.5383 -0.1215
 2398SOL    HW217404   3.307   7.362   3.245  0.5153 -1.7671  0.7124
 2399SOL     OW17405   4.190   2.498   1.150  0.1574 -0.2076  0.1970
 2399SOL    HW117406   4.283   2.507   1.185 -0.0384 -2.4406  1.3983
 2399SOL    HW217407   4.127   2.545   1.212  0.1746 -1.2005  0.9668
 2400SOL     OW17408   2.560   1.707   0.342  0.3743  0.1989  0.2440
 2400SOL    HW117409   2.606   1.792   0.368 -1.4927  0.4836  2.9622
 2400SOL    HW217410   2.605   1.630   0.387  1.1362 -0.0848 -0.9948
 2401SOL     OW17411   8.202   4.007   1.946 -0.2879 -0.1410 -0.0410
 2401SOL    HW117412   8.274   4.069   1.914  0.0645 -0.5768 -0.1040
 2401SOL    HW217413   8.133   4.059   1.997 -0.2640  0.3839 -0.5286
 2402SOL     OW17414   0.753   2.525   0.609 -0.0844 -0.3048 -0.5036
 2402SOL    HW117415   0.848   2.512   0.581  0.3934  2.2207 -0.1783
 2402SOL    HW217416   0.749   2.578   0.694 -1.7624 -0.6302 -0.3496
 2403SOL     OW17417   1.552   5.906   1.667 -0.1260  0.1157 -0.1546
 2403SOL    HW117418   1.627   5.951   1.618  0.4423 -1.6346 -0.9558
 2403SOL    HW217419   1.465   5.935   1.628  0.2884 -0.5521 -1.6365
 2404SOL     OW17420   1.862   8.656   0.225 -0.6046 -0.0998  0.0301
 2404SOL    HW117421   1.922   8.659   0.304 -0.4098  1.8856 -0.1495
 2404SOL    HW217422   1.767   8.658   0.256 -0.5328  2.0395  0.2415
 2405SOL     OW17423   0.709   6.821   2.462  0.2103  0.0649  0.0410
 2405SOL    HW117424   0.632   6.802   2.401  1.5221  0.6590 -1.8796
 2405SOL    HW217425   0.707   6.917   2.490 -0.7334 -0.3551  1.4578
 2406SOL     OW17426   2.730   7.324   3.133 -0.5892  0.2072 -0.3586
 2406SOL    HW117427   2.721   7.279   3.044  0.7272 -0.7146 -0.0403
 2406SOL    HW217428   2.795   7.273   3.189 -1.4391  0.7568  1.1495
 2407SOL     OW17429   7.377   1.127   0.030  0.7201 -0.4997  0.5096
 2407SOL    HW117430   7.399   1.134  -0.068 -1.6714  0.8388  0.0288
 2407SOL    HW217431   7.414   1.206   0.078 -1.7343  1.0438 -0.0658
 2408SOL     OW17432   1.233   5.800   0.699  0.5725 -0.0383 -0.0221
 2408SOL    HW117433   1.284   5.807   0.785  0.4284  0.1714  0.0464
 2408SOL    HW217434   1.146   5.752   0.716 -1.5059  3.8060  0.8605
 2409SOL     OW17435   1.748   8.547   2.813 -0.2014 -0.5019 -0.5558
 2409SOL    HW117436   1.731   8.458   2.855 -1.3447  0.0665  0.1903
 2409SOL    HW217437   1.814   8.598   2.868 -0.8885 -0.1823 -0.0297
 2410SOL     OW17438   0.544   5.563   3.115 -0.3143  0.5405 -0.2202
 2410SOL    HW117439   0.524   5.465   3.107  0.4743  0.1928  1.7743
 2410SOL    HW217440   0.642   5.577   3.119 -0.4370  1.0553  2.8834
 2411SOL     OW17441   3.254   3.060   3.294 -0.1212 -0.9799  0.1666
 2411SOL    HW117442   3.181   2.991   3.291 -1.4383  0.3951 -0.2659
 2411SOL    HW217443   3.222   3.143   3.248  2.1494 -0.7442 -1.0323
 2412SOL     OW17444   2.792   8.177   0.920 -0.2204  0.3305  0.5843
 2412SOL    HW117445   2.781   8.163   1.018  1.5520 -0.7015  0.6546
 2412SOL    HW217446   2.709   8.150   0.872  0.2196 -2.8219  1.4765
 2413SOL     OW17447   2.680   8.687   3.294 -0.4532 -0.0153  0.4991
 2413SOL    HW117448   2.601   8.747   3.290  0.2424  0.8296 -1.8140
 2413SOL    HW217449   2.719   8.677   3.202  0.6872 -2.3475  1.1770
 2414SOL     OW17450   2.245   2.102   0.244  0.5351 -0.1910  0.3526
 2414SOL    HW117451   2.275   2.102   0.339  0.4037 -0.6166  0.3949
 2414SOL    HW217452   2.240   2.008   0.210 -0.6092 -0.1301  0.3132
 2415SOL     OW17453   2.126   7.721   1.796 -0.3736 -0.1342  0.5698
 2415SOL    HW117454   2.146   7.629   1.831 -1.0742 -0.8273 -0.8170
 2415SOL    HW217455   2.071   7.771   1.862  0.5245 -0.4966  1.6018
 2416SOL     OW17456   2.125   7.545   2.275  0.1982  0.4138  0.5126
 2416SOL    HW117457   2.051   7.581   2.332 -0.7862 -0.4746 -0.1618
 2416SOL    HW217458   2.166   7.619   2.222 -0.2023  0.9220  0.9169
 2417SOL     OW17459   2.904   4.663   3.209  0.2295 -0.5563 -0.0238
 2417SOL    HW117460   2.983   4.721   3.188  0.7596 -1.6667 -1.1012
 2417SOL    HW217461   2.859   4.636   3.124 -1.3706  0.1246  0.5796
 2418SOL     OW17462   0.448   1.928   1.531 -0.1861 -0.1386 -0.1660
 2418SOL    HW117463   0.401   2.001   1.581  0.6604  0.3420 -0.0638
 2418SOL    HW217464   0.520   1.967   1.474 -0.1076 -0.8401 -0.5535
 2419SOL     OW17465   2.879   1.466   1.310 -0.2083  0.2835  0.6961
 2419SOL    HW117466   2.977   1.480   1.295 -0.1888 -1.3795 -0.9242
 2419SOL    HW217467   2.847   1.392   1.251 -1.9778 -0.7317  2.8751
 2420SOL     OW17468   1.891   9.227   1.754  0.1903  0.1002 -0.3704
 2420SOL    HW117469   1.902   9.137   1.711  0.6349 -0.0457  0.0460
 2420SOL    HW217470   1.806   9.269   1.722 -0.9955 -1.2854  0.8896
 2421SOL     OW17471   9.105   0.177   1.255  0.1993  0.0096 -0.1707
 2421SOL    HW117472   9.065   0.265   1.279  1.2287  0.6132 -0.6411
 2421SOL    HW217473   9.166   0.146   1.328  2.0064  1.0333 -1.2156
 2422SOL     OW17474   3.395   4.848   1.338  0.6622  0.5044  0.1873
 2422SOL    HW117475   3.408   4.941   1.303 -1.5699  0.5945 -0.4779
 2422SOL    HW217476   3.304   4.841   1.380  1.0994 -1.1904  0.8693
 2423SOL     OW17477   2.534   8.703   1.338  1.3621  0.3083  0.0635
 2423SOL    HW117478   2.509   8.606   1.342  0.7599  0.4229 -0.7812
 2423SOL    HW217479   2.621   8.713   1.290  1.3665  0.1911  0.0478
 2424SOL     OW17480   9.711   4.960   2.162 -0.5036  0.0662  0.1983
 2424SOL    HW117481   9.772   4.938   2.238 -0.7078  0.3232  0.4366
 2424SOL    HW217482   9.748   5.035   2.109  0.5832 -1.3307 -1.0704
 2425SOL     OW17483   9.041   0.307   1.580 -0.2551  0.6165 -0.0155
 2425SOL    HW117484   9.012   0.323   1.485 -2.7832  1.0872  0.7973
 2425SOL    HW217485   9.116   0.369   1.602  0.2767  0.5899 -1.6800
 2426SOL     OW17486   0.087   2.539   2.959  0.2672  0.1447  0.1136
 2426SOL    HW117487   0.158   2.474   2.986 -0.6763 -1.7699 -1.9391
 2426SOL    HW217488  -0.001   2.508   2.994  0.0768  1.3716  0.7744
 2427SOL     OW17489   2.057   6.116   0.815  0.6358  0.2575  0.4442
 2427SOL    HW117490   2.059   6.022   0.851 -0.2893 -0.5578 -1.5859
 2427SOL    HW217491   1.981   6.166   0.858 -0.0881 -0.5271  0.1042
 2428SOL     OW17492   9.599   3.531   0.456  0.4113  0.6317 -0.0569
 2428SOL    HW117493   9.577   3.565   0.548  0.3698  0.6206 -0.0627
 2428SOL    HW217494   9.514   3.509   0.408  0.4637 -0.4691  0.3215
 2429SOL     OW17495   9.347   0.658   1.239 -0.1278 -0.2533 -0.6748
 2429SOL    HW117496   9.264   0.687   1.192 -1.1994  2.5311  2.6656
 2429SOL    HW217497   9.324   0.591   1.309  0.3243  0.7345  0.4510
 2430SOL     OW17498   3.746   2.943   3.397 -0.0398 -0.2940  0.3893
 2430SOL    HW117499   3.837   2.941   3.356 -0.0454  2.2093  0.2235
 2430SOL    HW217500   3.688   3.007   3.348 -1.4318 -0.6752  1.4940
 2431SOL     OW17501   2.348   8.374   1.798  0.2293 -0.4145 -0.5145
 2431SOL    HW117502   2.327   8.276   1.789 -2.0931  0.0952 -0.7891
 2431SOL    HW217503   2.352   8.398   1.895  2.5191 -1.0966 -0.3908
 2432SOL     OW17504   3.922   9.713   3.054  0.1209 -0.7285  0.1691
 2432SOL    HW117505   3.847   9.733   3.118  0.4066  0.0319  0.2691
 2432SOL    HW217506   3.884   9.688   2.965 -0.2447 -0.0831  0.1454
 2433SOL     OW17507   3.960   1.226   1.752  0.1170 -0.1032 -0.1935
 2433SOL    HW117508   3.896   1.228   1.830  0.1425 -0.8752 -0.1539
 2433SOL    HW217509   4.015   1.143   1.756 -0.5575 -0.6313 -1.5872
 2434SOL     OW17510   2.581   6.457   3.430 -0.5338 -0.3264 -0.3679
 2434SOL    HW117511   2.527   6.465   3.346  0.4434  0.0767 -0.9689
 2434SOL    HW217512   2.527   6.410   3.500 -1.7887  0.3772 -0.8416
 2435SOL     OW17513   2.981   0.596   0.529 -0.2217  0.3943 -0.3167
 2435SOL    HW117514   3.068   0.639   0.551  0.1790 -1.1951  1.3283
 2435SOL    HW217515   2.910   0.629   0.591 -0.3926  0.3203 -0.4716
 2436SOL     OW17516   2.076   4.419   2.999 -1.1514  0.4879 -0.3236
 2436SOL    HW117517   2.119   4.455   2.917 -2.2844  1.5332 -0.4847
 2436SOL    HW217518   2.135   4.350   3.042  0.8983  2.3004 -0.2051
 2437SOL     OW17519   3.314   1.676   1.931  0.0435  0.2051  0.2028
 2437SOL    HW117520   3.253   1.624   1.990  0.7964 -1.3262 -0.3510
 2437SOL    HW217521   3.288   1.662   1.835  0.5355  0.4729  0.0271
 2438SOL     OW17522   8.328   3.315   0.873 -0.1587  0.1735 -0.3105
 2438SOL    HW117523   8.301   3.398   0.825 -0.6078  0.5862  0.6379
 2438SOL    HW217524   8.285   3.313   0.963  1.4251 -0.1249  0.4624
 2439SOL     OW17525   4.357   3.138   0.982  0.4390 -0.0170  0.2183
 2439SOL    HW117526   4.334   3.209   1.049 -0.0540 -1.0357  1.1637
 2439SOL    HW217527   4.328   3.049   1.018 -1.0330 -0.4364 -1.9310
 2440SOL     OW17528   9.973   4.516   1.034 -0.0301 -0.0332 -0.0278
 2440SOL    HW117529   9.883   4.504   0.993  0.1068  0.9245 -0.6319
 2440SOL    HW217530   9.981   4.458   1.115 -0.7239 -1.0750 -0.6904
 2441SOL     OW17531   3.082   4.346   3.120 -0.0853  0.0585  0.0028
 2441SOL    HW117532   3.108   4.279   3.189 -0.5942 -0.1681 -0.0236
 2441SOL    HW217533   2.991   4.324   3.084  0.8065 -0.7185 -1.8470
 2442SOL     OW17534   1.040   1.986   0.715  0.5561  0.0928 -0.4858
 2442SOL    HW117535   0.974   2.049   0.676  1.2539  1.3585  0.3622
 2442SOL    HW217536   1.133   2.016   0.693  1.0062  1.3126  2.7944
 2443SOL     OW17537   9.979   5.253   3.417  0.1626 -0.7243  0.3380
 2443SOL    HW117538  10.034   5.333   3.439 -0.0151 -0.3013 -0.7112
 2443SOL    HW217539  10.033   5.170   3.428  0.3040 -0.4725  1.5719
 2444SOL     OW17540   1.918   7.811   2.859  0.2292  0.7504 -0.2317
 2444SOL    HW117541   1.953   7.718   2.870  1.0702  1.0042 -0.7361
 2444SOL    HW217542   1.834   7.809   2.805 -0.2560  0.1881  0.5469
 2445SOL     OW17543   2.033   5.105   1.228  0.2449 -0.0445 -0.4507
 2445SOL    HW117544   1.948   5.062   1.260  1.1720 -0.6621  1.2790
 2445SOL    HW217545   2.021   5.204   1.224 -0.1370 -0.0122  1.1826
 2446SOL     OW17546   7.620   1.212   3.321 -0.4360  0.1956  0.2272
 2446SOL    HW117547   7.685   1.283   3.297 -1.9972  1.1642 -1.1873
 2446SOL    HW217548   7.565   1.188   3.241 -1.8087 -0.6138  1.3910
 2447SOL     OW17549   3.442   2.016   2.160 -0.0958  0.0004 -0.2947
 2447SOL    HW117550   3.468   2.108   2.190 -3.8961  0.8250  0.8021
 2447SOL    HW217551   3.430   2.015   2.061 -1.4853  1.1332 -0.1564
 2448SOL     OW17552   3.886   3.455   2.025  0.6171 -0.1037 -0.1606
 2448SOL    HW117553   3.882   3.480   1.928  0.4026  0.4212 -0.0153
 2448SOL    HW217554   3.970   3.404   2.043  0.8536  0.1524 -0.5370
 2449SOL     OW17555   8.828   4.397   1.802 -0.8204 -0.0599 -0.2769
 2449SOL    HW117556   8.882   4.478   1.778 -2.9988  1.2665 -0.8029
 2449SOL    HW217557   8.864   4.357   1.886  1.0321  0.7348 -0.6651
 2450SOL     OW17558   9.017   3.089   3.333  0.5777  0.3729  0.1922
 2450SOL    HW117559   9.014   3.037   3.247  0.7494  1.2864 -0.3719
 2450SOL    HW217560   9.108   3.079   3.375 -0.3223 -2.1885  1.6040
 2451SOL     OW17561   0.252   6.836   1.686  0.1972 -0.3908  0.4698
 2451SOL    HW117562   0.181   6.773   1.715  0.6075 -0.4822  1.2791
 2451SOL    HW217563   0.302   6.871   1.766  0.4784  0.3596 -0.0209
 2452SOL     OW17564   8.452   0.870   1.441 -0.5240 -0.8134 -0.4751
 2452SOL    HW117565   8.391   0.949   1.437 -0.8188 -0.8002  2.9956
 2452SOL    HW217566   8.399   0.786   1.426 -1.1789 -0.6920  1.0308
 2453SOL     OW17567   2.623   6.770   2.515 -0.2747 -0.0067 -0.0997
 2453SOL    HW117568   2.523   6.779   2.510 -0.4842 -0.4557  2.5261
 2453SOL    HW217569   2.659   6.746   2.425 -2.5292  0.1612 -1.0839
 2454SOL     OW17570   0.532   3.860   0.487 -0.9346 -0.0969 -0.1551
 2454SOL    HW117571   0.625   3.891   0.464 -0.5965 -0.6950  0.3807
 2454SOL    HW217572   0.486   3.930   0.541 -0.2957 -0.3725  0.7626
 2455SOL     OW17573   2.911   2.467   1.273 -0.7699  0.0799 -0.0434
 2455SOL    HW117574   2.963   2.489   1.356  0.8116  0.0266 -1.0057
 2455SOL    HW217575   2.943   2.380   1.236 -1.8832 -0.1894 -0.3868
 2456SOL     OW17576   3.131   4.596   2.480  0.5305 -0.2932 -0.1274
 2456SOL    HW117577   3.114   4.595   2.578 -1.2141  1.2882 -0.3901
 2456SOL    HW217578   3.188   4.675   2.456 -0.4403  0.2694 -0.5968
 2457SOL     OW17579   0.055   3.102   0.064  0.2965 -0.2286  0.0880
 2457SOL    HW117580   0.136   3.123   0.120  1.0410 -2.0775 -0.2673
 2457SOL    HW217581   0.050   3.167  -0.012  0.9676  0.4312  0.5952
 2458SOL     OW17582   3.604   0.461   1.883  0.2140 -0.1934  0.0830
 2458SOL    HW117583   3.524   0.521   1.873  0.4818  0.0856 -0.3999
 2458SOL    HW217584   3.645   0.476   1.973 -0.5423 -0.6689  0.5154
 2459SOL     OW17585   9.663   0.175   2.064 -0.1960 -0.2643  0.3955
 2459SOL    HW117586   9.590   0.108   2.066 -0.7890  0.3925  0.8853
 2459SOL    HW217587   9.651   0.241   2.138 -1.9858  2.8553 -2.5107
 2460SOL     OW17588   9.065   2.135   1.873  0.0949 -0.4562  0.1963
 2460SOL    HW117589   9.160   2.107   1.891  0.0501  0.2055  1.5136
 2460SOL    HW217590   9.040   2.208   1.936 -1.9225 -1.9340  1.1590
 2461SOL     OW17591   4.983   2.423   0.824 -0.2345 -0.1482  0.0038
 2461SOL    HW117592   4.909   2.359   0.802  0.1289 -0.9872  1.1720
 2461SOL    HW217593   4.961   2.470   0.910 -0.3230  1.0157 -0.6594
 2462SOL     OW17594   3.119   2.656   0.995 -0.6265  0.1814  0.2622
 2462SOL    HW117595   3.095   2.621   0.904  0.6513 -1.7050  0.6095
 2462SOL    HW217596   3.183   2.593   1.039 -0.7805  1.3608  2.2552
 2463SOL     OW17597   3.837   9.072   0.862 -1.0544 -0.1263 -0.1769
 2463SOL    HW117598   3.803   9.141   0.926 -0.1583  0.5270 -0.3961
 2463SOL    HW217599   3.899   9.009   0.910 -2.2595 -1.0938  0.1387
 2464SOL     OW17600   2.669   4.901   2.763  0.5827 -0.0391  0.1570
 2464SOL    HW117601   2.685   4.908   2.862  3.5624 -0.4870 -0.2445
 2464SOL    HW217602   2.756   4.906   2.715 -1.0028  2.1023 -2.6026
 2465SOL     OW17603   7.959   3.265   0.888  0.4616 -0.0127  0.1612
 2465SOL    HW117604   7.863   3.240   0.899  0.3348 -0.2130 -1.3875
 2465SOL    HW217605   7.992   3.235   0.799  2.1684 -0.5621  0.9591
 2466SOL     OW17606   2.684   5.970   0.009  0.1494 -0.1426 -0.1729
 2466SOL    HW117607   2.738   6.042  -0.033  1.3615 -1.1488 -0.3687
 2466SOL    HW217608   2.598   5.960  -0.041  0.4984  0.3524 -0.8890
 2467SOL     OW17609   0.543   0.841   0.161  0.1989  0.0790 -0.6042
 2467SOL    HW117610   0.460   0.824   0.108 -0.2780  0.0774  0.1442
 2467SOL    HW217611   0.552   0.939   0.179  1.1567  0.2617 -1.9762
 2468SOL     OW17612   1.052   5.733   2.781 -0.0986 -0.6649 -0.1337
 2468SOL    HW117613   1.098   5.813   2.742 -0.8847  0.1700  0.6213
 2468SOL    HW217614   1.054   5.658   2.715  1.2975 -0.2657 -0.5666
 2469SOL     OW17615   0.910   4.219   0.088 -0.4341  0.8006  0.0265
 2469SOL    HW117616   0.912   4.296   0.025  0.3100  0.7038 -0.0719
 2469SOL    HW217617   0.959   4.244   0.172 -2.1613  1.2360  0.9250
 2470SOL     OW17618   3.091   9.617   2.405 -0.9554 -0.2384  0.4392
 2470SOL    HW117619   3.130   9.709   2.399  0.7381 -1.0822 -2.0951
 2470SOL    HW217620   3.094   9.586   2.500  2.8439  0.5154  0.6432
 2471SOL     OW17621   0.699   1.187   1.138  0.2896  0.0391 -0.0235
 2471SOL    HW117622   0.720   1.279   1.170  1.2825 -0.9400  2.2574
 2471SOL    HW217623   0.782   1.144   1.104  0.5214 -1.1066  1.8805
 2472SOL     OW17624   1.855   1.631   2.088 -0.3449  0.3623  0.1188
 2472SOL    HW117625   1.817   1.720   2.116 -0.9951  0.5173 -1.1867
 2472SOL    HW217626   1.952   1.641   2.066 -0.9866  1.3502 -2.4930
 2473SOL     OW17627   8.234   1.983   0.750 -0.1108  0.4867 -0.6486
 2473SOL    HW117628   8.309   2.018   0.693 -1.6133 -0.9018 -3.5598
 2473SOL    HW217629   8.182   2.060   0.787  0.5034  1.4057 -1.6591
 2474SOL     OW17630   2.152   4.329   1.910 -0.2563  0.1311  0.4522
 2474SOL    HW117631   2.247   4.333   1.941  0.2406  0.0041 -1.0064
 2474SOL    HW217632   2.114   4.239   1.929  0.2968 -0.2066 -0.0292
 2475SOL     OW17633   0.759   6.309   0.006 -0.8835  0.1320 -0.1519
 2475SOL    HW117634   0.720   6.380   0.065 -0.7134  0.4604 -0.4338
 2475SOL    HW217635   0.693   6.235  -0.004 -0.1190 -0.9331  2.1762
 2476SOL     OW17636   0.964   2.695   2.977 -0.6737  0.1384  0.4310
 2476SOL    HW117637   1.054   2.729   3.006 -1.2941  1.4788  0.8182
 2476SOL    HW217638   0.896   2.715   3.048 -1.6747  0.9755 -0.7512
 2477SOL     OW17639   5.798   9.335   2.526  0.0204 -0.1168  0.0069
 2477SOL    HW117640   5.733   9.384   2.468  0.6950  0.8317  0.0529
 2477SOL    HW217641   5.756   9.249   2.557 -1.0031  0.2233 -0.4111
 2478SOL     OW17642   0.602   5.364   3.383  0.2352 -0.6536  0.2851
 2478SOL    HW117643   0.508   5.364   3.348  0.5060  0.8049 -0.4712
 2478SOL    HW217644   0.663   5.323   3.315  0.3658 -0.2571  0.1634
 2479SOL     OW17645   0.050   9.721   0.413 -0.7524  0.4081  0.3634
 2479SOL    HW117646   0.130   9.763   0.371  0.0545  1.1159  2.5352
 2479SOL    HW217647   0.021   9.643   0.359  0.6655  0.8828 -1.1139
 2480SOL     OW17648   2.515   8.488   0.487  0.0966 -0.2242 -0.0578
 2480SOL    HW117649   2.464   8.569   0.458  0.7921  0.1165 -0.3325
 2480SOL    HW217650   2.503   8.415   0.420 -0.8084 -0.4644  0.3628
 2481SOL     OW17651   9.116   1.067   1.268  0.4047  0.3614  0.5670
 2481SOL    HW117652   9.196   1.126   1.279  1.0403 -0.0157 -1.7225
 2481SOL    HW217653   9.066   1.094   1.185  0.4164 -1.9456 -0.2331
 2482SOL     OW17654   0.887   6.283   2.450 -0.5441 -0.3205 -0.0762
 2482SOL    HW117655   0.937   6.355   2.401 -0.2013 -1.0703 -0.8399
 2482SOL    HW217656   0.949   6.236   2.513 -0.4853 -0.6942 -0.4100
 2483SOL     OW17657   0.934   4.593   0.643 -0.5909  0.2358 -0.0977
 2483SOL    HW117658   0.898   4.503   0.667  0.0926 -0.2846 -0.9926
 2483SOL    HW217659   0.918   4.610   0.546 -1.5734  1.4891  0.2749
 2484SOL     OW17660   3.920   9.894   2.494  0.2613 -0.7639 -0.3521
 2484SOL    HW117661   3.986   9.824   2.522  0.3931 -1.1321 -1.5600
 2484SOL    HW217662   3.843   9.850   2.448 -0.0493 -0.1757 -0.3972
 2485SOL     OW17663   3.666   2.296   1.394  0.2462  0.2514  1.0751
 2485SOL    HW117664   3.656   2.309   1.296  1.1291  0.1837  0.9692
 2485SOL    HW217665   3.627   2.373   1.443  0.1349  0.4606  0.6544
 2486SOL     OW17666   9.748   3.310   2.542 -0.4519 -0.4181  0.2061
 2486SOL    HW117667   9.758   3.216   2.510 -0.5489 -0.9470  1.6906
 2486SOL    HW217668   9.707   3.310   2.634  2.4135  0.8904  1.5471
 2487SOL     OW17669   9.649   3.343   1.921  0.1936  0.3853  0.3422
 2487SOL    HW117670   9.688   3.316   2.009  1.7002 -2.2523 -1.0806
 2487SOL    HW217671   9.694   3.425   1.887  1.8399 -0.4101  0.5612
 2488SOL     OW17672   8.599   2.041   3.310  0.8402 -0.0784  0.0733
 2488SOL    HW117673   8.573   2.087   3.225 -1.6218  0.1932  0.9207
 2488SOL    HW217674   8.649   1.957   3.288  0.4920  0.1349 -1.6397
 2489SOL     OW17675   9.614   2.122   1.124  0.4110  0.9946  0.0522
 2489SOL    HW117676   9.550   2.056   1.160  0.5969 -0.0493 -1.4855
 2489SOL    HW217677   9.703   2.112   1.169  0.6545 -0.3219 -0.7104
 2490SOL     OW17678   3.510   9.625   0.210  0.1082 -0.4443  0.3360
 2490SOL    HW117679   3.458   9.695   0.259 -1.5788 -1.5542  0.2002
 2490SOL    HW217680   3.545   9.662   0.124 -0.2056  0.4116  0.5818
 2491SOL     OW17681   2.214   5.470   2.455  0.1021 -0.2453  0.2565
 2491SOL    HW117682   2.224   5.435   2.362  0.8958 -0.1419  0.3004
 2491SOL    HW217683   2.303   5.500   2.489 -0.2851  0.2522  0.8398
 2492SOL     OW17684   2.276   9.496   0.028 -0.7069  0.4217 -0.1353
 2492SOL    HW117685   2.351   9.442  -0.012 -0.4394  0.5939  0.1322
 2492SOL    HW217686   2.257   9.575  -0.031  0.3528  1.2189  0.5776
 2493SOL     OW17687   3.595   1.619   0.522  0.2729  0.6051 -0.0862
 2493SOL    HW117688   3.669   1.646   0.460 -0.1364  0.5526 -0.5904
 2493SOL    HW217689   3.525   1.570   0.472  1.1915 -1.7654  0.8974
 2494SOL     OW17690   3.561   7.603   1.299 -0.1713 -0.3815 -0.0925
 2494SOL    HW117691   3.473   7.557   1.310 -0.6454  0.7615  1.0561
 2494SOL    HW217692   3.621   7.579   1.375 -0.1809  0.3656  0.1510
 2495SOL     OW17693   2.501   7.809   2.300 -0.4733 -0.3679 -0.8020
 2495SOL    HW117694   2.443   7.821   2.381 -0.4171  3.2814 -1.2074
 2495SOL    HW217695   2.497   7.714   2.270 -1.1563 -1.6393  2.9756
 2496SOL     OW17696   0.514   8.300   0.417 -0.1052 -0.6303  0.2490
 2496SOL    HW117697   0.610   8.272   0.409  0.3006  0.5537  0.9342
 2496SOL    HW217698   0.509   8.398   0.438 -1.4822 -0.5007 -0.6097
 2497SOL     OW17699   0.992   1.749   1.159  0.6250  0.2925 -0.3239
 2497SOL    HW117700   0.935   1.763   1.078  0.3458  0.3889 -0.1120
 2497SOL    HW217701   1.070   1.811   1.157  2.0031 -1.4265 -1.7860
 2498SOL     OW17702   2.936   9.018   0.758  0.4083  0.4174 -0.1427
 2498SOL    HW117703   2.990   9.047   0.680 -1.6325  1.0083 -1.3650
 2498SOL    HW217704   2.987   8.948   0.809  0.9664 -1.4410 -3.1006
 2499SOL     OW17705   2.720   8.808   1.864 -0.1814  0.8146 -0.5456
 2499SOL    HW117706   2.817   8.795   1.886 -0.0379  0.1363 -1.5779
 2499SOL    HW217707   2.666   8.734   1.905 -0.2108  0.9465 -0.3456
 2500SOL     OW17708   0.404   4.988   0.730 -0.9191 -0.4768  0.4069
 2500SOL    HW117709   0.326   4.926   0.744 -1.0410 -0.0493  1.7536
 2500SOL    HW217710   0.371   5.082   0.733 -0.3953 -0.3028  0.6411
 2501SOL     OW17711   9.363   9.922   2.889 -0.0757 -0.0644  0.4084
 2501SOL    HW117712   9.408   9.877   2.811 -0.6813 -0.1994  0.1344
 2501SOL    HW217713   9.326  10.010   2.859 -1.1796 -0.5638  0.2973
 2502SOL     OW17714   0.823   3.982   0.796 -0.1902 -0.4454  0.1863
 2502SOL    HW117715   0.758   4.032   0.740 -0.3713 -1.2336 -0.3130
 2502SOL    HW217716   0.880   4.046   0.847  0.4534  0.2719 -1.4417
 2503SOL     OW17717   3.278   1.144   2.559 -0.3081  0.0689  0.1612
 2503SOL    HW117718   3.191   1.159   2.512  0.3938 -0.2908 -1.3017
 2503SOL    HW217719   3.318   1.232   2.585 -1.1335  0.2319  0.9143
 2504SOL     OW17720   3.099   2.988   2.316 -0.2747  0.0653  0.2976
 2504SOL    HW117721   3.088   3.040   2.401 -0.8676  1.7001 -0.7473
 2504SOL    HW217722   3.172   3.029   2.261 -0.8664 -0.0975 -0.6211
 2505SOL     OW17723   8.710   2.743   0.486  0.4821  0.1875 -0.2391
 2505SOL    HW117724   8.663   2.733   0.398 -1.3589 -0.6617  0.8082
 2505SOL    HW217725   8.744   2.655   0.517  0.0635  0.2647  0.4616
 2506SOL     OW17726   0.292   7.675   2.722 -0.1941 -0.0365  0.5783
 2506SOL    HW117727   0.236   7.678   2.805 -2.7701  0.8421 -1.1176
 2506SOL    HW217728   0.275   7.756   2.667  1.1657 -0.7920 -1.0095
 2507SOL     OW17729   0.496   0.454   3.003  0.2430 -0.4308 -0.2249
 2507SOL    HW117730   0.455   0.430   2.915 -0.0188 -2.2580  0.3739
 2507SOL    HW217731   0.583   0.407   3.013  0.0396 -0.6099  0.7044
 2508SOL     OW17732   8.391   1.270   0.558  0.3975 -0.0905 -0.1588
 2508SOL    HW117733   8.336   1.186   0.561  0.5774 -0.1807  0.9335
 2508SOL    HW217734   8.485   1.249   0.586  0.3296  0.5634  0.5667
 2509SOL     OW17735   0.901   3.070   0.449  0.0327  0.5561  0.3859
 2509SOL    HW117736   0.990   3.062   0.494  0.4075 -0.4150 -0.5154
 2509SOL    HW217737   0.840   3.000   0.485  0.3024 -0.1583 -0.5432
 2510SOL     OW17738   0.969   9.487   2.254 -0.2515  0.2338  0.1043
 2510SOL    HW117739   1.009   9.516   2.167 -0.2793  0.5219  0.1855
 2510SOL    HW217740   1.023   9.414   2.294  0.0932  0.5027  0.1298
 2511SOL     OW17741   4.080   3.400   1.081  0.9211 -0.5715  0.8813
 2511SOL    HW117742   4.108   3.337   1.008  1.0385 -0.8259  1.1456
 2511SOL    HW217743   3.982   3.388   1.099  1.0288 -0.9562  1.2045
 2512SOL     OW17744   2.014   7.540   2.844 -0.5908 -0.2951  0.0593
 2512SOL    HW117745   2.020   7.456   2.789  0.2033 -0.3236  0.1791
 2512SOL    HW217746   2.091   7.543   2.908 -1.2718 -0.0536  0.8778
 2513SOL     OW17747   4.244   8.782   1.702  0.2590  0.0026  0.5803
 2513SOL    HW117748   4.308   8.709   1.726  0.7357  1.1781  3.0411
 2513SOL    HW217749   4.296   8.865   1.680 -0.3208 -0.0141 -0.8689
 2514SOL     OW17750   9.628   3.507   3.140  0.1976 -0.9360 -0.2185
 2514SOL    HW117751   9.556   3.441   3.122 -1.9705  1.6516 -1.3062
 2514SOL    HW217752   9.662   3.494   3.234 -1.0676 -2.7069  0.0172
 2515SOL     OW17753   2.541   1.773   1.667  0.0834 -0.2805 -0.1799
 2515SOL    HW117754   2.624   1.770   1.723  0.7260  1.4007 -0.9960
 2515SOL    HW217755   2.487   1.853   1.691 -0.0629 -0.0218 -1.3444
 2516SOL     OW17756   8.107   3.855   0.876 -0.2588  0.0439  0.5469
 2516SOL    HW117757   8.086   3.780   0.938 -0.1828 -1.9944 -1.8234
 2516SOL    HW217758   8.026   3.912   0.864 -0.4816  0.0232  1.9230
 2517SOL     OW17759   0.838   7.199   0.968  0.0533 -0.0006  0.2673
 2517SOL    HW117760   0.818   7.110   0.927 -0.0054 -0.9318  2.2388
 2517SOL    HW217761   0.844   7.189   1.067  1.4139  1.9525  0.4111
 2518SOL     OW17762   0.968   6.059   0.292 -0.1071  0.1174  0.3519
 2518SOL    HW117763   1.046   6.046   0.230 -1.5170 -2.1432 -1.0307
 2518SOL    HW217764   0.940   6.155   0.290  0.6114  0.3248 -1.6566
 2519SOL     OW17765   0.383   9.695   3.340  0.4974 -0.2054 -0.1260
 2519SOL    HW117766   0.298   9.736   3.306  0.8105 -0.4373 -1.2059
 2519SOL    HW217767   0.397   9.607   3.295  0.8910 -0.5502  0.6604
 2520SOL     OW17768   1.203   8.938   0.249 -0.0896 -0.1772  0.3930
 2520SOL    HW117769   1.237   9.018   0.298 -0.6289 -0.8849  1.9450
 2520SOL    HW217770   1.147   8.967   0.172  2.0645  0.9699 -0.7979
 2521SOL     OW17771   0.057   0.993   2.531  0.2787 -0.1070 -0.0109
 2521SOL    HW117772   0.103   1.013   2.445 -2.9169 -0.0873 -1.8180
 2521SOL    HW217773   0.124   0.984   2.604  3.0611 -0.0363 -2.4773
 2522SOL     OW17774   4.362   8.895   0.746 -0.0104  0.5916  0.6131
 2522SOL    HW117775   4.390   8.804   0.777  2.2868  1.1229  0.1914
 2522SOL    HW217776   4.368   8.900   0.646 -0.5477  1.0600  0.6045
 2523SOL     OW17777   0.824   6.694   1.164  0.3943  0.2900  0.5718
 2523SOL    HW117778   0.812   6.763   1.236 -0.0958  0.4881  0.3020
 2523SOL    HW217779   0.873   6.735   1.088  2.1206 -0.3015  1.3480
 2524SOL     OW17780   3.920   7.369   3.406  0.2384 -0.1248  0.4252
 2524SOL    HW117781   3.827   7.335   3.416  0.2236 -0.1362  0.2457
 2524SOL    HW217782   3.921   7.469   3.417  0.2014 -0.1215  0.3968
 2525SOL     OW17783   3.355   2.750   0.595  0.5998  0.4626 -0.2432
 2525SOL    HW117784   3.352   2.837   0.644  0.3048  0.0181  0.5438
 2525SOL    HW217785   3.262   2.725   0.567  0.6444  0.2483 -0.1980
 2526SOL     OW17786   3.082   7.189   0.457  0.2073 -0.5236 -0.4180
 2526SOL    HW117787   3.078   7.273   0.511  0.7993 -1.1107  0.5576
 2526SOL    HW217788   2.996   7.139   0.465 -0.3001  0.1777 -1.3334
 2527SOL     OW17789   9.267   3.166   1.414  0.1325  0.3551  0.2134
 2527SOL    HW117790   9.218   3.251   1.432 -0.0958  0.2282  0.2003
 2527SOL    HW217791   9.352   3.165   1.466 -0.0031  0.4653  0.4414
 2528SOL     OW17792   0.051   5.481   2.924 -0.1278 -0.2401  0.1516
 2528SOL    HW117793  -0.045   5.458   2.912 -0.2951  0.5348 -0.0089
 2528SOL    HW217794   0.080   5.458   3.017 -0.2399 -1.2739 -0.0668
 2529SOL     OW17795   2.001   7.063   0.510  0.3259  0.5315 -0.1223
 2529SOL    HW117796   2.039   6.988   0.457 -1.6708 -1.0331  0.5909
 2529SOL    HW217797   1.901   7.058   0.509  0.2054  1.7565  1.9274
 2530SOL     OW17798   0.884   6.235   0.768  0.1128  0.0954 -0.9454
 2530SOL    HW117799   0.933   6.148   0.779 -1.0932 -0.4472  0.1950
 2530SOL    HW217800   0.827   6.231   0.686 -1.1073 -0.7603 -0.0696
 2531SOL     OW17801   4.005   8.438   1.965  0.0903  0.4901 -0.6415
 2531SOL    HW117802   4.029   8.341   1.961  0.3321  0.5865 -1.6034
 2531SOL    HW217803   4.008   8.477   1.873 -1.6011  1.0222 -0.4783
 2532SOL     OW17804   0.594   1.134   0.292 -0.3305 -0.1297  0.2505
 2532SOL    HW117805   0.652   1.121   0.211 -0.8304  0.0009 -0.1288
 2532SOL    HW217806   0.511   1.183   0.266 -0.5548 -0.2036  0.8213
 2533SOL     OW17807   4.270   8.462   1.730 -0.2391 -0.6055  0.1641
 2533SOL    HW117808   4.301   8.391   1.667 -0.3032 -2.5715  2.2950
 2533SOL    HW217809   4.171   8.455   1.742 -0.5198  1.0191 -0.9966
 2534SOL     OW17810   9.157   2.163   3.196  0.3817 -0.3986 -0.0055
 2534SOL    HW117811   9.085   2.153   3.265 -0.5224 -1.8312 -1.1077
 2534SOL    HW217812   9.235   2.210   3.235 -1.2889  1.5329  1.1326
 2535SOL     OW17813   1.289   8.617   1.010 -0.4215 -0.0819  0.4204
 2535SOL    HW117814   1.296   8.715   0.991 -2.4443  0.2903  1.4828
 2535SOL    HW217815   1.355   8.592   1.081 -0.0610  0.5386  0.3135
 2536SOL     OW17816   7.560   0.955   0.667  0.4022  0.4606  0.2454
 2536SOL    HW117817   7.621   0.964   0.746  1.4871 -0.1352 -0.5181
 2536SOL    HW217818   7.540   1.046   0.631 -2.8859  1.0257  3.2729
 2537SOL     OW17819   2.584   4.284   0.847  0.0885  1.0512  0.3164
 2537SOL    HW117820   2.541   4.290   0.937  0.1793 -0.5007  0.4724
 2537SOL    HW217821   2.536   4.345   0.784  0.3874  2.5927  1.5367
 2538SOL     OW17822   0.227   9.428   1.956 -0.4675 -0.3308  0.2923
 2538SOL    HW117823   0.231   9.484   1.873 -3.2572  0.5835  0.7181
 2538SOL    HW217824   0.134   9.432   1.994  0.1923 -2.5340  2.2231
 2539SOL     OW17825   8.460   2.052   2.770  0.1225  0.5593  0.1286
 2539SOL    HW117826   8.390   1.985   2.746  0.1839  0.8723 -0.9402
 2539SOL    HW217827   8.497   2.092   2.686  2.6836 -0.7299  0.5927
 2540SOL     OW17828   0.469   5.745   2.748  0.0960 -0.3783  0.1498
 2540SOL    HW117829   0.428   5.745   2.657  0.4258 -0.3835 -0.0011
 2540SOL    HW217830   0.406   5.787   2.813 -0.8694 -1.9330  0.2549
 2541SOL     OW17831   8.837   2.112   1.737 -0.2622  0.2858 -1.0150
 2541SOL    HW117832   8.926   2.108   1.783 -0.1050 -0.9847 -1.4121
 2541SOL    HW217833   8.768   2.145   1.801  0.3072  0.3020 -0.4049
 2542SOL     OW17834   9.503   3.004   0.398 -0.1489 -0.5581  0.0541
 2542SOL    HW117835   9.461   2.925   0.354  0.3307 -0.7207 -0.1216
 2542SOL    HW217836   9.439   3.044   0.463 -0.6752 -0.6250 -0.4215
 2543SOL     OW17837   1.927   5.370   2.885  0.5080  0.1582  0.2485
 2543SOL    HW117838   1.830   5.351   2.870  0.0451  1.4718  1.4558
 2543SOL    HW217839   1.976   5.364   2.798 -0.7765  0.1462 -0.4810
 2544SOL     OW17840   1.291   9.350   2.064  0.0819 -0.7840 -0.0294
 2544SOL    HW117841   1.371   9.378   2.118  1.3388  0.2830 -2.3944
 2544SOL    HW217842   1.230   9.428   2.054  0.7025 -0.4850 -1.5984
 2545SOL     OW17843   0.197   2.972   0.483  0.0889  0.2824  0.1340
 2545SOL    HW117844   0.118   3.028   0.457 -0.1283  0.4110  1.0725
 2545SOL    HW217845   0.166   2.883   0.517  0.3971 -0.0688 -0.4879
 2546SOL     OW17846   1.818   0.525   2.934  0.4169  0.0977  0.1797
 2546SOL    HW117847   1.830   0.578   2.850 -0.0664  1.7452  1.1145
 2546SOL    HW217848   1.778   0.584   3.004 -2.3487 -2.1543  0.5542
 2547SOL     OW17849   8.586   2.456   1.812  0.6199  0.2533  0.4415
 2547SOL    HW117850   8.592   2.527   1.883 -0.2473  0.9684 -0.1804
 2547SOL    HW217851   8.560   2.498   1.725  0.4565 -0.7862 -0.0218
 2548SOL     OW17852   4.006   1.387   0.347 -0.7186  0.5633  0.7449
 2548SOL    HW117853   4.030   1.290   0.345  0.9837  0.9775 -1.6444
 2548SOL    HW217854   4.033   1.426   0.436  0.7079 -0.6451  0.8622
 2549SOL     OW17855   2.824   4.828   1.907  0.3947  0.2533 -0.2851
 2549SOL    HW117856   2.828   4.774   1.823  1.7535  1.1123 -0.7933
 2549SOL    HW217857   2.898   4.801   1.968  1.6414  2.1099 -0.9173
 2550SOL     OW17858   2.137   4.768   0.946  0.1438  0.5743  0.3418
 2550SOL    HW117859   2.216   4.706   0.954 -0.7634 -0.5574  0.7358
 2550SOL    HW217860   2.169   4.861   0.933  1.5625  0.2017  1.0310
 2551SOL     OW17861   8.250   2.394   1.425  0.2047 -0.4892  0.2036
 2551SOL    HW117862   8.292   2.307   1.450  0.3312  0.3349  3.0239
 2551SOL    HW217863   8.177   2.416   1.490  0.8046  1.9689  0.1069
 2552SOL     OW17864   0.711   2.527   2.169 -0.4807 -0.3648  0.6012
 2552SOL    HW117865   0.696   2.432   2.142 -1.2505  0.0365 -0.4234
 2552SOL    HW217866   0.785   2.532   2.236  1.8813 -1.3781 -1.8301
 2553SOL     OW17867   2.068   7.709   1.319  0.3976 -0.5229 -0.3222
 2553SOL    HW117868   2.055   7.753   1.408  1.6781 -0.0941 -0.3504
 2553SOL    HW217869   2.014   7.625   1.316 -0.1164 -0.2352  0.6415
 2554SOL     OW17870   1.947   0.333   2.713  0.5171  0.3437  0.1159
 2554SOL    HW117871   1.918   0.306   2.804 -0.4799  1.6602  0.2102
 2554SOL    HW217872   1.940   0.433   2.704  1.9128  0.3767 -0.9462
 2555SOL     OW17873   3.237   2.096   1.270 -0.2472  0.0933  0.3451
 2555SOL    HW117874   3.312   2.031   1.283  1.1303  1.8490  1.4107
 2555SOL    HW217875   3.268   2.172   1.212 -1.5028  0.3400 -0.0256
 2556SOL     OW17876   9.957   4.642   0.502  0.1577 -0.3884  0.0884
 2556SOL    HW117877   9.960   4.560   0.558  0.0684 -0.9204 -0.6772
 2556SOL    HW217878   9.971   4.617   0.406  0.7475  0.5597 -0.0768
 2557SOL     OW17879   2.846   1.470   2.002 -0.0052 -0.7666 -0.3112
 2557SOL    HW117880   2.805   1.498   2.089 -0.4064 -1.4867 -0.2667
 2557SOL    HW217881   2.808   1.382   1.974  1.0462 -1.1515 -0.5770
 2558SOL     OW17882   0.936   9.729   3.118  0.1925  0.3880  0.1663
 2558SOL    HW117883   0.906   9.749   3.025 -0.6667 -1.3222  0.0706
 2558SOL    HW217884   0.882   9.653   3.156  0.2855  1.2786  2.1848
 2559SOL     OW17885   9.956   4.324   2.800 -0.1561 -0.3446  0.1140
 2559SOL    HW117886   9.981   4.344   2.895 -0.3801 -0.6445  0.2369
 2559SOL    HW217887   9.936   4.226   2.791 -0.7099 -0.2094 -0.1146
 2560SOL     OW17888   2.238   9.806   2.501 -0.3159 -0.1337  0.1747
 2560SOL    HW117889   2.198   9.719   2.472 -2.5106  1.4263 -1.7132
 2560SOL    HW217890   2.199   9.833   2.589 -0.5308 -0.4924  0.1896
 2561SOL     OW17891   9.902   2.269   1.432  0.3472  0.1210 -0.0292
 2561SOL    HW117892   9.853   2.352   1.406  0.4429  0.2013  0.0446
 2561SOL    HW217893   9.909   2.265   1.532  1.9069  0.9443 -0.0788
 2562SOL     OW17894   3.191   1.221   0.123  0.2499  0.5960 -0.0748
 2562SOL    HW117895   3.135   1.142   0.150 -1.6228  1.3252 -1.7167
 2562SOL    HW217896   3.233   1.260   0.205  0.7111 -1.6948  0.8485
 2563SOL     OW17897   2.280   0.822   0.245 -0.0178  0.3877 -0.2849
 2563SOL    HW117898   2.278   0.826   0.145  0.0624  0.3035 -0.2897
 2563SOL    HW217899   2.350   0.757   0.274 -0.1769  0.2652 -0.1775
 2564SOL     OW17900   3.479   5.848   2.756 -0.2647  0.2563  0.3113
 2564SOL    HW117901   3.415   5.893   2.819  0.6600 -0.8278  2.0961
 2564SOL    HW217902   3.493   5.753   2.786  2.8483  0.7274  0.4963
 2565SOL     OW17903   7.506   1.097   2.549  0.3526  0.3820  0.2490
 2565SOL    HW117904   7.558   1.016   2.576 -1.5902 -0.5324  1.3601
 2565SOL    HW217905   7.490   1.155   2.629 -1.9194 -0.2821  0.3011
 2566SOL     OW17906   8.817   0.978   2.143  0.5921  0.5550 -0.4112
 2566SOL    HW117907   8.777   0.958   2.053  0.7390  2.0651 -0.8204
 2566SOL    HW217908   8.746   0.971   2.213 -0.2178  2.3509 -1.0275
 2567SOL     OW17909   0.273   6.006   1.989  0.7463  0.3818  0.4097
 2567SOL    HW117910   0.285   5.985   1.892  1.6637  1.8210  0.1913
 2567SOL    HW217911   0.205   5.944   2.029  0.0042  0.0978 -1.2657
 2568SOL     OW17912   1.148   6.476   0.898  0.4695  0.3349 -0.3945
 2568SOL    HW117913   1.124   6.552   0.837 -0.4055 -0.6556 -1.3264
 2568SOL    HW217914   1.085   6.474   0.975 -0.4596 -0.3177 -1.1490
 2569SOL     OW17915   9.199   3.415   1.478 -0.0208  0.1490 -0.5214
 2569SOL    HW117916   9.274   3.426   1.412 -1.0951 -0.5033 -1.8883
 2569SOL    HW217917   9.153   3.503   1.491 -0.5476  0.0496 -1.5875
 2570SOL     OW17918   3.440   8.822   1.617  0.1436  0.4009  0.3695
 2570SOL    HW117919   3.534   8.856   1.610 -0.1332  1.1193  0.1172
 2570SOL    HW217920   3.413   8.818   1.713  0.5959 -0.2762  0.4764
 2571SOL     OW17921   0.458   7.103   2.038  0.2254 -0.4811 -0.1018
 2571SOL    HW117922   0.542   7.096   2.092 -0.1220 -3.5739  0.1366
 2571SOL    HW217923   0.395   7.166   2.083  2.1702  1.4572  0.0036
 2572SOL     OW17924   2.963   0.681   1.624  0.1566 -0.1450 -0.0301
 2572SOL    HW117925   3.048   0.701   1.575 -0.1007 -1.8797 -1.2374
 2572SOL    HW217926   2.889   0.737   1.587  0.3625 -0.0752 -0.3419
 2573SOL     OW17927   9.287   4.281   0.236 -0.0382  0.4128  0.3993
 2573SOL    HW117928   9.262   4.373   0.266 -2.0358  0.3754 -1.0544
 2573SOL    HW217929   9.363   4.287   0.171  0.5210  0.9311  1.0879
 2574SOL     OW17930   3.699   2.538   0.396  0.5466 -0.3394  0.4021
 2574SOL    HW117931   3.659   2.528   0.487 -1.3179  2.1288 -0.0926
 2574SOL    HW217932   3.632   2.512   0.327  0.5763  1.5475 -0.3635
 2575SOL     OW17933   2.927   4.352   1.553  0.0084  0.5393 -0.0658
 2575SOL    HW117934   2.878   4.280   1.602  1.1939  0.7432  1.4405
 2575SOL    HW217935   3.019   4.361   1.590  0.6545  1.2537 -1.8007
 2576SOL     OW17936   0.356   6.971   0.335 -0.3173  0.1717  0.0638
 2576SOL    HW117937   0.273   6.923   0.309 -0.6158 -1.1369  3.1824
 2576SOL    HW217938   0.430   6.905   0.348  0.1777  0.9023  1.0822
 2577SOL     OW17939   2.388   4.617   1.510 -0.6056  0.2105  0.2139
 2577SOL    HW117940   2.332   4.613   1.593 -0.0114 -0.9034  0.5708
 2577SOL    HW217941   2.441   4.701   1.509 -2.4349  1.3955 -0.2331
 2578SOL     OW17942   0.394   2.377   1.551  0.4734 -0.0928 -0.6880
 2578SOL    HW117943   0.485   2.391   1.590 -0.1932  2.0986  0.1674
 2578SOL    HW217944   0.398   2.395   1.453  0.7896  0.9168 -0.5007
 2579SOL     OW17945   2.695   8.351   1.418 -0.0051 -0.1940  0.6443
 2579SOL    HW117946   2.653   8.281   1.475 -1.1669  0.0255  0.0570
 2579SOL    HW217947   2.631   8.381   1.348  1.0976  0.1841 -0.2301
 2580SOL     OW17948   4.123   0.761   1.333  0.2079 -1.0322  0.0588
 2580SOL    HW117949   4.207   0.726   1.374 -0.2414 -2.8518 -0.5645
 2580SOL    HW217950   4.046   0.741   1.393  0.1839  0.6752  0.6491
 2581SOL     OW17951   8.046   2.100   1.619  0.3926 -0.0265 -0.0833
 2581SOL    HW117952   7.989   2.047   1.681  1.5078  1.0271  1.8944
 2581SOL    HW217953   7.999   2.184   1.594  0.7520  0.4879  0.9485
 2582SOL     OW17954   0.235   7.047   1.255 -1.2084  0.2091  0.0051
 2582SOL    HW117955   0.160   7.113   1.256 -1.6154 -0.1239 -3.7042
 2582SOL    HW217956   0.224   6.985   1.177  2.6011 -0.2341 -0.2365
 2583SOL     OW17957   2.402   4.109   2.045  0.5091 -0.4917  0.0471
 2583SOL    HW117958   2.329   4.058   2.089 -0.4828  0.3274 -0.6308
 2583SOL    HW217959   2.409   4.200   2.085 -0.8575  0.5043 -1.9023
 2584SOL     OW17960   2.325   6.816   3.335 -0.0173  0.7412  0.1573
 2584SOL    HW117961   2.266   6.839   3.258 -1.1124 -0.1024  0.7420
 2584SOL    HW217962   2.295   6.730   3.376  1.9997 -0.0387  0.0743
 2585SOL     OW17963   3.302   4.987   0.124  0.1447 -0.1568  0.3969
 2585SOL    HW117964   3.345   5.067   0.166 -0.4653  0.8689 -0.9097
 2585SOL    HW217965   3.213   5.013   0.088 -0.1720 -1.5070  0.1975
 2586SOL     OW17966   2.428   2.975   2.614 -0.2718 -0.4794  0.3907
 2586SOL    HW117967   2.500   3.037   2.585 -1.9178  0.9640 -0.7492
 2586SOL    HW217968   2.468   2.891   2.651  1.9748  0.9122  1.1887
 2587SOL     OW17969   0.165   0.536   0.876 -0.2224 -0.3526 -0.3937
 2587SOL    HW117970   0.255   0.496   0.863  0.1476  0.2162  0.3846
 2587SOL    HW217971   0.119   0.547   0.788 -0.2079 -2.2076 -0.6479
 2588SOL     OW17972   2.817   6.431   1.474 -0.2505 -0.0929  0.3624
 2588SOL    HW117973   2.848   6.336   1.483  1.8113  0.7444  2.6870
 2588SOL    HW217974   2.722   6.432   1.444 -0.5533 -2.9098  1.0829
 2589SOL     OW17975   4.417   9.630   3.370 -0.0057  0.8902 -0.3265
 2589SOL    HW117976   4.461   9.566   3.307 -0.0369  1.2052 -0.6625
 2589SOL    HW217977   4.318   9.625   3.358 -0.2354 -1.3989  1.9002
 2590SOL     OW17978   8.135   2.252   1.186 -0.7440 -0.8314 -0.2280
 2590SOL    HW117979   8.168   2.292   1.272 -0.2615 -0.5047 -0.5661
 2590SOL    HW217980   8.058   2.305   1.151 -0.3548 -0.4284 -0.4734
 2591SOL     OW17981   4.271   0.173   1.107 -0.2361 -0.3088 -0.2648
 2591SOL    HW117982   4.211   0.147   1.032  0.7102 -1.4480 -0.6399
 2591SOL    HW217983   4.366   0.178   1.074 -0.2704  2.9156 -0.0338
 2592SOL     OW17984   2.490   9.904   2.488 -0.3907  0.3151  0.0093
 2592SOL    HW117985   2.400   9.862   2.495  0.5861 -1.6110  1.3687
 2592SOL    HW217986   2.558   9.834   2.468  0.9939  1.5623  0.2389
 2593SOL     OW17987   0.192   5.097   0.258  0.4140  0.1085 -0.1863
 2593SOL    HW117988   0.185   5.107   0.159  0.7108 -2.7730 -0.5335
 2593SOL    HW217989   0.106   5.061   0.294 -0.2255  2.5548  0.8419
 2594SOL     OW17990   4.192   3.350   0.511 -0.4667 -0.5229  0.3653
 2594SOL    HW117991   4.114   3.316   0.459 -0.9398 -1.2187  1.5035
 2594SOL    HW217992   4.203   3.295   0.594  1.2986 -0.4941  0.1584
 2595SOL     OW17993   8.731   2.165   0.411  0.1102 -0.7714 -0.6109
 2595SOL    HW117994   8.762   2.155   0.316  0.3472  3.5223 -1.0853
 2595SOL    HW217995   8.631   2.166   0.413  0.0481  2.8193 -1.4106
 2596SOL     OW17996   2.684   7.494   1.302  0.1809 -0.6059 -0.3678
 2596SOL    HW117997   2.769   7.537   1.332 -0.7760  1.2383 -0.2003
 2596SOL    HW217998   2.659   7.529   1.211  0.0052 -1.7169 -0.7528
 2597SOL     OW17999   9.310   3.256   0.835  0.4747 -0.2762  0.4073
 2597SOL    HW118000   9.243   3.331   0.833 -0.6134 -1.2641 -1.4085
 2597SOL    HW218001   9.279   3.186   0.899  0.4309 -0.1396  0.5372
 2598SOL     OW18002   5.314   9.353   2.829 -0.8241  0.2745  0.2456
 2598SOL    HW118003   5.284   9.258   2.837 -0.8397 -0.0739 -3.0762
 2598SOL    HW218004   5.413   9.357   2.842 -1.0307  0.0791  2.0231
 2599SOL     OW18005   1.401   0.969   3.265 -0.2320  0.2537 -0.7538
 2599SOL    HW118006   1.432   1.023   3.343  1.1603  0.3543 -1.3669
 2599SOL    HW218007   1.351   0.889   3.298 -0.1540  0.5930  0.2194
 2600SOL     OW18008   0.108   3.906   0.965 -0.3140 -0.2338  0.2066
 2600SOL    HW118009   0.012   3.896   0.939 -0.6144  3.0117 -0.2058
 2600SOL    HW218010   0.137   4.001   0.949  3.2432 -1.3807 -0.6105
 2601SOL     OW18011   1.895   8.638   1.338  0.6367 -0.5149  0.4381
 2601SOL    HW118012   1.897   8.563   1.271  0.5341  0.8223 -1.0992
 2601SOL    HW218013   1.826   8.619   1.407 -0.2517 -1.2652 -0.6423
 2602SOL     OW18014   7.790   2.799   3.358  0.5560  0.2175 -0.0378
 2602SOL    HW118015   7.742   2.886   3.349  3.8386  2.1692  0.3232
 2602SOL    HW218016   7.804   2.779   3.455 -1.2667 -1.3634 -0.0872
 2603SOL     OW18017   2.536   1.290   0.001 -0.9057  0.5218 -0.8382
 2603SOL    HW118018   2.564   1.300   0.097 -0.7896 -1.8684 -0.5939
 2603SOL    HW218019   2.443   1.327  -0.011 -0.5376  1.7168 -0.0219
 2604SOL     OW18020   1.476   5.231   0.285  0.1454  0.0180  1.0742
 2604SOL    HW118021   1.536   5.292   0.336 -0.1800  0.2274  1.2123
 2604SOL    HW218022   1.389   5.278   0.266  0.2650 -0.0538  0.3205
 2605SOL     OW18023   2.900   3.263   2.494 -0.9876 -0.3022  0.0630
 2605SOL    HW118024   2.986   3.216   2.515 -0.9159  0.1000  0.6987
 2605SOL    HW218025   2.919   3.357   2.468 -1.2409 -0.1860  0.2954
 2606SOL     OW18026   1.718   4.597   0.447 -0.0594  0.2229  0.0860
 2606SOL    HW118027   1.742   4.688   0.414  0.1254  0.9124  2.0654
 2606SOL    HW218028   1.628   4.571   0.411  0.0709  1.0006 -0.8160
 2607SOL     OW18029   8.959   3.618   0.400 -0.9352 -0.7370  0.6254
 2607SOL    HW118030   8.884   3.642   0.461 -0.2068  1.1265  0.8174
 2607SOL    HW218031   9.007   3.701   0.371 -0.7228 -1.6459 -1.8038
 2608SOL     OW18032   8.718   1.887   2.780 -0.2516 -0.0451  0.1904
 2608SOL    HW118033   8.641   1.938   2.740 -0.4362 -0.0470  0.5456
 2608SOL    HW218034   8.799   1.945   2.781  0.3798 -0.8238 -2.3961
 2609SOL     OW18035   2.370   9.894   0.109  0.3559  0.3039  0.8966
 2609SOL    HW118036   2.335   9.830   0.177  0.6057  0.8812  1.5695
 2609SOL    HW218037   2.437   9.955   0.151 -0.1742  1.2686  0.3619
 2610SOL     OW18038   2.287   9.244   3.055  0.1014 -0.3815 -0.0877
 2610SOL    HW118039   2.199   9.258   3.099 -0.4644 -1.0893 -0.9781
 2610SOL    HW218040   2.338   9.330   3.052  0.4482 -0.4596  2.5592
 2611SOL     OW18041   0.609   7.932   0.316  0.2566  0.4399  0.1912
 2611SOL    HW118042   0.583   7.836   0.328 -1.1814  0.8715  0.6941
 2611SOL    HW218043   0.698   7.949   0.359  0.8573 -0.8291 -0.5405
 2612SOL     OW18044   3.091   3.852   1.464 -0.2494  0.0480  0.0199
 2612SOL    HW118045   3.038   3.822   1.544 -2.3798 -0.7087 -1.6134
 2612SOL    HW218046   3.105   3.773   1.403  2.1439  0.4142  0.0536
 2613SOL     OW18047   0.041   2.204   1.858 -0.7348  0.2901  0.4085
 2613SOL    HW118048   0.107   2.269   1.822 -2.3219  1.5967 -0.2190
 2613SOL    HW218049   0.054   2.193   1.956 -1.3719  2.6733  0.7803
 2614SOL     OW18050   8.012   2.078   0.997 -0.0535 -0.0454 -0.2156
 2614SOL    HW118051   8.013   2.150   0.927  1.0505  0.9250  0.7633
 2614SOL    HW218052   8.073   2.104   1.072  0.0407 -1.8259  0.3502
 2615SOL     OW18053   4.434   9.625   0.425  0.4488  0.7824 -0.1064
 2615SOL    HW118054   4.475   9.662   0.342 -0.6360  2.8880  0.2646
 2615SOL    HW218055   4.337   9.606   0.409  0.9225 -1.6702 -0.2004
 2616SOL     OW18056   3.609   2.595   0.880  0.1728 -0.2005  0.3067
 2616SOL    HW118057   3.576   2.686   0.855  1.0819  0.5462  1.7080
 2616SOL    HW218058   3.676   2.564   0.812  0.3038  0.4498  0.1321
 2617SOL     OW18059   3.382   7.179   1.200  0.4462 -0.3264 -0.2699
 2617SOL    HW118060   3.343   7.239   1.130  1.8553  0.2335 -0.5845
 2617SOL    HW218061   3.355   7.085   1.182  1.1224 -0.2472 -1.8088
 2618SOL     OW18062   2.941   8.484   1.805 -0.2335 -0.4402 -0.0497
 2618SOL    HW118063   2.950   8.472   1.904 -2.1315 -1.0034  0.0798
 2618SOL    HW218064   2.895   8.405   1.766 -0.2300  0.1497 -1.2754
 2619SOL     OW18065   2.866   9.836   0.484  0.7482  0.3105 -0.3799
 2619SOL    HW118066   2.892   9.743   0.458  3.3916  0.9132 -0.0491
 2619SOL    HW218067   2.821   9.880   0.407 -2.0956 -1.7646  0.0030
 2620SOL     OW18068   4.138   3.247   0.844  0.0870  0.1247 -0.3467
 2620SOL    HW118069   4.083   3.209   0.770  0.5715 -0.1479 -0.5725
 2620SOL    HW218070   4.226   3.199   0.848 -0.3734 -0.6315  1.1354
 2621SOL     OW18071   7.123   1.252   1.909  0.4401  0.1058  0.1151
 2621SOL    HW118072   7.081   1.320   1.848 -0.0460 -2.2155 -2.1945
 2621SOL    HW218073   7.204   1.215   1.866  1.0343 -0.3791  1.6376
 2622SOL     OW18074   2.560   5.852   0.268  0.0143 -0.1702 -0.2708
 2622SOL    HW118075   2.614   5.787   0.322  0.5924  0.0327 -0.6028
 2622SOL    HW218076   2.597   5.858   0.176  0.8190  1.6461  0.1392
 2623SOL     OW18077   4.729   8.239   2.386  0.0302 -0.3602  0.3350
 2623SOL    HW118078   4.700   8.145   2.403 -1.7405  0.0262 -0.4518
 2623SOL    HW218079   4.791   8.268   2.459 -1.8303 -1.1041  2.2522
 2624SOL     OW18080   2.739   3.033   2.826 -0.2850 -0.0792 -0.4539
 2624SOL    HW118081   2.730   3.015   2.728  1.6512  0.2947 -0.7361
 2624SOL    HW218082   2.695   3.119   2.849 -0.8590 -0.2353 -0.9733
 2625SOL     OW18083   1.288   3.958   3.104  0.0558 -0.0676  0.0490
 2625SOL    HW118084   1.266   3.868   3.141 -1.6330  0.9058  1.4938
 2625SOL    HW218085   1.206   3.999   3.064  0.0906  1.9824  1.9455
 2626SOL     OW18086   2.903   1.135   1.940 -0.2043  0.1582  0.5300
 2626SOL    HW118087   2.851   1.163   2.021 -0.6486  0.3502  0.1870
 2626SOL    HW218088   2.947   1.215   1.899 -2.0741  0.5058 -0.8681
 2627SOL     OW18089   0.122   2.679   1.819  0.3185 -0.2043  0.2670
 2627SOL    HW118090   0.171   2.763   1.797  0.1259  0.0010  0.6187
 2627SOL    HW218091   0.024   2.694   1.811  0.1739  0.2919  2.6419
 2628SOL     OW18092   9.852   2.663   0.218 -0.2314 -0.1412  0.4522
 2628SOL    HW118093   9.840   2.608   0.135 -2.0398  2.4632 -1.0969
 2628SOL    HW218094   9.948   2.690   0.226 -0.0609 -0.2773 -0.9135
 2629SOL     OW18095   0.140   1.432   0.662  0.0357  0.0602 -0.0081
 2629SOL    HW118096   0.131   1.352   0.721 -0.8728  1.3538  1.6681
 2629SOL    HW218097   0.192   1.408   0.580  3.2918 -1.2967  2.3338
 2630SOL     OW18098   1.816   5.358   1.020 -0.2742 -0.4120  0.2188
 2630SOL    HW118099   1.900   5.343   0.968  1.3647  0.0202  2.6520
 2630SOL    HW218100   1.770   5.270   1.035  0.7363 -0.9136  0.4521
 2631SOL     OW18101   1.017   6.935   1.463 -0.2547 -0.6832  0.1964
 2631SOL    HW118102   1.025   6.855   1.522  1.5631  0.1386  1.0903
 2631SOL    HW218103   0.936   6.988   1.489  0.9536  0.0750  2.4599
 2632SOL     OW18104   4.513   1.027   2.711  0.4909 -0.0780 -0.0348
 2632SOL    HW118105   4.493   1.100   2.776 -1.2375 -1.5484  1.1285
 2632SOL    HW218106   4.535   0.943   2.761 -2.6052 -1.7084 -1.2737
 2633SOL     OW18107   3.913   0.913   0.843 -0.8004 -0.8729 -0.1603
 2633SOL    HW118108   3.857   0.836   0.871 -0.6583 -1.3808 -1.2258
 2633SOL    HW218109   4.005   0.881   0.820 -0.9193 -0.4930 -1.1977
 2634SOL     OW18110   9.118   3.387   0.419  0.0021  0.3160 -0.3201
 2634SOL    HW118111   9.110   3.361   0.515 -1.3561 -1.3533 -0.8681
 2634SOL    HW218112   9.067   3.472   0.403 -0.9961 -0.1994  0.1271
 2635SOL     OW18113   1.698   5.559   2.585  0.3144  0.2994 -0.3937
 2635SOL    HW118114   1.669   5.653   2.604 -1.7953  0.2833 -3.2353
 2635SOL    HW218115   1.785   5.561   2.535 -0.0418  0.7737 -1.0021
 2636SOL     OW18116   1.482   0.634   0.971  0.0778 -0.6224 -0.1366
 2636SOL    HW118117   1.513   0.546   1.004  0.0526 -0.7356 -0.4119
 2636SOL    HW218118   1.472   0.697   1.048  2.6973 -0.0395 -0.2309
 2637SOL     OW18119   4.406   0.322   1.803  0.4079 -0.5355  0.1014
 2637SOL    HW118120   4.369   0.369   1.722  1.8748  0.1318 -0.1942
 2637SOL    HW218121   4.487   0.371   1.835 -0.5202 -0.4470  2.3626
 2638SOL     OW18122   1.100   4.085   2.967 -0.0963 -0.2322 -0.8436
 2638SOL    HW118123   1.009   4.125   2.952  0.4602  0.7391 -1.6933
 2638SOL    HW218124   1.137   4.052   2.879  0.6904  0.0625 -0.6254
 2639SOL     OW18125   1.744   6.859   2.634  0.4236  0.0082  0.1397
 2639SOL    HW118126   1.829   6.871   2.685 -0.0562 -1.1954  1.2552
 2639SOL    HW218127   1.667   6.895   2.686  0.2304  1.0351 -0.8385
 2640SOL     OW18128   7.724   1.363   1.157  0.0276  0.1593 -0.3804
 2640SOL    HW118129   7.691   1.273   1.187 -0.0492  0.4294  0.3479
 2640SOL    HW218130   7.646   1.418   1.126  0.1706 -0.3203 -1.6320
 2641SOL     OW18131   3.854   7.571   0.905 -0.5319 -0.0127  0.3459
 2641SOL    HW118132   3.833   7.601   0.812 -1.0677  2.2998  1.1767
 2641SOL    HW218133   3.769   7.553   0.954 -0.3024  0.3594  0.8862
 2642SOL     OW18134   1.134   9.043   0.005 -0.2982 -0.3122 -0.1873
 2642SOL    HW118135   1.061   9.058  -0.061  1.0008  0.9314 -1.3689
 2642SOL    HW218136   1.212   8.998  -0.040  1.0502  1.5796  0.1971
 2643SOL     OW18137   0.163   9.898   2.629 -0.3775 -0.3107  0.5132
 2643SOL    HW118138   0.254   9.861   2.610  0.8319  2.4293  0.6447
 2643SOL    HW218139   0.113   9.910   2.543 -0.1926 -0.8254  0.3349
 2644SOL     OW18140   1.045   5.992   1.267 -0.3387  0.2893 -0.0168
 2644SOL    HW118141   1.088   5.919   1.321 -0.2722  0.0572 -0.3798
 2644SOL    HW218142   0.975   6.037   1.322 -0.7954 -0.4478  0.0250
 2645SOL     OW18143   0.731   8.843   0.107 -0.2304  0.2201 -0.6013
 2645SOL    HW118144   0.633   8.825   0.101  0.1090 -1.6594 -0.6785
 2645SOL    HW218145   0.765   8.870   0.017 -0.3093 -1.0961 -1.0362
 2646SOL     OW18146   2.500   1.079   2.081  0.8105  0.8642 -0.0720
 2646SOL    HW118147   2.498   1.050   2.177 -0.4826  3.1174  0.6242
 2646SOL    HW218148   2.506   0.999   2.022 -2.2426 -0.7930  1.7401
 2647SOL     OW18149   2.186   0.905   2.828 -0.1921  0.2557 -0.5872
 2647SOL    HW118150   2.182   0.873   2.733 -0.4102 -0.6037 -0.2961
 2647SOL    HW218151   2.279   0.896   2.862 -0.7214 -2.3936  0.2647
 2648SOL     OW18152   4.785   1.294   2.098  0.5217  0.1201  0.1179
 2648SOL    HW118153   4.751   1.201   2.086  2.3619 -0.5133 -0.3390
 2648SOL    HW218154   4.863   1.293   2.161  0.9331  1.2520 -0.3595
 2649SOL     OW18155   3.474   3.627   1.308  0.3702  0.3335 -0.6699
 2649SOL    HW118156   3.565   3.640   1.268  1.3371 -3.2494  0.2260
 2649SOL    HW218157   3.482   3.595   1.402 -1.8504  0.6624 -0.3328
 2650SOL     OW18158   3.473   1.039   0.456 -0.2322  0.5043  0.2105
 2650SOL    HW118159   3.458   0.996   0.544  0.7930 -0.6292 -0.1459
 2650SOL    HW218160   3.565   1.079   0.454 -0.9495  2.2051  0.3234
 2651SOL     OW18161   0.816   0.340   0.215  0.4840 -0.4843 -0.1518
 2651SOL    HW118162   0.890   0.332   0.148  0.3847  1.7440 -0.5702
 2651SOL    HW218163   0.741   0.279   0.190  1.0817 -0.7971 -1.1965
 2652SOL     OW18164   8.704   4.779   2.825 -0.5708 -0.0292  0.2382
 2652SOL    HW118165   8.673   4.861   2.873 -1.2276  0.9808 -1.8327
 2652SOL    HW218166   8.743   4.805   2.736 -0.3438 -1.9107 -0.2355
 2653SOL     OW18167   7.626   2.897   0.518 -0.2570  0.2253  0.1620
 2653SOL    HW118168   7.695   2.898   0.446 -0.4657  0.9075 -0.0409
 2653SOL    HW218169   7.667   2.867   0.604  0.5349  1.5876  0.2784
 2654SOL     OW18170   8.704   0.543   0.384  0.4670 -0.0634  0.1203
 2654SOL    HW118171   8.610   0.520   0.407 -0.0543  0.2464 -1.6247
 2654SOL    HW218172   8.761   0.461   0.391 -0.4000 -0.7938 -1.1048
 2655SOL     OW18173   1.005   8.651   2.617  0.1804  0.6071  0.0524
 2655SOL    HW118174   1.012   8.642   2.717 -1.5059  0.3125  0.1545
 2655SOL    HW218175   1.031   8.744   2.590  0.2231  0.8223  0.8079
 2656SOL     OW18176   1.041   0.288   0.957  0.8753  0.1938 -0.1212
 2656SOL    HW118177   1.064   0.347   0.880  1.6259 -0.4018 -0.3570
 2656SOL    HW218178   1.125   0.261   1.005  0.4347  0.3866  0.7826
 2657SOL     OW18179   2.149   2.113   0.894  0.3843  0.3759  0.3803
 2657SOL    HW118180   2.208   2.033   0.881 -0.6118 -0.1522 -1.0135
 2657SOL    HW218181   2.075   2.089   0.958  1.0120  0.6965  1.2419
 2658SOL     OW18182   8.854   4.202   2.459 -0.3418 -0.1199 -0.2011
 2658SOL    HW118183   8.849   4.130   2.529 -1.1988  0.9153  0.8196
 2658SOL    HW218184   8.935   4.188   2.403 -0.4845 -1.8662  0.0133
 2659SOL     OW18185   9.668   2.405   2.661  0.1681  0.3482  0.4936
 2659SOL    HW118186   9.761   2.410   2.697  0.7741  0.2160 -1.0266
 2659SOL    HW218187   9.640   2.496   2.630  0.7428 -0.1149 -1.3965
 2660SOL     OW18188   6.391   9.022   2.166  0.4901 -0.1872 -0.1862
 2660SOL    HW118189   6.457   9.077   2.116 -0.4010 -0.0522 -1.2183
 2660SOL    HW218190   6.356   9.075   2.244 -2.3171  1.7441 -2.6626
 2661SOL     OW18191   0.752   5.102   2.527 -0.2651  0.2050  0.1725
 2661SOL    HW118192   0.739   5.199   2.549  0.4837  0.8557 -2.1443
 2661SOL    HW218193   0.666   5.064   2.493  0.0081  0.6518 -1.0411
 2662SOL     OW18194   8.075   2.025   3.236  0.0621  0.2524 -0.5224
 2662SOL    HW118195   8.102   2.061   3.147 -3.0967  0.6119 -1.3890
 2662SOL    HW218196   8.087   1.926   3.237 -1.4908  0.0291 -1.9812
 2663SOL     OW18197   3.234   0.898   0.344 -0.5409  0.6875 -0.3893
 2663SOL    HW118198   3.297   0.967   0.379  0.4404 -0.5784  0.3961
 2663SOL    HW218199   3.197   0.845   0.420 -1.9616  0.9054 -0.9178
 2664SOL     OW18200   3.814   7.844   1.846  0.5752 -0.8453 -0.5199
 2664SOL    HW118201   3.871   7.778   1.895  0.3633 -0.0569  0.8141
 2664SOL    HW218202   3.743   7.796   1.796 -0.8572 -1.5786  2.0870
 2665SOL     OW18203   1.671   1.886   1.451  0.5909  0.1202 -0.4059
 2665SOL    HW118204   1.711   1.972   1.417  1.0332  0.1229  0.1236
 2665SOL    HW218205   1.592   1.907   1.509 -1.3268  0.0613 -2.9165
 2666SOL     OW18206   1.859   2.149   2.087 -0.0059  0.0377  0.3875
 2666SOL    HW118207   1.802   2.181   2.163  0.9609  0.4710  0.9418
 2666SOL    HW218208   1.851   2.212   2.010  0.3020  0.5030  0.7342
 2667SOL     OW18209   3.415   9.981   1.355  0.7551 -0.2082  0.2324
 2667SOL    HW118210   3.487   9.916   1.331  0.9658 -0.0911  0.5498
 2667SOL    HW218211   3.347   9.983   1.282 -0.3155 -2.3096  1.1332
 2668SOL     OW18212   1.916   9.153   0.723 -0.0159 -0.2581  0.4004
 2668SOL    HW118213   1.893   9.094   0.645  1.4344 -0.9664  0.4889
 2668SOL    HW218214   1.890   9.247   0.702 -2.9516 -0.9780  0.4964
 2669SOL     OW18215   1.141   2.489   2.691  0.6329 -0.1009 -0.0687
 2669SOL    HW118216   1.077   2.456   2.760  1.7003  1.1861  1.5744
 2669SOL    HW218217   1.090   2.536   2.619 -0.4196 -0.5777  0.3548
 2670SOL     OW18218   9.214   0.804   2.995  0.1526 -0.6632  0.1353
 2670SOL    HW118219   9.298   0.841   2.955 -0.1863 -0.3341 -0.2755
 2670SOL    HW218220   9.189   0.719   2.948 -0.6580  0.1186 -0.8687
 2671SOL     OW18221   0.571   0.660   0.353  0.2897  0.1879 -0.2023
 2671SOL    HW118222   0.504   0.690   0.421  0.9392 -0.1364  0.5820
 2671SOL    HW218223   0.569   0.723   0.275  0.6384  1.4620  0.7934
 2672SOL     OW18224   9.078   0.623   3.303 -0.2871 -0.2762 -0.3095
 2672SOL    HW118225   9.117   0.551   3.360 -1.2084 -1.2131 -0.8450
 2672SOL    HW218226   9.034   0.582   3.223 -0.0223  0.9473 -1.0898
 2673SOL     OW18227   0.212   0.879   2.284 -0.0494  0.4784  0.1592
 2673SOL    HW118228   0.175   0.968   2.256 -1.0281 -0.3870 -1.3478
 2673SOL    HW218229   0.282   0.893   2.354  0.7517  2.5346 -1.0001
 2674SOL     OW18230   3.790   5.056   0.187 -0.2436  1.2547 -0.1881
 2674SOL    HW118231   3.797   5.147   0.147 -1.5953  1.5581  0.2532
 2674SOL    HW218232   3.744   5.062   0.275  1.4411  0.4002  0.7854
 2675SOL     OW18233   3.774   1.040   1.127 -0.1436 -0.4970  0.5027
 2675SOL    HW118234   3.781   1.015   1.030  0.0429 -0.7758  0.5866
 2675SOL    HW218235   3.864   1.029   1.170 -0.2298 -0.3818  0.7090
 2676SOL     OW18236   0.762   4.402   2.060  0.6981 -0.0977  0.3958
 2676SOL    HW118237   0.777   4.491   2.016 -1.5788  0.2932  0.3222
 2676SOL    HW218238   0.740   4.416   2.157 -1.3679 -0.4343 -0.0049
 2677SOL     OW18239   3.719   9.295   2.519  0.0141 -0.6519  0.1138
 2677SOL    HW118240   3.705   9.232   2.442 -0.1789 -0.6797  0.1708
 2677SOL    HW218241   3.698   9.247   2.605  1.0631 -0.8816  0.2479
 2678SOL     OW18242   2.931   4.639   1.679 -0.0857 -0.0892  0.2820
 2678SOL    HW118243   3.004   4.688   1.727 -1.4317  0.7951  1.4596
 2678SOL    HW218244   2.914   4.682   1.591  1.2906 -0.7351 -0.3172
 2679SOL     OW18245   8.738   1.337   2.209 -0.1525  0.1642 -0.4349
 2679SOL    HW118246   8.777   1.387   2.286 -0.2876 -1.7656  0.9336
 2679SOL    HW218247   8.796   1.348   2.128  1.2366  0.2951  0.5773
 2680SOL     OW18248   4.067   9.276   2.610  0.0797  0.6589  0.1899
 2680SOL    HW118249   4.149   9.324   2.642 -0.2848  0.4488  1.4720
 2680SOL    HW218250   4.094   9.192   2.564  0.5409 -0.4231  2.3531
 2681SOL     OW18251   0.576   7.321   0.100 -0.3360 -0.7067 -0.1497
 2681SOL    HW118252   0.516   7.347   0.024 -0.6869  0.6377  0.5564
 2681SOL    HW218253   0.522   7.316   0.184  0.3499 -0.4997  0.3098
 2682SOL     OW18254   8.643   1.441   0.481  0.2582 -0.4096 -0.0002
 2682SOL    HW118255   8.733   1.450   0.439 -0.0041  0.3724 -0.4089
 2682SOL    HW218256   8.573   1.476   0.419 -0.2827 -0.5714  0.5052
 2683SOL     OW18257   1.840   7.581   3.123 -0.1360  0.4592  0.1944
 2683SOL    HW118258   1.756   7.624   3.088 -0.4833 -0.7451 -0.4941
 2683SOL    HW218259   1.850   7.491   3.081 -0.1123 -0.6823  2.5890
 2684SOL     OW18260   2.700   1.487   2.524  0.0629  0.5009  0.6179
 2684SOL    HW118261   2.719   1.568   2.579 -2.0277  1.9785 -0.7938
 2684SOL    HW218262   2.615   1.444   2.555  1.0123 -1.0215  1.1805
 2685SOL     OW18263   0.049   1.296   2.805  0.5780 -0.3798 -0.3274
 2685SOL    HW118264   0.116   1.292   2.880  1.4251 -0.7633 -1.0925
 2685SOL    HW218265   0.065   1.378   2.751 -0.4321  0.2176  0.2691
 2686SOL     OW18266   1.391   0.685   0.725 -0.5018 -0.1034  0.2892
 2686SOL    HW118267   1.293   0.685   0.709 -0.8615  0.5072  2.4069
 2686SOL    HW218268   1.410   0.667   0.821  1.4651 -0.1240 -0.0630
 2687SOL     OW18269   2.722   1.855   2.566 -0.3346  0.5067  0.8930
 2687SOL    HW118270   2.680   1.923   2.625  2.6243  3.4329 -0.1753
 2687SOL    HW218271   2.795   1.808   2.616  2.0886  2.8996 -0.2412
 2688SOL     OW18272   0.507   3.700   1.220  0.1607  0.0882 -0.4351
 2688SOL    HW118273   0.464   3.636   1.284 -0.3648  0.4283 -0.4448
 2688SOL    HW218274   0.443   3.720   1.146  0.5734  0.1057 -0.7882
 2689SOL     OW18275   8.907   1.815   1.812  0.4114 -0.0416 -0.2989
 2689SOL    HW118276   8.941   1.829   1.905  0.7704 -3.4699  0.1399
 2689SOL    HW218277   8.849   1.892   1.786  0.5739  1.1290  2.6182
 2690SOL     OW18278   5.592   9.360   2.913 -0.5402 -0.3455  0.5524
 2690SOL    HW118279   5.688   9.387   2.901 -0.7988 -0.8333 -2.9728
 2690SOL    HW218280   5.536   9.442   2.928  0.1621  0.1193  0.6667
 2691SOL     OW18281   1.181   1.944   1.105  1.0222  0.3600 -0.0645
 2691SOL    HW118282   1.142   2.023   1.151  2.4981  1.5116 -0.7751
 2691SOL    HW218283   1.267   1.918   1.149  1.8818  0.7846 -1.4617
 2692SOL     OW18284   8.294   2.728   1.298 -0.4766  0.7212  1.0823
 2692SOL    HW118285   8.285   2.629   1.298  0.7122  0.5740 -1.0146
 2692SOL    HW218286   8.378   2.754   1.347  0.3367  0.5268 -0.1711
 2693SOL     OW18287   0.668   9.827   3.321 -0.4404 -0.6381 -0.5030
 2693SOL    HW118288   0.579   9.815   3.366  0.1036 -0.6136  0.5952
 2693SOL    HW218289   0.708   9.914   3.349  0.2403 -0.9670 -0.4481
 2694SOL     OW18290   3.744   7.331   1.958  0.2352  0.3461  0.3776
 2694SOL    HW118291   3.772   7.304   1.866 -1.4236  0.4272 -0.1754
 2694SOL    HW218292   3.816   7.385   2.001  1.4873 -0.6580 -0.4333
 2695SOL     OW18293   7.750   5.434   0.104  0.8762 -0.1580  0.5456
 2695SOL    HW118294   7.685   5.436   0.028  1.1610 -1.4368  0.2658
 2695SOL    HW218295   7.734   5.354   0.161  1.5803  0.0382  1.0324
 2696SOL     OW18296   2.321   9.582   1.090  0.0582 -0.2180 -0.5897
 2696SOL    HW118297   2.324   9.482   1.084  1.0345 -0.0638 -3.5391
 2696SOL    HW218298   2.362   9.621   1.007 -1.3643  2.6223 -0.0003
 2697SOL     OW18299   2.297   2.715   2.444 -0.8001  0.2332 -0.5184
 2697SOL    HW118300   2.230   2.771   2.493  0.4567  1.1627  0.1528
 2697SOL    HW218301   2.336   2.647   2.507  0.7154  1.3398 -0.2490
 2698SOL     OW18302   0.134   5.824   0.823  0.5509 -0.1113 -0.4593
 2698SOL    HW118303   0.102   5.916   0.848 -0.3981  0.3580 -3.1331
 2698SOL    HW218304   0.186   5.785   0.898  0.3043  2.3108  1.0395
 2699SOL     OW18305   0.198   1.255   0.390  0.0584  0.2983  0.2013
 2699SOL    HW118306   0.112   1.295   0.361 -1.2536 -1.0855  2.0803
 2699SOL    HW218307   0.227   1.186   0.324 -0.3945  0.5864 -0.3024
 2700SOL     OW18308   8.457   1.383   1.303  0.0319 -0.1740 -0.1230
 2700SOL    HW118309   8.528   1.454   1.302 -0.8689  0.7831  1.1495
 2700SOL    HW218310   8.475   1.319   1.378 -0.0082 -0.3963 -0.3029
 2701SOL     OW18311   2.375   7.740   0.049 -0.3796  0.3537 -0.0008
 2701SOL    HW118312   2.317   7.816   0.078  0.2894  0.3817  1.3464
 2701SOL    HW218313   2.334   7.653   0.077 -1.1429  0.2149 -1.5398
 2702SOL     OW18314   0.947   7.924   3.203 -0.4041 -0.1001 -0.8183
 2702SOL    HW118315   0.886   7.980   3.148  1.3701  1.8048 -0.9091
 2702SOL    HW218316   1.042   7.936   3.172  0.5373  0.2938  1.9936
 2703SOL     OW18317   9.232   0.937   2.332 -0.1617  0.2911  0.4929
 2703SOL    HW118318   9.181   1.001   2.274 -0.2517  1.1856  1.5341
 2703SOL    HW218319   9.183   0.924   2.418  1.7718  1.8388  1.8651
 2704SOL     OW18320   9.141   1.283   1.568 -0.9052  0.4115 -0.0014
 2704SOL    HW118321   9.158   1.303   1.664 -1.1517  1.4661 -0.1715
 2704SOL    HW218322   9.227   1.290   1.517 -0.3104 -2.5541  0.5354
 2705SOL     OW18323   3.550   4.453   3.215 -0.0841  0.3736  0.1899
 2705SOL    HW118324   3.512   4.545   3.223  0.5443  0.5036  2.1075
 2705SOL    HW218325   3.500   4.391   3.275  1.3921  0.1270  1.2135
 2706SOL     OW18326   2.787   3.348   1.235  0.3512  0.3174 -0.2167
 2706SOL    HW118327   2.736   3.372   1.317  0.0971 -1.1759  0.0703
 2706SOL    HW218328   2.729   3.359   1.155  0.6935  2.0746 -0.2448
 2707SOL     OW18329   1.254   7.808   3.029  0.4481  0.5805  0.5986
 2707SOL    HW118330   1.220   7.735   3.088 -0.4126 -0.8466 -1.5933
 2707SOL    HW218331   1.350   7.793   3.008 -0.0823 -0.7501 -0.9900
 2708SOL     OW18332   3.211   8.269   0.787 -0.3922  0.4446  0.0922
 2708SOL    HW118333   3.251   8.244   0.875 -0.9917 -1.2002 -0.0731
 2708SOL    HW218334   3.279   8.258   0.715 -0.7548 -1.1217 -0.0263
 2709SOL     OW18335   4.164   0.512   2.011  0.0330  0.0087  0.0904
 2709SOL    HW118336   4.117   0.583   2.063  1.4633  0.2095  1.1395
 2709SOL    HW218337   4.161   0.425   2.060 -1.8801 -0.7384 -1.2810
 2710SOL     OW18338   4.545   7.734   0.390 -0.2804  0.0575 -0.3153
 2710SOL    HW118339   4.523   7.819   0.342 -1.4932 -0.2933 -0.4069
 2710SOL    HW218340   4.462   7.697   0.431  0.4559 -0.4823  0.7121
 2711SOL     OW18341   1.400   8.787   0.155  0.0696 -0.3515  0.2302
 2711SOL    HW118342   1.478   8.800   0.216 -0.8854  1.3901  1.1193
 2711SOL    HW218343   1.319   8.829   0.195 -1.4120 -2.4106 -0.5460
 2712SOL     OW18344   3.524   6.337   3.368 -0.1099 -0.3880  0.1937
 2712SOL    HW118345   3.465   6.325   3.448  1.1608 -1.4715  0.9908
 2712SOL    HW218346   3.557   6.248   3.338 -0.2402  0.0608 -1.2863
 2713SOL     OW18347   0.540   1.002   1.874 -0.4319  0.0275  0.1714
 2713SOL    HW118348   0.465   0.936   1.877  0.0191 -0.5147 -0.3415
 2713SOL    HW218349   0.614   0.967   1.816 -0.6375  1.4540 -1.0097
 2714SOL     OW18350   1.567   4.989   0.389  0.3233  0.5401 -0.3307
 2714SOL    HW118351   1.599   4.997   0.483  0.7176  0.7817 -0.4863
 2714SOL    HW218352   1.518   5.073   0.363  0.2247  0.4786 -0.3456
 2715SOL     OW18353   1.189   2.762   2.702 -0.3976  0.6435 -0.8116
 2715SOL    HW118354   1.154   2.840   2.755 -2.9746 -0.3722 -0.9316
 2715SOL    HW218355   1.161   2.677   2.747  0.4756 -0.2151 -1.8865
 2716SOL     OW18356   2.678   2.164   0.985  0.3795 -0.2090  0.0135
 2716SOL    HW118357   2.672   2.260   0.958 -1.1015 -0.1880  0.3793
 2716SOL    HW218358   2.705   2.158   1.081  0.7381 -0.1684 -0.0840
 2717SOL     OW18359   2.095   6.560   0.310 -0.1552 -0.1336 -0.3171
 2717SOL    HW118360   2.098   6.460   0.316  1.8823 -0.0276  1.0618
 2717SOL    HW218361   2.138   6.590   0.225  0.2982 -0.3932 -0.1830
 2718SOL     OW18362   2.838   5.281   2.135 -0.8420  0.7535 -0.1485
 2718SOL    HW118363   2.775   5.251   2.207  0.3019  1.5029  1.1920
 2718SOL    HW218364   2.792   5.346   2.075 -1.6728  0.4743  0.1878
 2719SOL     OW18365   0.786   2.038   1.102  0.3997 -0.2399 -0.7761
 2719SOL    HW118366   0.842   1.976   1.046  0.1885 -1.2757  0.1432
 2719SOL    HW218367   0.701   1.991   1.128  0.5630  0.1808  0.5204
 2720SOL     OW18368   8.925   3.676   0.791 -0.5066  0.2613 -0.0869
 2720SOL    HW118369   8.882   3.613   0.725  0.9914 -0.5096 -0.3369
 2720SOL    HW218370   8.958   3.757   0.743  0.1083 -0.0583 -0.2050
 2721SOL     OW18371   8.399   2.820   0.622  0.0885 -0.7189  0.0728
 2721SOL    HW118372   8.492   2.857   0.630 -0.5251  0.7655  0.4504
 2721SOL    HW218373   8.355   2.821   0.712 -0.0942 -1.9891  0.0075
 2722SOL     OW18374   1.395   6.480   3.379 -0.0003  0.7718  0.5833
 2722SOL    HW118375   1.328   6.490   3.305  0.1959 -0.7599  0.1838
 2722SOL    HW218376   1.443   6.567   3.392  0.1889  0.9718 -1.3016
 2723SOL     OW18377   8.027   1.227   1.039  0.0167  0.4109  0.6109
 2723SOL    HW118378   7.970   1.236   0.957 -0.0199 -0.3866  0.5464
 2723SOL    HW218379   7.980   1.270   1.117 -0.5511 -0.0041  0.5007
 2724SOL     OW18380   1.008   2.795   2.056 -0.3161  0.2310 -0.2046
 2724SOL    HW118381   0.911   2.818   2.051 -0.1325  1.6398  2.1213
 2724SOL    HW218382   1.055   2.860   2.116  2.1360 -0.2288 -1.5498
 2725SOL     OW18383   2.581   8.952   2.939  0.2491 -0.2299  0.6550
 2725SOL    HW118384   2.601   8.993   3.028  0.1816 -1.0616  1.0557
 2725SOL    HW218385   2.617   8.859   2.936  0.3428 -0.1657 -0.2272
 2726SOL     OW18386   9.609   9.156   1.553 -0.0337  0.0321  0.1090
 2726SOL    HW118387   9.568   9.246   1.537  0.9131  0.2811 -1.0104
 2726SOL    HW218388   9.647   9.152   1.645  0.8771  1.1738 -0.2013
 2727SOL     OW18389   8.768   4.651   1.379 -0.2267 -0.1452  0.2897
 2727SOL    HW118390   8.755   4.571   1.437  1.1080 -0.4524  0.1992
 2727SOL    HW218391   8.864   4.657   1.352 -0.5587  0.7751 -0.7459
 2728SOL     OW18392   1.418   3.417   0.535 -0.3205 -0.0085  0.1185
 2728SOL    HW118393   1.431   3.399   0.437  1.2923 -1.6651  0.6051
 2728SOL    HW218394   1.362   3.498   0.546  3.0260  2.8187 -2.2477
 2729SOL     OW18395   3.794   5.182   0.454 -0.9422 -0.0234 -0.1669
 2729SOL    HW118396   3.858   5.124   0.505  1.3706  3.2750  0.8410
 2729SOL    HW218397   3.725   5.218   0.516  0.4975  2.1191  0.2444
 2730SOL     OW18398   1.897   3.941   2.887  1.1662  0.1782 -0.4407
 2730SOL    HW118399   1.838   3.872   2.844  0.1508  1.2566 -0.7775
 2730SOL    HW218400   1.904   3.922   2.985  0.1927  0.1012 -0.3823
 2731SOL     OW18401   2.975   1.167   1.043  0.0818  0.0367 -0.1635
 2731SOL    HW118402   2.890   1.217   1.028  0.3811  0.7155  0.3762
 2731SOL    HW218403   2.986   1.149   1.141  2.5718  3.6156  0.3351
 2732SOL     OW18404   0.495   1.277   1.553  0.7429 -0.4546  0.3526
 2732SOL    HW118405   0.419   1.295   1.490  0.4121 -0.2613  0.7997
 2732SOL    HW218406   0.475   1.319   1.642  3.3589  3.4426 -0.7741
 2733SOL     OW18407   1.463   7.447   1.332 -0.0196  0.3841  0.1431
 2733SOL    HW118408   1.527   7.522   1.346  0.9800 -0.9317  2.8365
 2733SOL    HW218409   1.506   7.377   1.274 -0.6419  1.4277 -1.6419
 2734SOL     OW18410   0.997   1.600   3.436 -0.0420  0.2748 -0.1642
 2734SOL    HW118411   1.069   1.583   3.503  0.4864  0.8259 -0.5853
 2734SOL    HW218412   0.934   1.523   3.434  0.8172 -0.4391 -0.1426
 2735SOL     OW18413   2.926   0.640   0.834 -0.2651  0.3789  0.2063
 2735SOL    HW118414   2.873   0.672   0.756 -4.0896 -3.7157  0.9484
 2735SOL    HW218415   2.911   0.701   0.912 -3.7147 -0.5310  0.3034
 2736SOL     OW18416   7.386   1.172   2.824 -0.0517  0.0608  0.0341
 2736SOL    HW118417   7.460   1.158   2.890  0.0146 -2.2007 -0.5017
 2736SOL    HW218418   7.317   1.101   2.835  0.0990 -0.5139 -2.5474
 2737SOL     OW18419   3.603   7.522   2.471  0.3622 -0.1563 -0.1259
 2737SOL    HW118420   3.507   7.531   2.497  0.3675 -1.3048  0.3179
 2737SOL    HW218421   3.613   7.541   2.374 -0.5875 -1.7685 -0.5523
 2738SOL     OW18422   0.559   4.415   0.147  0.6540 -0.2191 -0.0068
 2738SOL    HW118423   0.597   4.507   0.141  1.7785 -0.7142 -0.8278
 2738SOL    HW218424   0.515   4.402   0.236  0.1481  1.2310 -0.0473
 2739SOL     OW18425   0.177   8.768   2.436 -0.6150  0.1017  0.3473
 2739SOL    HW118426   0.274   8.761   2.413 -0.7316  1.4043 -0.6271
 2739SOL    HW218427   0.166   8.833   2.512 -0.6699 -0.4884  0.8429
 2740SOL     OW18428   3.515   8.426   1.692 -0.1409  0.2535  0.8180
 2740SOL    HW118429   3.523   8.479   1.776 -0.1855 -0.7549  1.4649
 2740SOL    HW218430   3.421   8.428   1.660 -0.5762 -1.1265  1.9689
 2741SOL     OW18431   1.553   2.238   0.578 -0.2158  0.0905  0.7595
 2741SOL    HW118432   1.530   2.140   0.582  0.6912 -0.2208 -1.1267
 2741SOL    HW218433   1.487   2.285   0.520  0.7588  0.1569 -0.2977
 2742SOL     OW18434   0.600   1.722   0.412 -0.4276  0.5226 -0.5701
 2742SOL    HW118435   0.536   1.703   0.486  1.0655 -0.3583  0.5354
 2742SOL    HW218436   0.633   1.816   0.419 -0.5591  0.5480 -0.3114
 2743SOL     OW18437   2.846   4.335   2.291 -0.3363  0.1320  0.3440
 2743SOL    HW118438   2.927   4.306   2.342 -1.7657 -0.6569  2.2514
 2743SOL    HW218439   2.818   4.263   2.228  1.1979  0.9410 -1.2841
 2744SOL     OW18440   3.067   0.040   1.828  0.2267 -0.0200 -0.3350
 2744SOL    HW118441   3.150   0.089   1.855  0.7444 -0.0625 -1.7450
 2744SOL    HW218442   2.986   0.091   1.856  0.7210 -0.1829  1.4306
 2745SOL     OW18443   0.486   3.627   2.931 -0.8263  0.7379  0.5463
 2745SOL    HW118444   0.468   3.723   2.909  0.2516  0.3465 -2.2202
 2745SOL    HW218445   0.584   3.612   2.938 -1.0237  0.0270  1.9680
 2746SOL     OW18446   0.328   7.249   2.223  1.2117  0.6764  0.5491
 2746SOL    HW118447   0.317   7.320   2.154 -0.8175 -1.1659 -1.0953
 2746SOL    HW218448   0.265   7.265   2.298 -0.2829 -0.1594 -0.5109
 2747SOL     OW18449   0.125   8.205   2.365  0.9637  0.2421 -0.2219
 2747SOL    HW118450   0.122   8.295   2.408 -3.1771 -0.2402  0.7111
 2747SOL    HW218451   0.127   8.216   2.266  0.5705  1.3650 -0.1121
 2748SOL     OW18452   2.437   1.049   0.410  0.4307  0.1221  0.0140
 2748SOL    HW118453   2.391   0.972   0.366  0.4647 -0.6122  1.2378
 2748SOL    HW218454   2.371   1.101   0.464  0.4557  0.8253 -0.6225
 2749SOL     OW18455   8.870   0.683   0.766 -0.0505  0.3943 -0.0501
 2749SOL    HW118456   8.901   0.760   0.823 -0.4849 -1.3572  2.6300
 2749SOL    HW218457   8.939   0.664   0.696  1.8099  0.8573  1.6116
 2750SOL     OW18458   7.149   0.174   2.491  0.9342  0.4869 -0.1341
 2750SOL    HW118459   7.187   0.204   2.578  1.0146  1.1943 -0.4109
 2750SOL    HW218460   7.189   0.085   2.466 -0.9481 -0.9541  1.7584
 2751SOL     OW18461   7.825   0.810   1.127 -0.0522 -0.4216  0.1062
 2751SOL    HW118462   7.835   0.723   1.176  0.8653 -0.5433 -0.2946
 2751SOL    HW218463   7.892   0.876   1.162  1.6379 -0.9642 -1.9698
 2752SOL     OW18464   1.338   6.896   0.821  0.0002  0.9103  0.0120
 2752SOL    HW118465   1.376   6.942   0.741  1.0462  0.0881  0.0303
 2752SOL    HW218466   1.357   6.951   0.903 -2.3663  2.5079 -0.4448
 2753SOL     OW18467   2.602   1.259   2.871  0.1434  0.7359 -0.1101
 2753SOL    HW118468   2.550   1.301   2.945  0.1855  1.9907 -0.7758
 2753SOL    HW218469   2.627   1.166   2.896 -0.5972  0.8526  1.0860
 2754SOL     OW18470   1.331   3.389   1.624  0.5259 -0.3219  0.4382
 2754SOL    HW118471   1.292   3.331   1.696 -2.5773 -0.1825 -1.0346
 2754SOL    HW218472   1.298   3.482   1.636  3.1638  0.5528  1.0948
 2755SOL     OW18473   0.789   3.964   0.422 -0.1205 -0.2439  0.4195
 2755SOL    HW118474   0.773   4.022   0.342  1.1781 -1.0706 -0.4489
 2755SOL    HW218475   0.886   3.943   0.430 -0.2293 -0.1913  2.2147
 2756SOL     OW18476   9.510   2.114   2.391  0.4803  0.1816 -0.3249
 2756SOL    HW118477   9.575   2.189   2.401 -0.4048  1.3169 -2.6385
 2756SOL    HW218478   9.441   2.120   2.463 -0.7430  2.8175 -1.6471
 2757SOL     OW18479   2.384   7.197   1.543 -0.0874 -0.6058  0.3669
 2757SOL    HW118480   2.418   7.247   1.463  0.5198 -0.2006  0.8710
 2757SOL    HW218481   2.299   7.149   1.519  0.2076 -0.6661 -0.5760
 2758SOL     OW18482   0.900   0.850   1.929  0.3002 -0.0800 -0.0093
 2758SOL    HW118483   0.864   0.819   2.017  3.1284 -1.2958  0.7865
 2758SOL    HW218484   0.844   0.813   1.855 -1.5184  0.1326  1.2317
 2759SOL     OW18485   0.590   9.487   1.099 -0.1040 -0.3178 -1.1257
 2759SOL    HW118486   0.588   9.502   1.000  0.8093 -0.1863 -1.1278
 2759SOL    HW218487   0.615   9.572   1.145  0.5425 -0.6536 -0.8509
 2760SOL     OW18488   3.116   0.236   2.406 -0.3299  0.9294  0.3559
 2760SOL    HW118489   3.173   0.183   2.343 -2.2508 -0.7233 -0.0513
 2760SOL    HW218490   3.086   0.320   2.361 -1.3802 -0.0650 -0.8467
 2761SOL     OW18491   2.421   2.424   2.321 -0.6234  0.0106  0.1173
 2761SOL    HW118492   2.333   2.464   2.294 -1.5844 -2.4123 -0.3980
 2761SOL    HW218493   2.424   2.328   2.295  1.2841 -0.5367  2.2086
 2762SOL     OW18494   2.257   9.183   2.060 -0.5473 -0.2131 -0.2949
 2762SOL    HW118495   2.270   9.189   1.961  0.5590 -0.0108 -0.1387
 2762SOL    HW218496   2.290   9.266   2.104 -1.4472 -0.1148  0.2097
 2763SOL     OW18497   3.010   2.906   3.268 -0.1361  0.0738  0.8048
 2763SOL    HW118498   2.981   2.819   3.228  0.9140  0.3397 -0.5625
 2763SOL    HW218499   2.961   2.981   3.223  0.5724  0.3323  0.4621
 2764SOL     OW18500   3.264   7.032   2.652  0.0128 -0.3282 -0.7268
 2764SOL    HW118501   3.357   7.026   2.616  0.5240 -2.1047  0.7993
 2764SOL    HW218502   3.236   7.128   2.655  1.8329  0.2417 -1.0788
 2765SOL     OW18503   9.113   1.905   1.336  0.2660 -0.4552 -0.5169
 2765SOL    HW118504   9.124   1.806   1.346  2.4939 -0.0274  1.8554
 2765SOL    HW218505   9.130   1.950   1.424 -0.5692  2.0553 -1.5814
 2766SOL     OW18506   1.334   7.160   2.556  0.3143 -0.5705  0.1429
 2766SOL    HW118507   1.323   7.178   2.654 -0.1666 -1.6641  0.2964
 2766SOL    HW218508   1.278   7.081   2.530  1.1392 -0.8504 -0.8220
 2767SOL     OW18509   2.264   2.976   0.861  0.4740 -0.2249 -0.1896
 2767SOL    HW118510   2.234   2.953   0.954  1.0522  0.0331  0.0697
 2767SOL    HW218511   2.186   2.976   0.799 -0.0945  0.6515  0.5134
 2768SOL     OW18512   8.826   4.639   0.868 -0.0706 -0.5401 -0.1106
 2768SOL    HW118513   8.768   4.557   0.859  1.6180 -1.8435  0.6387
 2768SOL    HW218514   8.921   4.614   0.851  0.2421  1.6876 -1.8504
 2769SOL     OW18515   2.687   2.651   0.350  0.3972 -0.3936  0.3631
 2769SOL    HW118516   2.636   2.566   0.339  0.2561 -0.0337 -2.0077
 2769SOL    HW218517   2.783   2.630   0.370 -0.0233 -1.0842  1.7134
 2770SOL     OW18518   3.686   1.705   1.446  0.4145  0.1338 -0.3668
 2770SOL    HW118519   3.660   1.680   1.539  0.3765  1.6022  0.0379
 2770SOL    HW218520   3.697   1.805   1.441 -0.2323  0.1290 -2.0911
 2771SOL     OW18521   9.316   2.223   1.924  0.3109  0.3219 -0.7436
 2771SOL    HW118522   9.308   2.322   1.911 -2.4880 -0.0003 -1.8118
 2771SOL    HW218523   9.333   2.204   2.021 -0.7912  1.7835 -0.2501
 2772SOL     OW18524   1.029   9.113   1.521  0.3396  0.5949 -0.0502
 2772SOL    HW118525   0.995   9.190   1.575  3.7091  2.1036  0.0390
 2772SOL    HW218526   1.012   9.132   1.424  1.6410  1.7572 -0.0714
 2773SOL     OW18527   9.195   3.812   0.258 -0.5294 -0.3369  0.1859
 2773SOL    HW118528   9.139   3.840   0.180 -1.2458  1.2094  1.2494
 2773SOL    HW218529   9.262   3.882   0.279 -1.2491 -0.1097  1.8275
 2774SOL     OW18530   9.082   3.696   2.118 -0.6764  0.1387  0.3719
 2774SOL    HW118531   9.162   3.722   2.171 -1.5876  1.7383  1.0036
 2774SOL    HW218532   9.031   3.778   2.092 -0.3336 -0.5841 -2.8924
 2775SOL     OW18533   2.231   0.838   2.063  0.2972  0.2835 -0.0806
 2775SOL    HW118534   2.290   0.810   1.987 -0.6189 -0.1778 -0.6393
 2775SOL    HW218535   2.218   0.760   2.125  1.1914  0.7125  0.6533
 2776SOL     OW18536   2.829   7.199   1.116 -0.5277 -0.0125  0.7110
 2776SOL    HW118537   2.835   7.122   1.179 -0.1440 -0.1949  0.4546
 2776SOL    HW218538   2.890   7.184   1.039 -0.4726  0.5341  0.6433
 2777SOL     OW18539   2.929   1.762   2.692 -0.4183  0.3159 -0.0149
 2777SOL    HW118540   3.004   1.696   2.700  0.5139  1.2018 -1.1366
 2777SOL    HW218541   2.958   1.850   2.729 -1.4696  0.2519  0.9905
 2778SOL     OW18542   1.106   0.908   0.700 -0.0519  0.4780 -0.2058
 2778SOL    HW118543   1.033   0.947   0.645  0.2480 -0.1249 -1.0456
 2778SOL    HW218544   1.174   0.978   0.721  0.9513  0.2400 -2.4731
 2779SOL     OW18545   1.849   1.154   2.132  0.3019 -0.3251  0.9155
 2779SOL    HW118546   1.824   1.235   2.079 -0.1440 -1.0504  0.0014
 2779SOL    HW218547   1.918   1.101   2.082  1.2578 -0.0464  1.9191
 2780SOL     OW18548   2.053   8.634   0.404 -0.3258  0.1736 -0.6143
 2780SOL    HW118549   2.112   8.715   0.399 -0.7275  0.5504  0.4919
 2780SOL    HW218550   2.083   8.576   0.480 -1.5268  0.4991  0.1176
 2781SOL     OW18551   2.610   9.566   0.694 -0.0593 -0.4347 -0.2291
 2781SOL    HW118552   2.612   9.626   0.773 -0.7386 -1.6988  0.7669
 2781SOL    HW218553   2.694   9.512   0.691  0.1515 -0.0865 -0.6086
 2782SOL     OW18554   9.511   0.993   2.400 -0.0423 -0.3577  0.1068
 2782SOL    HW118555   9.462   0.925   2.455 -0.8773  0.8720  0.9119
 2782SOL    HW218556   9.447   1.035   2.335 -0.2238  1.6306  1.5249
 2783SOL     OW18557   3.758   9.711   2.089 -0.0496 -0.2604 -0.0206
 2783SOL    HW118558   3.704   9.628   2.071  0.3514 -0.7502  1.0132
 2783SOL    HW218559   3.801   9.742   2.004 -0.0955 -1.1856 -0.3855
 2784SOL     OW18560   9.201   0.038   2.192 -0.2810  0.2542 -0.4892
 2784SOL    HW118561   9.147   0.122   2.187  2.8941  2.4769  0.4518
 2784SOL    HW218562   9.161  -0.023   2.259 -3.2083  0.5558 -1.8846
 2785SOL     OW18563   6.997   0.165   3.133  0.0898 -0.5231 -0.1524
 2785SOL    HW118564   6.943   0.081   3.135 -0.7319 -0.0014 -0.1623
 2785SOL    HW218565   7.007   0.196   3.038 -1.5311  0.6033  0.0203
 2786SOL     OW18566   1.059   2.317   2.369 -0.1486  0.1897  0.1275
 2786SOL    HW118567   1.049   2.337   2.467  1.6779  0.4055  0.2803
 2786SOL    HW218568   1.135   2.370   2.332  1.5531 -2.6982 -0.5929
 2787SOL     OW18569   1.536   1.580   1.522 -0.6674 -0.0242  0.4798
 2787SOL    HW118570   1.544   1.680   1.521 -0.7465 -0.0186  0.0653
 2787SOL    HW218571   1.596   1.542   1.452 -2.5416 -0.1100 -1.1417
 2788SOL     OW18572   7.838   1.503   0.644  0.6743 -0.2446 -0.0644
 2788SOL    HW118573   7.803   1.494   0.551  1.4678 -0.6294 -0.3281
 2788SOL    HW218574   7.929   1.544   0.642  0.5137  0.1583  0.5757
 2789SOL     OW18575   2.373   1.939   0.754 -0.5077  0.9649 -0.0374
 2789SOL    HW118576   2.462   1.954   0.797 -0.4798  0.0642  0.2182
 2789SOL    HW218577   2.384   1.881   0.674 -0.9029  0.6692  0.1245
 2790SOL     OW18578   2.107   9.727   1.055  0.3398 -0.0875 -0.0657
 2790SOL    HW118579   2.046   9.661   1.099 -0.4551  0.6380 -0.0913
 2790SOL    HW218580   2.201   9.693   1.061  0.2253 -0.0850  2.0453
 2791SOL     OW18581   9.892   3.432   0.606  0.8860  0.8006  0.1249
 2791SOL    HW118582   9.890   3.451   0.507  1.2855 -1.7135 -0.3812
 2791SOL    HW218583   9.806   3.391   0.634  1.1587  0.5815  0.6465
 2792SOL     OW18584   8.014   0.528   3.302  0.4122 -0.0794 -0.0531
 2792SOL    HW118585   7.926   0.550   3.345  0.5171 -1.0370  0.6839
 2792SOL    HW218586   7.999   0.465   3.226  0.2091  1.7382 -1.5654
 2793SOL     OW18587   1.428   2.947   3.243  0.0403 -0.0679 -0.5473
 2793SOL    HW118588   1.364   3.015   3.280 -0.0328  0.7720 -2.1638
 2793SOL    HW218589   1.512   2.993   3.213  0.5416 -0.8790 -0.4098
 2794SOL     OW18590   9.517   5.136   2.142 -0.2627  0.2226  0.5175
 2794SOL    HW118591   9.556   5.047   2.164 -2.0171 -0.3997  1.1908
 2794SOL    HW218592   9.421   5.139   2.172 -0.5696  1.9099 -0.5778
 2795SOL     OW18593   9.456   9.787   2.668 -0.2870 -0.2984  0.3272
 2795SOL    HW118594   9.504   9.700   2.677  1.2631  0.3928 -0.8809
 2795SOL    HW218595   9.374   9.775   2.612  0.3764 -0.8182 -0.5366
 2796SOL     OW18596   7.814   1.858   3.204  0.3270 -0.4109 -0.2875
 2796SOL    HW118597   7.825   1.899   3.295 -0.0633  0.5672 -0.6729
 2796SOL    HW218598   7.796   1.761   3.214  0.9035 -0.4300  0.6642
 2797SOL     OW18599   8.278   0.836   1.782 -0.5195 -0.1579  0.2632
 2797SOL    HW118600   8.211   0.910   1.786  0.9805  1.2343 -0.1222
 2797SOL    HW218601   8.234   0.755   1.742 -1.2846  1.5269 -2.4889
 2798SOL     OW18602   3.411   7.890   0.747  0.2153  0.2942  0.6269
 2798SOL    HW118603   3.434   7.822   0.818  0.5235 -0.6824 -0.3964
 2798SOL    HW218604   3.494   7.936   0.717  0.2450 -0.1148  0.0767
 2799SOL     OW18605   7.732   1.501   0.367 -0.2785  0.3565 -0.3552
 2799SOL    HW118606   7.659   1.558   0.329 -0.9499 -0.1396  0.1785
 2799SOL    HW218607   7.705   1.405   0.360 -0.1870  0.2374  0.9243
 2800SOL     OW18608   1.153   2.614   1.365  0.3151  0.1948 -0.7824
 2800SOL    HW118609   1.247   2.636   1.341  0.3719  1.2461  0.3861
 2800SOL    HW218610   1.128   2.660   1.450 -0.1096 -2.8862  0.8574
 2801SOL     OW18611   4.171   9.138   3.091 -0.1344  0.2360 -0.1000
 2801SOL    HW118612   4.241   9.208   3.102 -0.1857  0.2321  0.2828
 2801SOL    HW218613   4.202   9.053   3.134  1.0622 -0.7839 -2.8885
 2802SOL     OW18614   3.008   8.942   1.787  0.6164  0.3493  0.2949
 2802SOL    HW118615   2.932   8.973   1.729  1.0752  0.3751 -0.3011
 2802SOL    HW218616   3.040   9.018   1.843  0.0234  0.2686  0.7465
 2803SOL     OW18617   1.021   3.507   2.575  0.6974  0.0698  0.1094
 2803SOL    HW118618   1.045   3.604   2.573  1.4763 -0.1373 -1.3884
 2803SOL    HW218619   1.072   3.459   2.504  1.9988 -1.8348  2.2653
 2804SOL     OW18620   1.827   2.799   2.996 -0.3201 -0.0011  0.1635
 2804SOL    HW118621   1.864   2.868   3.059  0.0108  1.0831 -1.1771
 2804SOL    HW218622   1.879   2.801   2.910 -3.9439  2.1708 -2.1359
 2805SOL     OW18623   1.520   7.600   0.093 -0.5811 -0.0868 -0.0353
 2805SOL    HW118624   1.604   7.613   0.040 -0.8185  0.0147 -0.3960
 2805SOL    HW218625   1.510   7.504   0.118 -0.6797 -0.2112 -0.5464
 2806SOL     OW18626   1.305   0.495   1.280 -0.2016  0.3513 -0.1967
 2806SOL    HW118627   1.297   0.412   1.336  1.0710 -0.5271 -1.2825
 2806SOL    HW218628   1.216   0.518   1.242 -0.5112 -0.7080 -0.1372
 2807SOL     OW18629   1.986   8.626   0.763 -0.3991  0.3217 -0.0819
 2807SOL    HW118630   1.904   8.659   0.717  0.0251  1.9086  0.2553
 2807SOL    HW218631   2.013   8.692   0.834  1.5084  0.1278 -0.6096
 2808SOL     OW18632   0.582   2.000   0.814  0.0654 -0.1560 -0.1279
 2808SOL    HW118633   0.520   1.948   0.874 -0.6134  0.9797  0.1637
 2808SOL    HW218634   0.669   1.952   0.808 -0.1830 -0.7861  1.0173
 2809SOL     OW18635   4.332   0.184   3.075  0.4778 -0.0938 -0.0121
 2809SOL    HW118636   4.376   0.272   3.061 -1.7625  1.0756  0.1290
 2809SOL    HW218637   4.376   0.137   3.152  1.4418  1.0459  0.1461
 2810SOL     OW18638   8.814   2.620   0.962  0.1053  0.4102 -0.2271
 2810SOL    HW118639   8.849   2.696   0.907 -0.9842  1.7018  0.8239
 2810SOL    HW218640   8.884   2.591   1.028 -0.1234  1.7601  0.6305
 2811SOL     OW18641   1.124   7.799   2.242 -0.1964  0.0891  0.4218
 2811SOL    HW118642   1.170   7.759   2.163 -0.8858  0.3694 -0.1225
 2811SOL    HW218643   1.155   7.894   2.254  0.7068 -0.2905  1.1296
 2812SOL     OW18644   5.085   9.143   2.401  0.2174 -0.4027 -0.2487
 2812SOL    HW118645   5.049   9.098   2.320 -1.3327  1.6407 -0.7264
 2812SOL    HW218646   5.181   9.118   2.413  0.1142 -1.7235 -1.9724
 2813SOL     OW18647   0.114   6.777   0.386 -0.2957 -0.0742  0.3757
 2813SOL    HW118648   0.146   6.811   0.475 -0.2289  1.0295 -0.0645
 2813SOL    HW218649   0.024   6.735   0.397  0.8332 -2.3340  1.4456
 2814SOL     OW18650   0.599   6.094   0.029  0.9399 -0.4604  0.3855
 2814SOL    HW118651   0.576   6.030  -0.044  0.0809  0.1577  0.1021
 2814SOL    HW218652   0.515   6.124   0.074  1.2006  1.5398 -0.4003
 2815SOL     OW18653   1.824   6.638   2.188 -0.1461  0.1177 -0.7255
 2815SOL    HW118654   1.888   6.654   2.112 -0.0277 -1.5336 -0.9841
 2815SOL    HW218655   1.858   6.684   2.270  0.7217  0.3005 -1.1821
 2816SOL     OW18656   2.612   1.072   1.322  0.0339  0.5656  0.4521
 2816SOL    HW118657   2.605   1.007   1.246  0.4230  1.0886 -0.0340
 2816SOL    HW218658   2.532   1.063   1.381 -0.1095 -0.0768  0.1638
 2817SOL     OW18659   1.874   4.848   0.417 -0.3809  0.0315 -0.2910
 2817SOL    HW118660   1.844   4.917   0.482 -0.2649  0.2113 -0.4288
 2817SOL    HW218661   1.908   4.892   0.334  0.4980 -0.1546 -0.0432
 2818SOL     OW18662   4.206   3.460   2.875  0.4699  0.1301  0.3942
 2818SOL    HW118663   4.268   3.419   2.808  1.0674 -2.3561  2.3927
 2818SOL    HW218664   4.114   3.422   2.864  0.2145  0.8296  0.0468
 2819SOL     OW18665   8.944   3.377   1.965 -0.3246  0.0089 -0.4109
 2819SOL    HW118666   9.029   3.398   1.916  0.8662  0.2841  1.7039
 2819SOL    HW218667   8.961   3.304   2.031 -1.9991 -0.6160 -0.6453
 2820SOL     OW18668   0.301   5.839   1.739 -0.0075 -0.1009 -0.1756
 2820SOL    HW118669   0.313   5.775   1.815 -2.0185  0.8399  0.9631
 2820SOL    HW218670   0.389   5.853   1.694  1.4414  0.0282  2.5634
 2821SOL     OW18671   3.822   0.243   2.092  1.0518  0.0653 -1.2003
 2821SOL    HW118672   3.904   0.282   2.131 -0.4158  1.1053  0.9235
 2821SOL    HW218673   3.773   0.191   2.162 -0.8818  0.7360 -2.0221
 2822SOL     OW18674   9.741   4.182   2.137  0.4993  0.1791 -0.1130
 2822SOL    HW118675   9.811   4.120   2.102  0.5241  0.5684 -0.7773
 2822SOL    HW218676   9.738   4.177   2.236 -0.9243 -2.4173 -0.2705
 2823SOL     OW18677   3.721   8.830   1.591 -0.0350 -0.3402 -0.2898
 2823SOL    HW118678   3.731   8.731   1.585 -2.5722 -0.7185  1.1520
 2823SOL    HW218679   3.772   8.864   1.671 -1.5839 -0.8957  0.9563
 2824SOL     OW18680   3.577   7.717   3.397 -0.4518  0.2798 -0.2895
 2824SOL    HW118681   3.510   7.780   3.359 -1.5401  0.1934  1.4456
 2824SOL    HW218682   3.546   7.684   3.486  1.8971  0.2667  0.5713
 2825SOL     OW18683   7.803   1.969   2.508 -0.4732 -0.4349  1.0727
 2825SOL    HW118684   7.792   2.026   2.427 -1.8928 -0.3914  1.2740
 2825SOL    HW218685   7.812   1.873   2.481 -2.0005 -0.5358  0.9010
 2826SOL     OW18686   2.643   2.339   2.054  0.0047 -0.5273 -0.2789
 2826SOL    HW118687   2.600   2.418   2.096  0.0260  0.7713 -2.6418
 2826SOL    HW218688   2.692   2.286   2.124 -0.1685  1.4212  1.3387
 2827SOL     OW18689   1.197   6.305   2.801  0.0674  0.0831  0.4975
 2827SOL    HW118690   1.183   6.206   2.794  0.1845 -0.1491  3.0189
 2827SOL    HW218691   1.269   6.333   2.737  0.8713 -1.6701  0.5921
 2828SOL     OW18692   0.860   7.351   2.888 -0.0764 -0.2165 -0.1186
 2828SOL    HW118693   0.905   7.440   2.877 -0.4344 -0.3115 -2.5515
 2828SOL    HW218694   0.762   7.365   2.902 -0.2044 -0.2374 -0.9755
 2829SOL     OW18695   1.438   3.530   3.100  0.4538 -0.1822  0.2711
 2829SOL    HW118696   1.354   3.476   3.089 -0.7491  1.4467  1.1674
 2829SOL    HW218697   1.414   3.622   3.133  2.7421 -0.3075  2.4555
 2830SOL     OW18698   2.077   6.796   3.181 -0.2533 -0.0387 -0.4933
 2830SOL    HW118699   2.042   6.864   3.245  1.0192 -0.5850  0.8149
 2830SOL    HW218700   2.003   6.761   3.124 -1.2782  0.9219  0.2528
 2831SOL     OW18701   1.046   3.483   1.097 -0.0063  0.1440 -0.5433
 2831SOL    HW118702   1.143   3.483   1.120 -0.0773 -0.7694 -0.2345
 2831SOL    HW218703   1.001   3.407   1.143 -0.6162 -0.2159 -1.7118
 2832SOL     OW18704   3.802   9.806   1.831  0.1253 -0.2134 -0.1095
 2832SOL    HW118705   3.707   9.833   1.846  0.9182  1.5249  2.1600
 2832SOL    HW218706   3.856   9.886   1.808  1.2777 -0.9873 -0.1294
 2833SOL     OW18707   1.444   2.485   0.947 -0.6828 -0.1523 -0.4546
 2833SOL    HW118708   1.501   2.518   1.022 -1.2328 -0.5268  0.1244
 2833SOL    HW218709   1.434   2.557   0.878 -0.5280  0.3305  0.0270
 2834SOL     OW18710   1.396   8.612   2.643 -0.3728 -0.1957  0.3400
 2834SOL    HW118711   1.387   8.703   2.685  0.1617  0.1899 -0.3755
 2834SOL    HW218712   1.397   8.621   2.544  1.3752 -0.8154  0.2899
 2835SOL     OW18713   8.673   1.325   3.086 -0.3937  0.3092  0.8369
 2835SOL    HW118714   8.619   1.268   3.148  0.4035  0.3379  1.5889
 2835SOL    HW218715   8.750   1.271   3.050  0.3415  0.8778  1.5222
 2836SOL     OW18716   2.726   1.013   1.739 -0.2237 -0.8340 -0.6015
 2836SOL    HW118717   2.627   1.009   1.754 -0.4876 -1.4373 -2.4250
 2836SOL    HW218718   2.769   1.061   1.816 -2.0186  0.2116 -0.2084
 2837SOL     OW18719   3.365   9.875   0.347 -0.4880 -0.6038  0.2772
 2837SOL    HW118720   3.420   9.868   0.430 -0.6208 -0.2450  0.3997
 2837SOL    HW218721   3.280   9.924   0.368  0.9243  2.4358 -0.7501
 2838SOL     OW18722   3.242   4.584   3.035  0.6879  0.1188  0.2221
 2838SOL    HW118723   3.305   4.510   3.013 -1.2958 -1.1443 -1.3935
 2838SOL    HW218724   3.169   4.550   3.093  0.0335  0.9170 -0.1155
 2839SOL     OW18725   1.009   3.081   2.487  0.3352  0.5710 -0.2120
 2839SOL    HW118726   1.101   3.073   2.449 -0.0730  0.4169 -1.1879
 2839SOL    HW218727   0.970   2.990   2.498  1.2091  0.4853  2.5143
 2840SOL     OW18728   8.203   1.156   2.043 -0.4508 -0.0704  0.1398
 2840SOL    HW118729   8.220   1.244   1.998 -0.2563 -1.0568 -1.7785
 2840SOL    HW218730   8.106   1.133   2.035  0.2353 -2.1419 -3.4606
 2841SOL     OW18731   3.493   8.664   0.459  0.0509  0.8526 -0.0367
 2841SOL    HW118732   3.411   8.717   0.436  0.2075  0.7244 -0.9058
 2841SOL    HW218733   3.487   8.574   0.416  1.6023  1.5892 -1.8742
 2842SOL     OW18734   9.767   2.931   0.356 -0.2178 -0.0706 -0.0383
 2842SOL    HW118735   9.678   2.930   0.403  0.6056  0.4436  1.5630
 2842SOL    HW218736   9.838   2.899   0.419  0.9069  0.6354 -0.9307
 2843SOL     OW18737   9.411   3.547   1.170  0.0034  0.4013  0.4228
 2843SOL    HW118738   9.443   3.529   1.263 -1.4691  0.6813  0.9941
 2843SOL    HW218739   9.311   3.553   1.169  0.0352  1.0162 -1.0728
 2844SOL     OW18740   0.482   5.760   2.272  0.5512 -0.0807  0.7956
 2844SOL    HW118741   0.411   5.809   2.221  0.0198 -1.5737  0.0688
 2844SOL    HW218742   0.566   5.760   2.219  1.0464  1.5071  1.5629
 2845SOL     OW18743   2.637   2.414   1.179 -0.0409 -0.4371  0.1238
 2845SOL    HW118744   2.726   2.443   1.217  0.0264 -0.6874  0.1617
 2845SOL    HW218745   2.603   2.336   1.232 -0.5081 -0.0432  0.4035
 2846SOL     OW18746   3.848   0.962   0.285 -0.1926 -0.2370  0.7592
 2846SOL    HW118747   3.855   0.952   0.384 -2.1910 -2.1636  0.7445
 2846SOL    HW218748   3.758   0.929   0.254 -0.0355  1.3690 -1.5638
 2847SOL     OW18749   9.760   4.463   2.026  0.4046  0.1635 -0.5671
 2847SOL    HW118750   9.849   4.506   2.035  0.4924 -0.2797  0.7914
 2847SOL    HW218751   9.759   4.377   2.076 -1.1707  0.7811  0.4998
 2848SOL     OW18752   0.702   7.726   3.228 -0.0847 -0.4774  0.0670
 2848SOL    HW118753   0.796   7.757   3.243  0.3375 -3.2369  3.9028
 2848SOL    HW218754   0.696   7.676   3.141  1.7857  0.4067 -0.5899
 2849SOL     OW18755   1.826   1.208   0.354 -0.0990  0.4405  0.2303
 2849SOL    HW118756   1.852   1.252   0.268 -0.2296  0.1456  0.0374
 2849SOL    HW218757   1.730   1.181   0.350  0.5113 -1.7635 -0.4873
 2850SOL     OW18758   3.259   7.183   0.820 -0.0205  0.2123 -0.5609
 2850SOL    HW118759   3.359   7.179   0.812  0.1450  0.9821  0.9868
 2850SOL    HW218760   3.233   7.266   0.869 -1.3930 -0.2339 -0.5353
 2851SOL     OW18761   3.702   8.417   2.636 -0.0772 -0.3530 -0.2864
 2851SOL    HW118762   3.772   8.488   2.647 -0.9904  0.4599  0.4173
 2851SOL    HW218763   3.626   8.453   2.582 -1.2646 -0.2416  1.3926
 2852SOL     OW18764   0.017   2.075   0.746  0.7871 -0.3942 -0.6652
 2852SOL    HW118765   0.085   2.148   0.742  1.8687 -1.4379 -1.5074
 2852SOL    HW218766  -0.069   2.107   0.706  1.2820  0.3775 -1.1222
 2853SOL     OW18767   1.634   0.654   0.582 -0.0653 -0.0661  0.4833
 2853SOL    HW118768   1.542   0.628   0.609  0.2089 -1.5535  0.0421
 2853SOL    HW218769   1.645   0.643   0.483  1.8232 -4.1120  1.0117
 2854SOL     OW18770   0.509   6.424   0.383 -0.1843 -0.1717  0.3702
 2854SOL    HW118771   0.551   6.449   0.296  0.2443 -0.8094  0.3909
 2854SOL    HW218772   0.573   6.368   0.436 -0.3578  0.3944  1.1886
 2855SOL     OW18773   8.766   2.393   2.563 -0.0733 -0.4653 -0.4578
 2855SOL    HW118774   8.732   2.396   2.658 -0.1963 -1.1007 -0.4804
 2855SOL    HW218775   8.853   2.345   2.561 -0.5192 -1.2648 -0.7968
 2856SOL     OW18776   0.711   6.009   0.446 -0.7940  0.4819 -0.0740
 2856SOL    HW118777   0.699   5.980   0.351  2.5432 -0.7330 -0.1944
 2856SOL    HW218778   0.706   5.929   0.506  4.0373  0.0753  0.0178
 2857SOL     OW18779   1.604   5.924   2.546 -0.2398  0.8542  0.8805
 2857SOL    HW118780   1.680   5.901   2.485 -1.2035  2.0722 -0.8301
 2857SOL    HW218781   1.533   5.971   2.494 -1.5722  0.9509  2.7423
 2858SOL     OW18782   3.704   2.006   0.732  0.4283  0.1653  0.0576
 2858SOL    HW118783   3.701   2.085   0.671 -1.1205  0.6368  0.7357
 2858SOL    HW218784   3.769   1.939   0.695 -1.0939  0.0632 -2.5809
 2859SOL     OW18785   0.605   6.150   2.360 -0.1755 -0.4333 -0.0313
 2859SOL    HW118786   0.515   6.157   2.317 -1.5725  0.9562  3.0136
 2859SOL    HW218787   0.613   6.218   2.433  2.9354 -1.2847  0.4978
 2860SOL     OW18788   2.351   6.191   2.330 -0.1080 -0.3254  0.8341
 2860SOL    HW118789   2.407   6.208   2.248 -1.3880 -2.9870 -0.6661
 2860SOL    HW218790   2.262   6.233   2.318 -0.8668 -2.0844  0.1066
 2861SOL     OW18791   2.166   6.848   1.555  0.2830  0.4290 -0.5160
 2861SOL    HW118792   2.067   6.848   1.544  0.1411 -1.0827  0.5681
 2861SOL    HW218793   2.209   6.891   1.475 -1.2547  1.5148 -0.7695
 2862SOL     OW18794   2.718   7.401   0.467  0.2763 -0.1770 -0.1047
 2862SOL    HW118795   2.624   7.400   0.500  0.1243  0.5127 -0.5158
 2862SOL    HW218796   2.776   7.352   0.532 -0.2812 -0.1822  0.3980
 2863SOL     OW18797   2.030   8.819   3.062  0.6177 -0.5844 -0.3673
 2863SOL    HW118798   1.962   8.876   3.016 -1.8611 -1.2889  2.2679
 2863SOL    HW218799   2.111   8.874   3.083 -0.6499  1.2764 -0.2449
 2864SOL     OW18800   1.167   4.549   2.221 -0.4401  0.6723  1.1284
 2864SOL    HW118801   1.069   4.534   2.234 -0.8084  2.1709  0.2822
 2864SOL    HW218802   1.219   4.478   2.268 -1.9486 -0.4266  1.1631
 2865SOL     OW18803   2.827   0.085   3.039 -0.0409  0.1911 -0.4927
 2865SOL    HW118804   2.919   0.117   3.060 -0.1755  0.6561 -0.6189
 2865SOL    HW218805   2.814  -0.007   3.077  0.4930  0.1025 -0.5239
 2866SOL     OW18806   3.435   5.006   1.958  0.7812  0.5125  0.6417
 2866SOL    HW118807   3.373   5.079   1.986  1.0375  1.5740 -1.4198
 2866SOL    HW218808   3.385   4.920   1.951 -0.3111  1.2059 -0.2757
 2867SOL     OW18809   4.189   1.385   1.644 -0.3596 -0.3421 -0.4403
 2867SOL    HW118810   4.199   1.286   1.645 -0.0506 -0.3197 -1.2387
 2867SOL    HW218811   4.148   1.415   1.730  0.2335 -1.0846  0.1087
 2868SOL     OW18812   8.970   2.795   0.811 -0.2920  0.0072 -0.0562
 2868SOL    HW118813   9.038   2.865   0.792 -0.5330  0.2573  0.0089
 2868SOL    HW218814   9.015   2.706   0.817  0.1712  0.3091  0.9768
 2869SOL     OW18815   3.990   7.902   3.373  0.1035 -0.0392 -0.0311
 2869SOL    HW118816   3.953   7.810   3.358  0.1457 -0.0838  0.1326
 2869SOL    HW218817   3.977   7.957   3.290 -0.2195 -0.0910 -0.0146
 2870SOL     OW18818   9.990   5.576   0.781  0.4127 -0.6596  0.1804
 2870SOL    HW118819  10.040   5.662   0.795  0.1642 -0.4983  0.0668
 2870SOL    HW218820  10.013   5.513   0.855  0.2802 -0.3521  0.4867
 2871SOL     OW18821   2.685   5.864   2.999  0.2169  0.4018  0.7717
 2871SOL    HW118822   2.585   5.861   3.006  0.3108  0.7544  2.3364
 2871SOL    HW218823   2.725   5.789   3.051  0.7997  0.5506  0.5499
 2872SOL     OW18824   2.325   9.301   1.146  0.3374  0.1412  0.1855
 2872SOL    HW118825   2.256   9.303   1.218 -0.1813  1.4623 -0.3314
 2872SOL    HW218826   2.354   9.207   1.130 -1.1346 -0.3925  0.6087
 2873SOL     OW18827   0.309   6.121   3.259  0.0510  0.3007  0.0658
 2873SOL    HW118828   0.242   6.171   3.205  0.7003  1.1820  0.0628
 2873SOL    HW218829   0.275   6.109   3.352 -0.0032  0.9737  0.1335
 2874SOL     OW18830   1.098   2.750   0.431  0.0782 -0.0577 -0.4460
 2874SOL    HW118831   1.052   2.662   0.422  0.0827  0.1020 -2.1704
 2874SOL    HW218832   1.109   2.772   0.528 -2.1423 -0.7709 -0.0074
 2875SOL     OW18833   1.962   9.478   0.781  0.5046 -0.2864 -0.6159
 2875SOL    HW118834   2.036   9.423   0.820 -0.9100 -0.4522  1.9863
 2875SOL    HW218835   2.000   9.541   0.713  3.0788 -0.2685  0.7339
 2876SOL     OW18836   8.774   2.218   3.140  0.0588 -0.3853 -0.4776
 2876SOL    HW118837   8.720   2.165   3.074 -3.0673  1.4313  0.5330
 2876SOL    HW218838   8.793   2.162   3.220  0.3657 -1.2826 -1.1634
 2877SOL     OW18839   3.531   2.688   3.318 -0.5558  0.1965  0.9312
 2877SOL    HW118840   3.465   2.698   3.392 -0.9890  2.2759  0.2797
 2877SOL    HW218841   3.603   2.757   3.326  0.1367 -0.4191  0.1853
 2878SOL     OW18842   3.932   3.592   2.483 -0.6763 -0.0235 -0.1417
 2878SOL    HW118843   3.905   3.615   2.389 -0.7537  1.1679  0.1598
 2878SOL    HW218844   3.955   3.495   2.488 -1.5738 -0.3066 -1.1812
 2879SOL     OW18845   1.899   0.620   2.677  0.0343  0.1796  0.0814
 2879SOL    HW118846   1.932   0.714   2.664 -1.4781  0.7869  0.5511
 2879SOL    HW218847   1.822   0.603   2.615  0.6917 -0.9581 -0.4351
 2880SOL     OW18848   8.442   3.158   0.415 -0.4195 -1.2991  0.4770
 2880SOL    HW118849   8.398   3.069   0.401  0.4809 -1.5325 -0.9607
 2880SOL    HW218850   8.423   3.217   0.336  1.2353 -1.1645  0.1571
 2881SOL     OW18851   4.099   1.199   2.823  0.3817  0.4085 -0.0281
 2881SOL    HW118852   4.038   1.239   2.891  1.4622  0.4339  0.9262
 2881SOL    HW218853   4.084   1.244   2.735  1.2349  2.6260  0.9112
 2882SOL     OW18854   1.297   3.654   1.073 -0.0318 -0.1765 -0.5381
 2882SOL    HW118855   1.386   3.609   1.085  1.0917  2.3199  0.7660
 2882SOL    HW218856   1.299   3.710   0.991 -0.4608 -0.1998 -0.5641
 2883SOL     OW18857   7.967   0.723   1.781  0.6227  0.8148 -0.2160
 2883SOL    HW118858   7.925   0.750   1.695  1.3900  0.7428 -0.6081
 2883SOL    HW218859   7.989   0.625   1.778 -0.7237  0.4665  0.6215
 2884SOL     OW18860   8.449   0.523   1.443  0.1399 -0.0186  0.4020
 2884SOL    HW118861   8.511   0.520   1.521 -0.1464 -1.4394  0.5909
 2884SOL    HW218862   8.496   0.565   1.365  1.4699 -1.3617  0.4491
 2885SOL     OW18863   0.941   3.254   1.220 -0.5475 -0.5441 -0.1065
 2885SOL    HW118864   0.977   3.173   1.174  1.4249 -0.3556  1.0563
 2885SOL    HW218865   0.940   3.238   1.319 -1.4803  0.3406  0.0368
 2886SOL     OW18866   9.284   4.287   2.194 -0.0506 -0.1556 -0.7257
 2886SOL    HW118867   9.342   4.361   2.160  0.5627 -0.7236 -0.9248
 2886SOL    HW218868   9.329   4.199   2.177 -0.7399 -0.5696 -0.4240
 2887SOL     OW18869   0.572   2.262   0.760  0.4949  0.2614  0.2842
 2887SOL    HW118870   0.630   2.327   0.808 -0.5288 -1.0354  3.4040
 2887SOL    HW218871   0.581   2.172   0.803  0.5140 -1.2709 -2.8121
 2888SOL     OW18872   2.037   8.908   2.516 -0.5185  0.4289  0.1714
 2888SOL    HW118873   2.088   8.993   2.501 -0.4780  0.4753  0.5556
 2888SOL    HW218874   2.032   8.889   2.614  0.6824 -0.7530  0.0182
 2889SOL     OW18875   3.722   3.740   1.234  0.3934  0.4739 -0.4632
 2889SOL    HW118876   3.788   3.803   1.193  0.5431  0.1356 -0.7471
 2889SOL    HW218877   3.743   3.647   1.205  1.1593  0.0896  1.2480
 2890SOL     OW18878   2.332   5.937   0.585  0.1674 -0.0164  0.6608
 2890SOL    HW118879   2.422   5.892   0.587 -0.1305 -0.6014  1.0435
 2890SOL    HW218880   2.341   6.031   0.617  0.8573  0.3166 -0.4612
 2891SOL     OW18881   1.395   7.902   2.610  0.4350  0.0093 -0.4910
 2891SOL    HW118882   1.399   7.969   2.684  0.4302 -1.0104  0.4527
 2891SOL    HW218883   1.429   7.814   2.643 -1.3894 -0.9733 -1.1172
 2892SOL     OW18884   8.351   1.665   1.228  0.0173 -0.5775  0.2827
 2892SOL    HW118885   8.427   1.723   1.257 -0.5283  1.2411 -1.8063
 2892SOL    HW218886   8.364   1.639   1.132 -1.6595 -0.8099  0.1073
 2893SOL     OW18887   1.264   5.121   1.410  0.3445 -0.4006  0.1404
 2893SOL    HW118888   1.216   5.037   1.434 -0.4039 -0.3156 -1.0070
 2893SOL    HW218889   1.355   5.098   1.375  0.2301 -0.7192  0.0500
 2894SOL     OW18890   1.762   4.244   3.163  0.3793 -0.6874 -0.8150
 2894SOL    HW118891   1.687   4.295   3.122 -2.1457 -2.8467  0.9269
 2894SOL    HW218892   1.812   4.303   3.226 -0.3895  0.5538 -1.3473
 2895SOL     OW18893   7.255   0.230   3.100  0.2251  0.5524  0.0700
 2895SOL    HW118894   7.179   0.193   3.153 -0.0307 -0.5766 -1.0487
 2895SOL    HW218895   7.231   0.228   3.002  0.5970  2.7677 -0.1037
 2896SOL     OW18896   3.777   3.559   2.262 -0.3287  0.6381 -0.0861
 2896SOL    HW118897   3.804   3.552   2.166 -1.3564  0.0695 -0.3392
 2896SOL    HW218898   3.770   3.468   2.302  1.7871  0.9305  1.0196
 2897SOL     OW18899   2.010   8.252   3.019 -0.4113  0.1738 -0.5112
 2897SOL    HW118900   1.999   8.352   3.013  2.1511  0.6448  1.7580
 2897SOL    HW218901   1.926   8.212   3.057  0.1331  2.0199  2.8786
 2898SOL     OW18902   1.379   6.251   2.554  0.2353 -0.1898  0.4194
 2898SOL    HW118903   1.464   6.199   2.564  0.9113  0.9179  0.5266
 2898SOL    HW218904   1.396   6.347   2.575 -0.8000  0.2444 -0.6544
 2899SOL     OW18905   4.206   2.901   2.685  0.0884 -0.6733  0.3471
 2899SOL    HW118906   4.176   2.819   2.734 -0.8738 -1.1126 -0.9499
 2899SOL    HW218907   4.256   2.874   2.603  2.0252  0.0602  1.2405
 2900SOL     OW18908   1.105   0.073   2.088 -0.5504 -0.1168 -0.4320
 2900SOL    HW118909   1.077   0.162   2.052 -3.0347 -0.3884  0.7438
 2900SOL    HW218910   1.053   0.052   2.171  1.0245 -2.0282  0.1139
 2901SOL     OW18911   0.504   8.753   0.037  0.5681  0.8776 -0.5311
 2901SOL    HW118912   0.417   8.740   0.086  1.1393  1.3244  0.6188
 2901SOL    HW218913   0.526   8.669  -0.013  0.9066 -0.3087  1.5168
 2902SOL     OW18914   2.518   5.338   3.037  0.3194  0.1501  0.2709
 2902SOL    HW118915   2.543   5.340   2.941  0.6895  2.6753  0.3980
 2902SOL    HW218916   2.599   5.354   3.093 -0.0659 -0.3398  0.9811
 2903SOL     OW18917   0.929   7.782   0.254  0.4310  0.5154 -0.6738
 2903SOL    HW118918   0.876   7.725   0.316  0.9694 -1.4008 -1.9291
 2903SOL    HW218919   1.027   7.767   0.271  0.7192  4.6492  2.2153
 2904SOL     OW18920   0.763   3.233   2.267  0.5343  0.4805 -0.4371
 2904SOL    HW118921   0.698   3.162   2.294 -0.6334  1.7913  0.2538
 2904SOL    HW218922   0.791   3.285   2.348  0.5736  1.4766 -1.0914
 2905SOL     OW18923   1.535   4.241   1.902 -0.1344 -0.1614 -0.3010
 2905SOL    HW118924   1.549   4.271   1.807 -1.1348  0.9986 -0.0926
 2905SOL    HW218925   1.622   4.210   1.940  0.3347 -0.3404 -1.5028
 2906SOL     OW18926   3.547   5.319   3.153 -0.4247 -0.1917 -0.6472
 2906SOL    HW118927   3.567   5.283   3.062 -0.0086  1.9596 -1.4523
 2906SOL    HW218928   3.453   5.351   3.157 -1.0098 -1.9688  0.2839
 2907SOL     OW18929   2.677   1.616   0.108  0.0726 -0.1785  0.7365
 2907SOL    HW118930   2.592   1.668   0.110  0.7900  0.9930  1.6336
 2907SOL    HW218931   2.675   1.548   0.181 -1.3150 -2.1769 -1.1149
 2908SOL     OW18932   9.526   1.275   1.875  0.1089 -0.6038 -0.1085
 2908SOL    HW118933   9.497   1.179   1.878  0.5776 -0.7710 -0.7817
 2908SOL    HW218934   9.620   1.282   1.907 -0.8205  0.0114  2.5893
 2909SOL     OW18935   1.064   9.678   0.598  0.4198 -0.2294  0.8088
 2909SOL    HW118936   1.131   9.751   0.607  0.0116  0.3907 -1.0036
 2909SOL    HW218937   1.089   9.618   0.522 -1.4022  0.3813 -0.3060
 2910SOL     OW18938   1.768   7.444   2.425  0.5487 -0.6394  0.0023
 2910SOL    HW118939   1.728   7.459   2.516 -0.8997  0.5346 -0.8135
 2910SOL    HW218940   1.768   7.529   2.374  1.0485 -1.3651 -1.2299
 2911SOL     OW18941   1.464   0.889   1.091  0.0379 -0.7058 -0.0643
 2911SOL    HW118942   1.417   0.918   1.174  0.2835 -2.7831  0.8380
 2911SOL    HW218943   1.528   0.960   1.062 -0.4401  0.2606  1.2259
 2912SOL     OW18944   0.431   7.775   3.185  0.4316 -0.0818  0.2210
 2912SOL    HW118945   0.524   7.774   3.220 -0.0686 -0.4542  1.5673
 2912SOL    HW218946   0.409   7.686   3.145  0.6385 -0.0165 -0.0345
 2913SOL     OW18947   1.151   7.393   1.318 -0.3674 -0.1559 -0.1694
 2913SOL    HW118948   1.244   7.430   1.316  0.1490 -1.4867 -1.0737
 2913SOL    HW218949   1.143   7.326   1.392 -0.4256 -0.4905 -0.4749
 2914SOL     OW18950   0.382   3.926   1.846 -0.1350 -0.4144 -0.1583
 2914SOL    HW118951   0.481   3.938   1.850 -0.3768  2.8651 -2.3623
 2914SOL    HW218952   0.336   4.004   1.889 -1.7816 -0.4667 -1.7437
 2915SOL     OW18953   2.586   4.269   3.177  0.7040  0.1670  0.4440
 2915SOL    HW118954   2.498   4.236   3.141 -0.0633  1.1768  1.3445
 2915SOL    HW218955   2.583   4.268   3.277  1.9544 -0.3921  0.4737
 2916SOL     OW18956   3.186   8.270   2.829  0.6213  0.5295 -0.6174
 2916SOL    HW118957   3.207   8.332   2.905  0.5365  0.7914 -0.8111
 2916SOL    HW218958   3.227   8.304   2.745 -0.3404  0.8980 -0.9423
 2917SOL     OW18959   3.140   4.740   1.439 -0.0438 -0.0708 -0.1644
 2917SOL    HW118960   3.139   4.774   1.345  0.8745  1.7969  0.4729
 2917SOL    HW218961   3.146   4.640   1.438 -0.3666 -0.0883 -2.0877
 2918SOL     OW18962   8.728   2.437   0.488  0.7850  0.0401  0.1639
 2918SOL    HW118963   8.732   2.337   0.476  1.3060  0.2284 -1.3560
 2918SOL    HW218964   8.635   2.463   0.513  0.5357 -0.7956  0.1543
 2919SOL     OW18965   0.753   7.993   2.996  0.0520  0.5660 -0.2291
 2919SOL    HW118966   0.707   8.036   3.074  1.7809  0.3871  0.9161
 2919SOL    HW218967   0.688   7.981   2.921 -1.0395  2.9857  0.3017
 2920SOL     OW18968   9.473   3.853   1.964 -0.5369  0.1923 -0.4021
 2920SOL    HW118969   9.534   3.816   2.033 -0.8803 -2.8061 -1.6163
 2920SOL    HW218970   9.409   3.782   1.934 -2.8279  2.4784 -1.1257
 2921SOL     OW18971   0.923   7.786   1.259  0.1605  0.6406 -0.1815
 2921SOL    HW118972   1.008   7.766   1.308 -0.2681  0.0131  0.3127
 2921SOL    HW218973   0.880   7.701   1.231 -0.4526  0.9554 -0.1892
 2922SOL     OW18974   1.667   3.954   0.228  0.5005 -0.1653 -0.6014
 2922SOL    HW118975   1.733   3.890   0.189 -0.7318 -0.3374 -2.4708
 2922SOL    HW218976   1.608   3.906   0.293  0.4055 -0.6437 -1.0384
 2923SOL     OW18977   0.535   3.641   2.161  0.1766  0.1322 -0.1288
 2923SOL    HW118978   0.626   3.601   2.150  0.7541  1.7437 -1.5554
 2923SOL    HW218979   0.543   3.741   2.163 -1.7478  0.4106 -2.6741
 2924SOL     OW18980   0.085   6.006   2.334 -0.0172  0.1484 -0.7068
 2924SOL    HW118981   0.004   6.064   2.335  0.7539  1.2451 -0.1093
 2924SOL    HW218982   0.137   6.019   2.418  0.0236 -1.6567 -0.4280
 2925SOL     OW18983   3.278   4.910   0.534  0.2977 -0.3102  0.2198
 2925SOL    HW118984   3.309   4.859   0.453  1.0065 -0.7502  0.7688
 2925SOL    HW218985   3.207   4.858   0.580  0.5187 -0.4736  0.3777
 2926SOL     OW18986   4.557   3.866   0.063 -0.2653  0.2942 -0.2258
 2926SOL    HW118987   4.640   3.813   0.080 -0.1613 -0.0225 -1.6221
 2926SOL    HW218988   4.494   3.813   0.006 -0.8653  1.0326 -0.2730
 2927SOL     OW18989   8.905   4.653   0.526  0.3907 -0.2815  0.5918
 2927SOL    HW118990   8.898   4.747   0.492 -0.6536 -1.3071 -2.1528
 2927SOL    HW218991   8.827   4.600   0.494  1.4263 -2.3210  1.3468
 2928SOL     OW18992   0.833   6.524   1.522 -1.0430  0.3409 -0.8224
 2928SOL    HW118993   0.870   6.492   1.435 -2.6330  0.0091 -1.3819
 2928SOL    HW218994   0.752   6.580   1.506  0.4677  2.9420  0.2656
 2929SOL     OW18995   8.894   0.488   2.648  0.3824  0.1317  0.2378
 2929SOL    HW118996   8.819   0.546   2.679  1.5049  0.1326  3.0629
 2929SOL    HW218997   8.978   0.542   2.643  0.9315 -0.6964  0.5148
 2930SOL     OW18998   3.387   3.400   0.586  0.2721  0.7129 -0.1839
 2930SOL    HW118999   3.332   3.481   0.605 -0.0194  1.0296 -2.3213
 2930SOL    HW219000   3.327   3.320   0.581  0.2041  0.8032 -0.8595
 2931SOL     OW19001   2.695   5.234   2.591  0.0169  0.2061 -0.0436
 2931SOL    HW119002   2.793   5.249   2.581  0.0557 -0.3952 -0.5904
 2931SOL    HW219003   2.674   5.138   2.575 -0.4988  0.0777  1.4188
 2932SOL     OW19004   3.058   8.963   2.147 -0.3674  0.8988 -0.2738
 2932SOL    HW119005   2.975   8.971   2.202 -0.5918  1.8996 -0.7392
 2932SOL    HW219006   3.053   8.879   2.092  0.1593 -0.4565  1.6846
 2933SOL     OW19007   3.164   8.133   1.619  0.1580 -0.2311  0.7738
 2933SOL    HW119008   3.258   8.137   1.655  0.1907  1.1106  0.5581
 2933SOL    HW219009   3.158   8.061   1.550  0.7035 -1.2001  1.7225
 2934SOL     OW19010   0.243   0.496   1.230 -0.0081  0.1965 -0.2834
 2934SOL    HW119011   0.197   0.583   1.213 -0.3427  0.1023  0.1497
 2934SOL    HW219012   0.176   0.427   1.257  0.4515  0.2030  0.8833
 2935SOL     OW19013   9.358   5.062   2.517  0.0231 -0.6433 -0.2941
 2935SOL    HW119014   9.283   5.127   2.531  0.8868  0.4622 -0.7146
 2935SOL    HW219015   9.330   4.972   2.549 -1.2211 -0.0852  0.2322
 2936SOL     OW19016   2.138   0.229   0.607  0.2020 -0.0753 -0.4673
 2936SOL    HW119017   2.221   0.276   0.636 -1.2574  1.7290  0.9327
 2936SOL    HW219018   2.083   0.291   0.551 -1.2194 -0.4536  0.4771
 2937SOL     OW19019   4.652   7.993   2.434 -0.1323 -0.3060  0.0100
 2937SOL    HW119020   4.689   7.925   2.371  1.3063 -0.5271  1.0779
 2937SOL    HW219021   4.560   7.964   2.463  0.4715 -1.8139  0.4601
 2938SOL     OW19022   0.091   3.394   2.209  0.7143  0.4195 -0.4754
 2938SOL    HW119023   0.056   3.359   2.295  0.1027 -0.7621 -1.1889
 2938SOL    HW219024   0.063   3.490   2.198  2.1097  1.0496  1.3301
 2939SOL     OW19025   0.826   7.496   1.279 -0.0941  0.4969  0.6321
 2939SOL    HW119026   0.790   7.477   1.370 -0.7243  1.3576  0.5721
 2939SOL    HW219027   0.912   7.446   1.266 -1.1854 -1.4956  0.8224
 2940SOL     OW19028   3.590   8.743   3.114  0.0775 -0.5984  1.1194
 2940SOL    HW119029   3.571   8.690   3.031  0.7436  0.4269  0.3079
 2940SOL    HW219030   3.689   8.756   3.123 -0.0628  0.1389  1.5572
 2941SOL     OW19031   2.149   6.277   3.143 -0.8025 -0.1131 -0.6596
 2941SOL    HW119032   2.054   6.297   3.167 -0.4128 -1.1575  1.9445
 2941SOL    HW219033   2.153   6.233   3.053 -2.8058 -0.2791 -0.6764
 2942SOL     OW19034   8.919   0.556   3.079 -0.5088 -1.0375  0.7783
 2942SOL    HW119035   8.850   0.529   3.147 -0.8494 -1.1790  0.3734
 2942SOL    HW219036   8.957   0.475   3.036 -3.2068 -0.8310 -2.1183
 2943SOL     OW19037   3.211   9.315   2.135  0.1365 -0.5662  0.3151
 2943SOL    HW119038   3.173   9.379   2.069 -0.7727  1.8485  3.0968
 2943SOL    HW219039   3.150   9.236   2.143  0.7404 -1.3632 -2.3603
 2944SOL     OW19040   9.852   1.152   0.507  0.3901  0.1362 -0.3768
 2944SOL    HW119041   9.937   1.132   0.555  0.7410  0.6071 -0.7965
 2944SOL    HW219042   9.867   1.225   0.440 -0.0787 -0.5319 -1.2279
 2945SOL     OW19043   0.185   0.482   2.804 -0.1306  0.1685 -0.0814
 2945SOL    HW119044   0.093   0.503   2.840  0.6592  1.0072  1.4976
 2945SOL    HW219045   0.233   0.423   2.869  0.8899  0.7492 -0.3084
 2946SOL     OW19046   3.297   4.416   0.479 -0.1746  0.1767 -0.0013
 2946SOL    HW119047   3.375   4.480   0.480 -2.4354  3.0482 -0.3612
 2946SOL    HW219048   3.291   4.370   0.567  1.8725 -0.0260  0.0647
 2947SOL     OW19049   1.984   8.348   0.215  0.0100 -0.0837  0.1137
 2947SOL    HW119050   2.049   8.327   0.288 -0.6203 -0.9997  0.4151
 2947SOL    HW219051   1.951   8.442   0.226 -0.1013 -0.2210  1.0274
 2948SOL     OW19052   9.066   2.730   3.258 -0.4380  0.4561 -0.2577
 2948SOL    HW119053   8.998   2.722   3.186  0.0522 -0.5467 -0.6218
 2948SOL    HW219054   9.021   2.737   3.347 -1.0191 -0.7578 -0.4457
 2949SOL     OW19055   3.957   9.681   0.334 -0.0841 -0.2900 -0.1026
 2949SOL    HW119056   3.984   9.777   0.333  0.1792 -0.3596  0.4010
 2949SOL    HW219057   3.935   9.652   0.240  0.3614  0.1120 -0.3328
 2950SOL     OW19058   1.847   6.371   2.249  0.2571 -0.3657  0.0383
 2950SOL    HW119059   1.817   6.465   2.236 -1.8350 -0.5457  2.9229
 2950SOL    HW219060   1.771   6.317   2.286  1.7338 -2.9461 -0.5714
 2951SOL     OW19061   8.266   4.134   0.090 -0.0082 -0.0151 -0.2797
 2951SOL    HW119062   8.237   4.049   0.045 -0.3981  0.1644 -0.3685
 2951SOL    HW219063   8.187   4.192   0.106  0.0002 -0.4409  1.4407
 2952SOL     OW19064   0.477   4.650   0.438  0.6535  0.2260 -0.2687
 2952SOL    HW119065   0.504   4.699   0.521  2.6652  0.2153 -0.8959
 2952SOL    HW219066   0.381   4.670   0.417  0.8502  2.2284  0.6685
 2953SOL     OW19067   2.068   7.326   2.686  0.0895 -0.3697  0.0238
 2953SOL    HW119068   2.156   7.332   2.638  0.3595 -1.6696  0.3279
 2953SOL    HW219069   2.066   7.241   2.740 -1.6338 -0.7080 -0.5479
 2954SOL     OW19070   3.974   0.656   0.267  0.1612  0.2158 -0.1394
 2954SOL    HW119071   3.924   0.613   0.191  1.7222 -0.5526 -0.7644
 2954SOL    HW219072   4.004   0.747   0.240 -0.2635  0.3862 -0.0342
 2955SOL     OW19073   0.000   7.767   3.208  0.1818 -0.5239  0.3419
 2955SOL    HW119074   0.077   7.813   3.252  0.3457 -0.5986  0.1321
 2955SOL    HW219075  -0.075   7.758   3.274  0.9396 -1.9082  1.0189
 2956SOL     OW19076   1.917   8.362   0.807  0.3261 -0.2963  0.3660
 2956SOL    HW119077   1.818   8.371   0.807  0.3818  0.6559  3.1176
 2956SOL    HW219078   1.959   8.453   0.807  1.2445 -0.6834 -1.5716
 2957SOL     OW19079   0.573   3.237   0.337  0.2172  0.2680 -0.0043
 2957SOL    HW119080   0.585   3.176   0.259 -0.2333  1.1623 -0.7921
 2957SOL    HW219081   0.513   3.313   0.311  0.8129  1.0795  0.9291
 2958SOL     OW19082   3.069   4.161   0.911 -0.2846  0.3106 -0.0569
 2958SOL    HW119083   3.117   4.094   0.855 -1.0482  0.4480 -0.8830
 2958SOL    HW219084   2.973   4.133   0.922 -1.0216  2.0783 -1.7603
 2959SOL     OW19085   9.101   2.391   1.695  0.4567  0.0676 -0.8294
 2959SOL    HW119086   9.094   2.293   1.710 -0.5509  0.1350 -0.8304
 2959SOL    HW219087   9.021   2.436   1.735  0.2961  0.7648 -1.9410
 2960SOL     OW19088   8.895   1.608   3.436 -0.0611 -0.0015  0.4412
 2960SOL    HW119089   8.830   1.578   3.506  1.8551 -2.7551  1.1434
 2960SOL    HW219090   8.923   1.529   3.381  3.1574  0.9747  0.5639
 2961SOL     OW19091   3.035   1.261   0.515 -1.1560 -0.1270  0.0650
 2961SOL    HW119092   3.130   1.277   0.491 -0.8976 -2.4710 -0.5987
 2961SOL    HW219093   3.003   1.332   0.577  1.7003 -0.5866  2.1094
 2962SOL     OW19094   3.929   1.909   0.606  0.2017  0.9316  0.2073
 2962SOL    HW119095   4.015   1.960   0.616 -0.0222  1.9910 -2.6614
 2962SOL    HW219096   3.930   1.860   0.519 -2.2525  1.2425 -0.0181
 2963SOL     OW19097   9.261   4.843   1.993 -0.0470 -0.6928 -0.6025
 2963SOL    HW119098   9.261   4.869   2.090 -0.3842 -0.3978 -0.6824
 2963SOL    HW219099   9.355   4.827   1.963  0.1030 -0.2693 -0.3656
 2964SOL     OW19100   3.922   8.538   2.725 -0.2214 -0.2349 -0.0798
 2964SOL    HW119101   3.997   8.472   2.737 -0.9444 -1.1540 -0.5546
 2964SOL    HW219102   3.946   8.624   2.770  1.0840 -0.5483 -0.1547
 2965SOL     OW19103   2.695   8.227   2.473 -0.2034  0.0459  0.1369
 2965SOL    HW119104   2.768   8.294   2.457  0.8669 -0.7216  1.7018
 2965SOL    HW219105   2.676   8.177   2.389  1.2328  0.0946 -0.2181
 2966SOL     OW19106   2.134   1.701   0.443 -0.1549  1.0589 -0.0898
 2966SOL    HW119107   2.141   1.602   0.435 -1.4443  1.1601 -3.9382
 2966SOL    HW219108   2.051   1.725   0.493 -1.1722  0.1594 -1.2993
 2967SOL     OW19109   1.817   1.323   0.077  0.2455 -0.3591  0.6199
 2967SOL    HW119110   1.814   1.295  -0.019  0.3000 -0.7970  0.7437
 2967SOL    HW219111   1.731   1.368   0.100  1.8876  3.6545 -0.7897
 2968SOL     OW19112   0.895   4.659   2.077  0.1064  0.2014  0.6345
 2968SOL    HW119113   0.827   4.731   2.091  0.3481  0.0729  2.6210
 2968SOL    HW219114   0.983   4.701   2.055 -0.4106  0.3891 -1.1835
 2969SOL     OW19115   8.130   3.539   3.220 -0.3169 -0.2755 -0.1287
 2969SOL    HW119116   8.074   3.576   3.294 -0.4737  0.0848 -0.4238
 2969SOL    HW219117   8.127   3.602   3.142  0.6477 -0.1685 -0.0825
 2970SOL     OW19118   8.516   4.111   0.933 -0.3386  0.0404  0.1661
 2970SOL    HW119119   8.544   4.203   0.907 -0.3055 -0.2378 -0.7949
 2970SOL    HW219120   8.421   4.097   0.906 -1.4901  1.0058  3.4608
 2971SOL     OW19121   9.027   3.086   2.676 -0.4819 -0.3474 -0.4582
 2971SOL    HW119122   8.974   3.055   2.597 -1.8264 -2.0314  1.0890
 2971SOL    HW219123   8.966   3.109   2.751  0.7892  1.3725  0.0993
 2972SOL     OW19124   8.415   1.931   2.407 -0.3209 -0.2867 -0.1597
 2972SOL    HW119125   8.417   1.917   2.506 -2.4215 -0.2728 -0.1023
 2972SOL    HW219126   8.459   1.854   2.362  1.1443 -0.0380  0.7905
 2973SOL     OW19127   9.691   3.238   1.387  0.2345 -0.0574  0.3615
 2973SOL    HW119128   9.661   3.220   1.293  1.3689  2.2440 -0.4786
 2973SOL    HW219129   9.788   3.215   1.395  0.7109  1.8341  0.3223
 2974SOL     OW19130   9.344   0.336   2.991 -0.3731 -0.2555  0.5560
 2974SOL    HW119131   9.413   0.295   2.932 -1.4616 -0.8402 -0.3157
 2974SOL    HW219132   9.345   0.290   3.080  0.0149 -0.5995  0.3757
 2975SOL     OW19133   7.744   2.405   0.807  0.1828 -0.5963  0.9004
 2975SOL    HW119134   7.801   2.375   0.884 -0.3531 -0.6482  1.2790
 2975SOL    HW219135   7.655   2.435   0.841  0.0072 -0.4512  0.3167
 2976SOL     OW19136   1.996   0.298   3.408 -0.4726 -0.4736 -0.6957
 2976SOL    HW119137   2.072   0.253   3.457  0.3330  0.7468 -0.7957
 2976SOL    HW219138   2.007   0.397   3.414 -2.9235 -0.2349  0.6357
 2977SOL     OW19139   1.548   8.975   3.114  0.2677 -0.4298 -0.9065
 2977SOL    HW119140   1.634   9.016   3.084  0.1724 -0.2088 -0.8759
 2977SOL    HW219141   1.472   9.015   3.062  0.2085 -0.8063 -1.1114
 2978SOL     OW19142   0.002   9.596   2.379 -0.4873 -0.5712 -0.1179
 2978SOL    HW119143   0.094   9.632   2.362  0.2011 -2.4419 -0.4711
 2978SOL    HW219144  -0.061   9.672   2.392  0.9482  0.7616 -0.7158
 2979SOL     OW19145   1.325   1.747   0.652  0.2157  0.4838  0.6868
 2979SOL    HW119146   1.232   1.721   0.678  0.2274 -1.8673 -1.5013
 2979SOL    HW219147   1.388   1.728   0.728 -0.5024 -1.5753  0.7767
 2980SOL     OW19148   0.593   2.890   3.346 -0.0291 -0.0150  0.1289
 2980SOL    HW119149   0.622   2.799   3.314  2.9148  0.5158  1.1475
 2980SOL    HW219150   0.634   2.960   3.289  0.4589  0.7611  1.4135
 2981SOL     OW19151   0.653   2.584   1.865  0.5051 -0.2568  0.3934
 2981SOL    HW119152   0.574   2.556   1.921  0.2817 -1.5774 -0.5543
 2981SOL    HW219153   0.731   2.603   1.925 -0.2383  0.0481  1.2723
 2982SOL     OW19154   1.611   1.308   3.270  0.7896 -0.0435  0.6911
 2982SOL    HW119155   1.678   1.233   3.264 -0.3666 -1.0597  0.2459
 2982SOL    HW219156   1.620   1.367   3.190  0.0712 -1.1064 -0.1848
 2983SOL     OW19157   7.615   1.217   0.397  0.4406 -0.3748  0.2652
 2983SOL    HW119158   7.563   1.234   0.481  3.9641  3.6563  1.8156
 2983SOL    HW219159   7.700   1.169   0.420  1.0390 -0.0165 -1.1305
 2984SOL     OW19160   3.287   6.528   3.413 -0.4583  0.0636 -0.1450
 2984SOL    HW119161   3.317   6.454   3.473  0.8980  0.6292 -0.1252
 2984SOL    HW219162   3.246   6.489   3.331  0.7314 -0.7099 -0.3780
 2985SOL     OW19163   3.212   1.931   1.611  0.2781 -0.1288  0.3829
 2985SOL    HW119164   3.241   1.987   1.689  0.1138  0.9791 -0.3539
 2985SOL    HW219165   3.112   1.931   1.606  0.3216  0.8367 -0.5800
 2986SOL     OW19166   3.342   0.272   2.541  0.6384 -0.5445 -0.1002
 2986SOL    HW119167   3.375   0.363   2.516  1.8637 -0.9880 -0.1333
 2986SOL    HW219168   3.248   0.260   2.507 -0.1732  1.3208  1.4194
 2987SOL     OW19169   9.973   1.311   2.341 -0.1372  0.6355  0.3154
 2987SOL    HW119170   9.891   1.288   2.289 -0.0490  2.5601 -0.7354
 2987SOL    HW219171   9.957   1.293   2.438 -2.0065  1.4844  0.1968
 2988SOL     OW19172   4.244   9.556   1.711  0.1164  0.0220 -0.3614
 2988SOL    HW119173   4.236   9.589   1.617  0.6711 -0.4662 -0.5797
 2988SOL    HW219174   4.163   9.583   1.762 -0.4616 -0.2101 -1.1387
 2989SOL     OW19175   1.024   7.503   1.602  0.2053  0.0126  0.2160
 2989SOL    HW119176   0.927   7.508   1.623  0.1667  0.3347 -0.0287
 2989SOL    HW219177   1.051   7.408   1.588 -0.4028  0.0335 -1.2097
 2990SOL     OW19178   0.834   8.509   1.750 -0.0297 -0.1581 -0.0033
 2990SOL    HW119179   0.791   8.420   1.732  1.3786 -1.0067  0.6997
 2990SOL    HW219180   0.806   8.574   1.680 -2.0469 -0.8213  0.1483
 2991SOL     OW19181   1.720   3.432   0.696  0.7808 -0.1412 -0.1632
 2991SOL    HW119182   1.699   3.409   0.791  1.1243  2.1046  0.4746
 2991SOL    HW219183   1.636   3.427   0.641  0.3301 -0.1495  0.5249
 2992SOL     OW19184   1.526   3.881   2.934  0.3667  0.3327  0.2797
 2992SOL    HW119185   1.596   3.922   2.992  2.0256 -1.3179 -0.5278
 2992SOL    HW219186   1.436   3.899   2.974  1.4149  0.0401  2.8782
 2993SOL     OW19187   3.741   4.022   1.988 -0.0519 -0.1433 -0.1314
 2993SOL    HW119188   3.707   4.046   2.079 -0.9279  0.9777 -0.7426
 2993SOL    HW219189   3.839   4.000   1.994 -0.6935 -2.9320  1.5650
 2994SOL     OW19190   0.381   8.035   0.365  0.0603 -0.4308  0.1594
 2994SOL    HW119191   0.468   7.993   0.340 -0.5291 -1.1849 -0.6535
 2994SOL    HW219192   0.399   8.124   0.408  1.3267 -1.6794  2.3236
 2995SOL     OW19193   3.487   1.215   2.015 -0.3487  0.7123  0.5060
 2995SOL    HW119194   3.567   1.265   1.982  0.3515 -0.3270  0.6139
 2995SOL    HW219195   3.463   1.247   2.107 -0.0694  1.0376  0.4668
 2996SOL     OW19196   5.369   8.529   2.597  0.0607  0.2597 -0.3926
 2996SOL    HW119197   5.364   8.608   2.659  1.8584 -0.5324  0.7828
 2996SOL    HW219198   5.434   8.548   2.524 -0.8197  0.5381 -1.1110
 2997SOL     OW19199   2.645   7.076   0.924 -0.0186  0.1003 -0.3884
 2997SOL    HW119200   2.688   7.128   0.998  0.2967  3.4613 -2.8181
 2997SOL    HW219201   2.715   7.040   0.863 -0.4221  1.4508 -1.6734
 2998SOL     OW19202   9.631   5.748   1.031  0.1237 -0.1505 -0.6051
 2998SOL    HW119203   9.576   5.831   1.041 -1.7386 -1.2519 -1.4299
 2998SOL    HW219204   9.714   5.756   1.086 -0.4734  1.8807  0.0375
 2999SOL     OW19205   0.450   9.472   1.389 -0.7337  0.1266 -0.5273
 2999SOL    HW119206   0.401   9.386   1.399 -0.4281  0.2058  1.9155
 2999SOL    HW219207   0.533   9.457   1.334  0.6988 -1.7506  2.0336
 3000SOL     OW19208   1.732   9.648   0.847 -0.3924  0.3157 -0.0961
 3000SOL    HW119209   1.812   9.595   0.821  0.3760  1.8696 -0.9937
 3000SOL    HW219210   1.667   9.590   0.897  1.1003 -1.0460  0.2766
 3001SOL     OW19211   4.318   1.781   2.356 -0.2678  0.4651  0.4278
 3001SOL    HW119212   4.256   1.703   2.363  0.7296 -0.3500  0.2818
 3001SOL    HW219213   4.370   1.774   2.270  0.0706  1.0981  0.5800
 3002SOL     OW19214   1.934   3.251   2.183  0.1928 -0.2459  0.0553
 3002SOL    HW119215   1.983   3.164   2.177 -0.2937 -0.7354  2.6419
 3002SOL    HW219216   1.847   3.238   2.231 -0.9223  1.2532 -1.4974
 3003SOL     OW19217   1.247   2.890   1.181 -0.0961 -0.0751  0.0360
 3003SOL    HW119218   1.278   2.840   1.261  0.0513 -0.9163 -0.5347
 3003SOL    HW219219   1.150   2.912   1.191 -1.0062 -3.2807 -1.0745
 3004SOL     OW19220   3.265   9.548   0.838  0.1058 -0.2485  0.8581
 3004SOL    HW119221   3.215   9.462   0.840 -1.5580  0.7316  2.7845
 3004SOL    HW219222   3.233   9.603   0.760 -1.7515  0.2886  1.9588
 3005SOL     OW19223   8.476   2.379   0.196 -0.0595 -0.4690 -0.6172
 3005SOL    HW119224   8.548   2.411   0.135 -0.3294 -0.2458 -0.8214
 3005SOL    HW219225   8.443   2.290   0.165  1.4701 -1.4848  0.6001
 3006SOL     OW19226   0.784   3.701   0.834 -0.1872  0.5592  0.5872
 3006SOL    HW119227   0.797   3.800   0.829  2.3395  0.2784  0.8097
 3006SOL    HW219228   0.784   3.664   0.741 -0.3688  0.6743  0.5400
 3007SOL     OW19229   3.542   1.110   3.337  0.2354 -0.0508 -0.5519
 3007SOL    HW119230   3.547   1.143   3.432  0.1899  0.6469 -0.7946
 3007SOL    HW219231   3.454   1.064   3.323  0.4393 -0.5865 -0.1175
 3008SOL     OW19232   1.639   0.705   2.051  0.3535  0.1803  0.2920
 3008SOL    HW119233   1.582   0.645   2.107 -0.4535  1.2569  0.6483
 3008SOL    HW219234   1.729   0.715   2.095  0.2628 -0.2325  0.5751
 3009SOL     OW19235   0.867   9.280   0.830 -0.3773 -0.7264  0.0454
 3009SOL    HW119236   0.843   9.252   0.923 -1.6054 -1.7308 -0.5413
 3009SOL    HW219237   0.788   9.264   0.770  0.7078 -0.9881 -1.3355
 3010SOL     OW19238   2.539   7.456   3.280 -0.8032 -0.2623  0.2428
 3010SOL    HW119239   2.570   7.548   3.304 -0.4529  0.4202 -2.6467
 3010SOL    HW219240   2.597   7.419   3.207 -0.6295 -2.9896  1.7159
 3011SOL     OW19241   2.720   5.973   1.871  0.1709  0.6379 -0.0199
 3011SOL    HW119242   2.648   5.928   1.923  1.1247  0.4431  1.1476
 3011SOL    HW219243   2.795   5.908   1.856 -0.0637  0.6997 -1.6035
 3012SOL     OW19244   3.434   3.492   1.029  0.1803  0.9795  0.3430
 3012SOL    HW119245   3.439   3.403   1.076 -1.8939  0.8689  0.4101
 3012SOL    HW219246   3.392   3.559   1.089 -0.6787  1.3392 -0.6414
 3013SOL     OW19247   3.936   9.675   1.374  0.4318  0.1404  0.4996
 3013SOL    HW119248   3.871   9.687   1.449  0.3750  1.4528  0.2610
 3013SOL    HW219249   3.897   9.613   1.306 -1.8286  3.0968 -1.0128
 3014SOL     OW19250   2.729   6.228   1.994 -0.4021  0.2657  0.1739
 3014SOL    HW119251   2.735   6.133   1.967  0.8487  0.0509  1.1585
 3014SOL    HW219252   2.764   6.239   2.087  0.5157  1.8543 -0.3248
 3015SOL     OW19253   1.006   3.321   0.096  0.1950 -0.1115  0.2833
 3015SOL    HW119254   1.043   3.385   0.164  0.6700 -2.3234  2.1687
 3015SOL    HW219255   0.917   3.353   0.064 -2.0342 -1.1624  5.1388
 3016SOL     OW19256   1.582   6.942   0.195  0.3526 -0.0660  0.2037
 3016SOL    HW119257   1.660   6.879   0.198  0.3753 -0.1989 -2.4911
 3016SOL    HW219258   1.617   7.036   0.186  0.2007 -0.1996 -1.8903
 3017SOL     OW19259   4.020   8.140   0.294  0.1037 -0.0615 -0.5086
 3017SOL    HW119260   3.985   8.179   0.379 -1.8057  1.5729 -1.9844
 3017SOL    HW219261   4.094   8.076   0.314 -1.0854 -0.5779  2.4437
 3018SOL     OW19262   9.888   0.523   2.184 -0.3274 -1.2698  0.8140
 3018SOL    HW119263   9.940   0.485   2.108 -0.5233 -0.9409  0.5125
 3018SOL    HW219264   9.792   0.536   2.156 -0.2560 -0.5369  0.9065
 3019SOL     OW19265   3.150   6.118   2.189 -0.1508  0.0433 -0.2959
 3019SOL    HW119266   3.057   6.154   2.194 -0.5214 -0.9071 -0.0199
 3019SOL    HW219267   3.191   6.142   2.102  0.6689  3.5666  1.0042
 3020SOL     OW19268   3.179   4.494   0.011 -0.4915  0.3500 -0.6403
 3020SOL    HW119269   3.154   4.514   0.105  1.3448  0.0663 -0.0638
 3020SOL    HW219270   3.221   4.575  -0.031 -1.9520  0.7006 -1.4546
 3021SOL     OW19271   9.778   9.049   1.329 -0.6011  0.3857  0.1343
 3021SOL    HW119272   9.756   9.103   1.248 -3.4559 -0.3510  0.3607
 3021SOL    HW219273   9.717   9.075   1.404 -1.2755 -2.3606  0.5844
 3022SOL     OW19274   0.791   3.577   2.680 -0.2314  0.0905 -0.2762
 3022SOL    HW119275   0.795   3.576   2.780 -0.8283 -1.3846 -0.2690
 3022SOL    HW219276   0.873   3.533   2.643 -0.4476 -0.1748 -0.4358
 3023SOL     OW19277   9.846   4.995   2.741  0.7654 -0.0064  0.6693
 3023SOL    HW119278   9.850   4.956   2.833 -0.8695 -0.2991  0.6347
 3023SOL    HW219279   9.751   5.009   2.715  1.2539  1.3624 -0.4527
 3024SOL     OW19280   8.589   2.627   2.003 -0.5375  0.0156  0.0911
 3024SOL    HW119281   8.550   2.665   2.087  4.0256  0.0427  2.3662
 3024SOL    HW219282   8.679   2.668   1.987  0.9493 -3.8308 -1.9182
 3025SOL     OW19283   2.193   1.866   2.626  0.0530  0.3128  0.7045
 3025SOL    HW119284   2.228   1.773   2.617  0.7180  0.5128  1.1805
 3025SOL    HW219285   2.191   1.910   2.536  0.9133  0.2596  0.6626
 3026SOL     OW19286   0.260   1.412   1.003 -0.5651  0.0612  0.4749
 3026SOL    HW119287   0.340   1.388   0.948 -0.0161  1.1825  0.7697
 3026SOL    HW219288   0.284   1.485   1.068 -2.5116  2.4375 -1.3488
 3027SOL     OW19289   4.108   8.837   1.930  0.1232  0.1012 -0.2377
 3027SOL    HW119290   4.153   8.806   1.846  2.5159  0.5957  0.8212
 3027SOL    HW219291   4.062   8.760   1.974  0.6459 -0.5960 -0.9078
 3028SOL     OW19292   0.432   7.454   2.862 -0.0469 -0.0460 -0.1137
 3028SOL    HW119293   0.381   7.514   2.799 -1.3514 -1.2478 -0.2277
 3028SOL    HW219294   0.486   7.389   2.809 -0.0041 -0.1040  0.0010
 3029SOL     OW19295   3.930   7.993   1.642 -0.3085 -0.2442 -0.4305
 3029SOL    HW119296   3.892   7.953   1.726 -1.8203  2.4459  0.2088
 3029SOL    HW219297   3.913   7.931   1.565 -2.3316 -0.9964  0.5848
 3030SOL     OW19298   2.167   3.207   0.087 -0.7634 -0.4420 -0.2301
 3030SOL    HW119299   2.232   3.255   0.146 -0.4387 -0.4806 -0.5564
 3030SOL    HW219300   2.074   3.235   0.111 -0.6277 -0.4031  0.2517
 3031SOL     OW19301   0.228   3.315   0.440  0.3019  0.3805 -0.4014
 3031SOL    HW119302   0.267   3.395   0.484  0.2240  0.5389 -0.6175
 3031SOL    HW219303   0.162   3.344   0.370  1.7613  0.1917 -1.8962
 3032SOL     OW19304   2.948   3.504   2.345 -0.8217  0.5849 -0.3552
 3032SOL    HW119305   3.046   3.515   2.331 -0.7103 -0.8235 -0.8612
 3032SOL    HW219306   2.902   3.498   2.256 -1.1343 -0.4161 -0.1418
 3033SOL     OW19307   1.711   8.322   2.056  0.1205 -0.2564  0.1634
 3033SOL    HW119308   1.653   8.344   1.978 -0.0984  0.4827  0.5229
 3033SOL    HW219309   1.805   8.309   2.026  0.2969  1.4056 -0.0517
 3034SOL     OW19310   0.965   8.005   2.619  0.0989 -0.7785  0.2194
 3034SOL    HW119311   1.016   7.924   2.646  1.2680 -0.8287 -2.0217
 3034SOL    HW219312   1.017   8.087   2.643  1.4180 -0.8339 -2.2915
 3035SOL     OW19313   3.368   1.577   2.927 -0.3270 -0.2267 -0.4386
 3035SOL    HW119314   3.387   1.486   2.889  1.8591  0.6313 -1.4844
 3035SOL    HW219315   3.393   1.577   3.024 -0.0924 -0.6789 -0.4925
 3036SOL     OW19316   8.757   0.421   3.251 -0.2955  0.1648  0.1016
 3036SOL    HW119317   8.688   0.486   3.282  0.5090  0.2304  1.7702
 3036SOL    HW219318   8.715   0.357   3.186 -2.2923 -0.6405  2.1206
 3037SOL     OW19319   0.124   9.778   1.831  0.1548 -0.0072  0.0364
 3037SOL    HW119320   0.046   9.823   1.873 -0.0875  0.1853 -0.6256
 3037SOL    HW219321   0.205   9.793   1.888 -0.3115 -0.3151  0.7851
 3038SOL     OW19322   1.051   1.108   1.354 -0.7330  0.4121 -0.0486
 3038SOL    HW119323   1.080   1.143   1.265 -0.8007  1.8873  0.4960
 3038SOL    HW219324   1.114   1.036   1.384  1.0501  1.9540  0.0481
 3039SOL     OW19325   0.332   5.291   3.321  0.0326 -0.3107 -0.7567
 3039SOL    HW119326   0.341   5.200   3.363 -2.1937 -0.4496 -0.4747
 3039SOL    HW219327   0.335   5.282   3.222  0.8968 -0.5618 -0.7077
 3040SOL     OW19328   8.248   2.927   1.539 -0.2146  0.2309  1.0543
 3040SOL    HW119329   8.317   2.892   1.476 -0.2112  1.0464  0.5988
 3040SOL    HW219330   8.292   2.946   1.628 -0.2117 -0.8786  1.3046
 3041SOL     OW19331   2.533   7.536   1.931 -0.2385 -0.0932  0.0920
 3041SOL    HW119332   2.565   7.455   1.882  0.2515 -0.3169  0.7731
 3041SOL    HW219333   2.438   7.554   1.907  0.2277  0.2926 -1.5814
 3042SOL     OW19334   7.980   0.364   3.082  0.2323 -0.0414  0.5292
 3042SOL    HW119335   7.906   0.427   3.057  0.2456 -0.1312  0.2662
 3042SOL    HW219336   8.053   0.368   3.014 -1.0336 -2.4470 -1.0300
 3043SOL     OW19337   1.306   4.496   1.216  0.0965 -0.5947  0.1239
 3043SOL    HW119338   1.320   4.446   1.302  0.0386 -0.2606  0.3269
 3043SOL    HW219339   1.269   4.587   1.236 -0.2426 -0.6434 -0.2744
 3044SOL     OW19340   2.177   4.128   0.892 -0.6791 -0.2413  0.3719
 3044SOL    HW119341   2.110   4.111   0.964 -0.0140 -0.6922  0.8939
 3044SOL    HW219342   2.137   4.103   0.803 -0.8010 -1.5939  0.8022
 3045SOL     OW19343   0.990   4.832   3.019  0.7986 -0.9462 -0.0181
 3045SOL    HW119344   1.044   4.817   2.936  0.1779  0.2903 -0.6585
 3045SOL    HW219345   0.962   4.928   3.023  0.6921 -1.0425  1.5450
 3046SOL     OW19346   1.422   5.599   0.636 -0.2873  0.5106  0.1416
 3046SOL    HW119347   1.376   5.686   0.653  2.6777  2.1455  0.0568
 3046SOL    HW219348   1.427   5.547   0.722 -3.6734 -0.4496 -0.1748
 3047SOL     OW19349   1.833   1.602   2.477 -0.1059  0.0328  0.3438
 3047SOL    HW119350   1.848   1.544   2.397  3.3590  1.6548 -0.2666
 3047SOL    HW219351   1.839   1.546   2.560 -0.5787 -1.1042 -0.3737
 3048SOL     OW19352   2.281   3.957   0.451  0.5567  0.3507 -0.0677
 3048SOL    HW119353   2.185   3.971   0.428  0.4760  0.2712  0.2266
 3048SOL    HW219354   2.300   3.996   0.541  0.5556 -0.5763  0.3388
 3049SOL     OW19355   0.263   2.245   0.753 -0.1256 -0.0683 -0.1590
 3049SOL    HW119356   0.342   2.189   0.728 -0.1357 -0.8951  1.5764
 3049SOL    HW219357   0.248   2.315   0.683  2.0094 -0.0354 -0.6226
 3050SOL     OW19358   0.196   9.160   0.466  0.6950 -0.1387  0.0163
 3050SOL    HW119359   0.197   9.125   0.373 -0.8122 -0.6619  0.1819
 3050SOL    HW219360   0.133   9.105   0.522  1.1332  0.5306  1.1889
 3051SOL     OW19361   3.422   2.733   0.142  0.1032 -0.5203 -0.1401
 3051SOL    HW119362   3.438   2.818   0.192 -0.3328  0.2208 -1.2223
 3051SOL    HW219363   3.325   2.724   0.121  0.1271 -1.3608  0.1011
 3052SOL     OW19364   0.691   6.262   0.538 -0.0121  0.1273  0.2115
 3052SOL    HW119365   0.744   6.195   0.486  1.1358  1.4322 -0.3153
 3052SOL    HW219366   0.620   6.214   0.590  0.8808 -1.5166 -0.0315
 3053SOL     OW19367   3.734   9.419   0.102  0.2424 -0.4097 -0.1434
 3053SOL    HW119368   3.754   9.491   0.036 -0.3335  0.8758  1.0699
 3053SOL    HW219369   3.661   9.449   0.163 -0.5672 -2.3404 -0.1340
 3054SOL     OW19370   3.020   8.128   1.965  0.7935  0.0274  0.9283
 3054SOL    HW119371   3.018   8.218   2.009 -1.2828  0.6770 -0.3741
 3054SOL    HW219372   2.927   8.090   1.964  0.7440  0.0058 -2.6884
 3055SOL     OW19373   4.023   9.352   3.263  0.0272  0.3246  0.0338
 3055SOL    HW119374   4.048   9.277   3.201 -0.9354 -0.1713  0.2333
 3055SOL    HW219375   3.923   9.361   3.265  0.1554  1.9469 -0.3826
 3056SOL     OW19376   1.639   3.589   2.904  0.5658 -0.2146 -0.4288
 3056SOL    HW119377   1.734   3.614   2.920  0.4804 -0.5381  0.5897
 3056SOL    HW219378   1.607   3.527   2.976  0.0651 -1.4024 -1.6231
 3057SOL     OW19379   4.217   7.967   0.330 -0.0117  0.2218 -0.2689
 3057SOL    HW119380   4.149   7.926   0.270 -2.7896  0.6304  2.4608
 3057SOL    HW219381   4.309   7.948   0.294 -1.4482 -1.9263 -3.0514
 3058SOL     OW19382   8.945   1.472   2.054 -0.7282 -0.1498 -0.1779
 3058SOL    HW119383   9.001   1.489   1.973 -0.6765 -1.4400 -0.4301
 3058SOL    HW219384   8.987   1.513   2.134 -0.7092  1.0271 -0.7860
 3059SOL     OW19385   1.373   4.747   0.443  0.6038 -0.3016 -0.0518
 3059SOL    HW119386   1.303   4.759   0.372 -1.2821  0.6846  1.9057
 3059SOL    HW219387   1.426   4.830   0.452  0.1356 -0.0459  0.4012
 3060SOL     OW19388   3.184   0.726   0.845 -0.1375  0.3298  0.0985
 3060SOL    HW119389   3.155   0.822   0.841 -1.1756 -0.0474 -2.7584
 3060SOL    HW219390   3.104   0.666   0.841  0.6712 -0.6709 -2.3597
 3061SOL     OW19391   3.436   3.122   0.999  0.2939  0.0850 -0.3763
 3061SOL    HW119392   3.353   3.176   0.989  1.1856  1.4405 -0.7716
 3061SOL    HW219393   3.430   3.040   0.942 -0.4732  0.5612 -0.9943
 3062SOL     OW19394   1.254   6.854   3.079  0.1315 -0.1868 -0.0289
 3062SOL    HW119395   1.194   6.922   3.037 -0.4555 -1.1535 -0.7664
 3062SOL    HW219396   1.317   6.900   3.141 -1.3740  0.8234  0.7739
 3063SOL     OW19397   4.429   3.201   1.306  0.6582  0.1128 -0.0550
 3063SOL    HW119398   4.455   3.106   1.326  2.0053  0.0787 -1.8343
 3063SOL    HW219399   4.506   3.249   1.265  0.0332  2.0505  0.9756
 3064SOL     OW19400   0.321   0.745   1.088  0.4129  0.0050 -0.0292
 3064SOL    HW119401   0.330   0.687   1.007  0.5657 -0.3612  0.2474
 3064SOL    HW219402   0.403   0.802   1.097  0.7828 -0.5870  0.3587
 3065SOL     OW19403   9.413   2.058   1.343  0.2009 -0.0527  0.2926
 3065SOL    HW119404   9.400   1.960   1.357  5.4065 -1.1494 -1.3551
 3065SOL    HW219405   9.455   2.098   1.425 -0.2997  0.4715  0.3003
 3066SOL     OW19406   2.365   4.452   2.048  0.2968  0.0910 -0.4116
 3066SOL    HW119407   2.461   4.473   2.067  0.4182 -0.5316 -0.3175
 3066SOL    HW219408   2.307   4.521   2.092  0.7666  2.0459 -2.7242
 3067SOL     OW19409   0.189   1.480   2.629  0.3352  0.2473 -0.7061
 3067SOL    HW119410   0.281   1.447   2.649 -0.3405  0.3048  2.8111
 3067SOL    HW219411   0.192   1.578   2.607  1.1322  0.2001 -0.8088
 3068SOL     OW19412   0.524   7.154   2.370 -0.0557 -0.3937 -0.3111
 3068SOL    HW119413   0.465   7.210   2.312  0.4136 -0.7043 -1.0963
 3068SOL    HW219414   0.485   7.062   2.379 -0.3105 -0.2433  0.1642
 3069SOL     OW19415   0.682   5.311   0.440 -0.3221  0.6468  1.1543
 3069SOL    HW119416   0.613   5.243   0.463 -1.2480  0.4414 -1.9614
 3069SOL    HW219417   0.639   5.387   0.392  1.7067 -0.1272 -2.1124
 3070SOL     OW19418   0.403   0.177   2.285  0.3632 -0.0148  0.2052
 3070SOL    HW119419   0.431   0.107   2.351  1.7812  1.5289  1.3054
 3070SOL    HW219420   0.427   0.148   2.193 -0.4320 -1.6201  0.4876
 3071SOL     OW19421   3.198   5.571   2.804 -0.2561 -0.4154 -0.0932
 3071SOL    HW119422   3.176   5.645   2.740  0.6689 -2.1465 -2.4939
 3071SOL    HW219423   3.297   5.570   2.821 -0.0973 -1.8333 -1.0364
 3072SOL     OW19424   1.154   9.481   2.608 -0.1722 -0.0849 -0.1566
 3072SOL    HW119425   1.068   9.519   2.640 -0.0924 -1.0023  1.1753
 3072SOL    HW219426   1.136   9.405   2.546 -0.3242 -0.8295  0.7974
 3073SOL     OW19427   1.532   2.925   0.676 -0.0075  0.4167 -0.8480
 3073SOL    HW119428   1.493   2.836   0.651  0.4667 -0.0813  0.1374
 3073SOL    HW219429   1.458   2.989   0.697 -0.3369 -0.6377  1.3856
 3074SOL     OW19430   2.589   9.017   1.359 -0.8566 -0.0282 -0.3688
 3074SOL    HW119431   2.556   8.924   1.378  1.2405 -0.3095  2.1878
 3074SOL    HW219432   2.653   9.014   1.282  0.3277 -0.9796  0.6250
 3075SOL     OW19433   4.129   9.604   3.287 -0.0704 -0.1984  0.4946
 3075SOL    HW119434   4.171   9.647   3.207 -0.3207 -0.1816  0.3723
 3075SOL    HW219435   4.076   9.524   3.259 -2.1855  1.2207  0.3259
 3076SOL     OW19436   3.190   1.505   3.430 -0.4933 -0.1330 -0.3911
 3076SOL    HW119437   3.103   1.544   3.398  0.1384  0.7966 -1.0196
 3076SOL    HW219438   3.173   1.443   3.506 -1.6068  0.9115  0.2320
 3077SOL     OW19439   1.830   4.355   0.236  0.1296  0.0092  0.3321
 3077SOL    HW119440   1.865   4.390   0.323  1.2339 -0.5635  0.1254
 3077SOL    HW219441   1.730   4.357   0.237  0.1512  2.4801  0.5963
 3078SOL     OW19442   2.703   8.032   1.133 -0.2182  0.1581  0.5600
 3078SOL    HW119443   2.719   7.934   1.128  0.3067  0.2510  0.3753
 3078SOL    HW219444   2.605   8.050   1.138 -0.4790 -0.2486 -2.3877
 3079SOL     OW19445   3.707   7.956   1.196 -0.3245 -0.2246  0.1855
 3079SOL    HW119446   3.763   7.876   1.218 -0.7650 -0.0028  2.2079
 3079SOL    HW219447   3.752   8.038   1.231 -1.4892  0.0485  1.0574
 3080SOL     OW19448   8.099   2.236   0.742 -0.3624 -0.2008  0.1970
 3080SOL    HW119449   8.051   2.226   0.655 -1.7833 -1.2151  1.0847
 3080SOL    HW219450   8.087   2.329   0.777 -0.4737 -0.0395 -0.2691
 3081SOL     OW19451   9.270   3.656   1.895 -0.3452  0.6744 -0.6075
 3081SOL    HW119452   9.182   3.675   1.939  0.1736 -0.9589  1.1851
 3081SOL    HW219453   9.263   3.573   1.840  0.3105  0.0270  0.2731
 3082SOL     OW19454   1.534   6.489   2.187 -0.2048 -1.0585 -0.1272
 3082SOL    HW119455   1.579   6.575   2.162  0.0535 -0.8677  0.9646
 3082SOL    HW219456   1.507   6.440   2.104 -0.0692 -0.0744 -0.7569
 3083SOL     OW19457   8.287   1.767   2.988 -0.0672 -0.4706  0.2806
 3083SOL    HW119458   8.318   1.714   2.909 -1.4850 -0.5385 -0.2529
 3083SOL    HW219459   8.205   1.820   2.963 -0.0095  0.2004  1.4479
 3084SOL     OW19460   9.634   1.896   2.532 -0.6540 -0.7815  0.3085
 3084SOL    HW119461   9.608   1.980   2.485  2.1542  0.1144  0.2970
 3084SOL    HW219462   9.601   1.817   2.480  0.2314  0.2344 -1.8551
 3085SOL     OW19463   7.935   1.081   2.019  0.1168 -0.1551  0.0869
 3085SOL    HW119464   7.877   1.050   1.943 -0.0338 -1.1247  0.5778
 3085SOL    HW219465   7.878   1.119   2.092  0.0245 -1.5699  0.7846
 3086SOL     OW19466   2.732   5.637   2.018 -0.1878  0.0180 -0.1341
 3086SOL    HW119467   2.684   5.551   2.004 -1.0110  0.2714  1.0683
 3086SOL    HW219468   2.827   5.628   1.988 -0.3077 -1.2668 -0.1353
 3087SOL     OW19469   3.066   3.014   1.315  0.3101  0.4684 -0.2104
 3087SOL    HW119470   3.086   2.920   1.342 -1.9643 -0.0300 -0.1627
 3087SOL    HW219471   3.064   3.020   1.215 -1.0824  0.0884 -0.2222
 3088SOL     OW19472   1.661   7.131   1.332  0.3258  0.4448 -0.3227
 3088SOL    HW119473   1.566   7.115   1.306  0.6331 -3.3295  0.6383
 3088SOL    HW219474   1.715   7.149   1.250 -0.5893 -0.9959 -1.2712
 3089SOL     OW19475   0.405   8.609   1.617  0.1387  0.1648  0.3191
 3089SOL    HW119476   0.338   8.602   1.543  1.8810 -2.4655 -1.0877
 3089SOL    HW219477   0.494   8.574   1.585  1.5123  1.0747  2.9643
 3090SOL     OW19478   0.755   0.772   2.864  0.8526 -0.3900 -0.0938
 3090SOL    HW119479   0.783   0.677   2.851 -1.6976 -1.1011 -0.5700
 3090SOL    HW219480   0.708   0.782   2.952  1.6327  0.5668  0.2285
 3091SOL     OW19481   2.349   3.066   3.349 -0.4454 -0.4252  0.0942
 3091SOL    HW119482   2.254   3.075   3.381 -0.4040  0.4305  0.0067
 3091SOL    HW219483   2.411   3.086   3.424 -0.3468  1.1909 -0.3971
 3092SOL     OW19484   0.008   8.991   0.611  0.3300 -0.3625  0.4932
 3092SOL    HW119485   0.097   8.945   0.614  1.1532  1.1126 -0.5725
 3092SOL    HW219486  -0.059   8.932   0.567  1.5878 -0.2208 -1.6770
 3093SOL     OW19487   2.124   8.051   2.397 -0.9167 -0.3461 -0.1549
 3093SOL    HW119488   2.165   7.968   2.359  0.1479  0.0215  0.1457
 3093SOL    HW219489   2.132   8.049   2.497 -1.4711 -0.1783 -0.1071
 3094SOL     OW19490   2.532   2.431   0.283 -0.3881 -0.1103 -0.1699
 3094SOL    HW119491   2.458   2.410   0.220  1.4234 -2.4469 -1.6029
 3094SOL    HW219492   2.586   2.349   0.301  2.2516  1.6290  0.2802
 3095SOL     OW19493   2.217   1.581   1.926  0.2792 -0.1774 -0.2179
 3095SOL    HW119494   2.311   1.555   1.948 -0.0614 -0.4607  0.9688
 3095SOL    HW219495   2.187   1.652   1.990  0.0365  0.6786 -1.2650
 3096SOL     OW19496   2.892   5.086   1.942  0.4040  0.1591  0.4253
 3096SOL    HW119497   2.892   5.131   2.031  2.4292 -0.0625  0.5637
 3096SOL    HW219498   2.863   4.991   1.952 -1.7072  0.7789  0.4651
 3097SOL     OW19499   2.451   4.357   1.453 -0.3878  0.4669  0.5550
 3097SOL    HW119500   2.424   4.453   1.460  0.9093  0.9062 -0.3480
 3097SOL    HW219501   2.464   4.333   1.357  2.2112  0.2349  0.9311
 3098SOL     OW19502   9.606   4.032   1.792  0.0855 -0.1111  0.3634
 3098SOL    HW119503   9.572   4.111   1.844  0.3828 -0.4670  1.1068
 3098SOL    HW219504   9.579   3.948   1.838  0.5260 -0.4243  0.0483
 3099SOL     OW19505   0.393   7.972   1.268 -0.2473  0.0245 -0.2510
 3099SOL    HW119506   0.478   8.018   1.243  1.6522 -1.4813  3.1471
 3099SOL    HW219507   0.320   8.040   1.279  1.3467  1.6969  0.1740
 3100SOL     OW19508   2.958   8.871   0.382 -0.2842 -0.1032 -0.3362
 3100SOL    HW119509   2.909   8.786   0.397 -0.5911  0.0526 -0.4371
 3100SOL    HW219510   2.935   8.907   0.292  0.6520 -0.4450 -0.7133
 3101SOL     OW19511   1.679   9.814   2.988 -0.0426 -0.2238 -0.4219
 3101SOL    HW119512   1.749   9.867   2.941 -0.9387  0.0269 -1.4831
 3101SOL    HW219513   1.632   9.872   3.055 -0.9394  0.2983 -1.4971
 3102SOL     OW19514   1.764   2.798   0.463 -0.5281  0.0084 -0.6005
 3102SOL    HW119515   1.811   2.710   0.473 -0.1987  0.3614  1.0852
 3102SOL    HW219516   1.674   2.793   0.508 -0.5703  0.4848 -0.6319
 3103SOL     OW19517   1.833   0.072   2.942 -0.0715  0.1822 -0.2793
 3103SOL    HW119518   1.865   0.091   3.035 -0.6863 -0.5045  0.0746
 3103SOL    HW219519   1.763   0.139   2.916 -1.6279 -1.0398  0.6557
 3104SOL     OW19520   0.252   0.825   1.478  0.1995 -0.4810 -0.2356
 3104SOL    HW119521   0.152   0.821   1.476  0.1085  0.4885  1.3212
 3104SOL    HW219522   0.290   0.746   1.430 -1.3314 -1.6521  0.4366
 3105SOL     OW19523   0.730   9.298   1.707  0.2997  0.0524  0.2203
 3105SOL    HW119524   0.659   9.368   1.696 -0.5190 -0.6837  0.7807
 3105SOL    HW219525   0.707   9.219   1.649  0.2030 -0.5428  1.0664
 3106SOL     OW19526   0.470   9.809   0.554 -0.4765 -0.3945  0.1746
 3106SOL    HW119527   0.456   9.711   0.570  2.0468 -0.8086 -0.0007
 3106SOL    HW219528   0.501   9.824   0.460 -2.1991  0.7395 -0.2441
 3107SOL     OW19529   4.123   0.719   2.862  0.3106 -0.8134 -0.0403
 3107SOL    HW119530   4.154   0.673   2.779  1.9354  1.0768 -0.5287
 3107SOL    HW219531   4.056   0.790   2.838 -0.3092 -1.2320  0.4288
 3108SOL     OW19532   3.260   3.406   0.322  0.0873  0.0551 -0.3530
 3108SOL    HW119533   3.353   3.429   0.351 -0.5527  0.4649  1.4764
 3108SOL    HW219534   3.244   3.308   0.335  0.6496 -0.2399 -1.8265
 3109SOL     OW19535   4.372   7.771   2.198  0.2375 -0.4230  0.1496
 3109SOL    HW119536   4.327   7.696   2.247 -1.0620 -0.4490 -1.0509
 3109SOL    HW219537   4.366   7.855   2.252  0.0526 -0.7728  0.6676
 3110SOL     OW19538   3.568   0.066   1.560 -0.2534  0.3441  0.0456
 3110SOL    HW119539   3.645   0.017   1.521 -1.1491 -0.5507 -0.6376
 3110SOL    HW219540   3.485   0.044   1.508 -0.9497  1.3552  0.7094
 3111SOL     OW19541   7.127   0.263   2.833 -0.4511 -0.6489 -0.1537
 3111SOL    HW119542   7.221   0.237   2.810 -0.3216 -0.6996  0.4231
 3111SOL    HW219543   7.107   0.353   2.795 -1.3196 -2.0895 -3.2644
 3112SOL     OW19544   1.356   2.378   2.321  0.1129 -0.3004 -0.6564
 3112SOL    HW119545   1.377   2.357   2.416 -0.2392  0.3067 -0.4385
 3112SOL    HW219546   1.431   2.431   2.281 -1.5355  3.1161  0.5434
 3113SOL     OW19547   8.154   2.160   0.334  0.6960  0.1841 -0.4868
 3113SOL    HW119548   8.145   2.260   0.343 -1.9358 -0.0037 -0.6287
 3113SOL    HW219549   8.217   2.126   0.403 -0.8813  1.5867  1.7225
 3114SOL     OW19550   8.582   2.047   3.012 -0.0496  0.4198  0.8123
 3114SOL    HW119551   8.524   2.082   2.938 -1.1464  0.6318  1.7642
 3114SOL    HW219552   8.621   1.959   2.985 -0.1700  0.6634 -0.1608
 3115SOL     OW19553   9.030   4.402   3.165 -0.1524  0.9879  0.0486
 3115SOL    HW119554   8.930   4.405   3.166 -0.1892  0.2878 -0.7062
 3115SOL    HW219555   9.060   4.349   3.086  0.8114  0.8193  0.5267
 3116SOL     OW19556   9.819   4.517   1.426 -0.5168  0.5645  0.6792
 3116SOL    HW119557   9.894   4.536   1.489 -0.0441  0.2409  0.2182
 3116SOL    HW219558   9.747   4.466   1.473  1.1436 -2.2962  0.2153
 3117SOL     OW19559   1.819   5.795   3.085  0.1203  0.6754 -0.6868
 3117SOL    HW119560   1.880   5.787   3.163  1.3562 -1.2816 -1.7979
 3117SOL    HW219561   1.856   5.861   3.020 -1.3536  2.9545  0.7432
 3118SOL     OW19562   0.896   7.749   2.934  0.1201 -0.2194  0.6259
 3118SOL    HW119563   0.842   7.808   2.994 -0.7049 -1.0521  0.7249
 3118SOL    HW219564   0.956   7.805   2.877 -1.4740  0.7867 -0.0976
 3119SOL     OW19565   0.880   7.595   2.519 -0.0057  0.3974 -0.3256
 3119SOL    HW119566   0.894   7.692   2.536  0.4551  0.3152 -0.2429
 3119SOL    HW219567   0.950   7.561   2.455 -1.9741  0.8251 -2.8091
 3120SOL     OW19568   1.614   6.734   1.865 -0.6238 -0.8963 -0.8647
 3120SOL    HW119569   1.678   6.733   1.788  0.3500 -3.3657 -0.0898
 3120SOL    HW219570   1.521   6.716   1.832 -0.8031  1.7593 -1.8807
 3121SOL     OW19571   3.013   3.960   2.321 -0.8253 -0.8891  0.0904
 3121SOL    HW119572   3.001   3.929   2.227  0.6245 -0.8926 -0.1025
 3121SOL    HW219573   3.109   3.984   2.336 -1.4245  1.0672  0.9706
 3122SOL     OW19574   2.043   2.310   3.034 -0.2744  0.2198  0.4187
 3122SOL    HW119575   1.962   2.359   3.067 -0.0922  0.2229  0.8577
 3122SOL    HW219576   2.120   2.373   3.027  0.1626 -0.1483  1.7042
 3123SOL     OW19577   0.054   5.416   0.995  0.2077 -0.0616 -0.2681
 3123SOL    HW119578   0.139   5.450   1.036 -0.7094  2.1610 -0.1638
 3123SOL    HW219579   0.047   5.317   1.011  1.7868  0.0729  1.4611
 3124SOL     OW19580   1.440   3.422   1.965 -0.0729  0.1388  0.5703
 3124SOL    HW119581   1.356   3.373   1.942  0.5767 -1.0542  0.6660
 3124SOL    HW219582   1.442   3.440   2.063  0.7064 -1.6552  0.9059
 3125SOL     OW19583   1.721   5.698   0.664 -0.0276  0.2756 -0.0986
 3125SOL    HW119584   1.677   5.616   0.701 -1.4371  0.1552 -2.0155
 3125SOL    HW219585   1.734   5.765   0.737 -1.5014 -0.5109  0.8940
 3126SOL     OW19586   8.628   4.311   2.548 -0.4933 -0.1547  0.8607
 3126SOL    HW119587   8.566   4.315   2.469 -0.5288  0.6661  0.9265
 3126SOL    HW219588   8.715   4.271   2.520 -0.0429  1.3419  0.1039
 3127SOL     OW19589   0.203   9.433   2.541  0.1895 -0.2131 -0.3764
 3127SOL    HW119590   0.110   9.443   2.507 -0.0354 -2.0987 -0.3500
 3127SOL    HW219591   0.265   9.416   2.464  0.5705  1.2629 -0.4201
 3128SOL     OW19592   1.921   2.040   0.207 -0.2767 -0.2628 -1.1228
 3128SOL    HW119593   1.925   1.973   0.133 -1.4149 -2.5090  0.7783
 3128SOL    HW219594   2.014   2.063   0.237  0.1305 -0.6806 -2.0710
 3129SOL     OW19595   3.676   3.640   0.659 -0.2052 -0.5578  0.2216
 3129SOL    HW119596   3.676   3.739   0.671 -0.7685 -0.4670 -0.4804
 3129SOL    HW219597   3.711   3.617   0.568 -1.7352 -0.9005 -0.2986
 3130SOL     OW19598   8.740   1.600   1.244 -0.0462 -0.2098  0.1501
 3130SOL    HW119599   8.763   1.601   1.147  2.2861  2.7779  0.6902
 3130SOL    HW219600   8.801   1.536   1.292  0.7919  0.5479  0.0998
 3131SOL     OW19601   1.544   1.638   2.322  0.1488  0.0651 -0.4755
 3131SOL    HW119602   1.585   1.725   2.347 -0.2590  0.2648 -0.5047
 3131SOL    HW219603   1.616   1.568   2.315  0.0756 -0.4696  3.1990
 3132SOL     OW19604   4.732   9.404   2.025  0.2689 -0.1141 -0.0821
 3132SOL    HW119605   4.662   9.332   2.028 -1.7329  1.8203  0.7773
 3132SOL    HW219606   4.702   9.477   1.964  0.8440  1.4280  1.4337
 3133SOL     OW19607   2.264   9.433   2.233 -0.0619  0.6253  0.2605
 3133SOL    HW119608   2.214   9.482   2.305 -0.5419  0.1181  0.2699
 3133SOL    HW219609   2.357   9.414   2.265  0.1921  1.6970  0.1851
 3134SOL     OW19610   8.499   1.617   0.304  0.2067 -0.7440  0.3632
 3134SOL    HW119611   8.580   1.615   0.245 -0.5082 -1.7187 -0.6024
 3134SOL    HW219612   8.485   1.710   0.338  0.8900 -0.2573 -0.6448
 3135SOL     OW19613   0.521   1.714   2.648 -0.3620  0.2041  0.3852
 3135SOL    HW119614   0.486   1.752   2.734  1.7645  1.7895  0.6081
 3135SOL    HW219615   0.617   1.688   2.660 -0.3524 -0.5581 -1.2242
 3136SOL     OW19616   1.075   9.168   2.819 -0.5533 -0.4731 -0.9426
 3136SOL    HW119617   1.063   9.235   2.892  1.4579 -0.0235 -1.0039
 3136SOL    HW219618   1.006   9.184   2.748 -0.6589  0.9625 -0.5332
 3137SOL     OW19619   1.651   6.279   0.772 -0.0410 -0.1720  0.6760
 3137SOL    HW119620   1.582   6.220   0.730  1.0738  0.0531 -1.5742
 3137SOL    HW219621   1.625   6.299   0.867 -1.8108 -2.0361  0.6214
 3138SOL     OW19622   8.560   3.681   0.913 -0.1903  0.4434  0.4894
 3138SOL    HW119623   8.491   3.733   0.863  0.8194  1.6108  0.2669
 3138SOL    HW219624   8.533   3.673   1.009 -0.2935  1.5381  0.5648
 3139SOL     OW19625   3.719   3.186   0.297 -0.0764  0.2382  0.6919
 3139SOL    HW119626   3.689   3.196   0.392 -0.4634  0.4089  0.5527
 3139SOL    HW219627   3.745   3.275   0.260  1.3899 -0.0104  1.0623
 3140SOL     OW19628   4.753   9.919   2.291  0.1079  0.4742 -0.4187
 3140SOL    HW119629   4.708  10.005   2.314  0.4550 -0.0882  2.5779
 3140SOL    HW219630   4.685   9.846   2.286  0.4438 -0.0705  2.4839
 3141SOL     OW19631   0.619   0.884   3.131 -0.5940  0.2267  0.1544
 3141SOL    HW119632   0.576   0.930   3.208  0.5958 -1.1860  1.6735
 3141SOL    HW219633   0.702   0.838   3.161 -1.0320 -1.8089 -1.6024
 3142SOL     OW19634   0.578   8.182   1.269  0.2673  0.0073  0.0282
 3142SOL    HW119635   0.548   8.226   1.353  1.6604  1.6624 -0.3056
 3142SOL    HW219636   0.663   8.133   1.285  1.3661  1.6022 -0.7222
 3143SOL     OW19637   6.097   9.345   1.708 -0.4415  0.3799  0.2594
 3143SOL    HW119638   6.105   9.434   1.752 -0.3845  0.0598  0.9136
 3143SOL    HW219639   6.106   9.273   1.778  0.7221 -0.1578 -0.4293
 3144SOL     OW19640   0.938   1.975   2.671 -0.0760  0.0406 -0.4009
 3144SOL    HW119641   1.013   1.990   2.607  1.3911 -0.0988  1.2199
 3144SOL    HW219642   0.968   1.910   2.741 -1.6431  0.1660  0.3988
 3145SOL     OW19643   1.428   2.468   2.938 -0.3178  0.2218  0.1143
 3145SOL    HW119644   1.523   2.492   2.920 -0.1496  0.3264  1.1581
 3145SOL    HW219645   1.368   2.528   2.884  0.2005  0.0533 -0.6604
 3146SOL     OW19646   9.395   1.766   1.375  0.0596 -0.4119  0.0942
 3146SOL    HW119647   9.463   1.759   1.303  1.6488 -0.7940  1.5864
 3146SOL    HW219648   9.322   1.699   1.359  0.8977 -1.1606 -0.6368
 3147SOL     OW19649   2.019   4.120   1.953  0.5947 -0.0642 -0.3522
 3147SOL    HW119650   2.050   4.031   1.988 -0.2663 -0.2192  0.0447
 3147SOL    HW219651   1.974   4.106   1.864 -0.3817 -0.1579  0.1538
 3148SOL     OW19652   0.751   1.769   1.883 -0.1410  0.2972 -0.2132
 3148SOL    HW119653   0.779   1.683   1.841 -0.2512  0.3946 -0.4878
 3148SOL    HW219654   0.711   1.829   1.813  1.3719  1.1915 -0.3268
 3149SOL     OW19655   1.245   6.754   2.640  0.2507  0.1000  0.1154
 3149SOL    HW119656   1.320   6.774   2.702  0.0061 -0.0400  0.4594
 3149SOL    HW219657   1.186   6.835   2.632 -0.0635 -0.0772  0.5591
 3150SOL     OW19658   0.632   4.933   3.261  0.0577 -0.4508 -0.0322
 3150SOL    HW119659   0.686   4.958   3.342  0.9578 -0.3006 -0.6633
 3150SOL    HW219660   0.658   4.992   3.185  0.8447 -2.0433 -1.0248
 3151SOL     OW19661   3.675   0.082   2.265  0.2521  0.0498  0.2037
 3151SOL    HW119662   3.625   0.076   2.352 -0.5894  0.5537 -0.2369
 3151SOL    HW219663   3.692  -0.009   2.230  0.4971 -0.1568  0.8378
 3152SOL     OW19664   8.422   2.417   2.969  0.2254  0.2187 -0.0950
 3152SOL    HW119665   8.349   2.425   2.902  0.5457 -2.7102 -0.8517
 3152SOL    HW219666   8.385   2.377   3.053  0.4186  1.3110  0.5297
 3153SOL     OW19667   1.496   0.393   1.120 -0.5069 -0.6546 -0.4887
 3153SOL    HW119668   1.407   0.413   1.160 -0.6474 -1.6373 -0.2939
 3153SOL    HW219669   1.552   0.343   1.187 -1.2897 -3.6909 -2.0152
 3154SOL     OW19670   8.480   3.392   1.313 -0.3061 -0.0032  0.5334
 3154SOL    HW119671   8.426   3.369   1.394 -1.0454 -0.5915 -0.1097
 3154SOL    HW219672   8.483   3.312   1.252  0.1804  0.4596 -0.0526
 3155SOL     OW19673   0.483   9.966   0.013 -0.0342  0.0624  0.4028
 3155SOL    HW119674   0.394   9.934   0.046  0.4005 -1.3527  0.2297
 3155SOL    HW219675   0.473   9.999  -0.081 -0.3471 -0.2402  0.3284
 3156SOL     OW19676   9.619   0.025   2.375 -0.1105  0.1495 -0.3499
 3156SOL    HW119677   9.574  -0.016   2.296 -1.2003 -0.0577  0.3533
 3156SOL    HW219678   9.651   0.116   2.352 -2.6337  1.0814 -0.3409
 3157SOL     OW19679   9.320   3.039   3.019  0.1762 -0.2310  0.4257
 3157SOL    HW119680   9.398   2.978   3.006  1.2738  0.9265  1.5500
 3157SOL    HW219681   9.349   3.122   3.066 -1.4541  0.8506 -0.4104
 3158SOL     OW19682   9.791   3.072   2.426  0.8024  0.0240 -0.1209
 3158SOL    HW119683   9.710   3.013   2.432  0.1605  0.9079  0.0287
 3158SOL    HW219684   9.850   3.039   2.352  0.5125 -0.8774  0.0425
 3159SOL     OW19685   4.823   0.836   2.102  0.2917 -0.2869  0.3356
 3159SOL    HW119686   4.815   0.737   2.097 -0.2160 -0.2107 -0.4367
 3159SOL    HW219687   4.822   0.874   2.010 -0.0461  0.4763  0.6542
 3160SOL     OW19688   2.176   8.323   2.364 -0.5250  0.6313 -0.0607
 3160SOL    HW119689   2.133   8.390   2.424 -0.5121  1.7203 -1.2497
 3160SOL    HW219690   2.122   8.238   2.365 -1.0202  0.9487  0.7755
 3161SOL     OW19691   4.909   7.556   2.822 -0.4502 -0.2741  0.0029
 3161SOL    HW119692   4.821   7.516   2.844 -0.7955 -0.9458 -2.4120
 3161SOL    HW219693   4.953   7.502   2.749  0.6208  1.7373 -0.8913
 3162SOL     OW19694   0.210   3.643   0.129 -0.0300  0.4158 -0.3630
 3162SOL    HW119695   0.240   3.720   0.185  1.4613  0.2469 -0.8892
 3162SOL    HW219696   0.201   3.672   0.034 -2.4413  0.6712 -0.0859
 3163SOL     OW19697   2.701   4.528   1.450 -0.1859 -0.2957  0.2871
 3163SOL    HW119698   2.717   4.626   1.438 -0.5268 -0.4798 -2.0222
 3163SOL    HW219699   2.781   4.486   1.492 -0.1419  1.0062  1.5391
 3164SOL     OW19700   8.849   1.108   3.049 -0.2260 -0.4417 -0.8131
 3164SOL    HW119701   8.943   1.102   3.017  1.1136  3.7160  1.9443
 3164SOL    HW219702   8.819   1.018   3.081  3.8481 -1.2457  1.0448
 3165SOL     OW19703   1.698   4.661   1.656  0.5189 -0.0104  0.4695
 3165SOL    HW119704   1.599   4.650   1.663  0.5379  0.2739  1.2401
 3165SOL    HW219705   1.731   4.715   1.733  1.3029 -0.2711  0.3212
 3166SOL     OW19706   2.240   6.009   0.197  0.1550 -0.3115  0.2487
 3166SOL    HW119707   2.188   5.924   0.190 -0.0541 -0.1250 -0.5434
 3166SOL    HW219708   2.338   5.990   0.186  0.1442 -0.5011  0.4838
 3167SOL     OW19709   2.156   3.007   2.489  0.2250  0.0899 -0.2060
 3167SOL    HW119710   2.246   3.009   2.532  0.8991  3.2236 -1.5317
 3167SOL    HW219711   2.095   3.069   2.537 -0.8019 -0.9633 -0.1510
 3168SOL     OW19712   5.819   9.961   2.779  0.6786  0.2559  0.1372
 3168SOL    HW119713   5.724   9.949   2.808 -0.2672  2.4094 -1.8736
 3168SOL    HW219714   5.843   9.890   2.713  0.1079  0.3048 -0.1319
 3169SOL     OW19715   2.041   4.631   3.224  0.3829 -0.1073  0.1999
 3169SOL    HW119716   2.045   4.554   3.160 -1.1947  1.1180 -1.3935
 3169SOL    HW219717   2.100   4.705   3.192  0.5173  0.0495  0.7976
 3170SOL     OW19718   9.721   4.968   1.169 -0.4711  0.1216  0.0430
 3170SOL    HW119719   9.627   4.969   1.205 -0.0007 -0.6037  1.3471
 3170SOL    HW219720   9.784   4.992   1.243  0.3659  0.6056 -0.8330
 3171SOL     OW19721   2.874   9.420   0.984  0.5740  0.2126 -0.1177
 3171SOL    HW119722   2.902   9.355   1.054 -0.9844  0.3309  0.6322
 3171SOL    HW219723   2.839   9.371   0.904 -0.3291  0.1254  0.3312
 3172SOL     OW19724   1.548   1.851   3.164 -0.8864  0.2502 -0.4740
 3172SOL    HW119725   1.492   1.852   3.246  0.7876 -1.0233  0.7341
 3172SOL    HW219726   1.521   1.773   3.106 -0.4366 -0.3049  0.0594
 3173SOL     OW19727   3.236   6.453   2.727  0.1121 -0.3143  0.0789
 3173SOL    HW119728   3.157   6.504   2.695 -0.4128 -0.6392  0.8424
 3173SOL    HW219729   3.264   6.486   2.817  0.6929 -0.3688 -0.0741
 3174SOL     OW19730   3.773   0.638   0.063  0.1458 -0.1148  0.7045
 3174SOL    HW119731   3.676   0.636   0.088 -0.2810  0.6497 -0.7953
 3174SOL    HW219732   3.800   0.548   0.029 -0.9468  0.4929 -1.9895
 3175SOL     OW19733   1.417   1.921   1.204  0.0025 -0.2209  0.1479
 3175SOL    HW119734   1.430   2.015   1.235 -1.0023  0.4263 -1.3376
 3175SOL    HW219735   1.503   1.887   1.165 -0.5037  1.3154 -2.4489
 3176SOL     OW19736   1.176   2.521   1.686 -0.8735  0.7289  0.4164
 3176SOL    HW119737   1.113   2.476   1.622  1.8087 -2.0538 -0.3865
 3176SOL    HW219738   1.169   2.478   1.776  0.0161  0.2271  0.2558
 3177SOL     OW19739   1.673   7.880   2.739  0.2126 -0.0777 -0.7071
 3177SOL    HW119740   1.613   7.911   2.812  0.5261  1.4717 -1.0956
 3177SOL    HW219741   1.639   7.793   2.702 -0.2365 -0.5935  0.9030
 3178SOL     OW19742   1.043   2.366   1.928 -0.0520 -0.1173 -0.2119
 3178SOL    HW119743   0.964   2.388   1.871  0.9063  0.5073 -1.3268
 3178SOL    HW219744   1.019   2.292   1.991 -1.0565 -1.0208 -1.6057
 3179SOL     OW19745   8.269   0.949   2.531 -0.2615  0.2485 -0.5501
 3179SOL    HW119746   8.193   0.998   2.488  0.5060  2.4063  0.4401
 3179SOL    HW219747   8.306   1.006   2.605  0.9518 -1.6890  0.3505
 3180SOL     OW19748   0.788   9.386   3.090 -0.0192 -0.2301 -0.2315
 3180SOL    HW119749   0.730   9.305   3.083 -1.9885  1.1793 -0.9201
 3180SOL    HW219750   0.744   9.452   3.151  0.9135  0.8490 -0.7092
 3181SOL     OW19751   8.140   3.206   0.697 -0.0684 -0.2040 -0.2823
 3181SOL    HW119752   8.174   3.147   0.769  0.4525 -1.1186 -1.2569
 3181SOL    HW219753   8.198   3.287   0.690  0.2566 -0.4187 -0.0877
 3182SOL     OW19754   1.057   0.561   1.636 -0.2272 -0.5521  0.7719
 3182SOL    HW119755   1.062   0.613   1.722 -1.0875 -2.0998  1.7727
 3182SOL    HW219756   0.967   0.519   1.628  0.2047 -1.2666 -0.4031
 3183SOL     OW19757   4.505   1.800   1.879  0.0944 -0.3295  0.1319
 3183SOL    HW119758   4.540   1.791   1.972 -0.3679  1.5903  0.5100
 3183SOL    HW219759   4.568   1.857   1.825 -0.0195 -0.8262 -0.5395
 3184SOL     OW19760   0.925   0.449   2.423  0.0686 -0.1184 -0.1683
 3184SOL    HW119761   0.902   0.449   2.521 -2.1629 -1.4880 -0.6652
 3184SOL    HW219762   1.012   0.496   2.410  1.3992 -1.6117  2.7135
 3185SOL     OW19763   3.496   0.072   3.384 -0.3929 -0.8721  0.1912
 3185SOL    HW119764   3.494  -0.022   3.419  0.8729 -0.7110  0.7216
 3185SOL    HW219765   3.564   0.079   3.311 -0.6520 -0.4142 -0.0101
 3186SOL     OW19766   1.663   6.263   2.597 -0.0747 -0.1263  0.1548
 3186SOL    HW119767   1.677   6.261   2.498  1.0802 -0.6572  0.3164
 3186SOL    HW219768   1.719   6.191   2.639 -1.0887 -0.3500  1.1232
 3187SOL     OW19769   3.814   2.102   3.289  0.4233 -0.5573  0.0204
 3187SOL    HW119770   3.856   2.146   3.210  0.4167 -0.0123  0.3129
 3187SOL    HW219771   3.718   2.130   3.296  0.9589  1.0374  1.3857
 3188SOL     OW19772   8.732   1.338   1.679 -0.5666 -0.1142  0.0670
 3188SOL    HW119773   8.788   1.263   1.713 -0.3308  0.6241  1.3179
 3188SOL    HW219774   8.668   1.368   1.750  0.3893  1.8946  0.1111
 3189SOL     OW19775   2.393   5.781   2.592 -0.3075 -0.6118 -0.1720
 3189SOL    HW119776   2.395   5.686   2.558  2.0070 -0.3565 -0.8262
 3189SOL    HW219777   2.462   5.792   2.664 -1.4265  0.2711  0.7815
 3190SOL     OW19778   2.016   8.374   2.110 -0.6872  0.4692  0.5387
 3190SOL    HW119779   2.068   8.395   2.193 -0.4755  0.9363  0.2867
 3190SOL    HW219780   1.935   8.432   2.106  0.5471  2.1503 -0.7886
 3191SOL     OW19781   1.608   8.359   0.619  0.3360 -0.2462 -0.2347
 3191SOL    HW119782   1.586   8.423   0.692  0.9949  1.9884 -1.9317
 3191SOL    HW219783   1.619   8.267   0.657 -0.1037  0.7251  2.3289
 3192SOL     OW19784   0.310   2.797   2.301 -0.3526 -0.6652 -0.0187
 3192SOL    HW119785   0.397   2.784   2.254 -0.1587 -0.4929  0.2903
 3192SOL    HW219786   0.282   2.711   2.344  0.9764 -0.0605  2.1062
 3193SOL     OW19787   1.539   9.083   0.783 -0.5901  0.1197  0.2842
 3193SOL    HW119788   1.615   9.033   0.824 -1.1563 -1.3839 -0.4485
 3193SOL    HW219789   1.524   9.169   0.832  0.7124 -0.2095  1.2602
 3194SOL     OW19790   9.745   3.587   1.767  0.8290  0.9485  0.4213
 3194SOL    HW119791   9.796   3.659   1.813 -0.0705  2.7095 -1.2566
 3194SOL    HW219792   9.793   3.559   1.684  1.0656 -0.2310  0.9544
 3195SOL     OW19793   2.679   9.721   2.404  0.5244  0.3742  0.0734
 3195SOL    HW119794   2.764   9.763   2.372  0.9600  0.7743  1.7051
 3195SOL    HW219795   2.700   9.654   2.476 -0.4523 -0.3479 -0.2952
 3196SOL     OW19796   9.319   1.098   3.200 -0.5697  0.0337  0.6569
 3196SOL    HW119797   9.373   1.067   3.278 -0.4150  0.6746  0.8051
 3196SOL    HW219798   9.298   1.195   3.210  2.5495  1.0611 -1.8728
 3197SOL     OW19799   4.754   0.541   2.146  0.1396 -0.3920  0.5005
 3197SOL    HW119800   4.841   0.530   2.099  0.1103 -2.4701  0.8492
 3197SOL    HW219801   4.680   0.504   2.088 -0.5762  1.7343  0.0262
 3198SOL     OW19802   0.372   6.844   1.963 -0.2052 -0.3155 -0.2229
 3198SOL    HW119803   0.409   6.933   1.990  0.1530 -0.4896 -0.1371
 3198SOL    HW219804   0.343   6.794   2.045  0.9475 -0.8722 -0.1427
 3199SOL     OW19805   1.340   5.055   0.104 -0.2621 -0.0551 -0.6390
 3199SOL    HW119806   1.397   5.122   0.150 -0.3723  0.2470 -0.9455
 3199SOL    HW219807   1.385   5.023   0.020  0.2673 -1.1392  0.0435
 3200SOL     OW19808   1.188   3.920   0.357  0.8641 -0.6164 -0.1316
 3200SOL    HW119809   1.254   3.991   0.385  2.5013 -2.1475 -0.0085
 3200SOL    HW219810   1.115   3.915   0.425  0.2892  1.5112 -0.5644
 3201SOL     OW19811   3.514   4.569   0.747 -0.7744  0.2994 -0.0119
 3201SOL    HW119812   3.552   4.589   0.656 -1.7638  0.1431 -0.4688
 3201SOL    HW219813   3.455   4.489   0.741  0.1809 -0.4889  1.0475
 3202SOL     OW19814   3.519   9.421   0.791  0.3842  0.7414 -0.0610
 3202SOL    HW119815   3.450   9.491   0.811 -0.7455 -0.2450 -0.4492
 3202SOL    HW219816   3.610   9.459   0.806 -0.2636  1.7419  1.4641
 3203SOL     OW19817   2.941   1.580   0.639 -0.4145 -0.4008  0.7597
 3203SOL    HW119818   3.024   1.533   0.670 -1.6799 -2.4486  1.1631
 3203SOL    HW219819   2.929   1.664   0.693  1.9167  0.4850 -0.0102
 3204SOL     OW19820   4.299   2.408   0.917  0.3917 -0.1643  0.6671
 3204SOL    HW119821   4.281   2.442   1.009  1.3630  1.2340  0.3545
 3204SOL    HW219822   4.300   2.308   0.918 -0.7934 -0.1749  1.9356
 3205SOL     OW19823   0.666   2.202   2.404 -0.2350  0.2855 -0.5530
 3205SOL    HW119824   0.614   2.122   2.434 -2.0080  1.6079  0.0178
 3205SOL    HW219825   0.734   2.226   2.473 -0.7333  0.1757 -0.0224
 3206SOL     OW19826   1.829   2.798   2.413 -0.0897  0.5336 -0.0205
 3206SOL    HW119827   1.887   2.730   2.456  1.0349  2.5471  1.7209
 3206SOL    HW219828   1.733   2.779   2.435 -0.1195 -2.4482 -2.4248
 3207SOL     OW19829   3.574   4.569   2.430 -0.5633  0.0135 -0.2452
 3207SOL    HW119830   3.632   4.629   2.486 -0.7724  0.1358 -0.1610
 3207SOL    HW219831   3.525   4.505   2.489 -0.1984 -0.3631 -0.3493
 3208SOL     OW19832   6.289   9.770   2.200  0.0823  1.0412 -0.1737
 3208SOL    HW119833   6.251   9.806   2.286  2.3625 -0.5940  1.5924
 3208SOL    HW219834   6.368   9.825   2.173  2.0899 -1.0470  1.2270
 3209SOL     OW19835   1.892   3.412   1.790  0.5395  0.5486 -0.8203
 3209SOL    HW119836   1.982   3.370   1.798  0.0856 -0.3581 -0.3377
 3209SOL    HW219837   1.852   3.389   1.701  1.2879  1.9783 -1.5378
 3210SOL     OW19838   2.177   9.550   0.414  0.5041 -0.5348  0.0282
 3210SOL    HW119839   2.093   9.496   0.405 -0.9245  1.2706  2.1041
 3210SOL    HW219840   2.211   9.542   0.508  2.6420 -1.1969 -0.7786
 3211SOL     OW19841   1.752   7.955   1.601  0.5827 -0.2823  0.2817
 3211SOL    HW119842   1.831   8.015   1.609  0.8951 -0.7094  0.3984
 3211SOL    HW219843   1.700   7.956   1.686 -0.8751  1.8683 -0.6164
 3212SOL     OW19844   0.977   6.722   1.652 -0.4295  0.4880  0.1641
 3212SOL    HW119845   1.023   6.721   1.742  0.6414 -0.7346 -0.3800
 3212SOL    HW219846   0.937   6.632   1.634 -2.0027  1.1880  0.0786
 3213SOL     OW19847   1.750   3.264   1.248 -0.1536  0.0582  0.3546
 3213SOL    HW119848   1.723   3.172   1.218  1.1587 -0.7400  1.6080
 3213SOL    HW219849   1.676   3.303   1.303 -0.2003 -0.7533  0.8834
 3214SOL     OW19850   2.410   7.570   2.619  0.3671 -0.1626 -0.8387
 3214SOL    HW119851   2.337   7.518   2.575  0.6972 -2.0999  0.8515
 3214SOL    HW219852   2.487   7.579   2.555 -0.1534 -0.7278 -1.5576
 3215SOL     OW19853   1.776   7.885   3.360  0.0987 -0.3677  0.2174
 3215SOL    HW119854   1.684   7.900   3.324  0.0313 -0.9904  0.1263
 3215SOL    HW219855   1.795   7.952   3.431 -0.9158 -1.0365  1.1485
 3216SOL     OW19856   7.610   0.749   1.364 -0.2537  1.0034 -0.6111
 3216SOL    HW119857   7.621   0.781   1.270 -0.5550  1.8343 -0.3671
 3216SOL    HW219858   7.655   0.660   1.374 -1.3202  0.2885 -1.8837
 3217SOL     OW19859   9.488   1.444   2.484 -0.1624 -0.5385  0.3400
 3217SOL    HW119860   9.431   1.401   2.414 -0.7660  0.5488  0.1661
 3217SOL    HW219861   9.572   1.391   2.495 -0.0502 -0.7032 -1.2352
 3218SOL     OW19862   1.521   3.507   1.147  0.0261  0.0162 -0.0107
 3218SOL    HW119863   1.577   3.480   1.068 -0.1193 -0.2276 -0.0306
 3218SOL    HW219864   1.510   3.428   1.208 -0.8605 -0.1186 -0.3459
 3219SOL     OW19865   1.526   7.520   2.097  0.5201  0.0021  0.3184
 3219SOL    HW119866   1.451   7.527   2.162 -0.3453  1.0883 -0.7712
 3219SOL    HW219867   1.529   7.428   2.059  0.1789 -0.2462  0.8935
 3220SOL     OW19868   8.374   1.021   0.056  0.1904  0.1226 -0.1444
 3220SOL    HW119869   8.300   0.960   0.084 -0.2988  0.9717  0.4239
 3220SOL    HW219870   8.429   1.045   0.136  0.9961 -0.3863 -0.5413
 3221SOL     OW19871   3.559   1.243   2.583 -0.6825  0.0488 -0.5728
 3221SOL    HW119872   3.553   1.155   2.537  0.3948  0.3681 -1.3324
 3221SOL    HW219873   3.643   1.291   2.555 -1.2051  1.2745 -0.1035
 3222SOL     OW19874   1.057   8.891   2.926 -0.3430  0.3439  0.0155
 3222SOL    HW119875   1.057   8.792   2.916 -2.7472  0.3710 -0.6593
 3222SOL    HW219876   1.042   8.934   2.837 -0.3812  1.2802  0.4640
 3223SOL     OW19877   3.415   4.404   2.927  0.5637  0.5807  0.2916
 3223SOL    HW119878   3.498   4.376   2.976  1.9128  0.8189 -1.7909
 3223SOL    HW219879   3.359   4.323   2.909  0.4987  0.3667  1.4117
 3224SOL     OW19880   0.875   3.948   1.161  0.4865  0.1878 -0.2697
 3224SOL    HW119881   0.811   3.876   1.186  0.2014 -0.5024 -2.7838
 3224SOL    HW219882   0.968   3.920   1.185  0.3859 -1.0975 -1.3468
 3225SOL     OW19883   0.299   4.697   1.259 -0.2004  0.1845 -0.1606
 3225SOL    HW119884   0.366   4.747   1.313  1.2776 -2.0409  0.1059
 3225SOL    HW219885   0.295   4.602   1.290 -1.3894 -0.4243 -2.0981
 3226SOL     OW19886   3.771   3.201   0.894  0.0944  0.0284  0.4365
 3226SOL    HW119887   3.830   3.281   0.883 -0.0707  0.0618 -0.2790
 3226SOL    HW219888   3.706   3.198   0.817  0.3277 -0.9770  0.2816
 3227SOL     OW19889   3.103   6.887   0.802 -0.5469 -0.0419 -0.1040
 3227SOL    HW119890   3.170   6.960   0.797  0.1247 -0.6531 -0.0672
 3227SOL    HW219891   3.104   6.833   0.718 -0.9806 -0.0621 -0.0999
 3228SOL     OW19892   2.913   9.135   3.207  0.5981  0.4669 -0.1532
 3228SOL    HW119893   2.991   9.088   3.247  0.7092  1.4530  0.8019
 3228SOL    HW219894   2.833   9.075   3.210  1.2373 -0.4414 -0.8809
 3229SOL     OW19895   3.593   1.932   0.990 -0.1063 -0.5829  0.1640
 3229SOL    HW119896   3.638   1.846   1.014 -2.1256 -1.5638  0.5360
 3229SOL    HW219897   3.609   1.953   0.894 -0.1404 -1.7316 -0.1046
 3230SOL     OW19898   2.675   6.252   2.464 -0.5924 -0.6790  0.0851
 3230SOL    HW119899   2.601   6.186   2.468  1.2568 -2.7759  1.0082
 3230SOL    HW219900   2.717   6.261   2.554 -0.6102  1.5548 -0.0980
 3231SOL     OW19901   4.891   8.298   2.646  0.0974 -0.4356  0.1571
 3231SOL    HW119902   4.902   8.397   2.654 -0.0421 -0.5426  1.8286
 3231SOL    HW219903   4.931   8.254   2.726 -2.1357 -1.5671  0.6934
 3232SOL     OW19904   4.088   7.566   3.151 -0.4224 -0.2050 -0.0703
 3232SOL    HW119905   4.046   7.567   3.060 -1.7114 -0.2781  0.5160
 3232SOL    HW219906   4.144   7.484   3.160 -1.5869 -1.0364 -0.2348
 3233SOL     OW19907   1.655   8.585   1.482 -0.1872  0.2400  0.3178
 3233SOL    HW119908   1.640   8.619   1.575  0.7197 -0.7652  0.8498
 3233SOL    HW219909   1.567   8.581   1.434 -0.9013 -0.6028  1.6312
 3234SOL     OW19910   1.766   1.002   2.871 -0.8244  0.1228 -0.1089
 3234SOL    HW119911   1.711   1.006   2.954 -0.3509  2.6317  0.1163
 3234SOL    HW219912   1.850   0.950   2.888 -0.0059  1.9066  1.4341
 3235SOL     OW19913   0.480   0.794   2.659 -0.3532 -0.0124 -0.1012
 3235SOL    HW119914   0.479   0.778   2.757 -2.7506  1.6672  0.2047
 3235SOL    HW219915   0.415   0.732   2.614  0.0498 -0.1435 -0.5030
 3236SOL     OW19916   0.644   1.323   1.794 -0.1093 -0.1132  0.7125
 3236SOL    HW119917   0.655   1.252   1.725 -0.3935 -0.4917  1.0587
 3236SOL    HW219918   0.654   1.283   1.885 -2.2362 -0.0790  0.9855
 3237SOL     OW19919   0.190   6.356   0.846 -0.9841 -0.0509 -0.1680
 3237SOL    HW119920   0.167   6.334   0.751 -2.6150 -0.0512  0.2045
 3237SOL    HW219921   0.109   6.395   0.891 -0.0310  0.5592  1.0345
 3238SOL     OW19922   2.052   8.880   2.781 -0.7393 -0.5765  0.0731
 3238SOL    HW119923   2.144   8.919   2.781 -1.1891  0.5402 -1.9380
 3238SOL    HW219924   2.050   8.801   2.842  0.5111  1.7552  3.2623
 3239SOL     OW19925   3.427   8.883   2.377 -0.1101 -0.2488  0.9789
 3239SOL    HW119926   3.526   8.895   2.371  0.0023 -1.9250 -1.1621
 3239SOL    HW219927   3.382   8.956   2.325  0.1480 -1.5691 -1.1520
 3240SOL     OW19928   2.857   2.721   2.470  0.1066  0.0301  0.3870
 3240SOL    HW119929   2.885   2.626   2.481 -0.0342 -0.1033 -0.3687
 3240SOL    HW219930   2.774   2.725   2.414  1.7346  0.7787 -2.0565
 3241SOL     OW19931   0.248   8.430   1.457  0.3851 -1.2568 -0.4319
 3241SOL    HW119932   0.242   8.380   1.543 -1.7551 -1.0799 -0.4427
 3241SOL    HW219933   0.169   8.491   1.448  1.1682 -0.4261 -2.0023
 3242SOL     OW19934   1.027   7.174   1.834  0.1377 -0.1156  0.1669
 3242SOL    HW119935   1.114   7.216   1.861 -0.4802  2.4914 -1.6989
 3242SOL    HW219936   0.958   7.244   1.823 -2.0762 -2.1074  0.9552
 3243SOL     OW19937   7.821   3.498   1.454  0.0119  0.4729 -0.0578
 3243SOL    HW119938   7.793   3.518   1.360  1.1500  2.3320 -0.0381
 3243SOL    HW219939   7.869   3.577   1.491  2.0796 -1.2822  1.1285
 3244SOL     OW19940   1.246   7.301   0.121 -0.0714  0.4316  0.2531
 3244SOL    HW119941   1.343   7.289   0.102  0.2060  0.8092  1.3725
 3244SOL    HW219942   1.194   7.289   0.037  0.7462 -1.9545  0.0295
 3245SOL     OW19943   4.990   7.886   2.622  0.0585  0.4087 -0.0234
 3245SOL    HW119944   4.932   7.947   2.568 -0.6673 -0.2193  0.0337
 3245SOL    HW219945   4.938   7.851   2.700  0.4684 -0.2880 -0.0630
 3246SOL     OW19946   1.494   6.578   0.356  0.4694 -0.5791  0.3395
 3246SOL    HW119947   1.478   6.489   0.313 -0.6958  0.6292 -1.8241
 3246SOL    HW219948   1.557   6.567   0.432  0.0966 -3.3072  0.3216
 3247SOL     OW19949   9.583   0.783   1.330 -0.1161 -0.1223 -0.2680
 3247SOL    HW119950   9.582   0.738   1.419 -0.4003  0.1986 -0.1035
 3247SOL    HW219951   9.496   0.767   1.283  2.0723 -5.0259 -2.9412
 3248SOL     OW19952   0.815   2.658   0.172 -0.0872 -0.0859 -0.2429
 3248SOL    HW119953   0.736   2.617   0.128 -0.2334  0.7926 -0.8108
 3248SOL    HW219954   0.820   2.755   0.148  1.1032 -0.1107 -0.1365
 3249SOL     OW19955   1.061   3.297   2.774 -0.6028 -0.4960 -0.3128
 3249SOL    HW119956   0.988   3.241   2.736  1.5401 -1.2294 -3.5356
 3249SOL    HW219957   1.046   3.393   2.750  0.5037 -0.8992 -2.7486
 3250SOL     OW19958   0.622   7.555   2.432 -0.2212 -0.8628 -0.5108
 3250SOL    HW119959   0.708   7.584   2.474  0.0744 -0.2840 -1.5072
 3250SOL    HW219960   0.639   7.515   2.343 -0.8410 -2.2398 -0.0247
 3251SOL     OW19961   2.346   3.118   1.191  0.4036 -0.0868 -0.1218
 3251SOL    HW119962   2.319   3.192   1.253  0.8611 -0.4559  0.5255
 3251SOL    HW219963   2.432   3.143   1.146  0.5269 -0.1941  0.0519
 3252SOL     OW19964   0.341   9.167   1.967 -0.4581  0.1574  0.3936
 3252SOL    HW119965   0.438   9.142   1.973 -0.9004 -1.8233 -0.2152
 3252SOL    HW219966   0.332   9.266   1.964  1.4528  0.4045  2.0008
 3253SOL     OW19967   0.236   9.154   1.618 -0.3431 -0.3956  0.4820
 3253SOL    HW119968   0.217   9.251   1.630 -0.7371 -0.3071 -0.7266
 3253SOL    HW219969   0.207   9.104   1.700 -0.6486  0.4329  0.8899
 3254SOL     OW19970   4.710   9.259   3.064 -0.9249 -0.1528 -0.4345
 3254SOL    HW119971   4.646   9.307   3.124 -0.1850 -0.7735  0.8617
 3254SOL    HW219972   4.661   9.189   3.012 -1.3614 -0.4058  0.3115
 3255SOL     OW19973   2.653   5.654   3.353  0.2909  0.1597  0.5334
 3255SOL    HW119974   2.566   5.699   3.377  1.7401  2.4368  1.6773
 3255SOL    HW219975   2.693   5.613   3.436 -0.0229 -1.5362 -0.1311
 3256SOL     OW19976   2.288   4.722   0.352  0.0440  0.0584 -0.0315
 3256SOL    HW119977   2.198   4.680   0.344 -0.1904  0.4565  0.5017
 3256SOL    HW219978   2.289   4.809   0.304 -0.1905  0.5825  0.9048
 3257SOL     OW19979   8.909   4.002   1.783 -0.3069  0.1235  0.0849
 3257SOL    HW119980   8.935   4.036   1.693 -0.9936  0.3792 -0.0187
 3257SOL    HW219981   8.990   4.000   1.842 -0.0906  1.1426 -0.1611
 3258SOL     OW19982   9.147   3.668   1.428 -0.3261 -0.3830 -0.2480
 3258SOL    HW119983   9.222   3.731   1.447 -0.8691 -0.1556  1.1511
 3258SOL    HW219984   9.136   3.660   1.329  0.9361  0.2978 -0.4587
 3259SOL     OW19985   9.266   0.456   2.256  0.1044 -0.3636  0.0233
 3259SOL    HW119986   9.213   0.391   2.203  0.1861 -0.3329 -0.0951
 3259SOL    HW219987   9.269   0.427   2.352  1.1097 -1.1426 -0.2416
 3260SOL     OW19988   4.508   9.515   3.000 -0.4872  0.0666 -0.2662
 3260SOL    HW119989   4.474   9.594   2.948  0.6548  1.5977  1.2856
 3260SOL    HW219990   4.581   9.544   3.061 -0.0059 -2.2240  0.2771
 3261SOL     OW19991   7.692   0.486   1.358  0.0828 -0.6088 -0.2574
 3261SOL    HW119992   7.754   0.407   1.368 -0.5420 -1.0712 -0.0124
 3261SOL    HW219993   7.644   0.501   1.445 -2.3333 -2.0772 -1.2979
 3262SOL     OW19994   0.989   8.066   0.323  0.2618 -0.8501  0.3736
 3262SOL    HW119995   0.970   8.061   0.421  0.3731 -1.1495  0.3794
 3262SOL    HW219996   0.982   7.975   0.282 -0.8720 -0.5635 -0.1023
 3263SOL     OW19997   3.303   2.251   3.090  0.2286  0.0034 -0.2478
 3263SOL    HW119998   3.217   2.281   3.049  0.3780  0.7337 -0.0338
 3263SOL    HW219999   3.366   2.223   3.017 -0.1079 -0.3288 -0.4158
 3264SOL     OW20000   2.795   4.074   0.867 -0.1433 -0.0424 -0.5481
 3264SOL    HW120001   2.787   4.006   0.794 -2.7504  0.4821 -0.7895
 3264SOL    HW220002   2.731   4.149   0.851  0.5000  0.9616  1.3616
 3265SOL     OW20003   8.054   3.022   3.259  0.1643 -0.1542  0.0849
 3265SOL    HW120004   8.027   3.017   3.356 -0.8642 -0.7004 -0.2280
 3265SOL    HW220005   8.121   2.950   3.240  1.8597  1.1902  0.8544
 3266SOL     OW20006   2.364   1.931   2.952 -0.5016 -0.1604 -0.3867
 3266SOL    HW120007   2.445   1.902   3.003 -0.6619  1.5268  0.8644
 3266SOL    HW220008   2.282   1.906   3.003 -0.6674  1.2338  0.0707
 3267SOL     OW20009   3.676   8.727   1.963  0.3894 -0.2718  0.2163
 3267SOL    HW120010   3.711   8.803   1.909 -0.6630 -0.0488 -0.1770
 3267SOL    HW220011   3.747   8.693   2.024  2.0654 -1.4593 -2.3275
 3268SOL     OW20012   3.451   3.014   1.918 -0.0520 -0.4556 -0.5705
 3268SOL    HW120013   3.440   2.942   1.986 -0.1093  0.8465  0.8237
 3268SOL    HW220014   3.465   3.101   1.964 -1.1500  0.6201 -2.2229
 3269SOL     OW20015   0.112   5.714   0.276 -0.4009  0.2694  0.1066
 3269SOL    HW120016   0.182   5.766   0.226 -0.7105  0.8807  0.3041
 3269SOL    HW220017   0.149   5.625   0.303  0.0622  0.3028 -0.4256
 3270SOL     OW20018   3.117   0.405   3.405  0.5057  0.0171  0.1733
 3270SOL    HW120019   3.143   0.328   3.462  0.2338 -0.8947 -0.9167
 3270SOL    HW220020   3.025   0.392   3.369  1.8808 -1.1304 -3.2172
 3271SOL     OW20021   3.746   0.999   2.596  0.0766  0.4063  0.1568
 3271SOL    HW120022   3.806   1.014   2.675  1.6604  0.1785 -0.9800
 3271SOL    HW220023   3.716   0.904   2.594 -0.9182  0.6814  1.1122
 3272SOL     OW20024   8.116   2.207   2.707 -0.2008  0.1320 -0.5120
 3272SOL    HW120025   8.095   2.122   2.659  1.9186 -1.0349  0.5756
 3272SOL    HW220026   8.075   2.204   2.798 -1.3338  0.9080 -0.9801
 3273SOL     OW20027   1.713   6.513   0.611 -0.2193 -0.5583  0.7094
 3273SOL    HW120028   1.687   6.439   0.672 -1.9891  0.0731  0.7689
 3273SOL    HW220029   1.657   6.594   0.631  0.4763  0.2380 -0.4886
 3274SOL     OW20030   4.292   2.446   2.364  0.2663  0.4534 -0.7286
 3274SOL    HW120031   4.342   2.365   2.334 -0.4782  0.3767 -1.8283
 3274SOL    HW220032   4.291   2.513   2.290  1.2174  1.6461  0.3094
 3275SOL     OW20033   2.012   2.796   2.792 -0.6453 -0.3782 -0.5296
 3275SOL    HW120034   2.096   2.808   2.844  0.2965 -0.2240 -2.0589
 3275SOL    HW220035   2.026   2.728   2.720 -2.0755 -0.9729 -0.2628
 3276SOL     OW20036   1.183   4.707   1.717  0.6115 -0.4942  0.5552
 3276SOL    HW120037   1.264   4.662   1.680  1.1369  0.6665  0.2680
 3276SOL    HW220038   1.190   4.713   1.816  0.5828 -0.9467  0.5867
 3277SOL     OW20039   4.425   0.897   1.399  0.3553 -0.2185  0.2545
 3277SOL    HW120040   4.437   0.806   1.361 -2.4732 -0.8276  0.6818
 3277SOL    HW220041   4.432   0.965   1.326 -1.9708 -1.1451 -0.8862
 3278SOL     OW20042   1.777   4.566   0.040  0.6043  0.1428  0.4255
 3278SOL    HW120043   1.800   4.503   0.114 -1.5889  0.0228  1.0534
 3278SOL    HW220044   1.834   4.547  -0.040  0.9121 -1.7195  1.0750
 3279SOL     OW20045   8.948   3.570   2.542  0.1595  0.0611 -0.2130
 3279SOL    HW120046   8.985   3.662   2.554 -0.4773  0.1986  0.7779
 3279SOL    HW220047   8.974   3.535   2.452  0.2599  1.2750 -0.6660
 3280SOL     OW20048   9.015   2.591   2.099  0.5110 -0.4061 -0.4254
 3280SOL    HW120049   8.951   2.643   2.042 -0.9271 -0.6710  0.9181
 3280SOL    HW220050   8.990   2.495   2.099 -1.2854  0.0118  2.9607
 3281SOL     OW20051   0.338   1.145   1.183  0.0583  0.1946  0.2704
 3281SOL    HW120052   0.293   1.205   1.250  1.9544  1.6476  0.2944
 3281SOL    HW220053   0.363   1.059   1.228  1.0223  1.0246  1.3801
 3282SOL     OW20054   1.408   7.403   3.241  0.6404 -0.0651  0.1077
 3282SOL    HW120055   1.438   7.405   3.146  2.2286  0.4357  0.6013
 3282SOL    HW220056   1.447   7.324   3.287 -1.1225 -0.9919  0.0421
 3283SOL     OW20057   9.709   5.892   2.737 -0.1092  0.1013 -0.4825
 3283SOL    HW120058   9.705   5.796   2.711 -1.9605 -0.3587  1.3573
 3283SOL    HW220059   9.754   5.901   2.826 -1.4485  0.7537  0.1397
 3284SOL     OW20060   1.503   2.696   3.320 -0.2603 -0.2120 -0.0289
 3284SOL    HW120061   1.454   2.777   3.287 -0.2656 -0.2016  0.0031
 3284SOL    HW220062   1.489   2.688   3.419 -0.7752 -0.5999 -0.1314
 3285SOL     OW20063   3.989   3.943   0.281 -0.3038  0.8609 -0.6244
 3285SOL    HW120064   3.975   3.895   0.367  2.5336 -2.8013 -2.0387
 3285SOL    HW220065   4.060   4.012   0.292  0.0982  0.3600 -0.0300
 3286SOL     OW20066   6.733   9.716   2.149  0.1963  0.0767 -0.9671
 3286SOL    HW120067   6.787   9.785   2.100  0.0285 -0.6349 -2.1869
 3286SOL    HW220068   6.645   9.755   2.176 -0.0312  0.2458 -1.9392
 3287SOL     OW20069   4.079   1.288   2.537 -0.7735 -0.4440 -0.0897
 3287SOL    HW120070   4.060   1.215   2.472  0.5496  0.1845 -1.2069
 3287SOL    HW220071   3.999   1.347   2.546 -1.1842 -0.9135 -0.6373
 3288SOL     OW20072   2.617   8.543   0.815  0.0376  0.1844 -0.1146
 3288SOL    HW120073   2.594   8.561   0.720 -1.4389  0.9201  0.3678
 3288SOL    HW220074   2.594   8.448   0.837 -0.9407  0.4095 -0.1219
 3289SOL     OW20075   4.229   8.525   1.416  0.4007 -0.0047  1.2681
 3289SOL    HW120076   4.306   8.537   1.478  1.3793 -0.6557  0.1962
 3289SOL    HW220077   4.148   8.571   1.454  1.5583  1.5125  1.9203
 3290SOL     OW20078   9.220   4.106   2.536 -0.6498 -0.3783  0.7681
 3290SOL    HW120079   9.314   4.074   2.545 -1.2538 -2.3502  0.3143
 3290SOL    HW220080   9.158   4.038   2.576 -1.9740  0.1618 -0.3361
 3291SOL     OW20081   8.861   2.963   3.091 -0.5463  0.5839 -0.5585
 3291SOL    HW120082   8.861   2.867   3.062  0.4741 -0.4457  2.6199
 3291SOL    HW220083   8.781   2.980   3.149  0.4887  0.9915  0.7858
 3292SOL     OW20084   2.220   8.509   0.646 -0.0610 -0.2958 -0.3954
 3292SOL    HW120085   2.134   8.538   0.688  0.4411  0.6920 -0.0530
 3292SOL    HW220086   2.270   8.589   0.613  0.8986 -0.8370 -0.2696
 3293SOL     OW20087   2.846   6.466   0.492 -0.0634 -0.6904 -0.1470
 3293SOL    HW120088   2.845   6.562   0.521 -0.0265 -1.1756  1.5347
 3293SOL    HW220089   2.774   6.416   0.541 -0.2512 -1.4705 -1.2056
 3294SOL     OW20090   2.054   7.621   0.665  0.0259 -0.0132 -0.0514
 3294SOL    HW120091   2.125   7.621   0.594  0.5908  1.1580  0.5165
 3294SOL    HW220092   1.964   7.619   0.621  0.3836 -0.2475 -0.7884
 3295SOL     OW20093   0.526   5.937   1.024  0.0900  0.2899 -0.0573
 3295SOL    HW120094   0.468   6.018   1.029 -0.5144 -0.0527 -1.3355
 3295SOL    HW220095   0.621   5.964   1.013 -0.1594  0.8183 -0.9134
 3296SOL     OW20096   1.240   4.411   2.572 -0.0159  0.0653  0.4972
 3296SOL    HW120097   1.221   4.350   2.495 -0.2211 -0.6968  1.1411
 3296SOL    HW220098   1.155   4.456   2.600  0.0173  0.1773  0.4192
 3297SOL     OW20099   0.821   6.884   0.096  0.1515  0.0819 -0.5978
 3297SOL    HW120100   0.752   6.947   0.133  1.3783  0.8118  0.5157
 3297SOL    HW220101   0.870   6.929   0.022  0.4348  0.1165 -0.3894
 3298SOL     OW20102   3.727   2.238   1.042  0.1333  0.5971  0.0151
 3298SOL    HW120103   3.821   2.246   1.073  0.5000  0.4866 -1.0518
 3298SOL    HW220104   3.720   2.167   0.972 -0.4828  1.5308 -0.8955
 3299SOL     OW20105   0.182   0.237   2.151 -0.1951 -0.1430  0.2152
 3299SOL    HW120106   0.162   0.158   2.092  3.7022 -0.4773 -0.7868
 3299SOL    HW220107   0.236   0.207   2.229 -0.1138  1.2934  0.7162
 3300SOL     OW20108   9.576   2.485   1.714  0.6386  0.4345  0.0940
 3300SOL    HW120109   9.642   2.432   1.767 -0.7310 -1.2579  0.1731
 3300SOL    HW220110   9.603   2.485   1.617  1.1150  0.3157  0.2269
 3301SOL     OW20111   4.151   0.309   0.082  0.0540  0.5386  0.2764
 3301SOL    HW120112   4.113   0.329  -0.008  0.1033  0.7129  0.2950
 3301SOL    HW220113   4.096   0.238   0.126  0.5985 -0.2633 -0.2931
 3302SOL     OW20114   0.233   0.383   1.757  0.1996 -0.0237 -0.1708
 3302SOL    HW120115   0.242   0.319   1.680 -0.9064  0.0544 -0.3748
 3302SOL    HW220116   0.319   0.431   1.770  1.8638 -3.3537  1.5872
 3303SOL     OW20117   8.849   4.686   2.360  0.2388  0.1790  0.0485
 3303SOL    HW120118   8.891   4.743   2.290  1.3615 -0.3598  0.2698
 3303SOL    HW220119   8.883   4.592   2.351 -1.2081 -0.3591 -0.0050
 3304SOL     OW20120   2.332   8.078   1.494  0.3458  0.1491 -0.0894
 3304SOL    HW120121   2.287   8.082   1.405 -0.3976  0.9496  0.3106
 3304SOL    HW220122   2.267   8.107   1.565  0.5714 -1.5811  0.8456
 3305SOL     OW20123   3.876   7.892   0.451 -0.3828  0.3462  0.4064
 3305SOL    HW120124   3.923   7.854   0.371 -3.3453 -1.5163 -0.5377
 3305SOL    HW220125   3.922   7.976   0.480  2.7005 -0.6766 -1.2158
 3306SOL     OW20126   5.161   2.181   1.098 -0.3015  0.1115 -0.6505
 3306SOL    HW120127   5.246   2.199   1.050 -0.0462 -1.8419 -0.9451
 3306SOL    HW220128   5.102   2.123   1.042 -0.6501 -0.8888  0.7296
 3307SOL     OW20129   2.046   6.194   2.568  0.2168 -0.0229 -0.4478
 3307SOL    HW120130   2.086   6.103   2.557 -1.0256 -0.4707 -1.3888
 3307SOL    HW220131   2.061   6.248   2.485  0.0785  0.2741 -0.2810
 3308SOL     OW20132   1.317   8.918   3.270 -0.0074  0.1825 -0.0636
 3308SOL    HW120133   1.414   8.940   3.256  0.3783 -1.6183 -0.3117
 3308SOL    HW220134   1.307   8.821   3.289 -1.6054  0.6438  1.6478
 3309SOL     OW20135   2.696   2.916   0.306  0.4912 -0.4119  0.5553
 3309SOL    HW120136   2.690   2.978   0.384 -0.7452 -0.5585  0.5826
 3309SOL    HW220137   2.680   2.822   0.336 -1.4711 -0.3163 -0.0759
 3310SOL     OW20138   9.581   6.404   1.168 -0.3061  0.1801  0.6242
 3310SOL    HW120139   9.634   6.479   1.131  0.6699 -0.1884  1.2604
 3310SOL    HW220140   9.486   6.411   1.137 -0.0659  1.2891  0.1468
 3311SOL     OW20141   0.365   1.736   2.315  0.0807 -0.2120 -0.6828
 3311SOL    HW120142   0.386   1.823   2.361  0.9478 -0.6103 -0.3213
 3311SOL    HW220143   0.445   1.705   2.265 -0.5037 -0.3679 -1.5326
 3312SOL     OW20144   0.903   1.907   2.077  0.0561 -0.1816  0.5039
 3312SOL    HW120145   0.856   1.878   2.160  0.2535 -2.3961 -0.1093
 3312SOL    HW220146   0.856   1.869   1.997  2.1898 -1.5486 -0.1651
 3313SOL     OW20147   8.583   1.851   0.867  0.4566 -0.5382  0.2559
 3313SOL    HW120148   8.513   1.870   0.937  1.1094 -0.5070  0.9054
 3313SOL    HW220149   8.538   1.823   0.782 -0.3916  0.5891  0.3197
 3314SOL     OW20150   0.240   1.385   2.231 -0.6976 -0.6576 -0.2075
 3314SOL    HW120151   0.308   1.332   2.281  1.7157 -0.0122 -2.6939
 3314SOL    HW220152   0.151   1.377   2.277  1.3411 -0.1791  4.0750
 3315SOL     OW20153   9.375   4.014   0.267 -0.1699 -0.0047  0.5361
 3315SOL    HW120154   9.346   4.107   0.292 -0.4542  0.1650 -0.3982
 3315SOL    HW220155   9.472   4.002   0.289  0.1237  0.8545 -0.2664
 3316SOL     OW20156   2.660   2.991   1.909  0.1168 -0.2283  0.0705
 3316SOL    HW120157   2.693   3.084   1.926 -0.5070 -0.1047  0.6105
 3316SOL    HW220158   2.702   2.929   1.976 -2.4902  0.2888  2.2350
 3317SOL     OW20159   0.764   6.548   2.859 -0.0034  0.3943 -0.0979
 3317SOL    HW120160   0.724   6.566   2.949 -2.0332 -0.1357 -0.8606
 3317SOL    HW220161   0.784   6.450   2.851  0.4264  0.4847 -0.1213
 3318SOL     OW20162   8.161   2.095   0.036 -0.1851  0.1627  0.3630
 3318SOL    HW120163   8.137   2.049  -0.049 -1.6009  0.8783  0.3636
 3318SOL    HW220164   8.085   2.088   0.101  0.8339 -0.2839  1.5347
 3319SOL     OW20165   4.053   7.279   3.154 -0.2287 -0.5292 -0.1039
 3319SOL    HW120166   3.965   7.326   3.142  0.5045  0.8246 -0.2982
 3319SOL    HW220167   4.066   7.258   3.251 -1.0754 -1.3542 -0.1649
 3320SOL     OW20168   0.469   6.222   1.530 -0.3257  0.4533 -0.4343
 3320SOL    HW120169   0.512   6.233   1.619 -0.1398 -0.7871 -0.3596
 3320SOL    HW220170   0.423   6.307   1.504  1.6009  1.5727 -0.2226
 3321SOL     OW20171   2.546   0.298   0.418  0.2516 -0.4659  0.8881
 3321SOL    HW120172   2.592   0.385   0.400  0.1588 -0.3991  0.9696
 3321SOL    HW220173   2.566   0.268   0.512  2.1664 -1.6962  0.1112
 3322SOL     OW20174   0.490   3.921   1.005 -0.3762 -0.3398  0.0861
 3322SOL    HW120175   0.408   3.936   1.061 -0.4351 -0.3924  0.0149
 3322SOL    HW220176   0.468   3.857   0.931 -0.1873 -0.5941  0.2525
 3323SOL     OW20177   1.971   3.142   1.097 -0.1388  0.1648 -0.6098
 3323SOL    HW120178   1.913   3.162   1.176 -0.3812  0.7160 -0.9222
 3323SOL    HW220179   2.043   3.211   1.090 -0.4068  0.3972 -1.1462
 3324SOL     OW20180   0.607   4.663   3.267 -0.0297  0.1137  0.0929
 3324SOL    HW120181   0.614   4.757   3.234  0.5022  0.1772  0.3660
 3324SOL    HW220182   0.600   4.664   3.367  2.9874 -0.2314  0.3588
 3325SOL     OW20183   2.277   4.141   2.360  0.0610  0.3050 -0.4472
 3325SOL    HW120184   2.251   4.129   2.455  0.5238  1.2263 -0.1990
 3325SOL    HW220185   2.206   4.193   2.312 -0.0121  0.1386 -0.5161
 3326SOL     OW20186   3.590   1.815   2.825  0.4017  0.6646 -0.3054
 3326SOL    HW120187   3.611   1.794   2.921  0.3569 -1.2813 -0.6884
 3326SOL    HW220188   3.508   1.872   2.820  0.5205  0.9415  0.8198
 3327SOL     OW20189   0.052   3.669   2.220  0.5497  0.2563 -0.0679
 3327SOL    HW120190   0.140   3.642   2.181 -0.1303 -0.0389 -1.4324
 3327SOL    HW220191   0.054   3.767   2.241  0.6199  0.6160 -1.7088
 3328SOL     OW20192   9.144   0.666   1.584  0.5395  0.5703 -0.1558
 3328SOL    HW120193   9.203   0.596   1.544 -3.5234 -1.8773 -2.2598
 3328SOL    HW220194   9.086   0.625   1.654  0.6125  2.6959  1.2013
 3329SOL     OW20195   3.504   1.139   2.995 -0.7768  0.0293  0.3054
 3329SOL    HW120196   3.556   1.126   3.079  1.3221  1.3071 -0.7733
 3329SOL    HW220197   3.522   1.064   2.932 -2.6318 -1.1214  1.0935
 3330SOL     OW20198   1.918   2.226   2.433 -0.9533  0.5255 -0.4007
 3330SOL    HW120199   1.965   2.299   2.382 -0.3400  0.6354  0.3174
 3330SOL    HW220200   1.821   2.251   2.444 -0.5671  1.6742  0.6091
 3331SOL     OW20201   3.890   1.620   2.918  0.6143  0.4553  0.0713
 3331SOL    HW120202   3.816   1.587   2.860  1.8206 -0.0845 -1.1843
 3331SOL    HW220203   3.858   1.700   2.970 -0.4132  1.1160 -1.5302
 3332SOL     OW20204   2.209   2.571   2.227 -0.0452 -0.7995 -0.5679
 3332SOL    HW120205   2.161   2.634   2.166 -0.3253  0.8036  1.2318
 3332SOL    HW220206   2.255   2.624   2.299  0.1381 -2.6237  0.6803
 3333SOL     OW20207   0.618   0.546   0.035  0.3911 -0.0789 -0.2113
 3333SOL    HW120208   0.621   0.637   0.077 -0.8959  0.3263 -0.9729
 3333SOL    HW220209   0.564   0.485   0.093 -2.9022  0.9418 -2.0646
 3334SOL     OW20210   7.911   4.008   0.771 -0.1398 -0.3956 -0.9092
 3334SOL    HW120211   7.927   4.106   0.784 -1.6387 -0.4738  1.7112
 3334SOL    HW220212   7.861   3.994   0.686 -1.1122  1.2366 -0.6251
 3335SOL     OW20213   3.976   9.267   0.713 -1.0031  0.7594 -0.2919
 3335SOL    HW120214   4.068   9.230   0.704 -0.7078  1.3665  0.2308
 3335SOL    HW220215   3.910   9.192   0.710 -0.5763  0.4234 -1.8223
 3336SOL     OW20216   1.786   7.425   0.220  0.5133 -0.4731  0.6736
 3336SOL    HW120217   1.767   7.462   0.311  1.6526 -0.7374  1.0314
 3336SOL    HW220218   1.767   7.493   0.151  0.8055  0.1531  1.2037
 3337SOL     OW20219   0.788   4.241   1.747 -0.7470 -0.2671 -0.1164
 3337SOL    HW120220   0.834   4.328   1.762 -0.6309  0.4653 -4.0507
 3337SOL    HW220221   0.856   4.167   1.747 -0.4661 -0.0087  0.5762
 3338SOL     OW20222   3.672   0.595   2.796 -0.0270  0.1127 -0.4547
 3338SOL    HW120223   3.734   0.641   2.860  0.6372 -2.5473  0.9030
 3338SOL    HW220224   3.640   0.509   2.837 -2.5665  0.1649 -2.2053
 3339SOL     OW20225   3.484   0.182   0.786  0.4629 -0.0047  0.1198
 3339SOL    HW120226   3.557   0.248   0.803  1.0105 -0.9964  1.7748
 3339SOL    HW220227   3.493   0.144   0.694 -0.2961  2.7401 -1.1245
 3340SOL     OW20228   0.840   7.635   0.921 -0.2345 -0.0164 -0.2618
 3340SOL    HW120229   0.752   7.656   0.965  0.6029 -1.5057  2.2570
 3340SOL    HW220230   0.839   7.541   0.889  1.0807 -0.6844  1.5513
 3341SOL     OW20231   2.651   2.013   3.019 -0.2425 -0.7945  0.5231
 3341SOL    HW120232   2.721   2.055   3.077 -0.2441 -0.6583  0.4271
 3341SOL    HW220233   2.683   1.924   2.986  1.3136  0.7587 -2.3258
 3342SOL     OW20234   8.088   1.988   2.559 -0.2306  0.3506 -0.3031
 3342SOL    HW120235   8.133   1.988   2.470  0.3858  0.5816 -0.0023
 3342SOL    HW220236   7.989   1.989   2.547 -0.1921 -1.8965 -0.9768
 3343SOL     OW20237   0.234   9.448   0.478  0.5325 -0.0583  0.2115
 3343SOL    HW120238   0.181   9.498   0.546  1.9032  1.4264  0.2194
 3343SOL    HW220239   0.197   9.355   0.468  0.9388 -0.6595  3.7464
 3344SOL     OW20240   3.381   5.109   0.969 -0.4674  0.4731 -0.2458
 3344SOL    HW120241   3.438   5.112   1.052 -0.7926 -0.0037  0.0025
 3344SOL    HW220242   3.314   5.183   0.971 -0.6157  0.3360  0.0302
 3345SOL     OW20243   9.827   5.933   0.240 -0.3152  0.3010  0.3405
 3345SOL    HW120244   9.756   5.863   0.248  1.0443 -1.2581 -0.9029
 3345SOL    HW220245   9.889   5.910   0.165  0.3700  2.6685  0.1338
 3346SOL     OW20246   7.715   1.301   1.825  0.2746 -0.6053 -0.3698
 3346SOL    HW120247   7.761   1.267   1.907 -1.5976  2.3435  2.0077
 3346SOL    HW220248   7.773   1.287   1.745  2.7798 -2.1814  1.6661
 3347SOL     OW20249   1.054   1.900   1.411 -0.0583  0.3304  0.6099
 3347SOL    HW120250   1.110   1.843   1.471  1.7382  0.7890 -0.5870
 3347SOL    HW220251   1.008   1.843   1.343 -0.6022  0.0225  1.2227
 3348SOL     OW20252   2.043   5.474   2.028 -0.0392  0.2771 -0.1013
 3348SOL    HW120253   2.034   5.381   1.994 -3.8704  0.2396  0.7310
 3348SOL    HW220254   2.017   5.539   1.957 -1.1602  0.5105  0.5048
 3349SOL     OW20255   3.280   2.559   1.705  0.0301  0.0616 -0.0530
 3349SOL    HW120256   3.256   2.631   1.640  0.0186 -1.2128 -1.4733
 3349SOL    HW220257   3.276   2.470   1.660  0.8069 -0.7745  1.4825
 3350SOL     OW20258   3.844   4.178   1.077  0.6749 -0.3908  0.4232
 3350SOL    HW120259   3.828   4.135   0.988  1.6482 -0.0771  0.0888
 3350SOL    HW220260   3.770   4.243   1.096 -0.6272 -1.9398  0.7858
 3351SOL     OW20261   1.707   7.099   0.517 -0.4082 -0.5329  0.4296
 3351SOL    HW120262   1.744   7.165   0.451 -0.1160 -0.5386  0.5841
 3351SOL    HW220263   1.653   7.148   0.586 -2.1758 -0.7218 -0.8071
 3352SOL     OW20264   3.605   3.693   2.455  0.9136 -0.1646  0.1256
 3352SOL    HW120265   3.650   3.651   2.377  2.4865 -0.4685  1.1706
 3352SOL    HW220266   3.668   3.696   2.533 -0.6428  0.0363  1.4181
 3353SOL     OW20267   0.879   9.581   1.356 -0.5469  0.4429 -0.0845
 3353SOL    HW120268   0.941   9.565   1.433  0.2705 -1.6700 -1.1449
 3353SOL    HW220269   0.928   9.627   1.282 -0.5673 -0.0789 -0.4279
 3354SOL     OW20270   8.862   0.908   2.564 -0.2171  0.8961  0.4656
 3354SOL    HW120271   8.811   0.871   2.642 -1.0223  0.6233 -0.1756
 3354SOL    HW220272   8.804   0.906   2.483  0.3027  2.0277  0.0527
 3355SOL     OW20273   1.503   8.805   0.595 -0.0060 -0.3533  0.0777
 3355SOL    HW120274   1.502   8.879   0.662 -1.6260  0.1218 -0.4497
 3355SOL    HW220275   1.411   8.766   0.586  0.7670 -2.2684  0.1552
 3356SOL     OW20276   9.149   4.182   3.365  0.2855 -0.5952 -0.0439
 3356SOL    HW120277   9.228   4.142   3.411  1.0795 -1.3715 -2.0236
 3356SOL    HW220278   9.174   4.270   3.326 -0.0716 -0.4273  0.1089
 3357SOL     OW20279   0.339   6.094   2.235  0.0000  0.5798 -0.1580
 3357SOL    HW120280   0.244   6.075   2.261 -0.9760  3.1376 -1.5934
 3357SOL    HW220281   0.349   6.082   2.136  1.2264  0.2073  0.0026
 3358SOL     OW20282   1.818   8.164   1.053  0.2010  0.2209  0.2663
 3358SOL    HW120283   1.847   8.105   1.129 -0.2892 -0.2114  0.1285
 3358SOL    HW220284   1.807   8.108   0.971 -1.0073  0.3646  0.3187
 3359SOL     OW20285   2.359   9.299   0.534  0.8523  0.4279  0.0253
 3359SOL    HW120286   2.351   9.384   0.585  1.3739  0.1955  0.4992
 3359SOL    HW220287   2.419   9.236   0.583  2.1628  0.5689 -1.3560
 3360SOL     OW20288   0.911   5.294   2.312 -0.1007  0.1360 -0.4256
 3360SOL    HW120289   0.945   5.222   2.372  1.6268  1.1488 -0.1491
 3360SOL    HW220290   0.827   5.334   2.351 -0.7117 -1.2814 -0.2718
 3361SOL     OW20291   2.366   1.263   1.230  0.2928 -0.2346 -0.3870
 3361SOL    HW120292   2.395   1.210   1.150  0.2854 -1.0336  0.1412
 3361SOL    HW220293   2.382   1.211   1.313 -0.0986  0.4257  0.1126
 3362SOL     OW20294   4.179   3.173   2.622 -0.2799  0.0046  0.1105
 3362SOL    HW120295   4.186   3.081   2.660 -0.4823 -0.1313 -0.1846
 3362SOL    HW220296   4.271   3.206   2.598 -0.2097 -0.1311  0.1902
 3363SOL     OW20297   2.595   6.087   0.459  0.3873  0.2232  0.2769
 3363SOL    HW120298   2.591   6.163   0.394 -1.3601  0.8913  1.1461
 3363SOL    HW220299   2.595   6.000   0.410  3.0259  0.7527 -0.7594
 3364SOL     OW20300   8.702   1.932   0.241 -0.5240 -0.2474  0.2336
 3364SOL    HW120301   8.616   1.927   0.291 -0.1979  1.2500  0.9687
 3364SOL    HW220302   8.697   2.006   0.174 -0.2437 -0.9600 -0.5869
 3365SOL     OW20303   1.995   4.789   0.691 -0.2221  0.1110  0.2082
 3365SOL    HW120304   1.934   4.711   0.675  0.2190  0.0503 -1.2995
 3365SOL    HW220305   2.046   4.775   0.776 -0.8461 -0.7827  0.4447
 3366SOL     OW20306   3.061   6.700   2.485  0.7821  0.2381 -0.2794
 3366SOL    HW120307   3.050   6.799   2.475 -1.7886  0.0165 -0.0064
 3366SOL    HW220308   3.000   6.667   2.557  0.8254 -1.6816 -1.1004
 3367SOL     OW20309   9.231   4.446   1.211 -0.2087  0.5439  0.4989
 3367SOL    HW120310   9.260   4.350   1.202  0.6916  0.9025 -0.6177
 3367SOL    HW220311   9.297   4.495   1.267  0.3106  0.9117 -0.4188
 3368SOL     OW20312   8.570   0.626   1.223  0.2628 -0.3665  0.4137
 3368SOL    HW120313   8.618   0.559   1.167  0.7540  1.6734 -1.7013
 3368SOL    HW220314   8.635   0.678   1.278 -0.0399 -1.1385  1.5024
 3369SOL     OW20315   2.440   1.032   1.735  0.6272 -0.2948 -0.2993
 3369SOL    HW120316   2.396   0.975   1.805 -0.6044 -0.6665 -1.3404
 3369SOL    HW220317   2.411   1.127   1.747  1.6373 -0.0895  0.6244
 3370SOL     OW20318   1.531   0.033   2.716  0.4742 -0.0439  0.1758
 3370SOL    HW120319   1.535   0.129   2.744 -1.0887  0.4017 -1.0738
 3370SOL    HW220320   1.528   0.028   2.616  0.1041 -1.3764  0.2481
 3371SOL     OW20321   8.657   4.749   3.224 -0.1458 -0.4328  0.4561
 3371SOL    HW120322   8.577   4.753   3.165 -0.5358  0.4051  1.0354
 3371SOL    HW220323   8.637   4.794   3.311  0.4999 -1.4560  1.1394
 3372SOL     OW20324   2.825   4.256   3.038  0.1528 -0.2109  0.0937
 3372SOL    HW120325   2.735   4.275   3.079 -0.8461 -0.5764 -1.8565
 3372SOL    HW220326   2.844   4.158   3.044 -0.1410 -0.3129 -0.5845
 3373SOL     OW20327   1.625   4.982   3.434  0.4022  0.3232 -0.2369
 3373SOL    HW120328   1.611   4.898   3.486 -0.9200  0.9067  0.3703
 3373SOL    HW220329   1.643   4.960   3.338 -0.9740 -0.6173 -0.2895
 3374SOL     OW20330   4.262   1.111   1.729 -0.5867  0.1079 -0.1940
 3374SOL    HW120331   4.182   1.072   1.774 -1.0106  0.4386 -0.6522
 3374SOL    HW220332   4.272   1.071   1.638  0.7752 -1.1984  0.5231
 3375SOL     OW20333   1.612   8.586   0.827  0.1786  0.1228  0.6112
 3375SOL    HW120334   1.658   8.631   0.750  1.4074 -0.6988  0.8420
 3375SOL    HW220335   1.557   8.652   0.877 -0.7581  0.6384 -1.0522
 3376SOL     OW20336   9.036   4.499   2.220 -0.2130 -0.2430  0.6083
 3376SOL    HW120337   9.129   4.467   2.239 -0.2788 -0.6016  0.3373
 3376SOL    HW220338   8.980   4.422   2.189 -0.5743 -0.0100  0.6799
 3377SOL     OW20339   3.598   1.110   1.733 -0.1991 -0.1259  0.4549
 3377SOL    HW120340   3.550   1.036   1.686 -1.6759  1.1936 -0.1755
 3377SOL    HW220341   3.675   1.142   1.678  0.4501 -1.1978  0.7395
 3378SOL     OW20342   8.934   2.658   1.537 -0.4608  0.4455  0.1662
 3378SOL    HW120343   8.988   2.596   1.479 -0.2944  0.7736 -0.0318
 3378SOL    HW220344   8.983   2.674   1.623  1.2797  3.1909 -1.2485
 3379SOL     OW20345   3.000   3.296   0.835 -0.8862  0.6302  0.1994
 3379SOL    HW120346   2.986   3.362   0.761 -0.0027  1.1388  0.4773
 3379SOL    HW220347   2.922   3.297   0.896 -1.5626  0.3092 -0.6391
 3380SOL     OW20348   8.426   3.197   1.571  0.7888 -0.6867 -0.3283
 3380SOL    HW120349   8.359   3.198   1.497  0.8109  1.8867 -0.3472
 3380SOL    HW220350   8.385   3.158   1.653 -1.5038  2.9456  0.3311
 3381SOL     OW20351   0.031   3.424   3.340  0.3141  0.1755  0.3591
 3381SOL    HW120352  -0.046   3.373   3.300 -0.3649  1.3195  0.1538
 3381SOL    HW220353   0.117   3.389   3.304 -0.1954 -0.1434 -0.5647
 3382SOL     OW20354   9.032   0.469   1.363  0.8908  0.3824 -0.2692
 3382SOL    HW120355   9.048   0.489   1.266  0.3225  1.0326 -0.2343
 3382SOL    HW220356   9.007   0.553   1.411  1.2168  0.0758  0.4578
 3383SOL     OW20357   4.400   0.256   2.310  0.3549  0.2164  0.1618
 3383SOL    HW120358   4.330   0.263   2.381 -0.6067 -1.5716 -0.5854
 3383SOL    HW220359   4.487   0.229   2.352  0.7993  2.9655  1.1661
 3384SOL     OW20360   0.524   0.234   0.867  0.5733  0.0127 -0.2436
 3384SOL    HW120361   0.495   0.292   0.791 -0.1642  1.6225  1.2359
 3384SOL    HW220362   0.497   0.276   0.954  1.9316 -1.4928  0.9480
 3385SOL     OW20363   0.744   7.519   1.556 -0.3652 -0.0733  0.0774
 3385SOL    HW120364   0.752   7.618   1.571  0.7642  0.0759 -1.3878
 3385SOL    HW220365   0.650   7.490   1.577 -1.2760  1.6690 -1.3852
 3386SOL     OW20366   1.500   9.014   2.661 -0.5483 -0.6676 -0.3466
 3386SOL    HW120367   1.525   8.921   2.687 -1.1070 -0.6828  0.1545
 3386SOL    HW220368   1.401   9.026   2.669 -0.3181  0.4240  1.0469
 3387SOL     OW20369   1.619   5.504   1.699  0.2899 -0.4226  0.9893
 3387SOL    HW120370   1.558   5.426   1.691  1.5841 -1.4085  0.6035
 3387SOL    HW220371   1.564   5.588   1.708 -1.1673 -1.0311 -1.6455
 3388SOL     OW20372   3.002   5.566   2.476  0.2967 -0.1668 -0.0778
 3388SOL    HW120373   2.964   5.602   2.391 -0.4663  0.2674  0.4417
 3388SOL    HW220374   3.010   5.640   2.543  5.7738  0.6948 -1.4168
 3389SOL     OW20375   0.236   8.125   3.138  0.3532 -0.0440 -0.7217
 3389SOL    HW120376   0.233   8.045   3.199 -0.6000  0.7168  0.2463
 3389SOL    HW220377   0.143   8.146   3.107  0.6371  0.5404 -1.1759
 3390SOL     OW20378   0.029   5.731   2.794 -0.1487  0.0456 -0.0609
 3390SOL    HW120379   0.043   5.636   2.822  0.0099 -0.5145 -1.9959
 3390SOL    HW220380  -0.008   5.734   2.701 -2.0116  1.8386  0.7030
 3391SOL     OW20381   0.274   9.905   1.496 -0.7912  0.7604  0.4517
 3391SOL    HW120382   0.280   9.860   1.407 -0.2251  1.2136  0.2574
 3391SOL    HW220383   0.332   9.857   1.562  0.2492  1.5184  0.1061
 3392SOL     OW20384   3.225   0.283   0.190  0.4974  0.0680  0.6608
 3392SOL    HW120385   3.200   0.329   0.275 -1.1607  1.0852 -0.3605
 3392SOL    HW220386   3.167   0.202   0.177  0.7218 -0.0650  0.4766
 3393SOL     OW20387   0.052   6.787   1.393  0.1580  0.1185 -0.0306
 3393SOL    HW120388   0.148   6.757   1.394  0.3551  0.7295 -0.4716
 3393SOL    HW220389   0.024   6.809   1.486  0.8594  1.2234 -0.0705
 3394SOL     OW20390   0.651   4.098   1.087 -0.1468  0.2868 -0.4732
 3394SOL    HW120391   0.578   4.037   1.055 -1.6757  1.7535  0.1676
 3394SOL    HW220392   0.730   4.043   1.116 -1.9478 -1.4568  1.2356
 3395SOL     OW20393   1.313   6.378   2.311 -0.2249 -0.3953 -0.2567
 3395SOL    HW120394   1.353   6.331   2.389 -0.4414 -1.6491 -0.8856
 3395SOL    HW220395   1.382   6.438   2.269  0.2729 -0.6984  0.1219
 3396SOL     OW20396   3.345   4.764   0.866 -0.7105 -0.0279  0.4594
 3396SOL    HW120397   3.413   4.696   0.836 -0.3155 -0.0429  1.3802
 3396SOL    HW220398   3.364   4.851   0.822 -1.9683 -0.8193 -1.7065
 3397SOL     OW20399   0.691   1.750   0.811  0.2267  0.2670 -0.1419
 3397SOL    HW120400   0.625   1.763   0.736 -0.0114 -0.4591 -0.0621
 3397SOL    HW220401   0.724   1.656   0.810 -1.1251 -0.2571  1.7660
 3398SOL     OW20402   0.041   7.511   2.360 -0.1359  0.0759 -0.0715
 3398SOL    HW120403   0.001   7.533   2.449  0.0980 -2.1040  0.6035
 3398SOL    HW220404   0.138   7.534   2.360 -0.0475 -0.2788  0.3894
 3399SOL     OW20405   7.514   1.635   0.238 -0.4159  0.1897 -0.6238
 3399SOL    HW120406   7.458   1.606   0.315 -0.4409 -0.2182 -0.7969
 3399SOL    HW220407   7.540   1.731   0.250 -0.9247  0.3002 -0.4116
 3400SOL     OW20408   2.762   3.004   2.575  1.1010 -0.1500  0.3199
 3400SOL    HW120409   2.794   2.925   2.523  0.7423  1.0033 -1.7182
 3400SOL    HW220410   2.798   3.088   2.534  1.2730  0.7653  2.2985
 3401SOL     OW20411   1.247   9.565   2.267  0.2605  0.2358 -0.5960
 3401SOL    HW120412   1.200   9.627   2.204  0.2304  1.3410  0.4875
 3401SOL    HW220413   1.323   9.613   2.311  0.1818 -0.4639  0.3250
 3402SOL     OW20414   9.282   2.871   1.469 -0.0890 -0.2267 -0.2983
 3402SOL    HW120415   9.286   2.969   1.447  0.7332  0.3591  2.2717
 3402SOL    HW220416   9.220   2.857   1.546  1.4696 -1.4146  0.7850
 3403SOL     OW20417   1.946   5.562   2.384 -0.3372  0.2528 -0.5536
 3403SOL    HW120418   2.042   5.554   2.413 -0.0670  2.8915 -0.5332
 3403SOL    HW220419   1.916   5.476   2.343  1.4906 -1.1933  1.0296
 3404SOL     OW20420   4.191   8.635   3.161  0.5825  0.2813 -0.1711
 3404SOL    HW120421   4.218   8.596   3.073 -0.1345  1.1033 -0.7643
 3404SOL    HW220422   4.134   8.570   3.211 -0.2572  0.4143 -0.9657
 3405SOL     OW20423   0.828   4.133   2.971  0.5689  0.2626 -0.2464
 3405SOL    HW120424   0.783   4.061   2.918 -0.3023 -1.9233  3.3227
 3405SOL    HW220425   0.767   4.212   2.980 -1.1058 -1.1817  1.3488
 3406SOL     OW20426   1.212   4.826   0.220  0.2800 -0.6960  0.9038
 3406SOL    HW120427   1.245   4.912   0.180 -0.5493  0.3694  2.4263
 3406SOL    HW220428   1.163   4.773   0.151  2.0940 -0.6343 -0.4388
 3407SOL     OW20429   3.018   8.542   2.883  0.0375 -0.3431  0.5729
 3407SOL    HW120430   3.088   8.598   2.928  0.2789  0.3908 -0.6998
 3407SOL    HW220431   2.980   8.477   2.949  1.9802 -0.8137  1.2460
 3408SOL     OW20432   0.202   0.354   0.275 -0.0813  0.7445  0.3481
 3408SOL    HW120433   0.118   0.365   0.220  0.4475 -0.7213 -0.8122
 3408SOL    HW220434   0.198   0.266   0.323  0.5375  0.9460  0.7684
 3409SOL     OW20435   1.520   4.727   0.097 -0.5436 -0.0785 -0.0088
 3409SOL    HW120436   1.473   4.706   0.183  0.8997  1.2589  1.1332
 3409SOL    HW220437   1.579   4.650   0.072 -0.0106  0.0247  0.8852
 3410SOL     OW20438   2.663   2.798   3.224  0.0421 -0.2198 -0.1177
 3410SOL    HW120439   2.683   2.817   3.320  1.2579 -1.0299 -0.2094
 3410SOL    HW220440   2.646   2.884   3.176  0.8632  0.2981  0.5026
 3411SOL     OW20441   0.190   3.432   1.674 -0.2533  0.3289 -0.0752
 3411SOL    HW120442   0.195   3.405   1.578  1.7530 -1.4844  0.4827
 3411SOL    HW220443   0.254   3.507   1.692 -0.3532  0.4196 -0.1048
 3412SOL     OW20444   0.296   9.190   2.697 -0.2677 -0.2431 -0.3634
 3412SOL    HW120445   0.297   9.285   2.666 -0.7076 -0.6373 -1.6298
 3412SOL    HW220446   0.351   9.135   2.635 -1.3193 -1.0829 -0.5669
 3413SOL     OW20447   8.263   2.542   0.937  0.1210 -0.2517  0.1719
 3413SOL    HW120448   8.342   2.597   0.962  0.5063 -0.4161 -0.6670
 3413SOL    HW220449   8.288   2.445   0.933  0.5026 -0.0969 -2.3968
 3414SOL     OW20450   2.387   2.151   2.306  0.0147  0.2791 -0.3602
 3414SOL    HW120451   2.419   2.062   2.338  0.9963  0.3236 -1.1788
 3414SOL    HW220452   2.333   2.195   2.378  2.1326  0.3603  1.2269
 3415SOL     OW20453   0.553   9.848   3.049  0.0265 -0.9713  0.4655
 3415SOL    HW120454   0.481   9.780   3.068 -1.0764  0.0866  0.1111
 3415SOL    HW220455   0.596   9.874   3.135 -1.1471 -0.3825  0.8869
 3416SOL     OW20456   1.576   9.413   0.961  0.0716 -0.2871  0.2966
 3416SOL    HW120457   1.576   9.323   1.006 -0.3000  0.1074  1.0995
 3416SOL    HW220458   1.483   9.449   0.961  0.3991  0.5719  0.9378
 3417SOL     OW20459   0.155   2.857   2.627 -0.4406 -0.4611 -0.1271
 3417SOL    HW120460   0.132   2.949   2.597 -2.9504 -0.9075  0.3461
 3417SOL    HW220461   0.155   2.853   2.727  2.6791 -0.2677 -0.0746
 3418SOL     OW20462   1.959   9.986   0.176 -0.4337 -0.5601 -0.2711
 3418SOL    HW120463   2.032  10.023   0.119 -1.8963 -0.1989 -1.9528
 3418SOL    HW220464   1.999   9.947   0.260  1.8000 -1.5347 -1.7397
 3419SOL     OW20465   9.330   9.938   0.292 -0.3783 -0.3994 -0.6079
 3419SOL    HW120466   9.417   9.932   0.342  0.6729  1.2395 -2.1818
 3419SOL    HW220467   9.346   9.920   0.195 -2.1566 -2.0955 -0.6040
 3420SOL     OW20468   2.114   0.643   2.219  0.0854 -0.3482  0.0982
 3420SOL    HW120469   2.107   0.550   2.184  0.0921  0.7117 -2.8624
 3420SOL    HW220470   2.154   0.642   2.311 -0.7647 -3.2958  0.4722
 3421SOL     OW20471   3.616   1.183   0.654  0.2851  0.0773 -0.1705
 3421SOL    HW120472   3.635   1.216   0.561  0.7284 -0.7023 -0.3602
 3421SOL    HW220473   3.572   1.256   0.706 -0.2260  0.4265 -1.0747
 3422SOL     OW20474   9.108   2.823   1.690  0.1119  0.0423  0.2192
 3422SOL    HW120475   9.176   2.783   1.751 -1.9067 -0.0854  2.4988
 3422SOL    HW220476   9.096   2.920   1.712 -1.1859 -0.1839  0.5959
 3423SOL     OW20477   8.645   3.453   0.721 -0.2671 -0.0857  0.3181
 3423SOL    HW120478   8.607   3.528   0.775  1.9151  1.0350  0.3183
 3423SOL    HW220479   8.571   3.391   0.694 -1.9243  1.4293  1.2947
 3424SOL     OW20480   4.422   8.362   2.636  0.4411 -0.3055 -0.6430
 3424SOL    HW120481   4.411   8.432   2.566 -0.6535  0.2659  0.0913
 3424SOL    HW220482   4.506   8.378   2.688 -0.9475  1.8109  1.0228
 3425SOL     OW20483   9.986   9.394   2.152 -0.3392  0.1472  0.0478
 3425SOL    HW120484   9.999   9.471   2.214 -0.0843 -0.4479  0.7406
 3425SOL    HW220485   9.944   9.318   2.202 -0.1135 -0.3390 -0.5058
 3426SOL     OW20486   1.955   7.087   3.327  0.1831 -0.4916  0.2851
 3426SOL    HW120487   1.982   7.148   3.402  0.9712 -0.5331  0.0394
 3426SOL    HW220488   2.000   7.117   3.243 -1.2365 -0.0323 -0.3197
 3427SOL     OW20489   1.975   0.410   2.014 -0.2264 -0.7388 -0.4302
 3427SOL    HW120490   1.901   0.420   2.080 -0.1536  3.1455 -0.8468
 3427SOL    HW220491   1.957   0.467   1.934  2.2844 -1.2185 -1.3913
 3428SOL     OW20492   8.528   1.215   1.538  0.0972  0.1385 -0.4052
 3428SOL    HW120493   8.537   1.122   1.574 -1.6398  0.1315  0.0598
 3428SOL    HW220494   8.614   1.264   1.552  1.4663 -1.7849 -1.8211
 3429SOL     OW20495   2.678   1.693   1.239 -0.4451  0.4536  0.3086
 3429SOL    HW120496   2.612   1.624   1.210 -1.0356  1.2875 -0.3657
 3429SOL    HW220497   2.758   1.648   1.278 -0.7736 -0.6133 -0.2221
 3430SOL     OW20498   1.428   8.581   1.355 -0.0512 -0.3111 -0.0610
 3430SOL    HW120499   1.392   8.496   1.394 -0.1003  0.1534  0.9290
 3430SOL    HW220500   1.353   8.646   1.344  0.2996  0.2848  1.0113
 3431SOL     OW20501   9.783   2.165   0.605  0.7991 -0.4833  0.1053
 3431SOL    HW120502   9.731   2.092   0.561  1.9589 -0.6083 -1.0769
 3431SOL    HW220503   9.722   2.219   0.662 -0.5136 -0.9908 -0.7931
 3432SOL     OW20504   2.235   1.532   0.064 -0.7559 -0.4298 -0.2244
 3432SOL    HW120505   2.141   1.566   0.051 -0.1100  1.9619  1.0101
 3432SOL    HW220506   2.237   1.434   0.048 -2.9201 -0.0831 -3.0249
 3433SOL     OW20507   2.010   9.066   1.493 -0.5833  0.0448  0.2670
 3433SOL    HW120508   1.998   8.971   1.521  1.4785 -1.1343 -2.6518
 3433SOL    HW220509   1.924   9.115   1.505 -2.9886 -3.2848 -2.3314
 3434SOL     OW20510   2.401   1.725   0.131 -0.4496 -0.1944 -0.1314
 3434SOL    HW120511   2.351   1.639   0.127 -2.3716  0.9586 -1.4274
 3434SOL    HW220512   2.459   1.726   0.213 -0.5993 -2.5933  0.0289
 3435SOL     OW20513   2.007   5.504   0.146  0.4697  0.2768  0.0658
 3435SOL    HW120514   1.933   5.562   0.112 -0.5039  0.1763  1.9084
 3435SOL    HW220515   2.007   5.417   0.096  1.1136  1.3387 -1.8187
 3436SOL     OW20516   0.022   5.148   2.149 -0.1460 -0.1904 -0.6769
 3436SOL    HW120517   0.005   5.104   2.237  0.0299 -2.0615 -1.5575
 3436SOL    HW220518  -0.047   5.220   2.134 -0.4124 -0.1242  0.7873
 3437SOL     OW20519   2.692   2.997   2.280 -0.4237 -0.0195  0.6859
 3437SOL    HW120520   2.664   2.907   2.311  0.9389 -0.0708  1.7863
 3437SOL    HW220521   2.776   2.990   2.225 -0.8053  0.4769  0.0244
 3438SOL     OW20522   7.786   4.729   0.406 -0.2172  0.1890  0.9994
 3438SOL    HW120523   7.765   4.803   0.470  0.4237  0.1275  1.2887
 3438SOL    HW220524   7.869   4.752   0.354 -0.0992 -0.2545  0.9861
 3439SOL     OW20525   2.277   1.589   2.629  0.2660  0.3024  0.3011
 3439SOL    HW120526   2.365   1.544   2.644  0.7548  1.8255  2.1879
 3439SOL    HW220527   2.247   1.573   2.535  2.1345 -0.9419 -0.1082
 3440SOL     OW20528   2.439   9.758   1.784  0.3909  0.6453 -0.1405
 3440SOL    HW120529   2.417   9.769   1.881 -0.7904 -1.0129 -0.2063
 3440SOL    HW220530   2.523   9.706   1.774 -0.5954 -1.0022 -0.0176
 3441SOL     OW20531   2.602   4.653   0.827  0.4332 -0.4633 -0.6008
 3441SOL    HW120532   2.598   4.679   0.730  0.4251  0.1047 -0.4546
 3441SOL    HW220533   2.682   4.597   0.843  0.1929 -0.9263 -1.0244
 3442SOL     OW20534   2.461   8.251   2.229  0.4008 -0.3169 -0.5111
 3442SOL    HW120535   2.386   8.280   2.289  1.3229  2.1649 -0.4842
 3442SOL    HW220536   2.502   8.168   2.265 -0.7365 -0.3087  0.8605
 3443SOL     OW20537   3.383   9.148   1.253  0.0269 -0.1606  0.5373
 3443SOL    HW120538   3.306   9.184   1.201  0.6628  0.3504 -0.0613
 3443SOL    HW220539   3.426   9.073   1.203  0.5274  0.2113  0.4023
 3444SOL     OW20540   0.412   5.309   1.974 -0.0176 -0.3353  0.1500
 3444SOL    HW120541   0.330   5.366   1.965  0.3882 -0.0573 -2.0087
 3444SOL    HW220542   0.489   5.365   2.006  0.2824  0.2743 -1.5935
 3445SOL     OW20543   2.539   5.802   1.962 -0.1103 -0.1714 -0.1740
 3445SOL    HW120544   2.593   5.721   1.981  0.5271  0.5873  1.3269
 3445SOL    HW220545   2.492   5.791   1.874 -0.0755 -2.1643  0.0306
 3446SOL     OW20546   1.460   6.425   1.732  0.3646  0.5116  0.4683
 3446SOL    HW120547   1.535   6.419   1.798  0.1501 -2.6317  0.4769
 3446SOL    HW220548   1.384   6.475   1.773  0.6337 -0.4886  2.2235
 3447SOL     OW20549   1.415   2.719   0.157 -0.2682 -0.3681  0.7132
 3447SOL    HW120550   1.445   2.784   0.227  0.3534  1.4106 -1.1456
 3447SOL    HW220551   1.329   2.752   0.116  0.1084 -0.6395 -0.3134
 3448SOL     OW20552   0.793   8.995   2.706  0.0375  0.1424 -0.0513
 3448SOL    HW120553   0.803   9.006   2.607  1.7168 -0.7466 -0.0013
 3448SOL    HW220554   0.771   9.084   2.747  1.1715  0.8914 -1.0129
 3449SOL     OW20555   7.429   1.356   0.205 -0.6691  0.0547  0.7127
 3449SOL    HW120556   7.363   1.397   0.268  1.3652  1.5455  1.9285
 3449SOL    HW220557   7.508   1.324   0.257  0.9972  1.2227 -1.0700
 3450SOL     OW20558   2.995   4.784   0.663  0.0234  0.1681  0.1699
 3450SOL    HW120559   2.896   4.798   0.667  0.0594  0.6216 -0.4903
 3450SOL    HW220560   3.026   4.742   0.749 -0.9981 -1.6257 -0.3171
 3451SOL     OW20561   3.876   5.365   2.049  0.5276 -0.0750 -0.5423
 3451SOL    HW120562   3.914   5.327   1.964 -0.0576 -0.9296 -0.4357
 3451SOL    HW220563   3.855   5.290   2.112 -0.7735  0.4265 -0.3695
 3452SOL     OW20564   0.372   5.455   2.580 -0.1368 -0.1292 -0.4746
 3452SOL    HW120565   0.349   5.540   2.534 -0.1982 -0.1420 -0.4683
 3452SOL    HW220566   0.388   5.383   2.512 -1.4665 -0.4711 -0.4481
 3453SOL     OW20567   9.829   7.717   0.007  0.4022 -0.2602  0.9185
 3453SOL    HW120568   9.874   7.718   0.096  0.4923 -1.2413  0.8964
 3453SOL    HW220569   9.740   7.762   0.013  0.6117  0.0884  1.3927
 3454SOL     OW20570   1.926   2.477   2.242 -1.2470 -0.5524 -0.5134
 3454SOL    HW120571   2.000   2.462   2.176  0.4423 -1.9520  1.6409
 3454SOL    HW220572   1.884   2.566   2.225  2.5769  1.3841 -0.2558
 3455SOL     OW20573   3.415   8.407   1.258  0.6333 -0.4868  0.3015
 3455SOL    HW120574   3.451   8.499   1.274  1.6309 -0.5070 -1.6866
 3455SOL    HW220575   3.449   8.345   1.329  0.4304  0.5483  1.3130
 3456SOL     OW20576   2.174   8.575   1.138  0.4341  0.3577  0.6760
 3456SOL    HW120577   2.239   8.621   1.076  0.6452 -0.6120  0.1693
 3456SOL    HW220578   2.113   8.643   1.178 -0.1964  0.9245 -1.1982
 3457SOL     OW20579   4.114   0.280   2.961  0.5004 -0.0332 -0.0796
 3457SOL    HW120580   4.186   0.228   3.009  2.8749  1.6073 -1.7414
 3457SOL    HW220581   4.126   0.378   2.980 -2.0158  0.1799  0.5047
 3458SOL     OW20582   2.564   9.656   2.746  0.2649 -0.5613  0.3380
 3458SOL    HW120583   2.514   9.595   2.685 -1.5440 -0.3678  1.5672
 3458SOL    HW220584   2.653   9.616   2.769  0.0649 -1.6212 -0.7060
 3459SOL     OW20585   8.335   4.713   3.371 -0.5888  0.3086  0.3497
 3459SOL    HW120586   8.421   4.712   3.421 -0.4871 -0.2692  0.1723
 3459SOL    HW220587   8.269   4.653   3.416  0.1754 -1.9007 -1.3343
 3460SOL     OW20588   9.064   3.506   2.994  0.6257  0.2983 -0.1473
 3460SOL    HW120589   9.075   3.581   3.059 -0.2927 -1.3326  1.9793
 3460SOL    HW220590   9.096   3.421   3.036  0.2308 -0.7622 -1.9335
 3461SOL     OW20591   0.996   5.900   0.532 -0.1731 -0.3394  0.1728
 3461SOL    HW120592   1.082   5.864   0.496 -0.5904 -2.0856  0.8385
 3461SOL    HW220593   0.944   5.942   0.458  2.1588  2.6738  0.1574
 3462SOL     OW20594   3.892   1.299   1.229 -0.4331  0.1508 -0.7817
 3462SOL    HW120595   3.932   1.365   1.166  0.5199  0.9380  0.6130
 3462SOL    HW220596   3.822   1.246   1.182  0.1428  0.8322 -2.4417
 3463SOL     OW20597   9.921   6.319   1.423 -0.3945  0.2167 -0.0101
 3463SOL    HW120598   9.868   6.276   1.349 -1.3261 -0.0326  0.7937
 3463SOL    HW220599   9.880   6.407   1.446  0.4307  0.6986 -0.4104
 3464SOL     OW20600   4.260   3.357   1.477 -0.0438  0.5526  0.1983
 3464SOL    HW120601   4.303   3.284   1.423 -2.1189 -1.3717  1.0373
 3464SOL    HW220602   4.226   3.428   1.415 -0.7524 -0.7260 -0.9179
 3465SOL     OW20603   7.751   0.272   1.987  0.6009 -0.2396 -0.1491
 3465SOL    HW120604   7.670   0.305   1.938  1.4653  0.1331 -1.3431
 3465SOL    HW220605   7.726   0.250   2.081 -1.1961 -1.4733 -0.9001
 3466SOL     OW20606   5.903   9.597   2.421  0.0143 -0.1536  1.0085
 3466SOL    HW120607   5.956   9.604   2.336 -1.9035 -1.2984 -0.3237
 3466SOL    HW220608   5.891   9.501   2.445  1.8678  0.1683  3.4891
 3467SOL     OW20609   1.394   2.761   1.358 -0.4800  0.0336 -0.1392
 3467SOL    HW120610   1.449   2.677   1.363 -1.1666 -0.4385 -0.4718
 3467SOL    HW220611   1.427   2.826   1.426 -0.1407 -0.6237  0.3345
 3468SOL     OW20612   3.410   3.392   1.579 -0.1166 -0.2106 -0.2908
 3468SOL    HW120613   3.448   3.306   1.546 -0.4538 -0.2309 -0.6336
 3468SOL    HW220614   3.448   3.414   1.668 -0.5045 -1.0338  0.0816
 3469SOL     OW20615   3.235   3.674   3.056  0.2746 -0.0841 -0.1367
 3469SOL    HW120616   3.297   3.749   3.079  0.7354 -0.7474  0.8099
 3469SOL    HW220617   3.194   3.692   2.967  0.0831  1.4832  0.2431
 3470SOL     OW20618   9.933   4.994   0.316  0.4600  0.0228  0.1023
 3470SOL    HW120619   9.867   5.038   0.256 -2.5750 -1.3674  2.3097
 3470SOL    HW220620   9.932   5.038   0.405  0.1390 -2.0503  1.1577
 3471SOL     OW20621   2.808   9.602   3.018  0.1422  0.3457 -0.5585
 3471SOL    HW120622   2.787   9.597   2.921  1.0176  0.0637 -0.7369
 3471SOL    HW220623   2.740   9.551   3.071 -1.7038  2.4339 -0.8157
 3472SOL     OW20624   0.843   5.534   1.086  0.2655  0.2690 -0.1044
 3472SOL    HW120625   0.780   5.562   1.013 -1.3489 -1.5792  0.5133
 3472SOL    HW220626   0.937   5.535   1.052 -0.2007  2.0722 -1.3729
 3473SOL     OW20627   4.938   9.233   1.952  0.3703  0.7205 -0.7319
 3473SOL    HW120628   5.022   9.262   1.997 -0.6770  0.3938  1.5076
 3473SOL    HW220629   4.866   9.300   1.971 -0.9718 -1.1597  0.9625
 3474SOL     OW20630   0.313   3.212   1.852  0.3256  1.1534  0.2967
 3474SOL    HW120631   0.258   3.232   1.933  0.0987  0.9530  0.1946
 3474SOL    HW220632   0.277   3.263   1.774  0.9493  1.8485  0.4698
 3475SOL     OW20633   1.129   7.839   2.800  0.5542  0.6177  0.7245
 3475SOL    HW120634   1.197   7.813   2.869  0.0666 -0.1405  0.9322
 3475SOL    HW220635   1.147   7.790   2.715  0.9758  1.3216  0.4100
 3476SOL     OW20636   2.280   0.061   0.458 -0.3680  0.2719 -0.5221
 3476SOL    HW120637   2.225  -0.023   0.449 -1.1624  0.9923 -2.8858
 3476SOL    HW220638   2.226   0.131   0.503  0.4114 -0.5634  1.7588
 3477SOL     OW20639   0.330   4.154   0.903 -0.5790  0.2519 -0.1735
 3477SOL    HW120640   0.386   4.237   0.912 -1.4033  0.9268 -1.2009
 3477SOL    HW220641   0.379   4.088   0.846 -0.0375  0.1231  0.4269
 3478SOL     OW20642   8.047   1.590   2.817  0.1805 -0.0944 -0.4085
 3478SOL    HW120643   8.039   1.685   2.847 -1.1495 -0.4158  0.3023
 3478SOL    HW220644   7.977   1.571   2.749  0.6198 -0.4945 -0.7480
 3479SOL     OW20645   3.132   5.356   0.369 -0.0041  0.0186  0.4656
 3479SOL    HW120646   3.044   5.401   0.387  0.6894  0.8331  1.8939
 3479SOL    HW220647   3.160   5.374   0.275 -0.7625  0.8126  0.3827
 3480SOL     OW20648   2.599   0.574   3.409 -0.4941  0.4408 -0.5276
 3480SOL    HW120649   2.638   0.658   3.370 -1.5677  1.1435 -0.1266
 3480SOL    HW220650   2.514   0.551   3.362 -1.8004  1.2946  1.3160
 3481SOL     OW20651   1.889   1.415   2.946  0.2502 -0.4263  0.1920
 3481SOL    HW120652   1.827   1.493   2.934 -1.5906 -1.7152  1.0086
 3481SOL    HW220653   1.883   1.355   2.865  0.3961 -0.5646  0.2842
 3482SOL     OW20654   3.076   5.657   1.911 -0.1215 -0.9368 -0.3316
 3482SOL    HW120655   3.127   5.600   1.847  2.5183  1.2872 -0.2599
 3482SOL    HW220656   3.090   5.623   2.004  1.2814 -0.3130 -0.3071
 3483SOL     OW20657   8.256   2.846   3.253 -0.1215 -0.0716 -0.5508
 3483SOL    HW120658   8.324   2.906   3.295 -0.3815  0.1635 -0.4598
 3483SOL    HW220659   8.209   2.794   3.324 -0.5103  0.2707 -0.5586
 3484SOL     OW20660   0.825   3.179   2.666  0.2164 -0.3179 -0.0527
 3484SOL    HW120661   0.753   3.242   2.637  0.3994 -0.0747  0.0159
 3484SOL    HW220662   0.890   3.166   2.592  0.3201 -0.2207  0.0204
 3485SOL     OW20663   2.508   0.657   1.012 -0.1818 -0.2931  0.0120
 3485SOL    HW120664   2.599   0.616   1.012 -0.0614 -0.0302 -0.3592
 3485SOL    HW220665   2.449   0.604   0.951 -0.5075 -0.9643  0.9065
 3486SOL     OW20666   3.948   9.742   0.786 -0.4209  0.1100 -0.4287
 3486SOL    HW120667   3.914   9.836   0.790 -0.4458  0.0980 -0.3637
 3486SOL    HW220668   4.040   9.742   0.748 -0.1867  0.2230  0.1331
 3487SOL     OW20669   2.272   6.620   1.282 -0.0041  0.0865 -0.0268
 3487SOL    HW120670   2.299   6.542   1.338  0.6325 -0.5971 -1.2879
 3487SOL    HW220671   2.291   6.705   1.332 -0.0323 -0.5301  1.0444
 3488SOL     OW20672   2.392   1.748   2.115  0.3853  0.3288  0.1096
 3488SOL    HW120673   2.409   1.654   2.086 -1.1765 -0.0069  0.2711
 3488SOL    HW220674   2.294   1.765   2.120  0.6505  1.8955  0.3294
 3489SOL     OW20675   9.215   2.204   2.840 -0.1433 -0.1544 -0.3423
 3489SOL    HW120676   9.307   2.221   2.807 -0.1061 -0.0682 -0.1945
 3489SOL    HW220677   9.178   2.287   2.882  0.4650 -0.7509  1.4033
 3490SOL     OW20678   2.845   3.633   0.220  0.0385 -0.3339  0.3511
 3490SOL    HW120679   2.890   3.718   0.247  0.1569  0.3564 -1.9141
 3490SOL    HW220680   2.897   3.590   0.146 -0.6211 -1.8192  0.7373
 3491SOL     OW20681   0.506   4.839   1.008  0.3581  0.3438 -0.4664
 3491SOL    HW120682   0.440   4.786   0.954 -0.7470  0.5647  0.6382
 3491SOL    HW220683   0.598   4.821   0.974  0.0202 -2.3421 -0.0934
 3492SOL     OW20684   8.918   0.508   1.742  0.1415 -0.0058 -0.0817
 3492SOL    HW120685   8.939   0.413   1.719 -1.7907 -0.4298 -0.2369
 3492SOL    HW220686   8.919   0.519   1.841 -2.7090 -1.0114  0.1206
 3493SOL     OW20687   9.211   2.133   1.188  0.2432 -0.5337 -0.0523
 3493SOL    HW120688   9.270   2.135   1.269  0.6024  0.1744 -0.3258
 3493SOL    HW220689   9.121   2.097   1.213 -0.2177  1.2832  1.0427
 3494SOL     OW20690   1.467   8.390   2.371 -0.3872  0.0100  0.2609
 3494SOL    HW120691   1.534   8.391   2.446 -0.9623  0.8455  0.7732
 3494SOL    HW220692   1.440   8.483   2.350  1.5901  0.0022 -2.6653
 3495SOL     OW20693   4.114   9.016   3.423 -0.4878  0.0629  0.3681
 3495SOL    HW120694   4.162   9.084   3.479  0.8943 -1.5579  1.1981
 3495SOL    HW220695   4.181   8.964   3.369 -1.7460  1.0634 -2.2163
 3496SOL     OW20696   0.348   0.662   1.816 -0.5584 -0.1672 -0.0288
 3496SOL    HW120697   0.327   0.653   1.914  0.9759 -0.7803  0.2572
 3496SOL    HW220698   0.330   0.756   1.787 -1.1422 -0.0120  0.8044
 3497SOL     OW20699   0.509   4.967   2.500 -0.0447  0.1073 -0.3995
 3497SOL    HW120700   0.436   4.961   2.432  0.7559  2.9014 -1.5685
 3497SOL    HW220701   0.504   4.888   2.561 -1.6826 -1.7021 -2.7897
 3498SOL     OW20702   9.951   2.724   2.478  0.7598  0.2096  0.3513
 3498SOL    HW120703   9.852   2.718   2.470  0.7893 -1.1554  0.8356
 3498SOL    HW220704   9.974   2.789   2.551  0.1442 -1.4055  2.0472
 3499SOL     OW20705   2.570   6.195   0.856 -0.3939 -0.1753  0.0619
 3499SOL    HW120706   2.595   6.287   0.886 -1.7098  0.4766 -0.7919
 3499SOL    HW220707   2.503   6.201   0.782 -1.4186 -1.8421  0.8267
 3500SOL     OW20708   0.683   3.382   0.540 -0.5217 -0.4104  0.9575
 3500SOL    HW120709   0.620   3.389   0.617 -1.2153 -1.4152  0.4893
 3500SOL    HW220710   0.638   3.336   0.464  0.6184 -0.6851  0.4390
 3501SOL     OW20711   8.319   2.506   1.949 -0.4669 -0.0242 -0.0432
 3501SOL    HW120712   8.272   2.561   2.018  1.1515  0.1934  0.8961
 3501SOL    HW220713   8.418   2.518   1.958 -0.1122 -2.5027 -0.3133
 3502SOL     OW20714   1.614   1.842   0.186 -0.3550 -0.0458 -0.2389
 3502SOL    HW120715   1.544   1.785   0.143 -1.3707  0.5747  0.5579
 3502SOL    HW220716   1.647   1.909   0.120  0.5379 -1.2639 -1.0479
 3503SOL     OW20717   0.671   1.472   3.220  0.2957 -0.0047 -0.1146
 3503SOL    HW120718   0.681   1.431   3.311  2.4010 -0.2014 -0.4246
 3503SOL    HW220719   0.761   1.494   3.183 -0.5280 -0.1749 -2.2847
 3504SOL     OW20720   1.530   1.142   0.072  0.3400 -0.2667  0.7893
 3504SOL    HW120721   1.505   1.181   0.161 -1.6609  1.4342 -0.4600
 3504SOL    HW220722   1.580   1.211   0.019 -0.9932 -0.2780 -0.4926
 3505SOL     OW20723   0.241   6.603   2.082 -0.2823 -0.0982  0.0550
 3505SOL    HW120724   0.279   6.514   2.055  0.5558  0.6229 -1.1694
 3505SOL    HW220725   0.272   6.626   2.174  0.1366 -0.7029  0.0679
 3506SOL     OW20726   8.997   1.359   0.003 -0.6918 -0.1773 -0.0408
 3506SOL    HW120727   9.077   1.383   0.058 -1.0381 -1.5381  1.1062
 3506SOL    HW220728   8.971   1.264   0.023 -2.5212  0.2133 -0.4918
 3507SOL     OW20729   1.962   3.402   1.459  0.1644 -0.2757 -0.8894
 3507SOL    HW120730   1.959   3.302   1.451  0.7166 -0.0704 -4.4304
 3507SOL    HW220731   2.043   3.429   1.511 -0.7978 -1.6759  1.4461
 3508SOL     OW20732   9.740   4.466   0.927 -0.2394 -0.0444 -0.2672
 3508SOL    HW120733   9.695   4.387   0.886 -1.2291  0.3083  0.1172
 3508SOL    HW220734   9.672   4.536   0.949  0.5323  0.6186  0.0673
 3509SOL     OW20735   1.877   7.327   3.021  0.5195 -0.1422  0.0315
 3509SOL    HW120736   1.794   7.293   3.066  0.3233 -0.2695 -0.4252
 3509SOL    HW220737   1.957   7.280   3.058  0.5700  1.2419  1.7423
 3510SOL     OW20738   2.519   0.815   1.975 -0.7473  0.0721 -0.9545
 3510SOL    HW120739   2.576   0.771   1.906  0.4976 -0.1633  0.2155
 3510SOL    HW220740   2.521   0.761   2.059 -0.7012  1.3763 -0.1094
 3511SOL     OW20741   1.278   9.024   1.643 -0.1336  0.0192  0.4430
 3511SOL    HW120742   1.336   9.095   1.602 -0.1605 -0.1746  0.0658
 3511SOL    HW220743   1.193   9.017   1.592 -0.2677 -0.0646  0.6770
 3512SOL     OW20744   8.092   3.282   3.099  0.4549  0.1359 -0.2117
 3512SOL    HW120745   8.092   3.209   3.167  0.2897  0.3490  0.0218
 3512SOL    HW220746   8.074   3.369   3.145 -0.2980  0.1979 -0.6156
 3513SOL     OW20747   1.101   9.657   0.861 -0.3404  0.2840  0.9285
 3513SOL    HW120748   1.080   9.654   0.763  1.4180  1.0121  0.4970
 3513SOL    HW220749   1.119   9.752   0.888  2.1622 -0.2326  1.2590
 3514SOL     OW20750   9.802   5.206   0.198 -0.1473  0.1597 -0.2787
 3514SOL    HW120751   9.779   5.293   0.241 -1.7248  0.1138 -0.9602
 3514SOL    HW220752   9.855   5.223   0.115 -0.9056  0.5273 -0.7001
 3515SOL     OW20753   4.752   8.416   2.194  0.0162  0.1383  0.0189
 3515SOL    HW120754   4.762   8.340   2.259  1.6074  0.6884  0.4514
 3515SOL    HW220755   4.785   8.501   2.237  1.1414  0.4997 -1.5244
 3516SOL     OW20756   3.603   0.888   0.215 -0.3425 -0.3641 -0.3901
 3516SOL    HW120757   3.553   0.958   0.267  0.7496 -0.3226  0.6134
 3516SOL    HW220758   3.539   0.841   0.154 -0.9871  1.9432 -1.5659
 3517SOL     OW20759   4.370   4.017   3.353  0.2432  0.0857 -0.2091
 3517SOL    HW120760   4.285   3.965   3.358  1.1085 -1.4150 -0.7886
 3517SOL    HW220761   4.441   3.969   3.404  0.5353  1.7914  1.0392
 3518SOL     OW20762   0.104   5.424   1.711  0.2287  0.5749 -0.3578
 3518SOL    HW120763   0.117   5.417   1.613  0.7034  0.0335 -0.2551
 3518SOL    HW220764   0.089   5.333   1.750  1.8170  0.5929  0.3219
 3519SOL     OW20765   9.546   0.627   0.991  0.4735  0.1801  0.1390
 3519SOL    HW120766   9.610   0.600   0.919  0.3638  0.6934 -0.1575
 3519SOL    HW220767   9.593   0.623   1.080  0.7128 -0.1167  0.0016
 3520SOL     OW20768   3.883   0.894   0.003  0.1262  0.2448  0.3473
 3520SOL    HW120769   3.823   0.814   0.001  1.8029 -1.1220  2.8294
 3520SOL    HW220770   3.853   0.957   0.075  0.2817  0.6811  0.0342
 3521SOL     OW20771   2.817   8.572   0.991  0.0013  0.0754  0.1874
 3521SOL    HW120772   2.885   8.506   0.958  1.2639  1.8278 -0.7553
 3521SOL    HW220773   2.736   8.567   0.934 -0.2410 -1.2347  0.6267
 3522SOL     OW20774   1.595   5.942   0.935 -0.2189 -0.2252  1.0115
 3522SOL    HW120775   1.684   5.898   0.948 -0.7822 -1.8027 -0.2040
 3522SOL    HW220776   1.600   6.005   0.857 -0.6931 -1.9390 -0.4462
 3523SOL     OW20777   8.878   4.266   2.020 -0.1706 -0.4190  0.1254
 3523SOL    HW120778   8.810   4.223   2.079  0.3560  0.2993  1.2721
 3523SOL    HW220779   8.954   4.202   2.005  0.7388  0.1899  2.0516
 3524SOL     OW20780   9.579   4.703   2.121 -0.3148 -0.5007 -0.5692
 3524SOL    HW120781   9.606   4.794   2.153 -1.0921 -0.5432  0.2027
 3524SOL    HW220782   9.654   4.663   2.068  0.5145  0.0591  0.1790
 3525SOL     OW20783   1.778   9.635   3.165 -0.2945  0.3620  0.2551
 3525SOL    HW120784   1.703   9.603   3.223 -1.2246  0.2865 -0.9651
 3525SOL    HW220785   1.741   9.688   3.089  0.9621  1.0706  0.1286
 3526SOL     OW20786   0.085   9.126   1.218  0.0274 -0.0110 -0.6354
 3526SOL    HW120787  -0.015   9.127   1.208  0.1625  2.4891 -2.2474
 3526SOL    HW220788   0.125   9.071   1.145 -0.0917  0.5528 -1.1309
 3527SOL     OW20789   2.962   2.521   0.291 -0.1248  0.0998  0.0271
 3527SOL    HW120790   2.886   2.458   0.311 -0.6151  0.5838 -0.2872
 3527SOL    HW220791   2.957   2.547   0.194 -1.4001  2.5751  0.7260
 3528SOL     OW20792   0.437   7.476   3.346 -0.1585  0.0095  0.6512
 3528SOL    HW120793   0.396   7.489   3.255 -0.0291 -1.7465  0.3286
 3528SOL    HW220794   0.365   7.464   3.414 -0.2408 -3.2804  0.0540
 3529SOL     OW20795   7.777   2.089   1.171 -0.3615 -0.2669 -0.3687
 3529SOL    HW120796   7.750   2.007   1.222  0.9166 -0.6292 -0.2605
 3529SOL    HW220797   7.831   2.062   1.090 -0.3521  0.4354 -0.6000
 3530SOL     OW20798   2.729   1.270   1.139 -0.2125  0.3847  0.6152
 3530SOL    HW120799   2.663   1.345   1.140 -0.8586 -0.1872  0.9072
 3530SOL    HW220800   2.703   1.201   1.206 -0.7699 -1.1025 -1.1066
 3531SOL     OW20801   2.479   0.654   0.278  0.0780 -0.0496 -0.0825
 3531SOL    HW120802   2.490   0.581   0.344 -0.0519 -0.0671 -0.0801
 3531SOL    HW220803   2.553   0.651   0.211  0.6747  0.4767  0.5465
 3532SOL     OW20804   0.300   7.436   2.017 -0.0202 -1.0630 -0.2220
 3532SOL    HW120805   0.288   7.421   1.919  1.6511 -0.8609 -0.4732
 3532SOL    HW220806   0.228   7.496   2.050  1.4207  1.7785 -2.0569
 3533SOL     OW20807   9.138   5.267   1.084 -0.3344  0.2708 -0.0454
 3533SOL    HW120808   9.238   5.266   1.081 -0.3138  1.6020 -0.1264
 3533SOL    HW220809   9.102   5.326   1.011 -1.1048  1.2188  1.0659
 3534SOL     OW20810   2.085   8.019   0.345  0.1469 -0.0872  0.1211
 3534SOL    HW120811   2.045   8.062   0.264  0.1043 -2.4356 -1.1312
 3534SOL    HW220812   2.012   7.987   0.405  0.1419  3.3012  2.0796
 3535SOL     OW20813   8.932   1.731   2.198 -0.2506  0.3095  0.0228
 3535SOL    HW120814   8.864   1.787   2.152  0.8593  2.5863  1.0357
 3535SOL    HW220815   9.010   1.716   2.137 -0.0581  0.8364  0.1351
 3536SOL     OW20816   4.154   1.223   1.098 -0.0490 -0.2042  0.1523
 3536SOL    HW120817   4.180   1.280   1.020  1.5406 -0.2476  0.6333
 3536SOL    HW220818   4.199   1.256   1.181 -0.4028 -1.1709  0.7498
 3537SOL     OW20819   7.914   3.346   0.507 -0.4161  0.7768 -0.6722
 3537SOL    HW120820   7.829   3.302   0.534 -0.5354  1.4462  0.0874
 3537SOL    HW220821   7.978   3.278   0.472 -0.4664 -0.0434  0.8155
 3538SOL     OW20822   2.072   1.090   0.816 -0.0339  0.1822 -0.0963
 3538SOL    HW120823   2.163   1.052   0.802  0.3509  1.3207 -0.7239
 3538SOL    HW220824   2.007   1.016   0.837  0.0850 -1.1723 -4.1658
 3539SOL     OW20825   0.751   9.154   2.410 -0.3387 -0.3450  0.1259
 3539SOL    HW120826   0.669   9.184   2.361 -0.4599 -0.7727  0.0688
 3539SOL    HW220827   0.820   9.226   2.406 -0.1779 -0.5531 -1.0609
 3540SOL     OW20828   2.256   4.774   3.090  0.5654 -0.5299  0.2813
 3540SOL    HW120829   2.312   4.691   3.088  1.4123  0.0530 -0.3934
 3540SOL    HW220830   2.251   4.813   2.998 -0.7078 -0.4124  0.3967
 3541SOL     OW20831   1.666   4.723   1.243 -0.2399 -0.2139  0.4187
 3541SOL    HW120832   1.738   4.739   1.175 -0.8298  0.5776 -0.0363
 3541SOL    HW220833   1.703   4.672   1.320  1.2545  1.7626  1.0222
 3542SOL     OW20834   8.622   2.969   1.952 -0.2600 -0.0783  0.2475
 3542SOL    HW120835   8.692   2.904   1.924 -0.4355  0.7124 -2.2244
 3542SOL    HW220836   8.660   3.033   2.018  1.3772  0.3283 -1.0467
 3543SOL     OW20837   1.210   8.412   2.132 -0.4035 -0.5148  0.1788
 3543SOL    HW120838   1.145   8.457   2.193 -1.3605 -3.4722  1.4178
 3543SOL    HW220839   1.181   8.318   2.115  1.2136 -0.5512 -2.8246
 3544SOL     OW20840   1.771   9.418   1.975 -0.1741 -0.5021  0.0939
 3544SOL    HW120841   1.849   9.433   2.036 -1.2182 -0.1606  1.3851
 3544SOL    HW220842   1.767   9.322   1.949  0.6256 -0.5362  0.0812
 3545SOL     OW20843   8.579   0.666   2.735  0.1564 -0.7860  0.0312
 3545SOL    HW120844   8.557   0.651   2.638 -2.1277 -0.5946  0.4876
 3545SOL    HW220845   8.602   0.763   2.748 -0.3623 -0.6303 -0.1794
 3546SOL     OW20846   3.546   3.605   0.334 -0.1261  0.2252 -0.2034
 3546SOL    HW120847   3.600   3.558   0.404 -1.9850  0.4601  1.4333
 3546SOL    HW220848   3.592   3.690   0.308  0.6078  0.1303  0.7459
 3547SOL     OW20849   4.031   1.805   1.554  0.2890 -0.1340  0.2196
 3547SOL    HW120850   4.116   1.760   1.580 -0.2994 -0.8819  0.8515
 3547SOL    HW220851   4.013   1.789   1.457  1.4064  0.9144 -0.1771
 3548SOL     OW20852   0.468   3.685   0.871  0.5332  0.2858 -0.1598
 3548SOL    HW120853   0.567   3.693   0.873  0.4708  1.4461 -1.1593
 3548SOL    HW220854   0.440   3.598   0.913  1.8276  0.9909  2.2492
 3549SOL     OW20855   1.348   9.966   2.165  0.3467 -0.8731 -0.0223
 3549SOL    HW120856   1.266  10.002   2.121  1.9081  0.9763 -1.4904
 3549SOL    HW220857   1.405  10.041   2.198  0.3991 -2.1632  3.0835
 3550SOL     OW20858   1.714   7.225   2.668  0.2231  0.3602  0.3712
 3550SOL    HW120859   1.788   7.197   2.606  0.2384 -0.3040  0.6778
 3550SOL    HW220860   1.650   7.149   2.679 -1.1787  1.3285 -0.8425
 3551SOL     OW20861   8.417   2.147   0.068 -0.7936  0.2213  0.7621
 3551SOL    HW120862   8.472   2.092   0.005 -0.4978  0.7068  0.5908
 3551SOL    HW220863   8.320   2.125   0.057 -0.7642  0.4823 -0.0377
 3552SOL     OW20864   3.639   9.850   1.247  0.7091 -0.3512 -0.1170
 3552SOL    HW120865   3.722   9.795   1.247  1.3921  0.6702 -0.5823
 3552SOL    HW220866   3.633   9.902   1.161 -0.8835 -1.1413 -0.5001
 3553SOL     OW20867   2.793   0.549   0.151  0.2105 -0.7600  0.1411
 3553SOL    HW120868   2.711   0.541   0.095  0.8834 -1.2480 -0.7789
 3553SOL    HW220869   2.842   0.462   0.152  0.3640 -0.6777  1.2576
 3554SOL     OW20870   0.516   5.692   0.568  0.5016  0.6014 -0.3477
 3554SOL    HW120871   0.611   5.698   0.600  0.3834  0.1409  0.0931
 3554SOL    HW220872   0.516   5.683   0.469  1.0009 -1.3802 -0.1843
 3555SOL     OW20873   2.036   8.198   1.356  0.5798 -0.2728  0.0792
 3555SOL    HW120874   1.955   8.234   1.309  1.0344  1.2391  0.4222
 3555SOL    HW220875   2.094   8.149   1.290 -0.6339 -1.4307 -0.1505
 3556SOL     OW20876   0.404   6.443   1.801 -0.4057 -0.6711 -0.4283
 3556SOL    HW120877   0.488   6.395   1.825 -0.2025  0.6729  1.6990
 3556SOL    HW220878   0.332   6.419   1.867  0.1666  3.1542  1.7294
 3557SOL     OW20879   2.001   3.814   0.352  0.3935  0.4318  0.0088
 3557SOL    HW120880   2.043   3.731   0.389  0.8168  0.2974 -0.7749
 3557SOL    HW220881   1.996   3.808   0.253 -1.0655  0.6555  0.0566
 3558SOL     OW20882   9.726   4.609   0.018  0.2550  0.3725 -0.0030
 3558SOL    HW120883   9.751   4.606  -0.079 -0.4345 -1.3101 -0.1464
 3558SOL    HW220884   9.808   4.620   0.073  0.8251 -0.2957 -0.7063
 3559SOL     OW20885   0.616   9.901   0.299 -1.0360  0.0283 -0.2990
 3559SOL    HW120886   0.610   9.838   0.222  0.0625  0.6299 -0.8936
 3559SOL    HW220887   0.590   9.993   0.268 -0.3231  0.3254 -0.0365
 3560SOL     OW20888   9.874   2.843   0.595  0.2291  0.0590  0.2665
 3560SOL    HW120889   9.873   2.790   0.680  0.6002 -0.3665  0.0129
 3560SOL    HW220890   9.875   2.940   0.615  0.8926 -0.0432  0.7609
 3561SOL     OW20891   8.983   3.163   2.140  0.2437 -0.0241 -0.8326
 3561SOL    HW120892   9.033   3.079   2.122  0.1701 -0.3049  0.2389
 3561SOL    HW220893   9.044   3.230   2.184  0.3192  0.5106 -1.7317
 3562SOL     OW20894   1.711   1.837   2.424  0.2371  0.6867 -0.2897
 3562SOL    HW120895   1.766   1.755   2.443 -0.3608 -0.0120 -1.4688
 3562SOL    HW220896   1.733   1.908   2.489 -0.0634 -0.8241  1.5055
 3563SOL     OW20897   1.571   9.449   0.237  0.0765 -0.2266 -0.1555
 3563SOL    HW120898   1.605   9.541   0.256 -0.2008  0.5853 -3.2214
 3563SOL    HW220899   1.648   9.387   0.223  0.2686 -0.0533  0.1316
 3564SOL     OW20900   4.578   0.537   0.606 -0.1742 -0.5184  0.5275
 3564SOL    HW120901   4.559   0.493   0.694 -2.1012 -0.0586  0.3619
 3564SOL    HW220902   4.671   0.574   0.607  0.6344 -2.5220  1.5129
 3565SOL     OW20903   1.304   8.863   2.791  0.2701  0.8802  0.0474
 3565SOL    HW120904   1.327   8.936   2.855  0.7391  0.0148  0.8886
 3565SOL    HW220905   1.293   8.777   2.842  0.1903  0.2792 -0.9788
 3566SOL     OW20906   0.124   5.466   0.036 -0.6610  0.0881  0.0297
 3566SOL    HW120907   0.059   5.530   0.077 -1.0136 -1.4900  2.0272
 3566SOL    HW220908   0.214   5.478   0.077 -0.5437 -0.1753 -0.1491
 3567SOL     OW20909   4.368   0.725   0.654  0.3476 -0.0502  0.8409
 3567SOL    HW120910   4.340   0.781   0.577 -0.0655  0.0724  1.0799
 3567SOL    HW220911   4.433   0.656   0.623  0.1482 -0.0297  0.3765
 3568SOL     OW20912   1.588   9.177   1.094 -0.4264  0.0415 -0.3120
 3568SOL    HW120913   1.552   9.151   1.183  0.5819  1.0895  0.4099
 3568SOL    HW220914   1.641   9.102   1.056 -1.5555 -0.7145 -0.4189
 3569SOL     OW20915   8.597   3.096   0.950  0.3104 -0.3654 -0.3532
 3569SOL    HW120916   8.649   3.019   0.986 -0.5699 -0.5063  0.6526
 3569SOL    HW220917   8.571   3.079   0.856  1.6183 -0.5246 -0.7006
 3570SOL     OW20918   3.205   1.298   2.240 -0.2707 -0.3694 -0.5104
 3570SOL    HW120919   3.164   1.215   2.203 -0.7716 -0.5457  0.4090
 3570SOL    HW220920   3.304   1.286   2.248 -0.4996 -1.4208  0.9467
 3571SOL     OW20921   1.724   1.357   1.695 -0.3811 -0.2446  0.2894
 3571SOL    HW120922   1.713   1.301   1.613  1.6123 -0.7754  0.3525
 3571SOL    HW220923   1.743   1.452   1.669 -2.5035  0.1738  0.1772
 3572SOL     OW20924   2.836   0.247   0.155  0.3624  0.0456  0.2860
 3572SOL    HW120925   2.749   0.243   0.106  0.7235  0.4360 -0.3834
 3572SOL    HW220926   2.906   0.197   0.104  0.7643  0.5452  0.3449
 3573SOL     OW20927   0.307   8.285   1.205 -0.1025  0.2643 -0.4298
 3573SOL    HW120928   0.286   8.332   1.291  1.1556 -1.3009  0.7704
 3573SOL    HW220929   0.402   8.301   1.181  0.1302 -1.0481 -0.4025
 3574SOL     OW20930   9.788   4.837   1.652 -0.6450 -0.3902 -0.0867
 3574SOL    HW120931   9.748   4.761   1.703  0.3463 -0.4135  0.6652
 3574SOL    HW220932   9.887   4.826   1.649 -0.5772  0.3790 -0.7878
 3575SOL     OW20933   5.155   9.457   2.378 -0.3265  0.2420 -0.4921
 3575SOL    HW120934   5.070   9.406   2.364 -0.5325  1.0579 -2.2548
 3575SOL    HW220935   5.218   9.401   2.432 -1.8839 -0.4546  0.6593
 3576SOL     OW20936   9.323   2.914   2.679  0.0781  0.0946 -0.1917
 3576SOL    HW120937   9.280   2.978   2.744 -1.1669 -1.4586  0.5505
 3576SOL    HW220938   9.382   2.851   2.728 -0.2808 -0.6189 -0.6720
 3577SOL     OW20939   9.957   3.720   1.934  0.5287 -0.2324  0.4943
 3577SOL    HW120940  10.023   3.773   1.986  1.0960  1.0301 -1.4781
 3577SOL    HW220941   9.972   3.622   1.951 -0.3550  0.1446  3.9292
 3578SOL     OW20942   9.298   3.873   3.214  0.6047 -0.3210  0.2021
 3578SOL    HW120943   9.235   3.813   3.263  0.7937 -0.7784 -0.1203
 3578SOL    HW220944   9.309   3.958   3.266 -1.2508  0.2933 -0.3517
 3579SOL     OW20945   4.062   8.958   0.518  0.4514  0.2158 -0.2939
 3579SOL    HW120946   4.140   8.955   0.455  0.1270  1.1464 -0.7575
 3579SOL    HW220947   4.063   8.877   0.577  0.8501 -0.5991 -1.3996
 3580SOL     OW20948   3.534   1.763   1.705 -0.7571  0.2558 -0.2433
 3580SOL    HW120949   3.565   1.719   1.790  0.3511 -1.1283 -1.3346
 3580SOL    HW220950   3.542   1.862   1.715  2.3199  0.0309  0.2179
 3581SOL     OW20951   8.129   1.701   2.412  0.2570  0.6062  0.1677
 3581SOL    HW120952   8.210   1.732   2.363 -0.7526 -0.1703 -2.0552
 3581SOL    HW220953   8.123   1.601   2.405 -1.8189  0.8136 -1.1929
 3582SOL     OW20954   4.880   0.054   2.736 -0.4614 -1.0033  0.0898
 3582SOL    HW120955   4.980   0.061   2.740 -0.3151 -3.0689  0.7016
 3582SOL    HW220956   4.854  -0.022   2.677 -1.7130  0.1033 -0.8127
 3583SOL     OW20957   3.103   4.846   3.226 -0.3983 -0.4166  0.3780
 3583SOL    HW120958   3.124   4.932   3.273 -1.7152 -1.3773  2.7541
 3583SOL    HW220959   3.186   4.813   3.181  0.2407  1.8497 -0.2209
 3584SOL     OW20960   3.047   5.875   2.191  0.7783 -0.8453 -0.1644
 3584SOL    HW120961   3.089   5.964   2.207  0.2246 -0.7442  0.7593
 3584SOL    HW220962   3.112   5.816   2.142  1.3246 -0.1037 -0.3434
 3585SOL     OW20963   1.851   3.557   2.481  0.0062 -0.3187  0.3664
 3585SOL    HW120964   1.817   3.555   2.387  0.7576  3.9922 -0.1249
 3585SOL    HW220965   1.945   3.524   2.483  0.3872  0.6508 -0.6436
 3586SOL     OW20966   3.036   2.466   2.257 -0.0437  0.2892 -0.2065
 3586SOL    HW120967   3.007   2.497   2.167 -0.1815 -1.0106 -0.6170
 3586SOL    HW220968   3.133   2.487   2.270  0.2549 -0.5233 -1.0978
 3587SOL     OW20969   8.419   1.466   2.107  0.2928  0.2089 -0.1993
 3587SOL    HW120970   8.512   1.502   2.098  0.8736 -1.4417 -1.0652
 3587SOL    HW220971   8.412   1.408   2.188  0.4481 -0.9112 -0.9769
 3588SOL     OW20972   8.304   0.904   0.971 -0.2351 -0.0187  0.0844
 3588SOL    HW120973   8.241   0.913   1.048  0.8687  0.2028  0.9738
 3588SOL    HW220974   8.337   0.809   0.966 -0.7325 -0.1639 -0.4536
 3589SOL     OW20975   7.893   1.625   1.155 -0.3786  0.1258  0.0806
 3589SOL    HW120976   7.930   1.667   1.073  1.1502  0.7226  1.0537
 3589SOL    HW220977   7.879   1.527   1.140  1.2723 -0.0427 -0.4341
 3590SOL     OW20978   9.074   1.387   3.178  0.0523  0.3089  0.2264
 3590SOL    HW120979   9.026   1.344   3.255 -4.3542  0.3956 -2.2735
 3590SOL    HW220980   9.099   1.317   3.111  3.1761  0.3248  1.3432
 3591SOL     OW20981   0.152   9.769   3.223  0.3877  0.4837 -0.6527
 3591SOL    HW120982   0.164   9.795   3.127  0.9461 -0.8460 -0.9510
 3591SOL    HW220983   0.059   9.734   3.236  0.3633  0.5155 -0.7380
 3592SOL     OW20984   1.170   1.373   3.045  0.2061  0.7571  0.0915
 3592SOL    HW120985   1.169   1.365   2.945 -0.3283  2.0524 -0.0114
 3592SOL    HW220986   1.195   1.284   3.084  2.5036  0.7542 -1.2424
 3593SOL     OW20987   1.824   1.589   1.632  0.8338 -0.2602  0.7568
 3593SOL    HW120988   1.872   1.529   1.568 -1.8388 -0.4463 -1.1867
 3593SOL    HW220989   1.863   1.681   1.627  0.5941 -0.2317 -1.3173
 3594SOL     OW20990   1.120   2.962   2.241  0.2852 -0.5298 -0.0988
 3594SOL    HW120991   1.027   2.977   2.274 -0.8606 -1.9075 -2.4853
 3594SOL    HW220992   1.176   3.042   2.259 -1.7599  0.8822  0.1173
 3595SOL     OW20993   1.288   6.660   2.359 -0.1132  0.3478  0.0805
 3595SOL    HW120994   1.309   6.573   2.404 -0.7843  0.3300  0.3528
 3595SOL    HW220995   1.269   6.729   2.428  0.3559  0.7007 -0.1402
 3596SOL     OW20996   1.341   4.390   3.060 -0.3477  0.2048  1.1000
 3596SOL    HW120997   1.246   4.419   3.072 -0.3186  0.8551 -0.1832
 3596SOL    HW220998   1.379   4.433   2.978  1.2486  0.4346  1.9473
 3597SOL     OW20999   2.547   3.690   2.881 -0.2009 -0.2980  0.8657
 3597SOL    HW121000   2.500   3.685   2.969 -0.9053  1.2980  0.5951
 3597SOL    HW221001   2.524   3.776   2.836 -0.1834 -1.2801 -1.0751
 3598SOL     OW21002   1.592   7.788   1.447  0.1946  0.1443 -0.2267
 3598SOL    HW121003   1.642   7.855   1.503 -0.5139  2.1344 -1.8879
 3598SOL    HW221004   1.631   7.697   1.461  1.2340  0.8916  2.0519
 3599SOL     OW21005   0.020   5.857   0.484 -0.5093 -1.2204 -0.2420
 3599SOL    HW121006   0.007   5.814   0.394  1.2021  2.1796 -2.2288
 3599SOL    HW221007   0.103   5.821   0.526 -0.5519 -1.8107 -0.6512
 3600SOL     OW21008   0.580   7.668   0.340  0.2454 -0.0750 -0.0260
 3600SOL    HW121009   0.665   7.630   0.375  0.5660  0.0114 -0.6989
 3600SOL    HW221010   0.568   7.640   0.244  0.4422  1.4376 -0.5054
 3601SOL     OW21011   2.353   8.742   0.994  0.1364  0.2836 -0.2517
 3601SOL    HW121012   2.342   8.806   0.917 -0.0715  1.5492  0.8136
 3601SOL    HW221013   2.440   8.693   0.983  0.9003  1.6519 -0.4421
 3602SOL     OW21014   2.917   5.831   0.018 -0.0175  0.5115 -0.1852
 3602SOL    HW121015   2.832   5.878   0.044  0.0709  0.1971  0.6930
 3602SOL    HW221016   2.902   5.732   0.024  0.8259  0.4611  1.3647
 3603SOL     OW21017   1.661   8.857   0.984 -0.1786 -0.8177 -0.5675
 3603SOL    HW121018   1.751   8.893   0.962 -0.2715 -0.5811 -0.5602
 3603SOL    HW221019   1.668   8.797   1.064 -0.3046  0.5130  0.4503
 3604SOL     OW21020   0.639   3.524   3.252 -1.6243 -0.0610  0.4424
 3604SOL    HW121021   0.646   3.449   3.186  1.6885 -0.7555  1.5094
 3604SOL    HW221022   0.635   3.611   3.203  0.4573 -0.5878 -0.7045
 3605SOL     OW21023   1.503   2.501   1.397  0.4124 -0.9616 -0.3659
 3605SOL    HW121024   1.419   2.452   1.372  0.8986 -1.6658 -0.6384
 3605SOL    HW221025   1.529   2.478   1.491 -0.8085  0.8317  0.4352
 3606SOL     OW21026   0.968   8.790   1.210  0.3306  0.2035 -0.0215
 3606SOL    HW121027   0.972   8.871   1.151 -0.3403  0.7491  0.6662
 3606SOL    HW221028   1.060   8.767   1.242  1.0311 -1.3692 -2.9418
 3607SOL     OW21029   9.436   5.238   1.066  0.0702  0.6047  0.1265
 3607SOL    HW121030   9.501   5.306   1.033  1.9284 -0.5245  1.3431
 3607SOL    HW221031   9.463   5.208   1.158 -0.8747 -1.5147 -0.2537
 3608SOL     OW21032   7.857   2.022   2.773 -0.2317  0.0935  0.0352
 3608SOL    HW121033   7.813   1.971   2.699  1.4560  0.6365 -1.3711
 3608SOL    HW221034   7.805   2.106   2.789 -0.1209  0.4103 -1.1629
 3609SOL     OW21035   0.076   6.718   0.779 -0.8119  0.1865  0.1830
 3609SOL    HW121036   0.108   6.782   0.710 -0.1992 -0.4537 -0.1380
 3609SOL    HW221037   0.152   6.689   0.837 -1.1281 -0.0472  0.4891
 3610SOL     OW21038   3.106   5.074   1.745 -0.3905  0.6559 -0.2721
 3610SOL    HW121039   3.050   5.072   1.828 -2.2674  0.0860 -1.5196
 3610SOL    HW221040   3.123   4.981   1.714 -0.0553  0.8792 -0.7682
 3611SOL     OW21041   1.616   0.946   3.101 -0.1746 -0.3082  0.0743
 3611SOL    HW121042   1.528   0.931   3.147 -0.8327 -1.3032 -1.4722
 3611SOL    HW221043   1.667   0.861   3.096  0.3039 -0.0117 -0.1979
 3612SOL     OW21044   4.477   0.022   0.142  0.3572  0.2201 -0.3125
 3612SOL    HW121045   4.462   0.093   0.073 -1.3122  1.0783  0.8733
 3612SOL    HW221046   4.509   0.065   0.226  1.7537 -0.7442 -0.3410
 3613SOL     OW21047   9.463   1.020   1.986  0.1183  0.8873 -0.1580
 3613SOL    HW121048   9.545   0.964   1.970  0.1262 -0.7256  4.6724
 3613SOL    HW221049   9.382   0.966   1.962  0.2554  0.1006  1.1192
 3614SOL     OW21050   2.692   5.665   2.751  0.3434 -0.2506 -0.5034
 3614SOL    HW121051   2.753   5.684   2.827  0.7534 -0.4947 -0.7689
 3614SOL    HW221052   2.714   5.726   2.674 -2.0407  2.1136  0.6035
 3615SOL     OW21053   0.319   9.386   2.238 -0.3770  0.2837 -0.1600
 3615SOL    HW121054   0.236   9.330   2.243 -0.3849  0.3208  0.1267
 3615SOL    HW221055   0.311   9.450   2.161 -0.6570  0.3556 -0.0711
 3616SOL     OW21056   4.004   2.564   1.685 -0.7160 -0.0482  0.2798
 3616SOL    HW121057   4.035   2.501   1.756  1.6017  0.8948  0.1464
 3616SOL    HW221058   4.062   2.553   1.604 -0.5605  1.9270  0.1022
 3617SOL     OW21059   0.279   5.788   1.076  0.3279  0.0985  0.0423
 3617SOL    HW121060   0.225   5.840   1.143 -0.1246 -1.7219  1.1155
 3617SOL    HW221061   0.371   5.828   1.070  0.5268  0.0205  2.0977
 3618SOL     OW21062   0.839   0.682   1.092 -0.1796 -0.0118 -0.3150
 3618SOL    HW121063   0.921   0.706   1.040 -0.1675 -0.1457 -0.3597
 3618SOL    HW221064   0.849   0.709   1.187 -1.1369  2.3959 -0.8577
 3619SOL     OW21065   0.046   3.127   2.645 -0.6364 -0.1105 -0.0445
 3619SOL    HW121066   0.063   3.168   2.734  0.3114 -0.3512 -0.1052
 3619SOL    HW221067   0.044   3.198   2.575 -3.7839  0.3603  0.4624
 3620SOL     OW21068   0.536   6.464   2.223 -0.2270  0.1677 -0.4096
 3620SOL    HW121069   0.632   6.474   2.195 -0.2286 -1.4917 -1.0891
 3620SOL    HW221070   0.503   6.374   2.194 -1.5080  0.0913  1.2596
 3621SOL     OW21071   7.150   1.207   0.771  0.2814 -0.7402  0.0571
 3621SOL    HW121072   7.179   1.292   0.816  0.2526 -0.9022  0.3860
 3621SOL    HW221073   7.078   1.227   0.705 -0.5840 -0.6705  1.0018
 3622SOL     OW21074   0.795   2.759   2.771 -0.4962 -1.0909 -0.1176
 3622SOL    HW121075   0.697   2.740   2.785 -0.5326  0.6272  2.2100
 3622SOL    HW221076   0.844   2.746   2.857  0.9982  0.0623 -0.7744
 3623SOL     OW21077   2.801   3.744   3.396  0.2109  0.5056  0.1687
 3623SOL    HW121078   2.850   3.671   3.349 -0.0889  0.4773 -0.1018
 3623SOL    HW221079   2.768   3.710   3.485  0.7891  0.5645  0.4037
 3624SOL     OW21080   9.747   0.128   0.881  0.2418 -0.7867  0.0694
 3624SOL    HW121081   9.702   0.201   0.829  1.6650  0.3194  0.3501
 3624SOL    HW221082   9.739   0.042   0.832  0.7037  0.0463 -1.4974
 3625SOL     OW21083   0.105   3.680   1.448 -0.0924  0.2992  0.7742
 3625SOL    HW121084   0.135   3.741   1.521  0.1411  1.5487 -0.3510
 3625SOL    HW221085   0.061   3.600   1.489  0.2584  0.8472  2.2905
 3626SOL     OW21086   3.558   3.036   0.670 -0.6318 -0.4217  0.0236
 3626SOL    HW121087   3.618   3.115   0.652 -0.4491  0.3390  3.5626
 3626SOL    HW221088   3.524   3.000   0.583  0.9210  2.2665 -1.8006
 3627SOL     OW21089   3.610   8.398   0.497  0.1034 -0.3280  0.0487
 3627SOL    HW121090   3.521   8.369   0.531 -0.7967  0.6054 -1.4857
 3627SOL    HW221091   3.637   8.340   0.419  0.2015  0.2704 -0.3664
 3628SOL     OW21092   0.006   5.612   1.441  0.1835  0.4265  0.1278
 3628SOL    HW121093  -0.020   5.611   1.345 -0.2701  1.1247  0.2419
 3628SOL    HW221094   0.080   5.678   1.455  0.9030 -0.3603  0.0944
 3629SOL     OW21095   2.176   3.817   3.173 -0.5412 -0.3517 -0.4721
 3629SOL    HW121096   2.212   3.823   3.079  0.1525  0.2556 -0.1733
 3629SOL    HW221097   2.251   3.800   3.236 -1.0649 -1.1369 -0.0648
 3630SOL     OW21098   1.682   0.851   2.610  0.5046  0.3617 -0.1495
 3630SOL    HW121099   1.631   0.765   2.616  0.7595  0.2447  0.4300
 3630SOL    HW221100   1.650   0.914   2.681  0.0983  0.8657 -0.7791
 3631SOL     OW21101   0.515   5.753   0.071 -0.2931 -0.3015 -0.4908
 3631SOL    HW121102   0.503   5.800  -0.016 -0.6673 -0.7511 -0.6849
 3631SOL    HW221103   0.607   5.713   0.076  0.2204  0.9233 -0.0936
 3632SOL     OW21104   0.656   8.298   1.730 -0.6256 -0.0724  0.0253
 3632SOL    HW121105   0.605   8.334   1.652  0.1257 -1.8276 -1.3157
 3632SOL    HW221106   0.683   8.203   1.711  1.3377  0.1533  1.5758
 3633SOL     OW21107   1.056   9.784   1.899  0.7737  0.1817  0.2616
 3633SOL    HW121108   0.994   9.861   1.909  0.8209  0.1154  1.0553
 3633SOL    HW221109   1.151   9.817   1.896  0.8308  0.1212  1.1499
 3634SOL     OW21110   1.318   0.733   3.407  0.2981 -0.0598 -0.2267
 3634SOL    HW121111   1.400   0.747   3.463 -0.9286  2.0649  1.1040
 3634SOL    HW221112   1.259   0.664   3.450 -0.0274  0.6143  0.4099
 3635SOL     OW21113   0.099   7.636   2.064  0.5033 -0.4704 -0.3741
 3635SOL    HW121114   0.038   7.568   2.024 -0.1924 -0.0388 -0.0540
 3635SOL    HW221115   0.083   7.641   2.163  1.9705 -1.2807 -0.0868
 3636SOL     OW21116   1.839   1.258   0.751  0.4988 -0.0993  0.4903
 3636SOL    HW121117   1.762   1.230   0.808  0.6767  0.4911  1.0308
 3636SOL    HW221118   1.913   1.192   0.760  1.0630  0.7076  2.0567
 3637SOL     OW21119   0.360   8.656   1.075  0.1903  0.1434  0.5269
 3637SOL    HW121120   0.354   8.557   1.062 -0.5476  0.0988  1.1457
 3637SOL    HW221121   0.340   8.678   1.171 -1.6840  1.0494 -0.0403
 3638SOL     OW21122   8.109   1.636   0.563 -0.2427 -0.9662 -0.5845
 3638SOL    HW121123   8.181   1.599   0.505  0.2783 -0.6783 -0.1232
 3638SOL    HW221124   8.143   1.646   0.657  0.0156  1.7282 -0.9218
 3639SOL     OW21125   1.911   2.092   1.045  0.0298 -0.9578 -0.3459
 3639SOL    HW121126   1.897   2.064   1.140  1.4298 -1.6362 -0.3325
 3639SOL    HW221127   1.856   2.174   1.026 -2.7520 -2.6455  0.1220
 3640SOL     OW21128   9.849   9.540   0.580 -0.1645 -0.6241 -0.1558
 3640SOL    HW121129   9.919   9.598   0.622 -0.3421 -1.9310  2.0458
 3640SOL    HW221130   9.873   9.524   0.484  2.4227 -0.7963  0.4656
 3641SOL     OW21131   1.093   6.743   1.932 -0.6312 -0.5313  0.2091
 3641SOL    HW121132   1.181   6.780   1.902 -0.4357  0.6871  2.2498
 3641SOL    HW221133   1.104   6.646   1.954  0.5229 -0.0667  1.7353
 3642SOL     OW21134   2.963   0.841   2.687 -0.7945 -0.0107  0.5171
 3642SOL    HW121135   2.977   0.940   2.688 -1.0442  0.0284  2.6427
 3642SOL    HW221136   3.029   0.797   2.748 -0.4586 -1.2016 -0.6817
 3643SOL     OW21137   5.756   9.558   2.836 -0.1109  0.0013 -0.0795
 3643SOL    HW121138   5.831   9.493   2.847 -0.1130 -0.8271 -4.3131
 3643SOL    HW221139   5.791   9.640   2.790 -1.2297  0.7689  0.4391
 3644SOL     OW21140   3.485   3.123   1.532  0.1087 -0.5190 -0.9092
 3644SOL    HW121141   3.425   3.080   1.600 -0.5010  2.8892  0.7954
 3644SOL    HW221142   3.465   3.085   1.442 -2.7785 -1.3147  0.0110
 3645SOL     OW21143   3.183   9.295   1.526 -0.7752 -0.2678  0.2328
 3645SOL    HW121144   3.273   9.251   1.533 -1.1299 -1.1028 -0.3596
 3645SOL    HW221145   3.113   9.233   1.563 -1.3076 -0.2936 -0.8081
 3646SOL     OW21146   1.381   1.624   0.411 -0.0010  0.3830  0.3547
 3646SOL    HW121147   1.373   1.659   0.504  0.1867  1.6868 -0.1128
 3646SOL    HW221148   1.477   1.622   0.384  0.2222 -2.7238  1.2003
 3647SOL     OW21149   1.259   1.122   3.090 -0.2690  0.3973  0.3715
 3647SOL    HW121150   1.325   1.071   3.146  0.2417  0.7919  0.1416
 3647SOL    HW221151   1.172   1.074   3.089 -0.3421  0.4885  1.6642
 3648SOL     OW21152   0.249   8.877   0.622  0.6995 -0.3742 -0.0273
 3648SOL    HW121153   0.322   8.855   0.556  0.7720  1.3966 -0.5497
 3648SOL    HW221154   0.286   8.933   0.696  0.0458 -0.1704  0.1486
 3649SOL     OW21155   1.746   6.784   0.443 -0.3963 -0.2187 -0.3929
 3649SOL    HW121156   1.788   6.762   0.532  1.1666  2.0538 -0.5225
 3649SOL    HW221157   1.653   6.818   0.458  0.4103  1.6861  0.5718
 3650SOL     OW21158   0.918   1.262   1.519  0.2114 -0.3353 -1.0106
 3650SOL    HW121159   0.971   1.206   1.455  0.0148  0.1651 -1.6166
 3650SOL    HW221160   0.905   1.212   1.605  1.7048 -0.4356 -0.8396
 3651SOL     OW21161   1.328   5.022   2.185  0.7973  0.4473 -0.3745
 3651SOL    HW121162   1.279   5.093   2.237 -1.5684  0.0214 -1.9399
 3651SOL    HW221163   1.311   4.933   2.226 -2.4851 -0.1128 -2.7356
 3652SOL     OW21164   8.338   2.281   1.010  0.1998 -0.2526 -0.3004
 3652SOL    HW121165   8.260   2.280   1.072  0.4018 -0.4131 -0.0494
 3652SOL    HW221166   8.396   2.202   1.027  0.1988 -0.3571 -0.7695
 3653SOL     OW21167   2.929   2.020   2.491 -0.8231  0.3079  0.3499
 3653SOL    HW121168   2.866   1.951   2.526  0.6431 -1.8026 -1.0076
 3653SOL    HW221169   3.019   2.007   2.534 -0.0150  0.0977 -1.3923
 3654SOL     OW21170   2.611   5.373   1.948 -0.1301  0.1563  0.0598
 3654SOL    HW121171   2.623   5.388   1.850 -1.0717  1.1867  0.0971
 3654SOL    HW221172   2.610   5.275   1.967 -1.4171 -0.0688 -1.1441
 3655SOL     OW21173   1.539   8.458   1.113 -0.8604  0.6290 -0.1880
 3655SOL    HW121174   1.587   8.458   1.201  0.3383 -4.0491 -0.7036
 3655SOL    HW221175   1.591   8.511   1.047 -0.0664  1.4673  1.0886
 3656SOL     OW21176   5.329   9.307   2.541  0.1686  0.6725 -0.1964
 3656SOL    HW121177   5.264   9.283   2.613  0.1946  1.4988  0.1158
 3656SOL    HW221178   5.395   9.374   2.577  0.3821  0.8419 -0.8917
 3657SOL     OW21179   2.241   5.820   3.379  0.6491 -0.5766 -0.6111
 3657SOL    HW121180   2.153   5.863   3.401  0.5375 -1.0930 -0.0209
 3657SOL    HW221181   2.223   5.730   3.338  0.9058 -0.9582  0.1027
 3658SOL     OW21182   2.457   7.020   1.741  0.4041  0.1710  0.1060
 3658SOL    HW121183   2.555   7.002   1.733  0.1434 -0.9769 -0.5683
 3658SOL    HW221184   2.424   7.066   1.658  0.4968  1.1738  0.6155
 3659SOL     OW21185   1.331   5.757   2.581  0.8990  0.2696  0.0479
 3659SOL    HW121186   1.426   5.783   2.562  1.0523 -1.4641 -1.7150
 3659SOL    HW221187   1.283   5.835   2.621  2.7898  1.5066 -0.0040
 3660SOL     OW21188   0.230   4.449   2.199  0.2768  0.1088  0.1776
 3660SOL    HW121189   0.264   4.521   2.259 -1.0347  1.5081 -0.7041
 3660SOL    HW221190   0.306   4.391   2.169  1.7473  2.5719 -1.0057
 3661SOL     OW21191   2.751   9.006   1.146 -0.6664  0.9234  0.0865
 3661SOL    HW121192   2.768   8.910   1.165  2.6606  1.4416 -0.0848
 3661SOL    HW221193   2.729   9.018   1.049  1.7440  0.6447 -0.5196
 3662SOL     OW21194   1.559   2.235   1.030  0.1245 -0.5903  0.1924
 3662SOL    HW121195   1.523   2.320   0.991 -0.5653 -0.4833  1.0543
 3662SOL    HW221196   1.544   2.160   0.966  0.3779 -0.1306 -0.4033
 3663SOL     OW21197   8.403   0.663   0.968 -0.2741  0.8840  0.5543
 3663SOL    HW121198   8.477   0.667   1.035  0.2781 -1.9516  0.1539
 3663SOL    HW221199   8.440   0.644   0.878 -1.4730 -0.4761  0.3300
 3664SOL     OW21200   9.484   3.067   3.310 -0.3980  0.1746  0.3721
 3664SOL    HW121201   9.450   2.974   3.325 -0.9375  0.4333  0.7752
 3664SOL    HW221202   9.412   3.133   3.333 -0.8787  0.6294 -2.2154
 3665SOL     OW21203   2.809   6.681   3.097 -0.3477 -0.3152  0.3421
 3665SOL    HW121204   2.818   6.673   3.196 -0.0103 -1.3155  0.2361
 3665SOL    HW221205   2.712   6.689   3.073 -0.4678 -0.5939  0.7254
 3666SOL     OW21206   1.786   6.186   0.479 -0.1244  0.3738  0.2105
 3666SOL    HW121207   1.801   6.281   0.454 -1.1416  0.8720  1.4154
 3666SOL    HW221208   1.748   6.181   0.572 -0.7140 -1.1643 -0.0800
 3667SOL     OW21209   9.527   2.375   1.156  0.0906 -0.0591  0.2638
 3667SOL    HW121210   9.549   2.401   1.249 -1.8998 -1.7155  1.2380
 3667SOL    HW221211   9.511   2.276   1.151  0.1207  0.0051 -1.8067
 3668SOL     OW21212   8.072   0.979   1.119 -0.3109  0.2835 -0.0697
 3668SOL    HW121213   8.076   1.069   1.075  2.6568  0.1952 -0.0428
 3668SOL    HW221214   8.125   0.981   1.204  1.0932 -1.9165 -0.8611
 3669SOL     OW21215   2.588   2.046   2.733 -0.3842  0.2476 -0.0141
 3669SOL    HW121216   2.604   2.050   2.832 -0.5890  0.1604  0.0241
 3669SOL    HW221217   2.490   2.060   2.715 -0.3620  0.1666 -0.1975
 3670SOL     OW21218   9.810   9.876   2.730  0.1666 -0.4129  0.1743
 3670SOL    HW121219   9.830   9.960   2.781 -2.3042  0.3670 -0.0541
 3670SOL    HW221220   9.824   9.797   2.789 -0.4912  0.3560  1.3848
 3671SOL     OW21221   9.208   4.611   1.851 -0.2768 -0.4278  0.4094
 3671SOL    HW121222   9.113   4.606   1.818 -0.5617 -0.3925  1.2122
 3671SOL    HW221223   9.225   4.701   1.889  1.0850  0.7014 -2.6878
 3672SOL     OW21224   3.523   1.144   1.011 -0.2584  0.1280 -0.2421
 3672SOL    HW121225   3.503   1.226   0.956  1.1253 -1.3263 -3.0028
 3672SOL    HW221226   3.621   1.127   1.010 -0.4688 -1.1903  0.9006
 3673SOL     OW21227   0.603   4.682   0.130 -0.2678 -0.2243  0.2044
 3673SOL    HW121228   0.660   4.688   0.211 -1.4721  0.7099  1.0048
 3673SOL    HW221229   0.510   4.713   0.152 -0.9197 -1.1050 -1.2209
 3674SOL     OW21230   5.595   8.772   2.104 -0.1600  0.1492 -0.1349
 3674SOL    HW121231   5.539   8.824   2.169 -0.8422 -1.1203  0.3018
 3674SOL    HW221232   5.682   8.819   2.091 -0.2662  0.7516  1.2143
 3675SOL     OW21233   0.553   4.475   1.744  0.7733  0.0380  0.0149
 3675SOL    HW121234   0.559   4.543   1.672  0.7421  0.0829  0.0552
 3675SOL    HW221235   0.641   4.468   1.791  0.4353  0.9030  0.7899
 3676SOL     OW21236   7.761   1.549   1.995 -0.0114 -0.0915 -0.9284
 3676SOL    HW121237   7.841   1.564   2.055 -1.0964  1.0011  0.2817
 3676SOL    HW221238   7.792   1.518   1.906  1.7969  0.5440 -0.5494
 3677SOL     OW21239   2.312   0.122   3.041 -0.6659  0.3281 -0.2182
 3677SOL    HW121240   2.232   0.119   2.981 -0.9003 -0.4380  0.1249
 3677SOL    HW221241   2.395   0.114   2.987 -0.8288  0.8695 -0.5524
 3678SOL     OW21242   4.549   1.441   2.080 -0.1623  0.7325  0.2914
 3678SOL    HW121243   4.643   1.410   2.100 -0.4370 -0.3338 -0.0111
 3678SOL    HW221244   4.495   1.362   2.050 -1.2952  1.2557  0.9678
 3679SOL     OW21245   3.765   9.619   1.603  0.1149 -0.0511 -0.4517
 3679SOL    HW121246   3.667   9.601   1.595  0.2388  0.0070 -2.3077
 3679SOL    HW221247   3.782   9.681   1.679 -1.0643 -1.7847  1.2957
 3680SOL     OW21248   1.780   4.168   2.515 -0.0905  0.9119  0.3786
 3680SOL    HW121249   1.842   4.171   2.594  3.3230  2.9657 -2.2202
 3680SOL    HW221250   1.800   4.086   2.461 -1.3695  0.3039  0.8140
 3681SOL     OW21251   8.992   4.751   2.137  0.6382 -0.0149  0.2026
 3681SOL    HW121252   9.024   4.657   2.150  0.7948  0.0559  0.3300
 3681SOL    HW221253   9.049   4.795   2.068  1.0272  0.2162  0.6713
 3682SOL     OW21254   8.370   3.332   0.214 -0.3764 -0.0603 -0.4295
 3682SOL    HW121255   8.359   3.372   0.123 -2.0578  0.6909  0.0761
 3682SOL    HW221256   8.353   3.402   0.283 -1.2466 -1.1496  0.4680
 3683SOL     OW21257   3.806   7.813   1.482  0.3757  0.5243 -0.6386
 3683SOL    HW121258   3.759   7.730   1.513  3.2172 -0.7446  0.5000
 3683SOL    HW221259   3.838   7.800   1.388  1.1756  0.1295 -0.3219
 3684SOL     OW21260   9.181   1.666   1.054 -0.7139  0.2309 -0.0369
 3684SOL    HW121261   9.161   1.751   1.005  0.4041  0.4291 -0.1781
 3684SOL    HW221262   9.259   1.621   1.010 -1.8827 -1.3513 -0.5299
 3685SOL     OW21263   0.820   5.720   2.924 -0.1574 -0.0438 -0.7997
 3685SOL    HW121264   0.877   5.719   2.841 -1.0476 -1.1350 -1.3978
 3685SOL    HW221265   0.739   5.777   2.909 -0.1080  0.1042 -0.5250
 3686SOL     OW21266   3.969   3.614   0.209 -0.1902 -0.4166 -0.0203
 3686SOL    HW121267   3.900   3.686   0.202 -1.0245 -1.3141 -1.1102
 3686SOL    HW221268   4.053   3.653   0.247 -0.2089  1.4042 -1.7776
 3687SOL     OW21269   1.451   5.349   1.102  0.2439  0.6278  0.5711
 3687SOL    HW121270   1.529   5.287   1.110  0.7325  1.2791  0.8348
 3687SOL    HW221271   1.369   5.304   1.139  0.5985  0.1406  0.7667
 3688SOL     OW21272   1.911   3.118   0.830  0.0249  0.1968  0.0172
 3688SOL    HW121273   1.930   3.131   0.928 -0.9836  1.3200  0.0750
 3688SOL    HW221274   1.987   3.156   0.777 -0.2900  1.2882  0.3281
 3689SOL     OW21275   1.061   6.519   0.546  0.2991  0.4326  0.3963
 3689SOL    HW121276   1.137   6.458   0.570  1.1456  1.3240 -0.0155
 3689SOL    HW221277   1.086   6.574   0.467 -1.0043  0.3194 -0.1061
 3690SOL     OW21278   9.543   2.475   1.421  0.4321  0.2720 -0.1292
 3690SOL    HW121279   9.503   2.553   1.372 -2.0136 -0.4398  0.6886
 3690SOL    HW221280   9.471   2.423   1.466  2.3654 -0.6837  1.9537
 3691SOL     OW21281   3.782   2.937   1.013  0.1055  0.1502  0.3245
 3691SOL    HW121282   3.778   3.026   0.968 -1.4285  0.3368  0.8195
 3691SOL    HW221283   3.800   2.949   1.111  0.1409 -0.0926  0.3484
 3692SOL     OW21284   0.820   5.956   2.456  0.6248  0.7837 -0.3910
 3692SOL    HW121285   0.757   5.931   2.529 -0.1834 -0.0336 -1.3685
 3692SOL    HW221286   0.781   6.030   2.402  1.2461  1.4234  0.0291
 3693SOL     OW21287   1.460   3.277   1.307  0.0237 -0.1516 -0.2156
 3693SOL    HW121288   1.372   3.319   1.325 -0.4084 -1.8353  1.7969
 3693SOL    HW221289   1.491   3.228   1.389  2.7356  0.2646 -0.9417
 3694SOL     OW21290   1.111   0.490   2.011 -0.4533  0.4882  0.2357
 3694SOL    HW121291   1.133   0.582   1.979 -2.6228  1.1545  0.5638
 3694SOL    HW221292   1.159   0.422   1.955  2.8364  1.8215  1.3025
 3695SOL     OW21293   0.561   0.500   1.917 -0.1712 -0.2779  0.9628
 3695SOL    HW121294   0.599   0.525   2.006  1.7197 -0.1754  0.1698
 3695SOL    HW221295   0.500   0.572   1.886 -1.3961 -0.6400  2.4821
 3696SOL     OW21296   8.399   3.054   3.418  0.3521 -0.3771 -0.1540
 3696SOL    HW121297   8.474   3.050   3.484 -0.4268  1.5927  0.8755
 3696SOL    HW221298   8.430   3.099   3.335  0.3155  0.4755  0.2870
 3697SOL     OW21299   4.662   3.557   0.564  0.4997 -0.1038 -0.0603
 3697SOL    HW121300   4.591   3.487   0.555 -1.3285  1.8355 -1.1721
 3697SOL    HW221301   4.646   3.610   0.647  0.6477  0.3448 -0.3193
 3698SOL     OW21302   8.573   2.650   2.997 -0.0953 -0.5665 -0.5899
 3698SOL    HW121303   8.514   2.730   3.004  0.2146 -0.5089  1.7603
 3698SOL    HW221304   8.518   2.568   2.982 -0.4852 -0.0922 -1.8700
 3699SOL     OW21305   1.299   8.369   1.468 -0.1321  0.0051  0.6553
 3699SOL    HW121306   1.215   8.341   1.515 -0.3809  0.9644  0.7765
 3699SOL    HW221307   1.333   8.292   1.413 -0.9473 -0.4664  0.8036
 3700SOL     OW21308   4.880   2.924   1.582 -0.1581  0.5737 -0.0258
 3700SOL    HW121309   4.814   2.921   1.657 -0.1708  3.9383  0.2019
 3700SOL    HW221310   4.858   2.852   1.515 -3.0378  0.5403  0.8748
 3701SOL     OW21311   8.438   0.489   0.452  0.2100  0.0851  0.0083
 3701SOL    HW121312   8.384   0.405   0.462  0.1902  0.1356  0.3514
 3701SOL    HW221313   8.385   0.556   0.400  0.2936 -0.1755 -0.4167
 3702SOL     OW21314   3.692   2.917   2.498 -0.4400 -0.1878  0.1940
 3702SOL    HW121315   3.730   2.843   2.555 -0.5809  0.7969  1.5959
 3702SOL    HW221316   3.648   2.877   2.417 -1.4858 -1.7341  1.4824
 3703SOL     OW21317   5.085   9.511   2.777 -0.4030 -0.2019 -0.3397
 3703SOL    HW121318   5.014   9.459   2.825 -2.4124  3.4016  0.8548
 3703SOL    HW221319   5.175   9.477   2.803 -1.4850  0.1060  4.2700
 3704SOL     OW21320   2.694   5.911   2.256 -0.9901 -0.4570 -0.0713
 3704SOL    HW121321   2.618   5.927   2.320 -2.6749  0.1174 -2.1769
 3704SOL    HW221322   2.657   5.884   2.167  1.3714 -2.6218 -0.4427
 3705SOL     OW21323   2.513   7.553   2.221  0.2319 -0.1357  0.3904
 3705SOL    HW121324   2.528   7.506   2.134  1.0706  0.5897  0.1456
 3705SOL    HW221325   2.523   7.487   2.296  0.2289 -0.6005 -0.0102
 3706SOL     OW21326   9.757   1.581   1.541  0.4927  0.0672  0.4111
 3706SOL    HW121327   9.804   1.547   1.623  0.4353  1.4420  1.0289
 3706SOL    HW221328   9.825   1.599   1.469  0.5938 -0.6895  0.3150
 3707SOL     OW21329   1.432   9.814   0.356 -0.5569 -0.5306  0.5118
 3707SOL    HW121330   1.347   9.849   0.397 -1.0033 -2.0892  0.9545
 3707SOL    HW221331   1.509   9.868   0.389 -1.0505 -0.9874  2.4719
 3708SOL     OW21332   3.020   6.947   2.551  0.2353 -0.7357  0.3251
 3708SOL    HW121333   3.105   6.988   2.584 -1.0762  1.3779  1.1775
 3708SOL    HW221334   2.995   6.988   2.464 -0.3562 -0.7558  0.4849
 3709SOL     OW21335   0.746   0.775   1.709  0.2865 -0.2207 -0.2797
 3709SOL    HW121336   0.794   0.821   1.634 -0.4110 -0.8765 -1.1431
 3709SOL    HW221337   0.729   0.679   1.683 -0.4798 -0.2914  0.4759
 3710SOL     OW21338   0.555   0.213   0.464  0.5865 -0.0911  0.1573
 3710SOL    HW121339   0.622   0.138   0.460  0.3845 -0.5253  3.4908
 3710SOL    HW221340   0.602   0.298   0.486  0.5338  0.3447 -1.4175
 3711SOL     OW21341   4.243   2.332   1.769 -0.4272  0.1286  0.7412
 3711SOL    HW121342   4.207   2.369   1.684  0.4680 -0.2908  0.1779
 3711SOL    HW221343   4.260   2.234   1.759 -0.6211  0.0117  1.5007
 3712SOL     OW21344   9.756   1.494   2.954  0.7081  0.0494 -0.0554
 3712SOL    HW121345   9.771   1.528   2.861 -2.4426 -0.7455 -0.9304
 3712SOL    HW221346   9.798   1.404   2.964  1.6264  0.4213 -0.4741
 3713SOL     OW21347   9.540   4.250   1.957  0.9497 -0.2146 -0.1980
 3713SOL    HW121348   9.588   4.210   2.035 -1.0205 -1.6654  0.3158
 3713SOL    HW221349   9.540   4.350   1.966 -0.6382 -0.3993  2.5692
 3714SOL     OW21350   2.477   3.816   0.799  0.1721  0.2689 -0.4542
 3714SOL    HW121351   2.453   3.812   0.702  1.1671 -1.4278 -0.6411
 3714SOL    HW221352   2.463   3.909   0.832 -2.2840  0.3657 -1.6647
 3715SOL     OW21353   2.963   0.854   1.912  0.0535  0.9790 -0.1709
 3715SOL    HW121354   2.964   0.818   1.819  2.1121  3.2365 -1.0535
 3715SOL    HW221355   2.945   0.952   1.911  1.8626  1.3647  1.6738
 3716SOL     OW21356   0.406   9.034   2.476  0.1230 -0.6923  0.9909
 3716SOL    HW121357   0.391   8.938   2.452 -1.1784 -0.8498  2.3216
 3716SOL    HW221358   0.450   9.081   2.400 -2.4239 -1.5198 -1.0695
 3717SOL     OW21359   0.105   2.404   0.522 -0.1881  0.1243  0.0882
 3717SOL    HW121360   0.080   2.390   0.618  2.2795  0.2807  0.7662
 3717SOL    HW221361   0.021   2.410   0.468 -1.6771  1.7003  2.4339
 3718SOL     OW21362   9.917   7.507   3.290 -0.2882  0.1691 -0.1527
 3718SOL    HW121363   9.995   7.569   3.282 -0.9414  0.8757 -1.2784
 3718SOL    HW221364   9.850   7.545   3.354 -0.1792  0.0658  0.0236
 3719SOL     OW21365   0.726   8.667   1.201 -0.0748 -0.2012 -0.2824
 3719SOL    HW121366   0.820   8.700   1.209 -0.0595 -0.3526  0.2062
 3719SOL    HW221367   0.673   8.730   1.145 -0.4824  1.5919  2.0240
 3720SOL     OW21368   3.310   5.425   3.053 -0.3183 -0.2243  0.6891
 3720SOL    HW121369   3.215   5.393   3.056  0.1328 -1.7191 -0.1038
 3720SOL    HW221370   3.351   5.398   2.966 -0.3362  3.9086 -0.7129
 3721SOL     OW21371   1.241   7.452   0.618  0.2079  0.2562 -0.3824
 3721SOL    HW121372   1.304   7.468   0.543  1.2262  0.7190  0.5536
 3721SOL    HW221373   1.216   7.356   0.621  0.5433  0.1506 -1.0171
 3722SOL     OW21374   2.725   4.487   0.233  0.0551 -0.6067 -0.1447
 3722SOL    HW121375   2.629   4.494   0.259  0.0420  0.4189 -0.4525
 3722SOL    HW221376   2.734   4.490   0.134  0.4346 -0.3029 -0.1034
 3723SOL     OW21377   1.397   6.228   0.029  0.2929 -0.6410  0.2549
 3723SOL    HW121378   1.483   6.177   0.035  0.4312 -0.3928  0.4454
 3723SOL    HW221379   1.412   6.312  -0.024  0.6819  0.4191  1.9835
 3724SOL     OW21380   7.390   1.668   2.081 -0.2743 -0.0748 -0.4238
 3724SOL    HW121381   7.438   1.657   2.168  1.3050 -1.1418 -1.4244
 3724SOL    HW221382   7.299   1.626   2.088  0.6744 -2.1049  0.0132
 3725SOL     OW21383   9.332   0.810   0.936  0.2347  0.5347  0.5337
 3725SOL    HW121384   9.277   0.792   1.017 -1.5177  0.2865 -0.6844
 3725SOL    HW221385   9.418   0.758   0.942  0.7189  1.5344  2.7969
 3726SOL     OW21386   4.125   3.318   2.084  0.5412 -0.5818 -0.0879
 3726SOL    HW121387   4.147   3.271   2.170  1.5479 -0.8278 -0.4787
 3726SOL    HW221388   4.169   3.409   2.084 -0.8321  0.0941  0.3723
 3727SOL     OW21389   1.918   4.744   1.083  0.6441 -0.9029 -0.0812
 3727SOL    HW121390   1.932   4.800   1.165 -0.1791 -1.8704  0.7469
 3727SOL    HW221391   1.995   4.755   1.021  0.7907  0.6453  0.3564
 3728SOL     OW21392   1.407   0.280   3.006  0.3267  0.4281  0.0641
 3728SOL    HW121393   1.361   0.209   3.059 -1.3433 -0.3076 -2.3048
 3728SOL    HW221394   1.499   0.248   2.982  0.6834  0.3144  1.5168
 3729SOL     OW21395   4.205   7.948   1.958 -0.6147  0.1428 -0.3279
 3729SOL    HW121396   4.156   7.862   1.970 -1.6388  0.5300 -1.6172
 3729SOL    HW221397   4.304   7.930   1.960 -0.8100 -0.9484  0.1424
 3730SOL     OW21398   3.738   4.901   3.181  0.0742 -0.2353 -0.1757
 3730SOL    HW121399   3.796   4.850   3.245 -1.6984 -3.0907 -0.7329
 3730SOL    HW221400   3.698   4.981   3.228  1.6991 -0.1990  1.1879
 3731SOL     OW21401   3.349   0.177   2.229 -0.0109  0.4187  0.1032
 3731SOL    HW121402   3.336   0.143   2.136 -0.2654  1.5724 -0.3048
 3731SOL    HW221403   3.393   0.267   2.225  0.8732  0.0441  1.1470
 3732SOL     OW21404   0.813   0.235   1.095 -0.1593  0.3840  0.4597
 3732SOL    HW121405   0.760   0.164   1.049 -0.2278 -0.4271  1.7444
 3732SOL    HW221406   0.893   0.260   1.040 -0.3562 -0.4028 -0.1767
 3733SOL     OW21407   9.602   3.278   2.796  0.0008  0.0694  0.0009
 3733SOL    HW121408   9.529   3.312   2.854  2.3249  1.6954  2.0981
 3733SOL    HW221409   9.636   3.191   2.834  2.5536  1.8963  2.1109
 3734SOL     OW21410   5.465   8.998   1.893 -0.5753  0.7544 -0.4493
 3734SOL    HW121411   5.509   9.045   1.969 -1.3444 -0.5512  0.8455
 3734SOL    HW221412   5.532   8.981   1.820  0.2233  1.8301  0.0278
 3735SOL     OW21413   0.040   3.759   0.602  0.2898  0.2929  0.2614
 3735SOL    HW121414   0.082   3.837   0.649 -1.7575  2.7514 -1.8418
 3735SOL    HW221415  -0.057   3.752   0.628  0.5195 -1.8117  0.6864
 3736SOL     OW21416   1.913   6.786   2.417 -0.1842  0.2096 -0.1219
 3736SOL    HW121417   1.850   6.818   2.488  0.8220 -2.6789  2.1838
 3736SOL    HW221418   1.983   6.856   2.401 -0.8758  1.2341  1.1908
 3737SOL     OW21419   1.055   1.715   0.655 -0.4202 -0.0525  0.4205
 3737SOL    HW121420   1.034   1.812   0.665 -1.7639 -0.3498  0.5399
 3737SOL    HW221421   1.048   1.689   0.558  1.2215  0.2444  0.2015
 3738SOL     OW21422   1.687   5.144   1.119 -0.0786  0.1674 -0.0990
 3738SOL    HW121423   1.703   5.121   1.214 -0.2824  1.3442  0.2306
 3738SOL    HW221424   1.680   5.060   1.065 -0.2472 -0.5126  0.9623
 3739SOL     OW21425   4.237   7.584   0.117 -0.1303 -0.4758  0.0395
 3739SOL    HW121426   4.196   7.501   0.155  0.3464  0.3508  2.4501
 3739SOL    HW221427   4.329   7.563   0.084 -0.6349 -1.2637 -0.8790
 3740SOL     OW21428   1.937   0.775   1.499  0.1848  0.4181  0.0097
 3740SOL    HW121429   2.022   0.780   1.552 -0.3700 -2.6769  1.2654
 3740SOL    HW221430   1.859   0.782   1.561 -0.4736 -1.0394 -0.6572
 3741SOL     OW21431   1.475   7.845   0.634  0.3725 -0.2418  0.5849
 3741SOL    HW121432   1.478   7.811   0.540  0.8467 -1.3655  0.9992
 3741SOL    HW221433   1.383   7.875   0.656  0.5157  1.1730 -0.6298
 3742SOL     OW21434   3.490   9.155   0.107 -0.4594 -0.0703  0.3605
 3742SOL    HW121435   3.455   9.103   0.029 -0.6576 -0.0537  0.4380
 3742SOL    HW221436   3.586   9.131   0.123 -0.6693 -0.7312  0.6618
 3743SOL     OW21437   8.985   4.592   1.186 -0.0809  0.3811  0.2003
 3743SOL    HW121438   9.070   4.538   1.186 -0.6123 -0.5680  3.0342
 3743SOL    HW221439   8.985   4.654   1.107  1.8562 -1.7160 -1.5322
 3744SOL     OW21440   3.593   4.045   0.159 -0.3119  0.1354  0.6065
 3744SOL    HW121441   3.642   4.132   0.171  0.1588 -0.1283  0.6314
 3744SOL    HW221442   3.496   4.063   0.145  0.0811  0.7902 -1.4520
 3745SOL     OW21443   2.081   3.000   2.192  0.1783  0.1961 -0.1649
 3745SOL    HW121444   2.092   3.004   2.291 -0.3080 -1.4748 -0.0358
 3745SOL    HW221445   2.094   2.906   2.160 -1.3321  0.4046 -1.4702
 3746SOL     OW21446   4.427   9.289   3.120 -0.0775  0.2077  0.0677
 3746SOL    HW121447   4.462   9.235   3.044  0.7647 -0.5179  0.9602
 3746SOL    HW221448   4.425   9.386   3.094  1.4227  0.1162 -0.4299
 3747SOL     OW21449   0.773   2.269   2.162  0.2905  0.2676 -0.4522
 3747SOL    HW121450   0.865   2.231   2.154  0.7085  1.1835 -0.0611
 3747SOL    HW221451   0.729   2.232   2.245 -0.4959 -1.7978 -1.7354
 3748SOL     OW21452   2.649   7.241   2.888 -0.3313  0.1600  0.3892
 3748SOL    HW121453   2.588   7.174   2.930 -2.0863  1.2389 -0.4045
 3748SOL    HW221454   2.597   7.322   2.862  1.6446  1.5235  0.6328
 3749SOL     OW21455   8.578   2.455   0.874  0.0964  0.0334  0.1725
 3749SOL    HW121456   8.611   2.500   0.956  1.0876  0.1484 -0.2828
 3749SOL    HW221457   8.538   2.367   0.898 -1.9839  1.1880  1.0884
 3750SOL     OW21458   0.490   4.671   2.067 -0.1295  0.8256  0.5060
 3750SOL    HW121459   0.479   4.575   2.040 -0.7172  0.1040  3.1273
 3750SOL    HW221460   0.540   4.720   1.996 -2.8807 -0.5608 -2.5390
 3751SOL     OW21461   4.146   8.359   2.726  0.9574 -0.1324 -0.2454
 3751SOL    HW121462   4.100   8.340   2.813  1.3115  0.8325  0.1589
 3751SOL    HW221463   4.223   8.421   2.742  0.8648  0.2555 -1.2819
 3752SOL     OW21464   2.351   9.910   0.685 -0.4916 -0.3652 -0.1656
 3752SOL    HW121465   2.450   9.892   0.682 -0.5487 -1.0065  1.1003
 3752SOL    HW221466   2.325   9.969   0.609  0.8672 -0.2174 -0.5303
 3753SOL     OW21467   3.042   1.023   2.211  0.4456  0.2147  0.0778
 3753SOL    HW121468   2.953   1.059   2.185 -0.6418 -0.5796  2.4977
 3753SOL    HW221469   3.068   0.948   2.149 -1.9865 -1.5543  1.1228
 3754SOL     OW21470   0.679   5.912   2.709 -0.5097  1.0191 -0.2280
 3754SOL    HW121471   0.594   5.860   2.714  0.3398 -0.3992 -0.3290
 3754SOL    HW221472   0.664   6.004   2.746 -2.2683  1.0442 -0.9425
 3755SOL     OW21473   6.343   8.755   2.195 -0.3054  0.4190 -0.2349
 3755SOL    HW121474   6.363   8.852   2.178  1.9521  0.0133 -0.1181
 3755SOL    HW221475   6.352   8.704   2.109  1.7289 -0.1651  0.2981
 3756SOL     OW21476   9.586   9.211   0.709 -0.5936 -0.3120 -0.7903
 3756SOL    HW121477   9.534   9.211   0.795 -0.1749 -1.9100 -0.5225
 3756SOL    HW221478   9.680   9.241   0.727 -0.2988 -1.3676 -0.5528
 3757SOL     OW21479   0.971   6.830   0.977  0.6342  0.2643  0.1495
 3757SOL    HW121480   1.018   6.882   1.048  0.1168 -1.0467  1.4653
 3757SOL    HW221481   1.028   6.828   0.894  0.4759  3.2537 -0.0872
 3758SOL     OW21482   4.400   2.898   2.425  0.1109  0.4137 -0.0922
 3758SOL    HW121483   4.395   2.918   2.327  0.1109  0.5869 -0.0575
 3758SOL    HW221484   4.421   2.982   2.475  2.7532 -0.1443 -0.1696
 3759SOL     OW21485   2.499   1.501   3.007  0.1845 -0.2907 -0.5625
 3759SOL    HW121486   2.475   1.577   3.067  1.2180 -0.6390  0.3014
 3759SOL    HW221487   2.582   1.524   2.956 -1.1735  0.3793 -2.5777
 3760SOL     OW21488   1.607   2.583   1.150 -0.5660  0.2593  0.1166
 3760SOL    HW121489   1.677   2.654   1.148  0.5260 -0.8126 -0.5425
 3760SOL    HW221490   1.606   2.540   1.240 -0.1605  0.0841  0.0411
 3761SOL     OW21491   1.711   2.173   0.305  0.1732  0.3418 -0.4340
 3761SOL    HW121492   1.784   2.109   0.282 -0.9718 -0.9315 -0.5890
 3761SOL    HW221493   1.632   2.123   0.340 -0.6835  1.6816 -0.3989
 3762SOL     OW21494   0.493   8.322   1.493  0.1165  0.1472  0.3052
 3762SOL    HW121495   0.488   8.404   1.435  0.0327 -0.3860 -0.4599
 3762SOL    HW221496   0.404   8.308   1.537  0.2317  0.6559  0.7099
 3763SOL     OW21497   4.550   9.985   1.282 -0.5152  0.2786 -0.0653
 3763SOL    HW121498   4.552  10.052   1.357 -0.3049 -0.1760  0.3389
 3763SOL    HW221499   4.489   9.910   1.306 -0.8869  0.4113 -0.5948
 3764SOL     OW21500   7.687   1.032   0.907  0.0175  0.9997  0.2148
 3764SOL    HW121501   7.725   1.124   0.894  1.7871  0.1961 -0.5006
 3764SOL    HW221502   7.733   0.988   0.985  0.2303  0.2001 -0.3534
 3765SOL     OW21503   1.589   0.445   1.465  0.5149 -0.2489  0.6909
 3765SOL    HW121504   1.627   0.501   1.391  0.0588  1.4282  1.6836
 3765SOL    HW221505   1.524   0.501   1.518  0.3098 -1.6406  1.9204
 3766SOL     OW21506   2.873   9.016   2.317  0.3378  0.7602 -0.2295
 3766SOL    HW121507   2.776   8.998   2.296  0.1308 -1.0394  2.1713
 3766SOL    HW221508   2.879   9.074   2.398  1.2973 -0.1090  0.3216
 3767SOL     OW21509   2.609   9.749   1.451  0.0625  0.0624  0.0477
 3767SOL    HW121510   2.663   9.699   1.383 -0.7053 -0.0825 -0.4499
 3767SOL    HW221511   2.627   9.847   1.442  0.0183  0.0383 -0.3080
 3768SOL     OW21512   3.114   2.015   3.033 -0.5096 -0.2399  0.2015
 3768SOL    HW121513   3.198   2.025   3.086 -1.1820  3.0844  0.7052
 3768SOL    HW221514   3.068   1.930   3.060  0.8154 -0.2544  2.5231
 3769SOL     OW21515   3.326   0.907   1.017 -0.0806  0.1804  0.6028
 3769SOL    HW121516   3.401   0.972   1.030  1.7280 -1.8326  0.3996
 3769SOL    HW221517   3.359   0.814   1.032 -2.4734 -0.7719  0.1957
 3770SOL     OW21518   1.416   2.624   2.629 -0.4237  0.0902 -0.3444
 3770SOL    HW121519   1.437   2.527   2.643  0.3019  0.3222  0.2123
 3770SOL    HW221520   1.316   2.637   2.632 -0.5449 -0.6782 -0.7399
 3771SOL     OW21521   0.864   8.851   0.333  0.4345 -0.7170 -0.5169
 3771SOL    HW121522   0.929   8.926   0.348  3.4890 -3.2716 -0.4818
 3771SOL    HW221523   0.828   8.857   0.240  1.0125  0.5133 -0.6759
 3772SOL     OW21524   1.174   1.725   1.590  0.6910 -0.0884 -0.0928
 3772SOL    HW121525   1.219   1.742   1.678  0.1718 -0.1606  0.1842
 3772SOL    HW221526   1.137   1.633   1.588  0.7813 -0.1185 -0.4233
 3773SOL     OW21527   1.305   8.565   1.678 -0.8918  0.1569  0.2851
 3773SOL    HW121528   1.243   8.619   1.620 -1.3963 -1.0694 -0.3506
 3773SOL    HW221529   1.344   8.491   1.623  2.1974  1.6797  0.3024
 3774SOL     OW21530   9.922   1.485   1.727  0.3215  0.2369 -0.6010
 3774SOL    HW121531   9.993   1.424   1.691 -1.0603 -1.1449 -1.0462
 3774SOL    HW221532   9.958   1.537   1.804  1.4981 -1.2531 -0.1327
 3775SOL     OW21533   1.161   4.175   0.729  0.0187 -0.3653 -0.0229
 3775SOL    HW121534   1.097   4.172   0.805 -0.7162  1.2919 -0.5575
 3775SOL    HW221535   1.252   4.200   0.763 -0.3052  0.3671  0.3162
 3776SOL     OW21536   0.985   8.760   0.896 -0.5316  0.6011 -0.5089
 3776SOL    HW121537   1.052   8.735   0.966 -0.0445  0.8865 -0.8715
 3776SOL    HW221538   1.027   8.756   0.806 -1.3998 -0.6139 -0.8746
 3777SOL     OW21539   0.102   1.215   3.221  0.6027 -0.4138 -0.2809
 3777SOL    HW121540   0.101   1.274   3.301 -1.6757  0.3720 -0.8425
 3777SOL    HW221541   0.149   1.261   3.146  0.0868  0.0995 -0.2906
 3778SOL     OW21542   1.427   9.213   1.524 -0.1014 -0.7178  0.0321
 3778SOL    HW121543   1.488   9.225   1.602 -0.4241 -1.0501  0.3331
 3778SOL    HW221544   1.375   9.297   1.508 -0.2411 -0.7440  0.3492
 3779SOL     OW21545   2.344   9.727   3.142  0.1181 -0.0716 -0.4748
 3779SOL    HW121546   2.256   9.742   3.186 -1.4988 -0.3271 -3.5150
 3779SOL    HW221547   2.355   9.792   3.067  1.9850 -0.8436 -0.8971
 3780SOL     OW21548   1.581   9.728   2.118 -0.5192 -0.5450  0.4649
 3780SOL    HW121549   1.631   9.704   2.201 -0.6514  0.8219  0.9580
 3780SOL    HW221550   1.509   9.793   2.141 -0.5755 -0.1747 -0.7266
 3781SOL     OW21551   2.438   0.732   1.489 -0.1491 -0.5430 -0.7634
 3781SOL    HW121552   2.394   0.722   1.578  4.0797 -0.7809  1.4544
 3781SOL    HW221553   2.426   0.648   1.436 -3.0366 -0.2525 -0.6390
 3782SOL     OW21554   1.075   4.745   3.436 -0.1920 -0.0710  0.5251
 3782SOL    HW121555   1.162   4.772   3.395  0.1658 -0.9431  0.7037
 3782SOL    HW221556   1.007   4.733   3.364  0.2221 -0.8043  0.2504
 3783SOL     OW21557   0.434   1.507   2.011 -0.4208 -0.0778 -0.2031
 3783SOL    HW121558   0.475   1.424   1.973  1.2685 -0.4685  2.3277
 3783SOL    HW221559   0.367   1.482   2.081 -1.1667  0.6851 -0.6283
 3784SOL     OW21560   3.912   1.800   1.310  0.9695  0.0103 -0.0943
 3784SOL    HW121561   3.858   1.880   1.281  0.0042 -0.2038  1.0558
 3784SOL    HW221562   3.852   1.721   1.317  1.5607 -0.3786  0.5941
 3785SOL     OW21563   9.823   9.909   0.293  0.7828  0.1414 -0.5258
 3785SOL    HW121564   9.884   9.871   0.362  0.1839  1.0225  0.5042
 3785SOL    HW221565   9.831  10.009   0.292 -0.3525  0.2400 -0.6349
 3786SOL     OW21566   1.713   0.616   1.253  0.0042 -0.3861  0.5722
 3786SOL    HW121567   1.799   0.631   1.204  2.0873 -0.7638  3.9525
 3786SOL    HW221568   1.648   0.687   1.227  2.5864  2.1083  0.6384
 3787SOL     OW21569   2.910   4.954   1.247  0.7254  0.1528 -0.3668
 3787SOL    HW121570   2.850   4.883   1.209 -1.4634  1.5487  0.4337
 3787SOL    HW221571   3.004   4.936   1.218  0.2728 -3.2019 -0.0104
 3788SOL     OW21572   2.184   7.340   0.962 -0.1020  0.5416  0.0160
 3788SOL    HW121573   2.148   7.434   0.957  0.6717  0.8112 -0.4979
 3788SOL    HW221574   2.190   7.301   0.870  0.7008  0.4131  0.1226
 3789SOL     OW21575   1.781   3.010   2.706 -0.4679  0.2311 -0.5467
 3789SOL    HW121576   1.698   2.959   2.727 -0.6878  1.0801  0.7407
 3789SOL    HW221577   1.861   2.951   2.719 -0.7721 -0.0543  0.0162
 3790SOL     OW21578   9.654   2.545   2.247 -0.4196  0.7632 -0.0375
 3790SOL    HW121579   9.700   2.460   2.222 -0.9538 -0.2722  2.3621
 3790SOL    HW221580   9.556   2.528   2.258 -0.0957  0.9487  3.5475
 3791SOL     OW21581   3.332   9.669   1.303  0.3347  0.3525  0.2433
 3791SOL    HW121582   3.362   9.574   1.301 -1.6080 -0.2991  0.4227
 3791SOL    HW221583   3.367   9.713   1.385  2.8470  0.3668 -0.8019
 3792SOL     OW21584   0.021   8.608   1.416 -0.2089  0.6136 -0.2869
 3792SOL    HW121585  -0.029   8.608   1.329 -0.6627  1.3471 -0.0214
 3792SOL    HW221586  -0.019   8.674   1.479 -1.3395 -1.5427  1.3194
 3793SOL     OW21587   0.900   4.816   2.431 -0.2906 -0.0869  0.4685
 3793SOL    HW121588   0.985   4.768   2.413  0.2292  0.8890  0.2611
 3793SOL    HW221589   0.918   4.914   2.436 -1.9366  0.4649 -3.1031
 3794SOL     OW21590   5.597   9.472   2.271 -0.2069 -0.2050 -0.0849
 3794SOL    HW121591   5.557   9.559   2.300  2.7694  0.6038  1.8725
 3794SOL    HW221592   5.534   9.397   2.292 -1.6097  1.2136  0.8353
 3795SOL     OW21593   8.032   1.060   2.393  0.3587 -0.1510  0.4533
 3795SOL    HW121594   7.956   1.004   2.360  0.0555  0.2375  0.4998
 3795SOL    HW221595   8.106   1.058   2.326  0.0212  0.0621  0.0774
 3796SOL     OW21596   2.838   4.812   1.481  0.2979 -0.2251 -0.6299
 3796SOL    HW121597   2.882   4.861   1.406 -0.1953  0.3783 -0.5307
 3796SOL    HW221598   2.835   4.872   1.561  0.0402 -0.5619 -0.3896
 3797SOL     OW21599   1.115   1.561   2.586  0.6293 -0.2592 -0.2338
 3797SOL    HW121600   1.161   1.634   2.637 -0.1837  0.2482 -0.2173
 3797SOL    HW221601   1.183   1.506   2.537  1.2419  0.5270 -0.2692
 3798SOL     OW21602   3.295   9.715   2.177  0.5641 -0.1174 -0.0216
 3798SOL    HW121603   3.298   9.762   2.089  2.5885 -0.5826 -0.2316
 3798SOL    HW221604   3.321   9.778   2.250 -1.2530  0.3077  0.2898
 3799SOL     OW21605   1.542   4.522   1.077 -0.2027  0.0352  0.5933
 3799SOL    HW121606   1.453   4.497   1.117  0.2434 -0.4062  1.3221
 3799SOL    HW221607   1.578   4.602   1.124 -0.0204 -0.0349  0.5726
 3800SOL     OW21608   9.240   2.507   0.542 -0.5162 -0.4858  0.1425
 3800SOL    HW121609   9.224   2.605   0.538  0.6333 -0.2033  1.9544
 3800SOL    HW221610   9.336   2.487   0.523 -0.6338 -1.2100  0.2708
 3801SOL     OW21611   2.962   1.049   3.286 -0.2989  0.2936 -0.9261
 3801SOL    HW121612   2.901   1.127   3.277  0.3718  1.0449  0.9311
 3801SOL    HW221613   3.028   1.066   3.359  0.8452 -1.3599 -1.5414
 3802SOL     OW21614   2.505   3.732   2.127  0.3941  0.1112  0.6482
 3802SOL    HW121615   2.594   3.751   2.085  0.1789 -0.3294 -0.0121
 3802SOL    HW221616   2.496   3.634   2.144 -0.2728  0.0545  0.0061
 3803SOL     OW21617   2.301   3.506   1.309  0.4057  0.0149 -0.0286
 3803SOL    HW121618   2.236   3.504   1.385  1.7409  0.4100  1.1551
 3803SOL    HW221619   2.364   3.583   1.322  0.6695  0.0652 -1.5354
 3804SOL     OW21620   3.744   4.723   0.163 -0.0577 -0.5419 -0.0427
 3804SOL    HW121621   3.807   4.746   0.089  0.6373 -0.1391  0.6703
 3804SOL    HW221622   3.693   4.804   0.191 -0.8596 -0.8574 -0.5846
 3805SOL     OW21623   3.898   1.320   2.970 -0.2208 -0.2235 -0.3472
 3805SOL    HW121624   3.863   1.237   3.014 -0.6287  0.5889  0.8706
 3805SOL    HW221625   3.825   1.389   2.966  0.1401  0.1176 -1.2767
 3806SOL     OW21626   3.141   7.328   3.278  0.5576  0.1761 -0.0919
 3806SOL    HW121627   3.052   7.372   3.262  1.5071  1.5426 -1.7475
 3806SOL    HW221628   3.132   7.230   3.262 -0.7529  0.2280  0.1991
 3807SOL     OW21629   1.013   2.156   2.113 -0.5457  0.2957 -0.3493
 3807SOL    HW121630   1.065   2.183   2.195  2.3423  0.0835 -2.0622
 3807SOL    HW221631   0.975   2.065   2.127  0.8228 -0.1850  0.3831
 3808SOL     OW21632   7.778   1.946   1.472  0.2818  0.4010 -0.1676
 3808SOL    HW121633   7.861   1.916   1.424  0.6370 -0.4252  0.9261
 3808SOL    HW221634   7.743   2.029   1.430  0.2465 -0.6273 -2.2086
 3809SOL     OW21635   1.301   0.275   0.058  0.3385  0.3217  0.4296
 3809SOL    HW121636   1.390   0.271   0.012  0.8592  1.3790  1.3277
 3809SOL    HW221637   1.283   0.187   0.102  1.0605  0.1876  0.4699
 3810SOL     OW21638   0.206   2.586   2.446 -0.1404  0.1520  0.4965
 3810SOL    HW121639   0.240   2.547   2.531 -2.6073 -0.1524  1.3762
 3810SOL    HW221640   0.120   2.633   2.462 -1.7700 -1.7603 -2.1812
 3811SOL     OW21641   2.206   1.554   2.367 -0.9932  0.3026 -0.1303
 3811SOL    HW121642   2.234   1.459   2.354 -0.2001  0.5601 -0.3008
 3811SOL    HW221643   2.119   1.569   2.321  0.4290  0.4830 -2.8434
 3812SOL     OW21644   2.800   5.007   1.678 -0.0345 -0.4898 -0.4945
 3812SOL    HW121645   2.712   5.055   1.675 -0.6392 -1.4575  1.0600
 3812SOL    HW221646   2.854   5.041   1.755  1.2046  0.4902 -1.7694
 3813SOL     OW21647   0.581   7.457   1.120  0.1826 -0.9062  0.1681
 3813SOL    HW121648   0.506   7.481   1.182 -0.2035 -3.6320  0.8515
 3813SOL    HW221649   0.668   7.466   1.168  0.1664  0.5009 -0.0540
 3814SOL     OW21650   2.884   5.676   2.271 -0.3314  0.1453 -0.3657
 3814SOL    HW121651   2.931   5.762   2.250 -0.9277 -0.0928 -2.9154
 3814SOL    HW221652   2.798   5.673   2.219 -0.6762 -1.6566  0.2945
 3815SOL     OW21653   1.084   8.571   2.325  0.3653 -0.0821 -0.2264
 3815SOL    HW121654   1.030   8.624   2.259  0.8292  0.2882 -0.3140
 3815SOL    HW221655   1.075   8.612   2.416 -1.0854 -1.1799  0.1537
 3816SOL     OW21656   2.224   1.517   1.225 -0.0771 -0.8010 -0.1118
 3816SOL    HW121657   2.241   1.442   1.162  1.7290 -0.7979  0.3582
 3816SOL    HW221658   2.296   1.520   1.295 -0.4933  0.9431  0.2712
 3817SOL     OW21659   1.573   9.883   0.823 -0.0452  0.2384 -0.0064
 3817SOL    HW121660   1.626   9.799   0.815  0.7882  0.9024 -1.7763
 3817SOL    HW221661   1.632   9.958   0.850 -0.6856  0.3674  1.0471
 3818SOL     OW21662   3.222   3.282   2.732 -0.3341  0.0608  0.0340
 3818SOL    HW121663   3.215   3.378   2.708  0.2000 -0.1020 -0.7865
 3818SOL    HW221664   3.305   3.266   2.787  0.3916 -0.1861 -1.1238
 3819SOL     OW21665   1.096   1.236   2.363 -0.4454  0.1510 -0.5546
 3819SOL    HW121666   1.043   1.282   2.292 -1.3733  2.1732  1.3599
 3819SOL    HW221667   1.168   1.296   2.396 -0.1853 -0.6441  0.3747
 3820SOL     OW21668   1.376   9.227   0.469  0.5392  0.6695  0.5321
 3820SOL    HW121669   1.331   9.213   0.557  0.2835 -0.0718  0.2862
 3820SOL    HW221670   1.464   9.272   0.483  1.0389 -0.5202  1.2743
 3821SOL     OW21671   3.085   3.040   0.190  0.2513 -0.7716 -0.5177
 3821SOL    HW121672   3.026   3.046   0.109 -0.3460 -0.5993 -0.0760
 3821SOL    HW221673   3.138   3.124   0.198 -1.6778  0.3801  0.7628
 3822SOL     OW21674   5.462   9.127   2.368  0.2922 -0.4385  0.0542
 3822SOL    HW121675   5.398   9.203   2.379 -0.3454 -1.2914  2.5351
 3822SOL    HW221676   5.512   9.112   2.453  1.3578 -1.9565 -0.8054
 3823SOL     OW21677   7.730   0.475   2.674 -0.1315  0.5483  0.1919
 3823SOL    HW121678   7.641   0.512   2.699 -0.0918 -0.3405  1.7148
 3823SOL    HW221679   7.802   0.540   2.699 -0.2481  0.6795  0.1868
 3824SOL     OW21680   0.868   1.570   2.485 -0.4125  0.2354 -0.2109
 3824SOL    HW121681   0.820   1.582   2.572 -0.1620 -1.1601  0.1361
 3824SOL    HW221682   0.964   1.549   2.503 -0.8313 -2.3168 -0.7264
 3825SOL     OW21683   3.886   2.395   2.378 -0.5242 -0.5895 -0.1865
 3825SOL    HW121684   3.955   2.378   2.307  0.4212  0.5413  0.4390
 3825SOL    HW221685   3.826   2.469   2.348 -1.6808 -1.7833 -0.8656
 3826SOL     OW21686   1.825   6.157   3.331  0.0619  0.5403  0.5820
 3826SOL    HW121687   1.819   6.220   3.254 -0.5239 -0.4270 -0.1738
 3826SOL    HW221688   1.738   6.156   3.380  0.2417  0.7198  0.9022
 3827SOL     OW21689   3.409   9.746   2.744  0.6949 -0.0923  0.0589
 3827SOL    HW121690   3.358   9.745   2.830  2.1964 -0.1369  0.9733
 3827SOL    HW221691   3.349   9.777   2.670  0.2019  3.0273  1.6592
 3828SOL     OW21692   3.206   6.207   0.775 -0.2650 -0.4638 -0.1757
 3828SOL    HW121693   3.294   6.220   0.820 -1.6384  0.3973  2.4165
 3828SOL    HW221694   3.177   6.293   0.732 -0.3091 -0.4545 -0.1283
 3829SOL     OW21695   0.011   6.209   2.824  0.4228  0.2307  0.1731
 3829SOL    HW121696  -0.034   6.263   2.753 -0.7408 -1.1592 -0.1580
 3829SOL    HW221697  -0.045   6.130   2.848  1.4499 -0.0838  1.6578
 3830SOL     OW21698   3.905   3.018   1.809  0.2013 -0.1612 -0.1630
 3830SOL    HW121699   3.872   3.033   1.902 -2.0687 -2.7165 -0.4988
 3830SOL    HW221700   3.850   3.071   1.745  2.4455  2.4371 -0.0066
 3831SOL     OW21701   0.474   8.701   1.997 -0.3654 -0.3037  0.0181
 3831SOL    HW121702   0.443   8.765   2.068  0.1931  1.1049 -0.9923
 3831SOL    HW221703   0.406   8.629   1.986  0.2943 -1.5071  3.1495
 3832SOL     OW21704   2.644   7.871   0.676 -0.2640 -0.1974 -0.3396
 3832SOL    HW121705   2.596   7.807   0.616  2.2750 -1.3127 -1.2536
 3832SOL    HW221706   2.694   7.938   0.621 -0.2064  0.5258  0.5740
 3833SOL     OW21707   1.692   2.468   2.472 -0.2602  0.1177 -0.9604
 3833SOL    HW121708   1.771   2.477   2.411  0.4857 -0.4431 -0.0822
 3833SOL    HW221709   1.611   2.505   2.427  0.4773  0.5791 -1.9213
 3834SOL     OW21710   0.386   5.293   2.318  0.4359 -0.4165 -0.2421
 3834SOL    HW121711   0.290   5.318   2.304 -0.5104 -2.6058  2.0222
 3834SOL    HW221712   0.403   5.202   2.282  2.0733  0.5454 -1.9807
 3835SOL     OW21713   1.948   1.766   2.754  0.1213  0.6398 -0.8217
 3835SOL    HW121714   1.989   1.717   2.831 -1.4847 -1.2152 -1.1075
 3835SOL    HW221715   2.015   1.829   2.715  1.1781  1.1270  1.6608
 3836SOL     OW21716   1.835   8.458   0.486 -0.4013  0.0707  0.3689
 3836SOL    HW121717   1.884   8.379   0.448  1.0650  0.2059  1.9235
 3836SOL    HW221718   1.752   8.427   0.532 -1.4021 -0.2440 -1.6107
 3837SOL     OW21719   0.366   4.453   2.907  1.1723 -0.5015 -0.3337
 3837SOL    HW121720   0.329   4.416   2.822  0.5534 -1.7797  0.4659
 3837SOL    HW221721   0.304   4.429   2.982  1.8887  0.3170  0.5184
 3838SOL     OW21722   4.526   1.587   1.535 -0.6104 -0.2490  0.2360
 3838SOL    HW121723   4.471   1.509   1.504  0.5008 -0.9319 -0.0382
 3838SOL    HW221724   4.562   1.567   1.626 -2.1265  0.8742  1.1065
 3839SOL     OW21725   2.671   0.444   2.146 -0.3520 -0.1654 -0.6314
 3839SOL    HW121726   2.625   0.527   2.175 -2.3776 -1.3248 -0.4937
 3839SOL    HW221727   2.649   0.369   2.208  0.9563 -0.9720 -1.1106
 3840SOL     OW21728   1.446   9.958   1.501  0.0996  0.1290 -0.3643
 3840SOL    HW121729   1.448   9.957   1.401 -1.4015  1.7909 -0.4312
 3840SOL    HW221730   1.363   9.912   1.533  1.2277 -1.5706  0.1717
 3841SOL     OW21731   3.734   4.882   2.270 -0.0729  0.1667  0.4370
 3841SOL    HW121732   3.757   4.968   2.224  3.0768 -0.2246  1.1791
 3841SOL    HW221733   3.709   4.900   2.365 -0.7766  0.3733  0.2187
 3842SOL     OW21734   0.071   5.182   1.884  0.1075  0.1548 -0.2719
 3842SOL    HW121735   0.159   5.135   1.877  0.6141  0.9401  0.6103
 3842SOL    HW221736   0.030   5.162   1.973 -1.0290 -0.9145 -1.0275
 3843SOL     OW21737   3.488   7.349   2.678 -0.5801 -0.8904  0.1965
 3843SOL    HW121738   3.389   7.349   2.696 -0.6749  1.3834 -0.1320
 3843SOL    HW221739   3.504   7.329   2.581 -0.5506 -3.8828  0.7775
 3844SOL     OW21740   0.759   8.069   1.597  0.1129  0.5005  0.3195
 3844SOL    HW121741   0.661   8.049   1.598 -0.0038  1.0627  1.8915
 3844SOL    HW221742   0.787   8.096   1.505 -0.9194 -1.0646 -0.4638
 3845SOL     OW21743   7.843   1.237   2.487  0.1662  0.0276  0.1029
 3845SOL    HW121744   7.909   1.171   2.453  3.0136  3.2233 -0.8567
 3845SOL    HW221745   7.766   1.244   2.423 -0.0099 -2.0494  0.0588
 3846SOL     OW21746   4.155   2.976   2.955  0.3387 -0.1361  0.0062
 3846SOL    HW121747   4.146   3.067   2.995 -2.6251  0.5885 -2.1004
 3846SOL    HW221748   4.172   2.984   2.856 -0.8390 -1.8358 -0.3596
 3847SOL     OW21749   0.848   8.259   0.634  0.1936  0.0435  0.0095
 3847SOL    HW121750   0.881   8.347   0.599  0.1091 -0.1371 -0.5421
 3847SOL    HW221751   0.911   8.186   0.607 -0.8888 -0.3691 -1.4777
 3848SOL     OW21752   9.319   2.267   2.229 -0.2735 -0.1602 -0.0794
 3848SOL    HW121753   9.401   2.211   2.241 -0.0007  0.3724  0.6042
 3848SOL    HW221754   9.339   2.362   2.253 -1.1245 -0.0519  0.2474
 3849SOL     OW21755   8.513   4.936   0.997  0.3447  0.2347  0.6693
 3849SOL    HW121756   8.607   4.922   0.966  0.4654 -1.7326  1.8651
 3849SOL    HW221757   8.500   5.033   1.019  1.1795  1.0809 -2.3539
 3850SOL     OW21758   8.756   4.907   0.874  0.2794  0.3109 -0.0779
 3850SOL    HW121759   8.824   4.944   0.811  0.8733 -2.0626 -0.8939
 3850SOL    HW221760   8.783   4.815   0.902 -1.4606  0.2071  1.3659
 3851SOL     OW21761   9.843   3.580   1.511 -0.2885  0.4550  0.2952
 3851SOL    HW121762   9.850   3.677   1.489 -1.1210  0.2140 -1.0602
 3851SOL    HW221763   9.840   3.527   1.427  1.8945 -0.8999  1.0351
 3852SOL     OW21764   3.453   5.262   2.862  0.1515 -0.2260  0.1454
 3852SOL    HW121765   3.472   5.165   2.873  2.4100  0.3074  1.2107
 3852SOL    HW221766   3.460   5.286   2.765  0.8173 -0.8815  0.0285
 3853SOL     OW21767   2.391   1.727   1.089 -0.3985  0.2800  0.4432
 3853SOL    HW121768   2.368   1.675   1.171  0.5941  0.5693  0.9066
 3853SOL    HW221769   2.488   1.753   1.091 -0.4203  0.4917 -0.7021
 3854SOL     OW21770   4.471   4.048   0.248 -0.2668 -0.3021 -0.6280
 3854SOL    HW121771   4.471   4.117   0.177  0.9647 -0.0046 -0.3408
 3854SOL    HW221772   4.503   3.961   0.211  0.3657 -0.1495 -0.4473
 3855SOL     OW21773   2.060   4.124   0.288  0.3370  0.2200 -0.1600
 3855SOL    HW121774   1.979   4.183   0.292  1.6229  1.9793  0.5692
 3855SOL    HW221775   2.038   4.035   0.327 -0.2587  1.9054  3.5785
 3856SOL     OW21776   3.592   6.078   3.287  0.0998  0.2005  0.0172
 3856SOL    HW121777   3.637   6.056   3.201 -0.0603 -0.6092  0.1380
 3856SOL    HW221778   3.538   6.000   3.317 -0.4325  0.7420  0.4784
 3857SOL     OW21779   9.935   3.697   3.372 -0.4299 -0.5379 -0.2440
 3857SOL    HW121780   9.877   3.732   3.446 -0.2051 -0.2514 -0.2025
 3857SOL    HW221781   9.977   3.611   3.399  0.1392 -0.1236  0.1990
 3858SOL     OW21782   8.680   4.903   1.253 -0.0272  0.5876  0.1419
 3858SOL    HW121783   8.707   4.834   1.319  0.7179  2.3341  1.7062
 3858SOL    HW221784   8.641   4.859   1.172  4.4076 -1.8550 -0.8015
 3859SOL     OW21785   0.656   4.090   0.167 -0.3220  0.5097 -0.3022
 3859SOL    HW121786   0.633   4.031   0.090  0.2630 -0.6005  0.3725
 3859SOL    HW221787   0.743   4.137   0.149 -0.3452  0.4904 -0.4591
 3860SOL     OW21788   9.847   1.853   2.894  0.2443 -0.4381  0.1600
 3860SOL    HW121789   9.946   1.844   2.882  0.0683 -3.4555  0.5789
 3860SOL    HW221790   9.801   1.781   2.842 -1.7660  1.0434 -0.1605
 3861SOL     OW21791   1.394   2.106   2.191  0.1469  0.4590  0.0221
 3861SOL    HW121792   1.389   2.049   2.109 -1.1938  0.7287 -0.0926
 3861SOL    HW221793   1.339   2.189   2.178  2.0656  1.8022  0.1924
 3862SOL     OW21794   4.289   0.882   0.908 -0.0043  0.0691 -0.3625
 3862SOL    HW121795   4.309   0.813   0.837  1.1515 -0.8543  0.8315
 3862SOL    HW221796   4.309   0.973   0.872 -1.0644 -0.2508 -1.7944
 3863SOL     OW21797   1.301   8.005   2.271 -0.6517  0.3304  0.1347
 3863SOL    HW121798   1.371   8.049   2.328 -2.3490  1.3209  1.5011
 3863SOL    HW221799   1.267   8.072   2.204 -1.8979  0.5204  0.9637
 3864SOL     OW21800   4.203   0.541   2.636  0.1128  0.2664 -0.3803
 3864SOL    HW121801   4.285   0.576   2.590  0.8025  0.8728  1.2810
 3864SOL    HW221802   4.202   0.441   2.632  0.6152  0.2784 -0.9090
 3865SOL     OW21803   3.551   2.737   2.834 -0.6440  0.7638  0.1515
 3865SOL    HW121804   3.479   2.769   2.896  0.2329  1.1761  0.9720
 3865SOL    HW221805   3.522   2.752   2.740 -1.7770  0.6176  0.4659
 3866SOL     OW21806   8.032   1.768   1.624  0.1271 -0.6120  0.1274
 3866SOL    HW121807   7.984   1.852   1.647 -0.3705 -0.4975 -1.2458
 3866SOL    HW221808   8.096   1.786   1.549  1.3948 -1.0491  1.0827
 3867SOL     OW21809   0.536   2.743   2.137 -0.1602  0.3776 -0.1915
 3867SOL    HW121810   0.477   2.719   2.060 -3.2356 -0.9874  2.4709
 3867SOL    HW221811   0.598   2.667   2.157 -1.1939 -0.3531  0.3014
 3868SOL     OW21812   9.814   4.071   1.067 -0.2777 -0.3547  0.4532
 3868SOL    HW121813   9.831   4.077   0.969 -0.7106 -0.6327  0.3609
 3868SOL    HW221814   9.766   4.153   1.098  1.0225  0.3395  0.6778
 3869SOL     OW21815   3.625   9.508   1.982  0.3979  0.3892  0.0837
 3869SOL    HW121816   3.551   9.475   2.040 -1.1686  1.2910 -1.3673
 3869SOL    HW221817   3.587   9.560   1.905  2.4272 -0.5111 -1.5793
 3870SOL     OW21818   4.153   9.236   1.333  0.5718 -0.3056 -0.2501
 3870SOL    HW121819   4.209   9.219   1.252  2.2104  0.0363  0.7893
 3870SOL    HW221820   4.212   9.266   1.409 -1.0439  0.2427  0.8119
 3871SOL     OW21821   9.666   5.014   2.478 -0.6936  0.2809  0.2980
 3871SOL    HW121822   9.685   4.916   2.486 -1.0630  0.1261 -0.6044
 3871SOL    HW221823   9.605   5.043   2.551 -0.2584 -0.0772  0.8070
 3872SOL     OW21824   0.521   2.185   0.492 -0.2091  0.3468  0.1858
 3872SOL    HW121825   0.557   2.206   0.583  0.6822 -0.2593 -0.0203
 3872SOL    HW221826   0.457   2.256   0.464 -3.3418 -1.2807  2.8165
 3873SOL     OW21827   0.151   6.002   1.269 -0.1183  0.0203 -0.3215
 3873SOL    HW121828   0.149   6.096   1.303  0.2038  0.8407 -2.4668
 3873SOL    HW221829   0.174   5.940   1.344  0.6472  1.7488  0.9255
 3874SOL     OW21830   0.538   1.566   1.641 -0.6126  0.8032 -0.1509
 3874SOL    HW121831   0.453   1.588   1.689  0.8568  0.1287  2.9046
 3874SOL    HW221832   0.579   1.484   1.681  0.4637 -0.0698 -2.9343
 3875SOL     OW21833   1.852   2.641   0.098 -0.5168  0.2420 -0.1174
 3875SOL    HW121834   1.900   2.715   0.144  0.4057 -1.0414  1.0281
 3875SOL    HW221835   1.842   2.564   0.161 -0.1092 -1.1730 -1.7452
 3876SOL     OW21836   7.858   1.933   0.059  0.0867 -0.9334 -0.0544
 3876SOL    HW121837   7.878   1.975   0.148 -1.4313  0.3801 -0.3019
 3876SOL    HW221838   7.860   1.834   0.067  0.5527 -0.8173  1.3081
 3877SOL     OW21839   0.753   1.408   0.039  0.1047 -0.2349  0.3186
 3877SOL    HW121840   0.707   1.444   0.120 -0.6012 -3.3013  1.3702
 3877SOL    HW221841   0.826   1.345   0.067  0.2959 -0.8266 -1.4107
 3878SOL     OW21842   1.498   8.701   2.166 -0.1617 -0.1473  0.0774
 3878SOL    HW121843   1.574   8.757   2.133  0.6810 -1.4084 -0.1699
 3878SOL    HW221844   1.454   8.656   2.088 -1.3006  0.7202  0.1966
 3879SOL     OW21845   8.199   1.324   1.230  0.2771 -0.0706  0.1988
 3879SOL    HW121846   8.176   1.307   1.134  0.4306 -1.7297  0.4399
 3879SOL    HW221847   8.289   1.367   1.236  1.1451 -1.7874 -0.3140
 3880SOL     OW21848   4.495   7.923   2.003 -0.3409  0.6917  0.0453
 3880SOL    HW121849   4.484   8.022   2.003  1.0591  0.8660 -0.7740
 3880SOL    HW221850   4.466   7.885   2.091  1.5238  2.1045  1.2973
 3881SOL     OW21851   3.379   5.056   3.149  0.0049 -0.5194 -0.0245
 3881SOL    HW121852   3.357   4.973   3.098  0.5591 -0.4350 -0.4012
 3881SOL    HW221853   3.442   5.034   3.223 -0.2753 -0.5279  0.2126
 3882SOL     OW21854   0.239   6.480   0.316  0.7107 -0.1618  0.2369
 3882SOL    HW121855   0.229   6.574   0.351 -0.1461 -0.2736  0.3110
 3882SOL    HW221856   0.336   6.457   0.310  0.9248  0.6641  0.4021
 3883SOL     OW21857   4.029   3.114   0.628  0.3211 -0.0534 -0.3309
 3883SOL    HW121858   3.987   3.041   0.681  1.1356 -0.0696  0.2999
 3883SOL    HW221859   4.062   3.077   0.541 -0.9218 -0.0468 -0.8230
 3884SOL     OW21860   1.493   7.373   0.269  0.0366 -0.3235 -0.7644
 3884SOL    HW121861   1.406   7.348   0.311 -0.6351  2.1726 -0.6130
 3884SOL    HW221862   1.552   7.416   0.337  0.4951  0.0676 -1.3997
 3885SOL     OW21863   2.282   8.867   1.356 -0.1388 -0.1866  0.7397
 3885SOL    HW121864   2.370   8.831   1.325 -0.0697 -0.5459  1.3674
 3885SOL    HW221865   2.283   8.879   1.455  0.5032  3.2615  0.3974
 3886SOL     OW21866   9.335   5.102   0.029 -0.4526  0.1258 -0.5810
 3886SOL    HW121867   9.267   5.029   0.030 -0.9582  0.5721 -1.2533
 3886SOL    HW221868   9.420   5.071   0.072 -1.0935 -0.4266  0.2796
 3887SOL     OW21869   1.145   2.636   2.370  0.1291  0.2323  0.0430
 3887SOL    HW121870   1.230   2.584   2.369 -0.0609 -0.0867  0.4173
 3887SOL    HW221871   1.164   2.729   2.403  0.4573  0.3856 -0.5800
 3888SOL     OW21872   1.907   6.267   0.179  0.7735 -0.3735 -0.1814
 3888SOL    HW121873   1.895   6.228   0.088 -0.0056  0.1854 -0.3313
 3888SOL    HW221874   1.998   6.245   0.213  0.8222 -1.1811 -0.8037
 3889SOL     OW21875   1.009   4.132   2.528  0.2949 -0.6456 -0.1088
 3889SOL    HW121876   1.070   4.163   2.455 -0.5008 -1.0838 -0.9674
 3889SOL    HW221877   1.061   4.077   2.593  1.5034  1.6467  0.8989
 3890SOL     OW21878   0.896   5.290   1.446 -0.6464  0.0862  0.2914
 3890SOL    HW121879   0.871   5.274   1.350  0.8044  0.1427 -0.1019
 3890SOL    HW221880   0.813   5.302   1.500 -1.5381 -1.3508 -0.7162
 3891SOL     OW21881   2.472   5.525   2.516  0.0897  0.5341  0.2611
 3891SOL    HW121882   2.505   5.499   2.425 -1.6879 -0.4945 -0.1095
 3891SOL    HW221883   2.524   5.475   2.586  1.6853  1.5754 -0.1429
 3892SOL     OW21884   1.337   1.077   1.590  0.0864  0.0683 -0.4614
 3892SOL    HW121885   1.327   1.167   1.632 -1.0648 -0.1869 -0.1618
 3892SOL    HW221886   1.270   1.015   1.629  3.0226 -1.8507  1.7454
 3893SOL     OW21887   1.136   9.986   0.915 -0.2287 -0.1217 -0.0305
 3893SOL    HW121888   1.113  10.052   0.986  1.5077 -0.9861  1.3607
 3893SOL    HW221889   1.087  10.010   0.831 -0.5547  2.2284  0.7841
 3894SOL     OW21890   1.547   1.226   0.375 -0.2430 -0.7234  0.6594
 3894SOL    HW121891   1.476   1.156   0.364  0.7432 -1.5724 -0.4585
 3894SOL    HW221892   1.509   1.315   0.349 -1.6351 -0.7488  2.5172
 3895SOL     OW21893   1.908   4.035   1.707 -0.0650  0.3091  0.7420
 3895SOL    HW121894   1.848   4.086   1.646  1.9816 -0.8878 -2.3479
 3895SOL    HW221895   1.866   3.947   1.730  0.2215 -0.2673 -0.9218
 3896SOL     OW21896   8.537   4.663   0.801  0.9848 -0.0755  0.3909
 3896SOL    HW121897   8.467   4.724   0.764  1.1879  0.1620  0.3965
 3896SOL    HW221898   8.622   4.713   0.814  1.2303 -0.4214  0.1487
 3897SOL     OW21899   9.373   2.514   2.311 -0.0226 -0.3982 -0.0097
 3897SOL    HW121900   9.397   2.531   2.406  1.0499 -0.1456 -0.3191
 3897SOL    HW221901   9.287   2.559   2.289  0.4037  0.6564  0.4766
 3898SOL     OW21902   3.231   9.758   3.270 -0.4653 -0.2220  0.1513
 3898SOL    HW121903   3.162   9.830   3.264  1.5951  1.9262  1.2059
 3898SOL    HW221904   3.251   9.739   3.367  2.8141  1.6266 -0.1022
 3899SOL     OW21905   3.171   1.470   2.442 -0.4763 -0.3508  0.1505
 3899SOL    HW121906   3.201   1.411   2.367 -0.6028 -0.5178  0.2310
 3899SOL    HW221907   3.137   1.557   2.405 -0.3502 -0.3542  0.0282
 3900SOL     OW21908   0.897   0.541   2.685 -0.0092  0.2552  0.3380
 3900SOL    HW121909   0.971   0.608   2.685  0.5578 -0.3693  0.1877
 3900SOL    HW221910   0.902   0.486   2.768 -0.0746 -0.0381  0.1481
 3901SOL     OW21911   0.132   4.173   2.515 -0.5434 -0.3583 -0.1233
 3901SOL    HW121912   0.134   4.117   2.598 -1.4712  0.6587  0.6181
 3901SOL    HW221913   0.180   4.259   2.532  0.6499 -0.8073 -1.1638
 3902SOL     OW21914   9.544   1.738   2.817  0.0333 -0.0989 -0.1588
 3902SOL    HW121915   9.581   1.806   2.753 -0.9202 -0.0759 -0.6987
 3902SOL    HW221916   9.469   1.689   2.773 -1.4483  0.7700  1.3595
 3903SOL     OW21917   0.108   3.213   2.019  0.0208 -0.1112 -0.4587
 3903SOL    HW121918   0.135   3.279   2.089 -1.6292 -0.7713  0.8332
 3903SOL    HW221919   0.009   3.202   2.019  0.1745 -1.7845 -1.3941
 3904SOL     OW21920   1.102   2.061   2.457  0.0611  0.2083 -0.1177
 3904SOL    HW121921   1.199   2.075   2.476 -0.8016  0.6677  4.3086
 3904SOL    HW221922   1.061   2.147   2.427  0.2882  0.9073  1.5324
 3905SOL     OW21923   4.168   7.330   2.895  0.2084 -0.6117  0.3181
 3905SOL    HW121924   4.259   7.373   2.898 -1.4811  3.1310  0.2481
 3905SOL    HW221925   4.149   7.285   2.983  1.4033  0.0943  0.9499
 3906SOL     OW21926   0.164   0.986   3.343  0.1289  0.0332 -0.0151
 3906SOL    HW121927   0.096   0.912   3.341 -0.9646  1.0435 -1.4910
 3906SOL    HW221928   0.120   1.071   3.315  1.6003  1.0696  0.7917
 3907SOL     OW21929   8.788   5.229   0.924 -0.1621  0.3050  0.1122
 3907SOL    HW121930   8.694   5.223   0.892  0.0372  1.3337 -0.6898
 3907SOL    HW221931   8.792   5.203   1.021 -1.3288  0.6728  0.2678
 3908SOL     OW21932   9.366   4.937   0.989 -0.6295  0.4861 -0.6477
 3908SOL    HW121933   9.411   4.906   0.905 -1.6311  1.2052 -1.4573
 3908SOL    HW221934   9.364   5.037   0.990  3.6442  0.6586  2.4876
 3909SOL     OW21935   1.166   7.719   0.612  0.2438  0.1562 -0.3150
 3909SOL    HW121936   1.172   7.624   0.642  1.7717 -0.4735 -2.5231
 3909SOL    HW221937   1.188   7.779   0.689 -0.4112 -1.2596  1.0111
 3910SOL     OW21938   9.541   9.900   3.271  0.0691  0.5984  0.1182
 3910SOL    HW121939   9.525   9.929   3.366  0.4147 -0.7066  0.5878
 3910SOL    HW221940   9.456   9.910   3.219 -0.4147  0.3226  0.8407
 3911SOL     OW21941   2.163   9.729   0.762  0.4472 -0.1227 -0.3850
 3911SOL    HW121942   2.209   9.807   0.721 -0.9262  0.7326 -0.3384
 3911SOL    HW221943   2.121   9.756   0.848  0.2724 -1.0060 -0.1834
 3912SOL     OW21944   3.866   7.506   2.142 -1.0078  0.5807 -0.3957
 3912SOL    HW121945   3.836   7.562   2.219  0.4808  1.1098 -0.1852
 3912SOL    HW221946   3.937   7.443   2.172 -0.8791  0.3361 -1.1923
 3913SOL     OW21947   2.114   6.203   2.848  0.6254  0.5118  0.3336
 3913SOL    HW121948   2.056   6.279   2.879  0.4017  0.2338  0.6049
 3913SOL    HW221949   2.120   6.204   2.748  0.0036  0.4413  0.2885
 3914SOL     OW21950   9.123   3.341   0.148  0.3680 -0.8478 -0.4948
 3914SOL    HW121951   9.115   3.375   0.242  2.1109 -1.9165  0.0711
 3914SOL    HW221952   9.073   3.254   0.140 -0.8333 -0.1244 -0.8994
 3915SOL     OW21953   8.949   3.998   0.456  0.1381  0.1332  0.1019
 3915SOL    HW121954   8.882   4.065   0.488 -1.8994 -1.9055  0.2715
 3915SOL    HW221955   8.979   3.941   0.533  1.8823  0.8331 -0.0277
 3916SOL     OW21956   1.132   0.703   2.663  0.6828  0.4638  0.1526
 3916SOL    HW121957   1.206   0.652   2.618  0.9752 -0.2632  1.4530
 3916SOL    HW221958   1.156   0.800   2.665  0.4060  0.5922 -1.7704
 3917SOL     OW21959   1.786   9.977   2.651 -0.0752  0.1522  0.0887
 3917SOL    HW121960   1.692   9.977   2.684  0.5307 -1.8125  1.8991
 3917SOL    HW221961   1.846  10.018   2.720  0.8471 -1.6799  0.4031
 3918SOL     OW21962   4.233   7.727   3.320 -0.0653  0.2478  0.3178
 3918SOL    HW121963   4.166   7.708   3.248 -1.2678  2.8622  0.7101
 3918SOL    HW221964   4.213   7.669   3.399 -0.8864 -0.1412 -0.1669
 3919SOL     OW21965   2.898   3.886   0.627  0.3998 -0.3528 -0.0990
 3919SOL    HW121966   2.827   3.905   0.558  0.0620 -1.5762 -0.0926
 3919SOL    HW221967   2.958   3.966   0.634 -0.8726  0.6465 -0.2249
 3920SOL     OW21968   8.724   5.000   1.607 -0.8434  0.0024  0.3610
 3920SOL    HW121969   8.791   4.971   1.539 -1.0586 -1.7055  0.8657
 3920SOL    HW221970   8.714   4.929   1.676 -2.3636  0.7260  0.8956
 3921SOL     OW21971   4.327   4.420   0.339  0.1285 -0.1393  0.4572
 3921SOL    HW121972   4.401   4.412   0.406  1.9681  0.4771 -1.4417
 3921SOL    HW221973   4.362   4.396   0.249 -1.7360  1.2457 -0.6494
 3922SOL     OW21974   1.422   4.477   2.053  0.3817  0.4473 -0.0469
 3922SOL    HW121975   1.465   4.399   2.007  0.1739  0.4237 -0.2036
 3922SOL    HW221976   1.414   4.457   2.151 -2.1829 -0.8914 -0.4929
 3923SOL     OW21977   2.040   9.581   3.233  0.5138 -0.6877  0.3572
 3923SOL    HW121978   2.061   9.661   3.289 -0.0177 -0.3425  0.0634
 3923SOL    HW221979   1.941   9.563   3.235  0.2340  0.4011 -1.9161
 3924SOL     OW21980   0.725   7.027   2.786  0.2755 -0.1881 -0.0486
 3924SOL    HW121981   0.662   7.100   2.812 -0.6366 -0.8861 -0.2708
 3924SOL    HW221982   0.748   7.036   2.689  1.7988  1.0097  0.4000
 3925SOL     OW21983   0.114   4.936   2.703  0.2248 -1.1463  0.1420
 3925SOL    HW121984   0.016   4.917   2.705  0.0737 -0.4030  0.1405
 3925SOL    HW221985   0.136   4.992   2.623  0.9073 -2.6323 -0.7251
 3926SOL     OW21986   8.269   4.803   0.437 -0.1746  0.2760  0.2541
 3926SOL    HW121987   8.299   4.790   0.531 -0.5497 -0.4827  0.2700
 3926SOL    HW221988   8.331   4.866   0.391  0.2179  0.3674  0.9027
 3927SOL     OW21989   1.019   3.393   0.840 -0.2830 -0.1236  0.2329
 3927SOL    HW121990   1.108   3.395   0.795  1.0234 -0.6301  2.6841
 3927SOL    HW221991   1.028   3.431   0.933 -2.4903 -0.7145  0.7123
 3928SOL     OW21992   7.926   0.596   2.368 -0.5611  0.0902 -0.1883
 3928SOL    HW121993   7.904   0.581   2.464  0.6566 -2.4282 -0.2790
 3928SOL    HW221994   7.929   0.509   2.320  2.1043  0.9977 -1.7949
 3929SOL     OW21995   3.344   4.101   1.265  0.4788  0.2834  0.2704
 3929SOL    HW121996   3.249   4.071   1.255  0.0684  1.7111 -0.1091
 3929SOL    HW221997   3.354   4.194   1.232  1.8426  0.4474  1.0977
 3930SOL     OW21998   8.867   0.180   0.761 -0.0259  0.0063 -0.3515
 3930SOL    HW121999   8.937   0.131   0.813  0.3619  2.2556  1.3229
 3930SOL    HW222000   8.783   0.185   0.815 -1.2511 -1.9105 -1.9972
 3931SOL     OW22001   1.781   6.482   0.105 -0.0171 -0.5034 -0.2297
 3931SOL    HW122002   1.824   6.406   0.154 -2.7790 -2.1765 -0.3154
 3931SOL    HW222003   1.690   6.500   0.144  0.4127  2.5113 -0.4782
 3932SOL     OW22004   2.802   7.886   3.322  0.1221  0.1740 -0.2337
 3932SOL    HW122005   2.865   7.858   3.249 -0.2413  0.7806 -0.7863
 3932SOL    HW222006   2.727   7.940   3.282  0.5227  1.4587  0.7287
 3933SOL     OW22007   9.237   1.903   0.808 -0.0737 -0.0281  0.0220
 3933SOL    HW122008   9.282   1.875   0.723 -1.0905  1.0200 -0.8901
 3933SOL    HW222009   9.302   1.902   0.883  1.4513  1.4278 -1.2567
 3934SOL     OW22010   2.183   0.713   1.081  0.4294  0.2768  0.1845
 3934SOL    HW122011   2.253   0.768   1.126 -0.6492  0.3680  1.7988
 3934SOL    HW222012   2.225   0.634   1.038  1.4866  0.0397  1.6080
 3935SOL     OW22013   1.073   5.134   0.079  0.1970 -0.1084 -0.2384
 3935SOL    HW122014   1.072   5.205   0.008  3.2143  0.6912  0.4507
 3935SOL    HW222015   1.158   5.081   0.073 -1.1240 -2.3761  0.5418
 3936SOL     OW22016   9.250   4.094   0.528  0.0371 -0.1642  0.4869
 3936SOL    HW122017   9.206   4.177   0.562 -1.4554 -0.7938  0.0985
 3936SOL    HW222018   9.197   4.056   0.453  2.6337  0.5298 -1.8128
 3937SOL     OW22019   1.827   7.900   1.239 -0.0861 -0.3707 -0.3870
 3937SOL    HW122020   1.880   7.843   1.301 -0.2836  0.8223  0.8956
 3937SOL    HW222021   1.788   7.843   1.166  2.2154 -1.4044 -0.8514
 3938SOL     OW22022   3.017   7.367   1.202 -0.8740 -0.4300 -0.4452
 3938SOL    HW122023   2.975   7.446   1.246 -0.6350 -2.3076  3.3722
 3938SOL    HW222024   2.946   7.305   1.170 -1.0331  0.4077 -1.7643
 3939SOL     OW22025   1.552   4.002   3.388  0.4477  0.0222 -0.3355
 3939SOL    HW122026   1.484   4.011   3.461 -0.0141  0.2757 -0.7962
 3939SOL    HW222027   1.523   4.054   3.308 -0.0831 -1.9679 -1.4691
 3940SOL     OW22028   0.789   8.516   2.510 -0.4592  0.7461  0.1822
 3940SOL    HW122029   0.740   8.589   2.461  2.4718  2.3350 -0.4857
 3940SOL    HW222030   0.879   8.549   2.537  2.1445 -3.5592 -2.6806
 3941SOL     OW22031   3.321   5.162   0.435 -0.9240  0.4815 -0.4607
 3941SOL    HW122032   3.284   5.079   0.476 -0.2866  0.4601  0.0891
 3941SOL    HW222033   3.251   5.233   0.434 -0.3811  1.0897  2.4551
 3942SOL     OW22034   1.513   5.255   2.471  0.3008 -0.5460 -0.2002
 3942SOL    HW122035   1.533   5.157   2.480  0.5314 -0.3398  1.6365
 3942SOL    HW222036   1.598   5.305   2.457  0.6148 -0.2028  2.7328
 3943SOL     OW22037   1.274   5.305   1.764 -0.0724  0.2769 -0.1433
 3943SOL    HW122038   1.214   5.309   1.684 -1.0570 -0.7784  0.5144
 3943SOL    HW222039   1.354   5.250   1.743  0.3464  1.1286 -0.8170
 3944SOL     OW22040   1.523   3.889   1.023  0.3584 -0.9151  0.1235
 3944SOL    HW122041   1.511   3.988   1.031  2.9048 -0.6517  1.0043
 3944SOL    HW222042   1.453   3.852   0.962  1.2021  1.8773 -2.6602
 3945SOL     OW22043   3.794   8.326   2.412 -0.4040 -0.7645 -0.4997
 3945SOL    HW122044   3.890   8.298   2.414 -0.2352 -0.1696  0.3020
 3945SOL    HW222045   3.766   8.356   2.504 -1.4872 -1.3526 -0.6233
 3946SOL     OW22046   4.545   9.545   2.505  0.2018 -0.5404 -0.0955
 3946SOL    HW122047   4.538   9.512   2.599  0.0860 -1.8961 -0.5631
 3946SOL    HW222048   4.641   9.546   2.478  0.3602  1.2159  0.5019
 3947SOL     OW22049   0.886   4.697   3.229 -0.5449 -0.1608  0.0844
 3947SOL    HW122050   0.930   4.733   3.146 -0.4739  1.5301  0.8440
 3947SOL    HW222051   0.810   4.757   3.255 -1.9794 -1.9163 -0.0212
 3948SOL     OW22052   2.246   5.051   1.992  0.3161  0.2913  0.5510
 3948SOL    HW122053   2.286   4.983   1.931  1.4157  0.4613  1.0850
 3948SOL    HW222054   2.223   5.008   2.079 -3.7201 -0.6108 -0.8166
 3949SOL     OW22055   0.175   5.082   2.479 -0.7336  0.1478  0.4747
 3949SOL    HW122056   0.203   5.173   2.446 -1.5293  0.4304  0.5681
 3949SOL    HW222057   0.220   5.012   2.425  1.6781  0.5700  1.8559
 3950SOL     OW22058   4.269   1.497   2.229 -0.2975  0.1028  0.5388
 3950SOL    HW122059   4.249   1.509   2.326 -0.2080 -0.4674  0.6325
 3950SOL    HW222060   4.340   1.427   2.219  0.1891  0.6569  0.1045
 3951SOL     OW22061   4.249   8.901   3.203  0.0376  0.6414  0.0293
 3951SOL    HW122062   4.324   8.879   3.266  1.3603  1.5769 -1.1712
 3951SOL    HW222063   4.203   8.817   3.175  1.1583 -0.0356  0.1748
 3952SOL     OW22064   9.066   1.099   2.197 -0.3426  0.5861  0.1417
 3952SOL    HW122065   9.074   1.161   2.119  1.9140 -0.6588 -0.6727
 3952SOL    HW222066   8.984   1.043   2.187  0.2597 -0.0180 -1.7255
 3953SOL     OW22067   1.156   9.112   0.979  0.7578 -0.2307 -0.5040
 3953SOL    HW122068   1.159   9.187   0.913  0.6078  0.4037  0.2075
 3953SOL    HW222069   1.104   9.035   0.940  0.0702  0.4092 -0.8600
 3954SOL     OW22070   1.742   7.094   2.356  0.4426 -0.5102  0.7592
 3954SOL    HW122071   1.648   7.128   2.356  0.8775  0.7242 -0.2489
 3954SOL    HW222072   1.748   7.013   2.297 -0.0907 -0.9206  1.2582
 3955SOL     OW22073   2.122   2.820   0.650 -0.3572  0.0749 -0.1237
 3955SOL    HW122074   2.095   2.912   0.620  2.7717  0.9146 -0.6467
 3955SOL    HW222075   2.069   2.752   0.601 -1.6396  1.5973 -0.9012
 3956SOL     OW22076   2.946   2.449   2.777  0.4007 -0.2113 -0.3488
 3956SOL    HW122077   2.896   2.386   2.717  0.2503 -0.2634 -0.1720
 3956SOL    HW222078   2.899   2.537   2.779  0.1172 -0.3684  0.0898
 3957SOL     OW22079   0.849   0.762   3.187 -0.7209 -0.2875 -0.6853
 3957SOL    HW122080   0.936   0.753   3.235 -0.1273  2.0073 -1.2888
 3957SOL    HW222081   0.840   0.689   3.119  1.1562  0.0061 -1.2646
 3958SOL     OW22082   2.044   2.838   0.152 -0.5700  0.4273 -0.1032
 3958SOL    HW122083   2.092   2.758   0.188  0.5544  0.3997 -1.5832
 3958SOL    HW222084   2.015   2.897   0.227  0.8430 -0.0924  0.8712
 3959SOL     OW22085   2.915   2.206   0.261  0.1624 -0.3636 -0.0454
 3959SOL    HW122086   2.953   2.128   0.312  3.3172  1.3051  0.2815
 3959SOL    HW222087   2.837   2.243   0.311  0.1960 -1.7536  1.0817
 3960SOL     OW22088   0.948   9.967   1.230  0.3430 -0.0943 -0.1911
 3960SOL    HW122089   0.873  10.032   1.218 -1.6102 -2.3350 -0.6557
 3960SOL    HW222090   1.022  10.010   1.280 -1.2855  2.1801  0.3526
 3961SOL     OW22091   9.175   1.493   2.871 -0.1700  0.6990 -0.1951
 3961SOL    HW122092   9.251   1.552   2.845  1.4544 -1.2321  0.0466
 3961SOL    HW222093   9.192   1.400   2.840 -1.1102 -0.3585  2.2568
 3962SOL     OW22094   1.751   8.847   2.061 -0.0314  0.6689  0.2881
 3962SOL    HW122095   1.778   8.900   2.142  0.8559 -1.3338  1.3311
 3962SOL    HW222096   1.805   8.876   1.982  0.3795  1.3784  0.8298
 3963SOL     OW22097   2.214   2.896   1.119  0.1760 -0.5610 -0.7415
 3963SOL    HW122098   2.275   2.971   1.146  0.2777 -1.0619  0.4786
 3963SOL    HW222099   2.121   2.915   1.153 -0.1856 -0.1711 -1.9223
 3964SOL     OW22100   3.196   3.234   1.016 -0.3088  0.0035 -0.1105
 3964SOL    HW122101   3.142   3.260   0.936 -1.0315  0.7144  0.5969
 3964SOL    HW222102   3.159   3.280   1.097 -0.4651 -1.8386  0.8699
 3965SOL     OW22103   1.066   3.540   0.543  0.1003 -0.4189  0.8944
 3965SOL    HW122104   1.013   3.599   0.603  0.3122  1.7260 -0.9475
 3965SOL    HW222105   1.006   3.472   0.501 -1.1592  1.6990 -0.8204
 3966SOL     OW22106   8.350   3.768   0.744  0.0474 -0.6690  0.1100
 3966SOL    HW122107   8.279   3.799   0.807 -0.7071 -0.3022 -0.9046
 3966SOL    HW222108   8.310   3.752   0.654  1.6135  1.5985 -1.0484
 3967SOL     OW22109   8.297   3.385   2.693  0.2827  0.6480  0.3092
 3967SOL    HW122110   8.314   3.332   2.777 -1.8894  1.2077  1.1383
 3967SOL    HW222111   8.278   3.322   2.618 -0.7378  0.1908  0.9361
 3968SOL     OW22112   3.461   8.116   2.869  0.5228  0.3195  0.2709
 3968SOL    HW122113   3.396   8.099   2.794  2.2984  1.4363 -1.5763
 3968SOL    HW222114   3.450   8.045   2.938 -1.1795 -0.7570 -1.0403
 3969SOL     OW22115   3.189   6.467   3.160  0.1536 -0.0891  0.5181
 3969SOL    HW122116   3.102   6.451   3.114 -0.3028 -0.9223  1.6354
 3969SOL    HW222117   3.242   6.535   3.109 -1.1618  0.4615 -0.1477
 3970SOL     OW22118   2.716   1.447   0.773 -0.3105 -0.4059  0.3738
 3970SOL    HW122119   2.799   1.503   0.769 -0.1659 -0.6434  0.0305
 3970SOL    HW222120   2.635   1.507   0.776 -0.2324 -0.1648 -1.4846
 3971SOL     OW22121   9.236   4.878   0.415  0.1617 -0.5463  0.3792
 3971SOL    HW122122   9.199   4.849   0.504  1.8198  1.3964  1.7525
 3971SOL    HW222123   9.332   4.902   0.425  0.5705 -1.0296 -2.1446
 3972SOL     OW22124   1.530   0.807   0.146  0.0741  0.5164  0.5713
 3972SOL    HW122125   1.622   0.847   0.142  0.0489  0.4335 -0.9571
 3972SOL    HW222126   1.537   0.712   0.179  0.6051  0.3040 -0.1468
 3973SOL     OW22127   8.159   0.794   2.771  0.6112 -0.7972  0.5633
 3973SOL    HW122128   8.185   0.821   2.678  0.9042  0.2556  0.9438
 3973SOL    HW222129   8.231   0.821   2.835  0.2363 -1.1776  1.1459
 3974SOL     OW22130   2.585   7.764   0.432  0.1461 -0.3730  0.4288
 3974SOL    HW122131   2.660   7.716   0.386 -0.5997 -1.4403  0.2980
 3974SOL    HW222132   2.515   7.787   0.365  0.0457  0.0104  0.6671
 3975SOL     OW22133   4.838   0.687   2.626 -0.0517  0.3608 -0.2135
 3975SOL    HW122134   4.871   0.781   2.619 -0.3165  0.4170 -0.7831
 3975SOL    HW222135   4.859   0.639   2.541  2.4464 -0.8708  1.0619
 3976SOL     OW22136   9.122   2.670   2.338 -0.2831  0.3126  0.3352
 3976SOL    HW122137   9.066   2.631   2.411  0.6658 -0.1420  0.8311
 3976SOL    HW222138   9.075   2.659   2.251 -0.6509 -0.7113  0.6551
 3977SOL     OW22139   9.624   3.962   0.768  0.3606  0.7088 -0.0727
 3977SOL    HW122140   9.546   3.916   0.725 -0.0313 -1.2982  2.6024
 3977SOL    HW222141   9.705   3.950   0.711 -0.7915  0.9012 -1.7949
 3978SOL     OW22142   3.870   1.159   0.754 -0.3771  0.7800  0.4723
 3978SOL    HW122143   3.882   1.066   0.790  2.4291  1.5890  1.7646
 3978SOL    HW222144   3.785   1.164   0.702 -1.0517 -2.2587  1.1980
 3979SOL     OW22145   1.015   0.112   0.689  0.1201 -0.1386 -0.7063
 3979SOL    HW122146   1.016   0.179   0.615 -0.2352  2.3291  1.4443
 3979SOL    HW222147   0.920   0.088   0.711  0.1689  0.1185 -0.2044
 3980SOL     OW22148   0.673   8.689   2.297  0.2020  0.3709 -0.0838
 3980SOL    HW122149   0.668   8.618   2.227 -1.9533  0.1563  0.2545
 3980SOL    HW222150   0.720   8.769   2.260  2.5771 -1.1662 -0.4978
 3981SOL     OW22151   8.562   1.000   0.675 -0.2653  0.2488 -0.0724
 3981SOL    HW122152   8.600   0.914   0.643  1.3245  1.3617 -1.2710
 3981SOL    HW222153   8.623   1.075   0.650 -1.9895  1.8203  0.2495
 3982SOL     OW22154   4.138   4.183   2.145 -0.4123  0.5442 -0.1279
 3982SOL    HW122155   4.216   4.232   2.104  0.6578 -1.1222 -0.1280
 3982SOL    HW222156   4.110   4.230   2.228  0.9351  0.8769  0.1546
 3983SOL     OW22157   0.280   7.398   0.115  0.7688 -0.0860  0.3333
 3983SOL    HW122158   0.208   7.330   0.110 -0.5048  1.1791  1.1928
 3983SOL    HW222159   0.275   7.447   0.202  2.1052  0.6286  0.0332
 3984SOL     OW22160   3.908   8.759   1.274  0.6009 -0.6257 -0.0545
 3984SOL    HW122161   3.970   8.813   1.330  2.2366  0.7418 -3.1084
 3984SOL    HW222162   3.943   8.665   1.267 -0.0786 -1.0475  1.8675
 3985SOL     OW22163   1.900   6.656   3.387 -0.2638 -0.9904 -0.0145
 3985SOL    HW122164   1.823   6.707   3.347 -0.1614 -1.2367 -0.5303
 3985SOL    HW222165   1.865   6.576   3.435 -0.2218 -1.8991 -1.4918
 3986SOL     OW22166   3.377   1.921   0.747 -0.2184 -0.4073  0.0847
 3986SOL    HW122167   3.326   1.949   0.665 -1.9448  0.2509  1.3687
 3986SOL    HW222168   3.475   1.931   0.729 -0.6258  1.4346 -1.3141
 3987SOL     OW22169   0.339   1.958   0.511  0.0904  0.0166  0.6753
 3987SOL    HW122170   0.245   1.990   0.517  0.0007  0.2364 -1.4801
 3987SOL    HW222171   0.398   2.033   0.480  0.1818 -1.3494 -2.6199
 3988SOL     OW22172   0.649   1.098   2.796  0.3490 -0.5887 -0.6311
 3988SOL    HW122173   0.590   1.030   2.840  0.1076 -0.0546 -0.1170
 3988SOL    HW222174   0.715   1.052   2.737 -0.1523 -1.2328 -0.6911
 3989SOL     OW22175   0.089   9.494   1.061  0.0532 -0.5283  0.2598
 3989SOL    HW122176   0.180   9.452   1.060  0.6088  0.6491 -1.1081
 3989SOL    HW222177   0.075   9.541   1.149  0.3575 -1.5623  0.8677
 3990SOL     OW22178   9.532   9.300   1.002 -0.0971 -0.1711 -0.1577
 3990SOL    HW122179   9.527   9.390   1.045 -1.0149 -0.4266  0.2820
 3990SOL    HW222180   9.537   9.230   1.073  0.2581 -0.4904 -0.4955
 3991SOL     OW22181   0.322   1.594   1.789  0.9536  0.7928 -0.9385
 3991SOL    HW122182   0.347   1.564   1.881  1.4497 -1.0976 -1.6502
 3991SOL    HW222183   0.270   1.679   1.794 -1.6925 -0.8623  1.3185
 3992SOL     OW22184   2.325   3.586   0.256 -0.2700 -0.1859  0.4266
 3992SOL    HW122185   2.411   3.587   0.308 -0.1150  1.1830  0.1688
 3992SOL    HW222186   2.248   3.592   0.319 -0.1422 -0.3101  0.5971
 3993SOL     OW22187   1.918   2.858   1.311 -0.2747 -0.0514 -0.6544
 3993SOL    HW122188   1.952   2.764   1.312  0.7351  0.3250  0.1819
 3993SOL    HW222189   1.830   2.861   1.262 -0.2815 -1.4126 -0.7309
 3994SOL     OW22190   1.332   0.912   2.590  0.1859 -0.7207  0.9924
 3994SOL    HW122191   1.408   0.925   2.654 -1.0774  0.6468  2.2783
 3994SOL    HW222192   1.313   0.998   2.544  1.5520 -1.8715 -1.8268
 3995SOL     OW22193   3.515   6.879   2.752 -0.6228 -0.1847  0.2382
 3995SOL    HW122194   3.612   6.897   2.770  0.2439 -3.0997 -1.0958
 3995SOL    HW222195   3.467   6.863   2.838  0.4392 -0.2480  0.8260
 3996SOL     OW22196   1.481   2.385   0.062 -0.1330 -0.3654  0.2060
 3996SOL    HW122197   1.481   2.413   0.158 -2.9990  1.6268 -0.2870
 3996SOL    HW222198   1.515   2.461   0.006 -2.3322  0.0240 -0.6541
 3997SOL     OW22199   3.194   8.851   1.481 -0.5420  0.2243  0.2749
 3997SOL    HW122200   3.142   8.788   1.538  1.8340 -1.2084  0.9373
 3997SOL    HW222201   3.283   8.869   1.524  1.4973 -1.2257 -3.1272
 3998SOL     OW22202   8.946   1.039   1.809  0.4809 -0.0351 -0.1155
 3998SOL    HW122203   8.961   1.030   1.711 -0.0495  0.9988 -0.3017
 3998SOL    HW222204   8.870   0.981   1.837 -0.0873  0.5127 -0.5189
 3999SOL     OW22205   0.931   9.205   3.286  0.1421  0.5716 -0.0330
 3999SOL    HW122206   0.997   9.165   3.223  0.5296 -1.0282  1.3667
 3999SOL    HW222207   0.860   9.253   3.233  1.9089  1.5871 -1.5726
 4000SOL     OW22208   9.329   2.829   3.329 -0.7435 -0.5320  0.0848
 4000SOL    HW122209   9.344   2.733   3.351 -0.9655 -0.9579 -1.5307
 4000SOL    HW222210   9.250   2.837   3.268  0.7683  0.3974 -1.8197
 4001SOL     OW22211   3.628   5.574   0.037  0.6781 -0.0338 -0.7376
 4001SOL    HW122212   3.640   5.608  -0.057  0.7196  0.2193 -0.6412
 4001SOL    HW222213   3.546   5.615   0.077  0.7307 -0.0457 -0.6183
 4002SOL     OW22214   1.550   8.203   1.017  0.0062  0.0625 -0.6030
 4002SOL    HW122215   1.645   8.187   1.047 -0.0760  0.6804  0.0162
 4002SOL    HW222216   1.518   8.289   1.057 -1.5397 -1.1921  0.8975
 4003SOL     OW22217   4.406   7.429   2.880 -0.4076 -0.0201  0.3236
 4003SOL    HW122218   4.505   7.427   2.886 -0.4567  0.5092  1.4246
 4003SOL    HW222219   4.378   7.489   2.804  0.1095 -0.1384  0.0424
 4004SOL     OW22220   9.259   1.211   2.835  0.6962  0.6800 -0.3968
 4004SOL    HW122221   9.200   1.143   2.879  1.5449 -2.2946 -3.6062
 4004SOL    HW222222   9.320   1.252   2.902 -0.5721 -0.9437  1.8060
 4005SOL     OW22223   1.893   5.257   0.628  0.3352 -0.9506  0.1397
 4005SOL    HW122224   1.839   5.172   0.628 -0.1313 -0.6626 -0.8625
 4005SOL    HW222225   1.914   5.283   0.534  2.8741 -1.4545  0.5445
 4006SOL     OW22226   9.938   5.644   3.252 -0.3717 -0.0690  0.1918
 4006SOL    HW122227   9.962   5.732   3.211 -0.8200  0.6403  1.4272
 4006SOL    HW222228   9.851   5.652   3.301 -0.8719 -1.4409 -0.4472
 4007SOL     OW22229   2.605   9.028   2.307 -0.5797 -0.4507 -0.3081
 4007SOL    HW122230   2.506   9.020   2.317 -0.6234 -0.1910 -0.5384
 4007SOL    HW222231   2.629   9.037   2.210 -0.4788  1.4605 -0.1120
 4008SOL     OW22232   1.164   7.702   1.343  0.1986  0.7602  0.2860
 4008SOL    HW122233   1.128   7.641   1.414  1.4537  0.6688  0.8575
 4008SOL    HW222234   1.240   7.658   1.296 -1.7292  0.1191 -2.3423
 4009SOL     OW22235   8.725   1.177   0.563  0.4406  0.8897  0.0697
 4009SOL    HW122236   8.709   1.273   0.541  0.4382  0.6415 -1.0291
 4009SOL    HW222237   8.805   1.169   0.623  0.2161  1.6005  0.4712
 4010SOL     OW22238   3.799   4.241   2.374  0.0412 -0.1687 -0.2898
 4010SOL    HW122239   3.800   4.177   2.452  0.5556  0.6780  0.4061
 4010SOL    HW222240   3.892   4.267   2.351 -0.2417  1.6187  0.5138
 4011SOL     OW22241   1.445   6.730   0.056 -0.1819 -0.9610 -0.3454
 4011SOL    HW122242   1.509   6.804   0.079  0.6977 -1.8462  0.0465
 4011SOL    HW222243   1.403   6.696   0.140 -0.6573 -0.8484 -0.5385
 4012SOL     OW22244   8.757   0.467   1.105  0.1719 -0.7088 -0.1951
 4012SOL    HW122245   8.788   0.371   1.106  0.0230 -0.8328 -2.6105
 4012SOL    HW222246   8.827   0.524   1.063  0.2310  0.2516  1.1787
 4013SOL     OW22247   3.277   8.358   3.080 -0.2210  0.0922  0.3162
 4013SOL    HW122248   3.279   8.458   3.089  2.1033  0.0635  0.4316
 4013SOL    HW222249   3.342   8.318   3.144 -0.4099 -1.4530 -0.4350
 4014SOL     OW22250   4.073   2.058   1.183 -0.3456 -0.1479  0.1762
 4014SOL    HW122251   4.032   1.986   1.127  2.3695 -1.1071 -0.6889
 4014SOL    HW222252   4.091   2.022   1.275 -2.0878  0.5165  0.8034
 4015SOL     OW22253   3.949   7.605   2.538 -0.5400 -0.1093 -0.0728
 4015SOL    HW122254   4.005   7.651   2.607 -0.0953  1.2865 -1.3337
 4015SOL    HW222255   3.886   7.541   2.582  0.8224 -0.3938  1.4983
 4016SOL     OW22256   1.772   3.782   1.773  0.6000 -0.5512 -0.5066
 4016SOL    HW122257   1.746   3.690   1.803 -1.9763 -0.3199 -1.9212
 4016SOL    HW222258   1.693   3.828   1.734  1.6620  2.6012  0.9005
 4017SOL     OW22259   3.635   2.585   1.811 -0.1576 -0.0667  0.2239
 4017SOL    HW122260   3.676   2.511   1.863 -0.0332 -0.2612 -0.1493
 4017SOL    HW222261   3.700   2.660   1.802 -0.1287 -0.0920  0.2239
 4018SOL     OW22262   1.222   1.689   0.962 -0.0680 -0.6157  0.4475
 4018SOL    HW122263   1.204   1.775   1.009  0.7340 -0.6509  0.8209
 4018SOL    HW222264   1.140   1.661   0.912 -0.0341  0.8745 -0.4944
 4019SOL     OW22265   4.020   3.534   0.585  0.0072 -0.7116  0.6070
 4019SOL    HW122266   4.036   3.632   0.582 -2.4041 -0.3198 -1.7347
 4019SOL    HW222267   4.100   3.486   0.549  0.3950  0.5299 -0.2169
 4020SOL     OW22268   2.504   5.877   0.970  0.0883 -0.3415  0.7953
 4020SOL    HW122269   2.470   5.877   1.065  1.9806 -0.2794  1.4924
 4020SOL    HW222270   2.506   5.971   0.936 -1.6211 -0.4655  0.2899
 4021SOL     OW22271   0.281   5.105   2.116 -0.0423  0.1467 -0.0698
 4021SOL    HW122272   0.329   5.161   2.048 -0.3293 -0.8168 -1.0802
 4021SOL    HW222273   0.188   5.140   2.128 -0.6418 -0.8193 -1.6211
 4022SOL     OW22274   8.837   0.311   0.042 -0.6412  0.1689 -0.0260
 4022SOL    HW122275   8.789   0.361   0.114  0.8854 -0.1738  1.2630
 4022SOL    HW222276   8.808   0.345  -0.047 -2.9004  0.2806  0.7278
 4023SOL     OW22277   3.321   1.856   0.207 -0.0380 -0.5832  0.1551
 4023SOL    HW122278   3.283   1.805   0.284  0.7431  1.1650  1.7147
 4023SOL    HW222279   3.413   1.889   0.230  0.2705 -0.1477 -1.5734
 4024SOL     OW22280   1.550   2.555   2.232  0.8205  0.2767 -0.3395
 4024SOL    HW122281   1.555   2.654   2.217 -2.4902  0.4191 -0.9355
 4024SOL    HW222282   1.562   2.508   2.144  1.9437  0.1530 -0.1263
 4025SOL     OW22283   2.325   8.738   0.577  0.7050  0.8230  0.2746
 4025SOL    HW122284   2.318   8.805   0.651 -1.5742  0.6536  0.2532
 4025SOL    HW222285   2.273   8.771   0.498 -1.3267 -1.3962  0.6217
 4026SOL     OW22286   1.825   2.043   2.629  0.0403 -0.2019  0.0704
 4026SOL    HW122287   1.877   2.062   2.712 -0.4329 -0.9782  0.5412
 4026SOL    HW222288   1.868   2.090   2.552  0.2687  0.8173  0.8128
 4027SOL     OW22289   1.077   4.591   2.779 -0.2831 -0.0049 -1.0053
 4027SOL    HW122290   1.107   4.584   2.874 -1.1721  0.1537 -0.7080
 4027SOL    HW222291   1.111   4.676   2.740 -1.0589  0.5880 -0.4053
 4028SOL     OW22292   9.648   2.234   0.852 -0.2094  0.0686  0.3331
 4028SOL    HW122293   9.559   2.212   0.891 -0.4455  0.8993  0.2545
 4028SOL    HW222294   9.704   2.279   0.921 -0.8032  1.9968 -0.4300
 4029SOL     OW22295   4.200   2.811   1.945  0.1704 -0.6277 -0.5854
 4029SOL    HW122296   4.248   2.775   1.864 -1.1486 -2.4309 -0.5971
 4029SOL    HW222297   4.125   2.870   1.915  1.2748  0.7875 -0.6047
 4030SOL     OW22298   8.142   3.572   1.230 -0.1074  0.1186 -0.1511
 4030SOL    HW122299   8.192   3.488   1.211  0.4489  0.2621  0.6135
 4030SOL    HW222300   8.111   3.572   1.325  0.7281  1.1717  0.1462
 4031SOL     OW22301   6.637   0.182   2.212 -0.0942  0.4334 -0.6599
 4031SOL    HW122302   6.601   0.275   2.207 -1.2477  0.0750  0.5638
 4031SOL    HW222303   6.666   0.163   2.306  4.4926  1.1102 -1.8067
 4032SOL     OW22304   1.864   6.298   1.424 -0.2068  0.5910 -0.8746
 4032SOL    HW122305   1.930   6.349   1.478 -1.2525 -0.4789  1.4872
 4032SOL    HW222306   1.789   6.358   1.398 -0.9334  0.5721  1.0470
 4033SOL     OW22307   1.503   0.236   0.902 -0.4260 -0.2550 -0.2375
 4033SOL    HW122308   1.569   0.169   0.935 -0.0122 -0.3663 -1.2628
 4033SOL    HW222309   1.480   0.300   0.975 -0.8921 -1.5669  0.7668
 4034SOL     OW22310   0.215   5.547   1.943 -0.3993 -0.0502 -0.0328
 4034SOL    HW122311   0.168   5.509   1.863  1.4221 -0.4800 -0.9119
 4034SOL    HW222312   0.147   5.585   2.005 -1.9136 -0.4742 -1.3747
 4035SOL     OW22313   1.311   5.059   0.958  0.3916  0.4106 -0.3686
 4035SOL    HW122314   1.287   5.136   1.017  0.9174  0.1064  0.2423
 4035SOL    HW222315   1.262   5.068   0.872  0.8803  1.7381 -0.5309
 4036SOL     OW22316   0.018   0.052   0.536  0.0769 -0.4393 -0.6891
 4036SOL    HW122317   0.012  -0.018   0.608  0.8357 -0.9052 -1.0805
 4036SOL    HW222318   0.106   0.044   0.489  0.4276  1.1674 -0.3350
 4037SOL     OW22319   2.973   3.691   1.138 -0.1504 -0.0358 -0.4310
 4037SOL    HW122320   2.875   3.688   1.157 -0.1040 -0.9829 -0.3033
 4037SOL    HW222321   3.024   3.655   1.216  0.6443  5.0698  1.6324
 4038SOL     OW22322   4.168   0.527   3.064 -0.0355  0.1643  0.0710
 4038SOL    HW122323   4.255   0.568   3.091  0.5157 -0.7617 -0.2620
 4038SOL    HW222324   4.119   0.589   3.004  0.8860  0.2615 -0.6012
 4039SOL     OW22325   9.484   3.134   1.556  0.0714  0.5213 -0.1852
 4039SOL    HW122326   9.560   3.176   1.506  0.3039  2.0779  1.4343
 4039SOL    HW222327   9.505   3.038   1.574  0.6876  0.3653 -1.6484
 4040SOL     OW22328   8.012   1.289   0.343  0.0523  0.4313  0.7271
 4040SOL    HW122329   8.063   1.375   0.334  0.6454 -0.0268 -0.3760
 4040SOL    HW222330   8.076   1.213   0.353 -0.4542  0.0080  0.8100
 4041SOL     OW22331   4.889   0.590   2.381 -0.2269 -0.3369 -0.3017
 4041SOL    HW122332   4.963   0.524   2.371 -0.0228 -0.3291  1.1795
 4041SOL    HW222333   4.811   0.559   2.326  1.8220  1.1558 -4.2512
 4042SOL     OW22334   0.338   6.044   0.442 -0.2787  0.0649  0.0670
 4042SOL    HW122335   0.337   6.127   0.497 -4.1964  0.6423 -0.6564
 4042SOL    HW222336   0.327   5.964   0.500  0.4332  0.2839  0.5044
 4043SOL     OW22337   9.400   0.930   2.783 -0.2306  0.5067  0.1110
 4043SOL    HW122338   9.435   0.855   2.727  1.1898  1.3595 -0.1573
 4043SOL    HW222339   9.381   1.009   2.726  1.2356  1.3835  0.8116
 4044SOL     OW22340   3.266   8.793   0.074  0.4076  0.5367  0.5757
 4044SOL    HW122341   3.288   8.796   0.171  0.7940 -0.9791  0.5514
 4044SOL    HW222342   3.347   8.818   0.021 -0.1893  2.7397  0.6553
 4045SOL     OW22343   0.613   0.475   2.680 -0.0062 -0.2982 -0.2403
 4045SOL    HW122344   0.542   0.546   2.683  0.6394  0.3162  0.5963
 4045SOL    HW222345   0.703   0.519   2.678  0.3913 -1.0977  0.1437
 4046SOL     OW22346   0.002   9.941   1.537 -0.1893 -0.2056 -0.5377
 4046SOL    HW122347  -0.008   9.947   1.637  2.5334 -2.5130 -0.0743
 4046SOL    HW222348   0.095   9.915   1.514 -1.0898 -0.8928 -3.6755
 4047SOL     OW22349   2.754   9.612   1.246  0.3359 -0.6216 -0.5907
 4047SOL    HW122350   2.846   9.638   1.276  0.7085 -2.5459 -0.0011
 4047SOL    HW222351   2.729   9.525   1.286 -0.9557 -1.0946 -2.3420
 4048SOL     OW22352   0.298   1.163   2.711  0.5046 -0.2743  0.3081
 4048SOL    HW122353   0.239   1.243   2.712 -0.3345 -0.8788  0.0937
 4048SOL    HW222354   0.388   1.187   2.745  0.1933  0.7085  0.4437
 4049SOL     OW22355   3.384   2.783   2.159 -0.0267 -0.5326 -0.3133
 4049SOL    HW122356   3.379   2.733   2.072 -1.3835  0.2455 -0.6938
 4049SOL    HW222357   3.353   2.723   2.233 -0.0572 -0.7937 -0.5341
 4050SOL     OW22358   0.539   6.755   2.242  0.3421 -0.1722 -0.0228
 4050SOL    HW122359   0.603   6.790   2.174 -0.3506 -0.3994 -0.7978
 4050SOL    HW222360   0.532   6.656   2.235 -0.0472 -0.1560  0.0956
 4051SOL     OW22361   0.603   3.600   1.648 -0.5658 -0.3685  0.7187
 4051SOL    HW122362   0.652   3.531   1.595 -0.7382 -0.6239  0.8950
 4051SOL    HW222363   0.578   3.676   1.588  1.5990  0.5869  0.9662
 4052SOL     OW22364   0.930   2.422   2.848 -0.7055  0.3324 -0.1609
 4052SOL    HW122365   0.917   2.334   2.893 -1.1603  0.6342  0.3090
 4052SOL    HW222366   0.916   2.495   2.914 -0.3074  0.7574 -0.5450
 4053SOL     OW22367   1.635   8.693   1.729 -0.1325 -0.7640  0.1896
 4053SOL    HW122368   1.577   8.623   1.771  0.1931 -1.2906 -0.2385
 4053SOL    HW222369   1.604   8.784   1.759 -0.7908 -1.0685  0.4520
 4054SOL     OW22370   3.473   5.560   2.795  0.1098 -0.1822 -0.1755
 4054SOL    HW122371   3.536   5.484   2.777 -0.6559 -0.8796  0.0495
 4054SOL    HW222372   3.504   5.609   2.877  0.0545 -0.8556  0.2547
 4055SOL     OW22373   3.482   2.261   0.473  0.2967 -0.4282  0.0967
 4055SOL    HW122374   3.500   2.347   0.521  2.6249 -0.7364 -0.1336
 4055SOL    HW222375   3.387   2.259   0.442 -0.2147  1.3671  1.4761
 4056SOL     OW22376   3.966   7.925   0.819  0.4574 -0.3442  0.2973
 4056SOL    HW122377   3.887   7.864   0.808  0.5900 -0.2291 -1.5410
 4056SOL    HW222378   3.994   7.927   0.915 -0.7088 -1.7253  0.6851
 4057SOL     OW22379   2.543   6.757   1.970  0.2976 -0.9343  0.2322
 4057SOL    HW122380   2.636   6.779   1.940  0.4990 -1.1748  0.6850
 4057SOL    HW222381   2.514   6.671   1.927 -0.1233 -0.3004 -0.7644
 4058SOL     OW22382   1.901   5.328   2.273 -0.1911  0.3577 -0.2418
 4058SOL    HW122383   1.876   5.302   2.180  0.4730 -0.5387 -0.1797
 4058SOL    HW222384   1.899   5.247   2.332 -1.2724  1.0454  0.6693
 4059SOL     OW22385   3.439   5.132   1.490  0.6939 -0.2705  0.3132
 4059SOL    HW122386   3.359   5.186   1.514  1.1305  0.4915  0.0605
 4059SOL    HW222387   3.500   5.124   1.569  1.5046  1.1438 -0.1574
 4060SOL     OW22388   0.214   5.319   2.751  0.3183 -0.7574  0.2542
 4060SOL    HW122389   0.268   5.358   2.676  0.4499 -0.6301  0.4169
 4060SOL    HW222390   0.153   5.388   2.788  0.8185 -0.6014  0.7920
 4061SOL     OW22391   3.159   4.784   1.698 -0.0350 -0.2337  0.0590
 4061SOL    HW122392   3.256   4.788   1.720  0.0173  0.5091 -0.3133
 4061SOL    HW222393   3.147   4.775   1.599 -0.3522 -0.2272  0.0949
 4062SOL     OW22394   3.290   7.644   0.270 -0.1935  0.6244  0.4368
 4062SOL    HW122395   3.312   7.594   0.354  1.1442 -1.9434 -1.3703
 4062SOL    HW222396   3.215   7.598   0.222  1.3568  0.0426 -1.4868
 4063SOL     OW22397   0.457   3.457   2.378 -0.4682  0.1400  0.5430
 4063SOL    HW122398   0.481   3.542   2.332  0.6798 -0.5817 -0.2279
 4063SOL    HW222399   0.401   3.401   2.317  0.9890 -0.7835  0.0072
 4064SOL     OW22400   2.598   6.427   1.232  0.6414 -0.1325  0.3212
 4064SOL    HW122401   2.686   6.454   1.194  1.2905 -2.8669 -0.2747
 4064SOL    HW222402   2.531   6.416   1.158  0.2256  0.4778  0.6073
 4065SOL     OW22403   3.781   1.175   1.494  0.0449  0.2422  0.7593
 4065SOL    HW122404   3.768   1.193   1.396 -1.5447  1.9663  1.2648
 4065SOL    HW222405   3.832   1.249   1.536 -0.2187  0.0387  1.4509
 4066SOL     OW22406   2.009   9.192   0.211  0.4961  0.3014  0.5813
 4066SOL    HW122407   1.945   9.123   0.244  0.8807  0.6456  2.1341
 4066SOL    HW222408   2.098   9.179   0.256  1.1205  0.6427 -0.5407
 4067SOL     OW22409   2.499   3.508   2.444  0.2465  0.0969 -0.4468
 4067SOL    HW122410   2.538   3.417   2.431 -1.1554 -0.3947 -1.3721
 4067SOL    HW222411   2.461   3.516   2.536 -0.8713 -0.7621 -0.8172
 4068SOL     OW22412   3.860   8.880   2.568 -0.3147  0.1720 -0.4402
 4068SOL    HW122413   3.800   8.872   2.648  1.1669 -1.6128  0.5220
 4068SOL    HW222414   3.943   8.929   2.593  0.0857 -0.2460 -0.9390
 4069SOL     OW22415   2.203   4.841   2.176  0.2282  0.6064 -0.1853
 4069SOL    HW122416   2.112   4.869   2.207  0.0896  1.2083 -1.1165
 4069SOL    HW222417   2.195   4.761   2.117  0.4632 -0.3429  1.0413
 4070SOL     OW22418   3.434   4.734   0.004  0.3196 -0.0432  0.4217
 4070SOL    HW122419   3.428   4.684   0.090 -2.2560  0.9227  0.8138
 4070SOL    HW222420   3.397   4.826   0.015 -1.9341 -0.5647 -2.1855
 4071SOL     OW22421   9.758   2.387   1.894 -0.1715 -0.1213  0.6535
 4071SOL    HW122422   9.739   2.349   1.985  0.2391 -2.3853 -0.1557
 4071SOL    HW222423   9.854   2.368   1.870 -0.2919  0.4193 -0.2716
 4072SOL     OW22424   0.476   6.436   0.920  0.2737 -0.5055  0.3136
 4072SOL    HW122425   0.416   6.451   0.841 -0.3270  0.3744  0.9247
 4072SOL    HW222426   0.448   6.352   0.967  1.4321 -1.7181 -1.1186
 4073SOL     OW22427   9.364   1.504   2.078 -0.4900 -0.5521  0.1299
 4073SOL    HW122428   9.319   1.515   2.166  2.2482 -0.5848  1.5858
 4073SOL    HW222429   9.348   1.411   2.044 -3.0127 -0.0013 -0.3127
 4074SOL     OW22430   9.315   0.804   0.264 -0.4026  0.3228 -0.0845
 4074SOL    HW122431   9.400   0.773   0.307 -0.0860 -0.1789 -1.0693
 4074SOL    HW222432   9.243   0.737   0.281  0.8964 -2.3897 -4.3846
 4075SOL     OW22433   1.692   6.399   1.899  0.0182  0.8130  0.3917
 4075SOL    HW122434   1.760   6.330   1.874 -0.8170 -0.1492  0.6910
 4075SOL    HW222435   1.727   6.490   1.879  0.7819  0.2519 -0.8837
 4076SOL     OW22436   9.612   3.200   0.239  0.0428 -0.2659 -0.4579
 4076SOL    HW122437   9.542   3.271   0.244 -1.1921 -1.4279 -1.0197
 4076SOL    HW222438   9.606   3.142   0.321 -0.3447 -0.9924 -0.9942
 4077SOL     OW22439   8.131   1.421   2.393  0.0594  1.0293 -0.0382
 4077SOL    HW122440   8.075   1.368   2.329  0.3675  0.6309  0.0210
 4077SOL    HW222441   8.119   1.384   2.486  0.8000  0.6270 -0.1011
 4078SOL     OW22442   2.108   6.356   2.323 -0.2013 -0.0186 -0.3769
 4078SOL    HW122443   2.010   6.342   2.312  0.1763 -2.3693 -1.1721
 4078SOL    HW222444   2.135   6.443   2.283 -2.2134  1.4761  1.4344
 4079SOL     OW22445   2.582   0.394   1.828 -1.1517 -0.0111  0.4413
 4079SOL    HW122446   2.485   0.377   1.807 -1.1054 -0.4546  0.5895
 4079SOL    HW222447   2.615   0.326   1.893  0.8154 -3.3989 -3.8966
 4080SOL     OW22448   3.688   8.802   2.746 -0.3344 -0.2615 -0.4183
 4080SOL    HW122449   3.618   8.864   2.782  1.3807  1.0757  0.7018
 4080SOL    HW222450   3.690   8.719   2.802 -1.0708 -0.3277 -0.4896
 4081SOL     OW22451   2.379   7.903   1.971  0.1047 -0.3493  0.2473
 4081SOL    HW122452   2.470   7.863   1.962 -0.6488 -2.1756  0.5960
 4081SOL    HW222453   2.325   7.849   2.035 -0.7146  1.6641  1.3117
 4082SOL     OW22454   8.483   2.317   0.477  0.1087  0.1773 -0.3230
 4082SOL    HW122455   8.482   2.343   0.381  0.4930  1.6105  0.0471
 4082SOL    HW222456   8.414   2.370   0.526  1.1829  0.8191  0.5216
 4083SOL     OW22457   0.311   6.705   1.448 -1.0585 -0.0566  0.3495
 4083SOL    HW122458   0.369   6.759   1.387  1.3649 -1.4678  1.3031
 4083SOL    HW222459   0.297   6.756   1.533 -0.0794 -0.2352  0.6316
 4084SOL     OW22460   0.927   3.593   1.463 -0.7371  0.5659 -0.3288
 4084SOL    HW122461   0.886   3.623   1.377 -0.7517 -1.4154 -1.0265
 4084SOL    HW222462   0.926   3.669   1.529  0.8815  2.6608 -2.6282
 4085SOL     OW22463   2.283   0.384   1.813 -0.0017  0.1595  0.3167
 4085SOL    HW122464   2.242   0.323   1.881 -4.1044  2.2353 -0.1624
 4085SOL    HW222465   2.275   0.342   1.723 -2.0089  0.9419  0.1047
 4086SOL     OW22466   9.980   2.319   1.044  0.0275 -0.5354  0.1145
 4086SOL    HW122467   9.992   2.358   1.136  0.2611  0.6415 -0.4065
 4086SOL    HW222468   9.978   2.219   1.051  0.7595 -0.4865  1.3215
 4087SOL     OW22469   0.381   4.408   0.371  0.4303 -0.1161 -0.4216
 4087SOL    HW122470   0.436   4.484   0.406 -0.8417  1.2846 -1.4170
 4087SOL    HW222471   0.336   4.362   0.447  0.2835  0.8491  0.0793
 4088SOL     OW22472   2.811   6.842   1.976 -0.2101 -0.2754  0.4671
 4088SOL    HW122473   2.855   6.756   2.001  0.4749 -0.3471 -0.9119
 4088SOL    HW222474   2.826   6.909   2.049  1.5951 -0.5266  0.3612
 4089SOL     OW22475   0.689   7.385   2.237  0.1202  0.0951  0.5508
 4089SOL    HW122476   0.677   7.295   2.278 -1.5693 -0.8013 -1.8108
 4089SOL    HW222477   0.783   7.396   2.206  0.0005 -1.4101 -0.3782
 4090SOL     OW22478   9.452   4.930   1.251 -0.0407  0.2576 -0.7150
 4090SOL    HW122479   9.384   4.961   1.317  1.0777  0.0889  0.5518
 4090SOL    HW222480   9.412   4.928   1.160 -1.1516  2.0598 -0.2959
 4091SOL     OW22481   9.667   5.263   3.044 -0.6814 -0.3804 -0.4298
 4091SOL    HW122482   9.732   5.195   3.011  1.2500  2.0672 -1.8950
 4091SOL    HW222483   9.717   5.334   3.094 -2.5513  0.3231  0.4749
 4092SOL     OW22484   1.427   7.063   0.649 -0.1821 -0.3990 -0.0098
 4092SOL    HW122485   1.386   7.051   0.558  2.2470  0.3545 -1.2486
 4092SOL    HW222486   1.403   7.153   0.684 -0.8509 -0.5598 -0.0439
 4093SOL     OW22487   3.289   7.968   0.510  0.0439  0.2515  0.2770
 4093SOL    HW122488   3.328   7.958   0.602  0.6084 -1.6098 -0.1465
 4093SOL    HW222489   3.197   7.929   0.508  0.5153 -0.8422 -0.2582
 4094SOL     OW22490   9.400   2.764   0.325 -0.4533  0.0939  0.0438
 4094SOL    HW122491   9.402   2.677   0.373 -1.8262 -0.7162 -1.3081
 4094SOL    HW222492   9.480   2.772   0.266  1.9654  1.6883  3.3721
 4095SOL     OW22493   3.804   0.758   2.074  0.4468 -0.0320 -0.5288
 4095SOL    HW122494   3.758   0.700   2.141  0.4074  2.1182  1.3837
 4095SOL    HW222495   3.744   0.834   2.050  1.7943  1.1096 -0.3531
 4096SOL     OW22496   0.663   2.277   1.181  0.3309  0.2390  0.2948
 4096SOL    HW122497   0.678   2.178   1.173 -1.4577  0.0928 -1.5061
 4096SOL    HW222498   0.688   2.322   1.096  2.4802  1.5497  1.5822
 4097SOL     OW22499   8.731   2.568   0.033  0.3843 -0.5443  0.5077
 4097SOL    HW122500   8.688   2.620  -0.041  1.7510 -0.3165 -0.1336
 4097SOL    HW222501   8.792   2.499  -0.006  0.6069 -0.8632  1.4127
 4098SOL     OW22502   1.572   1.386   3.000  0.4891  0.2961 -0.4727
 4098SOL    HW122503   1.495   1.339   2.959  0.3511  0.5616 -0.5172
 4098SOL    HW222504   1.652   1.379   2.940 -0.3053  2.6106 -1.8838
 4099SOL     OW22505   1.266   3.588   3.409 -0.1055  0.3813  0.2398
 4099SOL    HW122506   1.327   3.629   3.477  0.7657 -1.0755  0.3529
 4099SOL    HW222507   1.201   3.527   3.455 -1.3953  1.5877  0.0695
 4100SOL     OW22508   3.500   0.808   2.258  0.3203 -0.2011 -0.0581
 4100SOL    HW122509   3.451   0.857   2.186 -0.6427  0.3025  0.9332
 4100SOL    HW222510   3.435   0.749   2.308  1.2361 -1.5992 -0.4844
 4101SOL     OW22511   0.999   6.032   1.806  0.5305  0.0814 -0.6630
 4101SOL    HW122512   0.986   5.933   1.814  3.1642 -0.5334 -3.2688
 4101SOL    HW222513   1.095   6.052   1.786 -0.3413  3.0148 -2.2860
 4102SOL     OW22514   2.458   7.423   2.841  0.1323 -0.0626  0.6208
 4102SOL    HW122515   2.441   7.466   2.752  1.1300  0.1974  0.5461
 4102SOL    HW222516   2.402   7.468   2.910 -0.2699  0.0783  0.2087
 4103SOL     OW22517   6.045   8.722   2.243 -0.4158 -0.2007 -0.6386
 4103SOL    HW122518   6.034   8.669   2.327 -1.7304  1.5256  0.3182
 4103SOL    HW222519   6.142   8.735   2.225 -0.1075 -1.0787  0.3043
 4104SOL     OW22520   1.036   0.283   0.465  0.4828  0.0715  0.0007
 4104SOL    HW122521   1.021   0.376   0.431  0.5764 -0.2276 -0.8837
 4104SOL    HW222522   0.973   0.220   0.419  0.6115 -0.3404  0.3830
 4105SOL     OW22523   2.640   1.171   0.794 -0.6826 -0.1108  0.4841
 4105SOL    HW122524   2.671   1.265   0.807 -1.3461 -0.0018  1.3903
 4105SOL    HW222525   2.715   1.114   0.761  0.2307  0.3409  1.7444
 4106SOL     OW22526   8.359   3.049   2.166  0.3228  0.1416 -0.1557
 4106SOL    HW122527   8.351   3.141   2.127  1.0727 -0.1447 -1.0249
 4106SOL    HW222528   8.428   3.050   2.239 -0.1255  0.4028  0.2640
 4107SOL     OW22529   7.558   0.998   1.866 -0.0983 -0.0066 -0.3557
 4107SOL    HW122530   7.651   1.018   1.835  0.4946 -0.4301  1.0905
 4107SOL    HW222531   7.506   1.083   1.874  1.0439  0.5320  1.5455
 4108SOL     OW22532   2.445   4.740   2.812  0.1267 -0.3358  0.7194
 4108SOL    HW122533   2.501   4.784   2.742 -1.0619 -0.5523 -0.3812
 4108SOL    HW222534   2.458   4.641   2.807  1.3247 -0.2598  1.9297
 4109SOL     OW22535   9.049   3.900   2.623 -0.1533  0.0584 -0.7443
 4109SOL    HW122536   9.066   3.850   2.708 -0.9526  0.6576 -0.2264
 4109SOL    HW222537   8.967   3.956   2.633 -0.2541  0.1332 -1.9127
 4110SOL     OW22538   1.194   5.290   0.322 -0.1690  0.0359 -0.0711
 4110SOL    HW122539   1.175   5.255   0.414  1.9202 -0.7600  0.0889
 4110SOL    HW222540   1.159   5.226   0.254 -1.4423  0.4717  0.1690
 4111SOL     OW22541   0.883   7.309   2.617 -0.2860  0.1201  0.4351
 4111SOL    HW122542   0.886   7.370   2.537 -1.5276  0.9519  1.0044
 4111SOL    HW222543   0.949   7.341   2.686  1.3193 -1.0248 -0.5265
 4112SOL     OW22544   7.768   2.956   1.183  0.3437 -0.1440  0.1386
 4112SOL    HW122545   7.730   2.910   1.263  1.1161  1.6977  1.6102
 4112SOL    HW222546   7.721   3.044   1.169  0.9068  0.0160 -0.8195
 4113SOL     OW22547   2.497   5.164   1.356  0.1080  0.1282 -0.0271
 4113SOL    HW122548   2.569   5.182   1.289  0.6957 -1.1749  0.2248
 4113SOL    HW222549   2.424   5.111   1.312 -1.2876  2.4917 -0.5979
 4114SOL     OW22550   1.009   6.333   0.334  0.0392  0.2234  0.1321
 4114SOL    HW122551   1.067   6.400   0.287  0.4515  0.3746  0.8611
 4114SOL    HW222552   1.057   6.297   0.413 -0.5817 -0.1880  0.3203
 4115SOL     OW22553   8.114   5.148   0.204  0.0491 -0.1752  0.0601
 4115SOL    HW122554   8.065   5.222   0.250  1.1151 -0.0410  1.0243
 4115SOL    HW222555   8.127   5.171   0.108  0.5461  0.9868  0.3981
 4116SOL     OW22556   3.856   1.086   2.213  0.2345  0.2894  0.2117
 4116SOL    HW122557   3.832   1.147   2.138 -0.7792  2.3283  2.1575
 4116SOL    HW222558   3.781   1.082   2.278  0.0225 -3.5290 -0.1436
 4117SOL     OW22559   1.867   9.888   1.144 -0.1284 -0.1744 -0.4764
 4117SOL    HW122560   1.831   9.837   1.222  0.3702 -0.0292 -0.1466
 4117SOL    HW222561   1.953   9.847   1.113 -0.4417 -0.3701 -1.1007
 4118SOL     OW22562   3.438   5.237   0.185  0.2042 -0.0825  0.0331
 4118SOL    HW122563   3.395   5.220   0.274 -0.0015  0.8577  0.1213
 4118SOL    HW222564   3.528   5.279   0.199  1.5010 -2.7099 -0.1311
 4119SOL     OW22565   1.033   5.626   2.536 -0.0098  0.0485 -0.5359
 4119SOL    HW122566   1.083   5.541   2.526 -0.2588 -0.1251 -0.3199
 4119SOL    HW222567   1.071   5.695   2.474 -0.6094 -0.5799 -1.6169
 4120SOL     OW22568   3.242   2.069   2.496  0.3220 -0.1719  0.2839
 4120SOL    HW122569   3.330   2.106   2.526  0.2873 -0.6624  1.0098
 4120SOL    HW222570   3.255   1.976   2.461 -0.1903 -1.0419  2.2986
 4121SOL     OW22571   1.524   8.957   1.736 -0.3006 -0.5879 -0.1594
 4121SOL    HW122572   1.546   8.992   1.827 -1.7305 -1.1885  0.4210
 4121SOL    HW222573   1.425   8.964   1.720  0.0865  0.7748 -2.1861
 4122SOL     OW22574   1.792   7.234   1.572  0.3469 -0.3231  0.4998
 4122SOL    HW122575   1.737   7.196   1.497 -0.3892  0.9069  0.4027
 4122SOL    HW222576   1.882   7.189   1.573  0.2151 -0.6530 -0.8576
 4123SOL     OW22577   2.735   7.727   1.915  0.1547 -0.0385  0.0529
 4123SOL    HW122578   2.789   7.710   1.832 -0.6875 -0.8368 -0.3381
 4123SOL    HW222579   2.658   7.664   1.918 -0.6232  0.9225  0.7296
 4124SOL     OW22580   1.622   4.541   3.217  0.6667  0.0445 -0.2126
 4124SOL    HW122581   1.541   4.511   3.267  0.5042  1.8543  0.6440
 4124SOL    HW222582   1.614   4.514   3.121 -1.1340  0.5003 -0.2149
 4125SOL     OW22583   3.999   2.638   0.675  0.2089 -0.0012 -0.3488
 4125SOL    HW122584   3.937   2.561   0.691 -0.5324  0.3501 -1.5064
 4125SOL    HW222585   4.071   2.637   0.745 -1.1045 -0.3946  1.0297
 4126SOL     OW22586   7.848   1.967   1.734 -0.0212 -0.6200 -0.2857
 4126SOL    HW122587   7.793   1.909   1.794 -2.3708  1.8875  0.0648
 4126SOL    HW222588   7.811   1.964   1.641 -0.2522  0.4055 -0.2338
 4127SOL     OW22589   9.269   4.628   2.920  0.6455 -0.1138 -0.2035
 4127SOL    HW122590   9.198   4.636   2.850  0.5647 -0.4617 -0.1591
 4127SOL    HW222591   9.235   4.668   3.006  0.2551 -0.8827  0.0025
 4128SOL     OW22592   1.806   2.883   0.782 -0.0138 -0.5645 -0.0832
 4128SOL    HW122593   1.710   2.901   0.757 -0.4043 -1.6337  0.5991
 4128SOL    HW222594   1.850   2.969   0.810 -1.2866 -0.3448  1.3149
 4129SOL     OW22595   7.913   2.238   3.253 -0.8310  0.0032 -0.2638
 4129SOL    HW122596   7.846   2.220   3.181  0.2491 -0.4374 -1.1611
 4129SOL    HW222597   7.956   2.153   3.281 -0.3713  0.3381  0.0540
 4130SOL     OW22598   3.411   7.247   2.442  0.4537  0.3812 -0.3733
 4130SOL    HW122599   3.444   7.297   2.362  1.1109 -1.3121 -1.2020
 4130SOL    HW222600   3.465   7.164   2.454  0.6661  0.8371  2.1331
 4131SOL     OW22601   2.801   7.653   0.733  0.0620  0.3288 -0.0087
 4131SOL    HW122602   2.736   7.728   0.743 -0.3502  0.1647 -1.3610
 4131SOL    HW222603   2.839   7.653   0.641  2.6518  0.9523  1.0038
 4132SOL     OW22604   8.071   2.733   0.619  0.4996 -0.0757 -0.0815
 4132SOL    HW122605   8.150   2.740   0.679  0.5436  0.8721 -0.2332
 4132SOL    HW222606   8.088   2.664   0.548  0.3372 -1.3926  1.1374
 4133SOL     OW22607   0.204   7.908   3.293 -0.1276  0.3944 -0.0432
 4133SOL    HW122608   0.207   7.930   3.390 -0.4388 -1.9173  0.5078
 4133SOL    HW222609   0.283   7.851   3.269 -1.0867 -0.6672 -0.7250
 4134SOL     OW22610   0.601   9.130   2.028 -0.1018  0.0740 -0.2033
 4134SOL    HW122611   0.657   9.065   1.976 -0.3996 -0.2760 -0.0913
 4134SOL    HW222612   0.659   9.202   2.064  0.2076 -0.0347 -0.4766
 4135SOL     OW22613   7.664   0.939   0.270 -0.3031 -0.0044 -0.0038
 4135SOL    HW122614   7.585   0.888   0.302  1.4256 -2.5047  0.4406
 4135SOL    HW222615   7.738   0.933   0.337  0.2284  2.5193 -0.2768
 4136SOL     OW22616   0.812   4.812   1.054 -0.0042  1.0178 -0.2867
 4136SOL    HW122617   0.895   4.864   1.073  0.6503 -0.0822 -0.1121
 4136SOL    HW222618   0.835   4.717   1.033 -1.3358  0.2186  1.6815
 4137SOL     OW22619   2.380   0.451   2.165  0.1075  0.0443 -0.7903
 4137SOL    HW122620   2.322   0.382   2.209 -2.3330  1.8931 -0.9739
 4137SOL    HW222621   2.418   0.414   2.081  0.8308 -1.8717  0.3416
 4138SOL     OW22622   1.493   4.806   2.231  0.3398 -0.3091 -0.2084
 4138SOL    HW122623   1.483   4.772   2.138 -1.1371 -0.4254 -0.0206
 4138SOL    HW222624   1.533   4.898   2.229  2.3600 -1.1961 -0.8296
 4139SOL     OW22625   1.845   2.369   1.019  0.9369 -0.5131  0.4195
 4139SOL    HW122626   1.829   2.382   0.921  1.2050  0.7700  0.5261
 4139SOL    HW222627   1.761   2.336   1.062  0.6900 -0.6727 -0.1776
 4140SOL     OW22628   1.984   4.990   2.675 -0.0932  0.8270 -0.4531
 4140SOL    HW122629   2.038   5.009   2.756 -0.1484  0.7279 -0.3927
 4140SOL    HW222630   1.950   4.896   2.678 -1.3378  1.2821  0.1355
 4141SOL     OW22631   4.076   0.968   1.863 -0.0276  0.4820 -0.4701
 4141SOL    HW122632   4.092   0.929   1.954  1.1019 -0.2829 -0.9790
 4141SOL    HW222633   4.006   0.915   1.816  0.8977 -0.4557 -0.8344
 4142SOL     OW22634   1.529   6.731   0.672  0.3591 -0.1920  0.1313
 4142SOL    HW122635   1.578   6.797   0.728  1.9363 -0.5413 -0.7950
 4142SOL    HW222636   1.435   6.762   0.658  1.3400  2.4230 -1.1512
 4143SOL     OW22637   3.419   7.963   3.361 -0.0141  0.3424  0.3558
 4143SOL    HW122638   3.330   8.003   3.385 -1.5469 -1.9999 -1.2713
 4143SOL    HW222639   3.419   7.938   3.264  1.9069 -1.0101  0.6888
 4144SOL     OW22640   3.695   3.300   2.154 -0.2352 -0.5738 -0.0754
 4144SOL    HW122641   3.601   3.310   2.121 -0.2077 -2.2090 -0.6587
 4144SOL    HW222642   3.754   3.363   2.104 -1.0332  0.5542  0.3822
 4145SOL     OW22643   1.724   9.247   3.277  0.5439  0.1390 -0.1518
 4145SOL    HW122644   1.729   9.163   3.331 -0.6411 -0.7272 -1.3492
 4145SOL    HW222645   1.629   9.266   3.254  0.7615  2.0134  0.3778
 4146SOL     OW22646   8.508   5.252   0.864 -0.2469 -0.3741 -0.4531
 4146SOL    HW122647   8.493   5.194   0.784 -1.3215 -0.5575 -0.1232
 4146SOL    HW222648   8.478   5.204   0.946 -0.9148  0.5493 -0.1535
 4147SOL     OW22649   9.863   4.186   1.786  0.0061 -0.2845  0.6356
 4147SOL    HW122650   9.786   4.163   1.846 -0.3945 -0.2522  0.1420
 4147SOL    HW222651   9.887   4.106   1.731  0.0595 -0.1721  0.4960
 4148SOL     OW22652   9.373   2.584   0.026  0.0465 -0.0858  0.7532
 4148SOL    HW122653   9.296   2.565   0.088 -0.1532  2.4518  1.3313
 4148SOL    HW222654   9.454   2.607   0.079  0.3491  0.3689  0.1038
 4149SOL     OW22655   2.979   8.104   2.917 -0.1139  0.0410  0.2839
 4149SOL    HW122656   2.963   8.138   3.009 -1.1189  0.1914  0.0607
 4149SOL    HW222657   3.052   8.158   2.873  0.3407 -0.0152  0.9662
 4150SOL     OW22658   7.934   0.376   2.178 -0.2621 -0.0408 -0.1667
 4150SOL    HW122659   7.881   0.363   2.094  0.8510  1.8827 -1.2038
 4150SOL    HW222660   8.020   0.327   2.170 -0.2873 -0.1104 -0.0082
 4151SOL     OW22661   5.868   9.159   2.013 -0.5375 -0.2704  0.2498
 4151SOL    HW122662   5.859   9.249   2.055  1.3028 -0.1076  0.3571
 4151SOL    HW222663   5.854   9.166   1.914 -1.5568 -0.0726  0.4066
 4152SOL     OW22664   0.435   7.809   2.222 -0.1075  0.2946  0.0070
 4152SOL    HW122665   0.481   7.722   2.203 -1.7256 -0.4970 -0.3488
 4152SOL    HW222666   0.420   7.818   2.320 -0.5350 -0.1306 -0.0202
 4153SOL     OW22667   8.681   0.924   1.879  0.6452 -0.2734  0.1271
 4153SOL    HW122668   8.636   1.012   1.896 -0.4965 -0.6683 -0.7249
 4153SOL    HW222669   8.636   0.879   1.802  2.0988 -1.0017 -0.3058
 4154SOL     OW22670   0.105   3.685   3.135  0.4905 -0.5707 -0.1369
 4154SOL    HW122671   0.171   3.615   3.107 -0.0517 -0.7190 -1.0622
 4154SOL    HW222672   0.065   3.659   3.223  0.6406 -1.1833 -0.2454
 4155SOL     OW22673   2.461   7.355   1.038 -0.2093 -0.0367  0.4016
 4155SOL    HW122674   2.375   7.400   1.012 -0.2861 -1.2883 -1.6382
 4155SOL    HW222675   2.529   7.371   0.967  0.7320 -0.4395  1.2118
 4156SOL     OW22676   9.321   3.309   3.378  0.3718 -0.8028 -0.1128
 4156SOL    HW122677   9.258   3.338   3.450  0.7098 -1.1074  0.3123
 4156SOL    HW222678   9.411   3.351   3.394  0.3181 -0.4778 -0.6367
 4157SOL     OW22679   0.374   6.438   1.390 -0.0697  0.5841 -0.1441
 4157SOL    HW122680   0.450   6.445   1.325  1.2829  0.0665  1.3439
 4157SOL    HW222681   0.347   6.530   1.419  0.4157  0.7511 -0.2079
 4158SOL     OW22682   2.783   9.005   2.655  0.0647  0.2175 -0.0378
 4158SOL    HW122683   2.855   8.938   2.674  0.5643  1.2597  1.8571
 4158SOL    HW222684   2.817   9.097   2.675 -1.9009  0.6955  1.2341
 4159SOL     OW22685   3.525   2.002   0.295 -0.4516 -0.3038 -0.1626
 4159SOL    HW122686   3.481   2.038   0.377 -0.6024  0.2935 -0.5037
 4159SOL    HW222687   3.509   2.064   0.219  2.7970  1.0468  0.1771
 4160SOL     OW22688   1.269   6.210   2.107 -0.1302  0.2184  0.1362
 4160SOL    HW122689   1.363   6.181   2.090 -0.3127  0.7951 -1.9760
 4160SOL    HW222690   1.269   6.281   2.177  0.9380 -0.2535  0.6331
 4161SOL     OW22691   8.475   3.148   1.170 -0.4381  0.2257 -0.2522
 4161SOL    HW122692   8.519   3.169   1.083 -1.0273  0.8363 -0.4121
 4161SOL    HW222693   8.396   3.089   1.153 -0.2303 -0.1061 -0.0709
 4162SOL     OW22694   0.382   2.807   1.013 -0.4835  0.5016 -0.3845
 4162SOL    HW122695   0.289   2.822   1.046 -1.0709 -0.4831 -1.5657
 4162SOL    HW222696   0.404   2.874   0.943  0.6833  2.4480  1.7940
 4163SOL     OW22697   0.968   0.010   3.085 -0.6681  0.0211  1.1469
 4163SOL    HW122698   0.889  -0.024   3.034 -1.3021  0.7704  1.6358
 4163SOL    HW222699   0.986  -0.051   3.163 -2.1226  1.0808  2.3268
 4164SOL     OW22700   8.178   5.101   0.787 -0.1057 -0.3727  0.7214
 4164SOL    HW122701   8.118   5.180   0.803  0.1792 -0.5908  2.9929
 4164SOL    HW222702   8.172   5.038   0.864 -1.0209 -3.0636 -1.4846
 4165SOL     OW22703   2.452   8.305   0.259 -0.2938  0.2564  0.1259
 4165SOL    HW122704   2.395   8.386   0.274  0.2283  0.3554  1.6772
 4165SOL    HW222705   2.446   8.277   0.163  0.7768  3.0988 -0.8166
 4166SOL     OW22706   2.027   5.303   0.850  0.2882  0.5940 -0.4884
 4166SOL    HW122707   1.966   5.285   0.773 -0.2607  2.2265 -0.4564
 4166SOL    HW222708   2.076   5.388   0.835  0.2095  0.9065  0.9430
 4167SOL     OW22709   1.462   3.457   2.216 -0.6052 -0.4255 -0.1379
 4167SOL    HW122710   1.517   3.374   2.222 -1.7728 -1.1662  0.6694
 4167SOL    HW222711   1.513   3.535   2.253 -0.5609 -1.3440  1.8048
 4168SOL     OW22712   9.081   4.840   1.011  0.1326 -0.2470 -0.5921
 4168SOL    HW122713   9.172   4.852   1.050 -0.3932 -0.2177  0.6549
 4168SOL    HW222714   9.063   4.914   0.946  0.9529 -0.1921 -0.7632
 4169SOL     OW22715   8.121   0.553   2.900  0.2802  0.0438 -0.0751
 4169SOL    HW122716   8.109   0.612   2.821  2.3087  0.3461 -0.1683
 4169SOL    HW222717   8.104   0.605   2.984 -0.5549  0.0588 -0.2486
 4170SOL     OW22718   9.331   0.489   1.460  0.4249 -0.1924  0.2432
 4170SOL    HW122719   9.421   0.518   1.493  1.4896 -0.1480 -2.5559
 4170SOL    HW222720   9.321   0.390   1.471  0.1676  0.0171  2.0005
 4171SOL     OW22721   8.351   1.294   0.848 -0.7192  0.4477 -0.1099
 4171SOL    HW122722   8.325   1.285   0.752  0.5135 -0.0056 -0.4072
 4171SOL    HW222723   8.324   1.212   0.898  0.0909 -0.0002 -0.4068
 4172SOL     OW22724   1.529   0.494   2.300  0.1905 -0.1205  0.1148
 4172SOL    HW122725   1.486   0.575   2.340 -2.2216  0.0852 -2.7177
 4172SOL    HW222726   1.463   0.419   2.298  0.9199 -0.7329 -1.5363
 4173SOL     OW22727   0.661   4.116   0.622  0.0159 -0.2630  0.3227
 4173SOL    HW122728   0.704   4.061   0.550  0.9246  1.3283 -0.3704
 4173SOL    HW222729   0.562   4.117   0.609  0.1816  0.0898 -0.9637
 4174SOL     OW22730   3.075   1.982   2.761  0.4894 -0.1965  0.5969
 4174SOL    HW122731   3.074   2.008   2.858 -3.3734  2.5859 -0.0610
 4174SOL    HW222732   3.110   2.059   2.707 -1.6292 -0.0142 -0.5556
 4175SOL     OW22733   3.319   3.010   1.694 -0.0994  0.1090 -0.2227
 4175SOL    HW122734   3.367   3.008   1.782 -1.1021 -0.2339  0.3242
 4175SOL    HW222735   3.221   3.002   1.710 -0.3426  0.7887 -1.3327
 4176SOL     OW22736   1.557   3.965   0.663 -0.0524 -0.0078 -0.1873
 4176SOL    HW122737   1.489   3.904   0.703 -0.7272  1.5205  1.0556
 4176SOL    HW222738   1.527   4.060   0.674  1.0027  0.5599 -2.0293
 4177SOL     OW22739   1.533   0.158   0.518 -0.1730 -0.5663 -0.8850
 4177SOL    HW122740   1.475   0.114   0.587 -2.4333  0.7667 -1.8776
 4177SOL    HW222741   1.556   0.092   0.447 -1.4464 -0.8195 -1.0682
 4178SOL     OW22742   3.924   9.485   2.504 -0.7998 -0.2400  0.2894
 4178SOL    HW122743   3.981   9.405   2.527 -0.0007  0.1288 -0.3632
 4178SOL    HW222744   3.828   9.457   2.501 -0.4701 -1.3696 -0.6474
 4179SOL     OW22745   8.444   2.025   1.077 -0.4836  0.2580 -0.5728
 4179SOL    HW122746   8.518   2.024   1.144  0.0054  1.3062 -1.0708
 4179SOL    HW222747   8.356   2.017   1.123 -0.2277  2.2569  0.3217
 4180SOL     OW22748   3.228   0.297   0.675  0.3016  0.0715  0.0359
 4180SOL    HW122749   3.280   0.335   0.598 -0.2713 -0.6371 -0.7145
 4180SOL    HW222750   3.290   0.246   0.735  0.3923 -1.2838 -1.1849
 4181SOL     OW22751   0.024   0.781   3.338  0.1576 -0.4712  0.4781
 4181SOL    HW122752  -0.054   0.725   3.362  2.3732 -3.3164  1.3207
 4181SOL    HW222753   0.049   0.765   3.242 -0.7966  1.0831 -0.0409
 4182SOL     OW22754   9.006   3.937   1.060 -0.3490 -0.2581  0.3032
 4182SOL    HW122755   8.909   3.936   1.038 -0.2817  0.7463 -0.1007
 4182SOL    HW222756   9.024   4.011   1.125 -0.1173 -1.5203  1.7117
 4183SOL     OW22757   3.308   9.687   3.014 -0.5512 -0.1709  0.1063
 4183SOL    HW122758   3.235   9.634   2.970 -1.2465  0.4386  0.5025
 4183SOL    HW222759   3.287   9.700   3.111 -0.3807  0.7893  0.0283
 4184SOL     OW22760   0.304   0.900   1.738 -0.1665 -0.5320 -0.0294
 4184SOL    HW122761   0.255   0.985   1.759  0.1684 -0.4553  0.4411
 4184SOL    HW222762   0.301   0.884   1.639 -1.4003 -0.6937  0.0347
 4185SOL     OW22763   9.404   4.074   3.431 -0.1740  0.8202  0.0304
 4185SOL    HW122764   9.406   4.027   3.519  0.1633 -0.1711 -0.4965
 4185SOL    HW222765   9.471   4.148   3.430  1.0981 -0.3258 -0.0274
 4186SOL     OW22766   8.687   3.928   2.046 -0.1140  0.0475  0.3095
 4186SOL    HW122767   8.661   3.932   1.950  0.9173 -0.6661 -0.0123
 4186SOL    HW222768   8.787   3.935   2.054 -0.1488 -0.4606  1.2846
 4187SOL     OW22769   0.986   6.160   2.069 -0.1526 -0.2400 -0.2096
 4187SOL    HW122770   1.076   6.174   2.109 -0.5742  1.3835  0.2332
 4187SOL    HW222771   0.995   6.144   1.971  0.6285 -0.2742 -0.1364
 4188SOL     OW22772   3.007   9.988   2.500  0.4193  0.1042  0.0391
 4188SOL    HW122773   3.025  10.082   2.471 -0.0689  0.3072  0.3815
 4188SOL    HW222774   2.930   9.951   2.447 -0.1976  0.3268  0.7749
 4189SOL     OW22775   0.260   9.829   0.277  0.7774  0.5849 -0.0170
 4189SOL    HW122776   0.211   9.885   0.210 -1.6607 -0.0793  1.1218
 4189SOL    HW222777   0.326   9.770   0.230 -2.0032 -1.0335 -2.0848
 4190SOL     OW22778   3.307   8.739   1.247 -0.2421 -0.0241 -0.0634
 4190SOL    HW122779   3.373   8.804   1.207 -0.7967  0.2454 -0.5464
 4190SOL    HW222780   3.262   8.781   1.325  0.6719 -0.4697  0.7233
 4191SOL     OW22781   9.935   4.465   3.165 -0.2443 -0.6279 -0.4261
 4191SOL    HW122782   9.903   4.559   3.160  2.2042  0.4453  2.2451
 4191SOL    HW222783   9.859   4.405   3.189 -1.4518  0.9394 -0.2557
 4192SOL     OW22784   8.113   0.043   2.067 -0.1230  0.6697 -0.1626
 4192SOL    HW122785   8.160   0.122   2.108 -1.9607  0.1325  3.0994
 4192SOL    HW222786   8.175  -0.036   2.066  0.1246  0.8383  1.1038
 4193SOL     OW22787   9.552   3.432   0.013 -0.0876  0.0348  0.4982
 4193SOL    HW122788   9.557   3.527  -0.015 -0.2103  0.6750  2.5310
 4193SOL    HW222789   9.644   3.393   0.019 -0.0319  0.0513 -0.2208
 4194SOL     OW22790   0.750   9.338   2.094 -0.8475  0.5104 -0.4038
 4194SOL    HW122791   0.785   9.394   2.019 -1.9068  2.7043  0.6631
 4194SOL    HW222792   0.776   9.380   2.181 -0.6622 -1.3362  0.4411
 4195SOL     OW22793   3.868   3.469   0.790  0.0816 -0.3918 -0.3801
 4195SOL    HW122794   3.788   3.525   0.767  0.1982 -0.3206 -0.6066
 4195SOL    HW222795   3.938   3.480   0.720  1.0179  0.9627  0.7602
 4196SOL     OW22796   2.034   0.393   3.076 -0.5786  0.1159 -0.0613
 4196SOL    HW122797   1.942   0.397   3.035 -1.3445 -0.7473  1.5413
 4196SOL    HW222798   2.037   0.454   3.155 -0.2100 -0.9567  0.7486
 4197SOL     OW22799   5.425   9.695   2.308  0.0925  0.9534  0.1393
 4197SOL    HW122800   5.390   9.726   2.397 -0.0093  1.5066 -0.0921
 4197SOL    HW222801   5.352   9.698   2.240 -0.1873 -0.7557  0.3308
 4198SOL     OW22802   6.689   0.165   2.505  0.4195 -0.1262  0.3903
 4198SOL    HW122803   6.751   0.150   2.583  1.6375  0.6531 -0.4134
 4198SOL    HW222804   6.598   0.188   2.540  0.7197 -0.7057  1.5967
 4199SOL     OW22805   3.911   3.905   1.127 -0.7268 -0.3048 -0.3597
 4199SOL    HW122806   3.909   4.005   1.123 -1.8212 -0.3441 -1.0797
 4199SOL    HW222807   3.964   3.871   1.049 -0.9801 -0.3056 -0.5327
 4200SOL     OW22808   0.324   2.080   2.695 -0.1740 -0.6456 -0.1858
 4200SOL    HW122809   0.351   2.019   2.621  1.4517 -0.2568  0.0568
 4200SOL    HW222810   0.395   2.080   2.766 -1.1395 -0.0848  0.8031
 4201SOL     OW22811   1.952   7.062   2.522 -0.0672 -0.3708 -0.4419
 4201SOL    HW122812   1.868   7.073   2.469 -1.0197  1.7572  1.4767
 4201SOL    HW222813   2.022   7.124   2.487 -0.1963 -0.0950 -0.2081
 4202SOL     OW22814   1.146   3.521   0.274  0.8748 -0.1748  0.2622
 4202SOL    HW122815   1.069   3.494   0.332 -0.9277  0.6606 -1.6562
 4202SOL    HW222816   1.190   3.602   0.313 -0.0131  0.0915  0.7255
 4203SOL     OW22817   7.825   4.922   0.592 -0.0259  0.5396  0.0462
 4203SOL    HW122818   7.870   4.840   0.628  0.5573  2.0254  2.8181
 4203SOL    HW222819   7.893   4.993   0.576 -0.7404  1.0360 -0.8579
 4204SOL     OW22820   0.742   7.094   2.529 -0.0291  0.2400 -0.2417
 4204SOL    HW122821   0.811   7.164   2.548 -0.6050  0.4754  0.9946
 4204SOL    HW222822   0.663   7.136   2.484 -0.4551  0.4201  0.6716
 4205SOL     OW22823   8.649   3.940   3.283 -0.1795  0.0327  0.2342
 4205SOL    HW122824   8.578   3.950   3.353  0.3756 -0.6475  0.9116
 4205SOL    HW222825   8.616   3.881   3.210  0.0429 -1.1412  1.0582
 4206SOL     OW22826   9.743   0.942   2.648  0.8170 -0.2308  0.1115
 4206SOL    HW122827   9.740   1.040   2.625 -0.3034  0.0324  1.3476
 4206SOL    HW222828   9.658   0.899   2.618  1.8197 -1.1089 -1.5678
 4207SOL     OW22829   0.475   0.868   0.716  0.1343 -0.5955  0.1396
 4207SOL    HW122830   0.524   0.829   0.795  0.0661  0.1004  0.5295
 4207SOL    HW222831   0.396   0.920   0.749 -0.6169 -1.3499 -0.4650
 4208SOL     OW22832   1.687   7.186   1.823 -0.1645  0.1415  0.1521
 4208SOL    HW122833   1.770   7.132   1.838 -1.6443 -2.5816 -1.0598
 4208SOL    HW222834   1.701   7.249   1.747  0.6479 -0.6557 -0.3697
 4209SOL     OW22835   1.625   0.246   2.542  0.0749  0.3984 -0.5498
 4209SOL    HW122836   1.725   0.243   2.536  0.0399 -1.2666 -0.4062
 4209SOL    HW222837   1.586   0.182   2.476 -0.8915  0.6050 -0.1733
 4210SOL     OW22838   8.497   4.263   0.071  0.0802  0.0688 -0.4293
 4210SOL    HW122839   8.407   4.223   0.089  0.0142  0.9728  1.3753
 4210SOL    HW222840   8.565   4.190   0.069 -0.3567 -0.3877  0.5979
 4211SOL     OW22841   2.989   7.992   0.818  0.3575 -0.5894  0.1291
 4211SOL    HW122842   3.079   7.994   0.860  0.4096 -2.6049  0.1686
 4211SOL    HW222843   2.927   8.053   0.867  1.2366 -0.5585  1.1984
 4212SOL     OW22844   4.006   3.755   1.369  0.4937 -0.1368  0.1334
 4212SOL    HW122845   3.972   3.800   1.286 -0.3349 -4.2547 -1.9055
 4212SOL    HW222846   4.076   3.688   1.344  1.3198 -0.4141  2.9954
 4213SOL     OW22847   9.278   3.676   0.534  0.1002  0.7394  0.3913
 4213SOL    HW122848   9.374   3.683   0.561  0.0177  1.1022  0.5978
 4213SOL    HW222849   9.269   3.703   0.438  0.1831  0.8561  0.4161
 4214SOL     OW22850   2.157   8.318   0.435 -0.1101 -0.6465 -0.4754
 4214SOL    HW122851   2.145   8.219   0.443 -1.7694 -0.3144  1.4169
 4214SOL    HW222852   2.205   8.352   0.516 -0.1593  0.1983 -0.7986
 4215SOL     OW22853   3.560   4.099   0.968  0.2507  0.0862 -0.8667
 4215SOL    HW122854   3.492   4.172   0.957  1.0044  0.8845 -0.2374
 4215SOL    HW222855   3.575   4.082   1.066 -0.7252 -1.6641 -1.0062
 4216SOL     OW22856   2.778   7.647   2.185 -0.6447  0.1879 -0.0083
 4216SOL    HW122857   2.751   7.704   2.107 -1.3275 -0.5785 -0.3342
 4216SOL    HW222858   2.701   7.636   2.246 -0.2656  0.3155  0.4980
 4217SOL     OW22859   2.042   5.780   2.145 -0.0490 -0.0981 -0.3593
 4217SOL    HW122860   2.002   5.690   2.160  0.3945 -0.6146 -2.2124
 4217SOL    HW222861   2.140   5.777   2.162  0.0575 -0.1016 -0.9737
 4218SOL     OW22862   2.195   2.613   0.225  0.2832 -0.1279  0.3963
 4218SOL    HW122863   2.223   2.529   0.178  1.5085  0.3528  0.2534
 4218SOL    HW222864   2.269   2.644   0.285 -0.4423  0.4552  1.0010
 4219SOL     OW22865   0.056   2.044   1.035  0.2964  0.1340 -0.5195
 4219SOL    HW122866   0.056   2.053   0.935 -1.0812 -1.5456 -0.6963
 4219SOL    HW222867   0.150   2.050   1.068  0.8215  0.2853 -1.9717
 4220SOL     OW22868   2.082   5.203   3.298 -0.0631 -0.2526 -0.4234
 4220SOL    HW122869   2.172   5.209   3.256  1.2754 -0.6079  2.2955
 4220SOL    HW222870   2.012   5.200   3.227  1.7718  3.8518 -2.6021
 4221SOL     OW22871   9.596   4.403   1.531  0.0909  0.4631  0.0136
 4221SOL    HW122872   9.617   4.311   1.563  0.8154  1.5328  2.7940
 4221SOL    HW222873   9.497   4.417   1.531  0.0945  0.9233  3.4641
 4222SOL     OW22874   8.396   1.532   0.955 -0.1968 -0.1727  0.5610
 4222SOL    HW122875   8.382   1.445   0.907  1.1707  1.0089 -2.0691
 4222SOL    HW222876   8.340   1.603   0.912  2.1544  1.2260 -0.2757
 4223SOL     OW22877   0.457   9.586   2.445  0.7574 -0.3653 -0.1437
 4223SOL    HW122878   0.374   9.632   2.414 -0.2706 -1.7838  0.4724
 4223SOL    HW222879   0.504   9.546   2.366 -0.0680 -1.0533 -0.2893
 4224SOL     OW22880   9.891   6.379   3.377  0.0141  0.0570 -0.1310
 4224SOL    HW122881   9.806   6.430   3.389  0.8210  1.3457  0.2811
 4224SOL    HW222882   9.939   6.374   3.465  0.2474 -0.8910 -0.3019
 4225SOL     OW22883   0.809   3.681   1.206  0.4531 -0.1763  0.8530
 4225SOL    HW122884   0.709   3.690   1.200  0.5239 -0.5146 -0.9484
 4225SOL    HW222885   0.837   3.592   1.172  1.3020 -0.4716  2.2966
 4226SOL     OW22886   2.076   6.675   1.092 -0.2906  0.0024  0.1802
 4226SOL    HW122887   2.110   6.602   1.033  0.2745 -0.5681  1.1871
 4226SOL    HW222888   2.121   6.669   1.181  0.3156  2.0510  0.0277
 4227SOL     OW22889   1.676   2.253   2.255 -0.0224  0.3681  0.1399
 4227SOL    HW122890   1.673   2.337   2.308 -2.5661  0.5538 -0.2064
 4227SOL    HW222891   1.583   2.214   2.249  0.5656 -0.7852 -2.3021
 4228SOL     OW22892   1.640   6.470   2.774  0.2540 -0.4003  0.4494
 4228SOL    HW122893   1.718   6.532   2.766  0.5640 -0.6125  1.7740
 4228SOL    HW222894   1.649   6.397   2.706  0.3771  0.4648 -0.4759
 4229SOL     OW22895   0.569   9.445   2.705 -0.4703 -0.7982  0.0867
 4229SOL    HW122896   0.473   9.466   2.686 -0.6715 -1.8335 -0.0151
 4229SOL    HW222897   0.626   9.514   2.661 -1.0963 -1.0346 -1.1290
 4230SOL     OW22898   0.853   9.700   0.302  0.0920  0.3493  0.2715
 4230SOL    HW122899   0.801   9.775   0.261 -0.6537 -0.5075 -0.3743
 4230SOL    HW222900   0.822   9.686   0.396 -0.9453 -0.2294 -0.1446
 4231SOL     OW22901   9.112   2.896   2.963 -0.3951 -0.0656  0.0570
 4231SOL    HW122902   9.192   2.955   2.972  0.4401 -0.6911 -2.6461
 4231SOL    HW222903   9.029   2.948   2.985  0.0960  2.9178 -4.5487
 4232SOL     OW22904   2.872   4.367   0.428  0.0525 -0.4754 -0.4446
 4232SOL    HW122905   2.859   4.410   0.339  1.7296 -2.7309 -1.8511
 4232SOL    HW222906   2.790   4.315   0.452 -0.5994  0.5567 -0.4308
 4233SOL     OW22907   2.384   7.091   1.026 -0.3316  0.6183 -0.9666
 4233SOL    HW122908   2.347   7.183   1.017 -0.7331  0.5773  0.1949
 4233SOL    HW222909   2.484   7.094   1.017 -0.3162  1.2194 -0.6045
 4234SOL     OW22910   4.642   1.188   2.514  0.7642  0.2341  0.3423
 4234SOL    HW122911   4.628   1.120   2.585  0.1895 -0.1347 -0.1118
 4234SOL    HW222912   4.569   1.257   2.518  1.0582  0.5414  0.4797
 4235SOL     OW22913   1.319   8.056   3.164 -0.6093  0.6302 -0.0708
 4235SOL    HW122914   1.287   7.979   3.108  0.0919 -0.1744  0.6071
 4235SOL    HW222915   1.283   8.141   3.128 -1.7460 -0.0630 -0.5897
 4236SOL     OW22916   2.338   3.181   2.305 -0.8896 -0.5328  0.3145
 4236SOL    HW122917   2.402   3.124   2.355  0.1437 -1.1252 -1.6426
 4236SOL    HW222918   2.265   3.124   2.267 -0.2125 -0.4877 -1.0874
 4237SOL     OW22919   2.234   1.268   0.020 -0.2849 -0.4902  0.0188
 4237SOL    HW122920   2.214   1.191   0.081 -1.4353 -0.4650 -0.3210
 4237SOL    HW222921   2.228   1.237  -0.075  1.8388 -0.6196 -0.1075
 4238SOL     OW22922   0.383   4.238   1.695 -0.5244 -0.1365 -0.0987
 4238SOL    HW122923   0.306   4.249   1.632 -0.5146 -2.2221 -0.5061
 4238SOL    HW222924   0.449   4.311   1.678 -1.0523  0.0012 -1.7334
 4239SOL     OW22925   7.150   4.543   0.163 -0.8530 -0.2769  0.0680
 4239SOL    HW122926   7.234   4.575   0.120 -1.1817  0.8769  0.2625
 4239SOL    HW222927   7.169   4.462   0.218  0.0980 -0.1324 -0.0400
 4240SOL     OW22928   8.474   2.632   2.485  0.1591  0.5536  0.6638
 4240SOL    HW122929   8.544   2.573   2.523 -0.4713  0.1145  1.1625
 4240SOL    HW222930   8.493   2.728   2.509  0.4922  0.4155  0.9450
 4241SOL     OW22931   4.064   0.745   2.169 -0.1082 -0.1698  0.2859
 4241SOL    HW122932   4.049   0.751   2.268 -0.0899 -1.0378  0.3451
 4241SOL    HW222933   3.984   0.779   2.121 -0.6646 -0.9955  0.6075
 4242SOL     OW22934   2.826   8.321   3.310  0.5523  0.5469  0.4186
 4242SOL    HW122935   2.831   8.226   3.341  0.7416  0.3966 -0.0526
 4242SOL    HW222936   2.820   8.382   3.389  1.2652  0.1911  0.7535
 4243SOL     OW22937   8.657   0.904   2.407 -0.2788  0.0112 -0.4944
 4243SOL    HW122938   8.611   0.827   2.452  0.3223  1.4937  2.7987
 4243SOL    HW222939   8.609   0.989   2.428 -1.2738  0.5854 -4.5654
 4244SOL     OW22940   0.026   7.266   1.202 -0.0653 -0.1709  0.1242
 4244SOL    HW122941  -0.065   7.300   1.176 -0.6278  0.0795  2.3386
 4244SOL    HW222942   0.093   7.340   1.194 -0.2786 -0.0312 -0.3586
 4245SOL     OW22943   2.221   0.837   2.568 -0.7061 -0.6206 -0.0436
 4245SOL    HW122944   2.221   0.738   2.562 -0.7988 -0.5122 -2.1211
 4245SOL    HW222945   2.128   0.872   2.556 -0.4536 -0.2049 -0.8211
 4246SOL     OW22946   3.355   4.440   1.184 -0.4039  0.9584  0.3062
 4246SOL    HW122947   3.444   4.484   1.174  0.1053  0.1166  1.0594
 4246SOL    HW222948   3.326   4.445   1.280  1.0681 -2.9560  1.0493
 4247SOL     OW22949   2.663   3.966   0.518  0.7148 -0.1061  0.3645
 4247SOL    HW122950   2.619   4.055   0.510  1.3015  0.4093  2.7539
 4247SOL    HW222951   2.593   3.895   0.527  0.2977  0.3412  0.6938
 4248SOL     OW22952   4.066   2.392   2.162 -0.1638  0.4815 -0.3587
 4248SOL    HW122953   4.097   2.474   2.114  0.4582  0.8834  0.7026
 4248SOL    HW222954   4.142   2.328   2.171 -1.0140 -0.8971 -2.5179
 4249SOL     OW22955   1.179   7.221   2.096 -0.2030  0.2563  0.3549
 4249SOL    HW122956   1.267   7.223   2.048 -0.2284  0.9248  0.3209
 4249SOL    HW222957   1.168   7.133   2.142  0.6236  0.2774  0.6083
 4250SOL     OW22958   0.248   4.271   0.567 -0.0223 -0.4678 -0.6094
 4250SOL    HW122959   0.241   4.361   0.611 -1.3573 -0.7583 -0.2032
 4250SOL    HW222960   0.157   4.239   0.542  0.4913 -1.4963 -1.2045
 4251SOL     OW22961   9.132   0.590   0.318  0.1348 -0.3507 -0.0092
 4251SOL    HW122962   9.167   0.503   0.281  1.2187  0.7986 -1.7689
 4251SOL    HW222963   9.052   0.619   0.266  1.5487  1.1804 -1.3759
 4252SOL     OW22964   3.425   5.842   3.295  0.5480  0.3469  0.1484
 4252SOL    HW122965   3.424   5.783   3.375 -0.0444  0.1342 -0.0122
 4252SOL    HW222966   3.332   5.876   3.277  0.2507 -1.3497 -1.7377
 4253SOL     OW22967   1.528   2.101   3.061 -0.2231 -0.2040 -0.1765
 4253SOL    HW122968   1.542   2.005   3.087 -3.2582 -0.4510  0.7593
 4253SOL    HW222969   1.578   2.160   3.125 -1.7811 -1.0525  1.8678
 4254SOL     OW22970   3.343   9.748   1.861  0.0382 -0.0301  0.4170
 4254SOL    HW122971   3.287   9.737   1.778  0.7443 -0.1511 -0.0497
 4254SOL    HW222972   3.421   9.807   1.840 -0.1835  0.5424  1.1943
 4255SOL     OW22973   4.026   7.910   1.079  0.0142  0.6565  0.2758
 4255SOL    HW122974   3.971   7.839   1.124 -1.0812  1.0179 -0.4475
 4255SOL    HW222975   4.099   7.940   1.140  0.3317 -0.9051  0.6925
 4256SOL     OW22976   0.395   1.350   3.379 -0.1160 -0.1889  0.3132
 4256SOL    HW122977   0.295   1.344   3.390  0.1630 -0.4425  2.9873
 4256SOL    HW222978   0.425   1.443   3.400 -0.1219  0.8305 -3.8112
 4257SOL     OW22979   2.086   8.732   2.303  0.1299 -0.4008  0.5040
 4257SOL    HW122980   1.998   8.708   2.264 -0.3886 -1.6008  2.3431
 4257SOL    HW222981   2.074   8.799   2.375  0.8674  0.3811 -0.0865
 4258SOL     OW22982   1.122   7.201   0.672  0.3627 -0.0793 -0.2603
 4258SOL    HW122983   1.102   7.174   0.766  0.7879 -0.0553 -0.1603
 4258SOL    HW222984   1.045   7.177   0.613  0.9518 -2.0160 -0.2799
 4259SOL     OW22985   4.038   7.702   2.782 -0.1704 -0.1270  0.1741
 4259SOL    HW122986   4.011   7.799   2.780  0.4685  0.0395 -0.9809
 4259SOL    HW222987   3.964   7.648   2.822 -0.7272  0.7728  0.3932
 4260SOL     OW22988   1.289   8.099   0.021 -0.0487 -0.0760 -0.0931
 4260SOL    HW122989   1.200   8.131  -0.013 -0.5901 -1.4590 -0.0119
 4260SOL    HW222990   1.344   8.066  -0.056 -0.7920 -2.0453  0.1965
 4261SOL     OW22991   2.609   2.717   2.345 -0.3753  0.4242  0.2811
 4261SOL    HW122992   2.589   2.642   2.283  1.3714  1.2842 -1.3856
 4261SOL    HW222993   2.536   2.725   2.413 -1.8580 -1.1280 -1.0908
 4262SOL     OW22994   1.210   2.811   3.109 -0.3753 -0.0459 -0.3476
 4262SOL    HW122995   1.282   2.836   3.174 -0.1882  0.2198 -0.6546
 4262SOL    HW222996   1.191   2.890   3.050 -0.9236 -0.1126 -0.2596
 4263SOL     OW22997   9.841   6.576   0.712 -0.5291 -0.3393  0.2073
 4263SOL    HW122998   9.930   6.618   0.729  0.0126 -0.7234 -1.5786
 4263SOL    HW222999   9.777   6.602   0.784  1.7701 -2.2661  3.0542
 4264SOL     OW23000   0.526   5.031   0.096  0.4574  0.1006  0.7568
 4264SOL    HW123001   0.482   4.970   0.030 -1.3973  1.2627  0.8925
 4264SOL    HW223002   0.623   5.041   0.073  0.5247 -1.9176  0.0228
 4265SOL     OW23003   3.368   5.974   2.971 -0.2242  0.0463 -0.1336
 4265SOL    HW123004   3.274   5.987   3.003 -0.5889  1.0947 -1.5704
 4265SOL    HW223005   3.412   6.063   2.959  0.0550 -0.3206 -2.0320
 4266SOL     OW23006   2.158   5.760   2.953  0.0118  0.3445  0.4725
 4266SOL    HW123007   2.257   5.748   2.961  0.1049 -0.1966 -1.3032
 4266SOL    HW223008   2.112   5.677   2.983  0.1701 -0.0492 -0.3663
 4267SOL     OW23009   2.936   2.244   1.106  0.5893  0.7491 -0.2546
 4267SOL    HW123010   2.997   2.174   1.069 -2.5666 -1.8240 -0.8423
 4267SOL    HW223011   2.888   2.290   1.032 -0.1838  0.8248  0.2794
 4268SOL     OW23012   9.927   5.344   1.485  0.3981 -0.4513 -0.0895
 4268SOL    HW123013   9.953   5.440   1.484  2.0995 -0.9067 -1.8994
 4268SOL    HW223014   9.831   5.336   1.456 -0.5769  0.8732  2.5704
 4269SOL     OW23015   3.341   6.300   0.112 -0.2453  0.1600  0.3176
 4269SOL    HW123016   3.371   6.205   0.110  0.0569  0.2523  0.5207
 4269SOL    HW223017   3.271   6.312   0.182  0.8638  0.4300  1.3890
 4270SOL     OW23018   0.826   0.719   2.231 -0.4596  0.4772 -0.2131
 4270SOL    HW123019   0.831   0.780   2.310 -1.9065  0.6317 -0.2154
 4270SOL    HW223020   0.864   0.630   2.255  0.9427  1.1371  0.0374
 4271SOL     OW23021   1.120   0.946   1.663 -0.5493 -0.0018  0.1812
 4271SOL    HW123022   1.118   0.891   1.580  0.7758  1.4938 -0.8869
 4271SOL    HW223023   1.033   0.994   1.673 -1.2538 -1.3000  0.4594
 4272SOL     OW23024   0.439   6.278   3.068  0.0728  0.5818  0.1822
 4272SOL    HW123025   0.382   6.276   2.985  0.0270  1.2363  0.1904
 4272SOL    HW223026   0.406   6.210   3.133 -0.4303  0.6566  0.0090
 4273SOL     OW23027   0.182   1.390   1.615  0.1083  0.3370  0.1318
 4273SOL    HW123028   0.183   1.391   1.515 -1.4892 -1.3502  0.0634
 4273SOL    HW223029   0.223   1.474   1.650 -1.6854  2.1638 -1.9634
 4274SOL     OW23030   9.779   5.741   0.633 -0.2141 -0.1112 -0.1519
 4274SOL    HW123031   9.842   5.795   0.578  0.0328 -1.8649 -1.6619
 4274SOL    HW223032   9.832   5.677   0.690 -0.4119  2.3487  2.9419
 4275SOL     OW23033   1.493   2.956   1.840  0.0453 -0.2757 -0.1751
 4275SOL    HW123034   1.543   2.869   1.841  1.0986  0.3083 -1.1126
 4275SOL    HW223035   1.552   3.029   1.874 -0.7538  0.1212  0.3717
 4276SOL     OW23036   9.906   3.457   2.937 -0.2419  0.0527 -0.3969
 4276SOL    HW123037   9.828   3.428   2.882 -0.3990 -1.1566  0.4294
 4276SOL    HW223038   9.881   3.457   3.034  0.9915 -1.1449 -0.0494
 4277SOL     OW23039   2.835   6.905   1.157 -0.0853 -0.4259  0.1518
 4277SOL    HW123040   2.916   6.853   1.130  1.6210  1.8033  0.8358
 4277SOL    HW223041   2.820   6.895   1.255  2.3481  3.0415  0.9929
 4278SOL     OW23042   3.038   3.389   1.204  0.2136 -0.2832 -0.3841
 4278SOL    HW123043   3.052   3.468   1.144  0.8704 -0.9398 -1.1036
 4278SOL    HW223044   2.941   3.379   1.224 -0.0519 -0.2910 -1.6519
 4279SOL     OW23045   2.629   2.593   1.844  0.1070 -0.0399  0.4948
 4279SOL    HW123046   2.684   2.596   1.760  0.2949 -0.1447  0.6119
 4279SOL    HW223047   2.551   2.532   1.831  0.2008 -0.1470  0.4350
 4280SOL     OW23048   7.796   2.819   0.712 -0.2262 -1.0388  0.7307
 4280SOL    HW123049   7.758   2.813   0.804  1.1769  1.1584  1.4916
 4280SOL    HW223050   7.883   2.769   0.708 -0.3900 -1.3125  0.5262
 4281SOL     OW23051   9.082   4.070   0.834 -0.1366  0.4123 -0.2014
 4281SOL    HW123052   9.011   4.136   0.861 -0.7575 -0.4141  0.2269
 4281SOL    HW223053   9.066   3.984   0.882  0.0618 -0.3762 -1.5329
 4282SOL     OW23054   1.770   8.696   0.631  0.0488  0.0919  0.4085
 4282SOL    HW123055   1.780   8.627   0.560 -1.0998 -1.0253  1.3013
 4282SOL    HW223056   1.720   8.774   0.594  0.3877 -0.0269 -0.3063
 4283SOL     OW23057   4.653   8.374   2.771 -0.3663 -0.1590 -0.4841
 4283SOL    HW123058   4.686   8.424   2.851 -1.4284  0.5907 -0.5086
 4283SOL    HW223059   4.731   8.337   2.720  0.2950 -1.8280  1.6358
 4284SOL     OW23060   9.337   0.429   0.192 -0.7168 -0.2241 -0.4111
 4284SOL    HW123061   9.394   0.348   0.203 -1.6441 -0.7406  0.8288
 4284SOL    HW223062   9.348   0.466   0.100  1.9439 -0.0266 -0.0471
 4285SOL     OW23063   2.749   1.536   0.421 -0.3621  0.5327 -0.3690
 4285SOL    HW123064   2.823   1.561   0.484  0.4914  1.3977 -1.6821
 4285SOL    HW223065   2.710   1.448   0.449  1.7390 -0.3700 -0.1415
 4286SOL     OW23066   1.665   7.174   3.169 -0.3030  0.6566  0.2492
 4286SOL    HW123067   1.621   7.170   3.259 -0.3084 -2.9683  0.1638
 4286SOL    HW223068   1.688   7.081   3.139  0.1512  1.8347 -3.2819
 4287SOL     OW23069   9.133   1.207   1.947  0.0931 -0.3532 -0.2474
 4287SOL    HW123070   9.054   1.165   1.903  0.3451 -0.8213 -0.2567
 4287SOL    HW223071   9.151   1.297   1.907 -1.2610  0.3493  0.6695
 4288SOL     OW23072   1.712   4.872   0.964  0.2410  0.0015 -0.1725
 4288SOL    HW123073   1.788   4.817   0.998 -0.4604 -1.6905 -1.2757
 4288SOL    HW223074   1.680   4.834   0.877 -1.8447  0.6922  0.2644
 4289SOL     OW23075   1.675   7.470   0.478  0.4466  0.4375  0.2425
 4289SOL    HW123076   1.651   7.415   0.557 -0.4697  0.3487 -0.1008
 4289SOL    HW223077   1.691   7.565   0.507  0.1153  0.4056  0.5260
 4290SOL     OW23078   2.485   2.618   1.054 -0.6886 -0.4216  0.0420
 4290SOL    HW123079   2.528   2.543   1.106  0.2422  0.9594  1.3095
 4290SOL    HW223080   2.388   2.621   1.075 -0.1891  0.6247  2.3917
 4291SOL     OW23081   2.333   8.432   2.066 -0.5572  0.2987 -0.0586
 4291SOL    HW123082   2.237   8.405   2.071 -0.9220  1.6715  0.5821
 4291SOL    HW223083   2.384   8.388   2.139 -0.8635  0.2021  0.0978
 4292SOL     OW23084   0.194   6.880   0.605  0.3017 -0.3431  0.1031
 4292SOL    HW123085   0.282   6.835   0.619 -0.4620 -1.8957  0.0157
 4292SOL    HW223086   0.204   6.978   0.623  1.4161 -0.8831  2.6874
 4293SOL     OW23087   9.108   0.920   3.287  0.2802  0.4842 -0.0635
 4293SOL    HW123088   9.091   0.823   3.304  1.6187  0.2433 -0.0551
 4293SOL    HW223089   9.183   0.930   3.222  0.1253  1.5105 -0.0970
 4294SOL     OW23090   1.578   1.318   2.584  0.5808  0.1025 -0.2288
 4294SOL    HW123091   1.611   1.253   2.652 -1.0798  0.8293  1.3323
 4294SOL    HW223092   1.617   1.408   2.602 -0.8431  0.5854  0.5939
 4295SOL     OW23093   9.039   0.828   1.367 -0.2866 -0.3204 -0.1847
 4295SOL    HW123094   9.099   0.786   1.435  1.6758  0.4066 -1.4240
 4295SOL    HW223095   9.080   0.913   1.335 -3.6183  1.9855  1.4052
 4296SOL     OW23096   0.019   9.489   2.996 -0.0481  0.3228 -0.1083
 4296SOL    HW123097   0.029   9.504   3.094 -0.4805  1.2449 -0.2020
 4296SOL    HW223098  -0.025   9.400   2.980  0.7408 -0.1811  0.5074
 4297SOL     OW23099   8.414   1.356   2.367 -0.1194 -0.1519 -0.1888
 4297SOL    HW123100   8.465   1.408   2.435  1.1953  0.3666 -1.5718
 4297SOL    HW223101   8.316   1.373   2.380  0.3167  3.6008 -1.3450
 4298SOL     OW23102   9.901   5.121   2.998 -0.4867  0.0122  0.4759
 4298SOL    HW123103   9.984   5.148   2.949 -1.8114  2.0423 -0.7607
 4298SOL    HW223104   9.897   5.022   3.006  0.5433 -0.2931 -2.2177
 4299SOL     OW23105   9.609   3.980   2.818 -0.0608  0.0733 -0.6841
 4299SOL    HW123106   9.562   4.013   2.736 -2.4484 -1.7895 -0.1196
 4299SOL    HW223107   9.628   3.883   2.809 -0.0748 -0.0807  0.8256
 4300SOL     OW23108   3.097   9.849   0.629 -0.2055 -0.0524 -0.4849
 4300SOL    HW123109   3.097   9.818   0.724  0.2080  1.1524 -0.0741
 4300SOL    HW223110   3.003   9.851   0.595 -0.2074 -1.9885 -0.6188
 4301SOL     OW23111   1.017   3.946   3.418  0.6510  0.1451  0.5508
 4301SOL    HW123112   1.006   4.000   3.501  2.5312  0.8560  0.3679
 4301SOL    HW223113   0.968   3.990   3.342  0.1465  0.2714  0.9502
 4302SOL     OW23114   2.966   7.169   0.893 -0.3023  0.1879  0.5526
 4302SOL    HW123115   2.938   7.254   0.848 -1.0623  0.1114  0.8611
 4302SOL    HW223116   3.040   7.126   0.842 -0.4122  0.6684 -0.0075
 4303SOL     OW23117   3.048   3.254   1.436  0.5041 -0.5328  0.3186
 4303SOL    HW123118   3.026   3.161   1.405 -0.7814 -0.1462  0.0198
 4303SOL    HW223119   3.063   3.313   1.357 -1.9670  0.2672  0.4019
 4304SOL     OW23120   1.283   9.442   0.220  0.5288  0.5653  0.4835
 4304SOL    HW123121   1.383   9.444   0.232  0.5877 -1.0618  0.3632
 4304SOL    HW223122   1.259   9.376   0.149 -0.5763  1.8518 -0.3787
 4305SOL     OW23123   4.035   7.774   0.233 -0.7484 -0.3579 -0.8217
 4305SOL    HW123124   4.097   7.696   0.223 -0.4902 -0.3120  0.3749
 4305SOL    HW223125   4.037   7.829   0.150  1.1272 -0.1304 -0.6441
 4306SOL     OW23126   8.951   1.078   0.087 -0.5994  0.0087 -0.6101
 4306SOL    HW123127   9.008   1.069   0.005 -2.6806 -1.4697 -1.9334
 4306SOL    HW223128   8.951   0.992   0.137  0.3162  0.7817  0.7474
 4307SOL     OW23129   1.742   7.880   2.094 -0.4842 -0.1363  0.3197
 4307SOL    HW123130   1.710   7.812   2.160  0.4625  0.4110  1.3584
 4307SOL    HW223131   1.780   7.959   2.143  0.1019  0.3370 -0.8778
 4308SOL     OW23132   7.936   0.629   1.345 -0.0741  0.7274 -0.1737
 4308SOL    HW123133   7.863   0.568   1.376 -0.5438  1.8957  1.0546
 4308SOL    HW223134   8.008   0.575   1.301 -1.6511 -0.4389 -1.3832
 4309SOL     OW23135   2.606   4.198   0.023  0.4722 -0.0219 -0.1726
 4309SOL    HW123136   2.702   4.192  -0.005  0.2503 -0.5937 -0.8446
 4309SOL    HW223137   2.597   4.169   0.118  0.8482 -0.8207 -0.3719
 4310SOL     OW23138   3.193   1.335   1.014 -1.0416 -0.5442 -0.0958
 4310SOL    HW123139   3.108   1.286   1.033 -1.0320  0.7223  3.4374
 4310SOL    HW223140   3.224   1.382   1.096  2.8742 -0.6170 -1.4238
 4311SOL     OW23141   9.771   3.540   0.866 -0.7219 -0.0371  0.1228
 4311SOL    HW123142   9.720   3.491   0.937 -2.1720 -1.6402 -1.9642
 4311SOL    HW223143   9.859   3.494   0.850 -0.6029  0.0448  0.5316
 4312SOL     OW23144   8.851   4.898   0.361 -0.1549 -0.3941  0.1258
 4312SOL    HW123145   8.828   4.831   0.290  1.2556 -0.0338 -0.6805
 4312SOL    HW223146   8.930   4.952   0.332 -0.2729  0.5285  1.4796
 4313SOL     OW23147   1.007   7.174   3.043 -0.5426  0.3735 -0.3790
 4313SOL    HW123148   1.064   7.224   3.108 -0.5741 -0.0271 -0.0386
 4313SOL    HW223149   0.951   7.238   2.992  0.8724  0.8501 -1.3596
 4314SOL     OW23150   2.897   8.734   2.738 -0.3085 -0.1512  0.1105
 4314SOL    HW123151   2.874   8.698   2.647 -0.6900 -0.5595  0.3642
 4314SOL    HW223152   2.955   8.668   2.786 -0.5178 -0.1599  0.3504
 4315SOL     OW23153   1.949   3.878   0.078  0.5593 -0.3168  0.2767
 4315SOL    HW123154   1.919   3.835  -0.008 -0.4188 -0.7592  0.8367
 4315SOL    HW223155   1.926   3.975   0.076 -0.1353 -0.4802  0.3513
 4316SOL     OW23156   1.121   8.510   1.840  0.1519  0.0161  0.4174
 4316SOL    HW123157   1.029   8.541   1.817 -0.3178 -1.0593  0.8574
 4316SOL    HW223158   1.184   8.537   1.767 -1.0508 -1.9409 -1.3964
 4317SOL     OW23159   9.691   4.751   0.480  0.4302 -0.7137 -0.2834
 4317SOL    HW123160   9.790   4.743   0.490  0.5044  0.7546  0.2949
 4317SOL    HW223161   9.646   4.694   0.549  0.9363  2.5420  2.9460
 4318SOL     OW23162   8.946   2.394   0.825  0.0435  0.1010 -0.0387
 4318SOL    HW123163   8.933   2.307   0.872 -1.0935  0.1775 -0.1886
 4318SOL    HW223164   8.860   2.446   0.826  0.5404  0.9528 -0.4866
 4319SOL     OW23165   2.402   2.066   1.113 -0.1316  0.3800 -0.7404
 4319SOL    HW123166   2.448   1.980   1.091  1.5780  1.2956 -0.8070
 4319SOL    HW223167   2.342   2.091   1.037 -1.3698 -1.2114 -0.3269
 4320SOL     OW23168   5.569   8.351   2.417 -0.3619 -0.2283  0.2110
 4320SOL    HW123169   5.663   8.324   2.395 -0.4224  0.8312 -1.4307
 4320SOL    HW223170   5.506   8.280   2.387 -0.1404 -0.6757  0.7856
 4321SOL     OW23171   0.339   4.414   1.363 -0.1141 -0.7955  0.4720
 4321SOL    HW123172   0.254   4.380   1.402  0.3829 -2.0865  0.4591
 4321SOL    HW223173   0.409   4.342   1.366  1.0501  0.3195  0.7102
 4322SOL     OW23174   2.907   5.573   0.000  0.1359  0.6211  0.4412
 4322SOL    HW123175   2.883   5.477   0.015 -1.0144  0.5315 -1.8693
 4322SOL    HW223176   2.998   5.579  -0.040 -0.3467  0.4087 -0.7027
 4323SOL     OW23177   3.841   0.241   1.807  0.4604  0.1055  0.2350
 4323SOL    HW123178   3.856   0.235   1.906  1.4028  1.9500  0.2161
 4323SOL    HW223179   3.850   0.336   1.777  0.2265 -0.4388 -1.6340
 4324SOL     OW23180   9.970   2.779   2.863 -0.0529  0.3888 -0.2159
 4324SOL    HW123181   9.942   2.805   2.956 -1.4799  1.5716 -0.9765
 4324SOL    HW223182   9.997   2.682   2.863  1.5423  0.7909  1.7836
 4325SOL     OW23183   0.851   4.031   3.227 -0.2533  0.2886 -0.1684
 4325SOL    HW123184   0.763   4.044   3.272 -0.0386  0.8774  0.0872
 4325SOL    HW223185   0.855   4.088   3.145  0.2234  0.9268  0.2931
 4326SOL     OW23186   0.253   2.490   2.191  0.0057  0.1699  0.7380
 4326SOL    HW123187   0.307   2.476   2.273 -2.8450 -2.1115  2.3034
 4326SOL    HW223188   0.174   2.549   2.212 -0.5833 -0.1913 -0.4114
 4327SOL     OW23189   9.353   3.184   0.566 -0.3690  0.0702 -0.7088
 4327SOL    HW123190   9.345   3.151   0.660  3.0462  2.1429  0.3992
 4327SOL    HW223191   9.267   3.227   0.539 -1.5976 -1.0919  1.2574
 4328SOL     OW23192   3.154   0.353   1.733 -0.8565 -0.1933  0.1988
 4328SOL    HW123193   3.244   0.389   1.758 -0.1821 -1.0786 -0.9364
 4328SOL    HW223194   3.085   0.395   1.792  0.3978 -0.2618  1.7740
 4329SOL     OW23195   8.029   0.451   1.753  0.0971 -0.4362  0.0740
 4329SOL    HW123196   8.048   0.352   1.757 -0.3866 -0.6060 -1.5357
 4329SOL    HW223197   8.096   0.495   1.693 -0.0964  0.1150  0.2626
 4330SOL     OW23198   4.049   3.081   1.393 -0.1523 -0.7335  0.2271
 4330SOL    HW123199   3.965   3.091   1.340  0.9449 -2.0341 -1.8019
 4330SOL    HW223200   4.108   3.160   1.379  0.0942 -1.0321 -0.4340
 4331SOL     OW23201   1.027   7.133   0.257  0.2006 -0.1114  0.1891
 4331SOL    HW123202   1.106   7.193   0.247  0.3119  0.2925  2.9250
 4331SOL    HW223203   0.952   7.165   0.199  1.2799  0.8687 -0.6730
 4332SOL     OW23204   4.445   9.592   2.022 -0.2098 -0.6696  0.1959
 4332SOL    HW123205   4.383   9.659   2.062  0.3856  0.0463 -0.0518
 4332SOL    HW223206   4.526   9.639   1.985  1.3879 -1.7436  2.2149
 4333SOL     OW23207   3.712   8.857   0.063 -0.1233  0.3243 -0.4534
 4333SOL    HW123208   3.786   8.917   0.034  0.3752  0.1680  0.4534
 4333SOL    HW223209   3.736   8.762   0.044  0.5596  0.1527  1.1493
 4334SOL     OW23210   9.738   2.467   1.016 -0.0102  0.1915  0.4223
 4334SOL    HW123211   9.653   2.434   1.057  0.0412 -0.1468  0.2635
 4334SOL    HW223212   9.814   2.413   1.050  0.1090  0.3276  0.3679
 4335SOL     OW23213   8.883   3.575   1.293 -0.2281 -1.0879 -0.0221
 4335SOL    HW123214   8.868   3.552   1.197  1.8728  2.2610 -1.2596
 4335SOL    HW223215   8.982   3.579   1.311 -0.5878 -0.2953  1.8950
 4336SOL     OW23216   1.771   1.373   1.973  0.0518 -0.3311 -0.3960
 4336SOL    HW123217   1.770   1.473   1.969 -1.1328 -0.3222 -0.0681
 4336SOL    HW223218   1.731   1.337   1.889 -1.6231 -0.4921  0.4588
 4337SOL     OW23219   8.531   5.154   0.594  0.4485  0.5488  0.3325
 4337SOL    HW123220   8.455   5.153   0.529  1.8173  1.3089 -1.3428
 4337SOL    HW223221   8.576   5.065   0.595  0.1872  0.4204  0.5167
 4338SOL     OW23222   1.593   4.955   1.572 -0.3104 -0.4838  0.7866
 4338SOL    HW123223   1.634   4.873   1.613 -2.0489 -1.7616  0.0224
 4338SOL    HW223224   1.512   4.929   1.519  0.8364  1.3504 -1.9749
 4339SOL     OW23225   1.458   8.112   2.789  0.1107 -0.1637 -0.3612
 4339SOL    HW123226   1.554   8.138   2.779  0.6646 -1.9683  0.2380
 4339SOL    HW223227   1.400   8.189   2.759  1.7180  0.7526 -1.1949
 4340SOL     OW23228   1.021   7.468   0.242  0.0465 -0.1891  0.8034
 4340SOL    HW123229   0.966   7.401   0.193 -0.4270  1.4753 -1.0221
 4340SOL    HW223230   1.115   7.465   0.208 -0.5372  1.7702 -1.1725
 4341SOL     OW23231   2.303   7.167   2.221 -0.3161 -0.1349  0.2672
 4341SOL    HW123232   2.210   7.194   2.244 -1.2546 -2.5132 -0.5750
 4341SOL    HW223233   2.308   7.141   2.124  1.4772  0.9764  0.0296
 4342SOL     OW23234   2.787   4.173   1.726  0.3040  0.2997 -0.1854
 4342SOL    HW123235   2.768   4.075   1.714 -0.3760  0.0735  2.4223
 4342SOL    HW223236   2.700   4.223   1.731  0.5635  0.6367  1.3055
 4343SOL     OW23237   1.492   5.719   1.025  0.0470  0.0805 -0.2409
 4343SOL    HW123238   1.392   5.712   1.022 -0.0104  0.9850 -0.5405
 4343SOL    HW223239   1.520   5.810   0.995  0.8987  0.2898  1.1260
 4344SOL     OW23240   9.112   0.766   1.113  0.3685 -0.0029 -0.2938
 4344SOL    HW123241   9.067   0.775   1.201  0.2199 -1.8241 -0.1715
 4344SOL    HW223242   9.068   0.827   1.046 -0.6505  0.0669  0.4374
 4345SOL     OW23243   8.825   1.372   1.396  0.7205 -0.4373  0.2945
 4345SOL    HW123244   8.761   1.378   1.473  1.3608  3.2968  0.6546
 4345SOL    HW223245   8.896   1.305   1.416 -0.2124 -0.9253  2.0895
 4346SOL     OW23246   4.419   8.925   0.482  0.4204  0.1115  0.2537
 4346SOL    HW123247   4.417   8.844   0.422  1.4709 -0.1995  0.6420
 4346SOL    HW223248   4.424   9.007   0.425  0.3362 -0.1345 -0.1167
 4347SOL     OW23249   2.723   8.329   0.578 -0.3642 -0.6130  0.0839
 4347SOL    HW123250   2.774   8.375   0.650 -2.1632 -1.2622  1.8357
 4347SOL    HW223251   2.645   8.385   0.551 -2.2760 -2.3173  1.8709
 4348SOL     OW23252   1.429   9.009   1.350 -0.2241 -0.6012  0.6744
 4348SOL    HW123253   1.515   8.958   1.361  0.8280  0.6967 -1.2260
 4348SOL    HW223254   1.415   9.068   1.430  1.9909  1.0918 -0.1411
 4349SOL     OW23255   4.141   2.325   0.704 -0.0286  0.4711 -0.6768
 4349SOL    HW123256   4.210   2.359   0.769  1.9325 -1.3617 -1.7208
 4349SOL    HW223257   4.147   2.378   0.619  0.1933  0.2275 -0.8141
 4350SOL     OW23258   1.343   4.266   0.067 -0.2575  0.0969  0.2601
 4350SOL    HW123259   1.295   4.184   0.034 -0.7474  0.8579 -0.9710
 4350SOL    HW223260   1.287   4.312   0.135  0.5776 -1.2690  1.9043
 4351SOL     OW23261   0.282   4.838   2.009  0.1923 -0.3832 -0.2316
 4351SOL    HW123262   0.369   4.794   2.033  0.4430 -0.2449 -0.8678
 4351SOL    HW223263   0.293   4.937   2.011  0.3506 -0.3747 -1.3928
 4352SOL     OW23264   0.280   2.183   0.237 -0.0987  0.0138  0.3197
 4352SOL    HW123265   0.267   2.280   0.259 -0.0177 -0.2496  1.5812
 4352SOL    HW223266   0.192   2.143   0.212 -0.3757  0.1053  1.1183
 4353SOL     OW23267   2.668   5.155   0.847  0.7402  0.0668  0.5547
 4353SOL    HW123268   2.643   5.245   0.882  1.7900  1.4010 -2.0126
 4353SOL    HW223269   2.600   5.088   0.876 -2.3348  2.4445 -0.8951
 4354SOL     OW23270   0.863   5.340   0.069  0.3013 -0.2380  0.1270
 4354SOL    HW123271   0.935   5.407   0.048 -0.1765  0.8714  1.9459
 4354SOL    HW223272   0.774   5.384   0.064 -0.1646 -1.2644 -0.7105
 4355SOL     OW23273   8.728   3.594   0.048 -0.1928  0.0647 -0.0378
 4355SOL    HW123274   8.786   3.546   0.114  1.4693  1.5763 -0.3543
 4355SOL    HW223275   8.693   3.530  -0.019  2.5905 -0.6342 -0.8898
 4356SOL     OW23276   2.644   0.643   1.793 -0.1622 -0.1234  0.2213
 4356SOL    HW123277   2.608   0.558   1.830  0.9166 -0.2501  1.0052
 4356SOL    HW223278   2.744   0.637   1.785 -0.1618  0.7323 -0.5668
 4357SOL     OW23279   7.462   1.191   1.523 -0.5455 -0.3120 -0.5906
 4357SOL    HW123280   7.466   1.215   1.426  1.6467 -0.8999 -0.6816
 4357SOL    HW223281   7.430   1.097   1.533  0.5603 -0.7194 -0.8377
 4358SOL     OW23282   3.128   8.497   1.286  0.8956 -0.1187 -0.2481
 4358SOL    HW123283   3.200   8.429   1.300 -0.4243 -1.8756 -1.6246
 4358SOL    HW223284   3.142   8.542   1.198  0.2351 -0.5945 -0.6020
 4359SOL     OW23285   8.283   5.270   0.597  0.6821 -0.2799 -0.3321
 4359SOL    HW123286   8.265   5.197   0.663  1.2144  0.1788  0.3246
 4359SOL    HW223287   8.287   5.358   0.644  1.4112  0.0129 -0.9275
 4360SOL     OW23288   4.520   9.774   2.337  0.1869  0.1192 -0.4515
 4360SOL    HW123289   4.535   9.688   2.386 -0.5697  0.8894  1.1662
 4360SOL    HW223290   4.424   9.780   2.309  0.3841  0.1480 -1.1192
 4361SOL     OW23291   3.975   8.923   1.067  0.0708  0.0929  0.0336
 4361SOL    HW123292   4.063   8.886   1.035 -0.3058  0.2385 -1.2047
 4361SOL    HW223293   3.925   8.852   1.117 -0.1740 -0.7631 -1.3990
 4362SOL     OW23294   3.152   9.173   0.179  0.5894  0.1331 -0.4580
 4362SOL    HW123295   3.143   9.252   0.119 -0.5771  0.5162  0.2046
 4362SOL    HW223296   3.242   9.176   0.224  0.2601  1.4930  0.1313
 4363SOL     OW23297   5.095   9.782   2.700  0.3706 -0.2157  0.8312
 4363SOL    HW123298   5.088   9.683   2.702  0.7219 -0.2549  0.2096
 4363SOL    HW223299   5.018   9.821   2.650  0.9176 -0.2530 -0.0510
 4364SOL     OW23300   1.367   8.418   2.890  0.2164 -0.0248 -0.0428
 4364SOL    HW123301   1.429   8.459   2.823 -0.9682 -0.3492 -1.3671
 4364SOL    HW223302   1.406   8.427   2.981  3.5798 -2.7630 -1.1114
 4365SOL     OW23303   3.065   4.767   2.049  0.3139  0.0056  0.5547
 4365SOL    HW123304   3.059   4.706   2.128  1.1119 -0.8947 -0.0750
 4365SOL    HW223305   3.149   4.749   1.999 -0.3878  0.2840 -0.7412
 4366SOL     OW23306   9.936   9.071   0.246 -0.3311 -0.0150 -0.6385
 4366SOL    HW123307   9.881   9.114   0.316 -0.1282  0.8017 -0.9771
 4366SOL    HW223308   9.908   8.975   0.235  0.7270 -0.6269  1.6877
 4367SOL     OW23309   2.264   1.278   2.451 -0.2084 -0.5036  0.7659
 4367SOL    HW123310   2.248   1.227   2.367  1.8604 -0.7766  0.5094
 4367SOL    HW223311   2.178   1.289   2.501 -1.2950 -1.0781 -0.9605
 4368SOL     OW23312   3.754   0.147   1.116 -0.4002  0.2281  0.4649
 4368SOL    HW123313   3.733   0.126   1.020  1.5593  2.3817 -0.4997
 4368SOL    HW223314   3.822   0.082   1.150 -0.1708  0.2104 -0.0154
 4369SOL     OW23315   4.030   9.229   2.167  0.2054  0.7093  0.0131
 4369SOL    HW123316   3.967   9.203   2.094 -1.0711  2.0588  0.6091
 4369SOL    HW223317   4.119   9.253   2.127  0.0673 -0.2940 -0.9196
 4370SOL     OW23318   9.965   0.153   2.641  0.1040 -0.0535 -0.5577
 4370SOL    HW123319   9.981   0.207   2.559  1.1225 -0.1298 -0.4183
 4370SOL    HW223320  10.040   0.087   2.652 -1.6636 -2.2626 -1.3444
 4371SOL     OW23321   3.594   9.507   2.429  0.5260 -0.4594  0.0001
 4371SOL    HW123322   3.636   9.420   2.455 -0.2132 -1.4288 -1.9287
 4371SOL    HW223323   3.547   9.496   2.341  0.3619  1.8809 -0.2251
 4372SOL     OW23324   9.094   0.582   0.642  0.5922  0.2404  0.2391
 4372SOL    HW123325   9.107   0.498   0.695  1.3542  0.6726  0.7464
 4372SOL    HW223326   9.090   0.559   0.545 -0.6367 -0.5384  0.4608
 4373SOL     OW23327   1.304   9.243   0.049  0.1463  0.4447 -0.3586
 4373SOL    HW123328   1.232   9.183   0.014 -0.0711  1.2610 -1.3544
 4373SOL    HW223329   1.393   9.202   0.032  0.0082  0.4971 -1.2358
 4374SOL     OW23330   9.955   9.251   2.880 -0.6025  0.5164  0.1964
 4374SOL    HW123331   9.879   9.250   2.815  1.1059  1.5352 -1.8455
 4374SOL    HW223332  10.040   9.228   2.833  0.6192  0.9680  2.1286
 4375SOL     OW23333   3.114   6.220   3.276 -0.2345 -0.2350  0.4060
 4375SOL    HW123334   3.156   6.293   3.223 -1.1017  0.6151  0.8709
 4375SOL    HW223335   3.159   6.213   3.365  1.7417 -2.1836 -0.6996
 4376SOL     OW23336   0.031   0.702   1.140  0.3480  0.5500  0.0001
 4376SOL    HW123337  -0.025   0.785   1.144 -0.1868  0.2037 -0.2306
 4376SOL    HW223338   0.110   0.718   1.081  0.1514  0.8408 -0.1902
 4377SOL     OW23339   1.343   8.883   0.951 -0.4962  0.0163  0.0642
 4377SOL    HW123340   1.295   8.963   0.988 -1.2237  0.3807 -1.6096
 4377SOL    HW223341   1.437   8.883   0.985 -1.1064  0.3605  1.8419
 4378SOL     OW23342   7.826   1.670   0.122 -0.1265 -0.3824 -0.0110
 4378SOL    HW123343   7.865   1.606   0.189 -1.5841 -0.0086  1.2376
 4378SOL    HW223344   7.753   1.624   0.071 -0.3064 -0.0978 -0.0088
 4379SOL     OW23345   8.766   0.802   1.341  0.1639 -0.0981 -0.2205
 4379SOL    HW123346   8.748   0.885   1.290 -1.2035 -0.9961 -1.2321
 4379SOL    HW223347   8.863   0.796   1.364  0.5600  0.9043 -1.6495
 4380SOL     OW23348   2.926   8.022   1.305  0.0870  0.5947 -0.2936
 4380SOL    HW123349   2.950   8.113   1.337  0.3772 -0.2490  2.0167
 4380SOL    HW223350   2.828   8.019   1.282 -0.3128  1.0517  1.2886
 4381SOL     OW23351   8.669   1.597   0.954 -0.2468 -0.2986 -0.2070
 4381SOL    HW123352   8.581   1.550   0.962 -0.2401 -0.4553 -1.0033
 4381SOL    HW223353   8.653   1.691   0.923 -0.0756 -0.6226 -1.3052
 4382SOL     OW23354   9.119   3.023   1.198  0.1831 -0.4283  0.2919
 4382SOL    HW123355   9.158   3.062   1.282 -0.7275  2.6957 -0.6390
 4382SOL    HW223356   9.062   2.945   1.221 -1.4923  1.4554  2.8389
 4383SOL     OW23357   9.448   5.487   3.294  0.0830 -0.2826 -0.6752
 4383SOL    HW123358   9.448   5.441   3.206 -3.7400  1.2282 -1.5618
 4383SOL    HW223359   9.363   5.466   3.343 -0.4546  3.4323  0.1305
 4384SOL     OW23360   4.226   2.919   1.038  0.4564 -0.4064  0.5205
 4384SOL    HW123361   4.207   2.872   0.952  0.3504  0.9302 -0.1902
 4384SOL    HW223362   4.242   2.851   1.110 -1.5008 -1.5478 -0.0819
 4385SOL     OW23363   0.018   8.624   1.970  0.0062  0.2562 -0.3844
 4385SOL    HW123364   0.003   8.718   1.938  0.6994  0.7406  0.6799
 4385SOL    HW223365  -0.009   8.617   2.066  0.0333 -0.6193 -0.4391
 4386SOL     OW23366   0.775   5.783   0.645  0.3150  0.0084  0.2193
 4386SOL    HW123367   0.809   5.782   0.739  1.5003  0.6241 -0.1950
 4386SOL    HW223368   0.851   5.799   0.582 -0.6930  1.1878 -0.7418
 4387SOL     OW23369   0.794   0.058   3.398 -0.1247 -0.0209  0.5461
 4387SOL    HW123370   0.745   0.097   3.476  1.0163 -2.2591  2.4611
 4387SOL    HW223371   0.832   0.132   3.342 -1.9740  1.6462  1.4219
 4388SOL     OW23372   0.256   7.826   1.988 -0.8193  0.4624 -0.6341
 4388SOL    HW123373   0.323   7.833   2.062 -2.0584  1.6696  0.4008
 4388SOL    HW223374   0.184   7.762   2.014 -2.0553  2.0354 -0.1598
 4389SOL     OW23375   8.132   1.383   1.870 -0.1546 -0.1450 -0.2712
 4389SOL    HW123376   8.049   1.433   1.843  0.1693 -0.5321 -2.0522
 4389SOL    HW223377   8.205   1.448   1.892 -1.2455  0.2261  2.4594
 4390SOL     OW23378   7.932   0.861   0.385  0.4349  0.6567  0.3277
 4390SOL    HW123379   7.873   0.781   0.399  3.0479 -1.5592 -0.7931
 4390SOL    HW223380   7.955   0.901   0.473 -1.4182  0.6170  0.8672
 4391SOL     OW23381   3.425   1.585   0.112 -0.4794  0.1363  0.3159
 4391SOL    HW123382   3.501   1.561   0.052  0.1418  0.0587  1.1196
 4391SOL    HW223383   3.339   1.559   0.069  0.0788 -2.0332  0.4368
 4392SOL     OW23384   0.626   1.929   2.496  0.0227 -0.2951 -0.3836
 4392SOL    HW123385   0.591   1.848   2.542 -0.0936 -0.8349 -1.4288
 4392SOL    HW223386   0.704   1.904   2.439 -1.4737 -0.1071 -2.5756
 4393SOL     OW23387   4.243   8.017   1.531 -0.2222  0.5854 -0.1978
 4393SOL    HW123388   4.297   7.933   1.536  0.5503  0.9952 -1.4656
 4393SOL    HW223389   4.170   8.014   1.600 -0.6235 -1.4108 -0.6784
 4394SOL     OW23390   9.464   1.226   1.127  0.1042 -0.0644  0.4022
 4394SOL    HW123391   9.553   1.263   1.103  0.4190 -0.1404  1.4311
 4394SOL    HW223392   9.435   1.160   1.058  0.2231  0.9664 -0.6430
 4395SOL     OW23393   2.101   3.726   2.260 -0.0249  0.0350 -0.1760
 4395SOL    HW123394   2.085   3.639   2.214  0.2917  0.0734 -0.3619
 4395SOL    HW223395   2.183   3.718   2.318 -1.5189 -0.6222  1.9173
 4396SOL     OW23396   4.201   9.985   3.313  0.1841  0.1139  0.4382
 4396SOL    HW123397   4.232   9.900   3.355 -1.5659  0.3149  2.1804
 4396SOL    HW223398   4.269  10.057   3.331  0.5860 -0.3736  0.8986
 4397SOL     OW23399   3.452   0.336   3.432 -0.1525 -0.1911  0.0941
 4397SOL    HW123400   3.355   0.348   3.412 -0.1900 -0.2855  0.2209
 4397SOL    HW223401   3.475   0.239   3.431  0.0849 -0.1282 -0.6170
 4398SOL     OW23402   1.147   2.769   0.175  0.2658  0.2062  0.2278
 4398SOL    HW123403   1.149   2.778   0.274  3.6502 -0.1936  0.2611
 4398SOL    HW223404   1.072   2.708   0.149 -1.9308  1.9035  2.3397
 4399SOL     OW23405   0.590   2.947   0.855  0.0429 -0.3955  0.0581
 4399SOL    HW123406   0.618   3.033   0.897 -0.4876  0.1250 -0.6476
 4399SOL    HW223407   0.605   2.951   0.756 -1.4657 -0.5136 -0.1911
 4400SOL     OW23408   7.526   1.628   2.329 -0.1920 -0.1994  0.1723
 4400SOL    HW123409   7.454   1.672   2.384  0.8657 -0.1743  1.5603
 4400SOL    HW223410   7.616   1.659   2.361  0.4633 -0.9669 -0.9162
 4401SOL     OW23411   2.393   5.436   3.337 -0.0793  0.2240  0.1054
 4401SOL    HW123412   2.461   5.365   3.319 -0.4465  0.0572 -0.6394
 4401SOL    HW223413   2.378   5.444   3.435 -0.4766 -1.1421  0.1640
 4402SOL     OW23414   9.804   0.049   1.132  0.3542 -0.3359 -0.0089
 4402SOL    HW123415   9.743   0.099   1.194 -0.1794  1.1155 -1.6842
 4402SOL    HW223416   9.800   0.090   1.041  1.0452 -2.5345 -1.0502
 4403SOL     OW23417   2.571   8.636   1.990 -0.4568 -0.2809 -0.1041
 4403SOL    HW123418   2.596   8.539   1.979  2.8803  0.3897  1.0678
 4403SOL    HW223419   2.512   8.646   2.070  1.0472 -1.0828  1.1349
 4404SOL     OW23420   9.610   3.826   2.221 -0.2395 -0.4644 -0.1770
 4404SOL    HW123421   9.655   3.873   2.297 -1.3107 -1.8599  1.3489
 4404SOL    HW223422   9.665   3.748   2.192 -0.5254 -0.7899  0.1439
 4405SOL     OW23423   0.754   8.198   0.374 -0.1578 -0.4008  0.0111
 4405SOL    HW123424   0.840   8.166   0.333 -0.3133 -0.2917 -0.4013
 4405SOL    HW223425   0.749   8.166   0.469 -0.6269 -2.1964 -0.6027
 4406SOL     OW23426   1.729   0.072   0.973 -0.4367  0.3000 -0.4819
 4406SOL    HW123427   1.771   0.012   1.041  0.5273  2.0262  0.4605
 4406SOL    HW223428   1.791   0.084   0.896  0.0366  1.3711  0.0650
 4407SOL     OW23429   3.055   9.575   2.683  0.1642 -0.0576  0.2520
 4407SOL    HW123430   3.102   9.506   2.738  1.7484  1.2859  0.6280
 4407SOL    HW223431   3.027   9.652   2.742 -1.3622 -0.2446 -0.1985
 4408SOL     OW23432   3.215   4.194   2.908 -0.3104  0.4812 -0.6847
 4408SOL    HW123433   3.172   4.196   2.818  1.4229  2.3054 -1.5181
 4408SOL    HW223434   3.156   4.239   2.975 -0.1069  2.2226 -1.6505
 4409SOL     OW23435   3.782   7.133   0.834 -0.1127 -0.7774  0.2631
 4409SOL    HW123436   3.826   7.068   0.773 -0.1419 -1.4784  0.9791
 4409SOL    HW223437   3.849   7.167   0.901  0.2873  1.0998 -1.0522
 4410SOL     OW23438   7.513   2.277   0.303  0.0263  0.0578 -0.7677
 4410SOL    HW123439   7.493   2.232   0.215  0.3566 -0.4238 -0.5972
 4410SOL    HW223440   7.562   2.362   0.286  0.6804 -0.3628 -1.0241
 4411SOL     OW23441   8.295   1.043   1.298 -1.1309  0.0581  0.1376
 4411SOL    HW123442   8.285   1.136   1.261  1.4753  1.4557  2.7581
 4411SOL    HW223443   8.382   1.005   1.267 -1.2345 -0.6964  0.7744
 4412SOL     OW23444   3.446   2.252   2.561 -0.2409  0.5853 -0.0877
 4412SOL    HW123445   3.521   2.204   2.514 -0.8608 -1.0218  0.5197
 4412SOL    HW223446   3.397   2.309   2.495 -0.5504 -0.9617 -1.2345
 4413SOL     OW23447   1.621   6.082   0.063 -0.4106  0.1755  0.5161
 4413SOL    HW123448   1.591   6.059   0.156 -1.2829  1.1006  0.4753
 4413SOL    HW223449   1.608   6.003   0.003 -2.7257  0.5114  0.5300
 4414SOL     OW23450   1.198   5.810   0.337  0.0197  0.0636  0.1093
 4414SOL    HW123451   1.116   5.815   0.280  0.4775  1.2386 -0.4642
 4414SOL    HW223452   1.241   5.720   0.326  0.2005  0.3302 -1.5686
 4415SOL     OW23453   0.158   4.335   3.112 -0.3401 -0.1089  0.4031
 4415SOL    HW123454   0.082   4.394   3.141  2.3839  3.9416 -0.1338
 4415SOL    HW223455   0.225   4.330   3.186 -0.3282 -2.2908  0.2710
 4416SOL     OW23456   9.166   3.382   1.767  0.8316 -0.0427 -0.0271
 4416SOL    HW123457   9.159   3.366   1.668  0.2739 -1.4043  0.2111
 4416SOL    HW223458   9.254   3.347   1.800  1.0979  0.5869 -0.0784
 4417SOL     OW23459   9.346   4.495   1.536 -0.5351  0.1249 -0.6787
 4417SOL    HW123460   9.310   4.550   1.611 -0.4526 -0.4934 -0.1835
 4417SOL    HW223461   9.373   4.555   1.461 -0.7966  0.7305 -0.2901
 4418SOL     OW23462   2.732   2.205   2.537 -0.0593 -0.0180  0.4151
 4418SOL    HW123463   2.819   2.158   2.522  1.1577  1.7781  1.5581
 4418SOL    HW223464   2.675   2.151   2.599  0.7568 -0.6444  0.6294
 4419SOL     OW23465   2.373   6.870   1.360 -0.6183 -0.1757  0.0740
 4419SOL    HW123466   2.310   6.941   1.330 -1.3263 -1.2680 -1.1160
 4419SOL    HW223467   2.465   6.890   1.327 -1.1416 -0.6788 -1.7487
 4420SOL     OW23468   3.497   2.421   3.165 -0.1449 -0.4780 -0.2545
 4420SOL    HW123469   3.496   2.513   3.203  1.9166 -0.6668  0.3240
 4420SOL    HW223470   3.405   2.383   3.167 -0.6182  0.7139  1.6063
 4421SOL     OW23471   4.198   8.502   0.953  0.4919  0.3208 -0.4710
 4421SOL    HW123472   4.151   8.419   0.983  1.8712  0.1931  1.4419
 4421SOL    HW223473   4.235   8.550   1.032  1.1378  1.9058 -1.6990
 4422SOL     OW23474   0.189   4.407   2.666 -0.7279  0.4254 -0.4319
 4422SOL    HW123475   0.098   4.387   2.702 -0.8058  0.7741 -0.4394
 4422SOL    HW223476   0.198   4.505   2.650 -0.3758  0.3823 -0.4986
 4423SOL     OW23477   1.631   6.738   1.449  0.5269  0.8537 -0.3849
 4423SOL    HW123478   1.632   6.643   1.479 -1.9293  1.4303  1.6787
 4423SOL    HW223479   1.709   6.755   1.389  2.5302 -1.7765  1.3696
 4424SOL     OW23480   0.279   6.339   2.010  0.1430 -0.0095 -0.4364
 4424SOL    HW123481   0.184   6.354   1.984  0.3722  1.6334 -0.3925
 4424SOL    HW223482   0.302   6.243   1.999 -1.7864 -0.6001  0.4449
 4425SOL     OW23483   1.852   6.192   1.808 -0.6024 -0.5512 -0.3551
 4425SOL    HW123484   1.895   6.181   1.898 -1.0274  0.2111 -0.0542
 4425SOL    HW223485   1.830   6.102   1.770 -2.2381 -0.8334  1.1931
 4426SOL     OW23486   1.774   4.155   2.066  0.7045  0.6448 -0.5918
 4426SOL    HW123487   1.856   4.199   2.028  0.8148  0.1624 -0.9247
 4426SOL    HW223488   1.800   4.067   2.107  0.4003  0.6292 -0.4349
 4427SOL     OW23489   4.378   1.285   1.956 -0.3218 -0.3751 -0.4700
 4427SOL    HW123490   4.353   1.211   1.893 -4.2508  1.6422 -1.4112
 4427SOL    HW223491   4.367   1.373   1.910  1.3304  0.9732  1.6074
 4428SOL     OW23492   1.894   6.927   0.259  0.2808 -0.3248  0.5101
 4428SOL    HW123493   1.990   6.908   0.240  0.9007  2.9159  0.1951
 4428SOL    HW223494   1.860   6.862   0.327  2.2909 -2.3445 -0.3542
 4429SOL     OW23495   1.424   0.358   0.629  0.2919  0.2660 -0.4705
 4429SOL    HW123496   1.456   0.276   0.583 -0.3211 -1.5820  2.2401
 4429SOL    HW223497   1.460   0.360   0.722 -1.9837  1.5840  0.4312
 4430SOL     OW23498   2.119   2.178   0.628  0.0199  0.8506  0.6551
 4430SOL    HW123499   2.118   2.145   0.723 -0.3485 -1.2934 -0.0564
 4430SOL    HW223500   2.025   2.182   0.594  0.0660  2.6453  0.7024
 4431SOL     OW23501   0.451   1.681   1.413 -0.5747  0.3505 -0.9695
 4431SOL    HW123502   0.470   1.616   1.486  0.8832  1.6326 -0.1864
 4431SOL    HW223503   0.463   1.774   1.447  0.6759  0.9541 -2.9585
 4432SOL     OW23504   1.895   0.121   1.306  0.0542  0.3006 -0.3617
 4432SOL    HW123505   1.908   0.059   1.383 -0.7811  0.5007 -0.0511
 4432SOL    HW223506   1.884   0.068   1.222  2.9156  0.1227 -0.6706
 4433SOL     OW23507   9.018   1.858   0.610 -0.7478  0.4551 -0.1770
 4433SOL    HW123508   8.992   1.913   0.690 -1.3799  0.6345 -0.4988
 4433SOL    HW223509   9.033   1.763   0.637  0.8156  0.8657  0.4745
 4434SOL     OW23510   2.643   0.394   1.248 -0.5306  0.1292  0.0891
 4434SOL    HW123511   2.731   0.429   1.280 -0.9697  1.0296  0.3276
 4434SOL    HW223512   2.658   0.323   1.179  0.3675  1.1154 -0.7454
 4435SOL     OW23513   4.720   0.820   1.609  0.2540  0.6914  0.0791
 4435SOL    HW123514   4.710   0.789   1.515 -0.4662 -0.0563  0.3954
 4435SOL    HW223515   4.655   0.894   1.627 -2.1034 -1.5629  1.0107
 4436SOL     OW23516   4.038   2.738   2.468  0.5341  0.0596  0.4669
 4436SOL    HW123517   3.990   2.722   2.381  1.6350  0.6139 -0.2516
 4436SOL    HW223518   4.113   2.672   2.477 -0.6017 -1.0952  1.7942
 4437SOL     OW23519   0.837   5.981   1.025  0.2687  0.8357  0.0679
 4437SOL    HW123520   0.873   5.964   0.933 -1.9388 -1.6407 -0.4059
 4437SOL    HW223521   0.910   5.968   1.092  0.9846 -1.2474 -1.0572
 4438SOL     OW23522   9.834   9.637   0.997 -0.4471 -0.6853  0.4808
 4438SOL    HW123523   9.931   9.642   1.022 -0.5880 -0.6765  1.0214
 4438SOL    HW223524   9.824   9.573   0.920  0.3569  1.5031 -1.5039
 4439SOL     OW23525   2.419   8.670   1.746  0.4532  0.0451 -0.2345
 4439SOL    HW123526   2.486   8.689   1.817 -1.1485 -0.9108  1.5886
 4439SOL    HW223527   2.410   8.571   1.733  0.6136  0.2074 -1.6608
 4440SOL     OW23528   3.807   8.243   1.701 -0.6151 -0.0268  0.5880
 4440SOL    HW123529   3.848   8.152   1.694 -1.3764 -0.4770  1.7309
 4440SOL    HW223530   3.753   8.249   1.785 -1.6738  1.0312 -0.1443
 4441SOL     OW23531   7.676   3.247   1.180  0.1627 -0.0447  0.3637
 4441SOL    HW123532   7.747   3.315   1.160 -0.7650  0.4099 -1.4664
 4441SOL    HW223533   7.623   3.277   1.260 -1.0880  2.0762 -1.2131
 4442SOL     OW23534   0.145   1.964   1.579  0.1488 -0.1213 -0.5030
 4442SOL    HW123535   0.219   2.020   1.616 -1.4908  1.1425  0.9623
 4442SOL    HW223536   0.082   1.939   1.652 -0.0196 -2.5494 -1.4432
 4443SOL     OW23537   4.384   9.507   1.016 -0.4954  0.4472 -0.4230
 4443SOL    HW123538   4.376   9.591   0.963 -0.5614  0.7273  0.0285
 4443SOL    HW223539   4.453   9.448   0.975  0.8162  1.4784  0.2679
 4444SOL     OW23540   0.281   8.711   1.325 -0.7340  0.2886  0.1992
 4444SOL    HW123541   0.260   8.804   1.353 -0.3716  0.6126 -0.5999
 4444SOL    HW223542   0.203   8.652   1.347 -0.5657  0.5816  1.6236
 4445SOL     OW23543   1.602   3.329   1.573  0.2849  0.1462 -0.4198
 4445SOL    HW123544   1.511   3.354   1.605  0.3993  0.6316 -0.4577
 4445SOL    HW223545   1.646   3.409   1.532  0.7244 -0.0826 -0.4046
 4446SOL     OW23546   4.556   0.140   1.520  0.2935  0.2330 -0.5899
 4446SOL    HW123547   4.542   0.238   1.536 -0.8892  0.1442 -0.9780
 4446SOL    HW223548   4.604   0.100   1.597 -0.5516  0.8347  0.2701
 4447SOL     OW23549   1.038   3.793   2.553 -0.0181 -0.0278  0.8075
 4447SOL    HW123550   1.029   3.754   2.462  1.7621 -1.6653  1.3149
 4447SOL    HW223551   0.947   3.814   2.589 -0.6786  1.7161 -1.7691
 4448SOL     OW23552   0.266   5.206   1.575 -0.1202  0.3466 -0.3851
 4448SOL    HW123553   0.228   5.127   1.525  0.1900 -0.5938  0.8578
 4448SOL    HW223554   0.319   5.262   1.512 -0.6295 -0.2466 -1.3617
 4449SOL     OW23555   6.827   0.209   2.738 -0.4293  0.3627 -0.1363
 4449SOL    HW123556   6.796   0.270   2.811 -0.0160  1.2249 -0.6832
 4449SOL    HW223557   6.926   0.214   2.730 -0.6260  1.7368 -2.0451
 4450SOL     OW23558   9.760   1.173   3.292  0.7227  0.4506 -0.1549
 4450SOL    HW123559   9.791   1.150   3.200 -0.8707 -1.9186 -0.1296
 4450SOL    HW223560   9.698   1.252   3.288  1.2623  0.8401 -0.9869
 4451SOL     OW23561   0.818   1.058   2.578 -0.2604 -0.2236 -0.1172
 4451SOL    HW123562   0.798   0.979   2.520 -1.0932 -0.3431  0.3295
 4451SOL    HW223563   0.749   1.129   2.563  0.3963  0.3703 -0.4029
 4452SOL     OW23564   1.591   9.410   0.540 -0.0525 -0.1141 -0.2260
 4452SOL    HW123565   1.567   9.464   0.459  0.4747  0.8317  0.2334
 4452SOL    HW223566   1.525   9.429   0.612  1.7839  2.2192  0.9200
 4453SOL     OW23567   3.222   9.191   3.248 -0.7410 -0.6964 -0.4770
 4453SOL    HW123568   3.162   9.116   3.276 -0.8108 -0.4652 -0.0078
 4453SOL    HW223569   3.191   9.276   3.291  1.1420 -0.9331  1.4161
 4454SOL     OW23570   1.825   6.286   2.902 -0.5302  0.6314  0.5266
 4454SOL    HW123571   1.791   6.215   2.841  2.8175 -0.0905 -0.6055
 4454SOL    HW223572   1.814   6.376   2.860 -0.9701  0.4093  0.1716
 4455SOL     OW23573   2.818   0.983   2.435 -0.2551  0.2126  0.2007
 4455SOL    HW123574   2.874   1.055   2.394 -0.2451 -1.0585 -2.0904
 4455SOL    HW223575   2.833   0.981   2.534  1.5214  1.8053 -0.0124
 4456SOL     OW23576   4.468   8.221   2.210  0.1128 -0.4211  0.2879
 4456SOL    HW123577   4.552   8.245   2.258  0.7686  0.3150 -1.1997
 4456SOL    HW223578   4.488   8.210   2.113 -1.0648 -2.5202  0.2609
 4457SOL     OW23579   0.203   5.461   0.353 -0.1469  0.0054 -0.2382
 4457SOL    HW123580   0.288   5.445   0.304 -0.3189 -1.4991 -0.0617
 4457SOL    HW223581   0.198   5.401   0.432 -1.4132  0.0221 -0.2948
 4458SOL     OW23582   8.887   0.351   0.497 -0.1954  0.3894 -0.2051
 4458SOL    HW123583   8.965   0.326   0.440  0.1891  1.3580 -0.1088
 4458SOL    HW223584   8.883   0.291   0.576  0.1510  0.0060 -0.4765
 4459SOL     OW23585   3.227   3.025   0.766  0.8517 -0.6331  0.2549
 4459SOL    HW123586   3.308   3.078   0.791 -0.3030  0.3885  2.0240
 4459SOL    HW223587   3.155   3.087   0.736  0.2214 -1.4081  0.1474
 4460SOL     OW23588   9.387   0.697   3.365 -0.6230 -0.2716 -0.0666
 4460SOL    HW123589   9.403   0.602   3.391  0.2517  0.1223  0.8682
 4460SOL    HW223590   9.289   0.714   3.358 -0.8174 -0.8969  1.0344
 4461SOL     OW23591   0.721   5.070   3.054  0.0944  0.4352 -0.8566
 4461SOL    HW123592   0.781   5.148   3.070 -2.4439  2.0204  1.3624
 4461SOL    HW223593   0.680   5.077   2.963 -0.0313  1.6396 -0.7145
 4462SOL     OW23594   3.157   5.223   3.211  0.8364 -0.0917 -0.4316
 4462SOL    HW123595   3.087   5.176   3.265  0.4408  1.1286  0.1352
 4462SOL    HW223596   3.240   5.168   3.209  0.5107 -0.6345  0.5482
 4463SOL     OW23597   2.909   0.799   0.033 -0.0834 -0.4545  0.0476
 4463SOL    HW123598   2.890   0.709   0.072 -0.0474 -0.6099 -0.2876
 4463SOL    HW223599   2.824   0.838  -0.003  0.2358 -1.2440 -1.6506
 4464SOL     OW23600   2.296   2.363   0.132  0.7058  0.0713  0.4562
 4464SOL    HW123601   2.276   2.270   0.164  1.0352  0.3266  1.4460
 4464SOL    HW223602   2.237   2.385   0.055  0.0470 -0.6691  0.7317
 4465SOL     OW23603   2.804   1.633   1.725 -0.0256 -0.4754 -0.2109
 4465SOL    HW123604   2.833   1.606   1.817 -0.6190 -2.5817 -0.6152
 4465SOL    HW223605   2.809   1.554   1.665  1.8044  1.2246 -2.3771
 4466SOL     OW23606   1.948   7.482   1.299  0.1436 -0.3144  0.0862
 4466SOL    HW123607   1.871   7.431   1.261  0.4574 -0.4576 -0.3704
 4466SOL    HW223608   1.949   7.474   1.398  1.3328 -2.8470 -0.1058
 4467SOL     OW23609   0.856   4.433   2.780  0.3044 -0.1597  0.2054
 4467SOL    HW123610   0.789   4.458   2.850 -0.0864 -0.1972 -0.1563
 4467SOL    HW223611   0.934   4.495   2.786 -1.1609  1.9397 -1.4348
 4468SOL     OW23612   1.384   1.299   2.182  0.1668  0.1665 -0.5253
 4468SOL    HW123613   1.374   1.265   2.088  0.3323 -2.1695  0.2703
 4468SOL    HW223614   1.482   1.313   2.201  0.2039 -0.2277 -0.4168
 4469SOL     OW23615   9.546   2.870   1.554  0.5895  0.2570 -0.2160
 4469SOL    HW123616   9.560   2.815   1.637  1.8435  0.0184 -0.5667
 4469SOL    HW223617   9.459   2.845   1.512  1.9073 -2.7928 -1.3315
 4470SOL     OW23618   9.499   3.375   0.971  0.3013  0.2078 -0.2633
 4470SOL    HW123619   9.455   3.433   1.040  0.1246 -0.5979  0.3188
 4470SOL    HW223620   9.429   3.334   0.913  0.2038 -1.5750  1.0623
 4471SOL     OW23621   5.631   9.088   2.832  0.2759  0.5036 -0.1627
 4471SOL    HW123622   5.578   9.024   2.888  2.3500 -0.4670  0.7769
 4471SOL    HW223623   5.617   9.181   2.864  0.4625  0.0811  1.1484
 4472SOL     OW23624   0.757   1.580   1.161  0.1497  0.0950  0.0470
 4472SOL    HW123625   0.742   1.526   1.244  3.0042 -0.1699  0.4579
 4472SOL    HW223626   0.851   1.614   1.160  0.1974  0.0606 -3.1016
 4473SOL     OW23627   2.241   4.211   1.556 -0.1637 -0.2994  0.4036
 4473SOL    HW123628   2.277   4.185   1.645  0.0356  0.2668  0.4914
 4473SOL    HW223629   2.304   4.276   1.512 -1.0126  0.6029  0.5053
 4474SOL     OW23630   4.076   7.354   2.255 -0.0439  0.1329 -0.1313
 4474SOL    HW123631   4.036   7.310   2.335 -0.3577  0.8776  0.1190
 4474SOL    HW223632   4.165   7.393   2.278  0.1029 -0.1039 -0.2823
 4475SOL     OW23633   5.038   8.539   2.580 -0.4459 -0.1571 -0.1742
 4475SOL    HW123634   5.007   8.617   2.634  2.4299  0.9477  0.0097
 4475SOL    HW223635   5.125   8.505   2.617  1.6127  0.6092 -3.9584
 4476SOL     OW23636   2.073   9.426   1.787  0.0392  0.8402  0.0622
 4476SOL    HW123637   2.104   9.443   1.693  0.8208  1.7588  0.4759
 4476SOL    HW223638   1.997   9.362   1.786 -0.5938  1.5929 -1.2775
 4477SOL     OW23639   2.995   8.997   1.381 -0.1108  0.3657 -0.4926
 4477SOL    HW123640   2.942   8.938   1.320 -0.1763  1.7791 -1.8477
 4477SOL    HW223641   3.075   8.948   1.415 -1.1616 -1.0977 -0.0923
 4478SOL     OW23642   0.771   8.596   2.777  0.5068 -0.1426  0.5484
 4478SOL    HW123643   0.767   8.547   2.690  0.9561  0.6698  0.0701
 4478SOL    HW223644   0.808   8.535   2.847  0.1806 -0.7839  0.1691
 4479SOL     OW23645   9.973   4.368   1.252 -0.8388 -0.0483 -0.2883
 4479SOL    HW123646   9.900   4.300   1.251 -1.7592  0.9338 -1.9292
 4479SOL    HW223647   9.945   4.446   1.308 -0.5678 -0.1909  0.0436
 4480SOL     OW23648   7.521   1.891   2.512  0.3833  0.5203 -0.3003
 4480SOL    HW123649   7.602   1.939   2.476  0.9313  0.1533  0.4347
 4480SOL    HW223650   7.534   1.872   2.609 -0.5042  0.2679 -0.2291
 4481SOL     OW23651   2.185   6.265   0.318  0.0971 -0.2494  0.4879
 4481SOL    HW123652   2.201   6.184   0.262 -1.1813 -0.1574 -0.0252
 4481SOL    HW223653   2.153   6.237   0.409 -0.0673 -0.3230  0.4063
 4482SOL     OW23654   2.675   7.677   0.002 -0.0923  0.5952  0.5500
 4482SOL    HW123655   2.584   7.702   0.036 -0.3259 -0.1376  0.4594
 4482SOL    HW223656   2.712   7.753  -0.052 -1.7588 -0.0910 -1.6189
 4483SOL     OW23657   0.678   1.611   2.961 -0.2551  0.3826  0.0801
 4483SOL    HW123658   0.721   1.689   3.005  1.9738  0.0411 -1.4250
 4483SOL    HW223659   0.657   1.541   3.030 -0.3707  1.4273  1.1198
 4484SOL     OW23660   3.053   4.029   1.255 -0.1853 -0.4198  0.3549
 4484SOL    HW123661   3.013   3.981   1.177  1.2051 -1.2814  0.1452
 4484SOL    HW223662   3.064   3.965   1.332 -1.9610  0.5303  1.4233
 4485SOL     OW23663   9.507   1.048   3.401  0.1335  0.0186 -0.0501
 4485SOL    HW123664   9.562   1.125   3.369  2.7533 -1.5181  0.5598
 4485SOL    HW223665   9.463   1.072   3.488  0.5749  0.9807 -0.0872
 4486SOL     OW23666   3.850   7.986   2.834 -0.2930  0.4929  0.1715
 4486SOL    HW123667   3.808   8.072   2.863  1.0556  0.7297  1.4988
 4486SOL    HW223668   3.782   7.930   2.787 -1.1629  2.3003 -0.7560
 4487SOL     OW23669   2.060   9.253   2.271  0.1856 -0.4952  0.2723
 4487SOL    HW123670   2.132   9.320   2.252 -0.2465 -0.0249  0.2884
 4487SOL    HW223671   1.989   9.296   2.327 -0.7170 -0.6091 -0.7775
 4488SOL     OW23672   0.281   2.813   3.005 -0.1106 -0.5483  0.1759
 4488SOL    HW123673   0.275   2.748   3.081 -0.6704  0.1956  0.7864
 4488SOL    HW223674   0.212   2.791   2.936 -0.1711 -0.7180  0.2912
 4489SOL     OW23675   1.028   8.265   1.452  0.5206  0.7116  0.1898
 4489SOL    HW123676   1.042   8.225   1.362 -0.3471 -0.2158  0.4520
 4489SOL    HW223677   1.038   8.194   1.522 -1.4677  0.8385  0.6412
 4490SOL     OW23678   0.669   0.185   2.642 -0.6228  0.3883  0.3646
 4490SOL    HW123679   0.617   0.122   2.700  0.0674 -0.4479  0.0748
 4490SOL    HW223680   0.646   0.279   2.668 -0.4238  0.0334  1.9250
 4491SOL     OW23681   1.689   2.538   2.850  0.2684  0.4478  0.0588
 4491SOL    HW123682   1.729   2.533   2.758  1.4810  2.8148  0.4238
 4491SOL    HW223683   1.738   2.475   2.911  0.9111  0.4841 -0.4163
 4492SOL     OW23684   9.511   5.316   2.622 -0.0078 -0.1936  0.3060
 4492SOL    HW123685   9.527   5.265   2.537  1.3571  1.6797 -0.6082
 4492SOL    HW223686   9.595   5.364   2.648 -1.3199  1.8345  0.9529
 4493SOL     OW23687   8.711   1.489   0.168  0.5938 -0.3721  0.4674
 4493SOL    HW123688   8.630   1.458   0.118  0.1953 -0.2757  1.0571
 4493SOL    HW223689   8.768   1.410   0.191  1.9621 -0.2123 -2.1797
 4494SOL     OW23690   9.252   3.651   0.019  0.2649 -0.4718 -0.6157
 4494SOL    HW123691   9.341   3.696   0.017 -0.1147  0.3623  0.6494
 4494SOL    HW223692   9.213   3.660   0.111  0.3392 -3.6985 -0.2275
 4495SOL     OW23693   0.242   9.816   0.687 -0.0591 -0.3789 -0.3565
 4495SOL    HW123694   0.319   9.805   0.623  0.1342  0.1841 -0.2157
 4495SOL    HW223695   0.273   9.863   0.769 -0.6418  0.1667 -0.4509
 4496SOL     OW23696   3.249   8.414   1.648 -0.0311 -0.5066  0.3531
 4496SOL    HW123697   3.216   8.329   1.607  1.7274 -0.5362 -1.0371
 4496SOL    HW223698   3.171   8.473   1.668 -1.0120 -1.0108 -1.8897
 4497SOL     OW23699   0.077   3.381   0.228 -0.6411 -0.3440  0.0540
 4497SOL    HW123700   0.134   3.456   0.196  0.4523 -1.2446 -0.1390
 4497SOL    HW223701  -0.014   3.387   0.186  0.0199 -0.1692 -1.3711
 4498SOL     OW23702   8.739   2.153   2.273  0.4897 -0.0250  0.8102
 4498SOL    HW123703   8.770   2.152   2.368  1.0554  1.5429  0.6648
 4498SOL    HW223704   8.664   2.219   2.263  1.2758  0.7545 -0.0648
 4499SOL     OW23705   3.087   8.593   0.014 -0.0233 -0.0450  0.2192
 4499SOL    HW123706   3.152   8.657   0.054  1.1018 -0.6106 -0.6877
 4499SOL    HW223707   3.093   8.595  -0.085 -1.1378 -0.3632  0.1344
 4500SOL     OW23708   9.622   2.729   3.065 -0.1028 -0.0910 -0.3122
 4500SOL    HW123709   9.587   2.686   3.148  1.4425 -2.3191 -0.7712
 4500SOL    HW223710   9.707   2.778   3.086  0.2358 -0.5731 -0.5701
 4501SOL     OW23711   9.800   4.174   3.169  0.7556  0.3977 -0.1682
 4501SOL    HW123712   9.715   4.155   3.120 -0.2541  1.6857  1.0118
 4501SOL    HW223713   9.860   4.094   3.167 -0.7685 -0.7510 -0.4694
 4502SOL     OW23714   4.334   9.397   2.159  0.2800  0.1312 -0.5870
 4502SOL    HW123715   4.381   9.463   2.101 -0.4922  0.0421 -1.3071
 4502SOL    HW223716   4.262   9.443   2.211  1.1246  0.2611  0.4993
 4503SOL     OW23717   1.048   3.576   2.899  0.1948 -0.4896 -0.2984
 4503SOL    HW123718   1.125   3.604   2.842 -0.3742  1.2487 -0.2462
 4503SOL    HW223719   0.997   3.657   2.928 -1.7451 -1.6337 -0.4496
 4504SOL     OW23720   1.139   6.107   0.041 -0.4311  0.0141  0.3342
 4504SOL    HW123721   1.234   6.136   0.043 -0.1745 -0.8742  2.4761
 4504SOL    HW223722   1.090   6.158  -0.029  1.4033  1.1565 -0.1446
 4505SOL     OW23723   3.571   2.588   2.550 -0.2139 -0.0636  0.1144
 4505SOL    HW123724   3.586   2.492   2.575  1.5154  0.0441 -0.4422
 4505SOL    HW223725   3.657   2.638   2.555 -0.6709  0.9539 -1.7760
 4506SOL     OW23726   9.989   4.427   0.640  0.0415 -0.4470  0.3939
 4506SOL    HW123727   9.999   4.417   0.739 -0.7464 -0.4715  0.4745
 4506SOL    HW223728   9.953   4.342   0.602  3.9463 -1.8154 -0.4491
 4507SOL     OW23729   0.277   4.238   3.376  0.3200 -0.1972  0.0958
 4507SOL    HW123730   0.319   4.197   3.457  1.2843 -0.2884 -0.4472
 4507SOL    HW223731   0.249   4.166   3.313 -0.7728 -0.1430  0.5131
 4508SOL     OW23732   4.518   8.246   0.200  0.9209  0.3130 -0.1834
 4508SOL    HW123733   4.463   8.177   0.248  1.3997 -1.1803 -1.7216
 4508SOL    HW223734   4.456   8.310   0.154  0.4646 -0.0162 -0.0399
 4509SOL     OW23735   3.305   0.844   1.770 -0.1894 -0.8730 -0.1410
 4509SOL    HW123736   3.339   0.789   1.694 -1.7315 -2.7416  0.4744
 4509SOL    HW223737   3.236   0.907   1.736 -0.0589 -0.9156 -0.4866
 4510SOL     OW23738   1.685   2.500   3.348  0.8815 -0.6062 -0.0656
 4510SOL    HW123739   1.733   2.535   3.428  1.5986 -0.5799 -0.4982
 4510SOL    HW223740   1.634   2.574   3.305  0.6728 -0.5711  0.2417
 4511SOL     OW23741   2.091   6.629   2.045 -0.1333 -0.0818 -0.1072
 4511SOL    HW123742   2.149   6.617   2.127 -1.5520 -0.5976  0.8338
 4511SOL    HW223743   2.119   6.563   1.975 -0.4558 -1.2442  0.8443
 4512SOL     OW23744   1.130   0.376   3.012  0.1981  0.5568 -0.0748
 4512SOL    HW123745   1.229   0.371   3.024  0.3581  0.2193 -1.4958
 4512SOL    HW223746   1.098   0.296   2.961 -0.5929  1.4249 -0.9597
 4513SOL     OW23747   0.762   0.781   2.513 -0.3719 -0.3567 -0.0520
 4513SOL    HW123748   0.675   0.787   2.561  0.4651 -0.4098  1.5003
 4513SOL    HW223749   0.831   0.740   2.573  0.6117 -0.7565 -1.4186
 4514SOL     OW23750   4.038   2.598   1.370  0.3638  0.7214  0.4293
 4514SOL    HW123751   4.069   2.683   1.412  0.9305  0.9284 -0.3886
 4514SOL    HW223752   3.949   2.612   1.328 -0.4448  0.3712  2.0036
 4515SOL     OW23753   8.821   2.265   1.540  0.0692  0.2379  0.0861
 4515SOL    HW123754   8.726   2.275   1.508 -0.2139  1.9261  1.3524
 4515SOL    HW223755   8.823   2.203   1.617 -0.1890  1.0618  0.7665
 4516SOL     OW23756   0.834   2.232   1.692  0.0535  0.0268 -0.3446
 4516SOL    HW123757   0.867   2.137   1.693  1.1678  0.3977  1.2371
 4516SOL    HW223758   0.905   2.291   1.653 -0.4884  0.2564 -0.9756
 4517SOL     OW23759   3.028   1.963   1.149  0.7647 -0.3661  0.4005
 4517SOL    HW123760   2.940   1.996   1.182  0.5256  2.5934 -2.9299
 4517SOL    HW223761   3.100   1.996   1.210 -0.0709  0.7908  0.7931
 4518SOL     OW23762   0.771   2.688   1.535  0.1125 -0.9220 -0.2614
 4518SOL    HW123763   0.764   2.597   1.496  2.4837 -0.8888 -0.8701
 4518SOL    HW223764   0.697   2.703   1.601 -0.5538 -3.0970 -0.4978
 4519SOL     OW23765   9.065   2.099   0.141  0.2071 -0.0697  0.3225
 4519SOL    HW123766   9.135   2.167   0.160 -0.0691  0.3711 -0.2144
 4519SOL    HW223767   9.055   2.039   0.220 -0.3461  1.2244  1.2634
 4520SOL     OW23768   0.285   0.618   2.550  0.2916 -0.0388  0.0387
 4520SOL    HW123769   0.210   0.609   2.484 -1.5908  2.4200  1.7450
 4520SOL    HW223770   0.255   0.583   2.638  1.5917 -0.1353  0.4434
 4521SOL     OW23771   9.664   9.293   2.010 -0.0166  0.0215 -0.4334
 4521SOL    HW123772   9.723   9.213   2.000  1.3265  1.0518 -0.8476
 4521SOL    HW223773   9.648   9.309   2.108 -0.1437 -0.6327 -0.3390
 4522SOL     OW23774   2.008   3.111   1.429 -0.0515  0.0570  0.6884
 4522SOL    HW123775   2.019   3.027   1.375  0.3865  1.1857 -0.9935
 4522SOL    HW223776   1.920   3.107   1.477 -0.6961 -0.7358 -0.5144
 4523SOL     OW23777   0.346   5.735   2.514 -0.3117  0.1232  0.1808
 4523SOL    HW123778   0.260   5.787   2.521  0.4571  1.1519  2.3673
 4523SOL    HW223779   0.385   5.749   2.423 -1.8345  0.6403 -0.4210
 4524SOL     OW23780   1.603   1.338   1.175 -0.2315  0.2525  0.0977
 4524SOL    HW123781   1.628   1.242   1.181 -3.5007 -0.5545  2.3359
 4524SOL    HW223782   1.652   1.391   1.244 -0.7002 -0.3750  0.9195
 4525SOL     OW23783   3.607   0.773   2.598  0.2518  0.2408  0.0185
 4525SOL    HW123784   3.640   0.716   2.673 -0.3874  1.7928  1.5082
 4525SOL    HW223785   3.557   0.716   2.533  0.3229 -1.0407  1.0504
 4526SOL     OW23786   8.723   2.492   2.290 -0.4900  0.4154  0.2681
 4526SOL    HW123787   8.776   2.441   2.358 -1.4004 -0.3785  0.3898
 4526SOL    HW223788   8.751   2.588   2.292  2.2582 -0.3376 -0.9816
 4527SOL     OW23789   7.682   1.658   1.585  0.4849 -0.3518 -0.5095
 4527SOL    HW123790   7.655   1.673   1.680  1.1493  0.8640 -0.5036
 4527SOL    HW223791   7.729   1.739   1.551 -0.2848 -0.5532 -2.0641
 4528SOL     OW23792   2.671   6.460   1.809  0.1423  0.0752  0.4239
 4528SOL    HW123793   2.752   6.516   1.827  1.1953 -0.8868 -1.2235
 4528SOL    HW223794   2.671   6.381   1.870  1.4279 -0.8728 -0.7461
 4529SOL     OW23795   2.544   2.265   0.581 -0.0296 -0.2221 -0.1985
 4529SOL    HW123796   2.470   2.208   0.615  0.4875 -1.0086 -0.3738
 4529SOL    HW223797   2.515   2.360   0.578 -0.8477 -0.4607  0.2416
 4530SOL     OW23798   1.143   3.030   0.117  0.4331  0.4614  0.4471
 4530SOL    HW123799   1.049   3.039   0.084  0.1287  0.1179  1.2184
 4530SOL    HW223800   1.164   2.934   0.132  1.4187  0.4064 -1.1923
 4531SOL     OW23801   8.188   0.560   1.123  0.1193  0.1570  0.6652
 4531SOL    HW123802   8.238   0.596   1.045 -0.6434  0.0698  0.1296
 4531SOL    HW223803   8.226   0.472   1.150 -1.0843 -0.9135 -1.0759
 4532SOL     OW23804   3.032   2.658   3.152  0.0560  0.4278 -0.0760
 4532SOL    HW123805   3.099   2.609   3.098 -1.0861  0.0887 -1.2181
 4532SOL    HW223806   2.940   2.637   3.118 -0.8065 -0.9632  2.9246
 4533SOL     OW23807   0.102   6.341   2.493  0.1921 -0.4978 -0.3394
 4533SOL    HW123808   0.165   6.410   2.456  0.6938 -0.0353  1.3386
 4533SOL    HW223809   0.143   6.250   2.482 -0.5279 -0.5592 -2.6726
 4534SOL     OW23810   0.189   8.540   3.335  0.5505  0.0613  0.5439
 4534SOL    HW123811   0.235   8.536   3.424  1.0576  0.5438  0.3120
 4534SOL    HW223812   0.157   8.634   3.319  1.2451  0.1850 -0.1598
 4535SOL     OW23813   9.732   5.618   2.672  0.1954 -0.0836 -0.0821
 4535SOL    HW123814   9.754   5.554   2.746 -0.3429  0.7785  0.8439
 4535SOL    HW223815   9.723   5.568   2.586  0.0482 -1.2166  0.5760
 4536SOL     OW23816   2.256   9.185   2.789 -0.1387  0.3694 -0.5717
 4536SOL    HW123817   2.293   9.098   2.757 -2.3553 -0.8495  0.0920
 4536SOL    HW223818   2.290   9.205   2.881  0.3112  0.2066 -0.6987
 4537SOL     OW23819   1.466   4.440   2.334 -0.1843  0.2959  0.3533
 4537SOL    HW123820   1.487   4.353   2.379 -1.5317  0.2605  0.9092
 4537SOL    HW223821   1.502   4.516   2.389  0.7047  0.1170  0.0304
 4538SOL     OW23822   3.875   8.185   0.875 -0.1932 -0.5460  0.0480
 4538SOL    HW123823   3.896   8.091   0.846  3.9826  0.4583 -0.5696
 4538SOL    HW223824   3.854   8.241   0.795 -2.0634 -0.8046  0.3530
 4539SOL     OW23825   0.478   5.274   1.039 -0.3650 -0.3891 -0.2193
 4539SOL    HW123826   0.531   5.250   0.957  0.2986  2.6151 -0.7041
 4539SOL    HW223827   0.541   5.296   1.114 -0.9785 -1.1671  0.5492
 4540SOL     OW23828   3.016   5.043   0.798 -0.4417 -0.4887  0.2942
 4540SOL    HW123829   3.028   4.945   0.777  1.0320  0.1025 -1.7630
 4540SOL    HW223830   2.924   5.071   0.772 -1.4125 -1.6360  2.2984
 4541SOL     OW23831   1.130   7.230   1.549 -0.0537 -0.3313  0.1566
 4541SOL    HW123832   1.174   7.199   1.633 -0.7951 -0.0749  0.6421
 4541SOL    HW223833   1.039   7.190   1.542  0.2388 -0.8491 -0.8405
 4542SOL     OW23834   2.111   5.756   0.211 -0.0979  0.0828 -0.2052
 4542SOL    HW123835   2.088   5.660   0.194 -1.5681  0.2996  0.3919
 4542SOL    HW223836   2.051   5.815   0.157 -0.0996  0.6752  0.4276
 4543SOL     OW23837   1.285   7.245   1.803 -0.0211  0.3970  0.2858
 4543SOL    HW123838   1.316   7.289   1.718 -1.1921 -0.7893 -0.7669
 4543SOL    HW223839   1.346   7.169   1.826 -0.9233 -0.6318 -0.6673
 4544SOL     OW23840   2.444   4.120   0.616  0.7237  0.7161  0.7047
 4544SOL    HW123841   2.513   4.189   0.637  2.2218  0.9126 -4.2358
 4544SOL    HW223842   2.361   4.165   0.583  0.7986  0.2304 -0.1384
 4545SOL     OW23843   3.560   7.623   2.184 -0.3079  0.1191  0.1685
 4545SOL    HW123844   3.650   7.662   2.205 -0.5381  1.0078 -0.4557
 4545SOL    HW223845   3.518   7.675   2.109 -0.3533 -1.7077 -1.1198
 4546SOL     OW23846   1.850   0.933   0.828 -0.2230 -0.1755  0.2340
 4546SOL    HW123847   1.763   0.970   0.796  0.1555  0.8645  0.3809
 4546SOL    HW223848   1.836   0.841   0.865 -0.8629 -0.9777 -1.8986
 4547SOL     OW23849   9.131   0.982   0.620 -0.0884 -0.2941  0.0568
 4547SOL    HW123850   9.138   0.884   0.639  0.6270 -0.6656 -1.9875
 4547SOL    HW223851   9.123   0.996   0.522  0.9747  1.7529  0.2396
 4548SOL     OW23852   7.543   0.471   1.598  0.3527  0.1329  0.1733
 4548SOL    HW123853   7.477   0.537   1.634  0.1893 -0.2923  0.6493
 4548SOL    HW223854   7.521   0.380   1.632 -0.1077 -0.3543 -1.4322
 4549SOL     OW23855   3.610   7.180   2.857  0.0686 -0.5279 -0.5402
 4549SOL    HW123856   3.554   7.153   2.935  1.5722  1.0394  1.1281
 4549SOL    HW223857   3.562   7.251   2.805  0.0861  0.1210  0.3216
 4550SOL     OW23858   4.448   8.636   2.929  0.0267  0.3755 -0.4481
 4550SOL    HW123859   4.457   8.537   2.926  0.5562  0.4460 -1.3614
 4550SOL    HW223860   4.357   8.663   2.897  0.4345  0.2728 -1.6964
 4551SOL     OW23861   9.129   0.624   2.671  0.4741  0.2093 -0.1770
 4551SOL    HW123862   9.197   0.617   2.745  0.3796 -0.2837 -0.1384
 4551SOL    HW223863   9.130   0.717   2.634  2.2678 -0.1961 -1.2133
 4552SOL     OW23864   2.029   9.377   2.655  0.0194 -0.2262 -0.1360
 4552SOL    HW123865   2.085   9.317   2.712  0.8688  0.7745  0.0767
 4552SOL    HW223866   1.939   9.387   2.697  0.1617 -0.6437  0.2813
 4553SOL     OW23867   9.319   4.213   0.820  1.0977 -0.6672  0.1594
 4553SOL    HW123868   9.235   4.161   0.834  1.5186 -1.3206  0.2447
 4553SOL    HW223869   9.320   4.250   0.727  0.5736 -0.3953  0.2571
 4554SOL     OW23870   1.325   1.005   1.343  0.2165  0.6036 -0.0857
 4554SOL    HW123871   1.318   1.084   1.283 -2.6880  1.2490  1.0150
 4554SOL    HW223872   1.336   1.036   1.438  3.1869 -0.3853 -0.0598
 4555SOL     OW23873   3.024   9.755   0.910 -0.9116 -0.0449  0.1374
 4555SOL    HW123874   3.089   9.814   0.958 -1.5720  1.0759 -0.3128
 4555SOL    HW223875   3.014   9.669   0.960  0.0770  0.2130  0.8028
 4556SOL     OW23876   1.051   5.538   0.029 -0.8329 -0.0947  0.6351
 4556SOL    HW123877   1.050   5.637   0.013 -3.1268 -0.5698 -2.7823
 4556SOL    HW223878   1.144   5.504   0.020 -0.5177  1.2859 -1.9059
 4557SOL     OW23879   2.900   0.582   2.125 -0.5693 -0.0290  0.3188
 4557SOL    HW123880   2.850   0.667   2.109 -0.9201 -0.1935  0.5226
 4557SOL    HW223881   2.835   0.506   2.127 -0.2340 -0.3324 -0.0913
 4558SOL     OW23882   2.742   0.460   0.939  0.5377  0.1999  0.0577
 4558SOL    HW123883   2.818   0.510   0.899  0.6861 -1.0511 -1.2731
 4558SOL    HW223884   2.777   0.386   0.996  0.3103  0.8936  1.1260
 4559SOL     OW23885   9.547   1.764   1.147  0.5968 -0.3848  0.0476
 4559SOL    HW123886   9.642   1.765   1.117 -0.2383 -1.1388 -2.8327
 4559SOL    HW223887   9.494   1.702   1.088 -1.7475  0.3251  1.3350
 4560SOL     OW23888   9.881   3.798   0.880  0.5108  0.2140  0.5135
 4560SOL    HW123889   9.838   3.707   0.887  1.5310 -0.2742  0.4240
 4560SOL    HW223890   9.811   3.865   0.857 -0.2759 -0.5323  0.6868
 4561SOL     OW23891   1.963   5.211   0.108  0.1232  0.0712 -0.6494
 4561SOL    HW123892   2.004   5.191   0.019  0.2689 -0.8656 -0.3803
 4561SOL    HW223893   1.864   5.218   0.099  0.2320  1.1082 -1.0820
 4562SOL     OW23894   4.085   0.703   0.739  0.0338 -0.5190  0.1133
 4562SOL    HW123895   4.020   0.691   0.664 -0.4430 -0.8846  0.5787
 4562SOL    HW223896   4.176   0.674   0.710 -0.2141 -0.9546 -0.2259
 4563SOL     OW23897   2.231   7.081   1.275 -0.3033 -0.3527 -0.5281
 4563SOL    HW123898   2.292   7.103   1.199  0.8308  0.5234  0.6205
 4563SOL    HW223899   2.137   7.102   1.248  0.1292  0.3703 -1.5439
 4564SOL     OW23900   3.179   9.462   1.884  0.6567 -0.1676 -0.2602
 4564SOL    HW123901   3.179   9.499   1.791  0.2988  0.7535  0.1041
 4564SOL    HW223902   3.137   9.528   1.946 -1.4659 -1.8142  0.1245
 4565SOL     OW23903   2.993   9.390   1.319  0.2873  0.4912 -0.0596
 4565SOL    HW123904   3.073   9.359   1.370  0.3306 -0.1385 -0.4959
 4565SOL    HW223905   2.913   9.387   1.378  0.6281  1.3560  0.4479
 4566SOL     OW23906   3.763   7.435   2.674 -0.1540 -1.3516 -0.8425
 4566SOL    HW123907   3.772   7.337   2.691 -1.3855 -1.5922 -1.5296
 4566SOL    HW223908   3.680   7.452   2.622 -0.8396  0.2372  0.7543
 4567SOL     OW23909   3.308   9.025   0.579 -0.2861 -0.4188 -0.5237
 4567SOL    HW123910   3.325   9.073   0.493  1.2038 -1.1415 -0.6406
 4567SOL    HW223911   3.332   9.085   0.656 -0.1536 -0.3205 -0.6402
 4568SOL     OW23912   3.029   7.442   0.850  0.3068  0.0132  0.3692
 4568SOL    HW123913   3.114   7.447   0.903 -0.5542  0.5117  1.7443
 4568SOL    HW223914   2.958   7.494   0.898 -0.2730  1.1889 -1.7239
 4569SOL     OW23915   1.319   5.413   3.430  0.5470  0.2084  0.0311
 4569SOL    HW123916   1.375   5.364   3.363  1.1139 -0.3409  0.9061
 4569SOL    HW223917   1.377   5.448   3.503 -0.0604  0.9010  0.1898
 4570SOL     OW23918   2.175   8.861   2.012 -0.3930 -0.7237  0.4219
 4570SOL    HW123919   2.236   8.909   2.075 -0.3801  0.3460 -0.3906
 4570SOL    HW223920   2.206   8.767   2.000 -0.9067 -1.2127  2.6982
 4571SOL     OW23921   9.884   1.847   2.276  0.4996  0.4352 -0.4907
 4571SOL    HW123922   9.858   1.872   2.369  0.6530  1.4908 -0.7141
 4571SOL    HW223923   9.867   1.750   2.261  2.1142 -0.1449  1.1892
 4572SOL     OW23924   2.565   8.473   2.770  0.3006  0.4546 -0.1646
 4572SOL    HW123925   2.564   8.522   2.683 -0.2419 -0.2659 -0.5737
 4572SOL    HW223926   2.651   8.424   2.780 -0.9297 -2.1448 -1.8363
 4573SOL     OW23927   2.868   7.524   3.336 -0.1074  0.0348  0.2686
 4573SOL    HW123928   2.917   7.606   3.306 -0.2676  0.0147 -0.0466
 4573SOL    HW223929   2.774   7.548   3.360  0.1289  0.1214  1.1249
 4574SOL     OW23930   0.113   1.569   3.228 -0.0682  0.3337 -0.0642
 4574SOL    HW123931   0.118   1.567   3.328  0.9541 -1.1678 -0.1311
 4574SOL    HW223932   0.020   1.595   3.201 -1.8832 -4.0855  1.3257
 4575SOL     OW23933   1.848   6.679   3.049  0.0023  0.5209 -0.3172
 4575SOL    HW123934   1.886   6.670   2.957  0.1911  1.1075 -0.2984
 4575SOL    HW223935   1.766   6.623   3.057  0.2610  0.0843 -0.6939
 4576SOL     OW23936   0.588   3.236   1.923 -0.2658  0.8210  0.7421
 4576SOL    HW123937   0.622   3.142   1.912 -0.3354  0.9544 -0.6559
 4576SOL    HW223938   0.494   3.242   1.891 -0.6469  1.1300  1.8743
 4577SOL     OW23939   3.728   2.224   0.591  0.6675  0.2142 -0.3238
 4577SOL    HW123940   3.792   2.261   0.524 -1.3801  3.1137 -0.7859
 4577SOL    HW223941   3.636   2.222   0.551 -0.3235  0.5324  1.8724
 4578SOL     OW23942   3.148   2.461   2.979 -0.0313 -0.2590  0.6059
 4578SOL    HW123943   3.070   2.454   2.917  1.3996  0.7011 -1.3469
 4578SOL    HW223944   3.230   2.485   2.928  1.4585 -0.6535  2.7106
 4579SOL     OW23945   0.218   2.677   3.234 -0.8092  1.2626 -0.4835
 4579SOL    HW123946   0.178   2.716   3.316  2.9152 -0.5257  2.3725
 4579SOL    HW223947   0.161   2.602   3.201 -2.4879  2.1795  0.3120
 4580SOL     OW23948   2.317   0.874   1.263  0.2152  0.0476  0.5032
 4580SOL    HW123949   2.362   0.836   1.344 -1.9893 -1.4373  1.0855
 4580SOL    HW223950   2.273   0.961   1.287 -0.4288 -0.3870  0.9037
 4581SOL     OW23951   1.501   7.870   3.258  0.2951  0.0784 -0.4372
 4581SOL    HW123952   1.437   7.797   3.283  1.1928  0.2576  2.5251
 4581SOL    HW223953   1.450   7.953   3.237 -0.5234 -0.2929  0.0522
 4582SOL     OW23954   3.953   1.874   1.010 -0.3656 -0.1282  0.1242
 4582SOL    HW123955   4.025   1.812   0.980 -1.2777 -0.8153 -0.6792
 4582SOL    HW223956   3.891   1.893   0.934 -1.2761  0.1137  0.9094
 4583SOL     OW23957   1.198   4.989   0.723  0.0574  0.3016 -0.4376
 4583SOL    HW123958   1.115   4.937   0.703  1.1660 -1.4705 -0.4848
 4583SOL    HW223959   1.259   4.935   0.780  0.6596  2.0702  0.6528
 4584SOL     OW23960   9.547   4.909   0.788 -0.0727  0.5058 -0.3873
 4584SOL    HW123961   9.563   5.000   0.749  1.4354  0.0920 -0.7654
 4584SOL    HW223962   9.544   4.841   0.714  0.2251  0.0568  0.0067
 4585SOL     OW23963   9.840   5.397   3.212 -0.8481  0.5692 -0.3694
 4585SOL    HW123964   9.887   5.486   3.210  0.2037  0.0188 -0.7913
 4585SOL    HW223965   9.894   5.332   3.265 -1.1788 -0.0579 -0.7945
 4586SOL     OW23966   3.688   2.184   2.130  0.0553 -0.1248 -0.2005
 4586SOL    HW123967   3.768   2.147   2.083 -0.6452 -0.3696 -1.2203
 4586SOL    HW223968   3.695   2.165   2.228 -0.3890 -3.1445 -0.7030
 4587SOL     OW23969   1.291   3.145   1.078 -0.0089  0.0093 -0.2474
 4587SOL    HW123970   1.329   3.205   1.148  1.9208 -2.6735  1.0963
 4587SOL    HW223971   1.270   3.056   1.118 -3.4958 -0.0446 -2.0335
 4588SOL     OW23972   4.168   1.318   1.366  0.4971  0.6479  0.2258
 4588SOL    HW123973   4.164   1.343   1.463  1.2987 -0.0039  0.4342
 4588SOL    HW223974   4.075   1.315   1.329  0.2252  1.4248  0.8385
 4589SOL     OW23975   3.278   2.494   1.337 -0.5452  0.4554  0.1945
 4589SOL    HW123976   3.281   2.480   1.239 -0.7317 -1.3739  0.4328
 4589SOL    HW223977   3.371   2.503   1.372 -0.2778 -2.1560  0.2649
 4590SOL     OW23978   1.273   3.732   0.584 -0.2359  0.7424  0.5449
 4590SOL    HW123979   1.204   3.665   0.555  1.5968 -0.4881 -1.0991
 4590SOL    HW223980   1.280   3.805   0.517 -0.5141  1.3076  1.1241
 4591SOL     OW23981   5.321   9.780   2.548 -0.0523 -0.1684 -0.1277
 4591SOL    HW123982   5.340   9.876   2.532  0.8075 -0.5158 -1.2960
 4591SOL    HW223983   5.236   9.771   2.600 -0.2451  1.2057 -0.1832
 4592SOL     OW23984   9.394   0.693   2.341 -0.0798  0.3108  0.0961
 4592SOL    HW123985   9.378   0.770   2.280 -1.3418  0.9287  1.1867
 4592SOL    HW223986   9.338   0.615   2.313  1.3610 -0.3147 -1.1404
 4593SOL     OW23987   0.957   7.056   3.377  0.4936 -0.5011  0.3500
 4593SOL    HW123988   1.045   7.009   3.382 -0.0007 -1.3571  1.5754
 4593SOL    HW223989   0.903   7.017   3.302  1.2088  0.1217 -0.4910
 4594SOL     OW23990   3.290   2.469   1.072  0.3030  0.5904  0.0583
 4594SOL    HW123991   3.382   2.463   1.111  0.1177  0.6605  0.5023
 4594SOL    HW223992   3.276   2.394   1.007  0.9765  1.0656 -0.6484
 4595SOL     OW23993   2.659   9.052   1.626 -0.1822  0.5732 -0.1193
 4595SOL    HW123994   2.661   8.955   1.651  0.6362  0.8036  0.7789
 4595SOL    HW223995   2.640   9.061   1.529  0.8005 -0.5357 -0.4379
 4596SOL     OW23996   3.515   0.085   2.583  0.2246  0.3000  0.0304
 4596SOL    HW123997   3.607   0.085   2.621  1.0378 -1.2118 -1.8338
 4596SOL    HW223998   3.477   0.177   2.586  1.6900  0.8752  1.0794
 4597SOL     OW23999   3.275   3.911   3.304 -0.2991 -0.6130 -0.4369
 4597SOL    HW124000   3.287   3.833   3.365  2.5034  0.4376  0.4378
 4597SOL    HW224001   3.349   3.912   3.237 -0.1404  1.4581 -0.2549
 4598SOL     OW24002   1.963   2.615   2.564  0.0330 -0.0902  0.3247
 4598SOL    HW124003   2.061   2.595   2.573  0.3658  1.7801  0.9182
 4598SOL    HW224004   1.912   2.562   2.631  0.7046 -0.5446  0.4829
 4599SOL     OW24005   4.354   8.571   1.167 -0.2361  0.2426  0.5362
 4599SOL    HW124006   4.313   8.592   1.257 -1.0855 -1.3540  0.5321
 4599SOL    HW224007   4.416   8.494   1.176  0.1120  0.4437 -0.1471
 4600SOL     OW24008   7.643   0.730   0.510 -0.3090  0.4805 -0.1625
 4600SOL    HW124009   7.615   0.795   0.580  2.2648  1.5962 -0.1077
 4600SOL    HW224010   7.562   0.692   0.465 -1.9075  1.8711  1.4705
 4601SOL     OW24011   0.754   8.661   1.954  0.7381 -0.5893  0.4408
 4601SOL    HW124012   0.777   8.605   1.874  1.0507 -1.1107  0.8900
 4601SOL    HW224013   0.655   8.659   1.969  0.5340  0.5729 -0.7061
 4602SOL     OW24014   3.287   7.546   1.266 -0.4616  0.1345  0.5152
 4602SOL    HW124015   3.223   7.546   1.343 -0.6470  2.1358  0.4036
 4602SOL    HW224016   3.250   7.603   1.192  0.5170 -0.3296 -0.3456
 4603SOL     OW24017   2.706   2.437   3.425 -0.1120  0.6121  0.1041
 4603SOL    HW124018   2.635   2.480   3.369 -0.1921  0.2556 -0.0661
 4603SOL    HW224019   2.781   2.502   3.439 -0.6514  1.1380  0.6318
 4604SOL     OW24020   1.861   8.355   1.539 -0.5467 -0.0282 -0.0110
 4604SOL    HW124021   1.943   8.375   1.592 -0.6878 -0.7379  0.4682
 4604SOL    HW224022   1.821   8.441   1.508  2.0872  0.2621 -2.8728
 4605SOL     OW24023   0.575   9.364   0.372 -0.6599  0.2549  0.5141
 4605SOL    HW124024   0.547   9.268   0.362 -1.3150  0.2518  2.2218
 4605SOL    HW224025   0.665   9.376   0.330 -0.6214 -1.0738  0.1753
 4606SOL     OW24026   2.714   8.792   1.544  0.2346  0.2066 -0.0615
 4606SOL    HW124027   2.787   8.769   1.608  0.2252 -0.7455 -0.3789
 4606SOL    HW224028   2.670   8.708   1.513 -0.1456  0.6984 -0.8701
 4607SOL     OW24029   0.045   3.517   2.713 -0.0074  0.7054 -0.6018
 4607SOL    HW124030   0.142   3.540   2.723  0.7797 -3.0177  1.0661
 4607SOL    HW224031   0.011   3.479   2.799 -2.8980  1.6779 -1.2817
 4608SOL     OW24032   3.442   8.939   2.667  0.2355  0.3435 -0.2513
 4608SOL    HW124033   3.503   8.932   2.588 -0.3299 -2.5023 -0.4963
 4608SOL    HW224034   3.349   8.957   2.637  0.1655  0.1061 -0.1798
 4609SOL     OW24035   0.113   1.771   2.834 -0.2067  0.0504  0.2366
 4609SOL    HW124036   0.177   1.715   2.886  2.2556  3.6378  1.2432
 4609SOL    HW224037   0.130   1.758   2.736  1.8674  0.7387  0.4875
 4610SOL     OW24038   0.660   1.767   0.068 -0.6426  0.1067 -0.0100
 4610SOL    HW124039   0.590   1.829   0.105 -0.8362  0.2994 -0.6800
 4610SOL    HW224040   0.618   1.679   0.048 -0.7392  0.2822 -0.5872
 4611SOL     OW24041   1.208   3.421   1.391  0.5823  0.1353  0.2224
 4611SOL    HW124042   1.120   3.466   1.407  1.1967  1.5424 -0.2903
 4611SOL    HW224043   1.255   3.408   1.478  0.4198  0.5444  0.3726
 4612SOL     OW24044   3.635   9.700   0.845  0.2125  0.1773 -0.2283
 4612SOL    HW124045   3.715   9.655   0.805 -0.3453 -0.0885 -1.0691
 4612SOL    HW224046   3.607   9.653   0.928  0.9843  0.3260  0.1162
 4613SOL     OW24047   2.696   6.439   2.278  0.3810 -0.2531 -0.4934
 4613SOL    HW124048   2.684   6.360   2.338  0.6362 -0.0122 -0.1293
 4613SOL    HW224049   2.792   6.448   2.252  0.0596 -1.2209 -2.1204
 4614SOL     OW24050   9.567   9.754   2.112  0.1760  0.1918 -0.6088
 4614SOL    HW124051   9.626   9.719   2.039 -1.0257  1.2960 -2.1471
 4614SOL    HW224052   9.588   9.707   2.198  1.9364 -0.7942 -1.5633
 4615SOL     OW24053   9.240   1.284   2.330 -0.5714 -0.3522  0.0739
 4615SOL    HW124054   9.177   1.226   2.278  0.0839 -1.3839  0.4161
 4615SOL    HW224055   9.223   1.380   2.308 -2.6676 -0.5805  0.6361
 4616SOL     OW24056   0.792   9.643   0.584 -0.1307 -0.1280 -0.1071
 4616SOL    HW124057   0.890   9.660   0.597 -0.0076  1.1587 -2.3675
 4616SOL    HW224058   0.769   9.552   0.618  1.8058 -0.3719  0.6094
 4617SOL     OW24059   1.004   1.607   0.394  0.2433 -0.2212  0.1302
 4617SOL    HW124060   0.957   1.666   0.329  1.2721  1.1834  0.6443
 4617SOL    HW224061   0.938   1.566   0.457 -0.6501 -0.8385 -1.1783
 4618SOL     OW24062   0.300   5.885   0.192  0.4518 -0.0592  0.0252
 4618SOL    HW124063   0.338   5.947   0.261  1.1100  0.8983 -1.1758
 4618SOL    HW224064   0.373   5.826   0.157  0.1270 -0.5099  0.1073
 4619SOL     OW24065   4.413   0.532   0.355 -0.3505 -0.6278  0.1053
 4619SOL    HW124066   4.472   0.496   0.427  0.7464 -1.6382 -1.2716
 4619SOL    HW224067   4.321   0.549   0.392  0.0911 -1.4992  1.6319
 4620SOL     OW24068   4.964   2.398   1.168 -1.0377  1.0727 -0.3894
 4620SOL    HW124069   5.039   2.344   1.131 -0.3580  2.4426 -1.0308
 4620SOL    HW224070   4.948   2.371   1.263 -2.0245 -1.6381 -1.2691
 4621SOL     OW24071   2.821   4.459   1.831  0.2142  0.4279  0.1671
 4621SOL    HW124072   2.883   4.383   1.850  0.7936  1.4818  2.6891
 4621SOL    HW224073   2.865   4.525   1.771  0.6989  0.0612  0.1209
 4622SOL     OW24074   1.659   8.403   2.572  0.3725  0.0878 -0.8128
 4622SOL    HW124075   1.681   8.310   2.602 -0.9313  0.1785  0.4763
 4622SOL    HW224076   1.685   8.469   2.643 -0.6914  0.5021 -0.7905
 4623SOL     OW24077   3.665   7.865   2.692  0.1355 -0.0063  0.3368
 4623SOL    HW124078   3.681   7.849   2.594  0.0992 -1.9386  0.6272
 4623SOL    HW224079   3.568   7.889   2.706  0.1775  0.4464 -0.1017
 4624SOL     OW24080   1.927   3.627   2.915 -0.4589 -0.1402 -0.3214
 4624SOL    HW124081   1.975   3.642   2.829 -0.7668  0.2019 -0.4408
 4624SOL    HW224082   1.989   3.589   2.983  0.6067  2.4565  0.2335
 4625SOL     OW24083   0.599   8.798   2.689 -0.0113 -0.2533  0.1846
 4625SOL    HW124084   0.661   8.873   2.667  0.5613 -1.4246 -2.3663
 4625SOL    HW224085   0.651   8.724   2.733 -0.0611 -0.2559  0.2379
 4626SOL     OW24086   8.176   2.989   1.998  0.3541  0.0796 -0.7016
 4626SOL    HW124087   8.239   3.011   2.073 -1.5445 -1.0955  1.2766
 4626SOL    HW224088   8.093   3.044   2.007  0.0652 -0.1472 -1.9135
 4627SOL     OW24089   0.747   3.624   2.959 -0.1049  0.1207 -0.6278
 4627SOL    HW124090   0.816   3.695   2.976  1.8128 -1.7618 -0.3863
 4627SOL    HW224091   0.780   3.536   2.993 -2.5908 -0.8561 -0.6409
 4628SOL     OW24092   4.405   9.742   2.897 -0.0451  0.3367  0.2692
 4628SOL    HW124093   4.338   9.748   2.971  1.0833  0.9925  1.2545
 4628SOL    HW224094   4.434   9.834   2.872 -0.5698  0.1318 -1.1522
 4629SOL     OW24095   1.790   8.484   3.246  0.3295 -0.2746 -0.0504
 4629SOL    HW124096   1.800   8.560   3.310  0.4630  0.4893 -0.9636
 4629SOL    HW224097   1.869   8.481   3.185 -0.2119 -0.4374 -0.7539
 4630SOL     OW24098   8.654   2.686   2.717 -0.4912 -0.2185  0.1095
 4630SOL    HW124099   8.638   2.699   2.815  0.5912 -0.4120  0.3138
 4630SOL    HW224100   8.750   2.701   2.696 -0.6726 -0.4071 -0.8968
 4631SOL     OW24101   1.624   8.765   2.707  0.3473  0.2461  0.1745
 4631SOL    HW124102   1.692   8.792   2.776 -0.2265  1.1877  0.3758
 4631SOL    HW224103   1.627   8.666   2.695  0.4959  0.0784  1.5127
 4632SOL     OW24104   0.365   4.799   0.193  0.0159 -0.6516  0.6251
 4632SOL    HW124105   0.407   4.889   0.195  0.4824 -0.8900  1.6159
 4632SOL    HW224106   0.297   4.791   0.265 -0.3063 -0.9629  0.2937
 4633SOL     OW24107   1.600   1.466   0.123 -0.6945  0.3504  0.5283
 4633SOL    HW124108   1.639   1.488   0.213 -2.0383 -0.3506  1.3035
 4633SOL    HW224109   1.537   1.538   0.096 -0.1907  0.6259  0.0779
 4634SOL     OW24110   4.773   7.794   2.280  0.4658 -0.2918  0.1372
 4634SOL    HW124111   4.823   7.856   2.219 -2.3806  1.1453 -0.7918
 4634SOL    HW224112   4.727   7.724   2.227  0.7704 -1.1026  0.9226
 4635SOL     OW24113   9.953   3.894   1.714  0.5235 -0.7695  0.3115
 4635SOL    HW124114   9.946   3.821   1.782  0.5911 -0.0211  1.1353
 4635SOL    HW224115  10.047   3.927   1.709  0.5213 -0.8251 -0.1576
 4636SOL     OW24116   0.317   2.263   2.063  0.2971 -0.0942  0.0822
 4636SOL    HW124117   0.302   2.354   2.101  0.5424 -0.1580  0.3402
 4636SOL    HW224118   0.407   2.259   2.019  0.7645 -0.5299  1.0607
 4637SOL     OW24119   6.358   9.496   2.165 -0.0630 -0.2911 -0.4062
 4637SOL    HW124120   6.285   9.438   2.202 -0.6854  1.0593  0.4944
 4637SOL    HW224121   6.340   9.592   2.187  1.6971  0.1218 -0.6586
 4638SOL     OW24122   3.508   8.631   1.385 -0.5915  0.0829  0.0215
 4638SOL    HW124123   3.448   8.669   1.315 -0.7016 -1.5157 -0.7858
 4638SOL    HW224124   3.459   8.624   1.472 -2.3764 -3.3098 -1.1699
 4639SOL     OW24125   8.700   4.442   0.013  0.1587 -0.3447 -0.1210
 4639SOL    HW124126   8.618   4.390   0.034 -1.0008  1.9836  1.3197
 4639SOL    HW224127   8.702   4.463  -0.085 -1.4194  0.2677 -0.0444
 4640SOL     OW24128   3.098   4.706   0.892 -0.0089 -0.3135  0.2625
 4640SOL    HW124129   3.073   4.676   0.984  1.2800 -2.2616  0.0026
 4640SOL    HW224130   3.197   4.715   0.885 -0.2117  1.6162 -0.4242
 4641SOL     OW24131   1.513   8.412   3.125 -0.2897  0.0870  0.3204
 4641SOL    HW124132   1.555   8.503   3.122  2.2304 -1.0124  1.0932
 4641SOL    HW224133   1.467   8.399   3.212 -0.3217  0.4895  0.3637
 4642SOL     OW24134   4.207   8.697   2.834  0.2403 -0.6506  0.0940
 4642SOL    HW124135   4.248   8.767   2.776 -0.6991 -0.1021  0.0828
 4642SOL    HW224136   4.140   8.740   2.895  0.0651 -1.4567  0.4699
 4643SOL     OW24137   2.865   2.443   2.490  0.4319 -0.6462 -0.0270
 4643SOL    HW124138   2.919   2.446   2.406 -0.9856  1.9274 -0.8995
 4643SOL    HW224139   2.802   2.366   2.486  1.6502 -1.6412 -0.4969
 4644SOL     OW24140   8.884   2.191   1.023  0.2945  0.0655  0.1179
 4644SOL    HW124141   8.871   2.174   1.120  2.9121  0.3203  0.5331
 4644SOL    HW224142   8.797   2.176   0.975 -0.3445 -2.8366  2.0646
 4645SOL     OW24143   0.480   2.633   3.299  0.7371  0.1644 -0.1108
 4645SOL    HW124144   0.513   2.604   3.209 -0.6286 -1.8919  0.0214
 4645SOL    HW224145   0.385   2.664   3.291  0.8229  0.5924  0.5119
 4646SOL     OW24146   1.959   0.491   0.525  0.1012  0.8668 -0.0627
 4646SOL    HW124147   1.877   0.435   0.513  0.2421  0.8302 -0.8420
 4646SOL    HW224148   1.959   0.530   0.617  0.0360 -0.4775  0.5185
 4647SOL     OW24149   2.979   4.800   0.379 -0.5069  0.3214  0.3836
 4647SOL    HW124150   2.984   4.802   0.479 -0.9427  2.1139  0.3780
 4647SOL    HW224151   2.883   4.797   0.351 -0.3758 -0.5471  0.0127
 4648SOL     OW24152   0.428   4.655   2.337 -0.2550 -0.2223  0.2130
 4648SOL    HW124153   0.511   4.636   2.388  0.2390  1.4584  0.0506
 4648SOL    HW224154   0.449   4.658   2.239 -0.5685 -0.0855  0.1487
 4649SOL     OW24155   4.382   9.158   0.344 -0.2807 -0.3409  0.2021
 4649SOL    HW124156   4.367   9.217   0.264  0.6957 -0.1802  0.1302
 4649SOL    HW224157   4.366   9.210   0.427 -0.3904 -0.2425  0.1189
 4650SOL     OW24158   2.523   0.033   0.982  0.1394  0.2215 -0.1356
 4650SOL    HW124159   2.530   0.110   1.046 -1.8444 -0.4320  0.8907
 4650SOL    HW224160   2.604  -0.026   0.992 -0.3337 -0.0870  2.0632
 4651SOL     OW24161   1.371   1.479   0.836  0.0475  0.0844  0.4749
 4651SOL    HW124162   1.326   1.539   0.901  0.4310 -1.1509  1.9131
 4651SOL    HW224163   1.467   1.466   0.863 -0.1595 -1.5738  0.4960
 4652SOL     OW24164   3.412   4.450   2.643  0.3948 -0.1742  0.2737
 4652SOL    HW124165   3.315   4.452   2.667  0.3281 -0.5970  0.0488
 4652SOL    HW224166   3.467   4.445   2.726  0.2007 -0.5758  0.3786
 4653SOL     OW24167   0.999   9.329   1.734  0.3904  0.1711 -0.0611
 4653SOL    HW124168   1.033   9.254   1.791  0.2085  1.5030  1.8323
 4653SOL    HW224169   0.899   9.332   1.741  0.3475  0.1649 -0.6879
 4654SOL     OW24170   0.570   2.960   2.378 -0.2155 -0.1347  0.0424
 4654SOL    HW124171   0.545   2.907   2.459  0.1514  1.5190  1.2653
 4654SOL    HW224172   0.487   2.990   2.332 -0.4391 -0.2987  0.3315
 4655SOL     OW24173   9.700   3.878   0.107 -0.3474 -0.0764 -0.0076
 4655SOL    HW124174   9.778   3.938   0.126  0.9293 -1.4350 -0.8684
 4655SOL    HW224175   9.667   3.838   0.193 -1.5232  2.2040  0.6374
 4656SOL     OW24176   0.820   4.562   0.946 -0.7310 -0.2740 -0.0982
 4656SOL    HW124177   0.738   4.599   0.902 -0.5024 -0.5210 -0.7267
 4656SOL    HW224178   0.810   4.464   0.960 -0.2318 -0.4418 -0.8730
 4657SOL     OW24179   9.358   3.734   2.966 -0.0666 -0.0423 -0.4345
 4657SOL    HW124180   9.452   3.702   2.966  0.6494  1.9878 -1.3667
 4657SOL    HW224181   9.332   3.761   3.059  0.0563 -1.1706 -0.0678
 4658SOL     OW24182   0.975   8.658   0.019 -0.3136 -0.1032 -0.0410
 4658SOL    HW124183   0.916   8.722   0.068 -1.1897 -0.0824 -1.1107
 4658SOL    HW224184   0.943   8.564   0.034  0.8471 -0.2915  1.3593
 4659SOL     OW24185   3.616   1.275   0.390 -0.4320 -0.0459  0.7157
 4659SOL    HW124186   3.668   1.239   0.312  0.2485  1.3570  0.4997
 4659SOL    HW224187   3.553   1.345   0.357 -1.2240 -0.5092  1.2323
 4660SOL     OW24188   8.645   2.209   1.922  0.2337 -0.2111  0.0266
 4660SOL    HW124189   8.592   2.126   1.937  1.1075 -0.7043  0.3725
 4660SOL    HW224190   8.583   2.284   1.899 -0.4864 -1.1471 -1.1222
 4661SOL     OW24191   2.911   2.607   0.023  0.4226  0.2022 -0.0690
 4661SOL    HW124192   2.992   2.625  -0.032 -0.7805  0.3523 -1.8102
 4661SOL    HW224193   2.853   2.688   0.026 -0.4474 -0.4047 -0.1734
 4662SOL     OW24194   8.468   1.447   2.981 -0.0742  0.1199 -0.0674
 4662SOL    HW124195   8.390   1.469   3.039 -0.5868 -2.3565  0.2785
 4662SOL    HW224196   8.540   1.405   3.036  0.8969  1.0287 -0.6369
 4663SOL     OW24197   9.680   1.181   0.268 -0.1133 -0.3875  0.0623
 4663SOL    HW124198   9.720   1.157   0.357 -2.1286 -1.2157  0.7729
 4663SOL    HW224199   9.593   1.132   0.256 -0.8602  1.2753 -1.4963
 4664SOL     OW24200   3.540   8.542   0.142 -0.6957  0.3119  0.0706
 4664SOL    HW124201   3.630   8.586   0.146 -1.2574  1.4856  0.1607
 4664SOL    HW224202   3.551   8.443   0.139  0.5548  0.3398  2.2720
 4665SOL     OW24203   3.147   9.293   2.435 -0.9226  0.2700 -0.4421
 4665SOL    HW124204   3.160   9.282   2.336  1.3116 -1.1788 -0.0313
 4665SOL    HW224205   3.219   9.353   2.471 -1.2221  0.1130  0.4321
 4666SOL     OW24206   8.855   3.429   0.207  0.4864  0.2948  0.4600
 4666SOL    HW124207   8.824   3.341   0.242 -0.6687  0.6885  0.4559
 4666SOL    HW224208   8.900   3.481   0.280 -0.2688  0.3580  0.8841
 4667SOL     OW24209   1.295   7.276   0.406 -0.1135  0.0955 -0.2523
 4667SOL    HW124210   1.317   7.185   0.440 -0.6958  0.4310  1.0735
 4667SOL    HW224211   1.247   7.268   0.319  0.0392 -0.8611 -0.2560
 4668SOL     OW24212   2.339   5.701   0.384  0.3147  0.3821 -0.2345
 4668SOL    HW124213   2.418   5.754   0.352  0.7040  0.7520  1.3146
 4668SOL    HW224214   2.260   5.723   0.328  1.4216 -0.4009 -2.1679
 4669SOL     OW24215   5.921   9.362   2.780  0.2353  0.2474  0.5087
 4669SOL    HW124216   6.021   9.363   2.783  0.2548  1.8687 -0.4656
 4669SOL    HW224217   5.891   9.352   2.685 -0.5426  0.5510  0.7247
 4670SOL     OW24218   9.678   4.732   3.160  0.1102 -0.8743  0.0763
 4670SOL    HW124219   9.609   4.668   3.127 -0.2192 -0.5337  0.0967
 4670SOL    HW224220   9.635   4.797   3.223  0.6591 -1.3038  0.9000
 4671SOL     OW24221   2.565   8.080   0.820 -0.2873 -0.8302 -0.0613
 4671SOL    HW124222   2.591   7.990   0.784  0.8000 -0.9396  0.9587
 4671SOL    HW224223   2.521   8.069   0.909 -0.3268 -0.3647 -0.0211
 4672SOL     OW24224   8.115   0.892   0.146  0.4332 -0.1252 -0.5223
 4672SOL    HW124225   8.067   0.857   0.227  0.3539 -0.5833 -0.7649
 4672SOL    HW224226   8.066   0.973   0.111  2.0396  1.7952  1.5242
 4673SOL     OW24227   0.730   6.482   0.222 -0.4547  0.2683 -0.0604
 4673SOL    HW124228   0.780   6.403   0.257  0.3635  0.3875 -0.9411
 4673SOL    HW224229   0.782   6.566   0.240 -0.0683  0.3407 -1.4605
 4674SOL     OW24230   9.931   8.873   1.844  0.4138 -0.2298  0.0529
 4674SOL    HW124231   9.907   8.833   1.756  1.0354 -1.1599  0.3047
 4674SOL    HW224232  10.030   8.884   1.850  0.3693 -0.1346  0.6271
 4675SOL     OW24233   2.323   5.816   1.719  0.2983 -0.4459  0.3011
 4675SOL    HW124234   2.333   5.905   1.674  0.9737 -1.2009 -1.1182
 4675SOL    HW224235   2.236   5.811   1.767 -0.2398  0.5822 -0.5585
 4676SOL     OW24236   0.238   1.545   0.341  0.3204  0.2183 -0.4322
 4676SOL    HW124237   0.274   1.592   0.421  2.4268 -0.3035 -1.0524
 4676SOL    HW224238   0.267   1.449   0.343 -1.2754 -0.2883 -0.8114
 4677SOL     OW24239   3.252   8.693   2.397  0.5246 -0.0904 -0.3468
 4677SOL    HW124240   3.167   8.745   2.398  1.0785  0.7999  0.5678
 4677SOL    HW224241   3.330   8.756   2.392  1.2688 -0.7095  2.4659
 4678SOL     OW24242   2.482   5.064   3.250 -0.3122 -0.0340 -1.0180
 4678SOL    HW124243   2.574   5.034   3.222 -0.1837 -0.2341 -0.4033
 4678SOL    HW224244   2.440   5.115   3.176  0.8070  1.1915 -0.8269
 4679SOL     OW24245   1.377   0.736   2.388  0.4233 -0.2000 -0.3829
 4679SOL    HW124246   1.356   0.790   2.470 -0.2479  0.1866 -0.8012
 4679SOL    HW224247   1.396   0.798   2.312  0.2397 -0.5548 -0.7182
 4680SOL     OW24248   2.727   7.770   1.131 -0.3782  0.2239  0.0176
 4680SOL    HW124249   2.635   7.761   1.093 -0.3761  1.2905 -0.2442
 4680SOL    HW224250   2.794   7.741   1.063 -0.3944  1.7638 -0.6633
 4681SOL     OW24251   3.017   9.658   1.303 -0.0776 -0.1458  0.3653
 4681SOL    HW124252   3.106   9.697   1.329  0.6502 -1.1700 -0.5737
 4681SOL    HW224253   3.027   9.561   1.284 -0.9738  0.1720 -1.8505
 4682SOL     OW24254   3.350   2.824   3.036 -0.3155  0.0537 -0.4223
 4682SOL    HW124255   3.362   2.807   3.134 -0.1951 -2.9430 -0.8998
 4682SOL    HW224256   3.259   2.861   3.019 -0.3080  0.6583  0.8234
 4683SOL     OW24257   0.948   6.124   3.080  0.3247 -0.7160  0.6218
 4683SOL    HW124258   0.981   6.212   3.047 -0.7070 -0.0155  1.4312
 4683SOL    HW224259   1.023   6.057   3.077  1.2210  0.2882  0.3837
 4684SOL     OW24260   0.907   5.600   3.148 -0.0317  1.0065  0.2689
 4684SOL    HW124261   1.004   5.578   3.136 -0.2960 -0.6056  0.8964
 4684SOL    HW224262   0.872   5.645   3.066  0.2269 -2.2404 -1.6943
 4685SOL     OW24263   7.908   3.032   0.114 -0.1488  0.0280 -0.5784
 4685SOL    HW124264   7.996   3.077   0.131 -1.0731  1.6261  0.0235
 4685SOL    HW224265   7.900   2.952   0.172  1.8275 -1.3799 -2.1796
 4686SOL     OW24266   3.274   2.772   1.530  0.3614 -0.4144  0.0403
 4686SOL    HW124267   3.206   2.778   1.457 -0.4278  0.9490  0.8748
 4686SOL    HW224268   3.275   2.857   1.582  1.5675 -1.0302  1.0525
 4687SOL     OW24269   1.580   9.023   0.059 -0.3129 -0.4142 -0.2313
 4687SOL    HW124270   1.522   8.942   0.063  0.6523 -1.1547 -1.2295
 4687SOL    HW224271   1.665   9.002   0.010 -0.5822  1.5067 -1.5860
 4688SOL     OW24272   1.545   5.966   0.324  0.1440 -0.0526 -0.1839
 4688SOL    HW124273   1.619   5.902   0.343 -0.2273 -0.3509  0.2743
 4688SOL    HW224274   1.476   5.959   0.396  0.0263  0.7494 -0.2160
 4689SOL     OW24275   1.434   5.384   0.830  0.2102 -0.3772 -1.0289
 4689SOL    HW124276   1.420   5.376   0.929  0.3211 -0.9052 -1.0514
 4689SOL    HW224277   1.529   5.405   0.811 -0.1926  1.5897 -0.9468
 4690SOL     OW24278   1.388   6.512   2.621 -0.3775  0.0700  0.0930
 4690SOL    HW124279   1.316   6.581   2.619 -0.1596  0.2935  0.0346
 4690SOL    HW224280   1.459   6.540   2.686  0.5733  0.7475 -1.2284
 4691SOL     OW24281   2.864   4.099   0.209 -0.3959  0.1347 -0.2710
 4691SOL    HW124282   2.785   4.038   0.204 -0.5667  0.4695 -1.9270
 4691SOL    HW224283   2.878   4.143   0.120  1.4786  0.3087  0.0862
 4692SOL     OW24284   9.150   2.022   1.577  0.3167 -0.2066  0.0497
 4692SOL    HW124285   9.236   2.038   1.626 -0.6961  0.8582  1.5526
 4692SOL    HW224286   9.084   1.978   1.639 -1.5242  2.6136  0.2061
 4693SOL     OW24287   1.765   7.582   0.879  0.0861  0.4585  0.6474
 4693SOL    HW124288   1.865   7.580   0.877  0.1062  1.6590 -1.2982
 4693SOL    HW224289   1.734   7.584   0.974  1.8439 -1.6824  1.3170
 4694SOL     OW24290   1.838   6.776   1.281  0.4661  0.3384 -0.2134
 4694SOL    HW124291   1.794   6.725   1.207  1.0562 -0.8276  0.2379
 4694SOL    HW224292   1.931   6.800   1.255  0.3079  0.8825 -0.2839
 4695SOL     OW24293   3.739   6.857   2.989 -0.3074  0.2418  0.3936
 4695SOL    HW124294   3.795   6.809   3.057  0.1267  1.4233  0.8979
 4695SOL    HW224295   3.643   6.858   3.020 -0.4281 -0.8469  0.0614
 4696SOL     OW24296   0.509   3.323   3.411  0.5799  0.8088 -0.2275
 4696SOL    HW124297   0.584   3.377   3.375  0.6546  0.9227  0.1014
 4696SOL    HW224298   0.508   3.328   3.511  0.0225  0.9643 -0.2373
 4697SOL     OW24299   7.879   2.425   1.455 -0.5489  0.2921 -0.1848
 4697SOL    HW124300   7.863   2.487   1.379  2.5239 -1.1331 -2.1060
 4697SOL    HW224301   7.957   2.456   1.508  0.4120 -1.3772 -0.5900
 4698SOL     OW24302   1.326   5.857   2.060  0.3746 -0.8392  1.2714
 4698SOL    HW124303   1.386   5.820   2.131  0.2491 -2.8200  0.3766
 4698SOL    HW224304   1.349   5.953   2.043  1.1436 -0.6734  3.1948
 4699SOL     OW24305   0.541   3.245   2.770  0.3409 -0.0605 -0.6936
 4699SOL    HW124306   0.515   3.272   2.677  1.6220 -0.1800 -1.0974
 4699SOL    HW224307   0.575   3.151   2.769 -3.1932 -1.4281  0.5467
 4700SOL     OW24308   3.047   6.007   3.043 -0.1384  0.5863 -0.2922
 4700SOL    HW124309   2.967   6.014   2.984 -1.7295  0.1586  1.7631
 4700SOL    HW224310   3.062   6.094   3.091 -0.1160  0.2984  0.2335
 4701SOL     OW24311   3.374   3.680   0.129  0.3903 -0.3809 -1.1580
 4701SOL    HW124312   3.284   3.648   0.159  0.2602  1.8035  1.0042
 4701SOL    HW224313   3.446   3.626   0.173  0.1464  0.7881  0.7691
 4702SOL     OW24314   8.953   1.663   2.792 -0.1378 -0.1663 -0.5515
 4702SOL    HW124315   8.910   1.632   2.877  0.1687 -0.0429 -0.3498
 4702SOL    HW224316   9.026   1.599   2.767  1.5825  1.2398  0.7347
 4703SOL     OW24317   2.222   8.665   3.407 -0.4924  0.3397 -0.4876
 4703SOL    HW124318   2.314   8.685   3.372 -1.3144  1.9205 -1.7966
 4703SOL    HW224319   2.194   8.574   3.376  0.5498 -0.0820 -0.2280
 4704SOL     OW24320   2.385   7.849   2.541  0.3062  0.4037  0.6132
 4704SOL    HW124321   2.334   7.776   2.586 -0.8948  1.3026  0.7347
 4704SOL    HW224322   2.365   7.936   2.586  0.5018  1.0370 -0.5172
 4705SOL     OW24323   4.801   0.696   1.831 -0.2838 -0.9792 -0.6076
 4705SOL    HW124324   4.894   0.661   1.820  0.2310  0.0873  0.2452
 4705SOL    HW224325   4.770   0.736   1.745  1.1187  1.2049 -0.1175
 4706SOL     OW24326   2.992   6.657   2.771  0.0789 -0.2317  0.2972
 4706SOL    HW124327   3.069   6.716   2.794  0.6176 -1.3657  1.5307
 4706SOL    HW224328   2.907   6.699   2.803  0.2201  0.8404 -0.7128
 4707SOL     OW24329   7.314   0.501   3.085 -0.2680  0.5173 -0.2577
 4707SOL    HW124330   7.411   0.510   3.108 -0.2051  1.0370 -0.7140
 4707SOL    HW224331   7.283   0.409   3.109  0.0596  0.7012  0.9123
 4708SOL     OW24332   2.847   9.382   3.285 -0.3080  0.7034 -0.0710
 4708SOL    HW124333   2.930   9.437   3.285 -0.7539  1.3784 -0.0186
 4708SOL    HW224334   2.870   9.288   3.259  0.7793  0.4135  1.9023
 4709SOL     OW24335   9.297   2.321   1.517  0.1545 -0.1930 -0.3637
 4709SOL    HW124336   9.220   2.350   1.575  1.8307  0.6796  1.4853
 4709SOL    HW224337   9.341   2.242   1.559 -0.1415 -1.1269 -1.7928
 4710SOL     OW24338   3.359   8.261   1.964 -0.3933 -0.0897  0.0913
 4710SOL    HW124339   3.356   8.235   1.868 -0.0809  0.6273 -0.1169
 4710SOL    HW224340   3.282   8.320   1.985 -1.3772 -1.5650  0.6821
 4711SOL     OW24341   0.871   2.696   3.241 -0.0930  0.0089  0.2497
 4711SOL    HW124342   0.905   2.781   3.280  0.8279 -1.3947  2.6410
 4711SOL    HW224343   0.938   2.623   3.256 -2.0938 -1.7713  0.8385
 4712SOL     OW24344   9.538   4.604   0.310  0.0649 -0.0544  0.0213
 4712SOL    HW124345   9.492   4.662   0.242 -2.6280 -0.6190  1.2831
 4712SOL    HW224346   9.600   4.659   0.365  0.0935  0.9639 -1.0123
 4713SOL     OW24347   3.763   3.676   2.665 -0.4790  0.1786  0.2250
 4713SOL    HW124348   3.840   3.660   2.603  1.3662 -0.3825  2.5654
 4713SOL    HW224349   3.792   3.655   2.759 -4.7584 -4.3485  0.7378
 4714SOL     OW24350   1.732   0.674   0.834 -0.3121 -0.0190 -0.4501
 4714SOL    HW124351   1.658   0.630   0.886  0.2819 -2.9393 -1.9638
 4714SOL    HW224352   1.711   0.670   0.737  0.3575  2.0271 -0.6985
 4715SOL     OW24353   0.005   4.845   2.097 -0.1802 -0.1808  0.3857
 4715SOL    HW124354  -0.033   4.904   2.168 -1.7450 -1.6260  0.7809
 4715SOL    HW224355   0.099   4.872   2.079 -0.5005  1.6860  1.3699
 4716SOL     OW24356   3.522   0.552   0.174 -0.0522  0.1604  0.5318
 4716SOL    HW124357   3.475   0.484   0.118  0.3396  1.4309 -1.3886
 4716SOL    HW224358   3.461   0.629   0.192  0.4319  0.6025  0.2834
 4717SOL     OW24359   0.623   5.664   0.903 -0.3193  0.4167 -0.1655
 4717SOL    HW124360   0.568   5.746   0.917  0.3115  0.8996 -0.5658
 4717SOL    HW224361   0.576   5.603   0.839  0.1343  1.3161 -1.3543
 4718SOL     OW24362   1.215   0.352   1.527 -0.1353  0.2483 -0.0073
 4718SOL    HW124363   1.203   0.273   1.587  0.7899  0.8090  0.9288
 4718SOL    HW224364   1.145   0.421   1.549 -0.2685  0.1435 -0.0969
 4719SOL     OW24365   9.195   4.904   3.257 -0.3634 -0.2389  0.2855
 4719SOL    HW124366   9.124   4.941   3.318 -1.8598  0.1331 -1.6085
 4719SOL    HW224367   9.174   4.809   3.236 -0.0708 -0.2460  0.0288
 4720SOL     OW24368   0.347   4.165   0.206  1.3031 -0.4819 -0.5739
 4720SOL    HW124369   0.285   4.237   0.236 -0.3994 -1.0656 -2.5696
 4720SOL    HW224370   0.441   4.190   0.229  0.4700  1.0478  1.2616
 4721SOL     OW24371   2.422   3.721   1.400 -0.2905 -0.5238  0.0707
 4721SOL    HW124372   2.454   3.811   1.371  0.1963 -0.4754  0.7375
 4721SOL    HW224373   2.350   3.731   1.468 -0.8071 -0.6366 -0.4598
 4722SOL     OW24374   7.742   3.188   0.254 -0.0604  0.0861 -0.6645
 4722SOL    HW124375   7.782   3.204   0.345  0.3864 -2.1346 -0.4366
 4722SOL    HW224376   7.800   3.125   0.203 -2.5827 -2.2844 -0.7757
 4723SOL     OW24377   2.732   0.819   2.836 -0.3515 -0.4027 -0.1089
 4723SOL    HW124378   2.728   0.723   2.866 -1.1414 -0.4077 -0.2166
 4723SOL    HW224379   2.794   0.828   2.758 -0.3756 -0.8485 -0.1780
 4724SOL     OW24380   4.365   0.278   0.579  0.0935 -0.1333 -0.0503
 4724SOL    HW124381   4.268   0.298   0.568 -0.2351 -0.4100  2.1034
 4724SOL    HW224382   4.396   0.309   0.669  2.2501  0.8465 -1.0669
 4725SOL     OW24383   9.661   9.562   2.712  0.1286  0.2777 -0.3438
 4725SOL    HW124384   9.721   9.487   2.685 -0.0121 -0.3103  0.9314
 4725SOL    HW224385   9.699   9.607   2.793 -0.5888  0.5992 -0.1856
 4726SOL     OW24386   9.789   1.575   2.238  0.0095  0.6276 -0.4907
 4726SOL    HW124387   9.801   1.478   2.261 -0.1983  0.3883 -1.3523
 4726SOL    HW224388   9.731   1.582   2.156  0.9236  1.4261 -1.0785
 4727SOL     OW24389   1.924   5.996   0.310 -0.1488  0.4091 -0.2971
 4727SOL    HW124390   1.873   6.081   0.327 -0.6363  0.1748 -0.5802
 4727SOL    HW224391   1.874   5.919   0.348  0.2020  0.2275 -0.2082
 4728SOL     OW24392   1.405   7.108   1.272 -0.0570  0.1662  0.1065
 4728SOL    HW124393   1.333   7.158   1.224 -1.6516  0.0132  2.2768
 4728SOL    HW224394   1.383   7.010   1.273  0.6882 -0.0106 -0.0762
 4729SOL     OW24395   3.202   0.058   3.254 -0.1523  0.6512 -0.1648
 4729SOL    HW124396   3.286   0.032   3.302 -0.0553  1.5712  0.1645
 4729SOL    HW224397   3.211   0.035   3.157 -0.5319 -1.6604  0.3076
 4730SOL     OW24398   0.645   6.635   0.755  0.7146 -0.2076 -0.5270
 4730SOL    HW124399   0.603   6.566   0.814  0.5803  0.4773  0.1854
 4730SOL    HW224400   0.692   6.590   0.679 -3.3170 -0.9243 -2.7271
 4731SOL     OW24401   1.363   1.222   2.858 -0.4279 -0.0501 -0.3392
 4731SOL    HW124402   1.280   1.245   2.808 -0.6688 -0.4602 -0.1350
 4731SOL    HW224403   1.339   1.194   2.951  0.0477  1.0869  0.1358
 4732SOL     OW24404   3.713   8.045   3.351  0.0073  0.3753  0.5866
 4732SOL    HW124405   3.731   8.030   3.448  0.8585  0.3330  0.4256
 4732SOL    HW224406   3.627   8.000   3.326  0.5653 -0.9507  0.9833
 4733SOL     OW24407   9.604   9.980   0.107  0.8256  0.4241 -0.1026
 4733SOL    HW124408   9.665  10.037   0.053  0.4736  1.3344  0.4489
 4733SOL    HW224409   9.658   9.928   0.174  1.1857 -0.1815 -0.8610
 4734SOL     OW24410   1.188   7.837   0.343  0.8137 -0.1070  0.0042
 4734SOL    HW124411   1.185   7.935   0.359 -1.3376 -0.0664 -0.5102
 4734SOL    HW224412   1.194   7.789   0.430  0.6595  0.4573  0.3248
 4735SOL     OW24413   1.654   1.641   0.340 -0.4211  0.1912 -0.1732
 4735SOL    HW124414   1.679   1.704   0.267  1.0226  0.2147  0.3167
 4735SOL    HW224415   1.713   1.657   0.419 -0.6212 -1.1913  0.2715
 4736SOL     OW24416   3.578   3.914   0.775  0.4573  0.2065  0.8275
 4736SOL    HW124417   3.522   3.854   0.832 -0.5996  0.9845  0.6347
 4736SOL    HW224418   3.604   3.995   0.827 -1.0228  1.2095  0.0406
 4737SOL     OW24419   0.747   5.397   2.593 -0.4580  0.2154  0.0980
 4737SOL    HW124420   0.679   5.397   2.666  1.7161  3.4743  2.2696
 4737SOL    HW224421   0.700   5.398   2.504 -3.1978 -0.2697  1.4911
 4738SOL     OW24422   1.186   5.252   1.155  0.3012  0.3071 -0.3070
 4738SOL    HW124423   1.111   5.239   1.089 -0.7552  0.1449  0.9160
 4738SOL    HW224424   1.160   5.214   1.243  1.5668  0.8736  0.3203
 4739SOL     OW24425   0.888   0.043   0.396  0.0288 -0.3859  0.1208
 4739SOL    HW124426   0.822   0.022   0.468 -1.8138  1.7683 -0.8522
 4739SOL    HW224427   0.839   0.051   0.309  1.6786  0.6682 -0.7193
 4740SOL     OW24428   3.502   8.494   0.921  0.9320 -0.4344 -0.1630
 4740SOL    HW124429   3.411   8.521   0.953  1.1434  2.9080 -2.1079
 4740SOL    HW224430   3.571   8.527   0.985  0.9332 -0.4092 -0.1770
 4741SOL     OW24431   1.612   8.109   2.284  0.3794 -0.5330  0.3338
 4741SOL    HW124432   1.561   8.195   2.283  0.8252 -0.2565  1.1471
 4741SOL    HW224433   1.710   8.128   2.285  0.4793 -1.0513  0.6521
 4742SOL     OW24434   8.847   2.090   2.514  0.1389  0.2369 -0.5802
 4742SOL    HW124435   8.826   2.003   2.469  3.0659 -0.9618  0.3027
 4742SOL    HW224436   8.901   2.073   2.596  0.0436  2.8482  0.0627
 4743SOL     OW24437   2.222   4.930   2.850  0.0978  0.0079 -0.6749
 4743SOL    HW124438   2.255   5.025   2.852  0.8550 -0.2526 -0.5497
 4743SOL    HW224439   2.292   4.871   2.810  0.0710 -0.6642  0.2302
 4744SOL     OW24440   0.753   1.093   0.085 -0.2426 -0.2315  0.6487
 4744SOL    HW124441   0.826   1.027   0.104  1.1274  0.9418 -0.3864
 4744SOL    HW224442   0.773   1.141  -0.001 -1.5499  1.0451  1.0330
 4745SOL     OW24443   2.168   4.534   2.215 -0.0515  0.1319 -0.0220
 4745SOL    HW124444   2.119   4.447   2.211 -2.2713  1.3332  0.0729
 4745SOL    HW224445   2.197   4.552   2.308  0.7233 -0.6556 -0.1023
 4746SOL     OW24446   9.788   3.586   2.177 -0.2683  0.1306  0.7795
 4746SOL    HW124447   9.798   3.488   2.160  0.4131  0.0781  1.4729
 4746SOL    HW224448   9.877   3.631   2.167 -0.4558  0.5787  1.1113
 4747SOL     OW24449   3.370   9.962   2.387 -0.2374  0.3420  0.4778
 4747SOL    HW124450   3.361  10.040   2.326  0.5018 -0.1029 -0.2125
 4747SOL    HW224451   3.434   9.984   2.461 -0.0239  0.3933  0.2792
 4748SOL     OW24452   2.562   5.468   2.265 -0.1806 -0.6418 -0.0985
 4748SOL    HW124453   2.619   5.390   2.291  1.2260  0.5595  0.4602
 4748SOL    HW224454   2.550   5.468   2.166  0.9931 -0.7758 -0.2521
 4749SOL     OW24455   1.177   5.105   2.561 -0.1265 -0.1901 -0.3492
 4749SOL    HW124456   1.218   5.119   2.471  1.0623  0.7311  0.3272
 4749SOL    HW224457   1.123   5.185   2.586 -1.1122 -0.7692 -0.5662
 4750SOL     OW24458   0.880   6.817   2.853 -0.1767  0.0762 -0.1482
 4750SOL    HW124459   0.833   6.904   2.855  1.1184  0.7723  2.8081
 4750SOL    HW224460   0.814   6.743   2.837 -1.4231  1.4621 -1.5562
 4751SOL     OW24461   0.708   5.546   1.371 -0.2773  0.2744  0.4005
 4751SOL    HW124462   0.798   5.547   1.415  0.7886  0.2739 -1.7278
 4751SOL    HW224463   0.719   5.553   1.272 -2.5867 -0.6171  0.0440
 4752SOL     OW24464   2.724   1.744   2.948 -0.2223 -0.5311  0.0195
 4752SOL    HW124465   2.657   1.772   2.880 -0.8300 -0.2005  0.7418
 4752SOL    HW224466   2.755   1.651   2.928  0.0149 -0.2306 -1.0124
 4753SOL     OW24467   2.484   6.812   2.249 -0.0413 -0.1359 -0.1142
 4753SOL    HW124468   2.489   6.797   2.150  2.9798  0.3608 -0.0903
 4753SOL    HW224469   2.559   6.873   2.277 -2.0612  1.3654  2.2033
 4754SOL     OW24470   1.365   5.625   1.264  0.5249  0.7384 -0.5074
 4754SOL    HW124471   1.306   5.577   1.330 -0.1299  1.8503 -0.2681
 4754SOL    HW224472   1.421   5.558   1.216  1.4506 -0.0671  1.5960
 4755SOL     OW24473   8.258   2.839   0.856  0.2336  0.2700  0.4169
 4755SOL    HW124474   8.334   2.847   0.920  1.1321  0.4961 -0.6767
 4755SOL    HW224475   8.177   2.806   0.905  0.7908  0.8616  1.7526
 4756SOL     OW24476   1.787   0.172   0.083  0.3886  0.0106  0.5543
 4756SOL    HW124477   1.838   0.106   0.138  0.8051  1.4068  1.8969
 4756SOL    HW224478   1.850   0.226   0.028 -0.0068 -1.1810 -1.0811
 4757SOL     OW24479   0.836   2.462   0.362 -0.9079 -0.7769 -0.0940
 4757SOL    HW124480   0.757   2.480   0.420 -0.6867  0.0448 -0.0347
 4757SOL    HW224481   0.840   2.532   0.290 -0.7879 -1.3832 -0.6846
 4758SOL     OW24482   0.557   8.279   0.038  0.6141 -0.0429 -0.1870
 4758SOL    HW124483   0.496   8.293  -0.040  2.1985  0.8975 -1.3021
 4758SOL    HW224484   0.553   8.184   0.067 -0.0193 -0.4036 -1.4237
 4759SOL     OW24485   9.430   4.635   1.325  0.5199  0.0817  0.2102
 4759SOL    HW124486   9.447   4.729   1.295 -2.0060  0.5269  0.0334
 4759SOL    HW224487   9.513   4.581   1.312  1.8897  2.1600 -0.1099
 4760SOL     OW24488   2.202   5.200   0.248 -0.5878 -0.0207  0.0347
 4760SOL    HW124489   2.240   5.108   0.239 -2.6776 -0.8886 -0.1513
 4760SOL    HW224490   2.103   5.197   0.236 -0.5047  2.5360 -1.7484
 4761SOL     OW24491   3.736   4.302   1.392  0.1578  0.3189  0.0338
 4761SOL    HW124492   3.730   4.370   1.319 -1.3666 -0.4990 -0.6224
 4761SOL    HW224493   3.751   4.212   1.353 -0.9713 -0.1677  0.6929
 4762SOL     OW24494   0.096   7.528   1.155  0.0799  0.3548  0.2690
 4762SOL    HW124495   0.132   7.510   1.064  0.9948 -1.8950  1.0350
 4762SOL    HW224496   0.135   7.613   1.190  2.0162 -0.2804 -0.2737
 4763SOL     OW24497   0.528   7.006   0.977 -0.3092  0.3533  0.5674
 4763SOL    HW124498   0.452   6.975   0.920 -0.1919 -0.6114  0.9148
 4763SOL    HW224499   0.614   6.982   0.932 -0.1718  3.3133 -0.8362
 4764SOL     OW24500   0.016   2.692   2.224  0.9282  0.3019 -0.2500
 4764SOL    HW124501  -0.014   2.707   2.319 -0.3213  0.2370 -0.6232
 4764SOL    HW224502   0.060   2.774   2.189 -0.1928  0.9434 -0.1855
 4765SOL     OW24503   4.193   8.249   0.539  0.3352 -0.6255 -0.0608
 4765SOL    HW124504   4.180   8.318   0.469  1.6809  0.0042  0.3007
 4765SOL    HW224505   4.189   8.292   0.630  2.4321 -0.7796  0.1344
 4766SOL     OW24506   8.471   3.736   1.812 -0.2323  0.0649  0.0479
 4766SOL    HW124507   8.473   3.742   1.912  0.4380 -0.9954  0.1027
 4766SOL    HW224508   8.549   3.788   1.775  0.1611 -0.4662  0.1256
 4767SOL     OW24509   3.634   7.455   0.215 -0.4531  0.5827  0.3383
 4767SOL    HW124510   3.647   7.424   0.121 -1.6612  0.6541  0.1410
 4767SOL    HW224511   3.628   7.555   0.217  0.2860  0.6261  0.5857
 4768SOL     OW24512   4.223   3.105   0.254  0.1834  0.6818 -0.0851
 4768SOL    HW124513   4.124   3.095   0.257  0.2690 -0.1356  0.1469
 4768SOL    HW224514   4.266   3.033   0.308  0.8889  1.4089  0.3507
 4769SOL     OW24515   2.765   3.953   2.686 -0.1051  0.4403 -0.1221
 4769SOL    HW124516   2.731   3.997   2.603 -1.4593  0.3517  0.3576
 4769SOL    HW224517   2.830   3.882   2.663  1.1656  1.8623 -0.9890
 4770SOL     OW24518   1.205   1.235   0.843 -0.5457  0.5342 -0.0680
 4770SOL    HW124519   1.242   1.144   0.826 -2.6371 -0.4986  0.6648
 4770SOL    HW224520   1.272   1.304   0.817  0.4108 -1.1669 -2.3113
 4771SOL     OW24521   0.729   7.081   2.099  0.4694 -0.4949  0.2321
 4771SOL    HW124522   0.723   7.008   2.031  1.4900  0.3483 -0.7877
 4771SOL    HW224523   0.775   7.160   2.058  0.6504  0.1951  1.7571
 4772SOL     OW24524   8.394   2.848   3.001 -0.0970  0.1917 -0.3245
 4772SOL    HW124525   8.349   2.903   2.931 -0.5967 -0.2139 -0.3198
 4772SOL    HW224526   8.338   2.847   3.084  1.2830  2.0640  0.6738
 4773SOL     OW24527   1.872   8.621   2.150  0.0738  0.4978 -0.2352
 4773SOL    HW124528   1.825   8.576   2.226 -0.3486  0.3677 -0.5735
 4773SOL    HW224529   1.812   8.692   2.112  0.0094  0.0916 -0.8986
 4774SOL     OW24530   1.271   2.711   2.047  0.2902  0.4819  0.3111
 4774SOL    HW124531   1.298   2.622   2.010  0.3957  0.5468  0.2318
 4774SOL    HW224532   1.172   2.721   2.039  0.2527  0.2733  0.5386
 4775SOL     OW24533   1.865   5.580   1.610 -0.3018  0.0066 -0.2767
 4775SOL    HW124534   1.877   5.564   1.512 -0.1328 -0.3663 -0.1980
 4775SOL    HW224535   1.772   5.557   1.637 -0.6430  1.0736 -0.5363
 4776SOL     OW24536   3.200   2.730   2.386 -0.5552  0.3584  0.4743
 4776SOL    HW124537   3.131   2.687   2.444 -0.7058 -1.4122 -0.9644
 4776SOL    HW224538   3.179   2.827   2.374 -2.6247 -0.0873  0.3055
 4777SOL     OW24539   2.063   4.008   0.631  0.6460  0.4466 -0.4454
 4777SOL    HW124540   1.976   4.001   0.582 -0.1052  0.1286  0.9070
 4777SOL    HW224541   2.089   3.918   0.666  0.8983  0.7620  0.1924
 4778SOL     OW24542   8.691   3.173   1.565  0.7855  0.2104  0.7129
 4778SOL    HW124543   8.718   3.267   1.582  0.9127  0.1627  0.7774
 4778SOL    HW224544   8.592   3.164   1.572  0.6195  0.6612 -0.8143
 4779SOL     OW24545   1.883   5.868   1.554 -0.1093 -0.0799 -0.6000
 4779SOL    HW124546   1.873   5.777   1.594  0.2641  0.5667  0.9826
 4779SOL    HW224547   1.968   5.909   1.585 -0.8704  1.3050 -0.3029
 4780SOL     OW24548   9.683   1.265   2.522  1.1152  0.4083 -0.7849
 4780SOL    HW124549   9.771   1.236   2.558  0.9790 -0.8608 -1.4409
 4780SOL    HW224550   9.635   1.186   2.484 -0.2071  1.1236 -0.6385
 4781SOL     OW24551   5.296   8.773   2.728  0.0617 -0.1833 -0.3168
 4781SOL    HW124552   5.315   8.836   2.653  0.3963  0.2449  0.1246
 4781SOL    HW224553   5.197   8.765   2.741  0.0580  2.4248  1.4470
 4782SOL     OW24554   2.970   8.361   3.075  0.7924 -0.2021 -0.0812
 4782SOL    HW124555   2.908   8.366   3.153  2.0484 -0.4553  0.9423
 4782SOL    HW224556   3.063   8.341   3.107  1.4567  0.4350 -1.5809
 4783SOL     OW24557   3.028   2.588   0.755  0.1991  0.6711  0.0556
 4783SOL    HW124558   3.053   2.610   0.661 -0.5502 -2.1986 -0.8762
 4783SOL    HW224559   2.934   2.618   0.773  0.1261  0.6577 -0.3096
 4784SOL     OW24560   0.288   1.845   0.100  0.8572 -0.5845  0.3672
 4784SOL    HW124561   0.351   1.905   0.149  1.4085 -1.1200  0.3168
 4784SOL    HW224562   0.280   1.875   0.005  0.3351  0.0245  0.5962
 4785SOL     OW24563   3.487   9.760   3.389  0.4635 -0.0868  0.2862
 4785SOL    HW124564   3.463   9.743   3.294  2.7199 -2.1038  0.0262
 4785SOL    HW224565   3.407   9.747   3.447 -0.8733  0.9543 -1.2758
 4786SOL     OW24566   1.306   8.353   2.596 -0.0520 -0.1632 -0.1749
 4786SOL    HW124567   1.335   8.437   2.642 -0.2949  0.6570 -1.4825
 4786SOL    HW224568   1.336   8.356   2.501 -0.8162 -1.1694 -0.4512
 4787SOL     OW24569   3.159   0.805   1.461 -0.6211  0.0603 -0.1291
 4787SOL    HW124570   3.156   0.835   1.365  0.0678  1.7749  0.3660
 4787SOL    HW224571   3.105   0.868   1.517 -2.6384 -2.0396  0.3584
 4788SOL     OW24572   4.109   1.225   0.646 -0.4810 -0.2958 -1.2197
 4788SOL    HW124573   4.020   1.212   0.689  1.2772 -3.8018  1.5872
 4788SOL    HW224574   4.111   1.177   0.558 -1.2683 -0.4201 -1.1722
 4789SOL     OW24575   1.722   0.369   0.468 -0.1239  0.2270 -0.0454
 4789SOL    HW124576   1.683   0.459   0.485 -0.3793  0.1477 -0.2185
 4789SOL    HW224577   1.653   0.298   0.484 -0.7683  0.2113 -2.6136
 4790SOL     OW24578   3.479   2.483   0.212 -0.1832  0.2751 -0.0601
 4790SOL    HW124579   3.467   2.578   0.182 -0.7783 -0.4089 -2.0850
 4790SOL    HW224580   3.402   2.456   0.270 -0.0878  0.9682  0.3928
 4791SOL     OW24581   2.734   4.760   1.132  0.6574  0.0357  0.4688
 4791SOL    HW124582   2.736   4.662   1.111  1.7642  0.2805 -0.6513
 4791SOL    HW224583   2.677   4.806   1.064 -0.1052  0.1385  1.1708
 4792SOL     OW24584   0.695   5.280   1.646 -0.1642  0.8015  0.0043
 4792SOL    HW124585   0.601   5.313   1.648 -0.3425  0.3339 -0.4694
 4792SOL    HW224586   0.695   5.180   1.653  0.2766  0.7714 -0.3748
 4793SOL     OW24587   9.347   1.212   1.388  0.3724  0.2568  0.6538
 4793SOL    HW124588   9.408   1.250   1.318 -1.3178  0.1310 -0.9197
 4793SOL    HW224589   9.391   1.132   1.430  0.5844 -0.9633 -1.7529
 4794SOL     OW24590   0.058   9.223   0.056  0.2053  0.3762 -0.4470
 4794SOL    HW124591   0.003   9.159   0.110  0.9172 -0.5598 -0.8285
 4794SOL    HW224592   0.102   9.288   0.117 -0.9797  0.8642 -0.0995
 4795SOL     OW24593   3.554   2.988   0.179 -0.4765  0.1635  0.4209
 4795SOL    HW124594   3.599   2.969   0.092 -0.9489 -0.7664  0.3645
 4795SOL    HW224595   3.595   3.068   0.222 -0.1401  0.5396 -0.5879
 4796SOL     OW24596   1.110   8.241   1.827 -0.1341 -0.1750 -0.4908
 4796SOL    HW124597   1.181   8.188   1.874  0.6856  1.2694 -0.0766
 4796SOL    HW224598   1.124   8.338   1.845 -0.0825  0.3833 -3.3511
 4797SOL     OW24599   0.993   8.592   3.155 -0.0473 -0.1813  0.1621
 4797SOL    HW124600   1.062   8.622   3.221  0.5061  0.0368 -0.5144
 4797SOL    HW224601   0.909   8.645   3.169  0.0982 -0.0689  0.6265
 4798SOL     OW24602   0.542   3.847   2.430  0.0174 -0.4095  0.7072
 4798SOL    HW124603   0.456   3.833   2.478 -0.4582  0.4962  0.1307
 4798SOL    HW224604   0.524   3.874   2.336  0.9455 -1.4167  0.2289
 4799SOL     OW24605   3.090   4.187   0.359  0.2898 -0.4494 -0.2038
 4799SOL    HW124606   3.006   4.170   0.308 -0.5940 -2.4761  1.8565
 4799SOL    HW224607   3.067   4.219   0.451  1.7711 -1.6362  0.5909
 4800SOL     OW24608   1.049   2.162   3.387 -0.0416 -0.0710  0.2175
 4800SOL    HW124609   1.087   2.083   3.435 -0.2431 -0.2001  0.1612
 4800SOL    HW224610   1.090   2.169   3.296 -0.0276 -0.1128  0.2207
 4801SOL     OW24611   2.213   8.988   3.171  0.3894  0.1074 -0.5342
 4801SOL    HW124612   2.157   9.037   3.238  0.8263 -0.9185  0.5838
 4801SOL    HW224613   2.288   9.047   3.142  1.5022 -0.2291  1.5724
 4802SOL     OW24614   0.981   2.013   0.364  0.1194 -0.1187  0.4182
 4802SOL    HW124615   0.955   2.083   0.430  0.7921 -0.2390  0.8191
 4802SOL    HW224616   1.080   2.000   0.366 -0.0369 -1.4126  0.7068
 4803SOL     OW24617   0.142   5.509   3.179 -0.4973  0.5204  0.3506
 4803SOL    HW124618   0.070   5.577   3.197 -1.6665 -0.7148  0.4587
 4803SOL    HW224619   0.170   5.467   3.266 -0.3678  0.2973  0.2003
 4804SOL     OW24620   2.050   2.623   0.485 -0.3538 -0.4935  0.1866
 4804SOL    HW124621   2.108   2.608   0.405 -2.2529  0.7257 -1.4717
 4804SOL    HW224622   2.083   2.568   0.561  1.9131 -1.1464 -1.2237
 4805SOL     OW24623   0.881   8.115   0.027  0.1896 -0.0780 -0.5547
 4805SOL    HW124624   0.942   8.157  -0.039  0.1528  0.1179 -0.4647
 4805SOL    HW224625   0.914   8.133   0.120 -0.0232  0.0633 -0.5037
 4806SOL     OW24626   1.879   0.810   2.115 -0.1716  0.1244  0.8214
 4806SOL    HW124627   1.933   0.739   2.160  0.0141  0.5775  1.3058
 4806SOL    HW224628   1.938   0.863   2.054 -0.7480 -1.5887 -1.3052
 4807SOL     OW24629   1.224   9.923   2.392 -0.0092 -0.6209  0.0890
 4807SOL    HW124630   1.215  10.020   2.418  0.1429 -0.5582 -0.0892
 4807SOL    HW224631   1.288   9.915   2.316  0.8642 -0.9913  0.8653
 4808SOL     OW24632   9.584   0.215   1.292 -0.2035  0.1702 -0.3582
 4808SOL    HW124633   9.487   0.205   1.272  0.5744 -2.4779 -3.2529
 4808SOL    HW224634   9.610   0.311   1.285 -2.4376  0.7949 -0.3779
 4809SOL     OW24635   0.825   6.634   3.166  0.0678 -0.0696  0.1835
 4809SOL    HW124636   0.877   6.645   3.251 -0.4264  0.0754  0.4743
 4809SOL    HW224637   0.757   6.561   3.178 -0.6388  0.5896  0.2348
 4810SOL     OW24638   2.473   6.333   1.674  0.5970 -0.2155  0.3832
 4810SOL    HW124639   2.545   6.358   1.739  1.0145 -0.6438  0.0832
 4810SOL    HW224640   2.456   6.235   1.678  0.8940 -0.3053 -0.4316
 4811SOL     OW24641   3.139   4.592   0.270  0.1080 -0.3684  0.2929
 4811SOL    HW124642   3.169   4.522   0.336  0.0518 -0.7184 -0.0518
 4811SOL    HW224643   3.069   4.650   0.312 -2.6849 -2.9294 -0.7010
 4812SOL     OW24644   8.466   1.892   1.541  0.3744  0.1521 -0.1181
 4812SOL    HW124645   8.394   1.832   1.576  0.9004  0.2487  1.1855
 4812SOL    HW224646   8.507   1.851   1.460 -0.8601 -0.1024 -0.6204
 4813SOL     OW24647   0.478   4.728   1.508 -0.2659  0.2400 -0.4231
 4813SOL    HW124648   0.431   4.775   1.583  1.5622  1.0425  0.2475
 4813SOL    HW224649   0.522   4.795   1.449 -0.3897 -0.4745 -1.3262
 4814SOL     OW24650   3.856   7.696   1.231  0.0877  0.4245 -0.1894
 4814SOL    HW124651   3.802   7.616   1.202  0.1658 -0.1938  1.3492
 4814SOL    HW224652   3.950   7.668   1.249  0.5809  1.2296 -1.4230
 4815SOL     OW24653   1.445   2.527   1.668  0.3323 -0.6678 -0.0720
 4815SOL    HW124654   1.350   2.501   1.679  0.4925 -1.5589 -0.7594
 4815SOL    HW224655   1.467   2.602   1.731 -1.4239  1.1112 -1.5203
 4816SOL     OW24656   1.767   3.121   1.565  0.2130 -0.2509  0.5147
 4816SOL    HW124657   1.729   3.029   1.568  1.5054 -0.8283 -0.7578
 4816SOL    HW224658   1.693   3.188   1.562 -0.7177 -1.2692  0.7510
 4817SOL     OW24659   2.339   5.087   0.698 -0.1895 -0.0215  0.3454
 4817SOL    HW124660   2.296   5.014   0.646 -0.6028 -0.3698  1.1523
 4817SOL    HW224661   2.307   5.175   0.665  1.3796 -0.1368 -1.5648
 4818SOL     OW24662   3.687   2.219   2.426  0.1354 -0.3092  0.6832
 4818SOL    HW124663   3.734   2.307   2.425  0.7049 -0.6141 -0.4506
 4818SOL    HW224664   3.740   2.154   2.482 -0.8078  0.3276  2.3559
 4819SOL     OW24665   4.271   8.611   2.450  0.1669 -0.0869 -0.0201
 4819SOL    HW124666   4.172   8.622   2.464  0.2830  0.0874  0.6579
 4819SOL    HW224667   4.287   8.573   2.359 -0.3927  2.1928 -1.0942
 4820SOL     OW24668   0.982   9.102   0.394 -0.0695 -0.0024  0.6112
 4820SOL    HW124669   1.032   9.171   0.445 -0.9235  0.8276  0.3395
 4820SOL    HW224670   0.950   9.140   0.307  1.8604 -1.5739 -0.8238
 4821SOL     OW24671   2.913   0.788   1.078  0.0600 -0.2699  0.7086
 4821SOL    HW124672   2.829   0.806   1.129 -0.9091 -1.2928 -0.5036
 4821SOL    HW224673   2.991   0.793   1.140 -0.4176  4.7499  1.1317
 4822SOL     OW24674   3.547   1.626   0.787 -0.1130  0.1387 -0.0216
 4822SOL    HW124675   3.563   1.621   0.689  2.3050 -0.3264  0.3636
 4822SOL    HW224676   3.478   1.696   0.806 -2.1025 -1.1457 -2.1657
 4823SOL     OW24677   1.679   1.815   1.204 -0.3565  0.3490 -0.1090
 4823SOL    HW124678   1.758   1.755   1.188  0.1016  0.8856  0.1359
 4823SOL    HW224679   1.668   1.831   1.302 -0.7926  0.2484 -0.1392
 4824SOL     OW24680   0.645   5.415   2.347 -0.4460  0.1912  0.5488
 4824SOL    HW124681   0.546   5.402   2.343 -0.9567  3.5168  0.8297
 4824SOL    HW224682   0.669   5.503   2.307  2.3989 -0.4862  0.6377
 4825SOL     OW24683   2.027   9.306   3.212 -0.0473 -0.2775  0.2823
 4825SOL    HW124684   2.053   9.399   3.234 -0.1424 -0.4913  1.3514
 4825SOL    HW224685   1.927   9.297   3.218 -0.1265 -0.1835 -0.8686
 4826SOL     OW24686   0.680   7.830   1.880  0.2437  0.1659 -0.4871
 4826SOL    HW124687   0.658   7.751   1.938  1.3017 -0.9651 -1.6022
 4826SOL    HW224688   0.731   7.897   1.934  0.6554 -0.5774  0.0634
 4827SOL     OW24689   2.643   3.258   2.386 -0.1221  0.1473 -0.3951
 4827SOL    HW124690   2.737   3.284   2.404 -0.2933  1.4823 -1.3609
 4827SOL    HW224691   2.639   3.162   2.358  1.0456  0.3126 -1.1439
 4828SOL     OW24692   0.748   5.944   0.190 -0.8574 -0.5741 -0.4087
 4828SOL    HW124693   0.703   6.001   0.120  1.1517 -1.1442 -2.2273
 4828SOL    HW224694   0.824   5.996   0.231  0.2305 -1.4852 -1.2314
 4829SOL     OW24695   1.525   3.441   0.249 -0.1946 -0.0088 -0.5806
 4829SOL    HW124696   1.500   3.530   0.211 -0.9400  0.4998  1.0180
 4829SOL    HW224697   1.563   3.383   0.178 -0.7308  1.2127 -1.8790
 4830SOL     OW24698   4.568   1.714   2.132 -0.0209  0.4444 -0.1146
 4830SOL    HW124699   4.555   1.615   2.129 -1.9635  0.6326  1.3482
 4830SOL    HW224700   4.645   1.734   2.193  0.6305 -0.1730 -0.7160
 4831SOL     OW24701   1.554   3.196   2.255  0.5991 -0.3240 -0.1705
 4831SOL    HW124702   1.465   3.157   2.275  0.6659  0.2711  1.3324
 4831SOL    HW224703   1.622   3.160   2.318  0.2660  3.7023  2.6391
 4832SOL     OW24704   2.229   6.329   1.935 -0.1491  0.0857  0.4910
 4832SOL    HW124705   2.316   6.357   1.974 -0.7619  0.9113  1.3141
 4832SOL    HW224706   2.212   6.379   1.850 -0.2082  0.5575  0.7792
 4833SOL     OW24707   0.391   2.400   1.266 -0.1688  0.1549 -0.3175
 4833SOL    HW124708   0.481   2.367   1.238 -0.0956  0.1920 -0.1300
 4833SOL    HW224709   0.322   2.369   1.201  0.2538  1.8767 -1.6456
 4834SOL     OW24710   9.276   4.960   2.275 -0.6342 -0.2397 -0.4042
 4834SOL    HW124711   9.201   4.896   2.293 -0.4775 -0.4801 -0.5912
 4834SOL    HW224712   9.312   4.995   2.362 -0.4981 -0.6686 -0.2862
 4835SOL     OW24713   2.351   3.227   0.722  0.1403  0.3680 -0.0811
 4835SOL    HW124714   2.377   3.189   0.633  2.4342  1.8705 -0.1096
 4835SOL    HW224715   2.365   3.159   0.793  0.0409 -0.2421 -0.6406
 4836SOL     OW24716   2.376   6.496   1.058  0.1168  0.2066  0.9249
 4836SOL    HW124717   2.357   6.565   1.128  0.7595 -0.8851  2.1862
 4836SOL    HW224718   2.290   6.454   1.029 -0.2475  1.3075  0.3735
 4837SOL     OW24719   3.403   2.628   1.934  0.1344  0.0910 -0.2086
 4837SOL    HW124720   3.350   2.609   1.851  2.1830 -1.3640 -1.2197
 4837SOL    HW224721   3.499   2.643   1.910  0.4043  1.6751  1.7058
 4838SOL     OW24722   0.448   1.855   2.862 -0.0285 -0.1920  0.2414
 4838SOL    HW124723   0.511   1.932   2.872  0.8635 -0.9784  0.7266
 4838SOL    HW224724   0.368   1.870   2.920  0.2695  0.2427  0.5408
 4839SOL     OW24725   0.375   0.677   0.549 -0.0384 -0.1352 -0.1814
 4839SOL    HW124726   0.415   0.757   0.592 -2.6371  0.9073  0.4029
 4839SOL    HW224727   0.403   0.595   0.598 -0.1838  0.7241  1.3736
 4840SOL     OW24728   0.852   6.722   0.312 -0.0939  0.2904  0.1092
 4840SOL    HW124729   0.813   6.784   0.244  1.5526 -0.7272 -1.8393
 4840SOL    HW224730   0.805   6.733   0.399 -1.1677  2.8090 -0.7515
 4841SOL     OW24731   1.378   3.841   2.183 -0.2979  0.1684  0.5389
 4841SOL    HW124732   1.304   3.788   2.142 -1.1559  1.4668  0.3921
 4841SOL    HW224733   1.465   3.812   2.142 -0.9044 -0.1416 -0.5641
 4842SOL     OW24734   1.537   7.642   2.639  0.3014  0.1936  0.2584
 4842SOL    HW124735   1.484   7.600   2.565  1.3108  0.6660 -0.7500
 4842SOL    HW224736   1.565   7.572   2.704  0.5083 -0.4343 -0.4982
 4843SOL     OW24737   0.260   5.503   1.113 -0.9228 -0.3589  0.1063
 4843SOL    HW124738   0.271   5.601   1.095 -1.1306 -0.1546  1.0408
 4843SOL    HW224739   0.349   5.459   1.121 -0.8241 -0.5270 -1.7431
 4844SOL     OW24740   0.192   4.667   1.753  0.1350 -0.4880 -0.4829
 4844SOL    HW124741   0.230   4.720   1.829 -1.2532  1.1188 -0.8804
 4844SOL    HW224742   0.262   4.604   1.718  1.3623  0.0602  0.9235
 4845SOL     OW24743   9.701   5.626   3.386 -0.3362  0.4176 -0.2079
 4845SOL    HW124744   9.631   5.567   3.347 -0.0171 -0.4197  0.4591
 4845SOL    HW224745   9.700   5.617   3.486  1.9229 -1.0053 -0.2720
 4846SOL     OW24746   1.990   5.574   3.078 -0.3941  0.8127  0.0699
 4846SOL    HW124747   1.972   5.508   3.005 -0.0678  1.3415 -0.5018
 4846SOL    HW224748   1.930   5.653   3.067  0.0589  1.1566  0.0261
 4847SOL     OW24749   2.754   5.193   1.229  0.0281  0.3909 -0.0431
 4847SOL    HW124750   2.719   5.229   1.142 -1.4793 -2.4610 -0.6607
 4847SOL    HW224751   2.811   5.113   1.211  1.7470  1.2543  1.4514
 4848SOL     OW24752   3.823   2.632   1.166 -0.3956 -0.0715 -0.4528
 4848SOL    HW124753   3.838   2.691   1.087  0.6218 -1.6017 -1.4334
 4848SOL    HW224754   3.853   2.539   1.145 -0.4241 -0.5888  1.6251
 4849SOL     OW24755   2.159   2.758   2.028 -0.0703 -0.5094  0.2219
 4849SOL    HW124756   2.108   2.717   1.952 -0.6237  0.1195  0.2499
 4849SOL    HW224757   2.252   2.779   1.998 -0.3060 -0.2041 -0.3084
 4850SOL     OW24758   9.698   4.258   1.238  0.7090  0.5685 -0.3930
 4850SOL    HW124759   9.694   4.358   1.243  1.3280  0.5762 -0.0807
 4850SOL    HW224760   9.644   4.218   1.312  1.8611  0.6801  0.5341
 4851SOL     OW24761   1.073   0.694   0.922  0.4157 -0.4645 -0.1171
 4851SOL    HW124762   1.119   0.615   0.882 -0.5817 -0.3924 -1.4424
 4851SOL    HW224763   1.065   0.767   0.854 -1.2417 -0.3120  0.2169
 4852SOL     OW24764   7.999   1.842   1.332 -0.2295  0.1432 -0.1432
 4852SOL    HW124765   7.994   1.743   1.318 -0.2569 -0.0992  1.4411
 4852SOL    HW224766   8.062   1.882   1.266 -0.4447 -0.8907 -0.9917
 4853SOL     OW24767   3.713   9.129   1.905 -0.0439  0.1388  0.0174
 4853SOL    HW124768   3.638   9.149   1.843  0.9321  1.2879 -0.8018
 4853SOL    HW224769   3.728   9.207   1.966  0.6408  0.0123  0.0161
 4854SOL     OW24770   9.447   2.680   1.250 -0.8565  0.3847 -0.4170
 4854SOL    HW124771   9.494   2.704   1.164 -0.0778  0.2720 -0.0321
 4854SOL    HW224772   9.387   2.756   1.277  1.7253  2.0513  0.8880
 4855SOL     OW24773   0.066   0.420   1.991 -0.2978  0.0317  0.0586
 4855SOL    HW124774   0.119   0.363   2.053  2.1983  0.9167 -1.1832
 4855SOL    HW224775   0.097   0.405   1.897 -1.3774  1.5138 -0.5593
 4856SOL     OW24776   3.599   1.692   1.982  0.1813 -0.8312 -0.0309
 4856SOL    HW124777   3.512   1.651   2.010  0.6552 -2.0890 -0.3271
 4856SOL    HW224778   3.613   1.778   2.030 -0.3545 -1.5366  1.4151
 4857SOL     OW24779   4.764   3.679   0.130 -0.3930 -0.4153 -0.1048
 4857SOL    HW124780   4.694   3.616   0.163 -0.3275 -0.2960  0.2665
 4857SOL    HW224781   4.839   3.683   0.196  0.5657 -1.5129 -1.1044
 4858SOL     OW24782   8.160   4.343   3.140  0.0489  0.2231  0.2967
 4858SOL    HW124783   8.223   4.409   3.180  0.5623 -0.4279  0.5666
 4858SOL    HW224784   8.149   4.363   3.042  0.1344  0.7540  0.3927
 4859SOL     OW24785   3.712   5.326   0.157  0.3451 -0.4856  0.1065
 4859SOL    HW124786   3.743   5.349   0.250  0.8053  0.0960 -0.1831
 4859SOL    HW224787   3.701   5.410   0.104  0.8750 -0.8693 -0.6176
 4860SOL     OW24788   3.412   8.849   1.881  0.4809  0.1473 -0.4482
 4860SOL    HW124789   3.419   8.948   1.895 -0.4517  0.1089  0.3599
 4860SOL    HW224790   3.477   8.802   1.940 -0.3656  0.2053  0.5623
 4861SOL     OW24791   1.897   6.872   1.541  0.1009  0.0666 -0.2470
 4861SOL    HW124792   1.851   6.874   1.452  1.8991 -1.1889 -1.2433
 4861SOL    HW224793   1.868   6.790   1.591  1.7306 -1.1048 -1.1712
 4862SOL     OW24794   3.157   1.444   1.574 -0.0842 -0.7009 -0.5313
 4862SOL    HW124795   3.195   1.537   1.573 -3.1855  0.6974  1.5047
 4862SOL    HW224796   3.205   1.389   1.641 -1.2053  0.9113  1.6986
 4863SOL     OW24797   9.236   1.792   2.422  0.1665  0.1457 -0.4205
 4863SOL    HW124798   9.169   1.843   2.368  1.0266  0.0200 -1.6203
 4863SOL    HW224799   9.297   1.857   2.468  1.2864  0.2098 -1.9805
 4864SOL     OW24800   4.052   8.706   0.679  0.3082 -0.4061  0.0224
 4864SOL    HW124801   4.146   8.700   0.713  0.0354 -2.8455  0.4437
 4864SOL    HW224802   3.989   8.694   0.755 -0.3516  0.1010 -0.4401
 4865SOL     OW24803   2.398   6.700   0.233  0.0793 -0.1697 -0.3276
 4865SOL    HW124804   2.419   6.606   0.207  0.4390  0.2413 -1.5616
 4865SOL    HW224805   2.350   6.701   0.321 -0.2268 -1.5196 -0.4771
 4866SOL     OW24806   0.181   4.805   0.777 -0.2084  0.4591 -0.1690
 4866SOL    HW124807   0.189   4.757   0.865  1.8976  0.0753 -0.5420
 4866SOL    HW224808   0.089   4.844   0.769  0.4900  3.1344  3.5645
 4867SOL     OW24809   1.180   7.534   3.167  0.1063  0.1627  0.2163
 4867SOL    HW124810   1.119   7.525   3.246  0.5082  0.9612  0.6230
 4867SOL    HW224811   1.264   7.483   3.184 -0.6548 -1.4046 -0.5763
 4868SOL     OW24812   2.904   2.194   3.412  0.7479 -0.0454  0.0201
 4868SOL    HW124813   2.918   2.171   3.508 -3.5978 -1.6651  0.3685
 4868SOL    HW224814   2.851   2.279   3.405  0.1869 -0.4719 -0.9405
 4869SOL     OW24815   1.852   8.003   0.837  0.4648 -0.1708 -0.1847
 4869SOL    HW124816   1.910   8.044   0.767 -0.8155  0.0625 -1.1132
 4869SOL    HW224817   1.819   7.914   0.806  2.6105 -1.6274  1.5119
 4870SOL     OW24818   3.793   0.149   0.572 -0.1117  0.1866 -0.4282
 4870SOL    HW124819   3.777   0.243   0.603 -0.1102  0.9159 -2.5963
 4870SOL    HW224820   3.706   0.105   0.551  0.0181  0.4447 -1.5290
 4871SOL     OW24821   1.094   9.815   2.620  0.3814 -0.7550  0.2100
 4871SOL    HW124822   1.145   9.757   2.684  0.9413 -0.7134 -0.1956
 4871SOL    HW224823   1.139   9.813   2.530 -0.9080 -1.5243 -0.4262
 4872SOL     OW24824   2.435   2.655   0.036  0.5094  0.7226 -0.4265
 4872SOL    HW124825   2.440   2.753   0.018  1.2027  0.4400 -1.8538
 4872SOL    HW224826   2.480   2.635   0.123 -0.7281  1.8200  0.4720
 4873SOL     OW24827   8.465   2.067   0.618 -0.7315  0.2526  0.0606
 4873SOL    HW124828   8.550   2.032   0.657  0.2843  1.3002 -1.1892
 4873SOL    HW224829   8.480   2.160   0.583 -1.6112 -0.6552 -2.8175
 4874SOL     OW24830   3.643   1.504   1.266 -0.0815 -0.9546 -0.3842
 4874SOL    HW124831   3.693   1.514   1.180  1.5637 -0.9907  0.5503
 4874SOL    HW224832   3.673   1.574   1.331 -0.6251 -1.5247  0.4969
 4875SOL     OW24833   8.587   3.419   3.335  0.5955 -0.1447 -0.2951
 4875SOL    HW124834   8.557   3.448   3.245 -0.1347 -2.5765 -0.8914
 4875SOL    HW224835   8.657   3.347   3.325 -1.9586 -2.9278  0.9800
 4876SOL     OW24836   5.837   8.349   2.352 -0.2424  0.3004  0.0037
 4876SOL    HW124837   5.868   8.428   2.406 -0.5007  0.6007 -0.2882
 4876SOL    HW224838   5.870   8.358   2.258 -1.3029  0.6742 -0.3396
 4877SOL     OW24839   2.074   1.401   1.773  0.3174 -0.4314  0.5255
 4877SOL    HW124840   1.984   1.442   1.792  1.3703  2.3205 -0.1133
 4877SOL    HW224841   2.136   1.423   1.848  1.2195  0.1682 -0.3792
 4878SOL     OW24842   7.865   1.493   2.587 -0.7359 -0.1015 -0.0567
 4878SOL    HW124843   7.889   1.407   2.542  0.5019 -0.0683  0.5287
 4878SOL    HW224844   7.766   1.499   2.595 -0.7783 -2.3823  1.6718
 4879SOL     OW24845   0.084   2.703   0.485  0.2056 -0.6046  0.5103
 4879SOL    HW124846  -0.011   2.734   0.495  0.1446 -0.5067 -0.2999
 4879SOL    HW224847   0.088   2.604   0.495 -0.4150 -0.9393 -2.1425
 4880SOL     OW24848   2.570   3.445   3.138  0.0396  0.4056 -0.1975
 4880SOL    HW124849   2.665   3.475   3.147  0.2659 -0.4287  0.2796
 4880SOL    HW224850   2.510   3.506   3.190  0.3658  0.7021 -0.1739
 4881SOL     OW24851   3.397   1.968   1.879 -0.4671  0.7784 -0.3310
 4881SOL    HW124852   3.356   1.877   1.881 -1.1404  1.0739 -0.6797
 4881SOL    HW224853   3.327   2.036   1.858  0.5925  1.0524 -3.2171
 4882SOL     OW24854   2.806   5.110   0.635 -0.3751 -0.1543  0.3588
 4882SOL    HW124855   2.785   5.017   0.605  2.7400 -0.5905 -0.6999
 4882SOL    HW224856   2.752   5.132   0.716 -0.8983 -3.0365  0.8554
 4883SOL     OW24857   3.980   3.872   0.545  0.2031 -0.3258 -0.1253
 4883SOL    HW124858   4.040   3.938   0.590 -1.7053 -0.0664  2.1807
 4883SOL    HW224859   3.885   3.890   0.572 -0.3993 -3.7167  0.2149
 4884SOL     OW24860   9.926   2.201   0.229 -0.4706  0.4860 -0.2858
 4884SOL    HW124861   9.999   2.138   0.257 -0.1606  0.5894 -0.8430
 4884SOL    HW224862   9.897   2.256   0.307 -1.9534 -1.5401  0.6427
 4885SOL     OW24863   0.458   8.753   2.446  0.4757  0.2177  0.5009
 4885SOL    HW124864   0.542   8.726   2.399 -0.3408 -0.3662 -0.6564
 4885SOL    HW224865   0.480   8.782   2.540  1.7427 -1.6688  0.8203
 4886SOL     OW24866   0.553   3.920   2.133  0.1482 -0.1964  0.3734
 4886SOL    HW124867   0.487   3.986   2.168  1.7822  0.7334  1.7609
 4886SOL    HW224868   0.610   3.963   2.063 -0.1740 -0.7558 -0.2351
 4887SOL     OW24869   1.705   5.431   0.762 -0.1601  0.1901  0.9686
 4887SOL    HW124870   1.744   5.419   0.854  1.5535 -0.2427  0.2037
 4887SOL    HW224871   1.750   5.368   0.699 -1.5890  0.2323 -0.1107
 4888SOL     OW24872   1.234   3.433   2.448  0.5140  0.0467  0.0680
 4888SOL    HW124873   1.303   3.408   2.517  1.7305 -1.1738 -1.5581
 4888SOL    HW224874   1.276   3.492   2.379  1.2397 -4.3545 -3.4563
 4889SOL     OW24875   1.002   2.955   1.802 -0.0706 -0.1651  0.2443
 4889SOL    HW124876   1.070   2.910   1.745  0.3490  1.3631 -0.4944
 4889SOL    HW224877   1.007   2.919   1.895  1.4647 -0.3698  0.0905
 4890SOL     OW24878   2.215   3.950   2.145 -0.2865 -0.4226 -0.0801
 4890SOL    HW124879   2.198   3.955   2.243 -3.8241  0.9714 -0.7000
 4890SOL    HW224880   2.178   3.864   2.109 -0.1456 -0.3473 -0.4049
 4891SOL     OW24881   9.100   4.659   1.490  0.5028  0.6152  0.2413
 4891SOL    HW124882   9.184   4.634   1.443 -0.7040 -1.7580 -0.7905
 4891SOL    HW224883   9.049   4.726   1.436  0.7320  0.4612 -0.1611
 4892SOL     OW24884   0.806   9.716   2.267  0.1938  0.2213 -0.2930
 4892SOL    HW124885   0.874   9.789   2.276 -1.1782  1.1267  3.5870
 4892SOL    HW224886   0.852   9.627   2.262  1.7735  1.1179 -2.7544
 4893SOL     OW24887   0.901   6.947   1.856 -0.2756 -0.1120 -0.0849
 4893SOL    HW124888   0.971   6.876   1.866 -1.2839 -1.1718 -0.5005
 4893SOL    HW224889   0.944   7.037   1.868  1.2677 -0.7120 -0.9011
 4894SOL     OW24890   0.276   4.885   2.317 -0.0426 -0.2631 -0.1256
 4894SOL    HW124891   0.299   4.787   2.312  0.5017 -0.1988  0.9763
 4894SOL    HW224892   0.283   4.925   2.226  0.4914 -1.0899 -0.4571
 4895SOL     OW24893   3.267   4.048   2.356  0.2765 -0.5565 -0.2842
 4895SOL    HW124894   3.326   4.076   2.280 -0.6176  0.7077 -0.5030
 4895SOL    HW224895   3.323   4.039   2.439  0.5496  2.0270 -0.1657
 4896SOL     OW24896   2.398   5.606   3.080  0.1095  0.0951  0.3459
 4896SOL    HW124897   2.444   5.522   3.050 -0.0482  0.4944 -1.0180
 4896SOL    HW224898   2.339   5.585   3.158 -0.4892 -1.2125 -0.4489
 4897SOL     OW24899   2.015   0.910   3.039 -0.4562  0.5423 -0.3164
 4897SOL    HW124900   2.049   0.964   3.116 -0.1221  1.0446 -0.8128
 4897SOL    HW224901   2.087   0.900   2.970 -1.0771  1.0210 -1.0542
 4898SOL     OW24902   2.239   1.190   2.766  0.2201  0.7222 -0.0102
 4898SOL    HW124903   2.215   1.101   2.805  0.5707  0.1081 -1.1717
 4898SOL    HW224904   2.274   1.249   2.838  1.5231 -0.6239  0.5020
 4899SOL     OW24905   1.410   1.953   1.558 -0.2218 -0.0809  0.0171
 4899SOL    HW124906   1.416   1.915   1.650 -0.7667  1.1228  0.5623
 4899SOL    HW224907   1.332   1.911   1.510 -0.2382 -0.3474  0.2731
 4900SOL     OW24908   1.791   3.210   2.880 -0.3446 -0.6527 -0.1391
 4900SOL    HW124909   1.765   3.305   2.861  1.4473 -0.1150  0.0044
 4900SOL    HW224910   1.777   3.155   2.798  0.0134  0.0568 -0.6884
 4901SOL     OW24911   2.125   7.124   0.742  0.6884  0.5057  0.0323
 4901SOL    HW124912   2.150   7.038   0.786 -1.9220 -0.0354  0.5231
 4901SOL    HW224913   2.064   7.106   0.665 -1.4777  1.9976  1.3282
 4902SOL     OW24914   4.311   0.242   2.563 -0.0292 -0.2976 -0.0992
 4902SOL    HW124915   4.319   0.146   2.538 -0.6324 -0.4553  0.2899
 4902SOL    HW224916   4.380   0.265   2.631  0.9480 -0.1271 -1.1358
 4903SOL     OW24917   1.738   7.757   0.712 -0.7410 -0.1763  0.2990
 4903SOL    HW124918   1.640   7.778   0.710 -0.4074  1.3726  0.3424
 4903SOL    HW224919   1.754   7.682   0.777 -1.8671 -0.3253  0.4185
 4904SOL     OW24920   8.876   3.149   2.889  0.6791 -1.0247  0.0007
 4904SOL    HW124921   8.865   3.088   2.967  1.5592  0.0266  0.9682
 4904SOL    HW224922   8.858   3.243   2.917  0.1114 -0.7447 -1.2815
 4905SOL     OW24923   2.869   0.607   2.538 -0.7148 -0.4564  0.0365
 4905SOL    HW124924   2.896   0.701   2.562  1.1496 -0.8099 -0.5970
 4905SOL    HW224925   2.792   0.579   2.596 -0.5023  1.0223  1.0794
 4906SOL     OW24926   0.921   4.544   2.500 -0.0122 -0.0833  0.5475
 4906SOL    HW124927   0.890   4.627   2.452 -0.1511  0.0402  0.8486
 4906SOL    HW224928   0.936   4.565   2.597 -0.8091 -0.5994  0.7865
 4907SOL     OW24929   7.293   1.475   2.866  0.0362 -0.1442  0.3861
 4907SOL    HW124930   7.259   1.526   2.787  1.0419  0.5891  0.4132
 4907SOL    HW224931   7.332   1.388   2.835 -0.5062 -0.3235  0.1949
 4908SOL     OW24932   2.927   9.810   1.913  0.7301  0.3268 -0.1890
 4908SOL    HW124933   2.983   9.890   1.893  0.2370  0.5940 -0.4946
 4908SOL    HW224934   2.889   9.773   1.828  1.3768 -0.5419 -0.1128
 4909SOL     OW24935   9.348   0.184   1.114 -0.3602  0.4668  0.2335
 4909SOL    HW124936   9.364   0.253   1.043 -2.3872  0.7331 -0.0050
 4909SOL    HW224937   9.272   0.214   1.172  0.8189 -0.0817  2.0950
 4910SOL     OW24938   3.695   3.525   3.348 -0.1960  0.2208  0.0281
 4910SOL    HW124939   3.675   3.551   3.442  1.2454 -0.0989  0.4333
 4910SOL    HW224940   3.681   3.427   3.337  1.5262 -0.1033  0.4521
 4911SOL     OW24941   3.241   9.564   1.618  0.6333  0.5773 -0.6270
 4911SOL    HW124942   3.202   9.650   1.584  1.4348  0.8523 -0.8642
 4911SOL    HW224943   3.175   9.490   1.604 -0.0677  1.1549 -0.4060
 4912SOL     OW24944   2.799   4.126   1.385 -0.2861  0.4397 -0.3699
 4912SOL    HW124945   2.876   4.121   1.321  0.5168 -0.9648  0.6714
 4912SOL    HW224946   2.834   4.119   1.479 -1.5357  1.4865  0.1798
 4913SOL     OW24947   2.288   5.206   2.796 -0.3924  0.1013  0.2964
 4913SOL    HW124948   2.361   5.271   2.775 -0.6771  0.1153 -0.6856
 4913SOL    HW224949   2.204   5.236   2.750 -0.3825 -1.2746 -0.6288
 4914SOL     OW24950   1.303   3.824   0.855 -0.0067 -0.6687 -0.7957
 4914SOL    HW124951   1.209   3.834   0.889  0.2339  0.7059 -0.5105
 4914SOL    HW224952   1.300   3.797   0.759 -0.7081  0.4502 -1.1013
 4915SOL     OW24953   4.131   3.128   2.286  0.2637 -0.4029  0.1412
 4915SOL    HW124954   4.059   3.074   2.331 -0.6007  0.7898  0.2057
 4915SOL    HW224955   4.201   3.152   2.354  0.4323 -1.0776  0.2083
 4916SOL     OW24956   4.383   0.471   0.085 -0.5727  0.2194 -0.3832
 4916SOL    HW124957   4.411   0.483   0.180 -0.9757  2.2865 -0.5076
 4916SOL    HW224958   4.295   0.425   0.082 -0.6134  0.2539  0.2467
 4917SOL     OW24959   3.232   5.455   0.090  0.2342 -0.0587  0.5557
 4917SOL    HW124960   3.197   5.456  -0.004  0.1852  1.0215  0.5836
 4917SOL    HW224961   3.306   5.389   0.097 -0.0742 -0.4864 -0.1320
 4918SOL     OW24962   1.377   6.998   0.384 -0.3132 -0.4634 -0.0608
 4918SOL    HW124963   1.312   6.954   0.322 -1.1607  0.5866  0.0775
 4918SOL    HW224964   1.468   7.002   0.341 -0.2795 -2.1145 -0.1702
 4919SOL     OW24965   1.728   6.060   1.492  0.2832  0.6196 -0.3764
 4919SOL    HW124966   1.801   5.994   1.507  1.1990  1.5937 -0.4291
 4919SOL    HW224967   1.764   6.153   1.504 -1.1703  1.0914  0.5160
 4920SOL     OW24968   0.785   7.118   1.224  0.1059 -0.4999  0.0608
 4920SOL    HW124969   0.687   7.123   1.242  0.0933 -0.3360 -0.0569
 4920SOL    HW224970   0.824   7.043   1.277  0.0699 -0.0099  0.8009
 4921SOL     OW24971   9.293   1.999   3.032 -0.0658  0.2018 -0.1770
 4921SOL    HW124972   9.305   2.060   2.953  0.6685 -1.1518 -1.1455
 4921SOL    HW224973   9.234   2.043   3.100  0.2404  1.8687 -0.9631
 4922SOL     OW24974   1.701   2.238   3.237  0.6862 -0.0580 -0.2236
 4922SOL    HW124975   1.668   2.326   3.272  0.6681 -1.0700  2.4571
 4922SOL    HW224976   1.800   2.234   3.247  0.5007 -1.0558  1.4954
 4923SOL     OW24977   2.293   3.535   0.667 -0.1928  0.2311 -0.1730
 4923SOL    HW124978   2.309   3.444   0.703 -0.7124 -0.3895 -1.4758
 4923SOL    HW224979   2.380   3.584   0.661  0.7859 -1.6834 -3.3757
 4924SOL     OW24980   4.012   2.319   1.894 -0.3172  0.3043 -0.2144
 4924SOL    HW124981   4.102   2.313   1.851 -0.0614 -0.0459  0.3558
 4924SOL    HW224982   4.020   2.291   1.990 -0.6282  2.3858  0.4346
 4925SOL     OW24983   2.054   4.573   0.056 -0.0672  0.1455  0.5424
 4925SOL    HW124984   2.100   4.485   0.073 -0.3447 -0.6050 -2.3891
 4925SOL    HW224985   2.074   4.603  -0.037 -2.3458  1.7648  0.5582
 4926SOL     OW24986   3.746   1.363   2.401 -0.5597 -0.2020 -0.0006
 4926SOL    HW124987   3.747   1.463   2.409  1.4979 -0.4059  2.7702
 4926SOL    HW224988   3.773   1.338   2.308 -0.1282  1.8032 -0.4509
 4927SOL     OW24989   2.937   8.354   0.785  0.2559 -0.6732 -0.0932
 4927SOL    HW124990   2.879   8.290   0.836  0.6116 -1.3036 -0.4849
 4927SOL    HW224991   3.033   8.328   0.797  0.4260  0.0231  0.0691
 4928SOL     OW24992   1.809   0.705   3.387  0.0260 -0.2318 -0.2454
 4928SOL    HW124993   1.820   0.781   3.451 -0.7932  0.4550 -0.8989
 4928SOL    HW224994   1.732   0.648   3.417 -0.1916 -0.0583 -0.4732
 4929SOL     OW24995   0.590   5.112   1.866  0.2248 -0.4044  0.2043
 4929SOL    HW124996   0.551   5.200   1.892 -0.9253 -0.7995 -0.1679
 4929SOL    HW224997   0.673   5.096   1.919  1.3726  1.6388 -0.8901
 4930SOL     OW24998   1.132   9.296   0.757 -0.0602 -0.8467 -0.3017
 4930SOL    HW124999   1.118   9.323   0.661 -0.4777  2.1276  0.5420
 4930SOL    HW225000   1.043   9.283   0.801  0.0293  1.3297  0.5893
 4931SOL     OW25001   1.542   2.098   2.646  0.4031 -0.0870 -0.0003
 4931SOL    HW125002   1.515   2.123   2.739  0.7182 -1.3279  0.4278
 4931SOL    HW225003   1.635   2.060   2.648 -0.5316 -2.4267 -0.4637
 4932SOL     OW25004   3.443   1.352   0.839  0.3096 -0.1941 -0.0083
 4932SOL    HW125005   3.356   1.332   0.885  0.8897 -1.6662  0.4902
 4932SOL    HW225006   3.459   1.450   0.840 -1.8096  0.1911 -0.9472
 4933SOL     OW25007   3.803   7.142   2.656 -0.3168  0.0136  0.1923
 4933SOL    HW125008   3.738   7.130   2.731 -0.9352 -1.6799 -0.5912
 4933SOL    HW225009   3.757   7.128   2.569  0.8450 -0.0865 -0.4197
 4934SOL     OW25010   3.032   0.999   0.190 -0.0391  0.1086 -0.2565
 4934SOL    HW125011   3.003   0.920   0.136 -2.0022  1.7296 -1.6769
 4934SOL    HW225012   3.081   0.968   0.271 -1.3167 -2.5728 -0.4521
 4935SOL     OW25013   4.724   2.309   0.846 -0.1570 -0.2723  0.2207
 4935SOL    HW125014   4.744   2.340   0.939 -0.2643  2.1579 -0.5360
 4935SOL    HW225015   4.650   2.364   0.807  0.7941 -0.3556 -1.7877
 4936SOL     OW25016   0.634   0.323   1.521  0.2124 -0.3398 -0.0951
 4936SOL    HW125017   0.560   0.378   1.480  1.1026 -0.0747 -1.3702
 4936SOL    HW225018   0.595   0.243   1.567 -0.9689  0.4841  0.3599
 4937SOL     OW25019   1.708   4.836   1.851  0.4222 -0.3058  0.3737
 4937SOL    HW125020   1.777   4.833   1.924 -0.8848 -2.1628  1.5960
 4937SOL    HW225021   1.620   4.808   1.889 -0.8381  1.3222 -1.3420
 4938SOL     OW25022   4.344   8.921   0.180 -0.1073  0.3932 -0.3780
 4938SOL    HW125023   4.355   9.000   0.239  0.2698 -1.1580  1.6783
 4938SOL    HW225024   4.268   8.865   0.213  1.2801 -1.4569 -0.2473
 4939SOL     OW25025   8.279   2.291   3.215 -0.0548  0.1592 -0.1806
 4939SOL    HW125026   8.326   2.232   3.281  0.7962 -0.2454 -1.1401
 4939SOL    HW225027   8.223   2.357   3.264  0.4718 -0.2173  0.9495
 4940SOL     OW25028   4.202   9.821   3.058  0.6108  0.1680 -0.2461
 4940SOL    HW125029   4.187   9.888   3.131  2.0174  0.8529 -0.5620
 4940SOL    HW225030   4.115   9.781   3.031 -0.0185  0.4795  1.2713
 4941SOL     OW25031   9.087   1.702   0.152 -0.4835 -0.4390 -0.4643
 4941SOL    HW125032   9.013   1.664   0.096 -1.4136  0.5001  0.1143
 4941SOL    HW225033   9.054   1.783   0.201  1.1408  0.4064 -0.7474
 4942SOL     OW25034   9.854   0.163   0.261 -0.1191 -0.1699  1.2154
 4942SOL    HW125035   9.849   0.148   0.162  4.0157 -0.8889  1.0249
 4942SOL    HW225036   9.820   0.254   0.282  1.2834  0.9741 -1.2006
 4943SOL     OW25037   1.540   1.643   2.640  0.2486  0.0154 -0.0474
 4943SOL    HW125038   1.454   1.674   2.680  0.7004  0.4130  0.6186
 4943SOL    HW225039   1.531   1.637   2.540 -0.3110  0.7942 -0.0377
 4944SOL     OW25040   8.937   1.561   1.743  0.2640  0.8248  0.4904
 4944SOL    HW125041   8.859   1.515   1.700  0.6369 -0.2737  0.9722
 4944SOL    HW225042   8.917   1.658   1.752 -1.0505  0.5605  0.5919
 4945SOL     OW25043   5.978   8.572   2.470 -0.0906 -0.0486  0.3191
 4945SOL    HW125044   5.951   8.657   2.515 -0.1710  0.5992 -0.9371
 4945SOL    HW225045   6.021   8.511   2.537  1.0228  1.4439  0.9859
 4946SOL     OW25046   3.270   7.988   2.021  0.1088  0.0315 -0.3045
 4946SOL    HW125047   3.185   7.995   1.970  0.7822  2.0335 -1.2113
 4946SOL    HW225048   3.314   8.078   2.025  2.4522 -1.0748 -0.3476
 4947SOL     OW25049   2.324   6.519   2.831 -0.2043  0.4110  0.7632
 4947SOL    HW125050   2.405   6.567   2.799  0.1771 -1.9053 -1.9501
 4947SOL    HW225051   2.351   6.442   2.889 -0.4697  0.0757  0.4486
 4948SOL     OW25052   9.889   9.993   2.149  0.2747 -0.2556 -0.1127
 4948SOL    HW125053   9.814  10.056   2.128  1.2659  1.3232  0.9794
 4948SOL    HW225054   9.874   9.906   2.103 -1.1008  0.8046 -1.6896
 4949SOL     OW25055   1.624   9.523   1.762 -0.2801 -0.5873 -0.0868
 4949SOL    HW125056   1.600   9.620   1.748  0.2195 -0.6029 -1.1056
 4949SOL    HW225057   1.677   9.514   1.846 -0.6158 -0.0247  0.1924
 4950SOL     OW25058   4.124   2.501   0.456 -0.2393 -0.2612  0.7672
 4950SOL    HW125059   4.108   2.599   0.448 -1.7086 -0.5424 -0.0307
 4950SOL    HW225060   4.046   2.452   0.417  0.9601 -1.7514  0.2109
 4951SOL     OW25061   0.251   2.263   2.479  0.2099  0.1856  0.6051
 4951SOL    HW125062   0.263   2.218   2.567  0.9118  1.2741  1.0807
 4951SOL    HW225063   0.308   2.345   2.476 -3.5689  2.9342  1.0563
 4952SOL     OW25064   9.354   3.768   2.603  0.2034  0.1422 -0.2559
 4952SOL    HW125065   9.293   3.723   2.668  0.8712 -0.7503 -0.2389
 4952SOL    HW225066   9.449   3.741   2.622  0.4592  0.3400 -1.2302
 4953SOL     OW25067   3.370   0.953   2.024  0.4091 -0.0636 -0.0884
 4953SOL    HW125068   3.343   0.908   1.939 -0.1467  0.0041  0.0489
 4953SOL    HW225069   3.384   1.050   2.008  1.6046 -0.2756 -0.3843
 4954SOL     OW25070   7.688   5.094   0.798  0.0119 -0.1613  0.1758
 4954SOL    HW125071   7.591   5.097   0.777  0.3141  0.6753 -1.1725
 4954SOL    HW225072   7.729   5.012   0.756 -0.1136 -0.5432  0.7904
 4955SOL     OW25073   2.793   2.725   0.828 -0.2603  0.0334  0.2115
 4955SOL    HW125074   2.831   2.722   0.920  0.7572 -0.1249 -0.2064
 4955SOL    HW225075   2.705   2.679   0.826 -0.2269 -0.0624  1.0793
 4956SOL     OW25076   2.620   0.223   0.659 -0.3984 -0.0621  0.3261
 4956SOL    HW125077   2.687   0.226   0.734  0.4835 -0.7801 -0.4039
 4956SOL    HW225078   2.574   0.134   0.660  2.4527 -1.7174 -2.3146
 4957SOL     OW25079   9.116   0.352   0.015  0.6718  0.2770  0.2694
 4957SOL    HW125080   9.168   0.362   0.100 -0.2848  0.5633  0.8409
 4957SOL    HW225081   9.023   0.321   0.038 -0.2286  2.3652 -0.5072
 4958SOL     OW25082   0.280   5.741   3.124 -0.0681 -0.2370 -0.1864
 4958SOL    HW125083   0.222   5.661   3.142 -0.3608 -0.4106 -1.7736
 4958SOL    HW225084   0.376   5.713   3.121 -0.1025 -0.3821  0.0967
 4959SOL     OW25085   0.869   8.414   2.972  0.1713 -0.0032  0.0625
 4959SOL    HW125086   0.938   8.443   3.039  0.0672 -0.5888  0.4328
 4959SOL    HW225087   0.880   8.316   2.955 -0.3145 -0.0155 -0.1768
 4960SOL     OW25088   9.938   3.987   0.165 -0.6556 -0.3146  0.4723
 4960SOL    HW125089  10.019   4.004   0.108 -0.6722 -1.1146  0.1951
 4960SOL    HW225090   9.953   3.904   0.219 -0.0711  1.1984  2.6985
 4961SOL     OW25091   1.319   9.757   0.606 -0.3276 -0.4426 -1.1166
 4961SOL    HW125092   1.372   9.739   0.523  1.3892 -0.9667  0.0609
 4961SOL    HW225093   1.349   9.844   0.646  0.7602 -1.4776  0.3870
 4962SOL     OW25094   1.327   7.852   1.636  0.5689 -0.2272  0.1246
 4962SOL    HW125095   1.307   7.760   1.667  2.0008 -0.6828 -0.2727
 4962SOL    HW225096   1.352   7.851   1.540 -1.5378  0.8725 -0.4620
 4963SOL     OW25097   0.664   4.519   2.936  0.7942 -0.2974  0.4650
 4963SOL    HW125098   0.587   4.582   2.934  0.3394 -0.8759 -2.0623
 4963SOL    HW225099   0.651   4.454   3.011 -0.0274  0.9894  1.4662
 4964SOL     OW25100   0.973   9.300   0.090  0.2478 -0.1096  0.7791
 4964SOL    HW125101   0.963   9.269  -0.004 -0.1606 -0.1168  0.8205
 4964SOL    HW225102   1.069   9.315   0.111  0.3231  0.0623  0.3061
 4965SOL     OW25103   0.215   9.545   1.715 -0.7991 -0.0418 -0.2860
 4965SOL    HW125104   0.179   9.526   1.623  1.3445  1.4508 -1.4845
 4965SOL    HW225105   0.194   9.639   1.740  1.2411  0.5061 -0.5465
 4966SOL     OW25106   3.251   6.883   0.269  0.7168 -0.3934 -0.2600
 4966SOL    HW125107   3.307   6.915   0.345  2.0279 -0.6297 -1.1083
 4966SOL    HW225108   3.245   6.954   0.200  3.3019 -1.7579 -1.9640
 4967SOL     OW25109   7.608   1.805   2.756 -0.5226  0.4050  0.2593
 4967SOL    HW125110   7.639   1.877   2.819 -0.6697  1.2091 -0.5745
 4967SOL    HW225111   7.614   1.716   2.802  0.4076  0.8513  1.0342
 4968SOL     OW25112   1.916   3.588   1.236  0.4168  0.0127 -0.3412
 4968SOL    HW125113   1.913   3.544   1.326 -1.6735  0.3743 -0.2095
 4968SOL    HW225114   1.916   3.687   1.248 -3.8353  0.1354 -0.7509
 4969SOL     OW25115   0.288   3.473   3.070  0.2145 -0.0640  0.1218
 4969SOL    HW125116   0.361   3.527   3.029  1.5978  0.5908  3.3012
 4969SOL    HW225117   0.327   3.404   3.130 -1.7590  0.4037  2.0177
 4970SOL     OW25118   0.783   5.685   0.144  0.1784 -0.4589  0.2448
 4970SOL    HW125119   0.770   5.783   0.161 -0.9420 -1.1027  3.5224
 4970SOL    HW225120   0.881   5.664   0.142  0.4696  0.8900 -1.8766
 4971SOL     OW25121   3.053   0.128   0.023  0.6254 -0.1693  0.0942
 4971SOL    HW125122   3.071   0.055   0.088 -2.2894 -1.4317 -0.4474
 4971SOL    HW225123   3.108   0.114  -0.060 -0.7415 -2.4231 -0.4701
 4972SOL     OW25124   0.942   7.329   2.133  0.4786  0.6636  0.1237
 4972SOL    HW125125   1.033   7.289   2.123  0.5826  1.0079 -0.3243
 4972SOL    HW225126   0.908   7.356   2.043  0.8048  2.4589  0.5208
 4973SOL     OW25127   1.763   3.424   1.011  0.7964 -0.4260 -0.0850
 4973SOL    HW125128   1.769   3.368   1.094  1.3504  1.2990  1.0811
 4973SOL    HW225129   1.854   3.463   0.991 -0.1710  2.5659  0.9736
 4974SOL     OW25130   2.833   5.858   1.133 -0.4825  0.2680  0.3923
 4974SOL    HW125131   2.741   5.843   1.168 -0.9241  0.1021 -0.8316
 4974SOL    HW225132   2.900   5.818   1.196 -1.3272 -1.1796  0.3728
 4975SOL     OW25133   2.299   5.551   1.639  0.2738  0.0492  0.3250
 4975SOL    HW125134   2.364   5.513   1.574 -2.6174 -0.2954 -2.4679
 4975SOL    HW225135   2.330   5.642   1.669  0.8332  0.9361 -2.8363
 4976SOL     OW25136   1.011   6.499   2.308 -0.3780 -0.1771 -0.1508
 4976SOL    HW125137   1.013   6.599   2.312 -1.2734 -0.1819  0.5305
 4976SOL    HW225138   1.104   6.464   2.313 -0.1234  0.5869  0.5446
 4977SOL     OW25139   2.454   8.442   1.280  0.1134 -0.3604  0.4601
 4977SOL    HW125140   2.427   8.411   1.188 -0.2654 -0.5934  0.6468
 4977SOL    HW225141   2.375   8.435   1.341 -0.7094  3.3487 -0.0629
 4978SOL     OW25142   2.466   4.501   0.335 -0.2927 -0.1638 -0.6215
 4978SOL    HW125143   2.391   4.435   0.343  0.2491 -0.4172  3.3618
 4978SOL    HW225144   2.428   4.593   0.324 -1.0552 -0.7745 -3.8197
 4979SOL     OW25145   3.406   5.685   0.132 -0.0049  0.2304 -0.5121
 4979SOL    HW125146   3.397   5.756   0.202 -2.4699  1.0327 -1.6160
 4979SOL    HW225147   3.328   5.622   0.138  0.3092 -0.3023 -1.8677
 4980SOL     OW25148   3.536   0.184   2.014 -0.1743 -0.1977  0.7162
 4980SOL    HW125149   3.612   0.206   1.953 -0.2041  0.4577  0.9120
 4980SOL    HW225150   3.571   0.140   2.097 -0.3585 -3.4415 -0.8744
 4981SOL     OW25151   2.057   1.021   1.994  0.5123  0.2632  0.7492
 4981SOL    HW125152   2.119   0.944   2.004  1.6018  0.6515 -2.4096
 4981SOL    HW225153   2.052   1.047   1.898 -0.3767  3.6768  1.6536
 4982SOL     OW25154   1.232   3.257   1.872  0.8663 -0.3802  0.1308
 4982SOL    HW125155   1.165   3.273   1.945  0.5561 -1.7868  0.1809
 4982SOL    HW225156   1.264   3.163   1.878  1.9477 -0.0618 -0.6526
 4983SOL     OW25157   2.265   2.473   2.942  0.1731  0.4422  0.4053
 4983SOL    HW125158   2.304   2.555   2.984  0.3401  1.0140 -0.8383
 4983SOL    HW225159   2.339   2.410   2.917  0.1126  0.3175  0.5445
 4984SOL     OW25160   9.535   3.481   1.410  0.0927 -0.3720  0.0981
 4984SOL    HW125161   9.571   3.545   1.479  0.8885  0.2199 -0.8461
 4984SOL    HW225162   9.575   3.391   1.425 -1.6169 -0.8763  1.9122
 4985SOL     OW25163   2.054   0.916   1.256  0.4205 -0.5062  0.2050
 4985SOL    HW125164   2.007   0.869   1.330 -3.8679  1.1371 -1.3173
 4985SOL    HW225165   2.101   0.848   1.199  0.5650 -2.1482  2.2135
 4986SOL     OW25166   1.342   2.501   3.207  0.2220 -0.4144 -0.1165
 4986SOL    HW125167   1.402   2.571   3.245 -0.3252 -0.0543  0.0963
 4986SOL    HW225168   1.378   2.471   3.119  1.8458 -1.7213  0.9610
 4987SOL     OW25169   4.571   2.985   0.785  0.2261  0.0360  0.2054
 4987SOL    HW125170   4.656   2.945   0.818  0.4727  0.7007  0.3776
 4987SOL    HW225171   4.549   3.066   0.838 -0.6020 -0.2245  0.2665
 4988SOL     OW25172   1.469   1.242   0.671  0.6450  0.0502  0.5699
 4988SOL    HW125173   1.406   1.182   0.623 -0.2960  1.2813  0.2357
 4988SOL    HW225174   1.558   1.242   0.624  0.2353 -0.0394 -0.2039
 4989SOL     OW25175   1.549   9.359   2.168 -0.2440  0.3495  0.1602
 4989SOL    HW125176   1.606   9.290   2.212 -2.0773 -0.1370  1.8706
 4989SOL    HW225177   1.600   9.403   2.095  1.4439 -1.8069 -0.0116
 4990SOL     OW25178   9.532   1.695   1.607 -0.0109 -0.1567 -0.3642
 4990SOL    HW125179   9.620   1.661   1.575  1.1069  1.4275  0.9135
 4990SOL    HW225180   9.481   1.733   1.529  1.6214  1.4237 -0.7001
 4991SOL     OW25181   1.005   2.123   1.242 -0.1538 -0.4016  0.3604
 4991SOL    HW125182   0.925   2.090   1.192 -0.0820 -0.1110  0.0486
 4991SOL    HW225183   1.026   2.061   1.317 -0.0560 -1.0356 -0.1844
 4992SOL     OW25184   1.482   5.139   1.971  0.2571 -0.4556 -0.2349
 4992SOL    HW125185   1.455   5.070   2.038  0.9041 -0.6565 -0.1814
 4992SOL    HW225186   1.517   5.220   2.019 -1.4574  0.3264 -0.2631
 4993SOL     OW25187   1.421   1.183   1.905 -0.3503 -0.2110 -0.4856
 4993SOL    HW125188   1.490   1.119   1.938  0.2803  0.6571 -0.1021
 4993SOL    HW225189   1.442   1.210   1.811 -1.9273 -2.3765 -1.5084
 4994SOL     OW25190   0.691   9.585   1.890  0.1246  0.0761  0.2412
 4994SOL    HW125191   0.706   9.683   1.878  0.6048  0.0725  0.7948
 4994SOL    HW225192   0.660   9.545   1.804  0.1551  0.6682 -0.0484
 4995SOL     OW25193   3.503   7.343   2.195  0.0490  0.0966 -0.1790
 4995SOL    HW125194   3.510   7.298   2.106 -0.4648 -0.1954 -0.0755
 4995SOL    HW225195   3.512   7.442   2.183  1.3989 -0.0345 -0.3819
 4996SOL     OW25196   0.737   3.664   0.559 -0.6620 -0.1345  0.9730
 4996SOL    HW125197   0.701   3.571   0.545 -0.9756  0.0730  0.3772
 4996SOL    HW225198   0.673   3.730   0.520  0.7024  0.2128 -0.7285
 4997SOL     OW25199   9.170   2.535   0.889 -0.6906 -0.1800  0.9666
 4997SOL    HW125200   9.221   2.521   0.973  0.6573 -2.2717 -0.1433
 4997SOL    HW225201   9.085   2.481   0.892  0.2814 -1.7835  0.2404
 4998SOL     OW25202   4.084   0.268   2.182  0.4832 -0.6538 -0.2134
 4998SOL    HW125203   4.073   0.206   2.260 -0.5730 -2.3423 -1.6877
 4998SOL    HW225204   4.145   0.226   2.115  0.6818  0.4189 -0.7077
 4999SOL     OW25205   1.676   7.366   0.725 -0.1550  0.4216  0.0907
 4999SOL    HW125206   1.677   7.288   0.788  2.1877  0.2631 -0.0967
 4999SOL    HW225207   1.717   7.445   0.770  1.6665  0.2702 -1.2723
 5000SOL     OW25208   4.250   7.893   3.015 -0.2396  0.6380 -0.2740
 5000SOL    HW125209   4.261   7.856   3.107 -1.1238 -0.3861 -0.5595
 5000SOL    HW225210   4.221   7.819   2.953  0.2575  1.3340 -1.3461
 5001SOL     OW25211   4.216   3.723   0.814  0.0392 -0.3570 -0.4200
 5001SOL    HW125212   4.248   3.631   0.796  1.7170 -0.0456  0.8346
 5001SOL    HW225213   4.281   3.789   0.777 -0.3231  0.3214  0.1354
 5002SOL     OW25214   9.715   2.222   0.048 -0.2974 -0.2161  0.0586
 5002SOL    HW125215   9.791   2.185   0.101  0.0250 -0.6754 -0.7144
 5002SOL    HW225216   9.726   2.196  -0.048 -0.8468  0.6558 -0.2388
 5003SOL     OW25217   3.731   4.253   3.407  0.7668 -0.2762  0.2617
 5003SOL    HW125218   3.804   4.199   3.365  0.0898  0.7878 -2.3825
 5003SOL    HW225219   3.770   4.329   3.458  1.5145  0.7642 -1.8051
 5004SOL     OW25220   9.770   2.888   1.397 -0.4024  0.2987  0.4912
 5004SOL    HW125221   9.799   2.792   1.403 -0.3232  0.1482 -2.1160
 5004SOL    HW225222   9.682   2.899   1.442 -0.6814 -1.1151  0.2909
 5005SOL     OW25223   0.334   2.135   1.683  0.4080  0.6400 -0.1120
 5005SOL    HW125224   0.308   2.218   1.634 -0.4445  0.8802  0.7307
 5005SOL    HW225225   0.358   2.158   1.777 -2.1773 -0.3551  0.8289
 5006SOL     OW25226   0.469   0.035   2.798 -0.2958  0.2784  0.3091
 5006SOL    HW125227   0.485  -0.015   2.883  1.3455  0.2190 -0.0168
 5006SOL    HW225228   0.436  -0.029   2.728  1.4710 -0.2911 -0.0113
 5007SOL     OW25229   0.529   2.113   2.886  0.4670  0.0128  0.4872
 5007SOL    HW125230   0.606   2.112   2.822  0.7313 -2.8289  0.8203
 5007SOL    HW225231   0.550   2.173   2.963  2.2449 -0.5740  0.4681
 5008SOL     OW25232   2.686   3.676   1.152 -0.1284  0.1009  0.2724
 5008SOL    HW125233   2.659   3.764   1.114 -0.0370  0.1058  0.2203
 5008SOL    HW225234   2.645   3.665   1.243 -1.5723 -0.5442 -0.4374
 5009SOL     OW25235   9.101   3.858   0.656  0.2423 -0.0935  0.3129
 5009SOL    HW125236   9.139   3.933   0.710  0.9372 -0.2915  0.0987
 5009SOL    HW225237   9.175   3.799   0.623 -0.2447 -0.4686 -0.1200
 5010SOL     OW25238   8.351   5.151   0.367  0.2972 -0.5127 -0.4877
 5010SOL    HW125239   8.321   5.202   0.447  2.7904  0.0271  0.1442
 5010SOL    HW225240   8.276   5.145   0.301 -0.5877  2.3516  0.2050
 5011SOL     OW25241   0.590   1.970   1.781 -0.2984  0.8448 -0.3840
 5011SOL    HW125242   0.652   2.047   1.761  0.1085  0.4802 -0.5478
 5011SOL    HW225243   0.526   1.958   1.705 -1.1807  1.8193  0.2106
 5012SOL     OW25244   3.445   1.919   1.250 -0.4445 -0.6796  0.1165
 5012SOL    HW125245   3.502   1.950   1.326 -1.1820  1.0437 -0.0095
 5012SOL    HW225246   3.492   1.937   1.164 -1.0637  0.5108  0.0239
 5013SOL     OW25247   0.310   2.710   1.555 -0.0415  0.0032 -0.2265
 5013SOL    HW125248   0.282   2.628   1.505 -1.6788  0.1559  0.4041
 5013SOL    HW225249   0.242   2.782   1.542  0.0526  0.3980  1.3355
 5014SOL     OW25250   0.865   0.775   0.356 -0.9565  0.1086  0.3147
 5014SOL    HW125251   0.891   0.843   0.425 -0.3914  1.5046 -1.2343
 5014SOL    HW225252   0.768   0.784   0.335 -1.5068 -1.4316  2.1153
 5015SOL     OW25253   4.201   8.805   0.992  0.5008 -0.4363 -0.5022
 5015SOL    HW125254   4.295   8.819   0.961  0.4590 -0.4902 -0.6526
 5015SOL    HW225255   4.173   8.712   0.970 -0.0135 -0.0298 -1.5672
 5016SOL     OW25256   0.965   9.709   1.135 -0.1002 -0.5297 -0.3939
 5016SOL    HW125257   0.928   9.800   1.156 -0.0704 -0.6134  0.0284
 5016SOL    HW225258   0.959   9.693   1.037 -0.5904 -0.2808 -0.4088
 5017SOL     OW25259   2.486   7.691   1.056  0.0726  0.4732 -0.1749
 5017SOL    HW125260   2.449   7.677   1.148  0.0409  1.7455  0.0100
 5017SOL    HW225261   2.416   7.734   0.998  0.7474  1.4511 -0.2612
 5018SOL     OW25262   4.586   2.685   1.645  0.0568 -0.7617  0.1246
 5018SOL    HW125263   4.665   2.642   1.601 -0.5429 -0.2917 -1.4448
 5018SOL    HW225264   4.617   2.761   1.703  0.7464 -0.5173 -0.5595
 5019SOL     OW25265   0.331   1.927   3.275 -0.2555  0.3249  0.5787
 5019SOL    HW125266   0.379   1.840   3.265 -1.8905 -0.4494 -1.0745
 5019SOL    HW225267   0.276   1.943   3.193 -0.5483  2.5674  1.1889
 5020SOL     OW25268   1.261   5.270   2.323  0.4373 -0.2710 -0.5166
 5020SOL    HW125269   1.198   5.332   2.275  0.0899 -1.3248 -1.4362
 5020SOL    HW225270   1.346   5.318   2.342 -0.1788  0.7951 -0.3568
 5021SOL     OW25271   2.955   7.633   1.760  0.2012 -0.0069  0.1482
 5021SOL    HW125272   2.941   7.538   1.730 -0.2058  0.2635 -0.5281
 5021SOL    HW225273   3.030   7.673   1.707  1.2607 -0.3664  1.3594
 5022SOL     OW25274   3.757   1.924   0.188  0.2866  0.6264 -0.4754
 5022SOL    HW125275   3.791   2.010   0.151 -0.4872  0.4922 -1.5305
 5022SOL    HW225276   3.664   1.936   0.223  0.2177  0.2470 -0.5251
 5023SOL     OW25277   9.677   2.661   2.495  0.0412  0.2579 -0.5705
 5023SOL    HW125278   9.667   2.631   2.400 -0.7950 -0.2008 -0.3381
 5023SOL    HW225279   9.604   2.725   2.518 -1.2076 -1.5161  0.4991
 5024SOL     OW25280   8.060   0.095   1.561 -0.8900 -0.3279 -0.1887
 5024SOL    HW125281   8.006   0.109   1.644 -0.3269  0.1277  0.1027
 5024SOL    HW225282   8.051  -0.000   1.531  0.2714 -0.9475  1.3754
 5025SOL     OW25283   8.533   1.784   1.831 -0.7041  0.1182  0.1018
 5025SOL    HW125284   8.577   1.857   1.777  1.4657 -0.1246  1.4751
 5025SOL    HW225285   8.475   1.729   1.771  2.1450 -0.5413 -2.1881
 5026SOL     OW25286   1.397   3.004   2.602 -0.1794 -0.0948  0.7902
 5026SOL    HW125287   1.335   2.957   2.665 -0.4676 -0.8102 -0.0164
 5026SOL    HW225288   1.483   2.953   2.597  0.4696  0.8728  1.8733
 5027SOL     OW25289   9.693   5.633   0.204 -0.0955 -0.3096 -0.4577
 5027SOL    HW125290   9.778   5.591   0.234  0.1696  0.7717  0.3306
 5027SOL    HW225291   9.633   5.648   0.282  0.4392  2.1396 -0.4797
 5028SOL     OW25292   0.470   8.489   2.639 -0.2899  0.2486 -0.4001
 5028SOL    HW125293   0.525   8.409   2.615 -2.2858 -1.1712 -0.4093
 5028SOL    HW225294   0.462   8.549   2.560 -0.8564 -0.8266 -1.1773
 5029SOL     OW25295   1.040   1.475   0.810 -0.3472  0.1742  0.8481
 5029SOL    HW125296   1.100   1.395   0.802 -3.1548 -1.8509 -1.0296
 5029SOL    HW225297   1.051   1.532   0.728 -1.3137 -0.4802  0.2475
 5030SOL     OW25298   1.630   6.219   2.328 -0.1915 -0.1876  0.0487
 5030SOL    HW125299   1.654   6.129   2.290 -0.2151 -0.4548  0.6582
 5030SOL    HW225300   1.581   6.272   2.259  0.2886 -0.4382 -0.4959
 5031SOL     OW25301   3.414   0.098   2.841 -0.0753 -0.3632  0.6674
 5031SOL    HW125302   3.373   0.152   2.767  1.6663  0.5710  0.3674
 5031SOL    HW225303   3.452   0.013   2.803 -3.3892 -2.2166  1.2306
 5032SOL     OW25304   4.741   8.891   2.301  0.7707  0.3511  0.4523
 5032SOL    HW125305   4.755   8.798   2.266  0.6924  0.6243 -0.3053
 5032SOL    HW225306   4.794   8.956   2.246 -0.4552  0.9413 -0.0351
 5033SOL     OW25307   9.784   9.565   3.426  0.1493 -0.2370 -0.5450
 5033SOL    HW125308   9.708   9.594   3.368 -0.2127 -1.2235 -0.5596
 5033SOL    HW225309   9.774   9.468   3.449  1.8678 -0.5885 -1.2541
 5034SOL     OW25310   8.801   3.208   0.633 -0.6053  0.3663  0.0511
 5034SOL    HW125311   8.780   3.114   0.663 -0.1079  0.1952 -0.1238
 5034SOL    HW225312   8.761   3.273   0.697 -1.0319  0.0329  0.1239
 5035SOL     OW25313   9.207   5.403   0.713 -0.2086 -0.7118  0.4117
 5035SOL    HW125314   9.159   5.444   0.790 -0.8610 -1.2087  0.2690
 5035SOL    HW225315   9.161   5.318   0.686  0.6178 -1.0850  0.1437
 5036SOL     OW25316   1.696   2.049   0.004 -0.3363 -0.1620  0.2139
 5036SOL    HW125317   1.682   2.101  -0.080 -1.8204  1.7887  1.6442
 5036SOL    HW225318   1.748   2.104   0.069  1.8423 -2.0982  0.1955
 5037SOL     OW25319   0.079   0.074   1.198  0.0199  0.6535  0.9395
 5037SOL    HW125320   0.086   0.125   1.113  1.0981 -0.5553  0.2833
 5037SOL    HW225321  -0.007   0.022   1.199 -0.7113  1.8666  1.2717
 5038SOL     OW25322   3.975   2.991   0.319  0.1033  0.2653 -0.5908
 5038SOL    HW125323   3.880   3.002   0.289  0.3281 -0.0903 -1.4683
 5038SOL    HW225324   3.991   2.897   0.347 -0.8230  1.1754  3.3354
 5039SOL     OW25325   2.479   9.273   1.445  0.0360 -0.2510  0.2187
 5039SOL    HW125326   2.468   9.250   1.542  1.4707  1.0609  0.7198
 5039SOL    HW225327   2.473   9.189   1.390 -0.6293 -1.0249  1.4470
 5040SOL     OW25328   2.599   1.268   1.915 -0.1620 -0.2940 -0.0460
 5040SOL    HW125329   2.537   1.315   1.852  0.4263 -0.8284 -1.0398
 5040SOL    HW225330   2.546   1.208   1.975 -0.7640  0.4994  0.2295
 5041SOL     OW25331   3.643   4.094   1.744 -0.4705  0.1112 -0.2402
 5041SOL    HW125332   3.692   4.034   1.680  0.4972  1.6986 -1.0109
 5041SOL    HW225333   3.703   4.116   1.821 -1.3982 -1.2290  0.9181
 5042SOL     OW25334   0.584   0.606   2.200  0.3392  0.3482  0.1865
 5042SOL    HW125335   0.673   0.643   2.227 -0.7002  1.9150  1.6518
 5042SOL    HW225336   0.534   0.577   2.282 -0.7126  0.0004 -0.5647
 5043SOL     OW25337   1.863   4.564   0.691 -0.2763 -0.3200  0.4667
 5043SOL    HW125338   1.816   4.573   0.603 -1.3056 -1.0336  0.9369
 5043SOL    HW225339   1.810   4.503   0.751  0.6655 -0.2191  1.4052
 5044SOL     OW25340   2.656   1.003   3.036  0.3346 -0.4191  0.0148
 5044SOL    HW125341   2.711   1.082   3.062  0.7124 -0.2224 -1.3867
 5044SOL    HW225342   2.700   0.954   2.961 -1.1772 -0.5078 -0.8267
 5045SOL     OW25343   8.647   4.109   0.447  0.1475  0.7170 -0.2529
 5045SOL    HW125344   8.697   4.065   0.372 -0.2251  2.5654 -1.6127
 5045SOL    HW225345   8.551   4.117   0.422  0.1371  1.9019  0.1575
 5046SOL     OW25346   4.410   8.801   1.444 -0.1525 -0.2583 -0.6647
 5046SOL    HW125347   4.436   8.857   1.523  3.1900 -0.6988 -1.3718
 5046SOL    HW225348   4.391   8.861   1.366  3.5012 -0.0040 -1.4466
 5047SOL     OW25349   8.220   1.534   1.428 -0.2460  0.6758 -0.2579
 5047SOL    HW125350   8.175   1.447   1.406 -1.0883  1.1821 -0.5575
 5047SOL    HW225351   8.260   1.573   1.345  0.7965  0.2088  0.0137
 5048SOL     OW25352   3.133   5.321   2.756  0.1776 -0.2713 -0.3370
 5048SOL    HW125353   3.043   5.350   2.723 -0.0034  0.1815  0.5464
 5048SOL    HW225354   3.191   5.402   2.768 -0.1253 -0.3232  1.5422
 5049SOL     OW25355   2.927   9.576   0.456  0.4920 -0.1473  0.0364
 5049SOL    HW125356   2.840   9.599   0.414  1.1173 -0.3661 -1.4055
 5049SOL    HW225357   2.937   9.477   0.462 -0.2408 -0.1181  2.1033
 5050SOL     OW25358   2.029   9.720   2.237 -0.5191  0.0781  0.3238
 5050SOL    HW125359   2.036   9.650   2.166  0.3669 -0.9263  1.3877
 5050SOL    HW225360   2.013   9.676   2.326 -1.8533  1.3347  0.7198
 5051SOL     OW25361   1.427   7.696   0.343 -0.6614  0.1762 -0.2078
 5051SOL    HW125362   1.334   7.717   0.313 -1.1415 -0.6823  0.6687
 5051SOL    HW225363   1.478   7.657   0.267 -0.5868  1.9562 -1.0882
 5052SOL     OW25364   1.387   3.112   0.810 -0.8921  0.3532 -0.0590
 5052SOL    HW125365   1.339   3.167   0.741 -3.4266 -1.4455  0.1967
 5052SOL    HW225366   1.366   3.148   0.901 -0.3864  0.5986 -0.0407
 5053SOL     OW25367   0.946   8.226   0.942  0.2708  0.1997 -0.1725
 5053SOL    HW125368   0.989   8.308   0.905  1.0426  0.6710  1.7301
 5053SOL    HW225369   0.978   8.210   1.035 -1.5820 -1.0103  0.2878
 5054SOL     OW25370   1.181   5.587   1.490  0.1838 -0.2492  0.2583
 5054SOL    HW125371   1.184   5.490   1.514 -2.2250 -0.5951 -0.7171
 5054SOL    HW225372   1.133   5.637   1.562 -2.9792 -0.5912 -1.5167
 5055SOL     OW25373   4.907   8.639   2.274 -0.1318  0.0426 -0.1577
 5055SOL    HW125374   4.977   8.607   2.338  0.3976  0.3833 -0.5715
 5055SOL    HW225375   4.950   8.689   2.199 -0.9178  1.5236  0.3445
 5056SOL     OW25376   0.106   2.880   1.164  0.6797  0.3867 -0.6001
 5056SOL    HW125377   0.046   2.959   1.173  1.0386  0.6763 -0.7192
 5056SOL    HW225378   0.052   2.798   1.144  0.0268  0.0719  2.1611
 5057SOL     OW25379   3.162   3.641   1.800 -0.1831 -0.3621  0.3270
 5057SOL    HW125380   3.187   3.549   1.770 -2.2197 -1.0149  0.5692
 5057SOL    HW225381   3.228   3.673   1.867  1.4832 -0.9684 -0.9892
 5058SOL     OW25382   3.067   5.743   3.045 -0.0200  0.7074 -0.3742
 5058SOL    HW125383   3.083   5.841   3.039  1.0795  0.5180 -0.6563
 5058SOL    HW225384   3.118   5.696   2.972  4.4087 -0.6212  3.3088
 5059SOL     OW25385   2.032   7.354   0.023 -0.1461  0.0559  0.3734
 5059SOL    HW125386   2.093   7.428  -0.004  0.9623 -1.4850 -1.4310
 5059SOL    HW225387   1.938   7.378  -0.003  0.2314  0.7387 -0.3890
 5060SOL     OW25388   9.142   3.534   1.168 -0.0001  0.2174  0.1730
 5060SOL    HW125389   9.125   3.602   1.097 -0.7046 -0.4245 -0.2856
 5060SOL    HW225390   9.100   3.447   1.141  0.8821 -0.3949  0.7528
 5061SOL     OW25391   0.698   4.802   2.869 -0.3595  0.3009 -0.1963
 5061SOL    HW125392   0.737   4.723   2.916  1.2795  0.3423 -1.4346
 5061SOL    HW225393   0.772   4.861   2.836 -1.4595  0.2827 -2.7779
 5062SOL     OW25394   8.943   5.076   1.867 -0.0110 -0.6122 -0.1796
 5062SOL    HW125395   8.885   4.994   1.872 -1.4101  0.4675  2.4802
 5062SOL    HW225396   8.891   5.155   1.900  2.2104  0.8452 -0.0850
 5063SOL     OW25397   8.770   4.515   0.326 -0.1114  0.1072 -0.1784
 5063SOL    HW125398   8.812   4.430   0.294  0.1794  0.6987 -1.4144
 5063SOL    HW225399   8.793   4.589   0.263  1.4259  1.5775  1.9943
 5064SOL     OW25400   9.705   4.728   2.453  0.0773 -0.9721 -0.0199
 5064SOL    HW125401   9.776   4.659   2.440 -0.6825 -1.9963  1.0773
 5064SOL    HW225402   9.620   4.696   2.410 -0.5801 -1.2559  1.4455
 5065SOL     OW25403   5.834   9.430   2.113 -0.0151 -0.6642 -0.2125
 5065SOL    HW125404   5.752   9.439   2.169 -0.1938 -2.0038 -0.2287
 5065SOL    HW225405   5.856   9.518   2.071 -0.3428  0.1468  1.3096
 5066SOL     OW25406   0.264   9.264   3.291  0.1995  0.0651  0.0038
 5066SOL    HW125407   0.253   9.235   3.196 -0.3217  0.1201  0.0482
 5066SOL    HW225408   0.185   9.236   3.344 -0.3990  1.7074  0.0125
 5067SOL     OW25409   1.298   1.217   1.162  0.2847 -0.2333 -0.1828
 5067SOL    HW125410   1.382   1.233   1.109  1.1929  0.6056  1.4689
 5067SOL    HW225411   1.268   1.303   1.203  0.8933 -1.2969  2.5560
 5068SOL     OW25412   3.460   7.276   0.585  0.2857  0.2171 -0.1459
 5068SOL    HW125413   3.494   7.275   0.679 -1.4166 -2.3702  0.5137
 5068SOL    HW225414   3.535   7.252   0.522  0.8248 -0.6859  0.8193
 5069SOL     OW25415   2.132   3.475   2.509  0.8938  0.5064  0.0136
 5069SOL    HW125416   2.197   3.473   2.433  0.4927  0.6786 -0.3392
 5069SOL    HW225417   2.109   3.382   2.536  2.3032  0.4386  1.0242
 5070SOL     OW25418   2.606   0.311   2.847 -0.1841 -0.1635 -0.2687
 5070SOL    HW125419   2.568   0.256   2.773  0.5783  1.1649 -1.6734
 5070SOL    HW225420   2.703   0.287   2.859  0.0562  0.6181 -0.6476
 5071SOL     OW25421   2.831   2.099   1.498  0.1547  0.4651 -0.2455
 5071SOL    HW125422   2.733   2.093   1.516  0.5009  0.7932  1.9633
 5071SOL    HW225423   2.846   2.119   1.402 -2.0339  2.4170 -0.2441
 5072SOL     OW25424   3.565   9.543   1.065  0.2472 -0.2684  0.2018
 5072SOL    HW125425   3.487   9.494   1.103 -1.5320  1.7609 -0.6866
 5072SOL    HW225426   3.644   9.533   1.126 -0.8751 -1.8270  1.4453
 5073SOL     OW25427   8.820   2.724   1.880 -0.0322  0.2765 -0.0900
 5073SOL    HW125428   8.828   2.635   1.834  3.3598  0.7459 -0.5391
 5073SOL    HW225429   8.814   2.797   1.812  0.1550  0.6160  0.2581
 5074SOL     OW25430   9.543   1.693   2.395  0.8618 -0.2353 -0.1937
 5074SOL    HW125431   9.520   1.601   2.427  3.6732 -0.0465  2.6766
 5074SOL    HW225432   9.619   1.689   2.331  0.2194  0.0000 -0.9751
 5075SOL     OW25433   6.478   9.882   2.565  0.0530 -0.4089  0.2047
 5075SOL    HW125434   6.492   9.786   2.542  1.1153 -0.0832 -0.5554
 5075SOL    HW225435   6.549   9.912   2.629  0.4526  0.1945 -0.5171
 5076SOL     OW25436   2.895   4.207   3.391 -0.1819  0.0347  0.0176
 5076SOL    HW125437   2.994   4.207   3.373 -0.3555  1.2664 -1.0129
 5076SOL    HW225438   2.859   4.298   3.373 -1.7824 -0.8029 -1.1138
 5077SOL     OW25439   3.135   0.896   1.205 -0.4486  0.2823 -0.0099
 5077SOL    HW125440   3.212   0.910   1.143  0.3529 -1.4816  0.5413
 5077SOL    HW225441   3.077   0.978   1.206  1.0906  1.4071 -0.8703
 5078SOL     OW25442   1.684   3.558   1.900  0.0548  0.2926  0.3156
 5078SOL    HW125443   1.603   3.499   1.899  0.9742 -1.1467  4.1075
 5078SOL    HW225444   1.764   3.505   1.872  0.3067  0.7080  0.2472
 5079SOL     OW25445   9.735   5.781   2.375 -0.4482 -0.3478  0.1836
 5079SOL    HW125446   9.723   5.834   2.291 -0.7352 -1.2296 -0.3432
 5079SOL    HW225447   9.765   5.841   2.449 -2.0155  0.7922 -0.0813
 5080SOL     OW25448   9.754   5.188   2.015  1.0135  0.4811  0.1244
 5080SOL    HW125449   9.659   5.162   2.029  2.1353 -3.4171  1.0827
 5080SOL    HW225450   9.774   5.194   1.917 -0.3916  2.2304 -0.0811
 5081SOL     OW25451   0.220   6.061   2.570 -0.6719 -0.1109  0.5375
 5081SOL    HW125452   0.298   6.067   2.632 -0.3248 -0.7558  0.1709
 5081SOL    HW225453   0.135   6.068   2.622 -0.3795  0.0211  1.0023
 5082SOL     OW25454   9.219   4.835   0.147  0.0212 -0.0568  0.2935
 5082SOL    HW125455   9.179   4.745   0.127  0.0279 -0.1230  0.5755
 5082SOL    HW225456   9.223   4.848   0.246 -0.8912  0.6555  0.2479
 5083SOL     OW25457   4.153   2.840   1.469  0.2370 -0.3602 -0.0218
 5083SOL    HW125458   4.222   2.837   1.397 -0.4198 -0.3916 -0.6643
 5083SOL    HW225459   4.103   2.927   1.462 -2.0321 -1.7340 -1.7180
 5084SOL     OW25460   7.638   1.672   1.294  0.5021  0.3425  0.1502
 5084SOL    HW125461   7.723   1.662   1.243  0.5293  0.2108  0.2200
 5084SOL    HW225462   7.658   1.670   1.392  0.8775  4.0688  0.1973
 5085SOL     OW25463   0.837   2.356   2.586 -0.0443  0.3440 -0.4600
 5085SOL    HW125464   0.874   2.408   2.663  0.4615  0.4645 -0.7814
 5085SOL    HW225465   0.835   2.415   2.504  0.2693 -0.0560 -0.7563
 5086SOL     OW25466   9.432   1.544   1.003 -0.3313 -0.5624  0.4710
 5086SOL    HW125467   9.416   1.451   1.035 -1.9435 -0.1132  1.0214
 5086SOL    HW225468   9.514   1.546   0.947 -0.5134 -2.3925  0.1052
 5087SOL     OW25469   1.725   8.189   1.349 -0.1450 -0.0234 -0.3733
 5087SOL    HW125470   1.770   8.235   1.425 -1.1098  0.9300 -0.3705
 5087SOL    HW225471   1.747   8.091   1.351  0.7850  0.2050  0.4332
 5088SOL     OW25472   0.836   6.218   1.681  0.2577  0.5197  0.0772
 5088SOL    HW125473   0.829   6.318   1.692 -1.2428  0.1640  2.8688
 5088SOL    HW225474   0.902   6.183   1.747 -0.7001 -0.5560  0.4655
 5089SOL     OW25475   0.769   3.502   2.151 -0.6654 -0.5223  0.4883
 5089SOL    HW125476   0.767   3.490   2.051  1.3620 -1.3586  0.5237
 5089SOL    HW225477   0.780   3.412   2.194  0.1799  0.0125  1.3902
 5090SOL     OW25478   1.279   0.206   1.125  0.7586 -0.4887  0.0444
 5090SOL    HW125479   1.329   0.123   1.102 -1.6223 -1.2850 -2.5689
 5090SOL    HW225480   1.248   0.201   1.220  1.6135 -2.0446  0.2646
 5091SOL     OW25481   1.780   9.238   1.501  0.1060  0.0494 -0.8317
 5091SOL    HW125482   1.702   9.280   1.547  1.4809  1.9009 -0.1222
 5091SOL    HW225483   1.787   9.273   1.408  0.9106  0.9931 -0.4286
 5092SOL     OW25484   1.372   8.423   0.445 -0.1364 -0.0782  0.5160
 5092SOL    HW125485   1.430   8.460   0.372 -0.2571  0.0248  0.4728
 5092SOL    HW225486   1.429   8.370   0.509 -0.0556 -0.2809  0.2744
 5093SOL     OW25487   1.214   6.599   3.219 -0.4806 -0.8066  0.0577
 5093SOL    HW125488   1.203   6.680   3.161 -0.4402 -1.8609 -1.4657
 5093SOL    HW225489   1.124   6.566   3.247 -0.6578 -1.7871 -1.5680
 5094SOL     OW25490   0.624   4.827   1.861 -0.2836 -0.0043  0.0817
 5094SOL    HW125491   0.691   4.847   1.933 -1.7815  2.2828  0.9066
 5094SOL    HW225492   0.578   4.912   1.834 -1.1513 -1.1595 -2.1768
 5095SOL     OW25493   9.698   3.569   2.498  0.6540 -0.2169 -0.3481
 5095SOL    HW125494   9.744   3.603   2.415  1.1788  1.8987  0.7739
 5095SOL    HW225495   9.728   3.475   2.517  0.3103 -0.8305 -2.6974
 5096SOL     OW25496   1.155   9.266   2.296 -0.0224 -0.4071 -0.1312
 5096SOL    HW125497   1.185   9.293   2.204 -0.9683  0.1849 -0.2653
 5096SOL    HW225498   1.194   9.176   2.318 -0.6272 -1.0199 -1.5241
 5097SOL     OW25499   2.174   7.959   1.269 -0.5721  0.1977  0.2932
 5097SOL    HW125500   2.155   7.960   1.171  0.3808 -1.2136  0.0798
 5097SOL    HW225501   2.150   7.870   1.307  0.6454  0.1558  1.0077
 5098SOL     OW25502   2.382   9.566   1.482  0.3254 -0.1947 -0.6607
 5098SOL    HW125503   2.438   9.644   1.455  1.7041 -0.4680  1.3002
 5098SOL    HW225504   2.427   9.481   1.451  0.4321 -0.3548 -0.0791
 5099SOL     OW25505   3.251   2.328   1.543  0.0862  0.1884 -0.6325
 5099SOL    HW125506   3.224   2.345   1.448  0.3985 -0.0981 -0.7756
 5099SOL    HW225507   3.251   2.229   1.560  0.6261  0.2062 -0.5146
 5100SOL     OW25508   3.105   5.485   3.275 -0.2687  0.4315  0.2949
 5100SOL    HW125509   3.125   5.554   3.206  1.7435  0.9107  1.3282
 5100SOL    HW225510   3.099   5.395   3.231  3.1357  0.4068 -0.3043
 5101SOL     OW25511   1.277   9.042   2.426 -0.5441 -0.7142 -0.7504
 5101SOL    HW125512   1.348   8.983   2.388  0.1296 -0.6452  0.3784
 5101SOL    HW225513   1.316   9.131   2.450 -1.8136  0.6744 -3.6154
 5102SOL     OW25514   0.027   3.374   2.480 -0.0362 -0.8001  0.0590
 5102SOL    HW125515  -0.068   3.343   2.482 -0.1927 -0.5339 -1.9077
 5102SOL    HW225516   0.037   3.455   2.538 -0.6852 -1.6380  1.3722
 5103SOL     OW25517   1.866   1.982   0.711 -0.2745 -0.2426 -0.1019
 5103SOL    HW125518   1.800   2.041   0.664  0.0911 -0.2703 -0.6649
 5103SOL    HW225519   1.830   1.955   0.800 -1.0705 -0.3455 -0.4496
 5104SOL     OW25520   0.561   5.501   2.768 -0.0755  0.0341  0.0578
 5104SOL    HW125521   0.482   5.485   2.710  0.3329  1.3550 -0.8860
 5104SOL    HW225522   0.558   5.594   2.804  1.4258  0.3486 -0.5888
 5105SOL     OW25523   2.127   1.799   3.100 -0.2175 -0.1343 -0.0362
 5105SOL    HW125524   2.029   1.786   3.110 -0.3064  0.7165  0.2523
 5105SOL    HW225525   2.176   1.723   3.142 -0.7182  0.2945  1.3565
 5106SOL     OW25526   1.741   1.481   1.328  0.1738  0.0131  0.1080
 5106SOL    HW125527   1.802   1.434   1.392  2.7048 -0.6330 -2.6832
 5106SOL    HW225528   1.792   1.553   1.281 -1.4236 -0.0356 -1.7399
 5107SOL     OW25529   0.613   8.072   2.404 -0.1775  0.2518 -0.2680
 5107SOL    HW125530   0.562   8.065   2.319 -2.2858 -1.8829  1.1454
 5107SOL    HW225531   0.672   7.992   2.415  0.9740  1.0804 -0.2454
 5108SOL     OW25532   0.805   6.322   1.006  0.1669 -0.4790 -0.5019
 5108SOL    HW125533   0.827   6.301   0.911 -1.4122 -0.7754 -0.8154
 5108SOL    HW225534   0.778   6.237   1.053 -0.9894 -0.0144 -0.3227
 5109SOL     OW25535   2.251   9.149   0.342 -0.2524  0.0922  0.2449
 5109SOL    HW125536   2.294   9.197   0.419  0.7183  0.6637 -0.6464
 5109SOL    HW225537   2.259   9.051   0.355  0.0269  0.1859  0.8109
 5110SOL     OW25538   8.543   1.122   2.554 -0.2023  0.0259  0.7088
 5110SOL    HW125539   8.506   1.165   2.472  1.0954 -0.4510 -0.1394
 5110SOL    HW225540   8.540   1.186   2.630 -1.5457  0.4215  0.3323
 5111SOL     OW25541   3.045   0.524   1.099  0.0110 -1.0027  0.2581
 5111SOL    HW125542   3.098   0.540   1.182 -0.3235 -1.2200  0.5159
 5111SOL    HW225543   2.996   0.607   1.074  0.0306 -0.9672  0.3372
 5112SOL     OW25544   8.320   3.311   2.056  0.1579  0.5969  0.0163
 5112SOL    HW125545   8.311   3.409   2.078 -1.3717  1.1464 -2.8380
 5112SOL    HW225546   8.404   3.297   2.004 -1.6573  1.1641 -3.2290
 5113SOL     OW25547   1.947   8.387   1.142  0.3164 -0.8274  0.0443
 5113SOL    HW125548   2.025   8.425   1.092 -0.1734  0.1795  0.0374
 5113SOL    HW225549   1.890   8.335   1.079 -1.4770  2.2576 -0.9483
 5114SOL     OW25550   2.551   5.383   2.767  0.2506  0.1862 -0.1875
 5114SOL    HW125551   2.586   5.476   2.759  1.6197 -0.1812  1.3432
 5114SOL    HW225552   2.612   5.320   2.720  0.6094 -0.2270  0.8259
 5115SOL     OW25553   0.320   9.744   1.050  0.2164 -0.0244 -0.2367
 5115SOL    HW125554   0.324   9.839   1.018 -0.8204 -0.7615 -2.6314
 5115SOL    HW225555   0.370   9.685   0.987 -1.4882 -1.4687 -0.2618
 5116SOL     OW25556   2.961   2.855   0.385 -0.1018  0.4896  0.4727
 5116SOL    HW125557   3.007   2.919   0.324 -0.6441  1.4315  1.0389
 5116SOL    HW225558   2.862   2.862   0.373 -0.1557 -0.6932  0.0991
 5117SOL     OW25559   3.335   4.725   1.972 -0.3183  0.0816  0.0769
 5117SOL    HW125560   3.371   4.662   1.903 -0.0932 -1.0926  1.2517
 5117SOL    HW225561   3.366   4.697   2.062 -0.2569  1.8739  0.6216
 5118SOL     OW25562   1.405   1.661   0.056 -0.0806  0.3827 -0.3969
 5118SOL    HW125563   1.316   1.631   0.091 -0.5131 -1.2661 -2.8120
 5118SOL    HW225564   1.392   1.730  -0.015  0.5713  0.1558 -0.7393
 5119SOL     OW25565   4.322   2.223   1.394 -0.1581  0.3146 -0.2933
 5119SOL    HW125566   4.247   2.160   1.417  0.3801 -0.3062 -0.2187
 5119SOL    HW225567   4.375   2.184   1.318  1.5734 -0.4428  1.2676
 5120SOL     OW25568   2.487   8.147   2.623 -0.4025  0.0880 -0.3557
 5120SOL    HW125569   2.573   8.166   2.575  0.7159 -2.0920  0.7006
 5120SOL    HW225570   2.437   8.233   2.636  2.3603  1.6643  0.3925
 5121SOL     OW25571   0.835   2.848   2.494  0.6183 -0.6937 -0.4539
 5121SOL    HW125572   0.754   2.866   2.438  0.7929 -1.1480 -0.8608
 5121SOL    HW225573   0.810   2.790   2.571  0.1817  0.7577  0.5019
 5122SOL     OW25574   3.275   3.144   0.441  0.1205  0.4070  0.1857
 5122SOL    HW125575   3.349   3.078   0.428  0.3065  0.6212  0.1612
 5122SOL    HW225576   3.191   3.095   0.467  0.3286  0.1822  0.4446
 5123SOL     OW25577   7.898   2.056   0.277  0.2181  0.5439  0.0388
 5123SOL    HW125578   7.821   2.098   0.325 -1.4311 -3.4528  1.1162
 5123SOL    HW225579   7.981   2.068   0.331 -0.3620  1.7017  0.6975
 5124SOL     OW25580   2.880   1.757   3.343  0.6036  0.0875  0.2014
 5124SOL    HW125581   2.938   1.814   3.402 -0.7135  0.4434  1.1811
 5124SOL    HW225582   2.787   1.755   3.380  0.4704 -2.1742 -0.1671
 5125SOL     OW25583   8.750   4.339   2.933 -0.2778  0.0980  0.3940
 5125SOL    HW125584   8.828   4.281   2.909  0.1140 -0.3145  2.5112
 5125SOL    HW225585   8.726   4.397   2.856  2.0943  0.1592 -0.3325
 5126SOL     OW25586   3.940   9.367   1.386  0.1575  0.1066 -0.1179
 5126SOL    HW125587   3.911   9.330   1.474 -2.0845 -1.2941 -1.3671
 5126SOL    HW225588   4.021   9.319   1.354  0.8715  0.5017  1.1013
 5127SOL     OW25589   1.219   6.207   0.835 -0.1385  0.2500 -0.2819
 5127SOL    HW125590   1.228   6.165   0.925 -0.1816  0.9831  0.0632
 5127SOL    HW225591   1.202   6.305   0.844 -3.0648 -0.1475 -1.0277
 5128SOL     OW25592   3.364   2.505   2.846 -0.5080 -0.7132 -1.4115
 5128SOL    HW125593   3.421   2.428   2.818  0.2094 -0.6173 -0.2440
 5128SOL    HW225594   3.421   2.587   2.856 -1.1120 -0.2459 -1.7321
 5129SOL     OW25595   1.206   4.411   0.288  0.0878 -0.4730 -0.2152
 5129SOL    HW125596   1.127   4.458   0.249  1.1952  2.3742  0.8968
 5129SOL    HW225597   1.193   4.402   0.387 -0.2979 -2.9719 -0.4452
 5130SOL     OW25598   4.206   1.758   0.473  0.0873  0.4970 -0.0102
 5130SOL    HW125599   4.243   1.696   0.404  1.2338 -0.8832  1.7655
 5130SOL    HW225600   4.109   1.776   0.454  0.2966 -0.1410 -1.7450
 5131SOL     OW25601   0.815   8.314   1.978  0.4421 -0.3274 -0.8953
 5131SOL    HW125602   0.753   8.372   1.925 -1.4593 -0.9518  0.5940
 5131SOL    HW225603   0.834   8.231   1.926 -1.1598 -0.7946 -0.7569
 5132SOL     OW25604   2.118   7.978   1.017 -0.1436 -0.6868  0.2007
 5132SOL    HW125605   2.042   8.035   0.987  1.6656  0.8663 -1.5964
 5132SOL    HW225606   2.157   7.931   0.937  0.8467 -1.3632  1.0754
 5133SOL     OW25607   5.495   9.515   2.629  0.2255 -0.6001 -0.5454
 5133SOL    HW125608   5.582   9.520   2.679  0.3718 -1.3023 -0.7148
 5133SOL    HW225609   5.433   9.586   2.662  1.3913  0.8732 -1.4553
 5134SOL     OW25610   3.833   4.700   2.055  0.2943 -0.0947 -0.2891
 5134SOL    HW125611   3.796   4.773   2.113 -1.5731 -0.0578 -1.4979
 5134SOL    HW225612   3.815   4.612   2.097  0.7487  0.0208  0.1635
 5135SOL     OW25613   2.235   6.550   3.196 -0.1697  0.2128  0.0067
 5135SOL    HW125614   2.189   6.470   3.160 -1.9817  0.1597  2.2709
 5135SOL    HW225615   2.172   6.628   3.196  0.8990  1.0895 -0.2442
 5136SOL     OW25616   2.354   4.234   0.282  0.7396 -0.2593  0.4407
 5136SOL    HW125617   2.333   4.213   0.186 -0.6182  0.0759  0.6474
 5136SOL    HW225618   2.270   4.229   0.336  1.0179  1.9677  1.1581
 5137SOL     OW25619   1.835   1.764   3.095  0.4186  0.7040  0.3457
 5137SOL    HW125620   1.778   1.690   3.132  0.2903  0.6171 -0.0289
 5137SOL    HW225621   1.784   1.814   3.026  0.9235  0.3914 -0.2587
 5138SOL     OW25622   2.791   5.659   3.143  0.3871 -0.4939 -0.3758
 5138SOL    HW125623   2.730   5.673   3.222 -1.4580 -1.4824 -1.5868
 5138SOL    HW225624   2.869   5.721   3.150 -0.5660  0.5562  1.3986
 5139SOL     OW25625   2.521   6.715   3.051  0.0931 -0.0167  0.3558
 5139SOL    HW125626   2.437   6.678   3.089  0.1539 -1.3887 -0.8246
 5139SOL    HW225627   2.521   6.704   2.952  2.1640 -1.1415  0.4382
 5140SOL     OW25628   1.826   5.340   1.407 -0.0145  0.3155 -0.1404
 5140SOL    HW125629   1.812   5.256   1.459 -1.4571  0.8997  0.4355
 5140SOL    HW225630   1.783   5.331   1.317  2.0567 -0.5122 -1.0720
 5141SOL     OW25631   0.485   2.403   2.303 -0.1231  0.4915  0.4564
 5141SOL    HW125632   0.545   2.357   2.368 -0.1265 -1.0398 -0.5922
 5141SOL    HW225633   0.540   2.458   2.239  0.1448 -0.5629 -0.2309
 5142SOL     OW25634   2.965   6.935   3.029  0.2497  0.4821 -0.7501
 5142SOL    HW125635   2.900   7.011   3.016 -0.0533  0.2939 -0.3493
 5142SOL    HW225636   2.914   6.851   3.048  0.5724  0.0937 -1.6044
 5143SOL     OW25637   3.168   6.608   0.377  0.1177  0.4827 -0.2856
 5143SOL    HW125638   3.207   6.659   0.300 -0.1540  0.8831 -0.1615
 5143SOL    HW225639   3.102   6.541   0.342  1.1134 -0.3858 -0.5167
 5144SOL     OW25640   9.304   0.572   2.856  0.0419  0.2099  0.4636
 5144SOL    HW125641   9.382   0.549   2.797 -0.6520  0.8323 -0.7180
 5144SOL    HW225642   9.281   0.493   2.913  0.7663 -0.3889 -0.0641
 5145SOL     OW25643   3.931   1.604   2.236 -0.1918 -0.1162 -0.3079
 5145SOL    HW125644   3.930   1.638   2.142 -1.5537 -1.8225 -0.9273
 5145SOL    HW225645   4.016   1.555   2.253  1.0006  1.9888  0.0417
 5146SOL     OW25646   4.883   2.625   1.576  0.1869 -1.0538  0.1637
 5146SOL    HW125647   4.874   2.639   1.675 -0.3894 -1.3542  0.1582
 5146SOL    HW225648   4.978   2.607   1.553  0.3208 -0.9913  0.6695
 5147SOL     OW25649   8.783   4.848   1.920  0.2026 -0.0017 -0.0475
 5147SOL    HW125650   8.724   4.777   1.882  1.9535 -0.9249 -1.1058
 5147SOL    HW225651   8.802   4.827   2.016 -0.7101 -0.0219  0.1284
 5148SOL     OW25652   2.175   4.111   2.602  0.0695 -0.0976 -0.2398
 5148SOL    HW125653   2.085   4.124   2.644 -0.3108 -0.4063 -0.9430
 5148SOL    HW225654   2.208   4.019   2.621 -0.4837 -0.5304 -1.3038
 5149SOL     OW25655   1.252   2.646   0.728  0.0884  0.6721 -0.0993
 5149SOL    HW125656   1.247   2.724   0.790  0.2103  0.3691  0.2909
 5149SOL    HW225657   1.332   2.655   0.669  0.8049  0.2034  0.7990
 5150SOL     OW25658   6.523   9.914   2.133 -0.1404  0.2629  0.4901
 5150SOL    HW125659   6.529   9.897   2.035  1.2406  1.0499  0.4379
 5150SOL    HW225660   6.552  10.007   2.153 -0.1761  0.0229  1.6844
 5151SOL     OW25661   9.387   0.355   0.486  0.2175  0.3597 -0.4219
 5151SOL    HW125662   9.468   0.335   0.541 -1.7808  1.0971  2.9414
 5151SOL    HW225663   9.397   0.446   0.444  0.5875  1.0317  1.0854
 5152SOL     OW25664   9.797   7.074   1.643  0.0456  0.2009  0.0320
 5152SOL    HW125665   9.844   7.085   1.555  0.3523 -1.1885  0.0175
 5152SOL    HW225666   9.699   7.088   1.630  0.2329  1.2897 -0.2812
 5153SOL     OW25667   1.903   0.671   1.063  0.0701  0.0608 -0.0194
 5153SOL    HW125668   1.998   0.691   1.038 -0.3206 -1.8291 -3.3935
 5153SOL    HW225669   1.845   0.680   0.982 -1.7119 -4.2099  0.6585
 5154SOL     OW25670   3.052   7.151   1.868 -0.2900 -1.1271 -0.4987
 5154SOL    HW125671   3.066   7.098   1.952  2.6595 -1.7222 -1.2902
 5154SOL    HW225672   2.992   7.101   1.806  0.8227 -2.6202 -0.3920
 5155SOL     OW25673   2.332   3.847   1.847 -0.7494  0.2484 -0.6068
 5155SOL    HW125674   2.396   3.805   1.911 -2.6638  0.6699  1.6649
 5155SOL    HW225675   2.311   3.940   1.876 -2.9215 -0.1198 -0.8787
 5156SOL     OW25676   4.139   1.974   2.059 -0.3054  0.0214  0.4335
 5156SOL    HW125677   4.164   1.988   2.155 -0.7718 -1.2959  0.7554
 5156SOL    HW225678   4.137   1.876   2.039 -1.4143  0.2437 -0.6007
 5157SOL     OW25679   8.992   2.035   0.834 -0.1056  0.5864  0.4992
 5157SOL    HW125680   9.083   1.996   0.847  0.4702  1.6658 -0.2517
 5157SOL    HW225681   8.969   2.093   0.911 -0.1238  0.3904  0.6429
 5158SOL     OW25682   8.924   1.435   0.422 -0.2411 -0.0085  0.0410
 5158SOL    HW125683   8.925   1.431   0.522  4.1988 -0.5077  0.1122
 5158SOL    HW225684   8.995   1.498   0.391  0.1144 -1.7116 -2.8277
 5159SOL     OW25685   8.791   5.147   1.186 -0.1302 -0.5287  0.6317
 5159SOL    HW125686   8.780   5.048   1.185 -1.5715 -0.4334  3.4400
 5159SOL    HW225687   8.825   5.177   1.275 -0.4395  1.5886  0.0748
 5160SOL     OW25688   2.425   3.519   2.700 -0.2274 -0.3196  0.4675
 5160SOL    HW125689   2.476   3.558   2.777 -0.5318 -1.0431  1.0394
 5160SOL    HW225690   2.380   3.434   2.729  0.0124 -0.8314 -0.6164
 5161SOL     OW25691   2.955   6.483   0.220  0.0619 -0.1632 -0.5320
 5161SOL    HW125692   2.884   6.481   0.291 -0.8702 -0.2672 -1.4466
 5161SOL    HW225693   2.911   6.486   0.130  1.2254  1.0600 -1.0794
 5162SOL     OW25694   2.003   8.198   1.911 -0.3522  0.2092 -0.3630
 5162SOL    HW125695   2.007   8.263   1.987 -1.6274  1.1670 -1.0969
 5162SOL    HW225696   2.003   8.248   1.825  2.4666 -0.9183 -1.0564
 5163SOL     OW25697   3.873   1.445   1.609 -0.2379 -0.0365 -0.2585
 5163SOL    HW125698   3.930   1.380   1.659 -1.0587 -0.3532  0.2816
 5163SOL    HW225699   3.922   1.477   1.528  0.3252 -1.0326 -0.3199
 5164SOL     OW25700   2.375   1.976   1.692 -0.0679 -0.3340 -0.1661
 5164SOL    HW125701   2.293   2.026   1.721 -0.0929 -0.3651 -0.1834
 5164SOL    HW225702   2.445   2.042   1.662  0.6271 -0.1908  1.6817
 5165SOL     OW25703   2.285   0.962   0.723  0.1605 -0.4181 -0.1422
 5165SOL    HW125704   2.219   0.888   0.710 -0.5790  0.2473 -0.2281
 5165SOL    HW225705   2.366   0.927   0.770  0.1326 -1.4393 -0.8280
 5166SOL     OW25706   1.855   0.108   0.738 -0.1319 -0.2586 -0.1267
 5166SOL    HW125707   1.954   0.116   0.721 -0.0480 -2.9366 -1.0721
 5166SOL    HW225708   1.805   0.146   0.660  0.1675 -1.0534 -0.7070
 5167SOL     OW25709   0.962   2.975   1.156  0.2519  0.1678  0.4494
 5167SOL    HW125710   0.940   2.983   1.059 -0.8230  0.0641  0.6784
 5167SOL    HW225711   0.881   2.946   1.206  0.6943  0.6144  1.4358
 5168SOL     OW25712   9.917   1.541   0.936 -0.1301 -0.0138 -0.3711
 5168SOL    HW125713   9.864   1.572   0.857  0.9997 -1.7559 -1.8520
 5168SOL    HW225714   9.961   1.454   0.914  1.2234  0.1130  1.7567
 5169SOL     OW25715   0.548   6.767   0.436 -0.2020  0.2635  0.6484
 5169SOL    HW125716   0.560   6.672   0.409 -0.1928  0.4180  0.1116
 5169SOL    HW225717   0.637   6.804   0.466  0.5464  1.1419 -2.5004
 5170SOL     OW25718   1.033   2.477   0.605  0.3021  0.0592 -0.1165
 5170SOL    HW125719   1.029   2.395   0.662 -2.0959 -0.2165 -0.6192
 5170SOL    HW225720   1.101   2.540   0.641 -0.0063 -0.8177  2.0739
 5171SOL     OW25721   3.225   9.968   2.979 -0.0419 -0.5593 -0.5375
 5171SOL    HW125722   3.278   9.887   3.002 -0.2976 -0.5212  0.1945
 5171SOL    HW225723   3.283  10.033   2.930  0.7934 -0.2216  0.8665
 5172SOL     OW25724   0.005   3.100   3.000  0.2232 -1.1059 -0.3478
 5172SOL    HW125725   0.096   3.137   2.983  0.2793 -1.7067 -1.3791
 5172SOL    HW225726   0.014   3.011   3.046  0.1505 -1.0753 -0.2748
 5173SOL     OW25727   2.350   4.153   2.834  0.3978 -0.0950  0.3142
 5173SOL    HW125728   2.291   4.151   2.753  0.9168  1.4571 -0.1332
 5173SOL    HW225729   2.425   4.218   2.818  1.0416 -0.5026  1.6712
 5174SOL     OW25730   7.628   0.873   2.136 -0.1763  0.1928  0.5578
 5174SOL    HW125731   7.559   0.870   2.208 -0.2459  0.7700  0.5224
 5174SOL    HW225732   7.586   0.899   2.049  0.1934  1.3222  0.6974
 5175SOL     OW25733   0.530   9.178   2.267  0.2200 -0.5027  0.5870
 5175SOL    HW125734   0.464   9.253   2.260  0.0908 -0.5574  1.1986
 5175SOL    HW225735   0.557   9.149   2.175  3.3642  3.0316  0.2498
 5176SOL     OW25736   0.437   4.422   1.988  0.2819  0.1309  0.0253
 5176SOL    HW125737   0.441   4.438   1.889 -1.5862 -0.3258 -0.1484
 5176SOL    HW225738   0.409   4.328   2.006  0.7130  0.1803  0.9847
 5177SOL     OW25739   3.823   9.509   0.770 -0.2712  0.0784 -0.1145
 5177SOL    HW125740   3.884   9.431   0.755  0.0276  0.3279 -0.1774
 5177SOL    HW225741   3.876   9.591   0.789 -0.4932  0.8888 -2.8079
 5178SOL     OW25742   2.053   0.998   3.367  0.8757 -0.3057 -0.2600
 5178SOL    HW125743   2.035   1.022   3.462  0.2392 -1.7245 -0.0045
 5178SOL    HW225744   2.101   1.073   3.321  1.8507  0.0819  1.3759
 5179SOL     OW25745   2.838   3.458   3.189  0.2347  0.3601  0.8158
 5179SOL    HW125746   2.883   3.369   3.180  2.1699  1.3904  0.0008
 5179SOL    HW225747   2.829   3.501   3.099 -0.4654  1.0913  1.2266
 5180SOL     OW25748   0.320   0.116   0.392  0.4160 -0.2266  0.1285
 5180SOL    HW125749   0.391   0.175   0.430 -0.5471 -0.8674  3.0318
 5180SOL    HW225750   0.344   0.020   0.407 -1.0410 -0.4458  1.1533
 5181SOL     OW25751   0.414   2.821   2.571 -0.1989  0.3449  0.4171
 5181SOL    HW125752   0.317   2.819   2.595 -0.2257  0.2076  0.2973
 5181SOL    HW225753   0.448   2.727   2.562 -0.6449  0.3987 -1.9565
 5182SOL     OW25754   9.005   2.537   1.142 -0.2798  0.2122  0.0453
 5182SOL    HW125755   8.958   2.474   1.204 -1.2818  1.2918  0.4151
 5182SOL    HW225756   9.097   2.504   1.123  0.5688  0.6123  3.2769
 5183SOL     OW25757   3.839   2.751   1.776  0.0296  0.1195 -0.1427
 5183SOL    HW125758   3.904   2.820   1.808 -0.3730  1.6130 -2.4307
 5183SOL    HW225759   3.886   2.686   1.716  0.2788 -1.2683  1.5284
 5184SOL     OW25760   0.617   3.192   0.964  0.2446 -0.5339  0.4522
 5184SOL    HW125761   0.620   3.139   1.049  0.1008  2.0249  2.0961
 5184SOL    HW225762   0.657   3.282   0.980 -0.3039  0.1757 -2.0608
 5185SOL     OW25763   4.067   7.248   2.632  0.0618  0.0906  0.2915
 5185SOL    HW125764   3.991   7.186   2.650 -0.2682 -0.2263 -2.0856
 5185SOL    HW225765   4.117   7.266   2.717  0.7323 -4.1563  0.8830
 5186SOL     OW25766   0.654   2.599   3.086  0.0922 -0.3516  0.6709
 5186SOL    HW125767   0.730   2.637   3.138  0.0019 -0.1624  0.6632
 5186SOL    HW225768   0.671   2.502   3.069 -0.1917 -0.5711  1.6227
 5187SOL     OW25769   2.494   6.320   2.118  0.5099  0.3217  0.5025
 5187SOL    HW125770   2.555   6.261   2.065  0.7901  0.4363  0.6965
 5187SOL    HW225771   2.548   6.385   2.172  0.1693  2.2848 -1.4422
 5188SOL     OW25772   4.592   2.345   1.363  0.1807 -0.4002 -0.3106
 5188SOL    HW125773   4.551   2.309   1.447 -0.8983 -2.3002 -1.6267
 5188SOL    HW225774   4.691   2.335   1.367 -0.0386 -2.7871 -0.3037
 5189SOL     OW25775   2.956   1.079   2.773  0.1932 -0.0161 -0.3459
 5189SOL    HW125776   2.978   1.097   2.869  1.1872 -1.3670 -0.2976
 5189SOL    HW225777   2.964   1.163   2.721  3.1789  0.0705  0.1420
 5190SOL     OW25778   8.313   1.358   1.635 -0.2976 -0.5679  0.1865
 5190SOL    HW125779   8.389   1.298   1.609  0.9126  0.4247  1.3968
 5190SOL    HW225780   8.313   1.439   1.577 -1.4784 -1.3643 -0.9470
 5191SOL     OW25781   8.851   0.727   0.269 -0.3177  0.4160  0.1489
 5191SOL    HW125782   8.803   0.649   0.308 -1.9267  1.3802  0.1166
 5191SOL    HW225783   8.821   0.811   0.314 -0.9765  1.3739 -1.9917
 5192SOL     OW25784   2.575   2.525   0.811 -0.1389  0.5523 -0.6234
 5192SOL    HW125785   2.510   2.524   0.736  0.9503 -0.3279 -1.5763
 5192SOL    HW225786   2.530   2.558   0.894 -1.5421  0.8175 -1.4742
 5193SOL     OW25787   0.223   8.821   3.261  0.3237  0.2277 -0.0760
 5193SOL    HW125788   0.265   8.792   3.175  1.2852  1.6522 -0.1101
 5193SOL    HW225789   0.293   8.863   3.319 -0.3487 -0.5989  1.3480
 5194SOL     OW25790   3.106   1.911   0.055 -0.0631 -0.0331  0.0895
 5194SOL    HW125791   3.121   1.976  -0.019  0.9669 -0.3749 -0.0038
 5194SOL    HW225792   3.194   1.884   0.095 -0.5492 -0.5684  0.8180
 5195SOL     OW25793   0.921   3.349   0.410  0.2824  0.4477 -0.3009
 5195SOL    HW125794   0.933   3.250   0.408  1.7339  0.5997  0.0276
 5195SOL    HW225795   0.837   3.372   0.459  1.2839 -0.5380  1.9562
 5196SOL     OW25796   0.818   7.990   2.127 -0.3548  0.2047 -0.0065
 5196SOL    HW125797   0.877   8.060   2.168 -0.5126  0.6860 -0.6011
 5196SOL    HW225798   0.722   8.016   2.139 -0.3675  1.3610 -2.4487
 5197SOL     OW25799   2.823   4.646   2.588  0.5611  0.4110 -0.0344
 5197SOL    HW125800   2.744   4.592   2.559  0.4234  0.2081  0.7051
 5197SOL    HW225801   2.838   4.721   2.523 -0.1432  0.3609 -0.2609
 5198SOL     OW25802  10.000   9.097   0.839 -0.3609  0.4591  0.4532
 5198SOL    HW125803  10.037   9.027   0.901  0.4184  0.1020 -0.4051
 5198SOL    HW225804   9.988   9.058   0.748  2.6104  2.1310 -0.7243
 5199SOL     OW25805   0.621   7.363   2.683  0.3799  0.1781  0.1962
 5199SOL    HW125806   0.604   7.434   2.614 -1.0967 -2.4218 -2.2014
 5199SOL    HW225807   0.716   7.332   2.675  1.0578  1.8737  1.3030
 5200SOL     OW25808   0.385   8.776   2.999  0.0562 -0.2316 -0.7033
 5200SOL    HW125809   0.413   8.693   2.951 -0.7444 -0.1686 -1.2768
 5200SOL    HW225810   0.416   8.856   2.948  3.7979 -0.1324  1.5411
 5201SOL     OW25811   3.968   3.293   2.840 -0.4713  0.2679  0.3141
 5201SOL    HW125812   4.009   3.203   2.824  1.5290  1.2372 -0.2986
 5201SOL    HW225813   3.932   3.330   2.754 -0.4772  0.4264  0.3837
 5202SOL     OW25814   1.026   0.464   1.251 -0.7195  0.0341  0.0193
 5202SOL    HW125815   0.999   0.391   1.188 -1.6708  0.2356  0.1797
 5202SOL    HW225816   1.002   0.437   1.345 -1.0435  0.5336  0.0809
 5203SOL     OW25817   9.499   4.539   3.078 -0.1488 -0.0022 -0.2814
 5203SOL    HW125818   9.467   4.483   3.154 -0.4360  0.8012  0.2025
 5203SOL    HW225819   9.423   4.557   3.016  0.1912 -1.0446 -1.0171
 5204SOL     OW25820   0.355   8.071   1.830  0.1149  0.2073  0.3568
 5204SOL    HW125821   0.301   7.995   1.864 -0.8349  0.1289 -1.2661
 5204SOL    HW225822   0.444   8.073   1.876  0.2873 -2.0892  0.1548
 5205SOL     OW25823   0.278   8.103   2.580 -0.0102 -0.0154 -0.1706
 5205SOL    HW125824   0.215   8.141   2.512  0.6856  0.4192 -0.5937
 5205SOL    HW225825   0.345   8.174   2.604 -0.3938 -0.1008  1.1388
 5206SOL     OW25826   2.224   8.380   1.446  0.2365 -0.2338  0.5965
 5206SOL    HW125827   2.185   8.388   1.537  0.2397 -3.5436  0.9604
 5206SOL    HW225828   2.159   8.335   1.385 -0.1581  2.8341 -1.3480
 5207SOL     OW25829   1.121   4.059   1.327  0.2119 -0.1739 -0.4123
 5207SOL    HW125830   1.117   3.960   1.321 -1.5725 -0.0256 -2.0799
 5207SOL    HW225831   1.201   4.093   1.278  0.0662 -0.7178 -1.0336
 5208SOL     OW25832   9.506   0.781   2.589 -0.2198 -0.4906  0.2523
 5208SOL    HW125833   9.557   0.710   2.638 -0.4516 -0.8709 -0.0566
 5208SOL    HW225834   9.456   0.740   2.513 -0.0648  0.0627 -0.1506
 5209SOL     OW25835   9.311   3.997   2.144 -0.6036 -0.4494 -0.3975
 5209SOL    HW125836   9.293   3.927   2.213  1.6281 -1.2871 -0.5999
 5209SOL    HW225837   9.391   3.970   2.091 -0.1143  1.9575 -0.9216
 5210SOL     OW25838   1.464   1.823   2.073  0.3044 -0.7832  0.6832
 5210SOL    HW125839   1.436   1.732   2.104  0.1204 -0.2629  2.0796
 5210SOL    HW225840   1.557   1.842   2.104  0.2922 -0.4426  0.5155
 5211SOL     OW25841   3.825   8.905   1.826  0.0067 -0.2772 -0.3717
 5211SOL    HW125842   3.910   8.887   1.875 -0.3834  1.5871  1.0079
 5211SOL    HW225843   3.788   8.994   1.853 -1.5694 -0.3609 -2.1256
 5212SOL     OW25844   0.014   5.945   3.203 -0.0540 -0.3917 -0.5310
 5212SOL    HW125845   0.057   5.929   3.292  2.1957 -3.5032 -2.0796
 5212SOL    HW225846   0.029   6.040   3.175 -1.4854  0.8482  2.7170
 5213SOL     OW25847   8.360   3.864   3.232  0.0633 -0.1354  0.1604
 5213SOL    HW125848   8.357   3.956   3.193 -2.2502 -0.1690  0.1870
 5213SOL    HW225849   8.270   3.841   3.270  1.3032 -1.4534  2.4019
 5214SOL     OW25850   0.198   2.407   1.723  0.2764  0.5858 -0.5464
 5214SOL    HW125851   0.266   2.401   1.650  0.7358 -0.0706 -0.0689
 5214SOL    HW225852   0.170   2.502   1.735  1.7299  0.9814 -0.1919
 5215SOL     OW25853   1.160   5.154   1.964  0.1051  0.3445  0.0044
 5215SOL    HW125854   1.215   5.105   2.031 -0.7371 -0.4702  0.1146
 5215SOL    HW225855   1.220   5.198   1.898  0.9390  1.0645  1.2241
 5216SOL     OW25856   3.686   1.674   1.019 -0.4419  0.3729 -0.6303
 5216SOL    HW125857   3.626   1.645   0.944 -0.8755 -1.7159  0.4898
 5216SOL    HW225858   3.772   1.624   1.013 -0.1545  0.8226 -0.2244
 5217SOL     OW25859   1.641   3.055   1.011 -0.0325  0.3671 -0.6977
 5217SOL    HW125860   1.724   3.083   0.963  0.0123 -2.0007 -2.0386
 5217SOL    HW225861   1.562   3.064   0.950 -0.3789 -0.0385 -0.3107
 5218SOL     OW25862   7.955   0.147   1.844 -0.0707 -0.1597  0.3574
 5218SOL    HW125863   8.018   0.112   1.914 -1.1309 -0.0453  1.4034
 5218SOL    HW225864   7.875   0.188   1.889 -0.2396  0.9476 -0.9195
 5219SOL     OW25865   8.207   2.517   0.166 -0.4720 -0.0370  0.6159
 5219SOL    HW125866   8.284   2.455   0.178 -1.7213 -1.0924  3.5214
 5219SOL    HW225867   8.160   2.495   0.081  2.3406  0.5873 -1.1786
 5220SOL     OW25868   3.380   9.217   0.339 -0.4133 -0.1387 -0.4352
 5220SOL    HW125869   3.408   9.190   0.247 -1.0943  1.1902 -1.0545
 5220SOL    HW225870   3.459   9.256   0.388 -0.5206  1.0852 -1.2127
 5221SOL     OW25871   3.168   0.107   0.502  0.2826 -0.0343 -0.1527
 5221SOL    HW125872   3.180   0.184   0.565 -0.5829  0.7568 -0.9224
 5221SOL    HW225873   3.129   0.029   0.551  0.3122  0.3217  0.4464
 5222SOL     OW25874   2.798   5.776   2.520  0.1109  0.1051  0.4663
 5222SOL    HW125875   2.725   5.830   2.477 -2.1883 -2.1347  1.4219
 5222SOL    HW225876   2.834   5.711   2.454  0.7105  0.6594  0.2369
 5223SOL     OW25877   2.761   2.755   2.809 -0.2422  0.5527 -0.3017
 5223SOL    HW125878   2.767   2.849   2.843 -0.1679  0.4907 -0.1472
 5223SOL    HW225879   2.753   2.691   2.886 -2.4056  0.5901 -0.4620
 5224SOL     OW25880   0.651   7.134   1.715  0.2494 -0.2644  0.2755
 5224SOL    HW125881   0.663   7.035   1.704  1.2539  0.0291 -1.3636
 5224SOL    HW225882   0.554   7.157   1.706 -0.3559 -1.3903  3.2995
 5225SOL     OW25883   9.760   3.747   0.417 -0.6315 -0.3842  0.1377
 5225SOL    HW125884   9.695   3.672   0.403 -0.5977 -0.3464 -0.2019
 5225SOL    HW225885   9.845   3.728   0.369 -1.1071  0.5070 -1.0828
 5226SOL     OW25886   0.634   8.981   0.761  0.2926  0.3663 -0.0616
 5226SOL    HW125887   0.641   9.003   0.664 -1.9662  0.2187 -0.2971
 5226SOL    HW225888   0.662   8.886   0.776 -1.9058 -0.4724 -1.0270
 5227SOL     OW25889   7.930   2.886   0.422 -0.1208  0.6758 -0.6746
 5227SOL    HW125890   7.969   2.978   0.420 -0.1093  0.6501 -1.7269
 5227SOL    HW225891   7.961   2.839   0.505  0.8812  1.1747 -0.7588
 5228SOL     OW25892   3.541   7.668   1.695  0.6006  0.1909  0.5670
 5228SOL    HW125893   3.518   7.670   1.793  1.3575 -1.9853  0.8117
 5228SOL    HW225894   3.456   7.673   1.642  0.1229  0.5520  1.3424
 5229SOL     OW25895   0.521   4.298   2.508 -0.3851  0.0509  0.1055
 5229SOL    HW125896   0.468   4.381   2.524 -0.5791  0.1659 -1.1062
 5229SOL    HW225897   0.599   4.296   2.570 -0.9145  0.6640  0.7949
 5230SOL     OW25898   3.081   2.092   0.804 -0.0715 -0.4470 -0.1928
 5230SOL    HW125899   2.986   2.118   0.788 -0.3653 -1.3227  0.0862
 5230SOL    HW225900   3.084   2.021   0.875  0.6636 -1.4803 -1.2467
 5231SOL     OW25901   9.166   4.368   2.565  0.9195 -0.3232  1.2413
 5231SOL    HW125902   9.071   4.387   2.593 -0.2555  0.2744 -2.8515
 5231SOL    HW225903   9.177   4.269   2.553 -0.0523 -0.1955 -0.9600
 5232SOL     OW25904   0.974   4.203   2.160 -0.2079  0.4214  0.5005
 5232SOL    HW125905   0.926   4.154   2.233 -0.1923  0.1971  0.3607
 5232SOL    HW225906   0.912   4.269   2.118 -0.1552  0.7009  0.8551
 5233SOL     OW25907   3.365   1.956   2.817  0.1542 -0.1254  0.4298
 5233SOL    HW125908   3.273   1.918   2.825 -0.2069  0.6573  0.0001
 5233SOL    HW225909   3.363   2.054   2.835  0.4975  0.3466 -2.0497
 5234SOL     OW25910   4.362   9.714   2.620 -0.2863  0.0215 -0.0757
 5234SOL    HW125911   4.384   9.723   2.717  0.5059  1.3005 -0.3531
 5234SOL    HW225912   4.432   9.657   2.576 -0.1260  0.2085 -0.0658
 5235SOL     OW25913   8.597   1.688   2.297  0.2175  0.3571 -0.2720
 5235SOL    HW125914   8.620   1.633   2.217  0.9254 -0.3764  0.4346
 5235SOL    HW225915   8.570   1.629   2.373  1.4599  0.9393  0.6493
 5236SOL     OW25916   8.519   1.125   1.933  0.4625 -0.3118  0.5582
 5236SOL    HW125917   8.526   1.216   1.891 -0.5998 -1.4552 -2.1401
 5236SOL    HW225918   8.513   1.136   2.033 -2.1289  2.7363  0.1438
 5237SOL     OW25919   0.318   7.532   2.425  0.4713 -0.1415  0.4557
 5237SOL    HW125920   0.305   7.586   2.508  1.7568 -0.7287  1.0481
 5237SOL    HW225921   0.411   7.545   2.391  0.2243 -0.5918 -0.4165
 5238SOL     OW25922   2.334   3.905   0.184  0.1955  0.0465  0.2253
 5238SOL    HW125923   2.313   3.937   0.277  1.1260  1.2225  0.0301
 5238SOL    HW225924   2.277   3.825   0.164  0.1274 -0.3512  1.8833
 5239SOL     OW25925   0.326   1.630   1.179  0.1033 -0.1140 -0.5020
 5239SOL    HW125926   0.237   1.677   1.187  0.4665  0.4324  0.4323
 5239SOL    HW225927   0.366   1.620   1.270  0.9135 -0.5379 -0.9038
 5240SOL     OW25928   4.070   8.285   2.442  0.2275 -0.5688 -0.0088
 5240SOL    HW125929   4.144   8.302   2.377 -0.5519 -3.0297 -1.6319
 5240SOL    HW225930   4.101   8.306   2.535  2.1214  0.7951 -0.9250
 5241SOL     OW25931   0.944   8.491   0.588 -0.2372 -0.3440  0.0578
 5241SOL    HW125932   0.946   8.553   0.666  0.4424  0.3933 -0.5432
 5241SOL    HW225933   0.888   8.530   0.515 -1.5469 -1.3993  0.4705
 5242SOL     OW25934   3.993   2.312   1.092  0.4468  0.2300  0.0098
 5242SOL    HW125935   4.062   2.384   1.080  0.0404  0.9602  1.9638
 5242SOL    HW225936   4.033   2.233   1.137 -0.2601  1.1296  2.2645
 5243SOL     OW25937   2.113   3.448   1.066  0.2372 -0.3571 -0.0210
 5243SOL    HW125938   2.031   3.498   1.092  0.4215 -0.4637  0.7658
 5243SOL    HW225939   2.194   3.498   1.098  0.4448 -0.8223  0.1822
 5244SOL     OW25940   8.878   4.468   2.654 -0.4795 -0.3442  0.0875
 5244SOL    HW125941   8.874   4.390   2.591 -0.9725 -0.4642  0.2653
 5244SOL    HW225942   8.813   4.537   2.626  0.6236  0.4272 -0.6153
 5245SOL     OW25943   9.806   6.028   0.923  0.1514  0.3501 -0.5060
 5245SOL    HW125944   9.742   6.012   0.848 -1.4351 -0.7490  1.0518
 5245SOL    HW225945   9.897   6.047   0.885 -0.3881 -1.1908 -2.6774
 5246SOL     OW25946   0.355   8.346   3.299  0.5546 -0.3313 -0.3501
 5246SOL    HW125947   0.316   8.282   3.232  1.4707 -0.8164 -0.4308
 5246SOL    HW225948   0.299   8.429   3.302  0.2217 -0.5084 -1.3536
 5247SOL     OW25949   3.409   9.173   0.797  0.0768  0.4357  0.0245
 5247SOL    HW125950   3.469   9.094   0.795  1.3370  1.3632  0.4105
 5247SOL    HW225951   3.463   9.257   0.790 -1.0990  1.3180  1.0852
 5248SOL     OW25952   1.317   4.503   0.570 -0.0836  0.6235 -0.2745
 5248SOL    HW125953   1.245   4.498   0.639 -1.1599  2.3431 -1.1997
 5248SOL    HW225954   1.338   4.599   0.552  1.1811  0.1615 -1.2976
 5249SOL     OW25955   4.280   1.578   1.918  0.6446 -0.8081  0.3567
 5249SOL    HW125956   4.362   1.629   1.893  1.8516 -1.5465  2.7005
 5249SOL    HW225957   4.238   1.620   1.998 -2.0253  0.3194 -1.5701
 5250SOL     OW25958   1.940   4.165   2.747  0.1893  0.0825  0.0657
 5250SOL    HW125959   1.932   4.085   2.806  3.7018  0.3325  0.9771
 5250SOL    HW225960   1.918   4.247   2.800  0.3223  0.0399  0.1878
 5251SOL     OW25961   3.542   3.521   1.783 -0.1281 -0.3769  0.3477
 5251SOL    HW125962   3.620   3.577   1.812  0.3673 -0.5799 -0.6041
 5251SOL    HW225963   3.460   3.579   1.781  0.6629  0.7257 -2.1303
 5252SOL     OW25964   8.949   1.157   2.613  0.4854  0.1743  0.0777
 5252SOL    HW125965   8.904   1.071   2.591  1.9607 -0.3631 -0.8931
 5252SOL    HW225966   9.038   1.161   2.568  0.6640  1.9775  0.5500
 5253SOL     OW25967   1.067   7.772   0.998  0.5569  0.2243  0.2223
 5253SOL    HW125968   0.991   7.722   0.958  0.3447  0.9368 -0.2754
 5253SOL    HW225969   1.050   7.787   1.095  1.3740 -2.0793  0.7506
 5254SOL     OW25970   2.534   2.628   2.093  0.4022 -0.1402 -0.2029
 5254SOL    HW125971   2.462   2.695   2.075  0.5411 -0.3144 -1.4384
 5254SOL    HW225972   2.578   2.602   2.007 -0.0747 -2.2882  0.1719
 5255SOL     OW25973   4.015   1.909   2.496  0.6785  0.0288 -0.5893
 5255SOL    HW125974   3.921   1.935   2.519  1.7251  4.0835 -0.5396
 5255SOL    HW225975   4.041   1.827   2.547 -2.6883 -0.9293 -0.3368
 5256SOL     OW25976   0.507   3.405   0.764 -0.2864 -0.2208 -0.3269
 5256SOL    HW125977   0.408   3.415   0.755 -0.3471  0.3802  0.8521
 5256SOL    HW225978   0.527   3.321   0.815 -0.2378  0.2369  0.4156
 5257SOL     OW25979   2.656   4.502   2.043 -0.1269  0.6192 -0.1399
 5257SOL    HW125980   2.701   4.501   1.953 -1.7215 -1.1873 -0.9668
 5257SOL    HW225981   2.673   4.415   2.089  0.6000  1.5068  1.3008
 5258SOL     OW25982   8.989   5.431   0.904 -0.6038  0.3928 -0.5145
 5258SOL    HW125983   8.985   5.466   0.998  1.4968  0.9815 -0.6237
 5258SOL    HW225984   8.904   5.384   0.883 -1.6566  1.4569  1.2195
 5259SOL     OW25985   0.431   0.476   3.262  0.0540 -0.3550  0.2583
 5259SOL    HW125986   0.502   0.535   3.301 -1.5953  1.9765 -0.1924
 5259SOL    HW225987   0.449   0.462   3.165  0.1859 -0.2197  0.2625
 5260SOL     OW25988   1.853   9.048   0.971 -0.2748 -0.0817 -0.3617
 5260SOL    HW125989   1.866   9.113   0.895 -0.1878  0.1168 -0.1770
 5260SOL    HW225990   1.923   9.065   1.041  1.6066 -2.2835 -1.6267
 5261SOL     OW25991   1.860   9.808   0.612 -0.7794 -0.2415  0.7025
 5261SOL    HW125992   1.833   9.827   0.706 -0.3772 -0.3323  0.8373
 5261SOL    HW225993   1.832   9.715   0.588 -1.1739 -0.1042  0.6232
 5262SOL     OW25994   2.654   7.595   2.514  0.1524  0.3690 -0.6584
 5262SOL    HW125995   2.740   7.575   2.465  1.2519 -1.0816  1.7667
 5262SOL    HW225996   2.658   7.686   2.553  0.2185  0.6406 -1.2877
 5263SOL     OW25997   2.465   0.089   0.270 -0.0657 -0.4183 -0.2947
 5263SOL    HW125998   2.402   0.090   0.347 -1.7036  1.3093 -1.6063
 5263SOL    HW225999   2.522   0.171   0.273 -0.3805 -0.1613 -1.0948
 5264SOL     OW26000   2.796   9.304   0.150 -0.3712 -0.5493  0.0390
 5264SOL    HW126001   2.828   9.210   0.165 -1.0416 -0.8626 -0.4536
 5264SOL    HW226002   2.805   9.326   0.053 -0.1377 -0.0721  0.1700
 5265SOL     OW26003   1.451   6.125   0.685 -0.1307  0.0267 -1.0730
 5265SOL    HW126004   1.412   6.089   0.601 -0.5083  1.8890 -1.7210
 5265SOL    HW226005   1.379   6.168   0.740 -0.0594 -1.9937  0.6606
 5266SOL     OW26006   0.300   3.076   1.164 -0.1924  0.3554 -0.3051
 5266SOL    HW126007   0.386   3.038   1.199 -0.3765  0.1181 -0.1070
 5266SOL    HW226008   0.235   3.001   1.148 -1.4008  0.7877  2.3355
 5267SOL     OW26009   3.317   1.262   1.740  0.1485 -0.1978 -0.0229
 5267SOL    HW126010   3.374   1.249   1.659  0.5636 -0.3500  0.2917
 5267SOL    HW226011   3.375   1.258   1.822 -0.1531  0.6834  0.2402
 5268SOL     OW26012   1.784   8.426   2.329  0.0928 -0.0248 -0.1213
 5268SOL    HW126013   1.753   8.404   2.421  0.1311 -2.4121 -0.6534
 5268SOL    HW226014   1.755   8.354   2.266  4.1571 -0.8588 -1.1669
 5269SOL     OW26015   3.109   4.479   1.362 -0.0687  0.5917 -0.1831
 5269SOL    HW126016   3.162   4.406   1.404  0.5105  1.7257  1.1017
 5269SOL    HW226017   3.012   4.466   1.382 -0.0094 -0.0130 -0.2784
 5270SOL     OW26018   3.483   6.813   3.103 -0.2471 -0.3779 -0.1794
 5270SOL    HW126019   3.485   6.904   3.142 -0.6550 -0.5738  0.2947
 5270SOL    HW226020   3.496   6.745   3.175 -2.0126 -0.7836 -0.2401
 5271SOL     OW26021   1.991   2.141   3.255 -0.3596 -0.0721  0.1175
 5271SOL    HW126022   2.036   2.154   3.166  0.5998  0.8683  0.7362
 5271SOL    HW226023   2.025   2.058   3.298  0.2024  0.2143  0.2274
 5272SOL     OW26024   2.696   9.095   2.022 -0.1667  0.0230  0.4816
 5272SOL    HW126025   2.664   9.144   1.941  1.2908  1.0147  0.4817
 5272SOL    HW226026   2.746   9.013   1.993 -0.1983  0.0359  0.3907
 5273SOL     OW26027   9.966   2.370   0.758 -0.2181 -0.0345 -0.1365
 5273SOL    HW126028   9.999   2.342   0.848 -0.8098 -0.9982 -0.2145
 5273SOL    HW226029   9.872   2.337   0.745  0.4914 -1.4530 -1.8128
 5274SOL     OW26030   3.334   4.776   0.289 -0.0344  0.5455  0.0295
 5274SOL    HW126031   3.326   4.860   0.234  1.2496 -0.3830 -1.5964
 5274SOL    HW226032   3.255   4.717   0.271 -1.3189  1.6967  1.7295
 5275SOL     OW26033   2.563   0.278   2.345 -0.4522 -0.6651  0.6456
 5275SOL    HW126034   2.523   0.188   2.333 -1.8563  0.1202 -0.6460
 5275SOL    HW226035   2.504   0.333   2.404 -1.0708  0.3461 -0.8898
 5276SOL     OW26036   2.107   1.262   1.516  0.1819  0.8628 -0.0596
 5276SOL    HW126037   2.107   1.362   1.519 -0.3801  0.8477  0.6593
 5276SOL    HW226038   2.028   1.230   1.464 -0.2134  0.7765  0.5913
 5277SOL     OW26039   3.477   0.911   2.815  0.1452  0.2075 -0.3942
 5277SOL    HW126040   3.380   0.891   2.796 -0.2385  1.2446  0.4648
 5277SOL    HW226041   3.533   0.869   2.744 -0.9570 -0.1678 -1.0639
 5278SOL     OW26042   0.959   9.915   2.334 -0.2597 -0.4609  0.6500
 5278SOL    HW126043   0.902   9.975   2.390  0.4076  0.9737 -0.1824
 5278SOL    HW226044   1.055   9.930   2.357 -0.1209 -1.6372  0.8425
 5279SOL     OW26045   9.156   1.436   1.840 -0.1293  0.1102  0.5317
 5279SOL    HW126046   9.082   1.498   1.813 -0.7750 -0.0884  1.7917
 5279SOL    HW226047   9.236   1.454   1.784 -1.0498  0.5065 -0.6890
 5280SOL     OW26048   2.514   3.937   2.790 -0.6371 -0.3212  0.1486
 5280SOL    HW126049   2.488   4.021   2.839 -0.0087 -0.0609  0.0337
 5280SOL    HW226050   2.611   3.940   2.767 -1.3722  0.5386 -3.0583
 5281SOL     OW26051   3.582   7.722   3.118  0.3479 -1.0886  0.9308
 5281SOL    HW126052   3.604   7.702   3.214  3.4263  2.1005  0.9921
 5281SOL    HW226053   3.660   7.698   3.060 -0.7854 -1.2208 -0.5724
 5282SOL     OW26054   3.653   2.784   1.559  0.7918 -0.0156  0.0665
 5282SOL    HW126055   3.575   2.834   1.598  0.7189  0.6892 -0.9751
 5282SOL    HW226056   3.731   2.789   1.622 -0.4339 -1.9875  1.8224
 5283SOL     OW26057   8.063   2.413   1.906 -0.0085  0.0169 -0.2615
 5283SOL    HW126058   8.010   2.429   1.989 -0.1334 -0.6722 -0.1977
 5283SOL    HW226059   8.152   2.457   1.914 -0.7456  1.5789 -0.5621
 5284SOL     OW26060   2.852   6.136   1.168  0.0161 -0.5179 -0.0187
 5284SOL    HW126061   2.860   6.039   1.145 -0.4884 -0.5696  0.0337
 5284SOL    HW226062   2.906   6.189   1.102  1.0301 -0.8945  0.4898
 5285SOL     OW26063   0.844   0.887   1.468 -0.0235 -0.0532  0.4520
 5285SOL    HW126064   0.933   0.903   1.427  0.1870 -0.5205  0.7225
 5285SOL    HW226065   0.782   0.962   1.445  0.0188 -0.4208 -0.9248
 5286SOL     OW26066   0.328   2.212   1.016 -0.1840  0.6086  0.1024
 5286SOL    HW126067   0.296   2.265   0.938  1.5570  1.3969 -0.1039
 5286SOL    HW226068   0.359   2.122   0.985  0.3463  0.8580 -0.1009
 5287SOL     OW26069   0.434   5.709   1.940  0.3676 -0.0278 -0.1154
 5287SOL    HW126070   0.512   5.649   1.961 -1.5131 -1.8811  1.8118
 5287SOL    HW226071   0.349   5.661   1.961 -1.4111  1.1608 -4.2572
 5288SOL     OW26072   3.047   7.421   0.592  0.0553  0.2558 -0.1215
 5288SOL    HW126073   3.005   7.498   0.545  2.0686  0.8226 -1.0390
 5288SOL    HW226074   3.046   7.438   0.691 -1.2032  0.5783 -0.1846
 5289SOL     OW26075   4.138   8.359   3.026  0.2622  0.0529 -0.1982
 5289SOL    HW126076   4.197   8.279   3.015  0.1799 -0.1790  0.9383
 5289SOL    HW226077   4.122   8.375   3.124 -0.9950  0.5106 -0.4650
 5290SOL     OW26078   9.112   4.664   3.141 -0.6209 -0.1550 -0.6516
 5290SOL    HW126079   9.102   4.568   3.167  0.5852 -0.1384 -0.0827
 5290SOL    HW226080   9.025   4.699   3.108 -1.4878 -0.9824  0.7008
 5291SOL     OW26081   3.846   9.980   0.817 -0.1565 -0.8748 -0.0094
 5291SOL    HW126082   3.825  10.006   0.723  0.4169  1.1477  0.4172
 5291SOL    HW226083   3.763   9.987   0.873  0.4308  2.0387  0.5402
 5292SOL     OW26084   0.751   2.884   2.033 -0.1844  0.2428  0.4049
 5292SOL    HW126085   0.710   2.931   1.956  0.8511  0.8649  0.2341
 5292SOL    HW226086   0.679   2.842   2.089 -0.8172 -2.0952 -2.0856
 5293SOL     OW26087   8.327   3.462   3.405  0.0026  0.2331  0.0805
 5293SOL    HW126088   8.273   3.488   3.325 -0.7573 -1.3255  0.0572
 5293SOL    HW226089   8.416   3.428   3.375 -0.0282  0.2768 -0.0638
 5294SOL     OW26090   8.713   2.892   1.090 -0.5288 -0.5920 -0.2397
 5294SOL    HW126091   8.764   2.809   1.111 -1.1392 -1.6222 -2.6308
 5294SOL    HW226092   8.691   2.940   1.175  3.5165 -0.6131  0.9138
 5295SOL     OW26093   0.903   4.475   1.754 -0.1747 -0.3512 -0.8350
 5295SOL    HW126094   0.887   4.573   1.764 -1.2506 -0.5438 -0.6453
 5295SOL    HW226095   1.002   4.457   1.756  0.0578  0.8112 -1.7070
 5296SOL     OW26096   4.014   8.731   3.390  0.2556 -0.8069  0.2964
 5296SOL    HW126097   4.026   8.828   3.408  1.3605 -0.6716 -1.1043
 5296SOL    HW226098   4.101   8.683   3.404  0.0349 -1.3814 -0.2513
 5297SOL     OW26099   9.842   2.717   1.108  0.0014  0.5139  0.2567
 5297SOL    HW126100   9.831   2.618   1.103 -0.3120  0.5169  0.8168
 5297SOL    HW226101   9.754   2.759   1.130 -0.3621  1.1008 -2.1861
 5298SOL     OW26102   2.791   2.232   2.247 -0.2132  0.3799  0.0325
 5298SOL    HW126103   2.740   2.208   2.330  0.0707 -0.3784 -0.0108
 5298SOL    HW226104   2.877   2.182   2.245 -1.2339 -1.3926 -1.8460
 5299SOL     OW26105   7.614   1.490   0.023 -0.2215  0.0757 -0.4171
 5299SOL    HW126106   7.602   1.392   0.038 -1.4191  0.3565  0.5055
 5299SOL    HW226107   7.568   1.541   0.095  0.2267  1.3286 -1.0005
 5300SOL     OW26108   7.829   1.708   2.393 -0.5791 -0.3340 -0.0287
 5300SOL    HW126109   7.880   1.716   2.308 -0.5095  0.6552  0.0943
 5300SOL    HW226110   7.882   1.655   2.459 -1.6105 -3.0476 -1.3341
 5301SOL     OW26111   3.733   7.571   1.554  0.0788 -0.1590 -0.0501
 5301SOL    HW126112   3.669   7.606   1.623 -0.5380 -1.6955  0.1715
 5301SOL    HW226113   3.777   7.488   1.588 -0.1578 -0.8763 -1.4610
 5302SOL     OW26114   2.073   2.713   3.323  0.4606 -0.1799  0.0290
 5302SOL    HW126115   2.011   2.716   3.401  2.0711 -0.8834  1.3507
 5302SOL    HW226116   2.167   2.705   3.355  1.4641  3.0813 -1.8681
 5303SOL     OW26117   0.663   7.595   2.980  0.4251  0.1665  0.3192
 5303SOL    HW126118   0.587   7.578   2.918  0.3198 -0.3392  0.5787
 5303SOL    HW226119   0.737   7.641   2.931 -0.1323  0.8635  0.1185
 5304SOL     OW26120   4.078   8.173   0.033 -0.0056  0.3258  0.0237
 5304SOL    HW126121   4.049   8.091  -0.015 -0.7484  1.0569 -0.7858
 5304SOL    HW226122   4.055   8.166   0.130  0.8684 -0.8546  0.1553
 5305SOL     OW26123   2.181   9.223   1.370 -0.6623 -0.0341  0.4794
 5305SOL    HW126124   2.142   9.145   1.420  0.0080 -1.4556 -1.1704
 5305SOL    HW226125   2.151   9.308   1.414 -0.5199 -1.2129  2.9721
 5306SOL     OW26126   2.510   5.978   2.438 -0.9506  0.6008  0.6097
 5306SOL    HW126127   2.465   5.937   2.517 -1.7261 -2.3695 -1.2505
 5306SOL    HW226128   2.446   6.038   2.390 -0.9822  1.1746  1.3767
 5307SOL     OW26129   0.177   8.960   1.828  0.1816 -0.1033  0.0765
 5307SOL    HW126130   0.250   8.929   1.767 -0.2395 -0.0983 -0.4272
 5307SOL    HW226131   0.214   9.027   1.892  0.5385  0.1646 -0.4099
 5308SOL     OW26132   3.628   3.259   1.139 -0.2393 -0.0144 -0.0474
 5308SOL    HW126133   3.547   3.201   1.127 -0.7567  0.8184 -0.6361
 5308SOL    HW226134   3.671   3.274   1.050 -0.6109  1.2200 -0.0205
 5309SOL     OW26135   4.610   0.164   2.443 -0.0117 -0.5067 -0.3051
 5309SOL    HW126136   4.597   0.095   2.514  2.0067 -1.5000 -0.8443
 5309SOL    HW226137   4.672   0.235   2.476 -0.6784  0.1033 -0.3654
 5310SOL     OW26138   1.204   8.865   0.710  0.4270  0.0330  0.4901
 5310SOL    HW126139   1.271   8.868   0.783 -0.3598 -1.2854  1.2764
 5310SOL    HW226140   1.216   8.782   0.655  0.3917  0.5275 -0.2808
 5311SOL     OW26141   4.550   3.592   0.889 -0.1079  0.4447  0.5622
 5311SOL    HW126142   4.475   3.549   0.839  1.5202 -0.4139 -1.2275
 5311SOL    HW226143   4.582   3.672   0.838  1.3516 -0.2427  0.3810
 5312SOL     OW26144   1.876   0.399   0.985 -0.4228  0.0700  0.3652
 5312SOL    HW126145   1.785   0.357   0.994 -0.6921  0.4020 -0.8035
 5312SOL    HW226146   1.877   0.484   1.038 -0.7366 -0.0246  0.5290
 5313SOL     OW26147   3.187   1.640   2.740  0.1604 -0.6126  0.3216
 5313SOL    HW126148   3.197   1.556   2.688 -0.5327 -0.2854 -0.3443
 5313SOL    HW226149   3.251   1.639   2.817 -0.2385 -1.9919  0.6557
 5314SOL     OW26150   2.672   5.560   0.189  0.1815 -0.3754 -0.0528
 5314SOL    HW126151   2.697   5.554   0.286  0.7516 -0.3893 -0.1998
 5314SOL    HW226152   2.593   5.501   0.172 -0.7181  0.5996  0.6600
 5315SOL     OW26153   3.326   5.594   2.429 -0.5807 -0.2437  0.2742
 5315SOL    HW126154   3.257   5.583   2.500 -2.1126  1.8460 -0.8576
 5315SOL    HW226155   3.392   5.663   2.457 -0.3195 -0.5046  0.3071
 5316SOL     OW26156   3.495   3.932   2.463 -0.7295  0.4736  0.4073
 5316SOL    HW126157   3.531   3.841   2.443  0.5087  1.1632 -0.5174
 5316SOL    HW226158   3.438   3.927   2.545  0.4545 -0.8674  1.1825
 5317SOL     OW26159   9.590   4.275   3.380 -0.3546 -0.1811 -0.9856
 5317SOL    HW126160   9.644   4.302   3.460 -1.0832 -3.9996  0.9221
 5317SOL    HW226161   9.648   4.275   3.299  0.5898  3.0359 -0.3653
 5318SOL     OW26162   2.738   3.808   1.969 -0.6578 -0.3682 -0.1657
 5318SOL    HW126163   2.718   3.854   1.884 -0.0239 -0.3112 -0.2889
 5318SOL    HW226164   2.830   3.833   2.000 -0.9530 -0.2459  0.6237
 5319SOL     OW26165   2.521   9.414   3.272 -0.1791 -0.0941  0.1878
 5319SOL    HW126166   2.529   9.391   3.175  0.3169 -1.1815  0.4759
 5319SOL    HW226167   2.611   9.406   3.316 -0.3174  0.8146  0.6481
 5320SOL     OW26168   7.653   0.540   0.110  0.1839 -0.2164  0.3241
 5320SOL    HW126169   7.620   0.594   0.188  0.4409  1.2316 -0.5414
 5320SOL    HW226170   7.751   0.526   0.119  0.6483  1.9594 -0.8684
 5321SOL     OW26171   2.969   3.134   2.917  0.3019 -0.5173  0.1499
 5321SOL    HW126172   2.888   3.088   2.880 -0.2747  0.3356  0.3460
 5321SOL    HW226173   2.996   3.208   2.855 -0.3982  0.6245  1.1877
 5322SOL     OW26174   3.609   4.090   2.270  0.3003 -0.3578 -0.6299
 5322SOL    HW126175   3.580   4.013   2.326  0.9701 -1.1002 -1.2896
 5322SOL    HW226176   3.685   4.137   2.315 -0.0457 -0.1367 -0.2736
 5323SOL     OW26177   0.739   1.901   1.439  0.0240  0.1606  0.4028
 5323SOL    HW126178   0.795   1.838   1.492 -1.1281 -0.1520  1.2695
 5323SOL    HW226179   0.712   1.857   1.354 -1.4026 -0.8229  1.3380
 5324SOL     OW26180   2.804   2.938   1.581  0.4480 -0.2969  0.4365
 5324SOL    HW126181   2.773   2.951   1.675 -0.0583 -0.0857  0.2444
 5324SOL    HW226182   2.732   2.966   1.518  1.1482  0.5369 -0.0236
 5325SOL     OW26183   4.179   1.631   0.726  0.2827  0.2401 -0.0781
 5325SOL    HW126184   4.196   1.672   0.636  0.1067 -0.1111 -0.2695
 5325SOL    HW226185   4.226   1.685   0.795 -0.6369  1.2695 -0.2364
 5326SOL     OW26186   0.173   9.436   0.191 -1.0390 -0.0159  0.3367
 5326SOL    HW126187   0.238   9.412   0.263  2.3843 -0.7258 -2.8366
 5326SOL    HW226188   0.193   9.527   0.156 -1.3485 -0.4730 -1.0781
 5327SOL     OW26189   9.356   1.624   2.658 -0.1223  0.5019 -0.2472
 5327SOL    HW126190   9.309   1.693   2.603 -0.9403  1.5014  1.6481
 5327SOL    HW226191   9.400   1.557   2.598  2.6117  3.8835 -2.1714
 5328SOL     OW26192   1.639   2.876   1.270 -0.1522  0.2022 -0.4729
 5328SOL    HW126193   1.558   2.817   1.276  0.1711 -0.2226 -0.2157
 5328SOL    HW226194   1.618   2.956   1.214 -0.6009 -0.1575 -0.8238
 5329SOL     OW26195   2.936   8.402   2.075  0.3376  0.0306  0.0040
 5329SOL    HW126196   2.848   8.370   2.109  0.4038 -0.1357  0.0186
 5329SOL    HW226197   2.967   8.479   2.130  0.1786  0.1198 -0.0301
 5330SOL     OW26198   2.679   0.573   2.975 -0.0704 -0.1563  0.3442
 5330SOL    HW126199   2.766   0.528   2.952  0.8544  0.7571  1.9176
 5330SOL    HW226200   2.645   0.537   3.062  0.2908  1.5914  1.2418
 5331SOL     OW26201   9.002   5.041   0.806  0.2658  0.2605  0.0716
 5331SOL    HW126202   9.026   5.091   0.723 -1.0638 -0.5322 -0.7992
 5331SOL    HW226203   8.946   5.100   0.865 -0.2094  0.2496 -0.3636
 5332SOL     OW26204   2.523   0.694   2.225 -0.0681  0.2410 -0.1510
 5332SOL    HW126205   2.467   0.611   2.221 -0.9356  0.7339  1.2543
 5332SOL    HW226206   2.508   0.739   2.313  0.8425  1.5858 -0.6762
 5333SOL     OW26207   2.860   6.899   0.173  0.0896 -0.5284  0.0406
 5333SOL    HW126208   2.832   6.878   0.267  0.8294  1.2560  0.6744
 5333SOL    HW226209   2.956   6.927   0.173 -0.1112  0.1576 -1.1563
 5334SOL     OW26210   1.803   3.956   2.264 -0.3516 -0.2703  0.6798
 5334SOL    HW126211   1.874   3.916   2.323  1.7611 -0.4607 -1.8794
 5334SOL    HW226212   1.728   3.891   2.254 -0.5735 -0.3684  2.8568
 5335SOL     OW26213   1.998   2.699   0.924 -0.7576  0.4668  0.6834
 5335SOL    HW126214   2.075   2.674   0.864 -0.8803  0.8208  0.3790
 5335SOL    HW226215   1.938   2.762   0.876 -0.2282  1.6930  1.6104
 5336SOL     OW26216   0.618   0.742   0.887  0.3937  0.0886 -0.5072
 5336SOL    HW126217   0.717   0.729   0.881  0.3889  0.2610 -1.0524
 5336SOL    HW226218   0.594   0.782   0.975  0.7198 -0.7457 -0.0383
 5337SOL     OW26219   0.362   6.923   2.373 -0.4981 -0.0040  0.2579
 5337SOL    HW126220   0.269   6.892   2.390 -0.8749  1.1464  0.3542
 5337SOL    HW226221   0.411   6.854   2.319 -1.8462  0.0051 -1.0147
 5338SOL     OW26222   9.706   0.854   3.181 -0.2730  0.3058 -0.2953
 5338SOL    HW126223   9.755   0.888   3.101 -0.7404  0.4411 -0.5290
 5338SOL    HW226224   9.626   0.912   3.197 -0.9256 -0.5255 -0.5310
 5339SOL     OW26225   3.906   7.648   3.384  0.1600 -0.0133  0.6447
 5339SOL    HW126226   3.813   7.664   3.417 -0.2929 -0.5839 -0.3364
 5339SOL    HW226227   3.903   7.615   3.290  1.4074  1.1166  0.1865
 5340SOL     OW26228   8.232   1.713   0.835  0.3736 -0.0961  0.3962
 5340SOL    HW126229   8.149   1.697   0.888  0.0950  0.1425  0.0353
 5340SOL    HW226230   8.240   1.810   0.814 -1.0347 -0.5242 -2.4373
 5341SOL     OW26231   8.769   1.840   3.280 -0.0108 -0.0473 -0.2627
 5341SOL    HW126232   8.804   1.758   3.324  1.9594  0.4545 -0.8252
 5341SOL    HW226233   8.749   1.820   3.184 -2.4769 -0.6450  0.3483
 5342SOL     OW26234   0.363   1.173   2.006 -0.1644 -0.1403  0.4303
 5342SOL    HW126235   0.436   1.115   1.969 -0.3885 -0.7952  1.0194
 5342SOL    HW226236   0.325   1.132   2.088 -2.1629 -0.5216 -0.6468
 5343SOL     OW26237   0.247   1.307   2.985 -0.2314  0.4881 -0.4521
 5343SOL    HW126238   0.339   1.277   3.006 -0.7629 -1.0381 -0.2430
 5343SOL    HW226239   0.246   1.407   2.974  1.4210  0.5179 -0.4539
 5344SOL     OW26240   0.842   7.949   0.552  0.1468 -0.0229 -0.6104
 5344SOL    HW126241   0.928   7.960   0.602  0.4504 -1.6130 -0.7561
 5344SOL    HW226242   0.774   7.906   0.612 -1.2085  3.0567  0.1591
 5345SOL     OW26243   0.702   9.565   3.307  0.3778 -0.0698  0.2181
 5345SOL    HW126244   0.682   9.517   3.393  0.7573  1.0288  0.9239
 5345SOL    HW226245   0.685   9.662   3.319 -1.0801 -0.1056 -1.4248
 5346SOL     OW26246   1.595   7.633   1.859  0.0613 -0.2787 -0.0218
 5346SOL    HW126247   1.529   7.702   1.828  0.5330  0.2039  0.0442
 5346SOL    HW226248   1.565   7.597   1.948 -0.5187 -0.6120 -0.3491
 5347SOL     OW26249   1.119   7.396   0.901  0.4164 -0.1357 -0.0419
 5347SOL    HW126250   1.159   7.435   0.819  0.2961 -0.8634 -0.4528
 5347SOL    HW226251   1.020   7.392   0.891  0.3823 -0.0031  0.2374
 5348SOL     OW26252   0.338   9.276   0.690  0.0694 -0.0012 -0.2025
 5348SOL    HW126253   0.265   9.340   0.710 -0.0054  0.2755 -1.3244
 5348SOL    HW226254   0.311   9.218   0.613  0.2078 -1.2584  0.6789
 5349SOL     OW26255   3.418   7.715   2.773 -0.2907 -0.1583 -0.5315
 5349SOL    HW126256   3.501   7.665   2.797 -0.2705 -0.6867 -1.6503
 5349SOL    HW226257   3.375   7.671   2.694  0.0105  1.8785 -1.8829
 5350SOL     OW26258   0.434   1.429   2.713  0.3671 -0.2185 -0.4203
 5350SOL    HW126259   0.494   1.501   2.679  0.3458 -0.0153 -0.0253
 5350SOL    HW226260   0.439   1.425   2.812 -0.1540 -0.3078 -0.3944
 5351SOL     OW26261   0.745   4.612   1.514  0.3740 -0.0338 -0.2302
 5351SOL    HW126262   0.802   4.667   1.575  0.2445 -1.5600  1.2916
 5351SOL    HW226263   0.657   4.659   1.500  0.5044  0.4531  0.5526
 5352SOL     OW26264   2.493   1.611   0.834 -0.0258  0.0509 -0.1504
 5352SOL    HW126265   2.448   1.692   0.870  1.2842  0.9536 -0.5004
 5352SOL    HW226266   2.449   1.584   0.748 -2.0524 -1.0961  1.1999
 5353SOL     OW26267   9.723   0.640   1.783  0.7006 -0.1143 -0.1126
 5353SOL    HW126268   9.821   0.642   1.763  0.4326  0.9681 -1.3891
 5353SOL    HW226269   9.709   0.643   1.882  1.9509 -0.2687  0.0772
 5354SOL     OW26270   2.913   5.802   1.740  0.4203 -0.4534 -0.0965
 5354SOL    HW126271   2.948   5.808   1.647  1.3289  2.3498  0.3902
 5354SOL    HW226272   2.988   5.785   1.803  0.2028  0.4811  0.4181
 5355SOL     OW26273   1.428   4.594   1.608 -0.1699  0.3184  0.0081
 5355SOL    HW126274   1.423   4.511   1.553  1.3092  0.1550  0.1051
 5355SOL    HW226275   1.431   4.674   1.549 -0.3175  0.2353 -0.1113
 5356SOL     OW26276   3.421   9.472   2.221 -0.5477 -0.3688 -0.0812
 5356SOL    HW126277   3.385   9.566   2.224 -0.1544 -0.2226  0.0933
 5356SOL    HW226278   3.352   9.412   2.181  0.2684  0.4641 -2.8007
 5357SOL     OW26279   3.775   3.357   1.506  0.2358 -0.7865  0.0965
 5357SOL    HW126280   3.799   3.271   1.461  1.6908 -0.6384  0.5694
 5357SOL    HW226281   3.740   3.337   1.598 -0.4969 -0.9402 -0.2138
 5358SOL     OW26282   1.571   9.562   1.283  0.5253  0.4945 -0.1181
 5358SOL    HW126283   1.612   9.654   1.284 -0.9997  1.1942 -0.6576
 5358SOL    HW226284   1.634   9.499   1.237  0.9810  1.5755 -1.0321
 5359SOL     OW26285   9.218   0.384   2.535 -0.5724  0.3862 -0.2411
 5359SOL    HW126286   9.286   0.356   2.602  0.3920  0.0347 -1.3489
 5359SOL    HW226287   9.142   0.431   2.581 -0.2083 -0.3783  1.1419
 5360SOL     OW26288   1.243   8.148   0.283 -0.0901 -0.4557  0.5483
 5360SOL    HW126289   1.275   8.130   0.190 -0.2868  0.7897  0.2311
 5360SOL    HW226290   1.143   8.148   0.285 -0.0890  0.4890  0.5667
 5361SOL     OW26291   7.890   2.126   2.047 -0.3352 -0.2739  0.2889
 5361SOL    HW126292   7.877   2.086   1.956 -0.2410 -2.1394  1.0738
 5361SOL    HW226293   7.988   2.142   2.062 -0.4432  1.0692 -0.3459
 5362SOL     OW26294   1.093   0.160   2.455 -0.3231  0.1549 -0.1522
 5362SOL    HW126295   0.994   0.145   2.452 -0.3254  0.1043  0.1304
 5362SOL    HW226296   1.112   0.256   2.434 -0.3627 -0.0607 -1.1750
 5363SOL     OW26297   1.343   2.181   1.767  0.3860 -1.1239 -0.0089
 5363SOL    HW126298   1.292   2.095   1.771 -0.6572 -0.5137  0.0376
 5363SOL    HW226299   1.313   2.233   1.688  0.1116 -0.2517  0.6643
 5364SOL     OW26300   3.017   9.552   0.163  0.0165  0.0005 -0.6224
 5364SOL    HW126301   3.066   9.523   0.245  0.9236 -0.5432 -1.3408
 5364SOL    HW226302   2.941   9.612   0.188  0.6189  0.2727  0.5616
 5365SOL     OW26303   3.372   4.062   1.787  0.0879 -0.5157 -0.1311
 5365SOL    HW126304   3.328   4.144   1.825  1.7416  1.2368 -1.8578
 5365SOL    HW226305   3.471   4.076   1.785  0.3205 -2.2133 -1.2937
 5366SOL     OW26306   9.391   2.110   1.679 -0.2305 -0.4235 -0.1947
 5366SOL    HW126307   9.465   2.045   1.694  0.4490 -0.0174 -1.6890
 5366SOL    HW226308   9.373   2.161   1.763 -1.6488 -3.4292  1.3850
 5367SOL     OW26309   3.177   2.848   0.047 -0.2972 -1.2065 -0.0765
 5367SOL    HW126310   3.143   2.918   0.110  0.9769 -1.7596  1.2689
 5367SOL    HW226311   3.117   2.843  -0.033  0.0495  2.0127 -0.6173
 5368SOL     OW26312   2.243   0.249   2.629 -0.8413  0.2891 -0.5597
 5368SOL    HW126313   2.191   0.253   2.714  0.9806 -2.7340  0.7617
 5368SOL    HW226314   2.212   0.172   2.574 -1.7535  1.9994 -2.5106
 5369SOL     OW26315   9.416   5.241   3.137 -0.1509  0.3437  0.3274
 5369SOL    HW126316   9.446   5.255   3.232 -0.4846  1.4650  0.2856
 5369SOL    HW226317   9.496   5.232   3.078  0.1251  2.1465  0.3797
 5370SOL     OW26318   9.533   2.788   2.816  0.1784  0.4036  0.1321
 5370SOL    HW126319   9.589   2.866   2.787 -0.9456  1.4340  0.6545
 5370SOL    HW226320   9.557   2.762   2.909 -0.7287  1.3609  0.6488
 5371SOL     OW26321   7.474   0.744   1.820 -0.1675  0.1968  0.0941
 5371SOL    HW126322   7.554   0.692   1.850  0.4183  1.1634  0.2421
 5371SOL    HW226323   7.490   0.842   1.836 -1.3189  0.4137 -0.0098
 5372SOL     OW26324   9.753   9.439   0.808 -0.4246 -0.7109  0.0676
 5372SOL    HW126325   9.654   9.446   0.797 -0.6868 -1.2260  1.9066
 5372SOL    HW226326   9.799   9.487   0.733 -2.0658  0.5440 -0.1576
 5373SOL     OW26327   1.509   8.732   3.001 -0.2082 -0.2760 -0.4713
 5373SOL    HW126328   1.555   8.737   2.912  0.0024  0.9280 -0.3093
 5373SOL    HW226329   1.531   8.814   3.054 -2.5982  0.3874 -0.4261
 5374SOL     OW26330   0.506   4.429   1.066  0.7959  0.3692 -0.1279
 5374SOL    HW126331   0.508   4.348   1.125  0.1358 -0.3680 -1.0874
 5374SOL    HW226332   0.476   4.508   1.118 -1.4550 -0.6180  0.1455
 5375SOL     OW26333   4.616   0.038   2.852  0.2023 -0.2400 -0.0281
 5375SOL    HW126334   4.704   0.048   2.807  0.8838  2.5250  1.7832
 5375SOL    HW226335   4.623  -0.031   2.925  0.8234 -0.1250  0.0187
 5376SOL     OW26336   3.529   3.077   3.295 -0.4562 -0.0503 -0.1920
 5376SOL    HW126337   3.432   3.063   3.275 -0.6560  0.2338  0.5433
 5376SOL    HW226338   3.567   3.145   3.233 -0.1314 -1.8894 -2.0580
 5377SOL     OW26339   1.779   3.960   3.181  0.3006 -0.2263 -0.3118
 5377SOL    HW126340   1.716   3.924   3.249  1.0269  0.5316  0.7693
 5377SOL    HW226341   1.759   4.057   3.166  0.3605 -0.3091 -0.9356
 5378SOL     OW26342   3.039   3.044   1.628  0.6332  0.0607  0.0798
 5378SOL    HW126343   3.063   3.123   1.571  0.4663  0.6285  0.7934
 5378SOL    HW226344   2.971   2.988   1.580 -0.4562  1.2126  0.2318
 5379SOL     OW26345   1.220   6.945   0.019 -0.3030  0.1601  0.2845
 5379SOL    HW126346   1.285   6.872  -0.000 -2.0479 -0.8531 -1.9902
 5379SOL    HW226347   1.178   6.929   0.109  1.6368  0.1609  1.2207
 5380SOL     OW26348   3.150   1.511   0.806  0.1184  0.0192 -0.5379
 5380SOL    HW126349   3.150   1.439   0.874  0.5227  0.5807  0.0558
 5380SOL    HW226350   3.206   1.588   0.837  0.2395  0.3117 -1.4602
 5381SOL     OW26351   2.338   2.076   0.499 -0.1065  0.5437 -0.4335
 5381SOL    HW126352   2.262   2.109   0.555 -0.0653 -0.5243  0.2554
 5381SOL    HW226353   2.343   1.977   0.504  1.1353  0.5852 -0.7487
 5382SOL     OW26354   4.183   0.053   0.629 -0.2513  0.1626 -0.0870
 5382SOL    HW126355   4.160   0.027   0.723 -1.0006 -1.0551 -0.5889
 5382SOL    HW226356   4.279   0.079   0.624 -0.0107 -0.5028  0.8706
 5383SOL     OW26357   9.928   7.091   1.383 -0.0028  0.4616  0.6911
 5383SOL    HW126358   9.960   6.998   1.365 -0.5676  0.6396 -1.2993
 5383SOL    HW226359   9.976   7.155   1.324 -2.1172  1.0260 -0.4732
 5384SOL     OW26360   2.961   5.460   2.982 -0.3164 -0.0143  0.0201
 5384SOL    HW126361   3.043   5.489   2.933 -1.2123 -0.0198 -1.5193
 5384SOL    HW226362   2.915   5.540   3.020  1.1575 -0.1466  2.1176
 5385SOL     OW26363   1.953   3.848   1.285 -0.0903 -0.2165  0.4491
 5385SOL    HW126364   1.958   3.911   1.208  0.0595  3.0253  3.0354
 5385SOL    HW226365   2.028   3.866   1.348 -1.9540 -0.7242  2.8957
 5386SOL     OW26366   4.349   9.981   2.517  0.1692  0.1009  0.2576
 5386SOL    HW126367   4.353   9.890   2.559  2.1213 -0.1183 -0.3911
 5386SOL    HW226368   4.367   9.973   2.419  0.3800  1.1944  0.2081
 5387SOL     OW26369   2.821   7.085   0.522  0.1590 -0.4882 -0.2123
 5387SOL    HW126370   2.729   7.103   0.488  0.4955  0.7205 -0.5237
 5387SOL    HW226371   2.817   7.022   0.599 -0.8889 -0.7882 -0.5105
 5388SOL     OW26372   3.819   4.631   0.427  0.2808 -0.3084 -0.4765
 5388SOL    HW126373   3.779   4.640   0.336 -0.0781 -1.1006 -0.3997
 5388SOL    HW226374   3.834   4.722   0.466 -0.6977  0.0071 -0.8299
 5389SOL     OW26375   9.917   2.153   2.649  0.0372  0.3029 -0.0650
 5389SOL    HW126376   9.918   2.178   2.552 -0.0416 -1.4294 -0.5454
 5389SOL    HW226377   9.925   2.053   2.657 -0.6809  0.3645  1.6894
 5390SOL     OW26378   4.573   2.196   1.633 -0.0702 -0.5033 -0.2779
 5390SOL    HW126379   4.581   2.276   1.693  0.2369 -2.3002  2.1704
 5390SOL    HW226380   4.504   2.134   1.670  0.7722 -2.0680 -1.2733
 5391SOL     OW26381   1.393   1.996   0.894  0.5522  0.3839 -0.2521
 5391SOL    HW126382   1.329   1.986   0.971  0.2177 -0.4448 -0.6230
 5391SOL    HW226383   1.348   2.045   0.820  1.1719  1.9631  0.4140
 5392SOL     OW26384   3.066   7.902   1.825 -0.8080 -0.0254  0.4321
 5392SOL    HW126385   3.047   7.999   1.839 -4.4541 -0.2155 -2.3002
 5392SOL    HW226386   3.029   7.849   1.901 -0.8849  0.5535  0.7993
 5393SOL     OW26387   2.483   8.945   0.314 -0.1835 -0.4044 -0.7152
 5393SOL    HW126388   2.521   9.030   0.278  1.7705 -0.5941  0.8041
 5393SOL    HW226389   2.541   8.868   0.285 -1.4603 -1.1363 -1.3762
 5394SOL     OW26390   0.480   0.423   2.395 -0.0535  0.0714  0.0573
 5394SOL    HW126391   0.447   0.329   2.381  1.9775 -0.5972 -0.3089
 5394SOL    HW226392   0.490   0.440   2.493 -0.2773 -0.1301  0.1167
 5395SOL     OW26393   7.943   2.887   1.542 -0.4573  0.1617  0.2739
 5395SOL    HW126394   7.914   2.977   1.575 -0.7238  0.2648 -0.2393
 5395SOL    HW226395   8.040   2.874   1.561 -0.2188  0.8945 -0.3896
 5396SOL     OW26396   8.537   0.805   1.689 -0.0199  0.6889  0.2821
 5396SOL    HW126397   8.537   0.821   1.590  0.3090 -0.1148  0.1486
 5396SOL    HW226398   8.446   0.823   1.725 -0.5953 -0.6227 -0.4511
 5397SOL     OW26399   9.841   2.631   1.797  0.1362  0.1820 -0.2054
 5397SOL    HW126400   9.805   2.558   1.855  0.6443 -0.1788 -0.3415
 5397SOL    HW226401   9.766   2.689   1.767 -0.0159  0.9547  1.6130
 5398SOL     OW26402   1.963   9.624   1.414  0.2118 -0.5491 -0.3132
 5398SOL    HW126403   1.960   9.602   1.317  0.4934 -0.1207 -0.4223
 5398SOL    HW226404   1.890   9.688   1.436  0.0088 -0.8219 -0.1982
 5399SOL     OW26405   4.055   8.164   1.913  0.1907  0.1309 -0.3344
 5399SOL    HW126406   4.117   8.090   1.937  0.2458 -0.1600 -1.3494
 5399SOL    HW226407   4.000   8.137   1.833  2.4296  2.3768 -2.7164
 5400SOL     OW26408   1.848   5.143   2.046  0.5691  0.3814  0.0569
 5400SOL    HW126409   1.911   5.145   1.969 -0.1466  0.2890 -0.5407
 5400SOL    HW226410   1.755   5.163   2.014 -0.0134 -1.3259  0.6320
 5401SOL     OW26411   1.119   6.964   2.532 -0.2387  0.3296  0.9389
 5401SOL    HW126412   1.060   7.045   2.533 -0.5181  0.1269  0.8171
 5401SOL    HW226413   1.073   6.889   2.486  0.6772  0.5837 -0.4146
 5402SOL     OW26414   0.988   0.276   0.018 -0.2111 -0.4747  0.2226
 5402SOL    HW126415   1.069   0.230   0.055  0.7989  1.2879  0.2335
 5402SOL    HW226416   1.016   0.347  -0.046 -1.8152 -0.7781 -0.8555
 5403SOL     OW26417   5.886   8.876   1.803  0.5842 -0.1038 -0.1241
 5403SOL    HW126418   5.981   8.890   1.777  0.6346  0.0659  0.1432
 5403SOL    HW226419   5.879   8.869   1.903  0.3220 -0.1447 -0.1429
 5404SOL     OW26420   9.125   2.430   3.017 -0.6379  0.4255 -0.0650
 5404SOL    HW126421   9.117   2.404   3.113 -3.3275  2.7383  0.4091
 5404SOL    HW226422   9.171   2.519   3.010 -1.0037  0.5650 -0.8280
 5405SOL     OW26423   1.559   4.292   0.588 -0.0636  0.5136  0.3196
 5405SOL    HW126424   1.480   4.342   0.623 -0.3833  0.4482 -0.3130
 5405SOL    HW226425   1.614   4.354   0.532  0.6108  0.7011  1.1706
 5406SOL     OW26426   1.462   9.712   2.387  0.4568  0.3494 -0.0000
 5406SOL    HW126427   1.431   9.687   2.479  0.4019  0.4218  0.0016
 5406SOL    HW226428   1.560   9.693   2.378  0.5008  0.5137  0.1338
 5407SOL     OW26429   7.608   0.313   2.247 -0.0137 -0.0850 -0.9161
 5407SOL    HW126430   7.619   0.257   2.329 -2.3023  0.1094 -0.4188
 5407SOL    HW226431   7.668   0.392   2.252  0.1167 -0.2576  0.4088
 5408SOL     OW26432   3.515   6.627   3.311  0.3144  0.0281  0.0754
 5408SOL    HW126433   3.568   6.542   3.299  1.1142  0.5437 -0.0781
 5408SOL    HW226434   3.428   6.606   3.355  0.6816 -0.8235  0.4004
 5409SOL     OW26435   1.165   3.930   2.746  0.1675 -0.6660 -0.3379
 5409SOL    HW126436   1.255   3.959   2.717  0.2626 -0.8416 -0.2227
 5409SOL    HW226437   1.121   3.879   2.672  1.3977 -3.2777  0.6686
 5410SOL     OW26438   1.047   2.325   1.551 -0.2382  0.0520  0.1793
 5410SOL    HW126439   1.123   2.266   1.524 -0.5072 -0.3575  0.3025
 5410SOL    HW226440   0.987   2.340   1.473 -1.5685 -1.9670  0.7579
 5411SOL     OW26441   8.361   3.012   1.768  0.2405 -0.3670  0.1554
 5411SOL    HW126442   8.446   3.001   1.820 -0.1870  0.4604  1.0358
 5411SOL    HW226443   8.283   3.009   1.830 -0.2765  0.6751 -0.4202
 5412SOL     OW26444   9.995   9.912   2.378  0.4477 -0.6509 -0.5645
 5412SOL    HW126445   9.980   9.962   2.294 -0.7935 -0.0893 -0.0158
 5412SOL    HW226446   9.907   9.887   2.419  1.0320 -0.9571  0.5308
 5413SOL     OW26447   2.384   1.242   0.662 -0.1052 -0.0046 -0.2620
 5413SOL    HW126448   2.347   1.156   0.697 -1.4030 -0.0849 -1.7743
 5413SOL    HW226449   2.484   1.238   0.666 -0.1514 -1.4740 -0.0598
 5414SOL     OW26450   4.459   3.186   2.490  0.0602 -0.1437  0.5121
 5414SOL    HW126451   4.436   3.283   2.490 -2.6913 -0.7471 -1.1042
 5414SOL    HW226452   4.538   3.171   2.430  0.0067  0.9801  0.1514
 5415SOL     OW26453   0.503   8.038   3.145  0.3625  0.2704 -0.2943
 5415SOL    HW126454   0.469   7.949   3.175  0.4440  0.5714  0.7236
 5415SOL    HW226455   0.427   8.103   3.145  0.8818  0.9251  1.8986
 5416SOL     OW26456   3.240   8.664   2.020  0.4790 -0.0936  0.3782
 5416SOL    HW126457   3.304   8.593   1.990 -0.3194 -0.1750 -1.2115
 5416SOL    HW226458   3.278   8.754   1.999  0.1799 -0.1365 -0.3652
 5417SOL     OW26459   0.102   1.739   1.015 -0.2331  0.0759 -0.2560
 5417SOL    HW126460   0.053   1.812   1.063 -0.8021 -0.3984 -0.1046
 5417SOL    HW226461   0.042   1.659   1.007  0.6985 -0.6962  0.3891
 5418SOL     OW26462   4.111   0.334   0.628  0.2027 -0.3219 -0.3485
 5418SOL    HW126463   4.089   0.350   0.725  1.1427  0.8922 -0.3198
 5418SOL    HW226464   4.051   0.263   0.592 -1.5849  0.6769  0.5603
 5419SOL     OW26465   2.861   8.777   0.021  0.1832  0.0042 -0.1061
 5419SOL    HW126466   2.791   8.733  -0.035 -0.5077 -0.5107  1.1246
 5419SOL    HW226467   2.937   8.712   0.036 -0.6650 -0.6685  1.3993
 5420SOL     OW26468   0.439   1.036   3.348  0.0452 -0.1915 -0.7882
 5420SOL    HW126469   0.448   1.130   3.381  0.8278 -0.1125 -1.2103
 5420SOL    HW226470   0.343   1.008   3.350 -0.2422  0.7791 -1.1175
 5421SOL     OW26471   0.895   0.996   0.542 -0.2650  0.3670 -0.2239
 5421SOL    HW126472   0.799   1.016   0.524 -0.8337 -1.5666  0.5404
 5421SOL    HW226473   0.947   1.082   0.546 -2.0663  1.4662  0.0810
 5422SOL     OW26474   0.290   5.252   0.783  0.7750 -0.1477 -0.1103
 5422SOL    HW126475   0.253   5.295   0.865  0.8914  0.9011 -0.5981
 5422SOL    HW226476   0.254   5.298   0.702 -0.1951 -1.8746 -0.6802
 5423SOL     OW26477   2.647   3.861   3.194 -0.2121 -0.4431  0.3384
 5423SOL    HW126478   2.703   3.885   3.115 -0.0980  1.7189  1.0466
 5423SOL    HW226479   2.702   3.810   3.260  0.4456  0.1368  0.2436
 5424SOL     OW26480   3.399   0.687   1.548 -0.7873 -0.0723 -0.0506
 5424SOL    HW126481   3.419   0.593   1.520  1.4881  0.9375 -2.0267
 5424SOL    HW226482   3.317   0.719   1.501 -0.4618 -0.4170 -0.8568
 5425SOL     OW26483   1.361   4.989   3.246  0.4207  0.2990  0.2452
 5425SOL    HW126484   1.338   4.895   3.270 -0.9671  0.1238 -1.7050
 5425SOL    HW226485   1.460   5.001   3.253  0.5362 -1.0776  1.2532
 5426SOL     OW26486   9.782   6.244   1.198 -0.1831 -0.2076  0.0361
 5426SOL    HW126487   9.787   6.174   1.127 -1.2439 -1.1743  0.8885
 5426SOL    HW226488   9.690   6.283   1.201 -0.1898 -0.2699  0.9540
 5427SOL     OW26489   2.346   9.424   1.873  0.8214 -0.5047  0.3769
 5427SOL    HW126490   2.254   9.430   1.833  1.6891  2.0068 -1.3378
 5427SOL    HW226491   2.404   9.368   1.813  0.9720 -0.3119  0.3435
 5428SOL     OW26492   3.673   8.299   1.946  0.0052 -0.3022  0.0861
 5428SOL    HW126493   3.745   8.354   1.987  1.5568 -1.2011 -1.3664
 5428SOL    HW226494   3.661   8.214   1.997 -1.9300  1.0177  1.9297
 5429SOL     OW26495   2.000   6.965   2.770  0.7426  0.4819  0.0350
 5429SOL    HW126496   2.079   6.904   2.772  1.3288  1.2524  0.9902
 5429SOL    HW226497   1.994   7.009   2.680  0.1771 -1.1382 -0.7361
 5430SOL     OW26498   1.657   0.532   2.572 -0.7391 -0.0604  1.0909
 5430SOL    HW126499   1.619   0.442   2.593 -2.8220  0.9432  1.7874
 5430SOL    HW226500   1.658   0.545   2.473 -1.7198 -0.3331  1.0371
 5431SOL     OW26501   4.218   2.668   0.833  0.3254 -0.0015  0.3953
 5431SOL    HW126502   4.291   2.689   0.768 -0.2332 -0.7824 -0.5159
 5431SOL    HW226503   4.241   2.585   0.884  0.1218 -0.1965  0.1725
 5432SOL     OW26504   0.221   3.886   1.605 -0.6668 -0.2877  0.5720
 5432SOL    HW126505   0.301   3.902   1.663 -0.5505  1.2181  0.0215
 5432SOL    HW226506   0.237   3.925   1.514 -0.1564 -4.1266 -1.0582
 5433SOL     OW26507   2.052   7.710   0.123 -0.3150 -0.0151  0.1016
 5433SOL    HW126508   2.114   7.637   0.151 -1.4682 -1.1643 -0.2799
 5433SOL    HW226509   1.961   7.693   0.161 -1.3483 -0.4060 -2.4477
 5434SOL     OW26510   8.138   3.571   1.532  0.1151  0.2473 -0.2651
 5434SOL    HW126511   8.226   3.523   1.542  1.1565  2.0325 -0.7176
 5434SOL    HW226512   8.131   3.641   1.603 -0.5184  0.7691 -0.8471
 5435SOL     OW26513   2.223   8.110   2.897 -0.3777 -0.7182 -0.1847
 5435SOL    HW126514   2.307   8.160   2.917 -0.1513 -1.4075  0.6339
 5435SOL    HW226515   2.147   8.147   2.951 -0.3351 -0.8775 -0.0149
 5436SOL     OW26516   8.551   3.780   3.081 -0.0574 -0.1095  0.6728
 5436SOL    HW126517   8.467   3.800   3.131 -0.2894  1.5279 -0.3415
 5436SOL    HW226518   8.560   3.843   3.004  1.7634 -0.6878  0.3856
 5437SOL     OW26519   1.922   5.750   3.359 -0.3260  0.6970 -0.1451
 5437SOL    HW126520   1.958   5.835   3.396 -0.6756  0.7565  0.0646
 5437SOL    HW226521   1.997   5.689   3.334 -0.0840  0.8608  0.1850
 5438SOL     OW26522   2.176   6.903   0.896 -0.2626  0.4609 -0.0091
 5438SOL    HW126523   2.271   6.875   0.911 -0.3858 -0.6817 -1.2082
 5438SOL    HW226524   2.114   6.835   0.934 -0.6243  1.3675  1.0632
 5439SOL     OW26525   0.284   0.785   0.054  0.4555  0.1611  0.0285
 5439SOL    HW126526   0.286   0.687   0.033  0.4241 -0.3021  2.0562
 5439SOL    HW226527   0.233   0.833  -0.016  0.9600 -1.1954 -1.2989
 5440SOL     OW26528   1.939   0.936   2.538  0.2657  0.3539 -0.6326
 5440SOL    HW126529   1.845   0.907   2.558  0.0769  1.5058  0.1817
 5440SOL    HW226530   1.941   1.034   2.523  1.3501  0.3266 -0.6604
 5441SOL     OW26531   2.328   8.592   2.847 -0.2388 -0.3511 -0.4077
 5441SOL    HW126532   2.414   8.559   2.807 -0.6843 -1.8026 -0.2115
 5441SOL    HW226533   2.346   8.634   2.935  0.2530 -0.8401 -0.2700
 5442SOL     OW26534   8.904   0.535   2.027 -0.4014 -0.4131  0.5010
 5442SOL    HW126535   8.943   0.625   2.046  0.3752 -1.3161  3.3216
 5442SOL    HW226536   8.805   0.544   2.013 -0.2474  0.9404  0.2311
 5443SOL     OW26537   9.463   4.846   3.384 -0.1371  0.1931  0.3265
 5443SOL    HW126538   9.508   4.879   3.467  0.1242 -0.5097  0.4767
 5443SOL    HW226539   9.379   4.896   3.369  0.2497  0.9116  0.5454
 5444SOL     OW26540   1.621   0.218   1.319  0.0821 -0.3933  0.1799
 5444SOL    HW126541   1.720   0.211   1.305 -0.1226 -0.3766 -1.4159
 5444SOL    HW226542   1.603   0.279   1.396  1.3155 -0.3243  0.4324
 5445SOL     OW26543   9.949   5.124   1.651  0.0531  0.6627 -0.3152
 5445SOL    HW126544   9.966   5.215   1.614 -1.8806  1.0801 -0.2124
 5445SOL    HW226545   9.955   5.127   1.751  0.0793  0.6457 -0.3161
 5446SOL     OW26546   1.486   5.652   3.259  0.2687  0.4568  0.1717
 5446SOL    HW126547   1.408   5.646   3.320 -0.1611 -0.2240 -0.4408
 5446SOL    HW226548   1.547   5.575   3.275 -0.9247 -0.9175 -1.7269
 5447SOL     OW26549   3.185   7.748   2.967  0.4944 -0.3173  0.3648
 5447SOL    HW126550   3.112   7.679   2.973 -0.5587  0.6266 -1.3975
 5447SOL    HW226551   3.245   7.726   2.890  0.0358  0.8301 -0.3273
 5448SOL     OW26552   1.525   9.946   1.256  0.5142 -0.1011  0.0715
 5448SOL    HW126553   1.480   9.942   1.167  0.2010  0.3305  0.2095
 5448SOL    HW226554   1.559  10.038   1.273 -1.1474  0.3428  1.2256
 5449SOL     OW26555   0.849   9.385   1.134  0.2191  0.1559  0.5847
 5449SOL    HW126556   0.756   9.420   1.128  0.8598  1.4290 -3.0007
 5449SOL    HW226557   0.908   9.453   1.177  0.2196  0.9689 -0.6682
 5450SOL     OW26558   1.284   3.950   0.102  0.4154 -0.2911  0.6623
 5450SOL    HW126559   1.217   3.914   0.037  0.8717  0.2387 -0.1235
 5450SOL    HW226560   1.243   3.957   0.193 -0.5186 -0.1854  0.2363
 5451SOL     OW26561   2.349   1.661   3.231 -0.6390  0.6329  0.0130
 5451SOL    HW126562   2.424   1.724   3.253 -0.9151  0.6973  0.7989
 5451SOL    HW226563   2.321   1.613   3.314  0.4796 -1.5445 -0.8293
 5452SOL     OW26564   0.322   5.084   1.805 -0.3823 -0.2881  0.4496
 5452SOL    HW126565   0.419   5.108   1.820  0.8702 -3.6011 -1.9065
 5452SOL    HW226566   0.285   5.141   1.732  0.5461 -0.7938 -0.4219
 5453SOL     OW26567   1.046   5.587   0.813  0.0712 -0.1155  0.3623
 5453SOL    HW126568   1.077   5.493   0.828 -0.0593  0.0728  1.8908
 5453SOL    HW226569   0.969   5.587   0.749 -0.8382 -1.1995  1.4359
 5454SOL     OW26570   0.296   0.252   2.891 -0.1515  0.7476  0.6059
 5454SOL    HW126571   0.350   0.180   2.846  1.8088  1.9373  0.9788
 5454SOL    HW226572   0.221   0.210   2.942 -1.8069 -0.7102 -2.8381
 5455SOL     OW26573   2.189   5.032   0.908  0.2886  0.3205 -0.0478
 5455SOL    HW126574   2.260   5.056   0.841 -1.4741 -1.0857 -2.5177
 5455SOL    HW226575   2.118   5.103   0.908  0.7456  0.7823  1.0263
 5456SOL     OW26576   2.124   7.845   2.163 -0.2485  0.2019 -0.3254
 5456SOL    HW126577   2.101   7.915   2.096  0.9749  1.2015  0.2976
 5456SOL    HW226578   2.046   7.832   2.225 -1.3089 -0.5791 -1.7714
 5457SOL     OW26579   2.901   0.104   2.737  0.1456  0.0537 -0.3016
 5457SOL    HW126580   2.942   0.058   2.658 -0.4422 -1.2227  0.1259
 5457SOL    HW226581   2.930   0.058   2.821 -0.8858  0.1203  0.0958
 5458SOL     OW26582   0.269   5.843   2.886 -0.5136  0.6065  0.2572
 5458SOL    HW126583   0.189   5.797   2.847  1.1266 -0.3951 -2.0492
 5458SOL    HW226584   0.282   5.815   2.981 -1.9138 -0.5228  0.1177
 5459SOL     OW26585   7.722   3.118   0.916  0.7517 -0.3045 -0.2507
 5459SOL    HW126586   7.716   3.030   0.867 -1.6299  0.5040 -1.4582
 5459SOL    HW226587   7.633   3.141   0.954  2.1855 -0.0653  3.0757
 5460SOL     OW26588   9.614   0.093   1.599  0.3939 -0.2334 -0.5196
 5460SOL    HW126589   9.664   0.022   1.648 -0.2364 -0.1049  0.3190
 5460SOL    HW226590   9.539   0.051   1.547 -0.7572 -0.0626  0.9706
 5461SOL     OW26591   2.999   3.880   2.055 -0.2988 -0.0615  0.0305
 5461SOL    HW126592   3.031   3.960   2.005  2.4292 -0.2827  1.3228
 5461SOL    HW226593   3.070   3.809   2.053 -1.5831 -1.4041  1.2034
 5462SOL     OW26594   0.203   2.965   1.837 -0.1663 -0.3253  0.0861
 5462SOL    HW126595   0.131   2.984   1.903 -1.1709 -0.7681 -0.8569
 5462SOL    HW226596   0.250   3.050   1.812 -1.4888  0.2286 -0.5495
 5463SOL     OW26597   2.954   4.394   0.878 -0.2270  0.8318 -0.1743
 5463SOL    HW126598   2.974   4.296   0.879 -4.5055 -0.1623  0.8006
 5463SOL    HW226599   3.026   4.443   0.927  0.6089 -2.1414  1.7544
 5464SOL     OW26600   8.495   2.377   2.193  0.1472 -0.2522  1.2250
 5464SOL    HW126601   8.539   2.331   2.116 -2.5895  0.3142 -0.7424
 5464SOL    HW226602   8.552   2.453   2.223  0.5985  0.4160 -1.1957
 5465SOL     OW26603   3.640   3.790   1.811  0.0486  0.2530  0.5089
 5465SOL    HW126604   3.640   3.871   1.869 -5.0514  1.1837 -0.5646
 5465SOL    HW226605   3.675   3.813   1.720 -0.6006  1.0999  0.4662
 5466SOL     OW26606   0.398   6.180   0.185  0.2774  0.2099 -0.0393
 5466SOL    HW126607   0.309   6.173   0.140 -0.6543  0.7758  1.6843
 5466SOL    HW226608   0.389   6.153   0.281  2.6784 -3.2130 -0.6858
 5467SOL     OW26609   1.267   2.107   0.669  0.7090 -0.3035 -0.4365
 5467SOL    HW126610   1.255   2.196   0.714 -1.0814 -1.1141  0.7420
 5467SOL    HW226611   1.285   2.122   0.571  0.2764  1.3525 -0.2802
 5468SOL     OW26612   2.109   1.755   2.086  0.2124 -0.5528  0.2476
 5468SOL    HW126613   2.069   1.747   2.177 -0.7563 -1.5421 -0.2594
 5468SOL    HW226614   2.056   1.820   2.031  0.8072  0.0591  0.3828
 5469SOL     OW26615   3.070   9.806   1.573 -0.2971  0.0951  0.3877
 5469SOL    HW126616   3.050   9.897   1.538 -1.3130  0.1064  0.9790
 5469SOL    HW226617   2.995   9.775   1.632  1.5000  0.1862  2.8081
 5470SOL     OW26618   1.919   1.657   1.196 -0.3936 -0.0166 -0.1957
 5470SOL    HW126619   1.899   1.627   1.102  0.5315 -0.8216 -0.1431
 5470SOL    HW226620   2.017   1.653   1.212 -0.4355  1.3303  0.4150
 5471SOL     OW26621   2.067   9.524   2.050  0.0529  0.4671 -0.0470
 5471SOL    HW126622   2.160   9.499   2.078  0.8139  0.8016 -2.1871
 5471SOL    HW226623   2.059   9.514   1.951 -1.9126  1.3975  0.0101
 5472SOL     OW26624   7.744   2.787   1.409  0.3222 -0.5480 -0.2820
 5472SOL    HW126625   7.829   2.826   1.445  0.0983 -0.7436  0.4828
 5472SOL    HW226626   7.693   2.746   1.485 -1.5280  1.5728 -0.3468
 5473SOL     OW26627   3.159   2.600   2.668  0.0980  0.3580 -0.4799
 5473SOL    HW126628   3.087   2.533   2.689  0.3987  0.3262  0.5011
 5473SOL    HW226629   3.245   2.570   2.712  0.3415  1.1549 -0.4132
 5474SOL     OW26630   2.362   4.846   3.361  0.2086 -0.1190  0.1022
 5474SOL    HW126631   2.395   4.937   3.335 -1.7909  0.9338  1.1455
 5474SOL    HW226632   2.305   4.810   3.287 -0.6571  0.3555  0.5311
 5475SOL     OW26633   8.792   3.301   0.934 -0.2010  0.1352  0.4963
 5475SOL    HW126634   8.764   3.393   0.959 -1.7315  0.1232 -1.0784
 5475SOL    HW226635   8.716   3.237   0.947  0.7138 -0.8382  1.1906
 5476SOL     OW26636   9.614   3.174   1.144 -0.1047 -0.0987  0.7150
 5476SOL    HW126637   9.618   3.086   1.098  0.2169 -0.4129  1.3468
 5476SOL    HW226638   9.559   3.238   1.089 -0.0060 -0.5689  0.0671
 5477SOL     OW26639   1.257   5.849   1.389  0.2151 -0.2545  0.0374
 5477SOL    HW126640   1.223   5.763   1.427 -0.8080 -0.1394 -0.6243
 5477SOL    HW226641   1.319   5.829   1.313  0.4356 -0.4209  0.2598
 5478SOL     OW26642   9.638   4.115   1.539  0.2767  0.1129 -0.5796
 5478SOL    HW126643   9.634   4.100   1.638 -0.5322  1.6097 -0.3735
 5478SOL    HW226644   9.714   4.063   1.501  0.3453 -0.8066  0.7668
 5479SOL     OW26645   3.367   1.451   3.219  0.0378 -0.5353 -0.4381
 5479SOL    HW126646   3.331   1.383   3.155 -1.6381  1.0713 -1.2510
 5479SOL    HW226647   3.294   1.479   3.282  0.6738  0.5208 -0.1554
 5480SOL     OW26648   1.278   8.150   0.941 -0.4876 -0.0927 -0.5101
 5480SOL    HW126649   1.239   8.234   0.902 -1.6113  0.2083  1.1645
 5480SOL    HW226650   1.373   8.167   0.969 -1.3272  1.2661  1.6580
 5481SOL     OW26651   0.981   6.691   3.404  0.5133  0.1187 -0.0473
 5481SOL    HW126652   1.038   6.621   3.446 -0.3163 -1.3515 -1.2998
 5481SOL    HW226653   0.918   6.728   3.472  0.7909 -0.5215  0.5647
 5482SOL     OW26654   3.334   4.037   0.484  0.2553  0.6844 -0.1613
 5482SOL    HW126655   3.275   4.114   0.460 -1.5704 -0.0998  1.7325
 5482SOL    HW226656   3.343   3.977   0.405  0.5305  2.0653 -1.2138
 5483SOL     OW26657   8.732   4.055   0.176 -0.2790  0.3343  0.1261
 5483SOL    HW126658   8.812   4.114   0.169  0.9116 -1.1785  0.7782
 5483SOL    HW226659   8.749   3.970   0.126 -1.4620 -0.0248  0.3193
 5484SOL     OW26660   0.783   6.513   0.547  0.4196  0.4149  0.2424
 5484SOL    HW126661   0.739   6.424   0.552 -0.4846  0.8274 -0.2040
 5484SOL    HW226662   0.883   6.502   0.550  0.3118 -0.6072  0.1115
 5485SOL     OW26663   1.744   0.720   1.708  0.0104  0.1285 -0.0407
 5485SOL    HW126664   1.645   0.708   1.704 -0.1347  0.5465  1.9291
 5485SOL    HW226665   1.765   0.814   1.733  0.8900 -0.2734  0.7402
 5486SOL     OW26666   8.871   4.795   2.614 -0.5320  0.1730 -0.5106
 5486SOL    HW126667   8.829   4.759   2.530  0.8350 -0.2728 -1.0255
 5486SOL    HW226668   8.962   4.830   2.592  0.2713 -0.9479  0.9865
 5487SOL     OW26669   8.596   0.596   2.014  0.1648  0.0517 -0.4385
 5487SOL    HW126670   8.566   0.522   1.955 -1.9257  0.3086  0.2563
 5487SOL    HW226671   8.536   0.675   2.001  1.1267  0.9230  0.3165
 5488SOL     OW26672   9.229   1.139   2.580  0.1593 -0.3168 -0.7112
 5488SOL    HW126673   9.266   1.205   2.515 -1.3891 -0.1484 -1.4345
 5488SOL    HW226674   9.249   1.170   2.673 -0.5540  1.1758 -1.0449
 5489SOL     OW26675   3.271   7.130   0.069  0.2288  0.4601  0.3109
 5489SOL    HW126676   3.203   7.183   0.018 -0.2824 -0.0023  0.5051
 5489SOL    HW226677   3.321   7.190   0.131  0.3260  0.8885 -0.1789
 5490SOL     OW26678   9.304   1.545   3.208 -0.3680  0.4215  0.1441
 5490SOL    HW126679   9.209   1.513   3.208  0.2547 -1.5122 -0.8682
 5490SOL    HW226680   9.318   1.607   3.130 -0.3654 -0.6695 -0.7318
 5491SOL     OW26681   2.198   1.156   3.225 -0.1906  0.7552  0.5626
 5491SOL    HW126682   2.297   1.140   3.231 -0.1789 -0.0609 -1.3446
 5491SOL    HW226683   2.178   1.208   3.142 -1.2193  2.3680  1.7831
 5492SOL     OW26684   2.887   1.081   0.678 -0.5450 -0.2410 -0.7262
 5492SOL    HW126685   2.937   1.139   0.614  0.4953 -1.3853 -0.9862
 5492SOL    HW226686   2.952   1.021   0.725 -1.3135  0.5014  1.3156
 5493SOL     OW26687   0.748   9.235   2.807  0.3280 -0.8785  0.3746
 5493SOL    HW126688   0.685   9.293   2.755  0.9718 -0.6454 -0.1507
 5493SOL    HW226689   0.800   9.292   2.871  2.6907 -0.4881 -1.8324
 5494SOL     OW26690   9.402   1.053   1.699  0.6756 -0.6890  0.3527
 5494SOL    HW126691   9.354   0.982   1.750  0.0050 -0.9417 -0.6210
 5494SOL    HW226692   9.387   1.142   1.743  0.7452 -1.0126  1.0340
 5495SOL     OW26693   0.665   6.034   3.038  0.4745  0.5728  0.7412
 5495SOL    HW126694   0.747   6.083   3.069  1.3126 -0.0443 -0.4485
 5495SOL    HW226695   0.627   6.080   2.958  0.3497  0.1762  0.5712
 5496SOL     OW26696   9.531   2.526   0.413 -0.3405  0.0608  0.1221
 5496SOL    HW126697   9.553   2.458   0.343  1.5107  1.0185 -0.2551
 5496SOL    HW226698   9.563   2.493   0.502  1.6105  0.9078 -0.2368
 5497SOL     OW26699   0.061   5.138   1.022  0.8816  0.3105  0.6516
 5497SOL    HW126700   0.152   5.112   1.054  1.3279 -0.1149 -0.8880
 5497SOL    HW226701   0.007   5.057   1.001  0.9965  0.5550 -0.6849
 5498SOL     OW26702   4.188   3.346   3.289 -1.1644 -0.0396  0.6090
 5498SOL    HW126703   4.181   3.426   3.349  0.1255 -0.3099  1.1388
 5498SOL    HW226704   4.200   3.264   3.345 -1.7724 -0.5202  0.0397
 5499SOL     OW26705   2.897   2.923   2.106  0.0022 -0.1016 -0.1583
 5499SOL    HW126706   2.930   2.839   2.063  1.6737  0.1208  0.6681
 5499SOL    HW226707   2.956   2.947   2.183 -0.8489  1.4726  0.0292
 5500SOL     OW26708   9.722   2.259   2.115  0.4253 -0.0169  0.2587
 5500SOL    HW126709   9.723   2.262   2.215 -0.4389 -0.6566  0.2947
 5500SOL    HW226710   9.755   2.170   2.084 -1.8574 -0.8302  0.0656
 5501SOL     OW26711   4.315   2.204   2.140 -0.0439  0.4218 -0.1355
 5501SOL    HW126712   4.305   2.174   2.235  2.3085  0.2175  0.0682
 5501SOL    HW226713   4.255   2.150   2.081  1.5323 -2.3278  0.6880
 5502SOL     OW26714   3.134   2.932   2.944 -0.0742 -0.0726  0.0974
 5502SOL    HW126715   3.091   3.022   2.948  1.5594  0.7066  0.4732
 5502SOL    HW226716   3.125   2.895   2.851 -1.6193  0.0161  0.1896
 5503SOL     OW26717   2.682   8.779   0.258  0.1888 -0.2586 -0.0300
 5503SOL    HW126718   2.746   8.717   0.303  2.1439  0.0629 -2.2410
 5503SOL    HW226719   2.718   8.804   0.168 -2.4019  1.0532 -0.7579
 5504SOL     OW26720   2.267   6.154   1.037 -0.5786 -0.3674 -0.1062
 5504SOL    HW126721   2.225   6.129   0.950  0.3100 -0.1830 -0.5940
 5504SOL    HW226722   2.350   6.206   1.019 -0.4499 -0.2441  0.8609
 5505SOL     OW26723   3.881   3.620   1.796  0.0850 -0.0936 -0.1048
 5505SOL    HW126724   3.853   3.628   1.701  1.4669 -0.6200 -0.5671
 5505SOL    HW226725   3.842   3.696   1.849 -1.3138 -0.2314 -0.9179
 5506SOL     OW26726   3.672   8.935   1.302 -0.2063 -0.8460  0.3659
 5506SOL    HW126727   3.640   8.915   1.395  0.3593 -0.6238  0.6133
 5506SOL    HW226728   3.745   8.871   1.278  0.7836  0.1393  0.7060
 5507SOL     OW26729   0.093   1.356   0.005 -0.5298  0.2193  0.1635
 5507SOL    HW126730   0.102   1.452   0.030  1.9332 -0.1547  0.8118
 5507SOL    HW226731   0.038   1.308   0.074 -1.1600  1.0038  0.2084
 5508SOL     OW26732   1.373   0.300   2.210 -0.7744  0.6851 -0.0185
 5508SOL    HW126733   1.402   0.211   2.174 -0.3837  0.9510 -0.3528
 5508SOL    HW226734   1.289   0.328   2.163  0.8496  1.9966 -2.2043
 5509SOL     OW26735   2.409   1.541   1.433  0.3350 -0.5080  0.2519
 5509SOL    HW126736   2.343   1.608   1.466  0.6559 -0.0691  0.0091
 5509SOL    HW226737   2.467   1.512   1.509  0.2402 -0.4620  0.3428
 5510SOL     OW26738   9.374   2.991   1.859 -0.2256 -1.0489 -0.0672
 5510SOL    HW126739   9.398   3.085   1.835  0.4152 -1.2554 -0.2495
 5510SOL    HW226740   9.277   2.986   1.884  0.1480  0.0046  1.7219
 5511SOL     OW26741   9.233   3.034   0.067 -0.0064 -0.0830 -0.3746
 5511SOL    HW126742   9.162   3.003   0.130 -0.5863 -1.8180 -1.8360
 5511SOL    HW226743   9.308   2.968   0.066  0.9114  0.9388 -0.0259
 5512SOL     OW26744   9.913   7.760   0.271 -0.5859  0.0961 -0.1089
 5512SOL    HW126745   9.854   7.828   0.313 -1.7977 -0.2119 -1.2761
 5512SOL    HW226746  10.007   7.774   0.301 -1.1762  0.8304  1.4742
 5513SOL     OW26747   1.449   0.557   1.681 -0.2913 -0.8361 -0.1244
 5513SOL    HW126748   1.410   0.648   1.696  0.9519 -0.2419 -0.3694
 5513SOL    HW226749   1.376   0.490   1.669 -1.2260  0.3371 -1.1026
 5514SOL     OW26750   0.031   0.314   1.283 -0.0282 -0.2396 -0.2531
 5514SOL    HW126751   0.070   0.226   1.254  1.2707 -0.0486  0.8677
 5514SOL    HW226752  -0.065   0.301   1.308  0.8629 -1.9488  2.5218
 5515SOL     OW26753   1.107   9.056   3.126 -0.1562 -0.5345  0.3714
 5515SOL    HW126754   1.170   8.995   3.174 -0.3506 -1.6258 -0.7091
 5515SOL    HW226755   1.084   9.016   3.037 -0.8206  0.8092 -0.0755
 5516SOL     OW26756   9.925   4.977   3.342 -0.2166 -0.2226 -0.1887
 5516SOL    HW126757   9.852   5.039   3.314  1.7599  1.6729 -1.2490
 5516SOL    HW226758   9.917   4.892   3.290 -0.1164  0.9816 -2.2228
 5517SOL     OW26759   1.923   2.613   1.176  0.5192  0.5143 -0.2081
 5517SOL    HW126760   1.889   2.524   1.147  0.2550  0.9586 -1.2906
 5517SOL    HW226761   1.969   2.658   1.099 -0.6522  1.9336 -0.1133
 5518SOL     OW26762   4.016   1.006   1.218  0.3089  0.1389  0.0196
 5518SOL    HW126763   4.077   1.079   1.187  0.7635  0.6008  1.9773
 5518SOL    HW226764   4.066   0.944   1.278 -1.0911  0.4058  1.4832
 5519SOL     OW26765   0.783   6.558   2.166  0.1513  0.6023 -0.2564
 5519SOL    HW126766   0.857   6.560   2.233  0.8558 -1.0930 -0.9742
 5519SOL    HW226767   0.784   6.643   2.112  2.0490  0.2524 -0.7840
 5520SOL     OW26768   1.064   0.852   3.336  0.2349  0.0148  0.3065
 5520SOL    HW126769   1.152   0.805   3.334  1.0462  1.5057  0.4319
 5520SOL    HW226770   1.032   0.860   3.430 -0.2348 -0.8658  0.2304
 5521SOL     OW26771   9.898   4.090   0.786  0.1743  0.1576  0.4133
 5521SOL    HW126772   9.971   4.157   0.792  0.7861 -0.5243  0.5955
 5521SOL    HW226773   9.881   4.068   0.689  0.2223  0.2986  0.3723
 5522SOL     OW26774   1.532   6.351   1.025  0.0548  0.4149 -0.4795
 5522SOL    HW126775   1.558   6.328   1.119 -0.0181 -0.4937 -0.6781
 5522SOL    HW226776   1.467   6.427   1.026 -0.2386  0.1612  0.2286
 5523SOL     OW26777   3.533   0.089   0.513 -0.1372  0.8619  0.0000
 5523SOL    HW126778   3.504   0.108   0.419 -0.5846 -1.2641 -0.3182
 5523SOL    HW226779   3.525  -0.009   0.531  1.3365  1.0522  1.8005
 5524SOL     OW26780   0.620   5.544   0.320 -0.4178 -0.0942 -0.1077
 5524SOL    HW126781   0.696   5.567   0.258 -0.7481  0.6153 -0.2529
 5524SOL    HW226782   0.538   5.526   0.266 -0.2828 -1.1710  0.0321
 5525SOL     OW26783   0.209   8.409   2.957 -0.2188  0.3606 -0.7989
 5525SOL    HW126784   0.192   8.333   3.020  2.0678 -0.7228 -1.4213
 5525SOL    HW226785   0.287   8.462   2.989  1.3592 -0.5557 -2.9538
 5526SOL     OW26786   0.781   9.716   2.897  0.2195  0.2585 -0.5527
 5526SOL    HW126787   0.724   9.634   2.897 -1.2081  1.2310 -1.7065
 5526SOL    HW226788   0.729   9.793   2.932  1.7442  0.5942  1.0860
 5527SOL     OW26789   2.727   3.312   0.145 -0.0625 -0.3970 -0.1928
 5527SOL    HW126790   2.776   3.313   0.232 -0.8476  2.2665  0.2616
 5527SOL    HW226791   2.754   3.390   0.090 -0.7018 -1.2230 -1.7116
 5528SOL     OW26792   9.483   2.435   2.993  0.2973  0.2404 -0.2523
 5528SOL    HW126793   9.513   2.507   3.056  0.8187  0.2623 -0.5289
 5528SOL    HW226794   9.386   2.450   2.970  0.7196  1.5561 -1.2651
 5529SOL     OW26795   4.046   9.666   1.846 -0.3769  0.5846  0.0400
 5529SOL    HW126796   3.962   9.716   1.869 -0.8429  0.3839 -1.1709
 5529SOL    HW226797   4.125   9.724   1.862 -0.7694  0.9352  0.7522
 5530SOL     OW26798   9.064   1.374   0.859 -0.7934  0.3118  0.0196
 5530SOL    HW126799   9.161   1.379   0.836 -0.7243  1.0662  0.4328
 5530SOL    HW226800   9.022   1.464   0.844 -1.2373  0.2125  0.6572
 5531SOL     OW26801   2.090   1.366   2.629 -0.6766  0.1129  0.0945
 5531SOL    HW126802   2.108   1.462   2.651 -0.8385  0.1439  0.0935
 5531SOL    HW226803   2.139   1.308   2.694 -2.4618  0.2277  1.5700
 5532SOL     OW26804   2.619   3.968   0.229 -0.4473  0.7121  0.0260
 5532SOL    HW126805   2.523   3.946   0.214 -0.0298 -0.8198 -0.5433
 5532SOL    HW226806   2.639   3.967   0.327 -0.1652 -2.9323  0.0064
 5533SOL     OW26807   7.703   4.632   0.179  0.0369 -0.1939 -0.5015
 5533SOL    HW126808   7.771   4.671   0.117  1.4023 -1.6740  0.0329
 5533SOL    HW226809   7.714   4.671   0.271  0.3601 -0.6467 -0.3458
 5534SOL     OW26810   1.102   0.778   1.452  0.0791 -0.6214 -0.1010
 5534SOL    HW126811   1.111   0.768   1.353 -0.7759 -1.2085 -0.1179
 5534SOL    HW226812   1.064   0.695   1.491 -1.0938  0.1939  0.5284
 5535SOL     OW26813   2.552   8.889   2.539  0.8464 -0.4652  0.1214
 5535SOL    HW126814   2.634   8.922   2.586  1.6265 -2.0468 -0.0934
 5535SOL    HW226815   2.563   8.902   2.440  0.4018  0.2550  0.1630
 5536SOL     OW26816   3.394   0.452   0.486 -0.4383 -0.1832 -0.5195
 5536SOL    HW126817   3.420   0.548   0.499  3.5749 -1.3444  0.6678
 5536SOL    HW226818   3.396   0.430   0.389 -0.5571  0.7276 -0.7318
 5537SOL     OW26819   0.362   9.863   2.068  0.4746  0.2421  0.2740
 5537SOL    HW126820   0.435   9.809   2.111 -0.0217 -1.1430 -0.5969
 5537SOL    HW226821   0.390   9.889   1.976  0.9916  2.0763  0.9317
 5538SOL     OW26822   9.867   9.369   1.666  0.3561 -0.3725 -0.1479
 5538SOL    HW126823   9.909   9.438   1.725  1.6224  1.2523 -2.8565
 5538SOL    HW226824   9.937   9.321   1.615 -0.7226 -1.8191 -0.3035
 5539SOL     OW26825   0.278   1.026   0.823 -0.6090 -0.5266 -0.1789
 5539SOL    HW126826   0.325   1.105   0.863 -1.4885 -0.3632  0.5397
 5539SOL    HW226827   0.201   0.999   0.881 -1.2442 -0.9634 -1.1984
 5540SOL     OW26828   1.134   6.885   0.285 -0.1885 -0.3331 -0.1003
 5540SOL    HW126829   1.066   6.828   0.331  0.9789 -0.5311  1.4103
 5540SOL    HW226830   1.105   6.980   0.287 -0.3664 -0.4056  0.6384
 5541SOL     OW26831   8.890   0.217   1.099  0.1491  0.1543  0.2371
 5541SOL    HW126832   8.976   0.181   1.135  0.3059  0.5299  0.2428
 5541SOL    HW226833   8.814   0.178   1.151  0.4550  2.1980  2.3025
 5542SOL     OW26834   7.160   0.295   2.234  0.0399  0.0014  0.5418
 5542SOL    HW126835   7.068   0.314   2.201 -0.6270 -0.4325  2.1028
 5542SOL    HW226836   7.155   0.238   2.317  1.6948  0.0728  0.7106
 5543SOL     OW26837   2.276   7.393   2.471  0.2394 -0.2424  0.2101
 5543SOL    HW126838   2.231   7.454   2.405 -0.7577 -1.2795 -0.0833
 5543SOL    HW226839   2.354   7.348   2.428  0.3640  0.0506  0.1268
 5544SOL     OW26840   1.100   4.891   1.490 -0.8159 -0.3021  0.2392
 5544SOL    HW126841   1.135   4.827   1.559 -0.6126 -1.4804 -0.9290
 5544SOL    HW226842   1.129   4.861   1.400  0.1084  1.9883 -0.2738
 5545SOL     OW26843   1.661   6.632   1.050 -0.1391  0.7896 -0.3389
 5545SOL    HW126844   1.691   6.550   1.000 -1.7900  0.6005 -1.0541
 5545SOL    HW226845   1.562   6.629   1.062 -0.1009  2.2659  0.4118
 5546SOL     OW26846   1.023   3.682   2.300  0.1685 -0.1075  0.4898
 5546SOL    HW126847   1.086   3.660   2.225 -0.4908 -1.3480  0.2925
 5546SOL    HW226848   0.929   3.661   2.272 -0.1202 -0.2457  1.5500
 5547SOL     OW26849   3.213   8.140   3.406  0.2041  0.0431 -0.5761
 5547SOL    HW126850   3.172   8.206   3.468  1.5393  0.4980 -0.1573
 5547SOL    HW226851   3.291   8.182   3.359  0.8950 -1.1251 -0.5132
 5548SOL     OW26852   6.144   8.641   1.844  0.1315  0.2188 -0.0092
 5548SOL    HW126853   6.148   8.713   1.775 -2.2386  0.2758 -0.1195
 5548SOL    HW226854   6.224   8.648   1.904  1.4174  1.1130 -1.7932
 5549SOL     OW26855   2.229   9.143   2.486  0.7172  0.4137  0.4883
 5549SOL    HW126856   2.235   9.178   2.580  1.4597  1.0039  0.2280
 5549SOL    HW226857   2.181   9.210   2.429 -1.2743 -0.6989  0.8032
 5550SOL     OW26858   4.237   3.528   1.259  0.2303 -0.1381  0.2289
 5550SOL    HW126859   4.252   3.622   1.230  0.0271  0.2496  1.3693
 5550SOL    HW226860   4.191   3.477   1.186 -0.6252  0.9289  0.0174
 5551SOL     OW26861   1.858   5.789   0.905 -0.5156 -0.0587  0.2806
 5551SOL    HW126862   1.945   5.820   0.868 -0.1132  0.6513  1.7710
 5551SOL    HW226863   1.874   5.720   0.976 -1.0392  1.3433  1.8099
 5552SOL     OW26864   2.765   5.351   0.503  0.6884 -0.4984 -0.1587
 5552SOL    HW126865   2.676   5.339   0.459  0.6676 -0.4018 -0.1440
 5552SOL    HW226866   2.792   5.266   0.549  0.6986 -0.5906 -0.3358
 5553SOL     OW26867   0.727   8.448   0.823  0.2918 -0.1804 -0.0109
 5553SOL    HW126868   0.691   8.409   0.908  0.8212 -0.2445  0.1912
 5553SOL    HW226869   0.768   8.375   0.768  1.0354  0.0386  0.2392
 5554SOL     OW26870   0.158   5.086   2.936 -0.4534 -0.3266  0.4276
 5554SOL    HW126871   0.204   5.163   2.892 -1.1814 -0.1269  0.0084
 5554SOL    HW226872   0.112   5.030   2.866  1.9078 -2.3910  0.4549
 5555SOL     OW26873   2.328   9.012   2.255 -0.2066 -0.7065  0.0224
 5555SOL    HW126874   2.295   9.051   2.341  0.5862  0.0803 -0.0245
 5555SOL    HW226875   2.306   9.075   2.180  0.6958 -0.5356 -0.1085
 5556SOL     OW26876   0.793   4.349   0.684 -1.4153 -0.1561  0.0043
 5556SOL    HW126877   0.743   4.274   0.641  0.7019 -1.4762 -0.2251
 5556SOL    HW226878   0.791   4.339   0.783 -1.1300 -0.5348 -0.0269
 5557SOL     OW26879   8.028   0.979   0.644 -0.0637 -0.3165 -0.5182
 5557SOL    HW126880   7.985   0.914   0.707 -0.3975 -0.3966 -0.8269
 5557SOL    HW226881   8.124   0.989   0.667  0.2690 -1.8301 -1.2245
 5558SOL     OW26882   0.818   0.117   2.438  0.3988  0.3745  0.2233
 5558SOL    HW126883   0.756   0.129   2.516  0.2729 -1.7411  0.4801
 5558SOL    HW226884   0.797   0.186   2.368 -2.5359 -0.5280  0.1323
 5559SOL     OW26885   2.535   2.164   1.336 -0.0139  0.1643 -0.1848
 5559SOL    HW126886   2.533   2.110   1.420  2.2581 -1.5710 -1.2171
 5559SOL    HW226887   2.471   2.126   1.269  0.4864 -0.3479 -0.3719
 5560SOL     OW26888   2.154   5.580   3.285 -0.3105 -0.0294  0.3898
 5560SOL    HW126889   2.103   5.561   3.201 -1.4807  0.6967  0.9275
 5560SOL    HW226890   2.194   5.495   3.320  0.5540 -0.2643 -1.1346
 5561SOL     OW26891   2.246   2.652   1.203  0.6586 -0.1080 -0.8394
 5561SOL    HW126892   2.158   2.605   1.203  0.5668  0.0559  0.1049
 5561SOL    HW226893   2.235   2.745   1.166  0.2145  0.3181  0.3629
 5562SOL     OW26894   8.146   2.709   2.016 -0.5344  0.0123 -0.0323
 5562SOL    HW126895   8.162   2.801   1.978 -1.4810  0.1730 -0.0696
 5562SOL    HW226896   8.129   2.716   2.114 -0.8399 -0.0887 -0.0758
 5563SOL     OW26897   0.382   1.011   2.510  0.4387 -0.0386 -0.2041
 5563SOL    HW126898   0.361   1.075   2.584 -2.8451 -0.8578 -0.3682
 5563SOL    HW226899   0.410   0.923   2.550  1.1199  0.2763  0.0290
 5564SOL     OW26900   3.391   7.892   3.074  0.0050  0.5290 -0.0830
 5564SOL    HW126901   3.452   7.814   3.087 -0.1532  0.1976 -1.3594
 5564SOL    HW226902   3.310   7.864   3.023  0.1098  1.5974 -0.8450
 5565SOL     OW26903   2.066   1.207   0.456  0.1756 -0.3608 -0.5971
 5565SOL    HW126904   2.093   1.196   0.552  0.6611  1.4879 -0.5134
 5565SOL    HW226905   1.966   1.203   0.449  0.1886 -1.7606 -0.1965
 5566SOL     OW26906   4.123   2.053   1.457  0.3605  0.2271  0.2758
 5566SOL    HW126907   4.080   1.979   1.508  0.8022 -0.0270  0.2843
 5566SOL    HW226908   4.070   2.138   1.469 -0.3209 -0.1579  0.0089
 5567SOL     OW26909   1.760   7.975   0.305  0.4026  0.0587  0.2773
 5567SOL    HW126910   1.662   7.963   0.317  0.2984 -0.0596 -0.6323
 5567SOL    HW226911   1.777   8.049   0.239  0.8906 -0.9040 -0.6935
 5568SOL     OW26912   0.155   3.304   1.404 -0.5907 -0.7437  0.1556
 5568SOL    HW126913   0.111   3.215   1.398 -1.1965 -0.5506  1.5552
 5568SOL    HW226914   0.208   3.320   1.321 -1.5761 -1.8156 -0.7114
 5569SOL     OW26915   3.063   9.079   0.519  0.1161 -0.5038 -0.4283
 5569SOL    HW126916   3.158   9.055   0.541 -0.5652 -1.3173  1.6575
 5569SOL    HW226917   3.021   9.004   0.469 -0.6617 -1.8896  2.2426
 5570SOL     OW26918   4.959   9.009   2.179  0.0257  0.1466  0.2734
 5570SOL    HW126919   4.941   9.062   2.096  1.0637 -0.9236 -0.6598
 5570SOL    HW226920   5.012   8.928   2.155 -1.1979 -1.1052  1.7379
 5571SOL     OW26921   2.892   3.136   3.427  0.3790  0.0231 -0.1255
 5571SOL    HW126922   2.824   3.196   3.468 -0.7283 -0.4053 -1.2938
 5571SOL    HW226923   2.931   3.179   3.345  0.1648 -0.4934 -0.5067
 5572SOL     OW26924   8.875   4.766   3.061  0.1265  0.2935 -0.2141
 5572SOL    HW126925   8.802   4.780   3.127  1.9865  0.3370  1.9202
 5572SOL    HW226926   8.837   4.739   2.973 -2.5742  2.8170  0.1248
 5573SOL     OW26927   8.520   1.558   2.536 -0.0886 -0.4413 -0.7535
 5573SOL    HW126928   8.613   1.571   2.569  0.0226 -0.5643 -1.0106
 5573SOL    HW226929   8.457   1.547   2.613  0.0555  0.0037 -0.5737
 5574SOL     OW26930   2.712   4.989   2.230 -0.3890  0.4798 -0.4871
 5574SOL    HW126931   2.669   4.899   2.224 -0.4760  0.6074 -2.0003
 5574SOL    HW226932   2.808   4.978   2.255 -0.4063 -0.0238 -0.6276
 5575SOL     OW26933   2.785   1.412   1.555  0.6739 -0.4264  0.1306
 5575SOL    HW126934   2.821   1.320   1.570 -1.6962 -1.8077 -2.1384
 5575SOL    HW226935   2.817   1.446   1.466 -1.3423 -0.5888 -0.6896
 5576SOL     OW26936   2.768   3.444   2.140  0.3642  0.0639  0.5346
 5576SOL    HW126937   2.687   3.403   2.181  1.6294 -0.6066  2.4324
 5576SOL    HW226938   2.838   3.373   2.125  0.3818  0.4960 -1.7354
 5577SOL     OW26939   0.696   3.986   2.771  0.6543  0.3208 -0.6260
 5577SOL    HW126940   0.730   3.933   2.693  2.2103  1.1421 -0.5170
 5577SOL    HW226941   0.714   4.083   2.756  0.2145  0.5706  0.3896
 5578SOL     OW26942   2.738   6.316   2.712  0.0227  0.2262  0.2621
 5578SOL    HW126943   2.826   6.299   2.758  0.8505 -0.1999 -1.4265
 5578SOL    HW226944   2.663   6.288   2.772  1.0651  0.0279  1.4937
 5579SOL     OW26945   0.552   8.039   2.131  0.0242  0.5386  0.1254
 5579SOL    HW126946   0.484   8.111   2.127 -0.1733  0.3202 -0.6037
 5579SOL    HW226947   0.508   7.952   2.153  0.3831  0.7859  1.8734
 5580SOL     OW26948   0.104   7.749   2.910  0.1666 -0.1827  0.9340
 5580SOL    HW126949   0.062   7.771   2.998 -1.5023  0.6544 -0.0539
 5580SOL    HW226950   0.044   7.780   2.836  0.6761 -2.5272 -0.5005
 5581SOL     OW26951   0.285   1.618   2.993  0.9794 -0.2280 -0.0566
 5581SOL    HW126952   0.372   1.666   3.005  1.2560 -0.7251 -0.0660
 5581SOL    HW226953   0.240   1.609   3.082  0.8425  0.2050 -0.0803
 5582SOL     OW26954   8.767   1.974   2.074 -0.2521 -0.0063  0.3207
 5582SOL    HW126955   8.669   1.978   2.056 -0.3066  1.0037  0.8326
 5582SOL    HW226956   8.788   2.027   2.156  1.0225  1.5787 -0.9931
 5583SOL     OW26957   1.869   4.148   3.421  0.3938  0.0911 -0.5048
 5583SOL    HW126958   1.872   4.205   3.503 -1.8004 -3.3994  2.1236
 5583SOL    HW226959   1.781   4.159   3.375 -0.2717 -1.5331  0.3377
 5584SOL     OW26960   8.180   2.928   2.819 -0.5054 -0.0959  0.3664
 5584SOL    HW126961   8.124   2.846   2.827 -0.5623 -0.0353  0.5994
 5584SOL    HW226962   8.181   2.959   2.724 -1.0898  0.0564  0.4082
 5585SOL     OW26963   9.924   5.001   2.345 -0.3700  0.4041 -0.0635
 5585SOL    HW126964   9.996   4.946   2.387 -0.3972  1.4537  1.3912
 5585SOL    HW226965   9.859   5.030   2.416 -1.6760  0.3056 -1.1989
 5586SOL     OW26966   0.749   8.068   1.008  0.1487  0.5000 -0.7503
 5586SOL    HW126967   0.810   8.143   0.983 -1.6990  2.1416 -0.5002
 5586SOL    HW226968   0.679   8.057   0.938  0.5678 -1.2037 -0.9245
 5587SOL     OW26969   2.100   8.430   1.716  0.4974  0.3126 -0.0286
 5587SOL    HW126970   2.197   8.412   1.729  0.7052  0.4172 -1.3967
 5587SOL    HW226971   2.079   8.523   1.747  1.1749  0.8929 -1.2714
 5588SOL     OW26972   0.365   2.575   1.961  0.2098  0.5412  0.0012
 5588SOL    HW126973   0.339   2.547   2.054  1.0669 -1.7636 -0.4183
 5588SOL    HW226974   0.289   2.560   1.899 -0.1408  1.4643  0.1946
 5589SOL     OW26975   9.913   2.409   3.166  0.2678  0.3626 -0.2178
 5589SOL    HW126976   9.999   2.367   3.136 -1.1917 -3.5623  0.7679
 5589SOL    HW226977   9.857   2.429   3.086  0.3353 -1.1725 -0.6780
 5590SOL     OW26978   2.909   7.465   2.424  0.3615 -0.2449  0.2258
 5590SOL    HW126979   2.871   7.404   2.355  0.8547 -1.6396  1.1625
 5590SOL    HW226980   3.007   7.478   2.406 -0.0371  1.4193 -0.7957
 5591SOL     OW26981   4.494   0.114   0.392  0.0118 -0.4616 -0.6427
 5591SOL    HW126982   4.407   0.068   0.373 -0.4579  1.4319 -3.4153
 5591SOL    HW226983   4.478   0.190   0.455 -0.4436  0.1484 -1.4796
 5592SOL     OW26984   3.510   4.290   1.598 -0.8061  0.0696 -0.1613
 5592SOL    HW126985   3.573   4.286   1.520 -0.5492 -0.3321  0.0622
 5592SOL    HW226986   3.535   4.219   1.664 -2.3836 -1.0500 -0.7416
 5593SOL     OW26987   8.392   3.403   0.587  0.7064  0.5470 -0.2129
 5593SOL    HW126988   8.454   3.342   0.538  0.0144  0.5062 -1.0383
 5593SOL    HW226989   8.335   3.453   0.522 -1.2304 -0.5627  0.5662
 5594SOL     OW26990   2.190   4.570   1.322 -0.3897  0.1190 -0.1368
 5594SOL    HW126991   2.253   4.621   1.381 -0.4739 -0.6682  0.6514
 5594SOL    HW226992   2.237   4.545   1.237 -0.6178  2.2488 -0.9117
 5595SOL     OW26993   8.566   2.188   2.571  0.1902  0.5147  0.5855
 5595SOL    HW126994   8.632   2.118   2.544 -0.8306  0.5128 -2.0784
 5595SOL    HW226995   8.610   2.277   2.572  0.3411  0.4671 -0.8490
 5596SOL     OW26996   2.139   1.846   0.186  0.2595 -0.0131  0.0602
 5596SOL    HW126997   2.192   1.780   0.132  0.2903 -0.4300  0.5932
 5596SOL    HW226998   2.112   1.803   0.272  0.9129  0.9299  0.7359
 5597SOL     OW26999   0.129   8.790   2.855  0.0273  0.0417  0.4433
 5597SOL    HW127000   0.217   8.761   2.893 -0.3709 -0.5824  0.9025
 5597SOL    HW227001   0.066   8.712   2.854 -1.6968  1.2924  3.5094
 5598SOL     OW27002   4.067   0.373   0.921  0.0345 -0.0721  0.7518
 5598SOL    HW127003   4.149   0.390   0.974  0.6862 -0.1028 -0.2300
 5598SOL    HW227004   3.989   0.421   0.962  0.6641  0.4459  1.3364
 5599SOL     OW27005   0.308   5.046   1.069 -0.0057 -0.1086 -0.9195
 5599SOL    HW127006   0.346   5.138   1.072 -1.3494  0.4110  1.3870
 5599SOL    HW227007   0.367   4.984   1.121  0.7001 -0.4901 -2.1578
 5600SOL     OW27008   9.643   2.448   0.663 -0.1424  0.3480  0.0322
 5600SOL    HW127009   9.558   2.441   0.715  0.1502 -2.4038  0.2050
 5600SOL    HW227010   9.705   2.512   0.708 -1.2597  0.6915  1.1072
 5601SOL     OW27011   9.414   3.779   0.878  0.1092 -0.2183  0.1435
 5601SOL    HW127012   9.467   3.812   0.956 -0.5438  0.4300  0.3160
 5601SOL    HW227013   9.333   3.731   0.911  0.7510 -1.4957 -0.1128
 5602SOL     OW27014   0.492   5.146   1.341 -0.1583  0.0009  0.2208
 5602SOL    HW127015   0.572   5.180   1.292  0.1115  1.5991  1.7244
 5602SOL    HW227016   0.418   5.214   1.336 -1.6048 -1.6265 -1.5016
 5603SOL     OW27017   4.471   0.443   3.274 -0.1218 -0.3307 -0.2735
 5603SOL    HW127018   4.480   0.516   3.206  1.5292 -1.8237 -1.6992
 5603SOL    HW227019   4.457   0.484   3.364 -0.7122  1.7131 -1.2386
 5604SOL     OW27020   1.137   1.346   2.782 -0.1702  0.0527  0.2861
 5604SOL    HW127021   1.116   1.268   2.724 -1.6831  0.4071  0.3348
 5604SOL    HW227022   1.129   1.431   2.729 -0.4415  0.3045  0.7258
 5605SOL     OW27023   1.495   2.677   0.559  0.0797  0.1980 -0.2103
 5605SOL    HW127024   1.575   2.641   0.608  0.1535  0.8876  0.1893
 5605SOL    HW227025   1.484   2.629   0.472 -0.1868 -1.2028  0.5903
 5606SOL     OW27026   2.667   7.429   1.560 -0.2092  0.0788 -0.1614
 5606SOL    HW127027   2.658   7.427   1.460  1.7751  1.1039 -0.3908
 5606SOL    HW227028   2.580   7.456   1.601 -0.5237  1.5759 -1.7444
 5607SOL     OW27029   0.984   5.572   0.290  0.3177 -0.8028  0.0573
 5607SOL    HW127030   1.000   5.532   0.201 -3.3993  1.5764 -1.8128
 5607SOL    HW227031   0.937   5.507   0.349  2.6733 -2.3329  0.2967
 5608SOL     OW27032   3.072   2.851   2.664  0.1686 -0.3253  0.2946
 5608SOL    HW127033   2.978   2.853   2.630  0.7703 -0.8142 -1.4471
 5608SOL    HW227034   3.099   2.757   2.683  1.5744 -0.6801 -2.9933
 5609SOL     OW27035   1.498   4.482   0.320  0.0491 -0.0021 -0.0828
 5609SOL    HW127036   1.521   4.398   0.270  4.0209 -0.5980  2.4435
 5609SOL    HW227037   1.419   4.465   0.379  0.5490 -1.8644  0.0824
 5610SOL     OW27038   0.834   3.078   2.961 -0.2808  0.4143  0.5285
 5610SOL    HW127039   0.769   3.045   2.892  0.0046  0.2354  0.3422
 5610SOL    HW227040   0.926   3.081   2.921 -0.2528  1.1444  0.6328
 5611SOL     OW27041   8.109   3.242   1.131  0.2140 -0.1952  0.7026
 5611SOL    HW127042   8.055   3.254   1.047  0.2467  1.1807  0.8796
 5611SOL    HW227043   8.062   3.176   1.190  0.6322 -1.8530 -0.7564
 5612SOL     OW27044   1.746   9.659   0.247  0.1547 -0.4319 -0.0917
 5612SOL    HW127045   1.832   9.615   0.221  0.7782  1.1058 -0.6638
 5612SOL    HW227046   1.693   9.680   0.165 -1.0157 -1.8010  0.2745
 5613SOL     OW27047   3.164   0.428   2.065 -0.1891  0.2569 -0.2709
 5613SOL    HW127048   3.102   0.504   2.085 -0.6373 -0.1125 -0.2415
 5613SOL    HW227049   3.240   0.429   2.130 -1.3696 -0.6338  1.1647
 5614SOL     OW27050   1.314   9.481   1.010  0.6260 -0.6681 -0.9772
 5614SOL    HW127051   1.248   9.419   1.051 -1.2900  2.6638  1.2365
 5614SOL    HW227052   1.268   9.539   0.942  1.7456  0.0988 -1.0993
 5615SOL     OW27053   2.830   3.602   0.614  0.4749 -0.2188  0.3523
 5615SOL    HW127054   2.866   3.695   0.604  0.8329 -0.4094 -0.1396
 5615SOL    HW227055   2.764   3.600   0.689 -0.4410  0.7057 -0.4070
 5616SOL     OW27056   3.171   3.984   0.731 -0.9869 -0.8797 -0.3218
 5616SOL    HW127057   3.230   4.028   0.663 -0.8130  0.7745  0.8801
 5616SOL    HW227058   3.162   3.887   0.709  0.8176 -0.8097 -1.4603
 5617SOL     OW27059   9.849   6.604   1.326 -0.1064  0.2900  0.4225
 5617SOL    HW127060   9.931   6.660   1.337 -1.0225  1.7086  0.1581
 5617SOL    HW227061   9.871   6.524   1.270  0.8721  1.1683 -0.4841
 5618SOL     OW27062   2.412   0.482   1.354 -0.5459 -0.2806  0.7100
 5618SOL    HW127063   2.343   0.409   1.346 -0.6508 -0.2182  1.0384
 5618SOL    HW227064   2.496   0.453   1.309 -0.4134 -0.8192  1.3077
 5619SOL     OW27065   5.840   8.894   2.086 -0.4880  0.3279 -0.9274
 5619SOL    HW127066   5.840   8.994   2.082 -0.6423  0.3686 -0.1475
 5619SOL    HW227067   5.917   8.862   2.141 -0.0897 -0.0127 -1.6765
 5620SOL     OW27068   0.006   9.649   1.287 -0.0480 -0.2299  0.2631
 5620SOL    HW127069  -0.062   9.722   1.286  1.1092  0.8443 -0.9611
 5620SOL    HW227070   0.098   9.688   1.296  0.5338 -1.5705  0.3266
 5621SOL     OW27071   1.180   5.548   3.119 -0.0855  0.6152  0.0463
 5621SOL    HW127072   1.249   5.489   3.162 -0.4291  1.4957  1.8334
 5621SOL    HW227073   1.225   5.611   3.056  0.7483  1.1409  1.1526
 5622SOL     OW27074   9.396   3.231   2.163 -0.0906  0.6576 -0.1478
 5622SOL    HW127075   9.460   3.155   2.153 -0.3857  0.2907  0.7212
 5622SOL    HW227076   9.444   3.311   2.199 -0.4498 -0.1300  2.1545
 5623SOL     OW27077   9.079   4.375   1.531 -0.3057 -0.3466  0.0548
 5623SOL    HW127078   9.142   4.353   1.457 -0.7103  0.4333 -0.5328
 5623SOL    HW227079   9.050   4.471   1.523 -1.4504 -0.6565  0.3975
 5624SOL     OW27080   3.731   1.855   3.335  0.5925  0.2544 -0.0859
 5624SOL    HW127081   3.769   1.946   3.316  1.0760  0.1699  0.4655
 5624SOL    HW227082   3.696   1.853   3.428 -1.0668  0.4236 -0.6790
 5625SOL     OW27083   0.275   4.834   3.031 -0.0112  0.3335  0.1739
 5625SOL    HW127084   0.208   4.904   3.009  0.2849  0.8132  0.7634
 5625SOL    HW227085   0.341   4.825   2.956  0.6390  1.5217  0.6000
 5626SOL     OW27086   4.204   9.132   0.675 -0.5465 -0.1784 -0.2397
 5626SOL    HW127087   4.231   9.057   0.736 -3.2338  0.4137  1.8056
 5626SOL    HW227088   4.152   9.095   0.598 -0.0441 -0.6037 -0.3784
 5627SOL     OW27089   8.237   0.273   2.159 -0.5238 -0.4376  0.3911
 5627SOL    HW127090   8.308   0.286   2.228 -0.8313 -0.4789  0.7208
 5627SOL    HW227091   8.253   0.334   2.082 -0.1993 -0.3638  0.5168
 5628SOL     OW27092   2.276   6.592   2.266  0.1963 -0.5150  0.2102
 5628SOL    HW127093   2.308   6.532   2.339  0.3903 -0.6687  0.0016
 5628SOL    HW227094   2.329   6.676   2.267 -0.2778 -0.2224  0.6905
 5629SOL     OW27095   3.444   7.754   1.954 -0.5316 -0.2471 -0.0353
 5629SOL    HW127096   3.405   7.842   1.981 -1.3050 -0.8802  0.9862
 5629SOL    HW227097   3.370   7.690   1.934 -0.0015 -0.9927  0.3562
 5630SOL     OW27098   7.134   1.597   2.142  0.5760  0.0060  0.0815
 5630SOL    HW127099   7.104   1.516   2.092  2.1430 -1.1807  1.0123
 5630SOL    HW227100   7.092   1.599   2.232  0.1771  0.4889 -0.1108
 5631SOL     OW27101   2.230   6.204   1.307 -0.0744 -0.1168  0.1516
 5631SOL    HW127102   2.293   6.278   1.334  2.2483 -1.7763 -0.5544
 5631SOL    HW227103   2.226   6.200   1.207 -2.3863  0.8221  0.1800
 5632SOL     OW27104   4.623   1.229   1.781 -0.1811  0.0149 -0.1617
 5632SOL    HW127105   4.625   1.328   1.788 -3.4166  0.1391 -0.1452
 5632SOL    HW227106   4.617   1.189   1.872 -0.5036 -0.1238 -0.2429
 5633SOL     OW27107   1.691   4.524   2.154 -0.4352  0.5935 -0.3342
 5633SOL    HW127108   1.592   4.527   2.163 -0.3866  0.8357  0.1401
 5633SOL    HW227109   1.730   4.461   2.221 -0.2945  0.2223 -0.7587
 5634SOL     OW27110   8.557   0.617   3.281 -0.0647  0.8059  0.1082
 5634SOL    HW127111   8.501   0.657   3.209 -2.7984  1.5927  2.5514
 5634SOL    HW227112   8.558   0.679   3.360  2.3919 -0.2864  0.9943
 5635SOL     OW27113   3.039   5.107   2.901  0.3324  0.1919 -0.1890
 5635SOL    HW127114   3.090   5.088   2.985 -2.9006  1.7274  2.2137
 5635SOL    HW227115   3.062   5.198   2.867 -1.7724  1.5033  1.7355
 5636SOL     OW27116   0.905   2.235   0.510 -0.3774 -0.0406 -0.2597
 5636SOL    HW127117   0.853   2.260   0.592  1.6249  0.4264  0.9021
 5636SOL    HW227118   0.917   2.316   0.453  1.3298  0.4702  0.7839
 5637SOL     OW27119   0.651   7.056   0.214 -0.5595  0.0774  0.7236
 5637SOL    HW127120   0.623   7.138   0.165 -0.5686 -0.3589 -0.0027
 5637SOL    HW227121   0.587   7.038   0.289 -2.1044 -0.7845 -0.7776
 5638SOL     OW27122   3.398   1.644   1.185 -0.2466  0.4940  0.0076
 5638SOL    HW127123   3.421   1.727   1.236  1.7626 -0.3297  0.4722
 5638SOL    HW227124   3.461   1.571   1.210 -2.4311 -1.3920  0.1214
 5639SOL     OW27125   2.877   8.214   1.660  0.2551  0.5317 -0.0173
 5639SOL    HW127126   2.879   8.244   1.565 -0.0403 -0.1135 -0.2305
 5639SOL    HW227127   2.958   8.160   1.679  0.0232  0.1659 -0.0677
 5640SOL     OW27128   9.674   1.362   0.993 -0.0030  0.0536 -0.0872
 5640SOL    HW127129   9.701   1.317   0.908 -2.3206 -1.8311  0.1073
 5640SOL    HW227130   9.696   1.460   0.988  2.9296 -0.6046 -1.4871
 5641SOL     OW27131   7.790   1.819   0.686  0.1602 -0.2532 -0.2028
 5641SOL    HW127132   7.733   1.889   0.643  1.6901  0.9478 -0.2974
 5641SOL    HW227133   7.856   1.784   0.619  0.1912 -0.9471  0.1823
 5642SOL     OW27134   4.525   0.478   1.545  0.4010  0.5253 -0.1071
 5642SOL    HW127135   4.549   0.538   1.469  0.2019 -0.2747 -0.7990
 5642SOL    HW227136   4.431   0.445   1.534  0.1869  0.8277  0.7630
 5643SOL     OW27137   3.739   1.636   2.431  0.7714  0.1161 -0.2036
 5643SOL    HW127138   3.814   1.630   2.365  0.8106  1.9712 -0.3633
 5643SOL    HW227139   3.706   1.730   2.435  1.9079  0.4653  3.6782
 5644SOL     OW27140   9.811   0.427   0.322 -0.0184  0.0683  0.2531
 5644SOL    HW127141   9.896   0.441   0.271 -0.4069 -0.7902 -0.6541
 5644SOL    HW227142   9.738   0.484   0.283 -0.2295 -0.3352  0.0482
 5645SOL     OW27143   7.600   1.709   0.855  0.4141  0.5359 -0.2287
 5645SOL    HW127144   7.688   1.731   0.814  0.5497 -0.5685 -0.5449
 5645SOL    HW227145   7.526   1.736   0.793  0.5392  0.9247 -0.2140
 5646SOL     OW27146   3.110   1.027   1.600 -0.3602  0.1634  0.1886
 5646SOL    HW127147   3.033   1.091   1.610 -1.0758 -0.6213 -0.2100
 5646SOL    HW227148   3.176   1.065   1.535 -0.8556  0.4343 -0.1602
 5647SOL     OW27149   0.943   4.936   0.389  0.4387 -0.4078  0.2750
 5647SOL    HW127150   0.910   5.028   0.369  1.2481 -0.0639  0.4861
 5647SOL    HW227151   1.019   4.914   0.327 -1.5659 -2.0453 -1.7358
 5648SOL     OW27152   0.341   2.551   2.703 -0.3811  0.6415  0.0272
 5648SOL    HW127153   0.316   2.478   2.765  0.6684 -1.5946 -2.0818
 5648SOL    HW227154   0.401   2.616   2.750  1.0647 -1.4388  1.1480
 5649SOL     OW27155   1.475   4.735   1.983 -0.1020  0.4751  0.1543
 5649SOL    HW127156   1.504   4.640   1.975  0.7967  0.7899 -0.4411
 5649SOL    HW227157   1.377   4.739   2.001 -0.5850 -0.5083 -2.1355
 5650SOL     OW27158   9.553   4.969   0.404  0.2620 -0.0355 -0.0510
 5650SOL    HW127159   9.555   5.033   0.480 -3.5580  0.6531 -0.4072
 5650SOL    HW227160   9.600   4.885   0.430 -0.6656  0.3093  2.9509
 5651SOL     OW27161   1.702   4.830   2.820 -0.2267 -0.2186 -0.2218
 5651SOL    HW127162   1.612   4.788   2.822 -1.2445  1.9293  2.7467
 5651SOL    HW227163   1.753   4.804   2.902 -0.0639  2.5183  0.5954
 5652SOL     OW27164   2.324   2.472   1.684  0.3674  0.0963  0.0534
 5652SOL    HW127165   2.286   2.559   1.716 -1.0448 -0.3262 -0.4539
 5652SOL    HW227166   2.350   2.480   1.588  2.1031  0.5494  0.5441
 5653SOL     OW27167   1.762   7.608   3.389 -0.1700 -0.0215  0.0735
 5653SOL    HW127168   1.784   7.704   3.404 -2.1465  0.2418  1.3218
 5653SOL    HW227169   1.788   7.582   3.295 -2.2792  2.4784 -1.2338
 5654SOL     OW27170   1.922   0.535   1.785  0.1320 -0.6022  0.3278
 5654SOL    HW127171   1.974   0.477   1.724 -0.0487  2.5431 -2.9739
 5654SOL    HW227172   1.851   0.583   1.734 -0.8239  1.2451  3.2379
 5655SOL     OW27173   8.711   3.838   2.330 -0.7181  0.1887 -0.0148
 5655SOL    HW127174   8.675   3.875   2.244 -0.5021  0.9140  0.2010
 5655SOL    HW227175   8.803   3.800   2.313 -0.9674 -0.3175 -0.2500
 5656SOL     OW27176   0.834   7.146   1.512 -0.1932  1.0571 -0.4280
 5656SOL    HW127177   0.796   7.183   1.427  1.0093  0.7694 -1.1123
 5656SOL    HW227178   0.772   7.166   1.588 -2.0764 -0.0410 -1.6185
 5657SOL     OW27179   0.966   8.383   0.097 -0.0503 -0.2023  0.0050
 5657SOL    HW127180   1.042   8.437   0.134  0.1288  0.1241 -0.8223
 5657SOL    HW227181   0.879   8.422   0.127  0.1132 -1.4611  2.1932
 5658SOL     OW27182   0.270   3.241   2.879  0.3074  0.2029 -0.4064
 5658SOL    HW127183   0.370   3.237   2.876  0.2894  0.6112 -2.6323
 5658SOL    HW227184   0.242   3.333   2.906  0.5300 -0.3814  1.8544
 5659SOL     OW27185   1.825   5.295   1.712 -0.1371 -0.8728  0.0940
 5659SOL    HW127186   1.769   5.377   1.726  0.8705 -0.5457  2.5778
 5659SOL    HW227187   1.779   5.216   1.750 -0.6723 -1.3043 -1.4326
 5660SOL     OW27188   1.670   8.907   1.478 -0.1854  0.0907 -0.3027
 5660SOL    HW127189   1.614   8.922   1.559  1.1080 -0.3750  0.6847
 5660SOL    HW227190   1.766   8.924   1.499  0.1900 -0.2072 -1.6899
 5661SOL     OW27191   3.339   9.001   3.097 -0.1101 -0.4258  0.5908
 5661SOL    HW127192   3.299   9.073   3.154 -0.1785 -0.5393  0.6853
 5661SOL    HW227193   3.389   9.042   3.021  0.0369 -0.2746  0.7706
 5662SOL     OW27194   4.313   2.774   1.256  0.2068 -0.7017 -0.1093
 5662SOL    HW127195   4.371   2.693   1.258 -0.1138 -0.9331 -0.0019
 5662SOL    HW227196   4.369   2.856   1.248  0.6600 -0.7970  1.7720
 5663SOL     OW27197   0.473   0.150   1.661  0.2824 -0.5167  0.3856
 5663SOL    HW127198   0.383   0.139   1.619  0.2989 -0.5542  0.3605
 5663SOL    HW227199   0.479   0.091   1.742 -0.5783  1.2185  1.7575
 5664SOL     OW27200   8.513   3.643   1.190 -0.4726  0.3471  0.0882
 5664SOL    HW127201   8.537   3.717   1.253 -1.4359 -0.1547  1.0701
 5664SOL    HW227202   8.500   3.558   1.241  0.2576 -0.4247 -0.9859
 5665SOL     OW27203   3.294   1.126   1.429 -0.1694  0.0630  0.0255
 5665SOL    HW127204   3.348   1.048   1.460  0.2180  1.3751  2.8592
 5665SOL    HW227205   3.354   1.204   1.412 -0.9433  1.0268  1.5393
 5666SOL     OW27206   1.725   5.778   0.381  0.4229  0.2012 -0.1289
 5666SOL    HW127207   1.729   5.757   0.478 -1.1489  1.7596  0.2968
 5666SOL    HW227208   1.710   5.694   0.329 -0.4768 -0.4101  1.1050
 5667SOL     OW27209   3.607   3.995   1.303 -0.2626 -0.0911  0.2378
 5667SOL    HW127210   3.509   4.015   1.301 -0.1447  0.3372 -1.8154
 5667SOL    HW227211   3.622   3.899   1.277 -0.1323 -0.2103  0.7335
 5668SOL     OW27212   2.623   9.946   0.692 -0.4637 -0.1138 -0.4233
 5668SOL    HW127213   2.688   9.895   0.635 -1.5633 -1.0637 -0.8545
 5668SOL    HW227214   2.640   9.925   0.788  0.8082  0.7913 -0.4321
 5669SOL     OW27215   9.830   7.475   1.210  0.4234 -0.1814  0.7069
 5669SOL    HW127216   9.899   7.517   1.151  0.8685 -0.6176  0.9132
 5669SOL    HW227217   9.849   7.498   1.305 -1.2104  1.8652  0.5970
 5670SOL     OW27218   8.092   2.478   3.304 -0.0933 -0.6525 -0.1490
 5670SOL    HW127219   8.055   2.571   3.297 -1.2482 -0.9865  1.1673
 5670SOL    HW227220   8.029   2.414   3.259  1.0774 -0.7185 -1.7175
 5671SOL     OW27221   2.262   2.142   2.783 -0.2213  0.2796  0.3199
 5671SOL    HW127222   2.330   2.213   2.801  2.0244 -1.2314 -1.8419
 5671SOL    HW227223   2.285   2.060   2.835  0.8207 -0.9116 -1.9689
 5672SOL     OW27224   8.471   2.739   2.212  0.2765  0.4284  0.0438
 5672SOL    HW127225   8.436   2.720   2.304  2.2952  0.2661  0.8265
 5672SOL    HW227226   8.416   2.810   2.169 -0.6646  0.5503  1.4129
 5673SOL     OW27227   2.195   4.251   0.544 -0.4342  0.1760 -0.1016
 5673SOL    HW127228   2.122   4.184   0.559  0.8284 -1.1201  0.4242
 5673SOL    HW227229   2.163   4.342   0.570 -2.1469 -0.2267 -0.7155
 5674SOL     OW27230   9.478   2.221   2.743 -0.3678  0.0843 -0.4822
 5674SOL    HW127231   9.540   2.297   2.723  0.4195  0.1258  1.9200
 5674SOL    HW227232   9.531   2.137   2.753 -0.4035  0.4282  3.3025
 5675SOL     OW27233   3.939   2.249   1.494 -0.0174  0.5409  0.3827
 5675SOL    HW127234   3.860   2.254   1.433 -1.1084  0.6407  1.7653
 5675SOL    HW227235   3.995   2.331   1.483  0.4994 -0.0244 -1.3884
 5676SOL     OW27236   0.891   1.809   3.304  0.1970 -0.3219 -0.3572
 5676SOL    HW127237   0.954   1.736   3.330  0.4585  0.0715  0.1332
 5676SOL    HW227238   0.824   1.823   3.376 -0.5944 -0.8855 -0.9740
 5677SOL     OW27239   0.104   8.271   2.093 -1.0657  0.0257  0.5358
 5677SOL    HW127240   0.046   8.204   2.046 -1.9252  1.5649 -0.6180
 5677SOL    HW227241   0.200   8.250   2.072 -1.4033  0.2280 -1.3095
 5678SOL     OW27242   1.902   7.058   1.935  0.0752  0.4583  0.4132
 5678SOL    HW127243   1.939   6.995   1.867  0.2680 -0.4045  1.3176
 5678SOL    HW227244   1.974   7.121   1.965  0.2530  0.1921  0.5505
 5679SOL     OW27245   0.417   5.453   0.145 -0.3269 -0.1232 -0.9637
 5679SOL    HW127246   0.445   5.527   0.084 -1.5494 -0.7461 -2.3154
 5679SOL    HW227247   0.441   5.365   0.103 -1.0772 -0.5542 -0.5025
 5680SOL     OW27248   1.958   4.956   2.193 -0.1713 -0.3195 -0.9073
 5680SOL    HW127249   1.910   4.880   2.150 -0.3147  0.8128 -2.8043
 5680SOL    HW227250   1.930   5.042   2.150  1.3033  0.6332 -0.0050
 5681SOL     OW27251   2.228   4.936   0.171  0.4221  0.4411 -0.3330
 5681SOL    HW127252   2.128   4.938   0.175  0.4324  0.6176 -0.1063
 5681SOL    HW227253   2.257   4.905   0.081  0.1589 -0.3294 -0.1591
 5682SOL     OW27254   2.469   0.416   2.601  0.0564 -0.3104  0.3451
 5682SOL    HW127255   2.505   0.438   2.692  2.6079  0.3042 -0.7800
 5682SOL    HW227256   2.400   0.343   2.609  0.0327 -0.0525  2.7862
 5683SOL     OW27257   3.546   9.943   1.815  0.2480  0.3983  0.1593
 5683SOL    HW127258   3.524  10.017   1.878 -1.4185  0.4552 -0.4524
 5683SOL    HW227259   3.562   9.980   1.724  1.7305  0.2279  0.3482
 5684SOL     OW27260   2.991   2.002   0.503  0.0935 -0.1597 -0.4725
 5684SOL    HW127261   2.960   2.000   0.598  0.1510  0.2719 -0.4432
 5684SOL    HW227262   2.934   1.940   0.449  0.1009 -0.4565 -0.1474
 5685SOL     OW27263   3.380   1.910   3.144 -0.0087 -0.3802  0.1536
 5685SOL    HW127264   3.432   1.826   3.126 -0.1178 -0.5000  0.3786
 5685SOL    HW227265   3.344   1.906   3.238  0.9487  0.4338  0.5624
 5686SOL     OW27266   3.056   2.915   0.981 -0.0065  0.0474 -0.0053
 5686SOL    HW127267   3.068   2.815   0.980  1.2696  0.1780  1.4623
 5686SOL    HW227268   3.130   2.958   0.929  0.1992  0.2962  0.4892
 5687SOL     OW27269   0.464   7.502   1.616  0.1736  0.0764 -0.5051
 5687SOL    HW127270   0.383   7.456   1.651 -0.0156 -0.2183 -1.3195
 5687SOL    HW227271   0.463   7.598   1.644 -0.4436  0.0667 -0.4996
 5688SOL     OW27272   4.222   2.045   2.333 -0.3763 -0.3576  0.0352
 5688SOL    HW127273   4.264   1.961   2.367 -0.7149 -0.6759 -0.3274
 5688SOL    HW227274   4.133   2.058   2.376  0.6087  0.9728  1.7471
 5689SOL     OW27275   2.803   1.190   2.220  0.1784 -1.0600  0.5138
 5689SOL    HW127276   2.791   1.284   2.251  0.2346 -0.7576 -0.3552
 5689SOL    HW227277   2.715   1.142   2.221 -0.5514  0.0998 -2.5018
 5690SOL     OW27278   9.852   1.228   3.022  0.2954 -0.1079 -0.3209
 5690SOL    HW127279   9.934   1.262   2.978  1.5143 -1.6571  0.6943
 5690SOL    HW227280   9.857   1.128   3.029 -0.7445 -0.0624  1.5394
 5691SOL     OW27281   0.778   2.420   1.386  0.2480 -0.2081  0.4021
 5691SOL    HW127282   0.738   2.377   1.467 -0.5982 -2.1544 -0.9845
 5691SOL    HW227283   0.734   2.382   1.304  0.3228  2.4932 -0.9429
 5692SOL     OW27284   8.930   2.078   3.347 -0.5385  0.0288 -0.7018
 5692SOL    HW127285   8.982   2.081   3.432  1.8970  0.7932 -2.1432
 5692SOL    HW227286   8.894   1.986   3.333 -0.1803 -0.3387  0.7021
 5693SOL     OW27287   4.507   8.010   0.368  0.1258 -0.1746  0.6890
 5693SOL    HW127288   4.598   8.050   0.377 -0.8300  1.7782  1.8496
 5693SOL    HW227289   4.464   8.002   0.458 -1.2044 -0.2247  0.0634
 5694SOL     OW27290   2.980   9.910   1.174  0.5188  0.2145  0.0594
 5694SOL    HW127291   2.933   9.978   1.230 -1.2070 -0.5887 -0.3725
 5694SOL    HW227292   2.966   9.819   1.213 -1.7029 -0.5089 -2.2613
 5695SOL     OW27293   0.460   9.760   1.667 -0.2012 -0.1424 -0.3714
 5695SOL    HW127294   0.532   9.806   1.719  0.9560 -2.5671  0.2498
 5695SOL    HW227295   0.493   9.671   1.636 -2.7398 -1.0537 -0.5787
 5696SOL     OW27296   0.517   8.002   0.051  0.3125  0.2500 -0.9170
 5696SOL    HW127297   0.487   7.982   0.145  0.8554 -1.4128 -1.0849
 5696SOL    HW227298   0.610   7.968   0.038  0.9603  2.1957 -1.4892
 5697SOL     OW27299   8.451   3.953   2.744  1.0950  0.0371  0.5036
 5697SOL    HW127300   8.475   4.029   2.805 -1.1660  2.2024 -1.2400
 5697SOL    HW227301   8.534   3.904   2.719  2.4036  0.9004  2.9912
 5698SOL     OW27302   0.707   5.241   2.103  0.4400 -0.0437 -0.2594
 5698SOL    HW127303   0.617   5.268   2.136  0.3288  1.8827 -2.0239
 5698SOL    HW227304   0.775   5.260   2.174 -0.3244 -0.0015  0.4726
 5699SOL     OW27305   9.517   4.551   2.352  0.0797  0.2023  0.3347
 5699SOL    HW127306   9.539   4.583   2.260  1.5020 -2.0512 -0.1486
 5699SOL    HW227307   9.466   4.466   2.347 -0.6586  0.5543  1.6372
 5700SOL     OW27308   8.656   2.388   2.830 -0.0525  0.0293  0.1546
 5700SOL    HW127309   8.582   2.333   2.868 -0.2440  1.1363  1.4136
 5700SOL    HW227310   8.623   2.482   2.816  0.6250  0.1216 -0.8385
 5701SOL     OW27311   8.593   3.403   2.833  0.3475  0.3248 -0.3078
 5701SOL    HW127312   8.689   3.429   2.823  0.5180  0.0593  0.6349
 5701SOL    HW227313   8.541   3.441   2.756  1.0438  1.2572 -0.3361
 5702SOL     OW27314   4.857   9.827   2.540  0.3646  0.6688 -0.1763
 5702SOL    HW127315   4.862   9.728   2.540  4.0185  0.7919 -0.9646
 5702SOL    HW227316   4.803   9.858   2.461  0.1930 -0.6518 -0.5820
 5703SOL     OW27317   3.093   3.873   2.880 -0.2384 -0.5616 -0.0227
 5703SOL    HW127318   3.076   3.905   2.787  0.4558 -1.1701 -0.3680
 5703SOL    HW227319   3.153   3.938   2.927 -0.9342 -0.0381  0.1416
 5704SOL     OW27320   2.456   2.521   0.565  0.3266 -0.4794  0.4916
 5704SOL    HW127321   2.455   2.515   0.466 -0.6611  1.6736  0.3407
 5704SOL    HW227322   2.414   2.608   0.594  0.8935 -0.9229  2.7633
 5705SOL     OW27323   2.899   7.677   0.485 -0.4271  0.0856 -0.4736
 5705SOL    HW127324   2.869   7.632   0.402  0.8167 -0.0078 -0.8780
 5705SOL    HW227325   2.920   7.773   0.466  0.5250 -0.1053 -0.4297
 5706SOL     OW27326   2.923   3.484   3.429 -0.6258 -0.3737 -0.3533
 5706SOL    HW127327   2.877   3.483   3.340  0.0922  1.4372 -0.7677
 5706SOL    HW227328   3.012   3.439   3.421  0.5106  1.9237 -1.1973
 5707SOL     OW27329   9.599   0.553   0.215 -0.4499 -0.0254 -0.6926
 5707SOL    HW127330   9.525   0.531   0.278  0.4841 -1.9468 -0.2149
 5707SOL    HW227331   9.591   0.648   0.184 -0.4761  1.2057  2.9271
 5708SOL     OW27332   1.805   4.982   0.650  0.8217  0.1349  0.0733
 5708SOL    HW127333   1.888   4.935   0.678  0.9661  0.2957 -0.0838
 5708SOL    HW227334   1.725   4.931   0.682  0.9718  1.2728  2.3744
 5709SOL     OW27335   3.390   9.144   1.910 -0.1211 -0.4477  0.2534
 5709SOL    HW127336   3.380   9.203   1.991 -0.5941  0.8815 -0.7340
 5709SOL    HW227337   3.310   9.158   1.850 -0.4144 -2.3926  0.1785
 5710SOL     OW27338   1.699   5.976   2.209  0.3530  0.0536  0.3479
 5710SOL    HW127339   1.786   5.986   2.257  0.3644  1.9342 -0.0392
 5710SOL    HW227340   1.716   5.966   2.111  0.1941 -1.0882  0.4282
 5711SOL     OW27341   0.876   2.586   2.388 -0.2991  0.2461  0.2565
 5711SOL    HW127342   0.868   2.685   2.379 -1.5433  0.2374  1.2390
 5711SOL    HW227343   0.972   2.559   2.373  0.1600  1.6543  0.6291
 5712SOL     OW27344   0.722   1.408   1.368 -0.0912  0.7725  0.2916
 5712SOL    HW127345   0.636   1.419   1.417 -0.5492 -1.8990  0.1453
 5712SOL    HW227346   0.787   1.357   1.424 -0.4571 -1.9060 -1.6071
 5713SOL     OW27347   3.965   2.991   2.480  0.4647  0.0008 -0.6385
 5713SOL    HW127348   4.011   2.908   2.512  1.5098  1.0203  0.5658
 5713SOL    HW227349   3.866   2.981   2.491  0.4096 -1.9626 -2.6533
 5714SOL     OW27350   1.667   8.776   2.419  0.3012 -0.7380 -0.2140
 5714SOL    HW127351   1.589   8.736   2.371  0.4536 -1.5088  0.1701
 5714SOL    HW227352   1.654   8.766   2.518  0.3992  0.0636 -0.1126
 5715SOL     OW27353   2.256   4.390   0.846 -0.1859 -0.1049  0.6431
 5715SOL    HW127354   2.238   4.403   0.748 -2.3247 -0.6627  0.9371
 5715SOL    HW227355   2.241   4.294   0.870 -0.5124  0.2081  1.6965
 5716SOL     OW27356   1.860   9.729   2.576  0.2565 -0.1062  0.0527
 5716SOL    HW127357   1.858   9.823   2.611  2.6439 -0.5025  1.3474
 5716SOL    HW227358   1.821   9.667   2.645  0.0945 -0.2676 -0.1817
 5717SOL     OW27359   9.820   9.812   1.944 -0.4469  0.4957 -0.0189
 5717SOL    HW127360   9.764   9.783   1.867 -1.4973  0.4379  0.7594
 5717SOL    HW227361   9.856   9.731   1.991 -0.5834  0.5139  0.1183
 5718SOL     OW27362   7.608   1.401   2.203 -0.1505 -0.1153 -0.9327
 5718SOL    HW127363   7.667   1.443   2.134 -0.6076  0.1633 -1.1582
 5718SOL    HW227364   7.575   1.470   2.267 -2.1577  0.1861 -2.2253
 5719SOL     OW27365   6.501   9.894   1.860  0.4234 -0.3920  0.3187
 5719SOL    HW127366   6.457   9.833   1.794  0.2120 -0.3673  0.4399
 5719SOL    HW227367   6.573   9.945   1.814 -0.0801  0.0152 -0.0164
 5720SOL     OW27368   3.288   7.445   0.472  0.1870 -0.2358  0.4195
 5720SOL    HW127369   3.350   7.378   0.513 -0.5748 -1.7625 -0.8462
 5720SOL    HW227370   3.201   7.446   0.522  0.0300 -0.5542  0.1602
 5721SOL     OW27371   3.786   9.162   0.112  0.0735  0.7473 -0.3749
 5721SOL    HW127372   3.770   9.260   0.103  2.0509  1.2689  1.2968
 5721SOL    HW227373   3.812   9.141   0.206  2.6871 -0.9271 -1.4191
 5722SOL     OW27374   1.231   7.894   0.829 -0.2844 -0.2911 -0.0314
 5722SOL    HW127375   1.244   7.988   0.861 -0.2153 -0.3707  0.1772
 5722SOL    HW227376   1.175   7.844   0.895 -1.2056 -0.0996 -0.6620
 5723SOL     OW27377   0.783   5.484   1.815  0.1729 -0.3462  1.2212
 5723SOL    HW127378   0.871   5.451   1.850  0.5086 -0.8780 -0.0731
 5723SOL    HW227379   0.749   5.420   1.745 -0.9564  0.1591  1.3018
 5724SOL     OW27380   4.222   9.466   2.746 -0.0541 -0.7627 -0.4636
 5724SOL    HW127381   4.320   9.449   2.751 -0.3762 -3.0940 -1.5412
 5724SOL    HW227382   4.183   9.465   2.838  1.0002  0.7549  0.0165
 5725SOL     OW27383   3.051   6.817   1.358 -0.0042  0.2873 -0.5164
 5725SOL    HW127384   3.062   6.755   1.280 -1.2907 -0.6514  0.0437
 5725SOL    HW227385   2.979   6.784   1.418  1.2682  0.7596  1.3217
 5726SOL     OW27386   0.858   2.156   2.989 -0.1700  0.1845  0.0764
 5726SOL    HW127387   0.814   2.138   2.902 -0.4810 -0.2034  0.3112
 5726SOL    HW227388   0.890   2.070   3.029  0.2906  0.3986  0.1758
 5727SOL     OW27389   2.335   6.743   2.518  0.0992 -0.6615 -0.3631
 5727SOL    HW127390   2.379   6.769   2.432  0.9896 -0.8028  0.0470
 5727SOL    HW227391   2.314   6.645   2.517  1.1923 -0.9050  0.0537
 5728SOL     OW27392   0.587   6.147   2.821 -0.1221  0.3007  0.1807
 5728SOL    HW127393   0.493   6.163   2.850 -0.9271 -0.7406 -1.7193
 5728SOL    HW227394   0.605   6.199   2.737 -0.4217 -2.7486 -1.8873
 5729SOL     OW27395   2.187   0.314   2.263 -0.1347 -0.2073 -0.6229
 5729SOL    HW127396   2.173   0.258   2.181  0.9273  0.0159 -0.9668
 5729SOL    HW227397   2.102   0.319   2.315 -0.9819  0.1200 -2.0116
 5730SOL     OW27398   0.069   6.665   1.792 -0.3721 -0.2185 -0.3648
 5730SOL    HW127399   0.120   6.640   1.874 -1.4308  2.9723  1.3564
 5730SOL    HW227400   0.007   6.591   1.768 -1.9793 -0.1811  3.3360
 5731SOL     OW27401   9.358   1.122   0.656  0.4136 -0.0031  0.1413
 5731SOL    HW127402   9.271   1.075   0.642 -0.3931  2.2888 -3.0948
 5731SOL    HW227403   9.424   1.092   0.586  1.0224  1.0166  0.2695
 5732SOL     OW27404   2.522   2.538   3.237 -0.6210  0.4423 -0.3823
 5732SOL    HW127405   2.487   2.595   3.163 -1.1668 -0.1069 -0.5542
 5732SOL    HW227406   2.471   2.557   3.321  0.6165  1.7366  0.0936
 5733SOL     OW27407   9.607   1.607   2.021  0.1416 -0.3562  0.1686
 5733SOL    HW127408   9.626   1.591   1.925 -0.9081 -1.8337  0.2046
 5733SOL    HW227409   9.513   1.581   2.042 -0.2990  1.8912  1.1523
 5734SOL     OW27410   1.089   5.511   2.189  0.3151 -0.1158  0.2039
 5734SOL    HW127411   1.164   5.547   2.244  1.7145 -0.0269 -1.7251
 5734SOL    HW227412   1.020   5.470   2.250  0.9571  1.5512  2.1102
 5735SOL     OW27413   2.611   0.249   3.435  0.0193  0.2521 -0.1248
 5735SOL    HW127414   2.569   0.175   3.383 -0.9599 -0.7508  2.0297
 5735SOL    HW227415   2.543   0.320   3.453  0.3443  0.5759 -0.1706
 5736SOL     OW27416   0.442   8.850   1.741  0.5250 -0.0096 -0.7652
 5736SOL    HW127417   0.519   8.839   1.804 -0.4143  0.5654  0.5115
 5736SOL    HW227418   0.423   8.763   1.697  3.4981  0.4027 -3.0197
 5737SOL     OW27419   2.304   4.997   1.264  0.0473  0.3308  0.2575
 5737SOL    HW127420   2.343   4.907   1.246 -1.4114 -0.8089  2.4970
 5737SOL    HW227421   2.210   5.000   1.229 -0.2102  0.6694  0.9693
 5738SOL     OW27422   0.801   7.761   1.634  0.5008 -0.1829  0.5524
 5738SOL    HW127423   0.855   7.830   1.586  0.9027  0.0731  1.3580
 5738SOL    HW227424   0.741   7.807   1.700  0.8315 -0.6224  1.1517
 5739SOL     OW27425   3.733   8.553   1.571 -0.0661 -0.2232 -0.3060
 5739SOL    HW127426   3.659   8.574   1.507 -1.0182 -0.5771  0.6567
 5739SOL    HW227427   3.703   8.481   1.634  1.0029 -0.1802  0.2729
 5740SOL     OW27428   2.790   2.309   0.491  0.1370 -0.3369 -0.1119
 5740SOL    HW127429   2.699   2.289   0.528 -0.3203  1.8698  0.0058
 5740SOL    HW227430   2.858   2.305   0.564 -0.0219 -0.9227  0.0064
 5741SOL     OW27431   4.442   0.425   0.819  0.3439 -0.1942  0.4885
 5741SOL    HW127432   4.398   0.487   0.883  2.1158 -0.5930  2.1451
 5741SOL    HW227433   4.454   0.335   0.862 -2.3344 -1.7951 -1.9166
 5742SOL     OW27434   0.222   3.476   0.970 -0.0004  0.5639 -0.1311
 5742SOL    HW127435   0.164   3.536   1.025  0.6504  0.7642  0.3575
 5742SOL    HW227436   0.166   3.418   0.912 -0.5965  2.5994 -1.6195
 5743SOL     OW27437   3.578   5.363   2.182 -0.3690 -0.2567 -0.4614
 5743SOL    HW127438   3.508   5.330   2.245 -0.8802  1.8775  0.1180
 5743SOL    HW227439   3.628   5.439   2.223  0.8647 -0.3630 -1.7143
 5744SOL     OW27440   2.271   7.393   3.293  0.6285  0.0792 -0.1330
 5744SOL    HW127441   2.224   7.470   3.251 -0.6682 -1.4686 -1.5886
 5744SOL    HW227442   2.370   7.410   3.295  0.3425  1.8337 -0.2383
 5745SOL     OW27443   7.314   0.842   0.139  0.2932  0.1900  0.2515
 5745SOL    HW127444   7.322   0.776   0.065  0.2434  0.8972 -0.3963
 5745SOL    HW227445   7.302   0.934   0.101  3.2732  0.9777  1.0736
 5746SOL     OW27446   0.683   3.235   1.228  0.3057  0.5427 -0.4221
 5746SOL    HW127447   0.632   3.318   1.250  0.0143  0.5404 -1.0899
 5746SOL    HW227448   0.780   3.256   1.220  0.5714  0.3612  1.8965
 5747SOL     OW27449   1.387   2.924   0.371  0.6588 -0.5034  0.5147
 5747SOL    HW127450   1.294   2.892   0.390  1.2282 -1.3290  2.0160
 5747SOL    HW227451   1.384   3.008   0.317 -0.9385 -0.9510 -0.1031
 5748SOL     OW27452   7.520   0.242   1.793 -0.3907 -0.3073 -0.4688
 5748SOL    HW127453   7.477   0.242   1.883  2.4556  0.9632  0.9721
 5748SOL    HW227454   7.593   0.172   1.792 -2.2156 -2.2520 -2.7479
 5749SOL     OW27455   0.563   6.596   1.153  0.2205  0.5188 -0.0374
 5749SOL    HW127456   0.544   6.538   1.074  0.2861  0.7607 -0.2305
 5749SOL    HW227457   0.662   6.610   1.162  0.2524 -0.0086  0.4446
 5750SOL     OW27458   2.812   9.750   1.690 -0.1734 -0.0198 -0.2586
 5750SOL    HW127459   2.780   9.843   1.705  0.7186  0.3254 -0.4792
 5750SOL    HW227460   2.758   9.708   1.616 -0.8437  0.1753  0.1155
 5751SOL     OW27461   1.636   9.271   2.570 -0.2275  0.0868 -0.0738
 5751SOL    HW127462   1.558   9.305   2.518 -0.1894  1.7793  0.9410
 5751SOL    HW227463   1.623   9.174   2.590 -1.6495  0.1417 -0.6676
 5752SOL     OW27464   0.647   8.988   0.467 -0.2068  0.7033 -0.3246
 5752SOL    HW127465   0.708   8.954   0.394 -0.4001 -0.7996  0.1946
 5752SOL    HW227466   0.585   9.057   0.429 -0.2877 -0.0432 -1.5957
 5753SOL     OW27467   7.396   1.010   2.289 -0.1222  0.4697 -0.0675
 5753SOL    HW127468   7.391   1.099   2.243 -1.5786  0.1726 -0.4913
 5753SOL    HW227469   7.428   1.023   2.383 -1.0497  1.5322  0.1068
 5754SOL     OW27470   2.024   2.526   1.778 -0.2346  0.2952  0.7465
 5754SOL    HW127471   2.061   2.595   1.716 -1.1909  0.7495  0.6655
 5754SOL    HW227472   2.087   2.511   1.853  0.5784  0.3047  0.0734
 5755SOL     OW27473   4.627   0.601   1.338 -0.0847 -0.5493  0.0812
 5755SOL    HW127474   4.652   0.511   1.303  1.5528  0.6858 -2.0705
 5755SOL    HW227475   4.575   0.651   1.268 -0.5610  0.3465  1.0624
 5756SOL     OW27476   4.475  10.000   1.955 -0.4238  0.5413  0.3561
 5756SOL    HW127477   4.400  10.058   1.984 -0.6772  0.7946 -0.7937
 5756SOL    HW227478   4.556  10.056   1.935 -0.1720  0.3445  0.8075
 5757SOL     OW27479   2.450   4.778   1.179  0.2313 -0.2385 -0.6766
 5757SOL    HW127480   2.425   4.692   1.134  0.1236 -0.7566  0.3633
 5757SOL    HW227481   2.549   4.780   1.195  0.1206 -0.5283  0.0428
 5758SOL     OW27482   2.264   3.509   1.998 -0.1543  0.0595  0.4486
 5758SOL    HW127483   2.278   3.504   2.097 -1.3847  1.2250  0.6927
 5758SOL    HW227484   2.316   3.585   1.961  2.6458 -2.1290 -0.2676
 5759SOL     OW27485   2.962   7.672   2.624 -0.2094  0.0027 -0.2277
 5759SOL    HW127486   2.937   7.636   2.714 -0.8997  0.1689 -0.3499
 5759SOL    HW227487   2.924   7.613   2.552 -0.5112  0.4244 -0.4182
 5760SOL     OW27488   4.262   1.976   0.686  0.6122 -0.2781 -0.5150
 5760SOL    HW127489   4.237   2.062   0.643 -0.2233 -0.8343 -1.1629
 5760SOL    HW227490   4.271   1.905   0.615  0.8401 -0.8255  0.0585
 5761SOL     OW27491   0.694   1.989   0.395  1.0863 -0.1953  0.4040
 5761SOL    HW127492   0.790   2.017   0.387  0.9780 -0.3199 -1.6192
 5761SOL    HW227493   0.640   2.065   0.430  1.5207  0.7319 -0.8842
 5762SOL     OW27494   4.371   0.725   2.119  0.4793  0.2738 -0.0083
 5762SOL    HW127495   4.271   0.723   2.112  0.5632  2.6430 -2.6766
 5762SOL    HW227496   4.410   0.751   2.031  3.3967  0.8492  1.4035
 5763SOL     OW27497   4.864   9.264   2.554 -0.5097  0.0129  0.3519
 5763SOL    HW127498   4.959   9.250   2.526 -1.1925 -1.4140 -1.3492
 5763SOL    HW227499   4.813   9.180   2.539 -2.8975  1.8578 -2.3807
 5764SOL     OW27500   2.193   3.485   1.580 -0.0897  0.5023 -0.5623
 5764SOL    HW127501   2.270   3.441   1.626 -0.6142  0.8533  0.6624
 5764SOL    HW227502   2.188   3.581   1.607 -3.2984 -0.4024  2.5230
 5765SOL     OW27503   7.955   1.522   1.728 -0.1795  0.1051 -0.1054
 5765SOL    HW127504   7.940   1.487   1.636  0.5377  0.9352 -0.5371
 5765SOL    HW227505   8.000   1.611   1.724  1.9509 -0.8858  1.0790
 5766SOL     OW27506   2.239   3.312   0.329 -0.3357 -0.1168  0.2691
 5766SOL    HW127507   2.307   3.380   0.301  0.7099 -0.9942  0.6552
 5766SOL    HW227508   2.174   3.355   0.392  1.4959  0.0524  2.1196
 5767SOL     OW27509   2.114   0.087   2.856 -0.3246 -0.4671  0.2126
 5767SOL    HW127510   2.017   0.104   2.873 -0.2066 -0.7466  1.1828
 5767SOL    HW227511   2.125  -0.005   2.817 -0.3225 -1.0112  1.4716
 5768SOL     OW27512   0.254   8.291   1.709  0.5992  0.2239  0.0756
 5768SOL    HW127513   0.287   8.198   1.726  1.0959  0.5743  1.0544
 5768SOL    HW227514   0.244   8.339   1.796 -1.7566  0.3822 -0.2432
 5769SOL     OW27515   3.243   4.304   1.511  0.1296 -0.0811  0.6755
 5769SOL    HW127516   3.332   4.262   1.498  0.6846  1.3222 -0.2047
 5769SOL    HW227517   3.174   4.234   1.528  1.4131 -1.1657  1.4382
 5770SOL     OW27518   0.261   3.753   2.529 -0.0727 -0.4057 -0.1562
 5770SOL    HW127519   0.204   3.803   2.465  0.2951 -1.0512 -0.9900
 5770SOL    HW227520   0.207   3.680   2.573 -0.1834 -0.3007 -0.1175
 5771SOL     OW27521   7.576   2.131   0.944  0.4189 -0.0449  0.2654
 5771SOL    HW127522   7.549   2.219   0.983 -2.4049 -1.5772  1.9284
 5771SOL    HW227523   7.631   2.081   1.011  1.0746 -0.0427 -0.2597
 5772SOL     OW27524   3.528   6.969   2.496 -0.0498  0.1715 -0.2448
 5772SOL    HW127525   3.471   6.904   2.444 -0.4183  1.4442 -1.4518
 5772SOL    HW227526   3.548   6.930   2.586 -1.2067 -1.1451 -0.5276
 5773SOL     OW27527   4.083   3.972   3.426 -0.3876 -0.0375  0.0846
 5773SOL    HW127528   4.047   3.925   3.507 -2.6102  1.4623  0.0134
 5773SOL    HW227529   4.090   3.908   3.350  2.6687 -1.7188  1.6509
 5774SOL     OW27530   1.444   2.492   0.307  0.0675  0.4169  0.2642
 5774SOL    HW127531   1.357   2.445   0.322  1.4767 -2.4013  0.0419
 5774SOL    HW227532   1.430   2.570   0.247 -2.3475  0.1740  0.4682
 5775SOL     OW27533   4.510   9.719   0.194 -0.1340  0.0378 -0.0710
 5775SOL    HW127534   4.539   9.815   0.196  0.7455 -0.2336  2.5276
 5775SOL    HW227535   4.470   9.698   0.105 -0.3290  2.8069 -0.6857
 5776SOL     OW27536   0.503   7.711   1.269 -0.0281 -0.7820 -0.1120
 5776SOL    HW127537   0.553   7.696   1.354 -0.9293  0.3619  0.6208
 5776SOL    HW227538   0.448   7.794   1.276  0.0768 -0.5368 -1.8961
 5777SOL     OW27539   2.743   2.584   3.030 -0.1328  0.3883 -0.3979
 5777SOL    HW127540   2.717   2.487   3.025 -0.0322  0.1981  1.9597
 5777SOL    HW227541   2.701   2.625   3.111  2.7386  1.3890  0.6631
 5778SOL     OW27542   3.910   8.046   3.157  0.1218  0.1515 -0.3155
 5778SOL    HW127543   3.913   8.129   3.102 -0.3322 -0.2447 -0.9534
 5778SOL    HW227544   3.819   8.037   3.199 -0.0770 -0.3992 -0.8523
 5779SOL     OW27545   2.600   0.052   1.437 -0.2387  0.2777 -0.7038
 5779SOL    HW127546   2.520   0.092   1.393  0.2426  1.5458 -0.4530
 5779SOL    HW227547   2.683   0.095   1.401  0.4146 -1.7205 -1.6998
 5780SOL     OW27548   9.466   0.007   2.111 -0.0359 -0.3745 -0.5253
 5780SOL    HW127549   9.487  -0.091   2.111  0.2874 -0.3412 -2.8655
 5780SOL    HW227550   9.367   0.020   2.117 -0.1602 -0.8860 -1.3306
 5781SOL     OW27551   2.786   9.852   3.144 -0.1471 -0.5676 -0.0385
 5781SOL    HW127552   2.801   9.764   3.099 -2.0090 -0.3590 -1.1243
 5781SOL    HW227553   2.705   9.847   3.203 -0.8281  0.6590 -0.8415
 5782SOL     OW27554   4.313   0.571   1.007 -0.6528  0.3053 -1.0356
 5782SOL    HW127555   4.300   0.516   1.089 -1.6495 -0.2756 -1.5724
 5782SOL    HW227556   4.234   0.631   0.995  0.4044  1.8396 -0.4796
 5783SOL     OW27557   8.043   4.716   0.640 -0.4634  0.1902  0.0999
 5783SOL    HW127558   8.021   4.670   0.726 -0.1115 -0.4530 -0.1482
 5783SOL    HW227559   8.076   4.648   0.574 -0.0350  0.7831 -0.2996
 5784SOL     OW27560   2.865   0.124   1.336 -0.0551  0.1588 -0.4531
 5784SOL    HW127561   2.854   0.223   1.339 -1.2139  0.0677 -1.3074
 5784SOL    HW227562   2.922   0.094   1.412  0.6311  1.5224 -0.4280
 5785SOL     OW27563   3.120   7.771   0.012  0.9316  0.7121 -0.2831
 5785SOL    HW127564   3.089   7.688   0.059  1.3531  0.4369 -0.4958
 5785SOL    HW227565   3.177   7.825   0.074  1.0786  0.5923 -0.3136
 5786SOL     OW27566   3.251   5.980   2.441 -0.3193  0.4417  0.0046
 5786SOL    HW127567   3.200   5.998   2.356  1.4693 -1.2785 -1.5007
 5786SOL    HW227568   3.264   6.066   2.490  0.5814  1.8969 -2.6351
 5787SOL     OW27569   8.328   4.821   0.714 -0.3752 -0.0875  0.3136
 5787SOL    HW127570   8.243   4.772   0.696  0.0777 -0.0357 -2.1448
 5787SOL    HW227571   8.310   4.919   0.719 -0.5502 -0.1225  0.3687
 5788SOL     OW27572   9.936   4.552   2.377 -0.4597 -0.5260 -0.2833
 5788SOL    HW127573   9.928   4.562   2.278  1.4312 -1.1289 -0.5132
 5788SOL    HW227574  10.032   4.560   2.404 -0.9810 -0.1379  1.5325
 5789SOL     OW27575   9.569   1.567   0.201 -0.3176  0.9420 -0.0571
 5789SOL    HW127576   9.486   1.567   0.145 -0.7412  0.8849  0.5635
 5789SOL    HW227577   9.645   1.528   0.149 -1.0585 -0.4908 -0.0833
 5790SOL     OW27578   0.568   6.241   1.837  0.0390  0.2503 -0.4521
 5790SOL    HW127579   0.634   6.302   1.881 -1.1516 -0.7764  2.9313
 5790SOL    HW227580   0.599   6.146   1.846  0.2595  0.0596 -2.8135
 5791SOL     OW27581   2.875   2.409   1.901 -0.1342 -0.4248 -0.2785
 5791SOL    HW127582   2.923   2.322   1.914 -2.4293 -1.5097  1.1378
 5791SOL    HW227583   2.777   2.396   1.915 -0.6763  2.1309 -1.3874
 5792SOL     OW27584   3.911   9.656   0.069 -0.0121  0.2801 -0.4672
 5792SOL    HW127585   3.986   9.625   0.011  0.5602  0.4935  0.1570
 5792SOL    HW227586   3.877   9.744   0.035  2.4282  1.9948  1.3697
 5793SOL     OW27587   4.868   0.975   2.632 -0.1905 -0.3896  0.0089
 5793SOL    HW127588   4.821   1.047   2.684  1.8013  0.8940  0.0801
 5793SOL    HW227589   4.881   1.006   2.538  0.5113 -0.7330 -0.0064
 5794SOL     OW27590   3.411   8.171   2.566 -0.3790  0.4753  0.1911
 5794SOL    HW127591   3.374   8.079   2.573 -1.4892  0.8306 -0.7818
 5794SOL    HW227592   3.511   8.168   2.576 -0.4932 -0.7001  1.1176
 5795SOL     OW27593   2.670   8.704   2.892 -0.8890  0.7748  0.0047
 5795SOL    HW127594   2.628   8.619   2.862  0.7456  0.2930 -0.9534
 5795SOL    HW227595   2.744   8.729   2.829  1.9157  0.2962  2.9692
 5796SOL     OW27596   1.286   9.680   2.855 -0.0738  0.5671 -0.2954
 5796SOL    HW127597   1.365   9.671   2.794  1.1370 -2.9155  1.6673
 5796SOL    HW227598   1.286   9.771   2.897  1.8533  1.2341 -1.6768
 5797SOL     OW27599   9.910   8.853   1.508 -0.2462  0.5273  0.0124
 5797SOL    HW127600   9.999   8.896   1.489 -0.5254  1.7522  1.4058
 5797SOL    HW227601   9.836   8.914   1.482 -0.6690  0.2012  0.4232
 5798SOL     OW27602   8.678   3.496   2.298  0.1685 -0.2904 -0.0946
 5798SOL    HW127603   8.692   3.538   2.387 -2.6607  1.6970 -0.5123
 5798SOL    HW227604   8.765   3.497   2.247  0.9093  2.2689  1.0994
 5799SOL     OW27605   0.253   1.053   0.216  0.6914 -0.2627 -0.1903
 5799SOL    HW127606   0.185   1.096   0.158 -1.5020 -1.4150  1.4459
 5799SOL    HW227607   0.285   0.968   0.174  1.4644  0.4837 -1.1481
 5800SOL     OW27608   9.877   2.876   3.109 -0.0496  0.1219  0.6281
 5800SOL    HW127609   9.868   2.821   3.192 -1.1794  0.8244  0.9795
 5800SOL    HW227610   9.826   2.961   3.120 -0.6084  0.0081 -0.9625
 5801SOL     OW27611   2.203   5.942   2.509  0.3179  0.0264  0.3953
 5801SOL    HW127612   2.266   5.873   2.547  1.4680 -0.5137 -2.3806
 5801SOL    HW227613   2.212   5.944   2.410 -3.3344  0.7041  0.0177
 5802SOL     OW27614   1.858   2.330   1.866  0.2173 -0.2691  0.7995
 5802SOL    HW127615   1.909   2.411   1.837 -0.9614  0.2647  0.1743
 5802SOL    HW227616   1.855   2.264   1.791  1.0837 -0.8483  1.2714
 5803SOL     OW27617   0.976   0.911   0.148  0.1505 -0.1346 -0.0995
 5803SOL    HW127618   0.947   0.846   0.219  0.3846 -0.2123 -0.0749
 5803SOL    HW227619   1.017   0.991   0.192  1.1387 -0.5887 -0.1726
 5804SOL     OW27620   7.323   0.765   2.993  0.5314 -0.1446 -0.1703
 5804SOL    HW127621   7.368   0.807   3.072  1.2891  0.3239 -0.8412
 5804SOL    HW227622   7.306   0.668   3.012 -0.9390  0.3746  1.2619
 5805SOL     OW27623   1.324   5.388   2.614 -0.7279  0.3550  0.5431
 5805SOL    HW127624   1.394   5.332   2.571  1.2099  1.3212  2.3872
 5805SOL    HW227625   1.234   5.364   2.576  0.0531 -3.8106  1.1055
 5806SOL     OW27626   6.064   9.588   2.187  0.3442  0.1280 -0.1924
 5806SOL    HW127627   6.051   9.588   2.088  2.7634 -1.9825 -0.5570
 5806SOL    HW227628   6.144   9.643   2.210  0.2902 -0.0727  0.4894
 5807SOL     OW27629   1.114   4.841   2.703  0.1321  0.3818  0.5498
 5807SOL    HW127630   1.157   4.855   2.614  0.3530  1.0794  0.7595
 5807SOL    HW227631   1.039   4.907   2.714 -1.2232 -1.0538  0.0435
 5808SOL     OW27632   4.236   3.119   3.420 -0.6357 -0.6805 -0.6968
 5808SOL    HW127633   4.247   3.119   3.519  2.1074  1.3627 -0.9623
 5808SOL    HW227634   4.259   3.028   3.384  0.2133 -0.8768  0.3334
 5809SOL     OW27635   3.218   3.599   0.722 -0.0318 -0.5351  0.2910
 5809SOL    HW127636   3.135   3.612   0.777 -0.3953  1.9752 -0.7949
 5809SOL    HW227637   3.296   3.637   0.772  0.3683 -2.1249  0.9268
 5810SOL     OW27638   7.575   1.856   1.091  0.0959  0.0565  0.1734
 5810SOL    HW127639   7.570   1.788   1.165  0.5875 -0.8538 -0.6193
 5810SOL    HW227640   7.584   1.809   1.004 -2.0202  1.0660 -0.6364
 5811SOL     OW27641   0.112   2.814   0.032 -0.3120  0.0729 -0.5073
 5811SOL    HW127642   0.112   2.911   0.008  0.7616  0.1112 -0.3967
 5811SOL    HW227643   0.162   2.802   0.118  1.5232 -0.8358 -1.6771
 5812SOL     OW27644   1.038   3.973   0.593  0.2557  0.3119  0.3901
 5812SOL    HW127645   0.959   3.954   0.650  0.1719 -1.2491 -0.2195
 5812SOL    HW227646   1.107   4.023   0.646  0.0351 -0.8100  1.7528
 5813SOL     OW27647   4.800   9.596   2.938  0.2582  0.0806 -0.5967
 5813SOL    HW127648   4.850   9.567   3.019 -2.4977 -0.2180  1.0533
 5813SOL    HW227649   4.809   9.527   2.866  2.1976  0.0567 -0.3630
 5814SOL     OW27650   8.793   0.826   3.076  0.5294 -0.5671 -0.0664
 5814SOL    HW127651   8.840   0.741   3.055 -0.6993 -0.8041 -1.9727
 5814SOL    HW227652   8.738   0.815   3.159  1.8803 -1.0167  0.7863
 5815SOL     OW27653   1.558   2.774   2.424 -0.1632  0.4443  0.3163
 5815SOL    HW127654   1.507   2.801   2.343  1.5244  0.0250 -0.9143
 5815SOL    HW227655   1.495   2.739   2.493 -1.5414  0.0848 -1.1001
 5816SOL     OW27656   4.055   0.544   1.576 -0.3788 -0.1946  0.4794
 5816SOL    HW127657   3.996   0.535   1.657  0.5437 -2.7115  0.9131
 5816SOL    HW227658   4.014   0.495   1.499  0.1186 -0.1411  0.1761
 5817SOL     OW27659   0.127   6.073   0.039 -0.2013 -0.4716 -0.9461
 5817SOL    HW127660   0.089   6.157   0.079 -1.1590 -0.8160 -1.1347
 5817SOL    HW227661   0.141   6.005   0.111 -0.2437 -0.4641 -0.9311
 5818SOL     OW27662   9.865   1.761   0.252  0.1678  0.2411 -0.1570
 5818SOL    HW127663   9.777   1.789   0.292  0.8934  2.1352  0.1883
 5818SOL    HW227664   9.857   1.757   0.153  0.0015  1.6050 -0.2066
 5819SOL     OW27665   2.073   7.857   3.298  0.1435  0.5783 -0.4395
 5819SOL    HW127666   2.096   7.824   3.390  2.3255  1.1486 -0.7405
 5819SOL    HW227667   1.989   7.911   3.302 -1.0779 -1.3626  0.7970
 5820SOL     OW27668   0.758   1.874   3.025  0.4441 -0.3902  0.5150
 5820SOL    HW127669   0.810   1.891   3.109  1.0653  0.4841 -0.0338
 5820SOL    HW227670   0.669   1.919   3.032  0.9335  0.6518  0.2628
 5821SOL     OW27671   1.514   5.548   0.155  0.4380 -0.6092  0.2096
 5821SOL    HW127672   1.450   5.552   0.233  1.5835  1.2204  1.0923
 5821SOL    HW227673   1.580   5.474   0.170 -0.5456 -1.5428  0.0094
 5822SOL     OW27674   4.933   2.058   1.295 -0.2453  0.1674  0.1002
 5822SOL    HW127675   4.916   2.068   1.197  0.8710  1.2890  0.0015
 5822SOL    HW227676   4.846   2.055   1.344 -0.8610 -2.1504 -1.0672
 5823SOL     OW27677   2.250   4.231   3.085  0.1471  0.1117  0.1723
 5823SOL    HW127678   2.274   4.198   2.993 -3.0669 -0.3022 -0.5870
 5823SOL    HW227679   2.194   4.162   3.131 -0.1025  1.2509  1.5944
 5824SOL     OW27680   4.920   1.428   1.841 -0.2742 -0.1021  0.3692
 5824SOL    HW127681   4.885   1.431   1.935 -0.6662 -1.9475  0.3012
 5824SOL    HW227682   4.853   1.381   1.783  0.1781  0.6233 -0.7423
 5825SOL     OW27683   0.895   9.801   1.630 -0.4257 -0.3234  0.3842
 5825SOL    HW127684   0.928   9.780   1.538 -0.5606  1.2478 -0.0325
 5825SOL    HW227685   0.966   9.780   1.697  0.6780  1.0836 -0.3261
 5826SOL     OW27686   8.674   3.024   1.335  0.4628 -0.1751  0.0745
 5826SOL    HW127687   8.607   3.080   1.286 -0.3232 -0.3511  0.9319
 5826SOL    HW227688   8.704   3.072   1.418 -1.8262 -1.8632  1.9721
 5827SOL     OW27689   3.575   4.058   2.936  0.0045 -0.1113 -0.1198
 5827SOL    HW127690   3.581   4.103   2.847 -2.4967  0.7769  0.1346
 5827SOL    HW227691   3.604   4.120   3.008  0.6714 -0.3575 -0.1738
 5828SOL     OW27692   1.044   3.739   0.915 -0.7514  0.7174  0.3592
 5828SOL    HW127693   1.074   3.678   0.988 -0.8078  1.0949  0.6977
 5828SOL    HW227694   0.945   3.737   0.909 -0.6590 -0.7982 -0.9897
 5829SOL     OW27695   0.989   1.084   1.007 -0.2120  0.3140  0.3674
 5829SOL    HW127696   0.971   1.092   0.910 -0.3566  0.3982  0.4023
 5829SOL    HW227697   1.063   1.146   1.033 -1.9992  2.3152  0.8330
 5830SOL     OW27698   7.782   3.970   0.523 -0.2946  0.0939 -0.0107
 5830SOL    HW127699   7.754   3.880   0.491 -0.6701  0.2773 -0.2121
 5830SOL    HW227700   7.791   4.032   0.445  3.7562 -0.7474 -0.3164
 5831SOL     OW27701   1.137   7.209   1.127  0.2138 -0.4588 -0.1168
 5831SOL    HW127702   1.128   7.276   1.200 -0.5629 -1.6660  0.9198
 5831SOL    HW227703   1.132   7.255   1.039 -1.7073  0.7065  0.5606
 5832SOL     OW27704   2.646   5.420   1.680  0.6680 -0.5901  0.6089
 5832SOL    HW127705   2.735   5.387   1.649 -0.2235 -2.6007  0.1458
 5832SOL    HW227706   2.580   5.415   1.605 -0.2404 -0.6371  1.3993
 5833SOL     OW27707   2.562   1.952   2.079  0.2119  0.1554  0.4379
 5833SOL    HW127708   2.585   1.976   2.173 -1.5667 -0.2705  1.0097
 5833SOL    HW227709   2.490   1.882   2.079  0.4457 -0.1185 -1.2354
 5834SOL     OW27710   3.816   2.200   0.145  0.0798  0.1409  0.0362
 5834SOL    HW127711   3.729   2.240   0.117  0.2607 -0.5578 -1.6417
 5834SOL    HW227712   3.872   2.184   0.063  1.1481 -0.8461  0.9493
 5835SOL     OW27713   2.971   6.495   2.300  0.1369  0.0192 -0.0636
 5835SOL    HW127714   3.013   6.565   2.358  1.7745 -1.5557  0.7071
 5835SOL    HW227715   3.043   6.439   2.258 -1.1228 -0.7224 -1.2745
 5836SOL     OW27716   2.057   5.912   2.736  0.1750  0.1847  0.5703
 5836SOL    HW127717   2.115   5.910   2.654  0.3185  1.7363  0.6253
 5836SOL    HW227718   2.084   5.838   2.797  1.5459  0.3734  0.2120
 5837SOL     OW27719   2.904   9.444   2.237  0.0807 -0.3472 -0.2550
 5837SOL    HW127720   2.908   9.456   2.138 -2.7265  0.0340 -0.3671
 5837SOL    HW227721   2.962   9.513   2.281  0.1342  0.4787 -1.5773
 5838SOL     OW27722   2.752   6.881   2.284 -0.5908 -0.1988 -0.1183
 5838SOL    HW127723   2.760   6.978   2.264 -1.7861  0.3713  1.9529
 5838SOL    HW227724   2.839   6.836   2.267  0.1114  1.3296 -0.6558
 5839SOL     OW27725   1.911   3.011   0.342  0.2328 -0.3479  0.7190
 5839SOL    HW127726   1.831   2.979   0.393  0.6205 -1.3936  0.6715
 5839SOL    HW227727   1.890   3.100   0.301 -0.4099  0.0619  1.8929
 5840SOL     OW27728   7.697   3.187   0.562 -0.0716 -0.3913  0.8744
 5840SOL    HW127729   7.608   3.147   0.541 -1.3023  1.7725  1.7459
 5840SOL    HW227730   7.750   3.125   0.619 -0.6962 -2.0406 -0.3131
 5841SOL     OW27731   1.916   5.943   1.936  0.0551 -0.0686  0.0408
 5841SOL    HW127732   1.925   5.869   2.003  1.3031 -0.9382 -1.0743
 5841SOL    HW227733   2.005   5.982   1.917 -0.1759 -0.3553 -1.6936
 5842SOL     OW27734   8.296   1.017   0.740 -0.4840 -0.0835 -0.7276
 5842SOL    HW127735   8.291   0.984   0.834 -0.4949 -0.0532 -0.7178
 5842SOL    HW227736   8.390   1.010   0.708 -0.5911 -0.6975 -0.9263
 5843SOL     OW27737   2.627   2.951   0.778 -0.1065 -0.2328  0.5861
 5843SOL    HW127738   2.635   2.967   0.876  0.6604  1.8463  0.2206
 5843SOL    HW227739   2.692   2.881   0.750  0.2651 -0.2276  1.4238
 5844SOL     OW27740   3.493   5.108   1.231 -0.0702 -0.1003  0.0100
 5844SOL    HW127741   3.467   5.117   1.327  2.5189  0.0395  0.7469
 5844SOL    HW227742   3.592   5.094   1.225 -0.1768  0.0565 -2.6576
 5845SOL     OW27743   0.648   1.068   1.401  0.9793  0.0797  0.0929
 5845SOL    HW127744   0.559   1.087   1.442  0.5103  0.8661 -1.2704
 5845SOL    HW227745   0.669   1.138   1.332  0.7674 -2.4328 -2.5989
 5846SOL     OW27746   3.158   0.593   2.729 -0.4147  0.2437  0.2357
 5846SOL    HW127747   3.214   0.596   2.645 -2.6842  1.6949 -1.2675
 5846SOL    HW227748   3.079   0.533   2.714 -0.6574  0.2485  1.4750
 5847SOL     OW27749   1.103   8.696   0.347 -0.5192  0.1414  0.1591
 5847SOL    HW127750   1.153   8.765   0.295 -1.4947  0.6278 -0.1549
 5847SOL    HW227751   1.016   8.735   0.378 -0.5092 -0.5506  1.0596
 5848SOL     OW27752   2.435   8.074   1.122  0.3847  0.0651 -0.0628
 5848SOL    HW127753   2.410   8.170   1.111  0.1128 -0.0587 -0.5192
 5848SOL    HW227754   2.360   8.025   1.167 -0.0079 -0.2051 -1.0021
 5849SOL     OW27755   5.569   9.104   2.106 -0.7882  0.2678  0.4350
 5849SOL    HW127756   5.669   9.099   2.098 -0.7837  1.4402 -0.2331
 5849SOL    HW227757   5.544   9.129   2.200 -0.4498  0.2508  0.5290
 5850SOL     OW27758   0.424   3.108   1.564 -0.4044 -0.1968  0.2977
 5850SOL    HW127759   0.416   3.038   1.636 -0.3167 -0.9160 -0.3782
 5850SOL    HW227760   0.449   3.063   1.478  0.6590  0.7943  0.0865
 5851SOL     OW27761   2.189   3.347   3.294 -0.0982  0.0192  0.5786
 5851SOL    HW127762   2.196   3.285   3.372  0.2299 -1.3383 -0.5097
 5851SOL    HW227763   2.215   3.439   3.322  0.9909 -0.6552  1.8242
 5852SOL     OW27764   3.835   0.488   1.050 -0.1826  0.1532 -0.4558
 5852SOL    HW127765   3.807   0.441   1.134 -1.8616 -0.3391 -1.2611
 5852SOL    HW227766   3.907   0.554   1.071 -0.8571  0.3343  1.4447
 5853SOL     OW27767   0.835   1.484   2.136  0.3851  0.1889  0.1605
 5853SOL    HW127768   0.905   1.521   2.197  2.8318 -1.3246 -1.6695
 5853SOL    HW227769   0.841   1.530   2.047 -1.5992  0.6937  0.2500
 5854SOL     OW27770   0.000   1.106   1.924  0.0020  0.1796  0.0774
 5854SOL    HW127771  -0.069   1.040   1.894 -0.0248  0.4519 -0.4677
 5854SOL    HW227772   0.081   1.099   1.864 -0.0117  0.6569  0.0043
 5855SOL     OW27773   2.878   7.134   1.641 -0.6539 -0.8006  0.1234
 5855SOL    HW127774   2.914   7.225   1.620 -1.1186 -0.7112 -0.3019
 5855SOL    HW227775   2.871   7.081   1.556 -1.0616 -0.9831  0.2709
 5856SOL     OW27776   3.143   5.284   0.960 -1.1143  0.0207 -0.0540
 5856SOL    HW127777   3.117   5.204   0.905 -0.6147  0.3132 -0.7148
 5856SOL    HW227778   3.134   5.367   0.905  0.5336  0.2061 -0.0706
 5857SOL     OW27779   3.040   0.516   2.342 -0.2691  0.3242  0.3831
 5857SOL    HW127780   2.986   0.550   2.265  0.2186 -0.5629 -0.3561
 5857SOL    HW227781   2.992   0.536   2.427 -2.0666 -0.9629 -0.2873
 5858SOL     OW27782   6.057   8.441   2.681 -0.2110 -0.2207  0.1104
 5858SOL    HW127783   6.123   8.395   2.741 -1.4424 -1.7989  0.2935
 5858SOL    HW227784   5.992   8.493   2.737  1.3323  2.0100 -0.1089
 5859SOL     OW27785   1.950   7.769   2.352 -0.0350 -0.6077  0.5248
 5859SOL    HW127786   1.972   7.739   2.445 -0.6784 -1.8285  0.2996
 5859SOL    HW227787   1.854   7.748   2.333 -0.5317  1.7093  0.3745
 5860SOL     OW27788   4.363   7.996   2.380 -0.3285 -0.5895  0.0744
 5860SOL    HW127789   4.414   8.069   2.335  2.4082 -2.0308  0.7540
 5860SOL    HW227790   4.329   8.028   2.468 -0.9734  0.4887 -0.5507
 5861SOL     OW27791   2.096   4.113   3.278  0.2248 -0.0678 -0.2578
 5861SOL    HW127792   2.105   4.015   3.266 -0.2650 -0.2260  0.6350
 5861SOL    HW227793   2.016   4.133   3.334  1.1755  0.7481  0.8618
 5862SOL     OW27794   1.591   0.038   3.182 -0.0277 -0.6086 -0.6548
 5862SOL    HW127795   1.497   0.008   3.172 -0.1755 -0.4280  0.1610
 5862SOL    HW227796   1.639  -0.021   3.248 -0.2850  0.8237  0.8607
 5863SOL     OW27797   3.439   6.618   2.607 -0.4583 -0.3253  0.2273
 5863SOL    HW127798   3.389   6.546   2.656  0.4610 -0.9309  0.2795
 5863SOL    HW227799   3.463   6.691   2.670 -2.3700  0.5790 -0.0437
 5864SOL     OW27800   3.430   9.131   1.538 -0.1651 -0.1939 -0.4777
 5864SOL    HW127801   3.429   9.033   1.559 -0.5926 -0.0586  0.1351
 5864SOL    HW227802   3.436   9.144   1.439 -0.8592 -0.8397 -0.6080
 5865SOL     OW27803   4.340   2.063   1.784  0.3303  0.4002  0.2606
 5865SOL    HW127804   4.400   2.022   1.852  0.8148 -0.9846 -0.9669
 5865SOL    HW227805   4.251   2.017   1.785  0.6353 -0.2258 -0.6320
 5866SOL     OW27806   9.805   6.584   1.031 -0.5498  0.3303 -0.0465
 5866SOL    HW127807   9.821   6.669   1.082 -0.5087  0.5738 -0.4598
 5866SOL    HW227808   9.892   6.542   1.008 -0.5791  0.0351  0.3941
 5867SOL     OW27809   9.844   0.890   1.190 -0.3890  0.6292  0.0898
 5867SOL    HW127810   9.757   0.863   1.231 -1.2780  1.2858 -1.3502
 5867SOL    HW227811   9.853   0.989   1.194  0.5086  0.5326  0.6357
 5868SOL     OW27812   2.853   3.170   1.755 -0.4045 -0.1160 -0.1499
 5868SOL    HW127813   2.802   3.226   1.690 -0.1954  0.1395 -0.0943
 5868SOL    HW227814   2.922   3.117   1.706  0.8267  1.2701  0.0421
 5869SOL     OW27815   9.617   2.793   1.797 -0.2529 -0.2947 -0.2971
 5869SOL    HW127816   9.676   2.873   1.808 -1.2004  0.4738 -0.7409
 5869SOL    HW227817   9.522   2.820   1.811 -0.5067 -1.5277  0.4386
 5870SOL     OW27818   1.396   1.637   3.067 -0.4040 -0.2055  0.6860
 5870SOL    HW127819   1.443   1.550   3.052  0.2770  0.0117  1.5401
 5870SOL    HW227820   1.315   1.621   3.123  0.1186 -0.1828  1.4512
 5871SOL     OW27821   3.455   7.895   1.305  0.0291  0.1810  0.1135
 5871SOL    HW127822   3.469   7.797   1.320  3.9474  0.3696 -1.9398
 5871SOL    HW227823   3.539   7.936   1.271 -1.9691  4.0452 -0.3740
 5872SOL     OW27824   2.784   3.067   1.041 -0.4295 -0.3196 -0.2166
 5872SOL    HW127825   2.821   3.082   1.133  1.1363 -0.7597 -0.7531
 5872SOL    HW227826   2.852   3.019   0.986 -1.5508 -0.4923 -1.4636
 5873SOL     OW27827   2.156   0.078   2.443  0.5576 -0.4356 -0.8034
 5873SOL    HW127828   2.216   0.144   2.399 -1.6000  0.2508 -2.8225
 5873SOL    HW227829   2.190  -0.015   2.426  0.7118 -0.0832 -2.4699
 5874SOL     OW27830   0.942   5.066   1.589 -0.1200  0.4754  0.0907
 5874SOL    HW127831   0.940   5.151   1.538 -0.3499  0.6010  0.3090
 5874SOL    HW227832   1.012   5.005   1.550 -1.6075 -0.1923 -1.5622
 5875SOL     OW27833   9.165   3.313   2.298  0.2201 -0.5142  0.3936
 5875SOL    HW127834   9.242   3.280   2.242  1.2089 -1.5507  2.3200
 5875SOL    HW227835   9.194   3.318   2.394 -1.1425  2.2332  0.6857
 5876SOL     OW27836   3.041   9.024   2.814  0.0625  0.2302  0.2883
 5876SOL    HW127837   3.111   9.023   2.742 -2.0573  0.6577 -1.8693
 5876SOL    HW227838   3.025   8.930   2.845  0.8629  0.0066  0.0506
 5877SOL     OW27839   3.451   2.231   2.852 -0.2080  0.3311 -0.1332
 5877SOL    HW127840   3.448   2.241   2.753  0.8107 -1.2140 -0.3380
 5877SOL    HW227841   3.540   2.193   2.879 -0.4063  0.9096  1.3862
 5878SOL     OW27842   1.236   6.095   1.078  0.2359 -0.0401 -0.2203
 5878SOL    HW127843   1.162   6.075   1.142  1.0392  0.2175  0.7799
 5878SOL    HW227844   1.307   6.149   1.123 -0.8209  3.2131 -2.1958
 5879SOL     OW27845   8.617   0.526   1.694  0.0328  0.6097  0.1686
 5879SOL    HW127846   8.714   0.506   1.701 -0.1688  0.4399  2.6715
 5879SOL    HW227847   8.602   0.624   1.706 -0.1135  0.6423 -0.2532
 5880SOL     OW27848   2.223   3.767   1.610  0.1460  0.0733  0.7725
 5880SOL    HW127849   2.277   3.802   1.686  0.9694  0.9043 -0.1670
 5880SOL    HW227850   2.188   3.844   1.556 -0.4228 -0.5016  0.3103
 5881SOL     OW27851   0.761   3.429   0.970 -0.0286 -0.0031  0.7638
 5881SOL    HW127852   0.761   3.524   0.940  0.0121 -0.6395 -1.3381
 5881SOL    HW227853   0.827   3.377   0.915  1.4900 -0.8317  3.2949
 5882SOL     OW27854   4.698   1.895   1.627  0.0852  0.0367  0.1684
 5882SOL    HW127855   4.774   1.960   1.627  0.0296  0.1017  0.4322
 5882SOL    HW227856   4.666   1.881   1.533  0.0457  0.4528  0.1183
 5883SOL     OW27857   3.779   3.818   0.168 -0.3039 -0.1971 -0.0259
 5883SOL    HW127858   3.698   3.869   0.138 -0.9861 -0.9830  0.4655
 5883SOL    HW227859   3.840   3.879   0.218 -1.2330  0.0809  0.7839
 5884SOL     OW27860   0.907   0.004   2.710 -0.2396 -0.1491 -0.0702
 5884SOL    HW127861   0.985  -0.054   2.686 -2.1336 -2.6802 -0.4029
 5884SOL    HW227862   0.869   0.044   2.627  0.5858  0.9412  0.0727
 5885SOL     OW27863   3.442   3.503   2.594  0.1731  0.1168 -0.9400
 5885SOL    HW127864   3.498   3.450   2.658 -2.1826  0.9257  1.8767
 5885SOL    HW227865   3.503   3.554   2.533  2.5251 -0.7684  0.5563
 5886SOL     OW27866   2.380   6.421   0.164  0.1809  0.1381 -0.3357
 5886SOL    HW127867   2.351   6.371   0.245  1.8800  1.5244  1.1725
 5886SOL    HW227868   2.306   6.422   0.097 -2.0143  0.7015  2.0054
 5887SOL     OW27869   9.529   1.026   3.031  0.3505  0.0306 -0.0988
 5887SOL    HW127870   9.456   1.059   3.090  1.0840 -0.3078  1.0197
 5887SOL    HW227871   9.491   0.997   2.943 -1.0448 -1.3429  0.9219
 5888SOL     OW27872   0.565   8.832   1.053 -0.1301 -0.4166 -0.5937
 5888SOL    HW127873   0.613   8.833   0.966  1.6283 -0.7632  0.3359
 5888SOL    HW227874   0.482   8.776   1.046  0.7547 -1.6000 -1.6521
 5889SOL     OW27875   3.059   6.760   1.073  0.3743 -0.5969 -0.0626
 5889SOL    HW127876   3.085   6.821   0.998  1.0398 -0.9563 -0.1245
 5889SOL    HW227877   3.062   6.665   1.042  1.8242 -0.8398  0.7400
 5890SOL     OW27878   4.217   9.885   1.916  0.7225  0.4375 -0.3690
 5890SOL    HW127879   4.315   9.897   1.935  0.6589  0.2333  0.0729
 5890SOL    HW227880   4.185   9.963   1.862  1.5986 -0.4689 -2.2848
 5891SOL     OW27881   1.751   9.842   1.401  0.2669  0.3795 -0.1642
 5891SOL    HW127882   1.755   9.836   1.500  1.1446  0.2410 -0.2019
 5891SOL    HW227883   1.657   9.862   1.372  0.1544  1.1459  0.7261
 5892SOL     OW27884   2.580   3.305   1.436  0.6825 -0.2297  0.3479
 5892SOL    HW127885   2.490   3.343   1.414  1.0815  0.4661 -0.1233
 5892SOL    HW227886   2.574   3.205   1.441  0.0052 -0.2286 -0.2807
 5893SOL     OW27887   9.152   1.558   0.396 -0.3324  0.4855 -0.2289
 5893SOL    HW127888   9.247   1.540   0.421 -0.4819 -0.6716 -0.4760
 5893SOL    HW227889   9.149   1.602   0.306  0.0009  1.2050  0.1064
 5894SOL     OW27890   1.233   3.190   0.322 -0.2465 -0.7969 -0.1166
 5894SOL    HW127891   1.273   3.274   0.285  0.4759 -0.4165  1.4678
 5894SOL    HW227892   1.194   3.136   0.248 -2.3170  1.7664 -0.9643
 5895SOL     OW27893   1.085   4.389   1.068 -0.2815  0.4376  0.2258
 5895SOL    HW127894   0.991   4.414   1.090 -0.6003  0.6568 -1.3040
 5895SOL    HW227895   1.148   4.459   1.103 -0.6011 -0.1198  1.9699
 5896SOL     OW27896   2.567   4.857   1.489 -0.1959 -0.1013 -0.2643
 5896SOL    HW127897   2.663   4.855   1.464  0.8180  2.0718  3.0196
 5896SOL    HW227898   2.520   4.929   1.437 -0.6679 -2.6615 -3.5481
 5897SOL     OW27899   9.964   7.427   1.963 -0.1811 -0.0254 -0.2658
 5897SOL    HW127900   9.897   7.432   1.890 -0.4730  0.5737  0.0395
 5897SOL    HW227901   9.954   7.341   2.013 -0.9168  0.1941 -0.0329
 5898SOL     OW27902   1.616   5.886   3.318  0.2377 -0.2021 -0.1055
 5898SOL    HW127903   1.555   5.807   3.328  0.8384 -0.6137  0.2887
 5898SOL    HW227904   1.661   5.882   3.229 -2.3502  1.5385 -1.5504
  10.00000  10.00000   3.43667
