chitosan Film  in water:acetic acid 2%
12238
    1CHTO  H203    1   4.835   7.400   2.513 -1.4066 -1.0971 -0.5182
    1CHTO   O82    2   4.889   7.398   2.436 -1.2023 -0.0777 -0.4041
    1CHTO  C123    3   5.025   7.357   2.475  0.1819 -0.2334 -0.5425
    1CHTO  H227    4   5.065   7.424   2.553  0.8792 -0.0339 -1.0764
    1CHTO   O77    5   4.992   7.227   2.536 -0.1547  0.6125  0.0022
    1CHTO  C118    6   5.108   7.166   2.607  0.5183  0.4638 -0.8192
    1CHTO  H222    7   5.155   7.229   2.684  1.1741 -0.4998 -0.4129
    1CHTO  C125    8   5.048   7.044   2.680  0.5182  0.8067  0.1709
    1CHTO   O84    9   4.951   6.960   2.609 -0.9214  0.4458  0.2725
    1CHTO  H205   10   4.873   6.961   2.662  0.7931  0.3665  2.9024
    1CHTO  C114   11   5.218   7.130   2.510  0.5634  0.1449 -0.6518
    1CHTO  H218   12   5.184   7.044   2.452 -1.9810 -0.3320  1.4641
    1CHTO  C116   13   5.251   7.253   2.424  0.4773 -0.5077  0.2825
    1CHTO  H220   14   5.319   7.315   2.486  1.1840 -0.7855 -0.2006
    1CHTO   O79   15   5.340   7.217   2.323  0.1273 -0.1327  0.5122
    1CHTO  H201   16   5.425   7.251   2.341  0.0939  0.3189 -0.1207
    1CHTO  C120   17   5.127   7.337   2.358  0.0098  0.5601 -0.3507
    1CHTO  H224   18   5.078   7.270   2.284  0.6173  0.2612 -0.4860
    1CHTO   N21   19   5.159   7.465   2.297 -0.3372 -0.5425  0.3965
    1CHTO  H211   20   5.240   7.511   2.352  0.9321 -0.7771 -1.2373
    1CHTO  H212   21   5.077   7.535   2.291 -1.1951 -1.6145 -0.5121
    1CHTO   O75   22   5.335   7.087   2.576  0.0369 -0.3726 -0.5120
    1CHTO  C112   23   5.392   6.951   2.539 -0.8053 -0.3825  0.2538
    1CHTO  H216   24   5.365   6.917   2.438  1.7806 -2.0115  0.0625
    1CHTO   O73   25   5.339   6.861   2.640  0.6462  0.6543  0.1092
    1CHTO  C113   26   5.369   6.730   2.601  0.3421  0.1068 -0.4940
    1CHTO  H217   27   5.320   6.718   2.503  0.6033 -1.1279 -0.4777
    1CHTO  C124   28   5.285   6.645   2.696  0.2277  0.0452 -0.0874
    1CHTO   O83   29   5.270   6.512   2.649  0.0448 -0.4178  0.1270
    1CHTO  H204   30   5.195   6.475   2.692 -2.3139  2.2975 -1.5113
    1CHTO  C109   31   5.524   6.696   2.606 -0.2322  0.7304  0.1298
    1CHTO  H213   32   5.551   6.686   2.713  0.4722 -0.9287 -0.1929
    1CHTO  C110   33   5.598   6.811   2.528  0.4255 -0.2625  0.2968
    1CHTO  H214   34   5.593   6.789   2.422 -1.5780 -1.0319  0.5320
    1CHTO   O78   35   5.737   6.797   2.560  0.5322 -0.5714 -0.0447
    1CHTO  H200   36   5.790   6.862   2.518  0.5827 -1.2244 -0.9996
    1CHTO  C111   37   5.543   6.953   2.551 -0.0919  0.0840 -0.2293
    1CHTO  H215   38   5.568   6.988   2.652  0.5182  1.0180 -0.6952
    1CHTO   N19   39   5.602   7.052   2.456  0.2675  0.7467 -0.7449
    1CHTO  H207   40   5.584   7.018   2.355 -0.3838 -0.1411 -0.3432
    1CHTO  H208   41   5.705   7.057   2.486 -0.2457 -2.0448  1.7127
    1CHTO   O74   42   5.557   6.572   2.537  0.4742 -0.8419 -0.0317
    1CHTO  C115   43   5.625   6.469   2.606 -0.9331  0.1546 -0.2604
    1CHTO  H219   44   5.617   6.478   2.714 -1.1109 -0.8875 -0.1874
    1CHTO   O76   45   5.557   6.329   2.572  0.2330 -0.0363 -0.2363
    1CHTO  C122   46   5.569   6.284   2.437 -0.1464  0.4695  0.1971
    1CHTO  H226   47   5.494   6.331   2.374  1.9092 -0.2119 -2.8231
    1CHTO  C126   48   5.549   6.123   2.421  0.3332 -0.5220  0.3831
    1CHTO   O85   49   5.613   6.026   2.496 -0.9523  0.4700  0.1956
    1CHTO  H206   50   5.684   6.059   2.547  0.6493 -1.0914 -0.9915
    1CHTO  C121   51   5.707   6.318   2.369  0.1655 -0.3387 -0.4613
    1CHTO  H225   52   5.744   6.229   2.313  0.6996 -0.7951  0.6052
    1CHTO   O81   53   5.694   6.428   2.286 -0.1801 -0.5468 -0.2557
    1CHTO  H202   54   5.764   6.419   2.225  1.2169  2.8122  0.7846
    1CHTO  C119   55   5.817   6.354   2.473  0.2727  0.1284  0.0775
    1CHTO  H223   56   5.834   6.263   2.531 -1.2732  0.4770  1.1079
    1CHTO  C117   57   5.785   6.466   2.570  0.0067  0.6587 -0.0687
    1CHTO  H221   58   5.808   6.565   2.532  1.0374  1.5155  2.6939
    1CHTO   N20   59   5.873   6.465   2.693 -0.3519  0.0179 -0.2415
    1CHTO  H209   60   5.978   6.466   2.665  0.1008 -0.0232  1.3672
    1CHTO  H210   61   5.866   6.372   2.747  1.4617  1.1299  2.0100
    1CHTO   O80   62   5.960   6.379   2.395 -0.2553 -0.0658 -0.0416
    1CHTO  C103   63   6.081   6.276   2.414  0.3579 -0.5394  0.0806
    1CHTO  H190   64   6.104   6.264   2.520  2.4732 -1.0318 -0.4032
    1CHTO  C101   65   6.061   6.127   2.359  0.8518 -0.1857  0.0156
    1CHTO  H188   66   6.020   6.123   2.258 -1.7125 -0.2671  1.0239
    1CHTO   O68   67   5.955   6.048   2.432  0.1414  0.1176 -0.2106
    1CHTO  H168   68   5.931   5.973   2.382 -0.1602 -0.9770  1.5332
    1CHTO   C99   69   6.195   6.044   2.368  0.2330  0.0265  0.2035
    1CHTO  H186   70   6.222   6.035   2.475 -0.3684  0.1821  0.3670
    1CHTO   N17   71   6.197   5.903   2.318 -0.8892  0.2702 -0.1892
    1CHTO  H174   72   6.159   5.828   2.386  0.8663 -1.2423 -0.8616
    1CHTO  H175   73   6.140   5.901   2.227 -1.5060 -1.3025  0.2152
    1CHTO   C97   74   6.314   6.122   2.300 -0.7230  0.4198 -0.3576
    1CHTO  H184   75   6.305   6.121   2.190 -3.5215 -0.1316 -0.1656
    1CHTO   O64   76   6.321   6.257   2.357 -0.2475 -0.0725 -0.3163
    1CHTO  C104   77   6.204   6.345   2.347  0.0076 -0.0360  0.0123
    1CHTO  H191   78   6.183   6.365   2.242  1.1703  2.6263  0.2498
    1CHTO  C108   79   6.244   6.478   2.411 -0.5800 -0.3554 -0.6223
    1CHTO   O71   80   6.140   6.575   2.404 -0.0713  0.4291  0.6486
    1CHTO  H171   81   6.176   6.655   2.437 -1.0304  0.4115  1.7581
    1CHTO   O62   82   6.447   6.067   2.327  0.0460  0.0355 -0.1398
    1CHTO   C91   83   6.543   6.069   2.223  0.1216  0.4297  0.1633
    1CHTO  H178   84   6.497   6.053   2.125 -1.0664  0.6264  0.6851
    1CHTO   C92   85   6.638   5.950   2.245 -0.3312  0.3603 -0.4036
    1CHTO  H179   86   6.662   5.938   2.352  2.4163  1.1438 -0.9075
    1CHTO   O66   87   6.559   5.830   2.214 -0.1096  0.4152 -0.3661
    1CHTO  H166   88   6.518   5.794   2.290  0.1789 -0.2839 -0.5351
    1CHTO   C93   89   6.768   5.950   2.154 -0.1805  0.5825  0.5565
    1CHTO  H180   90   6.724   5.933   2.054  1.7205  2.1805 -0.5770
    1CHTO   N16   91   6.865   5.845   2.186 -0.3692  0.5277  0.0888
    1CHTO  H172   92   6.941   5.888   2.250 -0.2602 -1.6917  1.5006
    1CHTO  H173   93   6.831   5.759   2.241  3.0371 -0.7432  0.3599
    1CHTO   C94   94   6.835   6.095   2.155 -0.8269 -0.5292 -0.3320
    1CHTO  H181   95   6.882   6.117   2.251  0.4201 -0.9557 -0.8224
    1CHTO   O61   96   6.732   6.189   2.115 -0.2542  0.0832 -0.1084
    1CHTO   C95   97   6.632   6.201   2.215  0.9249 -0.2872  0.3699
    1CHTO  H182   98   6.674   6.227   2.312 -0.9470 -1.4979  1.5418
    1CHTO  C106   99   6.558   6.329   2.177 -0.4496  0.2405  0.1827
    1CHTO   O69  100   6.481   6.322   2.058  0.3261  0.6713  0.2177
    1CHTO  H169  101   6.432   6.401   2.046 -0.2561  0.1473 -0.9977
    1CHTO   O63  102   6.944   6.095   2.041  0.2158 -0.4110 -0.0479
    1CHTO   C96  103   7.090   6.141   2.090  0.9795  0.1391  0.0390
    1CHTO  H183  104   7.061   6.221   2.158  0.2443  1.1475 -1.4265
    1CHTO   C98  105   7.187   6.184   1.976 -0.6342  0.2068  0.1530
    1CHTO  H185  106   7.132   6.247   1.905 -2.6259 -0.0728  1.4083
    1CHTO   O67  107   7.290   6.262   2.030  0.2237 -0.0340 -0.0306
    1CHTO  H167  108   7.260   6.344   2.064  0.7918 -0.8004  2.3924
    1CHTO  C102  109   7.254   6.053   1.903 -0.2497 -0.5874  0.4681
    1CHTO  H189  110   7.350   6.085   1.862 -1.0133  0.0638 -0.8399
    1CHTO   N18  111   7.175   6.009   1.785  0.3596  0.4000  0.3210
    1CHTO  H176  112   7.210   5.921   1.733  0.0571  0.7635 -0.5048
    1CHTO  H177  113   7.072   5.990   1.812  0.1526  0.1204 -0.6499
    1CHTO  C105  114   7.274   5.942   2.007 -0.2627  0.0305  0.6632
    1CHTO  H192  115   7.204   5.859   1.999  0.0169 -0.1663  0.2728
    1CHTO   O65  116   7.289   5.989   2.138  0.9315  0.9314 -0.4356
    1CHTO  C100  117   7.166   6.034   2.193 -0.7459 -0.2972 -0.1170
    1CHTO  H187  118   7.110   5.940   2.210  0.2377 -0.9613 -0.5114
    1CHTO  C107  119   7.189   6.090   2.334  0.1379 -0.2463 -0.1803
    1CHTO   O70  120   7.301   6.176   2.342  0.2092  0.2514 -0.0289
    1CHTO  H170  121   7.290   6.243   2.277 -0.7376  1.7536  1.6147
    1CHTO   O57  122   7.419   5.878   1.959  0.7037 -0.1056  0.1803
    1CHTO   C85  123   7.445   5.734   1.957  0.5310 -0.7326 -0.1656
    1CHTO  H157  124   7.368   5.686   1.893  0.8656  1.1940 -2.0701
    1CHTO   C83  125   7.419   5.670   2.097  0.4923 -0.0969 -1.1441
    1CHTO  H155  126   7.312   5.678   2.116  0.7968  1.8106 -0.1305
    1CHTO   O56  127   7.487   5.748   2.193  0.4591  0.0040 -0.1947
    1CHTO  H135  128   7.456   5.728   2.279  1.3695 -0.8276 -0.0489
    1CHTO   C81  129   7.455   5.517   2.093 -0.1481 -0.3675  0.2718
    1CHTO  H153  130   7.390   5.466   2.022  1.2817  0.1527 -1.4473
    1CHTO   N14  131   7.425   5.442   2.217  0.4863  0.1524 -0.6646
    1CHTO  H141  132   7.319   5.444   2.236  0.3849 -1.0476 -1.0672
    1CHTO  H142  133   7.447   5.340   2.193  0.5142  0.3273 -1.4185
    1CHTO   C79  134   7.604   5.498   2.044  0.4926  0.0993 -0.3252
    1CHTO  H151  135   7.630   5.392   2.036  0.1032 -0.1376  1.3469
    1CHTO   O52  136   7.623   5.554   1.914  0.1045 -0.2995  0.1873
    1CHTO   C86  137   7.593   5.698   1.903  0.2893 -0.0648 -0.3896
    1CHTO  H158  138   7.672   5.744   1.966  0.2109  0.0522 -0.3756
    1CHTO   C90  139   7.616   5.731   1.759  0.0454 -0.3595 -0.5736
    1CHTO   O60  140   7.611   5.862   1.711 -0.1043 -0.2200 -0.6291
    1CHTO  H138  141   7.611   5.921   1.783 -0.1404 -1.8514  0.7482
    1CHTO   O50  142   7.700   5.551   2.131 -0.7119 -0.0791 -0.2480
    1CHTO   C73  143   7.841   5.557   2.164  0.0921  0.5538 -0.0191
    1CHTO  H145  144   7.900   5.599   2.082  0.8114  0.3830  0.4107
    1CHTO   C74  145   7.882   5.408   2.203  0.1875  0.4055  0.6884
    1CHTO  H146  146   7.865   5.339   2.120 -1.4123  0.1555  1.2020
    1CHTO   O54  147   8.027   5.407   2.224 -0.1450 -0.0275 -0.5423
    1CHTO  H133  148   8.056   5.327   2.263 -0.1155  0.3807  0.2737
    1CHTO   C75  149   7.805   5.364   2.330 -0.1463 -0.6461 -0.4734
    1CHTO  H147  150   7.698   5.357   2.305 -0.3291  0.4541 -0.0052
    1CHTO   N13  151   7.835   5.225   2.372 -0.0293 -0.2434 -0.0722
    1CHTO  H139  152   7.772   5.187   2.451  0.5848  0.6288  0.8512
    1CHTO  H140  153   7.838   5.159   2.287  4.3499  0.2391 -0.4412
    1CHTO   C76  154   7.819   5.467   2.455  0.5015 -0.1235  0.5467
    1CHTO  H148  155   7.919   5.462   2.498  1.1202  0.2981 -0.8117
    1CHTO   O49  156   7.795   5.598   2.399 -0.3498  0.5291  0.3552
    1CHTO   C77  157   7.869   5.652   2.285 -0.0762  0.1680  0.0047
    1CHTO  H149  158   7.976   5.658   2.306 -0.1281  0.8547  0.0783
    1CHTO   C88  159   7.829   5.798   2.264 -0.1452  0.5734 -0.3718
    1CHTO   O58  160   7.857   5.885   2.406  0.3420  0.2039  0.1942
    1CHTO  H136  161   7.849   5.978   2.392  0.6222  0.2773  0.5369
    1CHTO   O51  162   7.711   5.440   2.575  0.2851 -0.0790  0.6338
    1CHTO   C78  163   7.664   5.570   2.671  0.2655  0.5838 -0.1985
    1CHTO  H150  164   7.663   5.663   2.610 -0.2376  0.0841 -0.9660
    1CHTO   C80  165   7.755   5.586   2.793 -0.5396  0.5596  0.2792
    1CHTO  H152  166   7.755   5.491   2.850 -1.6946 -0.2790 -1.1032
    1CHTO   O55  167   7.887   5.601   2.735  0.2128  0.0440  0.5073
    1CHTO  H134  168   7.910   5.681   2.691 -0.3827 -0.1137 -0.1151
    1CHTO   C84  169   7.716   5.714   2.874  0.0153  0.1199  0.3121
    1CHTO  H156  170   7.720   5.794   2.799 -0.6229  1.6518  1.8610
    1CHTO   N15  171   7.804   5.747   2.991  0.2716 -0.8201 -0.2220
    1CHTO  H143  172   7.856   5.840   2.976 -1.9159  0.2815 -1.1335
    1CHTO  H144  173   7.872   5.670   3.021  1.1149  0.0023  0.0300
    1CHTO   C87  174   7.567   5.726   2.922  0.1744 -0.4123 -0.4503
    1CHTO  H159  175   7.539   5.673   3.014 -1.6921 -0.8434 -1.2442
    1CHTO   O53  176   7.466   5.647   2.809  0.1035  0.3395 -0.4764
    1CHTO   C82  177   7.524   5.535   2.730  0.8616 -0.3595 -0.0249
    1CHTO  H154  178   7.533   5.444   2.789 -0.0345  0.8553  2.0494
    1CHTO   C89  179   7.425   5.507   2.618 -0.2803 -0.2959  0.1281
    1CHTO   O59  180   7.443   5.378   2.570  0.4435 -0.1586 -0.0839
    1CHTO  H137  181   7.475   5.379   2.482 -1.8461  0.9620 -0.9374
    1CHTO   O45  182   7.522   5.874   2.939 -0.0730  0.2038  0.1682
    1CHTO   C67  183   7.509   5.937   2.813 -1.0783  0.4027 -0.2419
    1CHTO  H124  184   7.562   5.889   2.732 -1.8765 -1.0311  0.0586
    1CHTO   C65  185   7.358   5.934   2.789 -0.1029  0.7188 -0.3800
    1CHTO  H122  186   7.321   5.834   2.812 -0.0562  1.3109  2.5206
    1CHTO   O44  187   7.313   5.965   2.650  0.2339 -0.1956 -0.5414
    1CHTO  H102  188   7.342   5.890   2.602  0.6941 -0.8772  0.7971
    1CHTO   C63  189   7.301   6.026   2.904 -0.1935  0.2606 -1.0527
    1CHTO  H120  190   7.339   5.988   2.999  1.7957  1.0832 -1.4945
    1CHTO   N11  191   7.156   6.015   2.938 -0.8557  0.2372  0.3036
    1CHTO  H108  192   7.137   5.912   2.963 -1.3903  0.6784  1.7273
    1CHTO  H109  193   7.084   6.047   2.865 -1.7001  0.6107  1.2842
    1CHTO   C61  194   7.344   6.181   2.875  0.1021 -0.9574  0.3030
    1CHTO  H118  195   7.310   6.249   2.954 -0.7856 -1.2076  0.1384
    1CHTO   O40  196   7.489   6.201   2.868  0.0370  0.3001 -0.0579
    1CHTO   C68  197   7.566   6.082   2.821  0.5233 -0.2873 -0.2953
    1CHTO  H125  198   7.642   6.074   2.902 -0.2086 -0.4633  0.3784
    1CHTO   C72  199   7.645   6.123   2.692 -0.2576 -0.3109  0.1120
    1CHTO   O48  200   7.551   6.135   2.582  0.3946  0.3426 -0.2248
    1CHTO  H105  201   7.571   6.096   2.499 -0.1583 -0.1409 -0.1326
    1CHTO   O38  202   7.291   6.228   2.747 -0.1078 -0.5175  0.3284
    1CHTO   C55  203   7.251   6.361   2.755  0.7413  0.5203 -0.3304
    1CHTO  H112  204   7.321   6.414   2.821  0.5315  0.5689 -0.1453
    1CHTO   C56  205   7.101   6.377   2.805  0.6246 -0.1932 -0.5592
    1CHTO  H113  206   7.045   6.312   2.735  1.2756  0.0259 -1.2782
    1CHTO   O42  207   7.073   6.328   2.938 -0.8602  0.1439  0.5220
    1CHTO  H100  208   7.087   6.235   2.929 -1.2683  0.0140  1.1896
    1CHTO   C57  209   7.058   6.529   2.793  0.2872 -0.2447 -0.5708
    1CHTO  H114  210   7.088   6.579   2.885 -0.8463  0.8770 -0.8050
    1CHTO   N10  211   6.908   6.547   2.798 -0.6277 -0.0570  0.3940
    1CHTO  H106  212   6.853   6.469   2.848 -0.1553 -0.3449  0.4611
    1CHTO  H107  213   6.863   6.564   2.701  0.0154  0.5204  0.1959
    1CHTO   C58  214   7.111   6.597   2.669 -0.2642  0.5844  0.7442
    1CHTO  H115  215   7.045   6.584   2.581  0.7524  2.1490 -0.2875
    1CHTO   O37  216   7.245   6.573   2.635  0.5664  0.5282  0.0199
    1CHTO   C59  217   7.266   6.430   2.625  0.1286  0.6423  0.2481
    1CHTO  H116  218   7.190   6.391   2.557  3.6056 -3.7869 -1.3028
    1CHTO   C70  219   7.407   6.419   2.560  0.3285 -0.1344  0.7731
    1CHTO   O46  220   7.426   6.488   2.442 -0.6193  0.2899 -0.8083
    1CHTO  H103  221   7.424   6.580   2.460 -2.1989  0.1416 -0.1315
    1CHTO   O39  222   7.117   6.752   2.691  0.3436  0.5550  0.0165
    1CHTO   C60  223   7.107   6.834   2.572  0.2992  0.1703 -0.7354
    1CHTO  H117  224   7.139   6.776   2.485 -1.5705  0.3564 -1.5564
    1CHTO   C62  225   6.960   6.874   2.536 -0.1105 -0.6164  0.3567
    1CHTO  H119  226   6.910   6.775   2.522 -2.8522  0.5302  1.6111
    1CHTO   O43  227   6.901   6.935   2.653  0.0235  0.4357  0.8209
    1CHTO  H101  228   6.808   6.938   2.644  0.1185 -1.0570 -0.9866
    1CHTO   C66  229   6.942   6.968   2.405 -0.2087 -0.4977  0.0845
    1CHTO  H123  230   6.995   6.921   2.322  2.7736 -0.6255  1.9587
    1CHTO   N12  231   6.796   6.984   2.374 -0.4083  0.2714 -0.6312
    1CHTO  H110  232   6.785   6.983   2.266 -0.4248  0.5126 -0.6328
    1CHTO  H111  233   6.767   7.079   2.416  0.7088  0.6660 -0.7384
    1CHTO   C69  234   7.026   7.098   2.423  0.1617 -0.4045  0.0849
    1CHTO  H126  235   6.980   7.150   2.509  0.7373 -0.2500  0.2992
    1CHTO   O41  236   7.178   7.060   2.461  0.2035 -0.3373 -0.0288
    1CHTO   C64  237   7.195   6.959   2.583 -0.0214  0.3812  0.0412
    1CHTO  H121  238   7.182   7.014   2.678  1.9641  1.3085 -0.2016
    1CHTO   C71  239   7.334   6.908   2.577 -0.2311  0.2748 -0.4061
    1CHTO   O47  240   7.381   6.820   2.682 -0.4379  0.6599  0.1201
    1CHTO  H104  241   7.457   6.856   2.724 -0.1086  1.6797 -1.2783
    1CHTO   O34  242   7.012   7.191   2.296  0.0361  0.4630 -0.2053
    1CHTO   C49  243   6.967   7.334   2.275 -0.7808  0.5850 -0.0270
    1CHTO   H91  244   6.936   7.332   2.170  0.4937  2.3714 -0.4584
    1CHTO   C47  245   7.074   7.443   2.287 -0.0203  0.1891  0.2541
    1CHTO   H89  246   7.029   7.542   2.262 -0.0114  0.6770  2.0858
    1CHTO   O33  247   7.178   7.413   2.187 -0.6063  0.5315 -0.3701
    1CHTO   H70  248   7.263   7.439   2.219 -0.6167 -0.9926  0.9550
    1CHTO   C45  249   7.116   7.457   2.442 -0.0582 -0.5498  0.3002
    1CHTO   H87  250   7.152   7.354   2.457 -1.3496 -0.9195  0.8997
    1CHTO    N8  251   7.234   7.556   2.459 -0.0971 -0.1784  0.1253
    1CHTO   H75  252   7.315   7.534   2.391  1.7868 -1.1233  2.5859
    1CHTO   H76  253   7.272   7.549   2.560  0.8498 -1.6341 -0.3025
    1CHTO   C43  254   6.989   7.481   2.539  0.0432 -0.1300  0.6294
    1CHTO   H85  255   7.023   7.475   2.643  1.2036  3.7245  0.5786
    1CHTO   O29  256   6.877   7.391   2.506 -0.0720  0.4447  0.0029
    1CHTO   C50  257   6.839   7.361   2.369 -0.2661 -1.5202 -0.5617
    1CHTO   H92  258   6.789   7.264   2.366  2.2653 -2.8312 -1.2612
    1CHTO   C54  259   6.724   7.460   2.314 -0.4590  0.0692  0.3449
    1CHTO   O36  260   6.684   7.428   2.184 -0.1610  0.1833  0.1301
    1CHTO   H72  261   6.735   7.472   2.119  0.1444 -2.5893 -1.5796
    1CHTO   O27  262   6.947   7.621   2.523 -0.1849  0.5396  0.3808
    1CHTO   C37  263   6.912   7.734   2.591 -0.3304 -0.1757 -0.6273
    1CHTO   H79  264   6.869   7.691   2.683  0.0752 -0.5070 -0.5922
    1CHTO   C38  265   7.039   7.826   2.612 -0.3315  0.4214 -0.2934
    1CHTO   H80  266   7.088   7.847   2.515  2.4408  1.7408  1.3386
    1CHTO   O31  267   7.132   7.751   2.699 -0.0387 -0.5008  0.0269
    1CHTO   H68  268   7.176   7.817   2.748 -0.1898 -0.0975 -0.3778
    1CHTO   C39  269   7.000   7.969   2.663 -0.0686 -0.1697  0.8899
    1CHTO   H81  270   6.957   7.956   2.763  1.2515 -4.3740  1.0090
    1CHTO    N7  271   7.116   8.056   2.662 -0.2626 -0.1179 -0.0429
    1CHTO   H73  272   7.074   8.153   2.687 -2.6403 -1.0378 -0.3166
    1CHTO   H74  273   7.181   8.006   2.732 -2.1204 -0.5053  1.4352
    1CHTO   C40  274   6.882   8.030   2.574  0.2111 -0.2703 -0.1376
    1CHTO   H82  275   6.921   8.042   2.473  1.6473  0.3775  0.4742
    1CHTO   O26  276   6.774   7.939   2.581  0.1189  0.2659 -0.3134
    1CHTO   C41  277   6.801   7.812   2.521  0.2277 -0.7222 -0.2236
    1CHTO   H83  278   6.824   7.827   2.414  0.8358  1.1449  0.1461
    1CHTO   C52  279   6.656   7.740   2.523 -0.4953 -0.0575 -0.4226
    1CHTO   O35  280   6.579   7.764   2.663  0.0657  0.7636 -0.2768
    1CHTO   H71  281   6.556   7.683   2.704 -0.3627  1.2833  0.5240
    1CHTO   O28  282   6.828   8.158   2.636 -0.3306 -0.1846  0.2917
    1CHTO   C42  283   6.798   8.282   2.558  0.4385 -0.6534 -0.3616
    1CHTO   H84  284   6.773   8.242   2.459 -2.8382  2.7266 -1.0492
    1CHTO   C44  285   6.917   8.372   2.537 -0.0169 -0.1454  0.6016
    1CHTO   H86  286   6.963   8.388   2.634  0.9589  3.0305 -0.3158
    1CHTO   O32  287   7.012   8.308   2.447 -0.7433 -0.1011 -0.4125
    1CHTO   H69  288   6.975   8.260   2.375  0.1979  0.5204 -1.3140
    1CHTO   C48  289   6.870   8.515   2.478 -1.0022  0.0818  0.1673
    1CHTO   H90  290   6.837   8.513   2.374 -0.1543  1.9199 -0.1531
    1CHTO    N9  291   6.987   8.604   2.473  0.2500  0.0896 -0.1233
    1CHTO   H77  292   7.075   8.555   2.435  0.5592  0.2409  0.3995
    1CHTO   H78  293   7.005   8.654   2.567 -0.9355 -0.7642  0.5763
    1CHTO   C51  294   6.746   8.571   2.557  0.7627  0.1505  0.7325
    1CHTO   H93  295   6.782   8.585   2.659 -2.1025  3.0612  1.4478
    1CHTO   O30  296   6.638   8.480   2.551  0.2985 -0.3396  0.2633
    1CHTO   C46  297   6.667   8.348   2.610  0.4247 -1.0131 -0.0474
    1CHTO   H88  298   6.680   8.358   2.718 -1.3617  0.2397  0.0790
    1CHTO   C53  299   6.537   8.254   2.599  0.6564  0.3125 -0.1701
    1CHTO   O72  300   6.507   8.210   2.466 -0.0360 -0.2934 -0.4333
    1CHTO  H199  301   6.414   8.198   2.457  0.1302 -0.6215 -1.8785
    1CHTO   O22  302   6.689   8.703   2.519 -0.1695  0.4799  0.4772
    1CHTO   C31  303   6.621   8.747   2.400 -0.4620 -0.6081 -0.4713
    1CHTO   H59  304   6.585   8.851   2.419 -1.4470 -0.5674 -2.3718
    1CHTO   C29  305   6.716   8.749   2.277 -0.6205 -0.2196 -0.2735
    1CHTO   H57  306   6.768   8.652   2.265 -0.0221  0.1610 -0.7958
    1CHTO   O21  307   6.814   8.851   2.314  0.1595  0.0673 -0.6006
    1CHTO   H37  308   6.880   8.857   2.247  0.1680  2.4241 -0.4126
    1CHTO   C27  309   6.648   8.781   2.137  0.9842 -0.5392  0.1780
    1CHTO   H55  310   6.618   8.887   2.139 -2.4808 -1.4623  2.9847
    1CHTO    N5  311   6.739   8.757   2.025  0.8209 -0.0743 -0.7326
    1CHTO   H43  312   6.680   8.724   1.942 -1.8024  0.1576  0.9974
    1CHTO   H44  313   6.787   8.854   2.015  1.2630 -0.3579 -1.3494
    1CHTO   C25  314   6.517   8.695   2.123 -0.4133  0.3173  0.4528
    1CHTO   H53  315   6.544   8.588   2.127 -0.6517  0.3377  3.4633
    1CHTO   O17  316   6.433   8.704   2.247  0.1724  0.3406  0.2596
    1CHTO   C32  317   6.494   8.668   2.371 -0.2861  0.4395  0.3811
    1CHTO   H60  318   6.524   8.566   2.345 -2.4438 -0.4211  1.1351
    1CHTO   C36  319   6.385   8.674   2.481 -0.2793  0.7191  0.1141
    1CHTO   O25  320   6.314   8.798   2.476  0.4418  0.6316 -0.4753
    1CHTO   H40  321   6.276   8.799   2.390 -1.9681 -0.2100  0.5464
    1CHTO   O15  322   6.422   8.726   1.970 -0.4882 -0.3087  0.1090
    1CHTO   C19  323   6.370   8.650   1.856 -0.3437  0.5104  0.3544
    1CHTO   H47  324   6.275   8.691   1.819 -0.1397 -0.5286 -1.3343
    1CHTO   C20  325   6.474   8.669   1.741  0.3563  0.1698  0.8810
    1CHTO   H48  326   6.578   8.658   1.774  0.7387  2.1098  0.3975
    1CHTO   O19  327   6.461   8.809   1.704  0.4363  0.1452 -0.0245
    1CHTO   H35  328   6.403   8.819   1.631 -1.4903 -0.4207  1.3878
    1CHTO   C21  329   6.437   8.578   1.614 -0.9503  0.0588  0.0529
    1CHTO   H49  330   6.349   8.614   1.560 -1.9219 -0.4341  1.2724
    1CHTO    N4  331   6.556   8.570   1.525  0.2696 -0.2452 -0.1874
    1CHTO   H41  332   6.602   8.473   1.521 -0.6114 -0.6592 -0.2251
    1CHTO   H42  333   6.524   8.595   1.425 -1.2217 -0.3630  0.2616
    1CHTO   C22  334   6.392   8.438   1.665  0.1800  0.7694  0.4189
    1CHTO   H50  335   6.480   8.393   1.712  0.7671  2.6232  1.1420
    1CHTO   O14  336   6.291   8.436   1.765 -0.3757  0.3623  0.4113
    1CHTO   C23  337   6.340   8.500   1.883 -0.3100  0.4124  0.5790
    1CHTO   H51  338   6.429   8.448   1.922 -0.7362 -1.2532 -0.6350
    1CHTO   C34  339   6.234   8.485   1.995  0.0639  0.1740  0.3864
    1CHTO   O23  340   6.196   8.346   2.009  0.2691  0.0340  0.8107
    1CHTO   H38  341   6.245   8.293   2.069 -0.6962 -0.9458  0.7547
    1CHTO   O16  342   6.309   8.366   1.573 -0.2348 -0.4623  0.3349
    1CHTO   C24  343   6.371   8.230   1.503  1.4580  0.3556  0.3078
    1CHTO   H52  344   6.475   8.215   1.531  1.2666  1.1801  1.5079
    1CHTO   C26  345   6.352   8.241   1.352  0.9222 -0.1487 -0.2532
    1CHTO   H54  346   6.245   8.258   1.327  1.0169  0.0010 -0.5672
    1CHTO   O20  347   6.420   8.358   1.305  0.8180  0.3022  0.1869
    1CHTO   H36  348   6.379   8.442   1.313 -1.3302 -0.6427 -0.6284
    1CHTO   C30  349   6.395   8.115   1.265  0.7056  0.1401  0.2345
    1CHTO   H58  350   6.505   8.108   1.266  0.6894 -0.0902  0.3516
    1CHTO    N6  351   6.353   8.127   1.120  0.1166  0.1770 -0.0708
    1CHTO   H45  352   6.399   8.206   1.063  0.5781  0.7279  1.0406
    1CHTO   H46  353   6.246   8.130   1.112  0.0353 -0.8641  0.5270
    1CHTO   C33  354   6.343   7.981   1.334 -1.0533 -0.0976  0.6942
    1CHTO   H61  355   6.237   7.963   1.313 -1.2612  3.0789 -1.2689
    1CHTO   O18  356   6.360   7.984   1.478 -0.2287  0.4654  0.0231
    1CHTO   C28  357   6.300   8.102   1.541 -0.3971 -0.1101 -0.3865
    1CHTO   H56  358   6.193   8.114   1.527 -0.3805 -0.0408 -0.4468
    1CHTO   C35  359   6.315   8.060   1.693 -0.3246 -0.1230  0.4670
    1CHTO   O24  360   6.271   8.156   1.786  0.4841 -0.6092  0.8653
    1CHTO   H39  361   6.257   8.105   1.863 -1.9088 -2.1221 -0.4859
    1CHTO    O9  362   6.412   7.871   1.276 -0.3906 -1.0787 -0.1892
    1CHTO   C13  363   6.352   7.712   1.326  0.9649 -0.8619 -0.2968
    1CHTO   H26  364   6.243   7.719   1.347  1.0212  0.9100 -0.4965
    1CHTO   C11  365   6.432   7.660   1.454 -0.1143 -0.1162  0.2327
    1CHTO   H24  366   6.413   7.725   1.540 -0.1921  1.8445 -1.2158
    1CHTO    O8  367   6.575   7.657   1.438  0.0139 -0.0433 -0.4024
    1CHTO    H3  368   6.604   7.600   1.370 -0.9830 -2.2122  0.9215
    1CHTO    C9  369   6.364   7.525   1.487  0.6557 -0.6033 -0.1455
    1CHTO   H22  370   6.256   7.548   1.490  0.8360  1.0987 -3.7936
    1CHTO    N2  371   6.394   7.467   1.623  0.3116  0.4064  0.2092
    1CHTO   H10  372   6.421   7.363   1.615 -1.8843 -0.1126 -1.1666
    1CHTO   H11  373   6.474   7.526   1.665  0.5082  0.3880 -0.1420
    1CHTO    C7  374   6.390   7.424   1.370 -0.5307 -0.1882 -0.2959
    1CHTO   H20  375   6.327   7.337   1.400 -0.1201 -0.3026  0.2557
    1CHTO    O4  376   6.352   7.467   1.242  0.8082 -0.0349  0.6954
    1CHTO   C14  377   6.365   7.610   1.202  0.3803 -0.7298 -0.2006
    1CHTO   H27  378   6.281   7.624   1.132  0.8682  1.6523 -0.3574
    1CHTO   C18  379   6.493   7.620   1.116 -0.2393  0.3608  0.4336
    1CHTO   O13  380   6.483   7.731   1.025 -0.1497  0.0161  0.3167
    1CHTO    H7  381   6.400   7.772   1.043 -0.1945  0.0014  0.1465
    1CHTO    O2  382   6.546   7.378   1.360 -0.3621 -0.3051 -0.2289
    1CHTO    C1  383   6.556   7.239   1.324  0.2763  0.3752 -0.1266
    1CHTO   H14  384   6.463   7.216   1.268  0.5442  0.1503 -0.4821
    1CHTO    C2  385   6.567   7.132   1.451  0.2107 -0.8889 -0.2894
    1CHTO   H15  386   6.635   7.173   1.527  0.5762 -0.2992 -0.9270
    1CHTO    O6  387   6.434   7.118   1.517  0.1187 -0.3500 -0.5132
    1CHTO    H1  388   6.392   7.194   1.552  0.5281 -0.9719  1.3574
    1CHTO    C3  389   6.615   6.986   1.402 -0.3775 -0.3802  0.0564
    1CHTO   H16  390   6.542   6.937   1.336 -4.2672  2.2074  2.2390
    1CHTO    N1  391   6.641   6.890   1.514 -0.3566 -0.2089 -0.4256
    1CHTO    H8  392   6.541   6.859   1.543 -0.8951 -0.1160 -2.1668
    1CHTO    H9  393   6.695   6.807   1.472 -0.6368 -0.8711  0.4895
    1CHTO    C4  394   6.746   7.008   1.317 -0.1161  0.4293 -1.3628
    1CHTO   H17  395   6.828   7.042   1.380 -0.5917 -0.8662  0.0098
    1CHTO    O1  396   6.713   7.090   1.207  0.7137  0.0333  0.3394
    1CHTO    C5  397   6.682   7.228   1.231  0.1168  0.1448 -0.3327
    1CHTO   H18  398   6.759   7.285   1.283  1.8192 -0.9210 -1.6394
    1CHTO   C16  399   6.657   7.295   1.097 -0.2245 -0.2379  0.3282
    1CHTO   O11  400   6.774   7.304   1.011  0.1392 -0.8020 -0.2287
    1CHTO    H5  401   6.858   7.330   1.046  0.5008  1.5625 -2.6674
    1CHTO    O3  402   6.791   6.885   1.251  0.2719 -0.1123  0.9007
    1CHTO    C6  403   6.903   6.894   1.151 -0.4348 -0.2378 -1.1379
    1CHTO   H19  404   6.919   6.997   1.120  1.8747  0.3815  1.8751
    1CHTO    C8  405   7.029   6.845   1.215 -0.3054  0.1608  0.1816
    1CHTO   H21  406   7.012   6.746   1.258 -1.4845  0.8604  1.3362
    1CHTO    O7  407   7.058   6.936   1.321 -0.0004  0.3459  0.4138
    1CHTO    H2  408   7.058   6.894   1.406 -0.4594 -0.5004  0.0014
    1CHTO   C12  409   7.149   6.834   1.110 -0.1587  0.7666  0.1220
    1CHTO   H25  410   7.165   6.942   1.090  0.7208  1.5148  4.3728
    1CHTO    N3  411   7.269   6.764   1.169 -0.7520  0.1584 -0.6163
    1CHTO   H12  412   7.365   6.813   1.169 -0.8990  0.4577 -0.2336
    1CHTO   H13  413   7.286   6.661   1.141  3.8741  0.8308 -0.6872
    1CHTO   C15  414   7.096   6.761   0.984 -0.5518  0.2941 -0.6363
    1CHTO   H28  415   7.092   6.653   0.999 -0.7449  0.5522  1.3253
    1CHTO   O10  416   7.193   6.779   0.851  0.0274  0.4947 -0.0162
    1CHTO    H4  417   7.212   6.869   0.833  1.5357  0.6610  2.2173
    1CHTO    O5  418   6.974   6.817   0.935 -0.1420 -0.1537  0.2039
    1CHTO   C10  419   6.862   6.814   1.024  0.2351 -0.5128 -0.4748
    1CHTO   H23  420   6.842   6.710   1.052  2.6740 -1.5268 -2.3112
    1CHTO   C17  421   6.745   6.873   0.942 -0.3862 -0.0578  0.4673
    1CHTO   O12  422   6.628   6.875   1.022 -0.6542 -0.0520  0.3552
    1CHTO    H6  423   6.600   6.965   1.022  0.2367  0.2386  1.1028
    2CHTO  H203  424   6.187   5.090  -0.096 -0.4191  1.0377 -0.9220
    2CHTO   O82  425   6.102   5.054  -0.114 -0.0320 -0.3467 -0.1066
    2CHTO  C123  426   5.999   5.133  -0.051  0.0213  0.2421  0.2508
    2CHTO  H227  427   6.049   5.214   0.005 -0.3378  1.0799 -0.6159
    2CHTO   O77  428   5.929   5.184  -0.170 -0.5442 -0.2876  0.5909
    2CHTO  C118  429   5.812   5.262  -0.144 -0.5548 -0.3719  0.7916
    2CHTO  H222  430   5.841   5.344  -0.077  0.1970 -0.6708  0.8320
    2CHTO  C125  431   5.754   5.309  -0.285  0.1255  0.1292 -0.0583
    2CHTO   O84  432   5.840   5.396  -0.361 -0.5227  0.5807 -0.2577
    2CHTO  H205  433   5.836   5.366  -0.450 -2.3051  0.9596 -0.3199
    2CHTO  C114  434   5.712   5.171  -0.076 -0.0926 -0.1988 -0.0598
    2CHTO  H218  435   5.678   5.091  -0.141  0.1366 -0.7301  0.4730
    2CHTO  C116  436   5.775   5.103   0.059 -0.3006 -0.7903  0.0375
    2CHTO  H220  437   5.784   5.179   0.138 -0.7605 -0.9761  0.2703
    2CHTO   O79  438   5.681   5.005   0.108  0.2620  0.1563  0.0345
    2CHTO  H201  439   5.590   5.021   0.092  0.6519  0.5866 -1.9310
    2CHTO  C120  440   5.909   5.040   0.024  0.3216  0.9422 -0.5874
    2CHTO  H224  441   5.879   4.954  -0.039  1.4075  0.2001 -0.1161
    2CHTO   N21  442   5.977   4.984   0.145  0.5558 -0.6665 -0.6756
    2CHTO  H211  443   6.046   5.056   0.184  0.4730 -0.1422 -1.4897
    2CHTO  H212  444   6.028   4.890   0.125 -1.9175 -2.5025  1.3363
    2CHTO   O75  445   5.597   5.257  -0.050  0.6897  0.2930 -0.0053
    2CHTO  C112  446   5.461   5.191  -0.030  0.1466  0.2008 -0.0877
    2CHTO  H216  447   5.458   5.125   0.059  3.0231  1.9491  1.3489
    2CHTO   O73  448   5.429   5.121  -0.150  0.3042 -0.2244 -0.5465
    2CHTO  C113  449   5.300   5.064  -0.146  0.5535 -0.1871  0.3603
    2CHTO  H217  450   5.289   4.998  -0.058 -3.1045 -0.1227  0.0670
    2CHTO  C124  451   5.282   4.976  -0.267 -0.2582 -0.0567  0.2891
    2CHTO   O83  452   5.310   5.025  -0.401 -0.7437 -0.3877 -0.1569
    2CHTO  H204  453   5.399   5.032  -0.428 -0.6701  1.9287  0.5537
    2CHTO  C109  454   5.188   5.174  -0.138 -0.0092 -0.4755  0.4087
    2CHTO  H213  455   5.198   5.238  -0.227 -0.4440 -1.6420 -0.4954
    2CHTO  C110  456   5.211   5.260  -0.009  0.2323 -0.1310 -0.1648
    2CHTO  H214  457   5.198   5.193   0.076  1.6466 -0.9210 -0.5514
    2CHTO   O78  458   5.117   5.365  -0.003 -0.3912  0.7329  0.4672
    2CHTO  H200  459   5.031   5.329   0.009  0.3004 -1.2066 -0.2188
    2CHTO  C111  460   5.356   5.313  -0.003  0.4116  0.8085  0.6822
    2CHTO  H215  461   5.373   5.378  -0.090 -1.5921  1.0677  0.4617
    2CHTO   N19  462   5.390   5.393   0.121  0.2650 -0.1917  0.4394
    2CHTO  H207  463   5.487   5.439   0.116  0.1373 -0.0181 -0.5201
    2CHTO  H208  464   5.315   5.471   0.118 -1.0027 -1.4132 -0.1739
    2CHTO   O74  465   5.054   5.115  -0.144  1.1115  0.0095  0.1531
    2CHTO  C115  466   4.964   5.166  -0.265  0.2698 -0.2037 -0.1476
    2CHTO  H219  467   5.020   5.238  -0.324  0.1688  2.0886  2.4514
    2CHTO   O76  468   4.921   5.050  -0.360  0.2122 -0.0964  0.6111
    2CHTO  C122  469   4.845   4.950  -0.291  0.0144 -0.2244 -0.0048
    2CHTO  H226  470   4.913   4.888  -0.232  0.4134  1.1684  1.0172
    2CHTO  C126  471   4.776   4.852  -0.379  0.1958 -0.2399 -0.0913
    2CHTO   O85  472   4.858   4.792  -0.473 -0.0636 -0.0485 -0.0215
    2CHTO  H206  473   4.896   4.715  -0.434  0.4617  0.3790  0.3199
    2CHTO  C121  474   4.742   5.004  -0.182  0.1627 -0.3568 -0.5240
    2CHTO  H225  475   4.646   4.948  -0.187 -0.0503  0.0516 -1.0751
    2CHTO   O81  476   4.785   4.963  -0.049 -0.4670  0.0693  0.6761
    2CHTO  H202  477   4.802   5.032   0.013  0.6935 -1.4224  2.0407
    2CHTO  C119  478   4.713   5.155  -0.202 -0.2381  0.6978 -0.3435
    2CHTO  H223  479   4.667   5.161  -0.301 -0.9395 -0.0961 -0.0726
    2CHTO  C117  480   4.840   5.244  -0.205 -0.3448  0.1986 -0.2469
    2CHTO  H221  481   4.877   5.269  -0.106  0.9668 -0.3211 -0.5998
    2CHTO   N20  482   4.810   5.377  -0.277 -0.0885 -0.8064 -0.7275
    2CHTO  H209  483   4.726   5.432  -0.237 -0.1553 -2.0844  0.9405
    2CHTO  H210  484   4.790   5.360  -0.381  0.2484 -0.8938 -0.7782
    2CHTO   O80  485   4.596   5.210  -0.109 -0.0373  0.7113 -0.1757
    2CHTO  C103  486   4.487   5.285  -0.178  1.1913 -0.0147 -0.5113
    2CHTO  H190  487   4.533   5.359  -0.243  0.2873  1.6810  0.7591
    2CHTO  C101  488   4.378   5.193  -0.251 -0.3874 -0.3269  0.2201
    2CHTO  H188  489   4.332   5.119  -0.185  0.5661 -0.1674  1.0869
    2CHTO   O68  490   4.443   5.111  -0.360 -0.2032  0.2970 -0.4524
    2CHTO  H168  491   4.386   5.091  -0.432 -1.6109 -0.6142  0.8861
    2CHTO   C99  492   4.258   5.292  -0.314 -0.8317  0.1213 -0.2857
    2CHTO  H186  493   4.310   5.359  -0.386  1.2093  0.2489  1.2601
    2CHTO   N17  494   4.146   5.219  -0.387  0.4667 -0.3376 -0.0710
    2CHTO  H174  495   4.052   5.234  -0.336  0.4472 -0.5408 -0.0466
    2CHTO  H175  496   4.146   5.253  -0.490 -0.6103  1.5874  0.5485
    2CHTO   C97  497   4.202   5.390  -0.202 -0.2057 -0.6233  1.1236
    2CHTO  H184  498   4.133   5.342  -0.132 -2.2109  1.6845  0.8103
    2CHTO   O64  499   4.316   5.451  -0.132 -0.2809 -0.2661 -0.2376
    2CHTO  C104  500   4.411   5.362  -0.073 -0.5892 -0.8433 -0.9151
    2CHTO  H191  501   4.360   5.295  -0.005 -0.2502 -0.7460 -0.5590
    2CHTO  C108  502   4.512   5.442   0.018 -0.0041 -0.8154 -0.4593
    2CHTO   O71  503   4.558   5.350   0.118  0.5930  0.5056  0.2956
    2CHTO  H171  504   4.607   5.287   0.069  2.3236  0.0563  2.5150
    2CHTO   O62  505   4.132   5.499  -0.262  0.7535  0.0109  0.3310
    2CHTO   C91  506   4.011   5.543  -0.197 -0.1716  0.1354 -1.3530
    2CHTO  H178  507   3.970   5.459  -0.141 -2.1860  0.5381 -2.1718
    2CHTO   C92  508   3.896   5.568  -0.300 -0.3642  1.0468 -0.8619
    2CHTO  H179  509   3.875   5.487  -0.370 -0.0734 -0.0710  0.3254
    2CHTO   O66  510   3.775   5.582  -0.228  0.5377  0.0072  0.9076
    2CHTO  H166  511   3.704   5.596  -0.287 -0.2619  0.3898  1.9338
    2CHTO   C93  512   3.914   5.705  -0.385 -0.2433  0.2681  0.0988
    2CHTO  H180  513   3.814   5.726  -0.424  0.4858  1.9318 -0.9535
    2CHTO   N16  514   4.007   5.703  -0.497 -0.2345  0.1224 -0.3451
    2CHTO  H172  515   4.094   5.652  -0.459 -0.4894 -0.3845 -0.4319
    2CHTO  H173  516   3.953   5.648  -0.573 -1.1673  0.8287 -0.2069
    2CHTO   C94  517   3.943   5.825  -0.280 -0.2683  0.3232  0.2155
    2CHTO  H181  518   3.982   5.913  -0.331  1.8441 -0.5761  0.1944
    2CHTO   O61  519   4.024   5.797  -0.170 -0.2129  0.0834  0.5653
    2CHTO   C95  520   4.036   5.664  -0.104 -0.0156  0.0281  0.4342
    2CHTO  H182  521   4.138   5.660  -0.066  0.3272  1.1051 -0.3121
    2CHTO  C106  522   3.939   5.653   0.016 -0.2621  0.4981  0.1762
    2CHTO   O69  523   3.970   5.754   0.111 -0.5695  0.1752  0.3007
    2CHTO  H169  524   3.901   5.753   0.175 -0.6813  2.2965  0.2510
    2CHTO   O63  525   3.804   5.859  -0.239 -1.0119  0.9106  0.2204
    2CHTO   C96  526   3.772   6.020  -0.185  0.7955 -0.0299  0.0502
    2CHTO  H183  527   3.865   6.074  -0.167  0.5190  0.2436  0.6786
    2CHTO   C98  528   3.705   6.026  -0.053  0.0547 -0.2372  0.5271
    2CHTO  H185  529   3.608   5.975  -0.045  0.0461 -0.5880 -1.6136
    2CHTO   O67  530   3.792   5.955   0.037 -0.0479  0.9853  0.5726
    2CHTO  H167  531   3.796   5.867   0.007 -0.2428  1.3502 -0.5425
    2CHTO  C102  532   3.673   6.180  -0.008 -0.1975  0.7931 -0.1616
    2CHTO  H189  533   3.771   6.225   0.015 -0.3347  0.8179  0.3873
    2CHTO   N18  534   3.596   6.196   0.125 -0.2610 -0.1638  0.3599
    2CHTO  H176  535   3.646   6.256   0.199 -1.4525  1.3338 -0.0417
    2CHTO  H177  536   3.490   6.215   0.122 -0.9213 -3.6958 -1.9671
    2CHTO  C105  537   3.608   6.255  -0.127  0.0086 -0.0843 -0.1354
    2CHTO  H192  538   3.505   6.219  -0.135  0.8099 -2.1071 -2.2855
    2CHTO   O65  539   3.683   6.229  -0.253  0.3353 -0.1561  0.3232
    2CHTO  C100  540   3.687   6.092  -0.296 -0.0576  0.4216 -0.2811
    2CHTO  H187  541   3.589   6.041  -0.295 -0.0274  0.2939 -2.7108
    2CHTO  C107  542   3.729   6.090  -0.442 -0.6218  0.0869  0.5429
    2CHTO   O70  543   3.722   5.962  -0.499 -0.3560  0.1589  0.3747
    2CHTO  H170  544   3.788   5.907  -0.462  0.1314  0.8546  0.5433
    2CHTO   O57  545   3.617   6.405  -0.083 -0.2051  0.0009 -0.0859
    2CHTO   C85  546   3.521   6.497  -0.141  0.1209 -0.4316 -0.0993
    2CHTO  H157  547   3.417   6.458  -0.136 -0.1211  0.4000  1.7736
    2CHTO   C83  548   3.556   6.502  -0.299 -0.0989  0.0564  0.1516
    2CHTO  H155  549   3.532   6.405  -0.342 -1.0799  0.9018 -1.2351
    2CHTO   O56  550   3.700   6.506  -0.303  1.0502  0.2909 -0.0649
    2CHTO  H135  551   3.730   6.418  -0.317  2.1366  0.5015  0.9087
    2CHTO   C81  552   3.480   6.612  -0.380 -0.6096  0.5139  0.3524
    2CHTO  H153  553   3.373   6.595  -0.368 -1.1158  1.7884 -2.0327
    2CHTO   N14  554   3.496   6.594  -0.529  0.3075  0.0265  0.3671
    2CHTO  H141  555   3.412   6.550  -0.579  0.5878  0.2997 -0.3575
    2CHTO  H142  556   3.578   6.528  -0.546  0.4435  0.1183  0.6605
    2CHTO   C79  557   3.515   6.750  -0.317 -0.6111 -0.4109  0.1003
    2CHTO  H151  558   3.466   6.825  -0.379  0.1587  1.4526  1.6707
    2CHTO   O52  559   3.486   6.760  -0.177 -0.3356  0.3098 -0.6041
    2CHTO   C86  560   3.531   6.651  -0.085 -0.3372 -0.1405  0.2099
    2CHTO  H158  561   3.636   6.684  -0.070 -0.4295 -0.2769  1.1921
    2CHTO   C90  562   3.452   6.670   0.050 -0.0772 -0.1283 -0.1959
    2CHTO   O60  563   3.456   6.804   0.105 -0.3704  0.3076  0.5506
    2CHTO  H138  564   3.377   6.847   0.081 -1.7552 -1.4603  1.7866
    2CHTO   O50  565   3.655   6.786  -0.332  0.5753  0.0789 -0.4475
    2CHTO   C73  566   3.738   6.902  -0.342 -0.0732 -0.3089 -0.1982
    2CHTO  H145  567   3.693   6.978  -0.277  0.8718  2.0290 -2.1504
    2CHTO   C74  568   3.743   6.963  -0.489  0.2322 -0.5116 -0.2212
    2CHTO  H146  569   3.636   6.966  -0.511 -0.1813 -2.5686  1.4094
    2CHTO   O54  570   3.796   7.095  -0.481  0.3211  0.4176 -0.6217
    2CHTO  H133  571   3.798   7.139  -0.563 -0.9854 -2.0939 -2.0682
    2CHTO   C75  572   3.823   6.864  -0.584 -0.7366  0.0330 -0.1774
    2CHTO  H147  573   3.764   6.771  -0.590  2.0576 -1.7328 -1.2392
    2CHTO   N13  574   3.849   6.920  -0.720 -0.2775 -0.2794  0.2582
    2CHTO  H139  575   3.757   6.952  -0.767  0.5304  0.4321 -0.8503
    2CHTO  H140  576   3.904   7.011  -0.732 -0.5580 -0.5685 -3.7907
    2CHTO   C76  577   3.966   6.822  -0.517  0.1632 -0.0196 -0.2347
    2CHTO  H148  578   4.033   6.907  -0.530 -1.4126  1.2913  0.0538
    2CHTO   O49  579   3.951   6.784  -0.384  0.0767  0.4520 -0.1808
    2CHTO   C77  580   3.888   6.877  -0.300  0.0455  0.0443 -0.3463
    2CHTO  H149  581   3.937   6.974  -0.299 -0.2529  0.2330 -2.3231
    2CHTO   C88  582   3.892   6.814  -0.155 -0.6395 -0.1472  0.0433
    2CHTO   O58  583   3.881   6.905  -0.070  0.1270 -0.0104  0.8338
    2CHTO  H136  584   3.954   6.899  -0.012  0.7731 -2.6968 -0.1866
    2CHTO   O51  585   4.016   6.684  -0.595 -0.6120 -0.4308  0.5790
    2CHTO   C78  586   4.132   6.612  -0.547 -0.1734  0.2996 -0.4583
    2CHTO  H150  587   4.139   6.610  -0.437  0.5689 -4.5205 -0.4923
    2CHTO   C80  588   4.263   6.658  -0.609 -0.0543  0.5794  0.1469
    2CHTO  H152  589   4.263   6.630  -0.717 -2.1567 -0.8787  0.4976
    2CHTO   O55  590   4.262   6.809  -0.608  0.6428 -0.4166 -0.1615
    2CHTO  H134  591   4.314   6.838  -0.681 -0.5578  1.1307 -0.4421
    2CHTO   C84  592   4.390   6.605  -0.527  0.4924  0.4613  1.2512
    2CHTO  H156  593   4.369   6.631  -0.423  1.1850  0.3960  1.4094
    2CHTO   N15  594   4.527   6.664  -0.549  0.0985 -0.0698  0.3641
    2CHTO  H143  595   4.564   6.701  -0.455 -1.5867 -1.8970  1.7820
    2CHTO  H144  596   4.519   6.746  -0.617  1.1079 -0.2972 -0.0350
    2CHTO   C87  597   4.390   6.454  -0.546  0.2782  0.3257  0.7142
    2CHTO  H159  598   4.432   6.422  -0.642  0.4791  1.3464  0.4555
    2CHTO   O53  599   4.223   6.386  -0.544  0.3969 -0.4085  0.1868
    2CHTO   C82  600   4.111   6.464  -0.587  0.2538  0.0644  0.3391
    2CHTO  H154  601   4.106   6.455  -0.696 -1.6647 -2.9137  0.6238
    2CHTO   C89  602   3.975   6.422  -0.532 -0.8667 -0.0728 -0.2858
    2CHTO   O59  603   3.859   6.456  -0.612  0.2119 -0.2094 -0.0485
    2CHTO  H137  604   3.882   6.492  -0.696 -2.7491 -1.2304 -1.3706
    2CHTO   O45  605   4.472   6.387  -0.433 -0.4087  0.3148 -0.6145
    2CHTO   C67  606   4.394   6.366  -0.310 -0.1908  0.0793  0.0283
    2CHTO  H124  607   4.303   6.426  -0.317  0.3654  0.9513  0.1256
    2CHTO   C65  608   4.359   6.214  -0.293 -0.3870  0.4467  0.7785
    2CHTO  H122  609   4.410   6.157  -0.371 -2.0771  1.3547 -1.0336
    2CHTO   O44  610   4.221   6.196  -0.318 -0.4493 -0.4239  0.2942
    2CHTO  H102  611   4.204   6.242  -0.398  0.6581 -2.3886 -1.0987
    2CHTO   C63  612   4.410   6.152  -0.156 -0.3560  0.7120 -0.9846
    2CHTO  H120  613   4.519   6.156  -0.155 -0.2494 -0.6776  3.2206
    2CHTO   N11  614   4.377   6.004  -0.128 -0.2392 -0.8009  0.2275
    2CHTO  H108  615   4.462   5.943  -0.107  0.4002  0.1726  0.5385
    2CHTO  H109  616   4.322   5.966  -0.211 -0.5902  0.6998 -0.2410
    2CHTO   C61  617   4.364   6.252  -0.041 -1.2954  0.1157 -0.2868
    2CHTO  H118  618   4.412   6.217   0.052 -2.7122 -1.1408 -0.0221
    2CHTO   O40  619   4.407   6.383  -0.055 -0.9099 -0.1745 -0.4886
    2CHTO   C68  620   4.470   6.425  -0.179  0.1922 -0.7705  0.4030
    2CHTO  H125  621   4.572   6.382  -0.176 -0.0759 -1.3347  2.3933
    2CHTO   C72  622   4.482   6.580  -0.172 -0.5422 -0.2709  0.3583
    2CHTO   O48  623   4.559   6.636  -0.056 -0.6304  0.0818 -0.1215
    2CHTO  H105  624   4.516   6.630   0.028 -0.6526 -1.7631 -0.2557
    2CHTO   O38  625   4.222   6.261  -0.046 -0.2454 -0.5212  0.3156
    2CHTO   C55  626   4.164   6.309   0.077  0.0123 -0.7748  0.5452
    2CHTO  H112  627   4.217   6.401   0.107  0.7530 -0.6830 -0.9847
    2CHTO   C56  628   4.158   6.204   0.199  0.3502  0.4524  0.3070
    2CHTO  H113  629   4.129   6.112   0.145 -0.0570  0.6365  0.2103
    2CHTO   O42  630   4.291   6.175   0.252 -0.0935  0.6449 -0.0002
    2CHTO  H100  631   4.352   6.144   0.188  2.3882  1.4499  1.8655
    2CHTO   C57  632   4.067   6.246   0.315  0.2363 -0.0524 -0.2517
    2CHTO  H114  633   4.118   6.309   0.387 -0.4747 -0.4151  0.5770
    2CHTO   N10  634   4.028   6.123   0.394 -0.5633  0.3003  0.3465
    2CHTO  H106  635   4.025   6.152   0.498 -0.3448 -1.3066  0.8139
    2CHTO  H107  636   4.094   6.038   0.387 -1.7559 -0.8721  2.7390
    2CHTO   C58  637   3.937   6.320   0.272 -0.2401 -0.8860 -0.4518
    2CHTO  H115  638   3.862   6.245   0.240  2.0937 -3.7861  0.6328
    2CHTO   O37  639   3.970   6.417   0.174 -0.1186  0.0031 -0.0402
    2CHTO   C59  640   4.017   6.360   0.055 -0.3355 -0.4382  0.4439
    2CHTO  H116  641   3.958   6.273   0.027 -0.9433 -0.5275  1.9318
    2CHTO   C70  642   4.017   6.465  -0.053  0.3044 -0.2862  0.0176
    2CHTO   O46  643   4.052   6.423  -0.181 -0.4212  0.1903 -0.6622
    2CHTO  H103  644   3.971   6.413  -0.227  0.4568 -0.0600 -2.1867
    2CHTO   O39  645   3.889   6.408   0.387 -0.4738 -0.4881  0.1801
    2CHTO   C60  646   3.755   6.451   0.378  0.1366 -0.2005 -0.2188
    2CHTO  H117  647   3.722   6.457   0.274  0.1130 -3.7853 -0.4829
    2CHTO   C62  648   3.656   6.354   0.443  0.3346 -0.4832  0.0964
    2CHTO  H119  649   3.679   6.260   0.388 -0.4768  0.2731 -1.5526
    2CHTO   O43  650   3.674   6.350   0.582 -0.1179 -0.1287 -0.2755
    2CHTO  H101  651   3.760   6.319   0.606  0.8356  4.2330  2.4076
    2CHTO   C66  652   3.500   6.400   0.409 -0.6501  0.6567  0.1270
    2CHTO  H123  653   3.489   6.415   0.301 -0.6859  0.8472  0.1582
    2CHTO   N12  654   3.402   6.295   0.446  0.3616 -0.0462 -0.1292
    2CHTO  H110  655   3.298   6.324   0.446 -0.0023 -1.3072  0.1287
    2CHTO  H111  656   3.427   6.263   0.546 -1.9784 -1.8852 -0.0661
    2CHTO   C69  657   3.475   6.537   0.483 -0.7588  0.5519  0.4677
    2CHTO  H126  658   3.500   6.514   0.588  2.0301  2.3601  0.2286
    2CHTO   O41  659   3.575   6.647   0.431  0.0761 -0.1003 -0.0737
    2CHTO   C64  660   3.734   6.594   0.443  0.7534  0.6346  0.7165
    2CHTO  H121  661   3.767   6.582   0.548 -1.6551  1.1182  1.5654
    2CHTO   C71  662   3.833   6.699   0.383 -0.1432 -0.0400 -0.8085
    2CHTO   O47  663   3.787   6.749   0.255 -0.4955  0.4493  0.1000
    2CHTO  H104  664   3.790   6.843   0.262  0.1260  0.4389  0.0413
    2CHTO   O34  665   3.334   6.589   0.474  0.3487 -0.4258  0.5625
    2CHTO   C49  666   3.263   6.644   0.596  0.1784 -0.6326  0.0041
    2CHTO   H91  667   3.242   6.570   0.673 -0.4777  0.8695  1.3139
    2CHTO   C47  668   3.128   6.704   0.553  0.0868  0.3587  0.1495
    2CHTO   H89  669   3.095   6.749   0.649  0.9014  0.1764  0.5106
    2CHTO   O33  670   3.035   6.607   0.499 -0.1282  1.0678 -0.3203
    2CHTO   H70  671   2.948   6.639   0.487 -0.1996  1.2812  0.7234
    2CHTO   C45  672   3.167   6.824   0.445  0.4204  0.3527 -0.7409
    2CHTO   H87  673   3.236   6.786   0.369 -1.2501 -1.8847 -1.1832
    2CHTO    N8  674   3.046   6.882   0.373 -0.0950  0.1758 -1.0818
    2CHTO   H75  675   2.968   6.811   0.353  0.3177 -0.5803 -0.0213
    2CHTO   H76  676   3.088   6.914   0.278 -0.7995  1.6236 -0.9211
    2CHTO   C43  677   3.248   6.944   0.523 -0.6157  0.8533  0.5100
    2CHTO   H85  678   3.289   7.000   0.439  0.4701 -2.0356 -0.9318
    2CHTO   O29  679   3.348   6.887   0.609  0.3658 -0.1492 -0.2871
    2CHTO   C50  680   3.349   6.761   0.670 -0.8114  0.5351 -0.8174
    2CHTO   H92  681   3.457   6.739   0.665 -1.1710 -1.5139 -0.4256
    2CHTO   C54  682   3.323   6.765   0.828  0.3709 -0.1266 -0.1739
    2CHTO   O36  683   3.219   6.860   0.874 -0.0767  0.5516  0.3039
    2CHTO   H72  684   3.215   6.842   0.966  0.7406  0.0190  0.2422
    2CHTO   O27  685   3.159   7.026   0.598  0.3628  0.3249 -0.1536
    2CHTO   C37  686   3.050   7.123   0.617 -0.4797  0.6229  0.4470
    2CHTO   H79  687   2.969   7.108   0.544 -2.3223  0.9715  2.3750
    2CHTO   C38  688   2.995   7.108   0.764 -0.5407 -0.8561  1.1676
    2CHTO   H80  689   3.076   7.118   0.837 -0.4965  0.5541  0.9557
    2CHTO   O31  690   2.947   6.968   0.787  0.2352 -0.0367  0.5118
    2CHTO   H68  691   2.865   6.959   0.744  0.6706  1.0731 -0.5558
    2CHTO   C39  692   2.884   7.217   0.782  0.0185 -0.3622  0.1582
    2CHTO   H81  693   2.803   7.195   0.712  1.7073 -0.7575 -1.7246
    2CHTO    N7  694   2.823   7.217   0.920  0.1837  0.1268  0.8643
    2CHTO   H73  695   2.873   7.293   0.978  3.3964 -0.6673 -0.7728
    2CHTO   H74  696   2.720   7.247   0.906  0.4515 -0.1081 -1.7044
    2CHTO   C40  697   2.948   7.353   0.753 -0.6014  0.2429  0.4250
    2CHTO   H82  698   3.021   7.392   0.824 -0.0911  0.8099 -0.4033
    2CHTO   O26  699   2.992   7.352   0.622  0.1207 -0.3601 -0.6591
    2CHTO   C41  700   3.101   7.265   0.598  0.0035  0.7706 -0.7563
    2CHTO   H83  701   3.181   7.285   0.670 -0.7268 -1.7837  0.8084
    2CHTO   C52  702   3.141   7.282   0.450  0.1399 -0.3111  0.5796
    2CHTO   O35  703   3.199   7.401   0.415  0.3304  0.2401  0.2304
    2CHTO   H71  704   3.237   7.381   0.331 -0.7619 -2.2193  0.2811
    2CHTO   O28  705   2.850   7.454   0.731  0.2866  0.2662 -0.0754
    2CHTO   C42  706   2.875   7.600   0.746  0.6417 -0.3093  0.7408
    2CHTO   H84  707   2.785   7.640   0.699 -0.7114 -2.7569  1.1426
    2CHTO   C44  708   2.998   7.665   0.674  0.3033  1.0355  0.0461
    2CHTO   H86  709   3.092   7.630   0.718 -0.2335 -0.1233  0.3081
    2CHTO   O32  710   2.995   7.627   0.534 -0.2408 -0.3820  0.1548
    2CHTO   H69  711   2.915   7.584   0.509  1.1481 -2.9820  0.0120
    2CHTO   C48  712   3.003   7.822   0.686  0.4027  0.0160  0.0373
    2CHTO   H90  713   2.913   7.869   0.645 -0.6582 -0.5366  1.6879
    2CHTO    N9  714   3.122   7.874   0.613 -0.2892 -0.0519  0.0596
    2CHTO   H77  715   3.211   7.822   0.644 -2.5373 -3.2427  1.3281
    2CHTO   H78  716   3.103   7.855   0.508 -1.5923 -2.1124  0.6620
    2CHTO   C51  717   3.021   7.854   0.842 -0.1753  0.5697 -0.2152
    2CHTO   H93  718   3.108   7.800   0.878 -1.4538 -1.2016  0.2368
    2CHTO   O30  719   2.902   7.818   0.912 -0.5560 -0.1441 -0.4278
    2CHTO   C46  720   2.872   7.647   0.895 -0.4892  0.9504 -0.0439
    2CHTO   H88  721   2.950   7.598   0.954 -0.5102  2.4568  1.2682
    2CHTO   C53  722   2.738   7.622   0.956  0.3909 -0.1079 -0.5670
    2CHTO   O72  723   2.723   7.707   1.075 -0.5126  0.2858  0.1832
    2CHTO  H199  724   2.669   7.657   1.133 -2.3142  0.7765 -1.0191
    2CHTO   O22  725   3.032   7.994   0.866  0.0849 -0.0153  0.4391
    2CHTO   C31  726   3.082   8.057   0.993 -0.2254  0.5271 -0.2442
    2CHTO   H59  727   3.065   8.166   0.990  0.7627  0.8104  2.4950
    2CHTO   C29  728   3.008   8.015   1.117 -0.1430  0.3394  0.2517
    2CHTO   H57  729   3.011   7.907   1.136 -0.2157  0.4183  0.7119
    2CHTO   O21  730   2.869   8.041   1.084 -0.0869  0.1560  0.1911
    2CHTO   H37  731   2.829   7.959   1.060  2.1074 -0.9455  0.1634
    2CHTO   C27  732   3.062   8.086   1.248  0.2041 -0.0629  0.1817
    2CHTO   H55  733   3.051   8.195   1.237 -0.9620 -0.0761  1.1045
    2CHTO    N5  734   2.993   8.046   1.373 -0.3214 -0.5851  0.3177
    2CHTO   H43  735   2.901   8.103   1.375 -1.3093 -2.1293 -0.0375
    2CHTO   H44  736   3.049   8.064   1.464 -0.8465 -0.0028  0.5260
    2CHTO   C25  737   3.218   8.055   1.263  0.6439 -0.5249  0.4822
    2CHTO   H53  738   3.233   7.946   1.266  5.1121  0.0360  2.7270
    2CHTO   O17  739   3.288   8.085   1.134  0.6803  0.2224  0.7696
    2CHTO   C32  740   3.238   8.034   1.009  0.2810  0.5149 -0.3646
    2CHTO   H60  741   3.262   7.929   0.994 -0.9623  0.2923 -0.7931
    2CHTO   C36  742   3.320   8.108   0.902 -0.1843 -0.4126 -0.3032
    2CHTO   O25  743   3.465   8.113   0.920 -0.2917 -0.5438  0.3078
    2CHTO   H40  744   3.514   8.157   0.853 -1.8388  0.4985 -0.1738
    2CHTO   O15  745   3.288   8.127   1.367 -0.1324 -0.7140 -0.2653
    2CHTO   C19  746   3.405   8.092   1.449 -1.1896 -0.3090 -0.1896
    2CHTO   H47  747   3.458   8.005   1.408 -0.6202  0.4628 -1.1172
    2CHTO   C20  748   3.506   8.211   1.436 -0.0196 -0.0224  1.1926
    2CHTO   H48  749   3.460   8.309   1.455 -0.4053  0.6704 -2.9056
    2CHTO   O19  750   3.559   8.207   1.303 -0.3363 -0.7993  0.4073
    2CHTO   H35  751   3.608   8.130   1.282  0.9863  0.4230 -1.0379
    2CHTO   C21  752   3.618   8.198   1.546 -0.1099 -0.1023 -0.0902
    2CHTO   H49  753   3.690   8.118   1.525 -3.6650 -3.2218 -1.0110
    2CHTO    N4  754   3.701   8.318   1.560  0.3268 -0.4590 -0.7558
    2CHTO   H41  755   3.725   8.348   1.460 -1.4825  0.3544 -0.9609
    2CHTO   H42  756   3.655   8.403   1.609  1.4556  1.2291 -2.5706
    2CHTO   C22  757   3.556   8.171   1.685  0.1779  0.2527  0.4611
    2CHTO   H50  758   3.497   8.260   1.706 -1.1655  0.3683 -3.4270
    2CHTO   O14  759   3.486   8.047   1.670  0.1209 -0.2091  0.5043
    2CHTO   C23  760   3.363   8.053   1.591 -0.0036 -0.1082  0.0301
    2CHTO   H51  761   3.294   8.125   1.637  0.0345  2.2197 -3.3794
    2CHTO   C34  762   3.285   7.924   1.607  0.3857  0.1722 -0.2310
    2CHTO   O23  763   3.254   7.901   1.744 -0.4144 -0.5687 -0.5557
    2CHTO   H38  764   3.221   7.976   1.790  0.2848 -0.6901  0.1511
    2CHTO   O16  765   3.645   8.144   1.803  0.2935  0.1334 -0.2897
    2CHTO   C24  766   3.601   8.223   1.944  0.7552  0.2332  0.5858
    2CHTO   H52  767   3.515   8.289   1.931 -0.0100 -0.6641  1.0252
    2CHTO   C26  768   3.721   8.311   1.984  0.1938  0.5728 -0.3800
    2CHTO   H54  769   3.809   8.247   2.008  0.1426  0.5974 -0.1266
    2CHTO   O20  770   3.761   8.400   1.879  0.2440 -0.0846  0.8017
    2CHTO   H36  771   3.689   8.403   1.819 -1.0158  1.0756  2.3286
    2CHTO   C30  772   3.695   8.383   2.116 -0.6130  0.2052  0.2005
    2CHTO   H58  773   3.619   8.462   2.103 -1.3595 -0.2819  1.5065
    2CHTO    N6  774   3.813   8.461   2.164 -0.5237 -0.0216  0.2680
    2CHTO   H45  775   3.888   8.446   2.087 -1.3404 -0.3488 -0.4743
    2CHTO   H46  776   3.794   8.566   2.183  1.3534  0.7403 -1.7689
    2CHTO   C33  777   3.630   8.293   2.224 -0.2719 -0.0437  0.2712
    2CHTO   H61  778   3.704   8.229   2.275  0.2033  0.1606 -0.1641
    2CHTO   O18  779   3.531   8.209   2.163  0.1247  0.2768 -0.1978
    2CHTO   C28  780   3.567   8.120   2.059 -0.3991  0.3717  0.0741
    2CHTO   H56  781   3.657   8.064   2.083  0.4330  0.6788 -2.1975
    2CHTO   C35  782   3.434   8.045   2.032 -0.5938 -0.9780 -0.4248
    2CHTO   O24  783   3.452   7.936   1.949  0.3122  0.1637  0.0314
    2CHTO   H39  784   3.478   7.861   1.999  0.8847  0.9208  0.8972
    2CHTO    O9  785   3.579   8.367   2.336 -0.1322  0.2939  0.3458
    2CHTO   C13  786   3.484   8.274   2.432  0.7236  0.2813  0.7866
    2CHTO   H26  787   3.505   8.168   2.406 -1.3198  0.4666 -1.8856
    2CHTO   C11  788   3.333   8.309   2.415 -0.0913  0.0140 -0.6979
    2CHTO   H24  789   3.299   8.280   2.315 -0.6063 -2.7679  0.2226
    2CHTO    O8  790   3.311   8.448   2.422  0.4672 -0.5272 -0.2798
    2CHTO    H3  791   3.383   8.493   2.462  0.9224 -0.5834 -1.0266
    2CHTO    C9  792   3.249   8.229   2.523  0.6689 -0.1197 -0.4147
    2CHTO   H22  793   3.287   8.126   2.518  1.1273 -0.0145  0.7667
    2CHTO    N2  794   3.107   8.213   2.500  0.1188  0.1295  0.2015
    2CHTO   H10  795   3.088   8.282   2.419 -0.6114 -0.0208  0.2463
    2CHTO   H11  796   3.046   8.228   2.587  1.2053  2.0663  0.6827
    2CHTO    C7  797   3.298   8.290   2.665 -0.5385 -0.4013 -0.0808
    2CHTO   H20  798   3.308   8.197   2.724  0.3993 -1.1950 -1.4524
    2CHTO    O4  799   3.425   8.358   2.666  0.3367 -0.3129  0.2630
    2CHTO   C14  800   3.529   8.306   2.583  0.3000 -0.1147 -0.4989
    2CHTO   H27  801   3.556   8.211   2.633 -0.8899 -1.1395 -1.7747
    2CHTO   C18  802   3.649   8.405   2.602 -0.4327  0.4748 -0.6724
    2CHTO   O13  803   3.775   8.346   2.571 -0.4634 -0.8776  0.1155
    2CHTO    H7  804   3.815   8.326   2.653  0.9209 -0.7908 -0.5164
    2CHTO    O2  805   3.194   8.392   2.714 -1.1149  0.3326  0.0532
    2CHTO    C1  806   3.216   8.408   2.855  0.6515  0.2955 -0.6335
    2CHTO   H14  807   3.312   8.358   2.882 -1.0575 -1.7281  1.9708
    2CHTO    C2  808   3.100   8.349   2.948  0.0140 -0.0267 -0.1102
    2CHTO   H15  809   3.011   8.402   2.909  1.1939  1.9155 -0.2590
    2CHTO    O6  810   3.086   8.204   2.937  0.5355  0.2269  0.1275
    2CHTO    H1  811   2.999   8.176   2.918  0.6648  0.2780 -0.5705
    2CHTO    C3  812   3.121   8.388   3.107  0.1218 -0.0164  0.0970
    2CHTO   H16  813   3.191   8.320   3.158  1.6680  1.0667 -0.5832
    2CHTO    N1  814   2.989   8.366   3.176  0.1647 -0.0528 -0.5748
    2CHTO    H8  815   2.930   8.285   3.136  0.7393 -2.1765  2.6691
    2CHTO    H9  816   3.012   8.350   3.280  0.1767 -2.8229 -0.9562
    2CHTO    C4  817   3.181   8.529   3.139 -0.3142 -0.1149  0.0099
    2CHTO   H17  818   3.099   8.601   3.147  0.0654  0.0784  2.3324
    2CHTO    O1  819   3.272   8.571   3.038 -0.1403 -0.1871  0.0781
    2CHTO    C5  820   3.234   8.560   2.897 -0.4970  0.1811  0.4076
    2CHTO   H18  821   3.139   8.612   2.888 -1.0445 -0.7438  0.8103
    2CHTO   C16  822   3.341   8.635   2.815  0.2816  0.5584  0.1313
    2CHTO   O11  823   3.476   8.629   2.868  0.0692 -0.3914  0.5353
    2CHTO    H5  824   3.499   8.538   2.870 -0.8076 -0.6756 -1.0929
    2CHTO    O3  825   3.245   8.531   3.274 -0.4195  0.5677 -0.4290
    2CHTO    C6  826   3.241   8.665   3.336 -0.1403 -0.3312 -0.2753
    2CHTO   H19  827   3.196   8.739   3.269 -0.8568  0.2487  0.8374
    2CHTO    C8  828   3.148   8.658   3.467  0.4605  0.3330  0.0887
    2CHTO   H21  829   3.170   8.567   3.523  3.2840 -0.8044 -2.7043
    2CHTO    O7  830   3.006   8.636   3.425 -0.0760 -0.2710 -0.6807
    2CHTO    H2  831   2.997   8.548   3.394 -1.2349 -0.9716  1.5239
    2CHTO   C12  832   3.161   8.782   3.566 -0.4685  0.0253  0.2269
    2CHTO   H25  833   3.117   8.871   3.516  0.6484  1.0473  1.0390
    2CHTO    N3  834   3.094   8.757   3.695  0.5307  0.1385 -0.7536
    2CHTO   H12  835   3.133   8.665   3.737  0.9954  0.2590 -0.9206
    2CHTO   H13  836   2.986   8.752   3.687  0.4507 -0.9725  0.8242
    2CHTO   C15  837   3.311   8.812   3.592  0.2416 -0.4445  0.0249
    2CHTO   H28  838   3.365   8.742   3.655  1.3529 -0.3091 -0.7583
    2CHTO   O10  839   3.330   8.974   3.655 -0.7521  0.3506 -0.2887
    2CHTO    H4  840   3.345   8.973   3.748 -0.4438  0.9147 -0.3328
    2CHTO    O5  841   3.386   8.826   3.467  0.0219 -0.3633  0.4602
    2CHTO   C10  842   3.378   8.717   3.376  0.0496 -0.6231 -0.2422
    2CHTO   H23  843   3.429   8.635   3.426  0.8565 -0.5467 -0.9365
    2CHTO   C17  844   3.472   8.755   3.259  0.8736 -0.5869  0.4146
    2CHTO   O12  845   3.609   8.774   3.291  0.6358 -0.3130  0.4973
    2CHTO    H6  846   3.657   8.703   3.253 -1.5024 -1.6315  0.2192
    3CHTO  H203  847   7.904   2.227   1.348  2.0399  1.1734  1.2835
    3CHTO   O82  848   7.844   2.275   1.403  0.0365  0.0477  0.1547
    3CHTO  C123  849   7.792   2.186   1.499  0.0337 -0.1715  0.8171
    3CHTO  H227  850   7.867   2.179   1.580  1.7065  0.3528 -0.6494
    3CHTO   O77  851   7.667   2.254   1.544 -0.7226 -0.5980  0.1087
    3CHTO  C118  852   7.591   2.185   1.649  0.0413 -0.1499  0.3730
    3CHTO  H222  853   7.651   2.164   1.739 -0.5773 -1.9638  0.3899
    3CHTO  C125  854   7.464   2.260   1.696  0.3814 -0.3772 -0.3537
    3CHTO   O84  855   7.372   2.283   1.591 -0.3287  0.3466 -0.1291
    3CHTO  H205  856   7.288   2.249   1.616 -0.5472  0.4240 -0.7515
    3CHTO  C114  857   7.549   2.050   1.583  0.4443 -0.5261  0.0770
    3CHTO  H218  858   7.490   2.073   1.494 -2.3222  0.1678  2.0162
    3CHTO  C116  859   7.674   1.964   1.538  0.0581  0.9194  0.2397
    3CHTO  H220  860   7.736   1.936   1.626 -0.9865 -0.2332  0.6206
    3CHTO   O79  861   7.619   1.841   1.485 -0.0221 -0.8084 -0.2807
    3CHTO  H201  862   7.583   1.795   1.558 -3.3746 -0.3185 -1.5341
    3CHTO  C120  863   7.757   2.042   1.435 -0.6461 -0.0041 -0.2959
    3CHTO  H224  864   7.691   2.052   1.347 -2.8586  0.2817  1.3635
    3CHTO   N21  865   7.882   1.968   1.395 -0.1593 -0.0165 -0.0294
    3CHTO  H211  866   7.971   2.003   1.445 -0.6293  1.7422 -0.3771
    3CHTO  H212  867   7.882   1.965   1.287  0.3114 -2.2956  0.0131
    3CHTO   O75  868   7.460   1.988   1.680 -0.0121  0.2179  0.2154
    3CHTO  C112  869   7.330   1.922   1.621 -0.2638  0.8380  0.9963
    3CHTO  H216  870   7.352   1.869   1.527 -0.9264 -0.1044  1.3582
    3CHTO   O73  871   7.231   2.027   1.603  0.2350  0.6495 -0.1345
    3CHTO  C113  872   7.105   1.976   1.553  0.3000 -0.5011 -0.3475
    3CHTO  H217  873   7.107   1.926   1.454  2.7381  1.9217 -1.5927
    3CHTO  C124  874   7.014   2.096   1.527 -0.3547 -0.5074  0.7175
    3CHTO   O83  875   6.977   2.172   1.641 -0.0711  0.1022  0.6079
    3CHTO  H204  876   7.049   2.209   1.688  0.5961  0.3488 -0.5865
    3CHTO  C109  877   7.036   1.864   1.655  0.0759  0.3828  0.1468
    3CHTO  H213  878   7.001   1.912   1.747 -1.4976 -3.3303  1.5996
    3CHTO  C110  879   7.135   1.756   1.687  0.5956 -0.5964  0.1175
    3CHTO  H214  880   7.147   1.679   1.612 -0.8017 -1.0146  0.3212
    3CHTO   O78  881   7.079   1.691   1.801 -0.1678  0.6388 -0.3608
    3CHTO  H200  882   7.113   1.606   1.821  2.6879  1.2711 -2.2500
    3CHTO  C111  883   7.276   1.811   1.720 -0.2879  0.7288 -0.1634
    3CHTO  H215  884   7.261   1.857   1.818 -0.1862 -1.2018  0.7790
    3CHTO   N19  885   7.386   1.704   1.742  0.1135  0.6401  0.3461
    3CHTO  H207  886   7.404   1.659   1.646  2.6976 -1.8406  1.9127
    3CHTO  H208  887   7.480   1.752   1.763  0.5650 -0.6886  1.4210
    3CHTO   O74  888   6.921   1.801   1.587  0.3277 -0.3902 -0.0514
    3CHTO  C115  889   6.786   1.772   1.659  0.2346  0.2086  0.2468
    3CHTO  H219  890   6.804   1.714   1.749  1.6149  0.2053 -0.0193
    3CHTO   O76  891   6.718   1.906   1.712  0.1403  0.0316  0.3001
    3CHTO  C122  892   6.645   1.984   1.622  0.2818  0.8782 -0.1466
    3CHTO  H226  893   6.723   2.040   1.571  2.3104 -1.6894  0.0132
    3CHTO  C126  894   6.554   2.098   1.694 -0.4016 -0.0226 -0.5649
    3CHTO   O85  895   6.454   2.051   1.783 -0.4755 -0.2347 -0.0341
    3CHTO  H206  896   6.474   2.071   1.872 -0.0116  2.1456 -0.6209
    3CHTO  C121  897   6.548   1.908   1.522  0.9663 -0.2195  0.0836
    3CHTO  H225  898   6.441   1.935   1.526  1.1606  0.3296  1.6083
    3CHTO   O81  899   6.587   1.930   1.385 -0.1397 -0.3659 -0.1306
    3CHTO  H202  900   6.604   2.022   1.373 -3.5052  0.1701 -1.3812
    3CHTO  C119  901   6.544   1.750   1.561  0.7839  0.6137  0.1129
    3CHTO  H223  902   6.508   1.746   1.664  0.0822  2.9083 -0.0125
    3CHTO  C117  903   6.685   1.694   1.559 -0.0071 -0.6575 -0.0521
    3CHTO  H221  904   6.733   1.703   1.462 -1.8411 -1.1823 -1.0222
    3CHTO   N20  905   6.693   1.542   1.588  0.0125  0.1391  0.3893
    3CHTO  H209  906   6.741   1.490   1.507  0.6860 -1.3340  1.6972
    3CHTO  H210  907   6.749   1.521   1.678 -0.8437 -0.1144  0.8697
    3CHTO   O80  908   6.428   1.679   1.484  0.2204  0.1476 -0.3220
    3CHTO  C103  909   6.285   1.668   1.550 -0.1984 -0.4718 -0.6865
    3CHTO  H190  910   6.281   1.712   1.650 -2.0940 -0.4473 -0.7487
    3CHTO  C101  911   6.170   1.736   1.459 -1.1207  0.7092 -0.4302
    3CHTO  H188  912   6.175   1.692   1.359 -2.7956 -1.0551  0.2216
    3CHTO   O68  913   6.194   1.888   1.446 -0.0146  0.5214  0.2075
    3CHTO  H168  914   6.208   1.929   1.529  1.1604  0.5498  0.0013
    3CHTO   C99  915   6.024   1.704   1.516 -0.5672  0.5819 -0.5557
    3CHTO  H186  916   6.012   1.753   1.615  0.5793  1.5913 -0.8996
    3CHTO   N17  917   5.910   1.749   1.430 -0.2787 -0.1156  0.3567
    3CHTO  H174  918   5.945   1.746   1.328  0.0578  1.6616  0.3929
    3CHTO  H175  919   5.890   1.854   1.449 -0.5054  0.3639 -2.3534
    3CHTO   C97  920   6.010   1.553   1.540 -0.1440 -0.2164 -0.4324
    3CHTO  H184  921   6.003   1.499   1.444  1.4290  1.1622 -1.3549
    3CHTO   O64  922   6.120   1.503   1.617 -0.0259 -0.2858 -0.3201
    3CHTO  C104  923   6.255   1.513   1.575  0.0617  0.9785 -0.1425
    3CHTO  H191  924   6.268   1.453   1.485  1.7341  2.9006 -1.2169
    3CHTO  C108  925   6.339   1.446   1.689  0.3054  0.1757 -0.1495
    3CHTO   O71  926   6.318   1.506   1.818 -0.1178 -0.1409 -0.4632
    3CHTO  H171  927   6.307   1.431   1.874 -0.2608 -1.2890 -2.0068
    3CHTO   O62  928   5.889   1.518   1.615  0.2535  0.7187  0.2809
    3CHTO   C91  929   5.830   1.392   1.576  0.1627 -0.6249  0.3292
    3CHTO  H178  930   5.844   1.384   1.468 -1.6496 -2.0744  0.1753
    3CHTO   C92  931   5.674   1.390   1.582  0.0879 -0.4722  0.1587
    3CHTO  H179  932   5.651   1.416   1.686 -0.5560 -0.3036 -0.0270
    3CHTO   O66  933   5.626   1.497   1.499 -0.0718 -0.0893  0.2261
    3CHTO  H166  934   5.639   1.574   1.551 -1.2494 -0.3817  0.9754
    3CHTO   C93  935   5.609   1.257   1.526  0.1437 -0.0435  0.2342
    3CHTO  H180  936   5.640   1.248   1.421 -2.3017  2.0143 -0.7298
    3CHTO   N16  937   5.457   1.252   1.511  0.2592  0.1114  0.1655
    3CHTO  H172  938   5.406   1.342   1.542 -0.1427 -0.4470  1.1457
    3CHTO  H173  939   5.441   1.244   1.405  2.6269 -1.0696 -0.1407
    3CHTO   C94  940   5.659   1.135   1.612  0.1118  0.6668  0.5076
    3CHTO  H181  941   5.587   1.107   1.689 -2.0212 -0.5585 -1.8607
    3CHTO   O61  942   5.784   1.159   1.691 -0.1794 -0.1106  0.6673
    3CHTO   C95  943   5.881   1.247   1.638 -0.6221  0.2577 -0.1975
    3CHTO  H182  944   5.945   1.279   1.720 -0.4174 -0.4056 -0.0891
    3CHTO  C106  945   5.978   1.176   1.531 -0.6005  0.2558  0.4896
    3CHTO   O69  946   6.053   1.072   1.589 -0.4758 -0.1050 -0.0956
    3CHTO  H169  947   6.140   1.071   1.554 -1.4732  0.3829 -2.6721
    3CHTO   O63  948   5.685   1.030   1.524  0.0050 -0.1168 -0.0580
    3CHTO   C96  949   5.611   0.885   1.562 -0.4945  0.1512 -0.1590
    3CHTO  H183  950   5.636   0.815   1.482 -0.2046 -1.3043  1.1677
    3CHTO   C98  951   5.456   0.883   1.565 -0.0197 -0.4850  0.3320
    3CHTO  H185  952   5.425   0.966   1.631  2.6572  1.1942 -0.4336
    3CHTO   O67  953   5.428   0.919   1.428 -0.2425 -0.3694 -0.3950
    3CHTO  H167  954   5.343   0.949   1.403 -0.2487 -0.9465 -1.0958
    3CHTO  C102  955   5.404   0.738   1.599  0.3202 -0.4050  0.4458
    3CHTO  H189  956   5.437   0.675   1.515  0.4091  0.7694 -0.4083
    3CHTO   N18  957   5.254   0.723   1.597  0.0523  0.0777 -0.1372
    3CHTO  H176  958   5.213   0.712   1.697 -1.4049 -1.1377 -0.8362
    3CHTO  H177  959   5.211   0.813   1.556 -0.1751 -0.3944 -0.9421
    3CHTO  C105  960   5.473   0.684   1.727 -0.1887  0.4634  0.3518
    3CHTO  H192  961   5.444   0.746   1.812  1.1107 -0.9001  1.8198
    3CHTO   O65  962   5.615   0.696   1.709  0.0726 -0.4551  0.0186
    3CHTO  C100  963   5.664   0.831   1.701 -0.2028 -0.4023  0.4903
    3CHTO  H187  964   5.620   0.889   1.783 -1.0554 -0.3093 -0.0251
    3CHTO  C107  965   5.819   0.832   1.709 -0.5491 -0.5139  0.1371
    3CHTO   O70  966   5.874   0.757   1.606 -0.9963  0.7326  0.0646
    3CHTO  H170  967   5.968   0.762   1.613 -1.1118  1.4519  1.2195
    3CHTO   O57  968   5.445   0.534   1.743  0.3821  0.0606  0.3642
    3CHTO   C85  969   5.389   0.457   1.853 -0.8660 -0.4973 -0.0563
    3CHTO  H157  970   5.401   0.355   1.811 -3.1749 -0.1913 -1.5263
    3CHTO   C83  971   5.236   0.481   1.863 -0.0142 -0.5548 -0.8082
    3CHTO  H155  972   5.190   0.458   1.767  0.3376 -2.8991 -0.4362
    3CHTO   O56  973   5.201   0.619   1.892 -0.0051  0.2267 -0.5361
    3CHTO  H135  974   5.171   0.628   1.981  1.1270 -2.6977  0.2139
    3CHTO   C81  975   5.190   0.377   1.967  0.4936  0.5642  0.4867
    3CHTO  H153  976   5.233   0.285   1.928 -0.1780  0.9009 -1.1000
    3CHTO   N14  977   5.044   0.356   1.967 -0.2110 -0.9252  0.5902
    3CHTO  H141  978   4.989   0.448   1.959  0.4399 -0.8697 -4.3958
    3CHTO  H142  979   5.017   0.299   2.054  0.6568 -0.0342  1.4729
    3CHTO   C79  980   5.260   0.404   2.105  0.3952 -0.4447  1.1737
    3CHTO  H151  981   5.227   0.325   2.172 -0.2298 -1.7901 -0.6717
    3CHTO   O52  982   5.404   0.392   2.097  0.4032 -0.2283  0.1381
    3CHTO   C86  983   5.460   0.466   1.997 -0.4768 -0.3773 -0.4996
    3CHTO  H158  984   5.464   0.571   2.035  0.3538 -0.4041 -0.5069
    3CHTO   C90  985   5.606   0.425   1.977  0.0632  0.1225  0.0937
    3CHTO   O60  986   5.682   0.427   2.095 -0.1863 -0.5955  0.0630
    3CHTO  H138  987   5.672   0.345   2.139 -1.3969 -0.5838 -0.1817
    3CHTO   O50  988   5.224   0.521   2.177  0.8035  0.5098 -0.1084
    3CHTO   C73  989   5.171   0.607   2.282  0.6536  0.6258  0.5726
    3CHTO  H145  990   5.223   0.580   2.375  1.1880 -2.8302 -0.6667
    3CHTO   C74  991   5.012   0.586   2.295  0.0912 -0.7560  0.9600
    3CHTO  H146  992   5.003   0.476   2.304 -0.6350 -0.8840 -0.9917
    3CHTO   O54  993   4.981   0.639   2.426 -0.0546  0.1457  0.1710
    3CHTO  H133  994   4.987   0.732   2.413  2.1026 -0.1692 -1.4255
    3CHTO   C75  995   4.933   0.643   2.175 -0.3777 -0.7760 -0.1474
    3CHTO  H147  996   4.960   0.597   2.079 -0.7370  1.1838 -1.2262
    3CHTO   N13  997   4.791   0.615   2.173 -1.1796  0.5492  0.0933
    3CHTO  H139  998   4.736   0.633   2.082  0.5187  1.9538 -0.6885
    3CHTO  H140  999   4.751   0.687   2.243  1.1682  2.4408 -0.4393
    3CHTO   C76 1000   4.976   0.793   2.156 -0.4209 -0.0130  0.0514
    3CHTO  H148 1001   4.949   0.848   2.246 -0.8756  1.2118 -0.8209
    3CHTO   O49 1002   5.125   0.801   2.139  0.3864  0.5435  0.2194
    3CHTO   C77 1003   5.201   0.756   2.253  0.7772 -0.1339  0.2270
    3CHTO  H149 1004   5.181   0.814   2.343 -0.8763 -1.6896  0.9156
    3CHTO   C88 1005   5.347   0.794   2.205  1.0182 -1.1332  0.7230
    3CHTO   O58 1006   5.441   0.705   2.285 -0.0226  0.1965 -0.0364
    3CHTO  H136 1007   5.498   0.657   2.228 -0.0227 -0.2417  0.3283
    3CHTO   O51 1008   4.910   0.857   2.023  0.1516 -0.1507  0.0737
    3CHTO   C78 1009   4.943   1.015   2.023 -0.0125 -0.2550  0.8916
    3CHTO  H150 1010   5.013   1.038   2.106 -0.2552  0.5053  0.8910
    3CHTO   C80 1011   4.809   1.090   2.049  0.3200  0.0718  0.1075
    3CHTO  H152 1012   4.740   1.068   1.964  0.7567 -1.5829  0.1541
    3CHTO   O55 1013   4.750   1.032   2.165 -0.2798  0.0164  0.2891
    3CHTO  H134 1014   4.657   1.033   2.160 -0.2307  0.8845 -0.6655
    3CHTO   C84 1015   4.845   1.244   2.059 -0.5428 -0.5090 -0.6494
    3CHTO  H156 1016   4.918   1.254   2.139  0.3813 -1.7910 -1.3108
    3CHTO   N15 1017   4.716   1.311   2.096 -0.3898 -0.2946 -0.0021
    3CHTO  H143 1018   4.644   1.299   2.017 -0.5991 -2.4077  0.4706
    3CHTO  H144 1019   4.682   1.257   2.182  1.5810 -0.8154  0.4640
    3CHTO   C87 1020   4.907   1.291   1.927  0.1715 -0.5647  0.3260
    3CHTO  H159 1021   4.834   1.287   1.847  0.7416  1.2236 -0.3082
    3CHTO   O53 1022   5.032   1.192   1.900 -0.2146  0.0671  1.0123
    3CHTO   C82 1023   5.009   1.057   1.888 -0.1076  0.6873  0.3041
    3CHTO  H154 1024   4.939   1.045   1.805 -1.4769  1.2955  1.3612
    3CHTO   C89 1025   5.132   0.983   1.855 -0.5870 -0.5224  0.0318
    3CHTO   O59 1026   5.193   1.060   1.748 -0.5113  0.1071  0.0932
    3CHTO  H137 1027   5.260   1.114   1.787 -1.4318  1.4514 -0.1348
    3CHTO   O45 1028   4.959   1.424   1.944  0.6294 -0.7030 -0.5394
    3CHTO   C67 1029   5.093   1.456   1.937 -1.1784 -0.9110  0.1238
    3CHTO  H124 1030   5.159   1.374   1.965  0.8108 -0.0051 -1.7810
    3CHTO   C65 1031   5.135   1.492   1.787 -0.0922  0.1567 -0.2693
    3CHTO  H122 1032   5.050   1.539   1.737 -0.4053 -0.2977 -0.1690
    3CHTO   O44 1033   5.158   1.366   1.726  0.3112 -0.5653  0.0999
    3CHTO  H102 1034   5.239   1.359   1.680  1.5026 -0.0654  2.0687
    3CHTO   C63 1035   5.245   1.603   1.782 -0.4333 -0.1469  0.0066
    3CHTO  H120 1036   5.195   1.699   1.798  0.0954  0.2593 -0.7784
    3CHTO   N11 1037   5.302   1.625   1.651 -0.6192  0.0156 -0.9994
    3CHTO  H108 1038   5.383   1.559   1.630 -1.1980 -0.7701 -0.7893
    3CHTO  H109 1039   5.321   1.727   1.627  0.0904 -0.1513 -1.1612
    3CHTO   C61 1040   5.345   1.595   1.901 -0.2071 -0.1281  0.1846
    3CHTO  H118 1041   5.403   1.689   1.904 -0.3901 -0.0339  1.0600
    3CHTO   O40 1042   5.287   1.588   2.024  0.0510 -0.0203 -0.1816
    3CHTO   C68 1043   5.143   1.570   2.036 -0.4951  0.2243 -0.1325
    3CHTO  H125 1044   5.094   1.665   2.006 -0.2821  0.8459  1.4538
    3CHTO   C72 1045   5.111   1.545   2.186  0.8469 -0.2057 -0.0428
    3CHTO   O48 1046   4.968   1.528   2.203 -0.0261 -0.1910  0.3903
    3CHTO  H105 1047   4.943   1.546   2.291  1.2108  1.0563  0.5028
    3CHTO   O38 1048   5.433   1.483   1.877  0.0376  0.6290  0.7472
    3CHTO   C55 1049   5.522   1.443   1.987  0.3663 -0.1964 -0.1270
    3CHTO  H112 1050   5.466   1.461   2.081  0.1328  1.1973 -0.5133
    3CHTO   C56 1051   5.658   1.526   1.977 -0.4444  0.2160 -0.0726
    3CHTO  H113 1052   5.691   1.518   1.873  1.6853  1.6249  0.4520
    3CHTO   O42 1053   5.638   1.664   2.003 -0.6597  0.2542  0.4060
    3CHTO  H100 1054   5.576   1.704   1.944  0.2652  1.1473  0.0244
    3CHTO   C57 1055   5.776   1.465   2.062 -0.1946  0.3664  0.1480
    3CHTO  H114 1056   5.744   1.481   2.165  1.4332  2.2146  0.4026
    3CHTO   N10 1057   5.912   1.525   2.046 -0.6653  0.7937  0.3289
    3CHTO  H106 1058   5.929   1.611   2.109 -1.8031  1.1186  0.1923
    3CHTO  H107 1059   5.940   1.546   1.944 -1.8727  2.1353  0.2536
    3CHTO   C58 1060   5.780   1.309   2.036  0.0824  0.4348  0.1562
    3CHTO  H115 1061   5.817   1.294   1.932  0.8698 -1.8482  0.7260
    3CHTO   O37 1062   5.650   1.250   2.055  0.0025  0.2918  0.2352
    3CHTO   C59 1063   5.551   1.294   1.964 -0.4192 -0.3375  0.1074
    3CHTO  H116 1064   5.594   1.272   1.866 -1.7419  0.1251 -0.5917
    3CHTO   C70 1065   5.427   1.202   1.975 -0.0535 -0.3793 -0.0544
    3CHTO   O46 1066   5.446   1.059   1.973  0.1157 -0.0012 -0.1527
    3CHTO  H103 1067   5.514   1.030   2.031 -0.8999 -0.9553  0.6024
    3CHTO   O39 1068   5.886   1.242   2.120  0.1114 -0.0682 -0.4673
    3CHTO   C60 1069   5.932   1.116   2.081  0.7323 -0.0796 -0.4630
    3CHTO  H117 1070   5.867   1.070   2.007  1.9325 -2.0884 -0.2978
    3CHTO   C62 1071   6.065   1.106   2.012 -0.2057  0.0084  1.2706
    3CHTO  H119 1072   6.052   1.150   1.911 -0.5595 -1.4481  0.6673
    3CHTO   O43 1073   6.154   1.184   2.086 -0.9509 -0.4139  0.8466
    3CHTO  H101 1074   6.216   1.217   2.024  1.0519 -3.2484  1.2410
    3CHTO   C66 1075   6.103   0.951   1.987  0.4063  0.0909 -0.2848
    3CHTO  H123 1076   6.032   0.908   1.917  0.7304  2.0387 -1.8551
    3CHTO   N12 1077   6.237   0.926   1.923 -0.3834  0.4325  0.3632
    3CHTO  H110 1078   6.319   0.960   1.983  0.6693  3.7815 -2.7843
    3CHTO  H111 1079   6.250   0.950   1.818  0.2232 -0.0773  0.3204
    3CHTO   C69 1080   6.088   0.868   2.117  0.2491  0.2189 -0.2512
    3CHTO  H126 1081   6.169   0.905   2.183 -0.3407  2.3792 -0.6908
    3CHTO   O41 1082   5.951   0.894   2.174  0.4474  0.2135  0.2829
    3CHTO   C64 1083   5.921   1.025   2.213  0.8734  0.1773  0.5290
    3CHTO  H121 1084   5.997   1.066   2.282  0.5782 -0.1819  1.0689
    3CHTO   C71 1085   5.783   1.044   2.291 -0.4321  0.0459 -0.8133
    3CHTO   O47 1086   5.684   0.996   2.196  0.6680 -0.1772  0.0009
    3CHTO  H104 1087   5.631   1.067   2.168  0.7812 -0.3185 -0.5944
    3CHTO   O34 1088   6.096   0.714   2.091  0.2411 -0.3802  0.4757
    3CHTO   C49 1089   6.209   0.599   2.076  0.2680 -0.9167 -0.3174
    3CHTO   H91 1090   6.274   0.639   1.998  0.9234 -0.8612  0.2445
    3CHTO   C47 1091   6.147   0.468   2.027 -0.7578  0.2147  0.2140
    3CHTO   H89 1092   6.135   0.492   1.919  1.1251  2.1424  0.4082
    3CHTO   O33 1093   6.016   0.442   2.086  0.0917  0.0760 -0.7032
    3CHTO   H70 1094   6.015   0.357   2.127  3.5997 -1.1380 -2.8536
    3CHTO   C45 1095   6.238   0.336   2.045  0.3675  0.1105  0.0402
    3CHTO   H87 1096   6.193   0.284   2.131  1.0083 -0.6573 -0.0904
    3CHTO    N8 1097   6.229   0.239   1.932  0.2831 -0.1064 -0.0365
    3CHTO   H75 1098   6.323   0.218   1.884  0.9773 -0.9032  1.6267
    3CHTO   H76 1099   6.203   0.143   1.973 -1.1031  0.5190  0.5818
    3CHTO   C43 1100   6.391   0.388   2.080 -0.5522 -0.2503 -0.1827
    3CHTO   H85 1101   6.457   0.302   2.089 -1.4000 -1.0497 -1.4808
    3CHTO   O29 1102   6.383   0.462   2.206 -0.1263  0.6401  0.8659
    3CHTO   C50 1103   6.285   0.564   2.208  0.0386 -0.1578 -0.4401
    3CHTO   H92 1104   6.222   0.523   2.288 -0.1480  1.1550  0.0950
    3CHTO   C54 1105   6.345   0.691   2.271  0.0636 -0.9610  0.5880
    3CHTO   O36 1106   6.373   0.674   2.411 -0.2373  0.4197 -0.5058
    3CHTO   H72 1107   6.301   0.682   2.470  0.6534 -0.7897  0.7856
    3CHTO   O27 1108   6.452   0.463   1.972  0.2319 -0.5452 -0.3642
    3CHTO   C37 1109   6.561   0.545   1.930  0.0625 -0.3883 -0.0606
    3CHTO   H79 1110   6.555   0.645   1.977 -0.9935  0.0496 -1.1025
    3CHTO   C38 1111   6.702   0.498   1.982 -0.5098  0.4071 -0.2150
    3CHTO   H80 1112   6.718   0.391   1.965  3.4179  0.8937  0.1113
    3CHTO   O31 1113   6.702   0.510   2.128 -0.6843 -0.3861 -0.0531
    3CHTO   H68 1114   6.650   0.442   2.167  0.0880 -0.2640  1.2352
    3CHTO   C39 1115   6.825   0.581   1.919  0.2855 -0.0361 -0.0912
    3CHTO   H81 1116   6.810   0.683   1.955 -0.9232 -1.1971  2.9063
    3CHTO    N7 1117   6.958   0.532   1.970 -0.6983  0.7591 -0.7006
    3CHTO   H73 1118   6.944   0.503   2.074  2.7603  2.3866  0.2717
    3CHTO   H74 1119   6.975   0.433   1.929  1.4642  0.1125  1.6107
    3CHTO   C40 1120   6.808   0.595   1.760 -0.1532 -0.1410 -0.0057
    3CHTO   H82 1121   6.832   0.503   1.706 -0.1788  0.0769 -0.3945
    3CHTO   O26 1122   6.676   0.635   1.731 -0.2211 -0.3669 -0.0245
    3CHTO   C41 1123   6.564   0.551   1.771  0.3514  1.1187  0.1633
    3CHTO   H83 1124   6.575   0.446   1.740 -0.1672  1.4937 -1.3244
    3CHTO   C52 1125   6.436   0.614   1.702  0.5027  0.1671  0.3013
    3CHTO   O35 1126   6.334   0.519   1.675  0.1524  0.2200  0.0296
    3CHTO   H71 1127   6.330   0.503   1.583 -0.6045  0.4890  0.0191
    3CHTO   O28 1128   6.914   0.690   1.716  0.4708  0.1383 -0.1637
    3CHTO   C42 1129   6.883   0.824   1.646 -0.3389 -0.5650  0.1489
    3CHTO   H84 1130   6.981   0.855   1.609 -0.4495 -0.4419 -0.0440
    3CHTO   C44 1131   6.821   0.944   1.728 -0.1783  0.2125  0.1505
    3CHTO   H86 1132   6.721   0.918   1.763 -0.6620  0.5289 -0.9681
    3CHTO   O32 1133   6.911   0.966   1.833  0.2899 -0.0845  0.2308
    3CHTO   H69 1134   6.885   0.910   1.904 -1.2292 -0.3815 -0.5257
    3CHTO   C48 1135   6.802   1.082   1.645  0.3508 -0.3752 -0.3611
    3CHTO   H90 1136   6.894   1.130   1.612  0.9211 -0.7577  0.6515
    3CHTO    N9 1137   6.724   1.183   1.725 -0.3276  0.0357 -0.0640
    3CHTO   H77 1138   6.623   1.150   1.746  0.3563 -1.8244  0.3846
    3CHTO   H78 1139   6.727   1.280   1.679  0.1386 -1.7412 -3.9970
    3CHTO   C51 1140   6.721   1.041   1.514 -0.0090  0.3466  0.1292
    3CHTO   H93 1141   6.620   1.007   1.538  1.8180 -4.5485  1.3686
    3CHTO   O30 1142   6.790   0.938   1.442 -0.6168  0.0977 -0.2922
    3CHTO   C46 1143   6.798   0.797   1.518 -0.4377  0.4248 -0.3794
    3CHTO   H88 1144   6.699   0.761   1.547 -0.4686  1.2924  0.6170
    3CHTO   C53 1145   6.862   0.691   1.424 -0.1199 -0.1588  0.4196
    3CHTO   O72 1146   6.828   0.551   1.457 -0.2958  0.3469  0.2959
    3CHTO  H199 1147   6.766   0.516   1.396 -1.7315  1.2443  1.2110
    3CHTO   O22 1148   6.707   1.155   1.424  0.8099 -0.6376 -0.6770
    3CHTO   C31 1149   6.604   1.169   1.315 -0.3603  0.1573 -0.7996
    3CHTO   H59 1150   6.588   1.068   1.272  0.7599  0.0360 -0.9589
    3CHTO   C29 1151   6.465   1.209   1.356  0.2805  0.9346 -0.0800
    3CHTO   H57 1152   6.479   1.318   1.370 -1.8766  1.2266 -0.0306
    3CHTO   O21 1153   6.430   1.144   1.483  0.2589 -0.1309  0.1137
    3CHTO   H37 1154   6.505   1.151   1.538  1.0495 -1.2398 -0.8049
    3CHTO   C27 1155   6.366   1.187   1.237  0.9797 -0.5408 -0.5206
    3CHTO   H55 1156   6.361   1.079   1.217 -0.3792 -0.2530 -1.7789
    3CHTO    N5 1157   6.230   1.235   1.273 -0.0100  0.3319 -0.3168
    3CHTO   H43 1158   6.166   1.222   1.187 -1.6172  1.1414  0.7316
    3CHTO   H44 1159   6.188   1.189   1.360  0.3061 -1.5574 -1.1485
    3CHTO   C25 1160   6.424   1.268   1.112  0.0971  1.0387 -0.3110
    3CHTO   H53 1161   6.426   1.378   1.121  1.3802  0.8923  1.3942
    3CHTO   O17 1162   6.561   1.238   1.081  0.5652  0.1553  0.0429
    3CHTO   C32 1163   6.652   1.258   1.191 -0.1403  0.0246 -0.3232
    3CHTO   H60 1164   6.652   1.363   1.223 -2.0352 -0.3228  0.9188
    3CHTO   C36 1165   6.791   1.229   1.135  0.4089 -0.0429  0.3954
    3CHTO   O25 1166   6.828   1.336   1.050 -0.2342 -0.3185 -0.0551
    3CHTO   H40 1167   6.918   1.349   1.077 -0.7432  3.2400  0.2515
    3CHTO   O15 1168   6.345   1.228   0.987 -0.2939 -0.2190 -0.2139
    3CHTO   C19 1169   6.314   1.321   0.884 -0.0332  0.1554  0.1536
    3CHTO   H47 1170   6.266   1.243   0.823  2.3305 -1.1416 -0.0970
    3CHTO   C20 1171   6.212   1.438   0.923 -0.0599 -0.2040  0.3984
    3CHTO   H48 1172   6.245   1.491   1.013 -0.5047  0.4935  0.1505
    3CHTO   O19 1173   6.088   1.369   0.941 -0.3020 -0.2976  0.3962
    3CHTO   H35 1174   6.018   1.431   0.929 -0.0013 -0.2142 -0.9578
    3CHTO   C21 1175   6.186   1.539   0.802  0.2719  0.0546 -0.2022
    3CHTO   H49 1176   6.128   1.485   0.727  0.0460 -0.2215  0.1694
    3CHTO    N4 1177   6.111   1.662   0.829 -0.4537  0.3064  0.1765
    3CHTO   H41 1178   6.118   1.735   0.749  0.3932  0.6478  0.5609
    3CHTO   H42 1179   6.139   1.705   0.924 -1.4198  0.0434  0.5814
    3CHTO   C22 1180   6.322   1.573   0.726 -0.0953 -0.6679 -0.4800
    3CHTO   H50 1181   6.379   1.648   0.781  0.6044 -2.0271  0.7013
    3CHTO   O14 1182   6.406   1.461   0.696 -0.0727 -0.0238  0.0361
    3CHTO   C23 1183   6.442   1.379   0.809 -0.1145 -0.4029 -0.8840
    3CHTO   H51 1184   6.501   1.444   0.875  0.8983 -0.3583 -1.8249
    3CHTO   C34 1185   6.530   1.265   0.760 -0.2922 -0.0475  0.2544
    3CHTO   O23 1186   6.476   1.190   0.651 -0.2229  0.1480  0.6683
    3CHTO   H38 1187   6.533   1.119   0.628  0.2936  1.4839 -2.3835
    3CHTO   O16 1188   6.293   1.628   0.598 -0.1190 -0.2559 -0.3873
    3CHTO   C24 1189   6.337   1.786   0.569  0.4988 -0.3385  0.2391
    3CHTO   H52 1190   6.353   1.842   0.661  1.0347 -0.7332  0.3898
    3CHTO   C26 1191   6.228   1.851   0.484 -0.0394 -0.0915  0.0957
    3CHTO   H54 1192   6.219   1.793   0.389 -1.7415 -1.4759  1.0651
    3CHTO   O20 1193   6.101   1.839   0.556 -0.7535  0.6011  0.1567
    3CHTO   H36 1194   6.078   1.750   0.578 -0.0378 -0.4364 -3.0241
    3CHTO   C30 1195   6.266   1.996   0.446  0.5267 -0.1333 -0.8141
    3CHTO   H58 1196   6.253   2.067   0.528  0.8114  0.5398 -1.3452
    3CHTO    N6 1197   6.181   2.051   0.344 -0.1149  0.0457  0.1758
    3CHTO   H45 1198   6.077   2.028   0.358 -0.0910 -0.5303 -0.5854
    3CHTO   H46 1199   6.195   2.156   0.320  1.7733 -0.3745 -0.6851
    3CHTO   C33 1200   6.414   2.009   0.398 -0.3232  0.5051 -0.6258
    3CHTO   H61 1201   6.431   1.978   0.294  0.8687 -1.1452  0.0293
    3CHTO   O18 1202   6.508   1.929   0.481  0.6854 -0.1953 -0.2824
    3CHTO   C28 1203   6.474   1.792   0.490 -0.7534  0.8465 -0.0612
    3CHTO   H56 1204   6.460   1.745   0.393  2.9167 -1.7477  0.5795
    3CHTO   C35 1205   6.589   1.709   0.549 -0.5571  0.3509  0.0386
    3CHTO   O24 1206   6.644   1.752   0.678 -0.3379  0.4984  1.1558
    3CHTO   H39 1207   6.715   1.812   0.663 -1.0381  0.9950 -0.2462
    3CHTO    O9 1208   6.447   2.150   0.404  0.2654 -0.4568 -0.0556
    3CHTO   C13 1209   6.545   2.210   0.541 -0.4829 -0.1230  0.0599
    3CHTO   H26 1210   6.502   2.174   0.637  1.6160  1.0184  1.4644
    3CHTO   C11 1211   6.551   2.365   0.536  0.1100 -0.1534 -0.0463
    3CHTO   H24 1212   6.451   2.395   0.571  0.5908  0.6762  0.6127
    3CHTO    O8 1213   6.584   2.424   0.410  0.3115  0.4524 -0.0107
    3CHTO    H3 1214   6.506   2.448   0.363  0.1087  1.4912  0.8259
    3CHTO    C9 1215   6.649   2.424   0.638 -0.4132 -0.3923 -0.1964
    3CHTO   H22 1216   6.618   2.383   0.735 -2.3915 -0.9527 -1.0426
    3CHTO    N2 1217   6.642   2.573   0.652 -0.5815 -0.5053  0.7035
    3CHTO   H10 1218   6.608   2.600   0.750 -2.0899  0.8470 -0.1561
    3CHTO   H11 1219   6.586   2.615   0.569  1.9023  0.9229 -0.3319
    3CHTO    C7 1220   6.792   2.379   0.606 -0.9704  0.0835 -0.5840
    3CHTO   H20 1221   6.846   2.395   0.702 -4.2520  1.0020  1.1824
    3CHTO    O4 1222   6.799   2.234   0.594 -0.4257 -0.1389  0.3032
    3CHTO   C14 1223   6.699   2.158   0.527  0.7959 -0.2265  0.6224
    3CHTO   H27 1224   6.702   2.059   0.578  1.0618 -3.0709 -4.5531
    3CHTO   C18 1225   6.732   2.133   0.378 -0.3649 -0.4685  0.5659
    3CHTO   O13 1226   6.853   2.056   0.370 -0.3974  0.3309 -0.8239
    3CHTO    H7 1227   6.889   2.040   0.285  1.1940 -1.7266  0.1847
    3CHTO    O2 1228   6.861   2.447   0.475  0.5187  0.1349  0.1148
    3CHTO    C1 1229   6.993   2.417   0.441 -0.0891 -0.1819 -0.0671
    3CHTO   H14 1230   6.997   2.313   0.403 -1.2556 -0.5704  0.8159
    3CHTO    C2 1231   7.111   2.444   0.543  0.2202  0.8437 -0.4554
    3CHTO   H15 1232   7.102   2.550   0.571  0.9261  1.1270 -1.2706
    3CHTO    O6 1233   7.092   2.370   0.664  0.1819  0.1460  0.1086
    3CHTO    H1 1234   7.125   2.282   0.659 -2.0872 -0.9096  2.4332
    3CHTO    C3 1235   7.248   2.413   0.469  0.1483  0.0447  0.7103
    3CHTO   H16 1236   7.240   2.311   0.429 -2.9961  0.9004 -0.9972
    3CHTO    N1 1237   7.373   2.417   0.562  0.1346  0.5968  0.5985
    3CHTO    H8 1238   7.369   2.352   0.648 -0.5941 -0.6662 -0.3609
    3CHTO    H9 1239   7.412   2.515   0.583  0.9003  0.6772 -1.1137
    3CHTO    C4 1240   7.260   2.513   0.349 -0.1982  0.1976 -0.2337
    3CHTO   H17 1241   7.253   2.616   0.383 -0.5138 -0.0532  0.4692
    3CHTO    O1 1242   7.153   2.480   0.257  0.1248  0.0403  0.2170
    3CHTO    C5 1243   7.023   2.495   0.313  0.3366 -0.0257  0.2076
    3CHTO   H18 1244   7.006   2.601   0.332 -1.2043  0.4068 -3.2152
    3CHTO   C16 1245   6.927   2.460   0.200 -0.3335  0.2762  0.2050
    3CHTO   O11 1246   6.812   2.539   0.182 -0.7173 -0.1737 -0.1250
    3CHTO    H5 1247   6.742   2.501   0.231  2.1845 -1.6349  3.1274
    3CHTO    O3 1248   7.381   2.495   0.268 -0.2050 -0.4663 -0.1663
    3CHTO    C6 1249   7.413   2.590   0.164  0.0012  0.2129  0.7432
    3CHTO   H19 1250   7.329   2.653   0.136  0.6237  1.8131  2.4038
    3CHTO    C8 1251   7.525   2.691   0.197 -0.5904  0.9876 -0.2019
    3CHTO   H21 1252   7.602   2.636   0.252 -0.4880 -0.6384 -1.9249
    3CHTO    O7 1253   7.455   2.779   0.291  0.0866  0.2190 -0.1108
    3CHTO    H2 1254   7.403   2.850   0.258 -0.5937 -1.3339 -2.4740
    3CHTO   C12 1255   7.583   2.777   0.080  0.4662  0.9801  0.3170
    3CHTO   H25 1256   7.501   2.840   0.038  1.3486  0.4662 -2.2490
    3CHTO    N3 1257   7.685   2.880   0.120  0.6550  0.4829 -0.0523
    3CHTO   H12 1258   7.783   2.852   0.084  1.3245 -0.7210  2.6297
    3CHTO   H13 1259   7.680   2.983   0.087 -1.0449  0.5817  0.4471
    3CHTO   C15 1260   7.626   2.674  -0.032  1.0231 -0.1433 -0.6039
    3CHTO   H28 1261   7.708   2.610   0.002  1.8803  0.3813 -1.6322
    3CHTO   O10 1262   7.660   2.739  -0.177  0.2290 -0.2477 -0.2305
    3CHTO    H4 1263   7.727   2.804  -0.164  1.2859 -1.8283  2.5077
    3CHTO    O5 1264   7.508   2.590  -0.067  0.4039 -0.2620 -1.4643
    3CHTO   C10 1265   7.458   2.508   0.041 -0.5351 -0.2114 -0.5507
    3CHTO   H23 1266   7.542   2.445   0.068  0.0452  0.7653 -0.0704
    3CHTO   C17 1267   7.343   2.424  -0.014  0.1417 -0.2709  0.1277
    3CHTO   O12 1268   7.394   2.317  -0.098  0.2022  0.4968 -0.6557
    3CHTO    H6 1269   7.348   2.330  -0.179  0.3949 -0.8803 -0.9961
    4CHTO  H203 1270   5.716   7.602   2.100 -1.3647  3.9882 -1.4738
    4CHTO   O82 1271   5.660   7.611   2.175  0.5721 -0.0782  0.5887
    4CHTO  C123 1272   5.660   7.754   2.210  0.1930  0.2211 -0.8720
    4CHTO  H227 1273   5.571   7.765   2.274 -1.2211 -1.6273 -2.4685
    4CHTO   O77 1274   5.782   7.795   2.276 -0.4800 -0.0134  0.1559
    4CHTO  C118 1275   5.769   7.915   2.352 -0.0978  0.4774 -0.6936
    4CHTO  H222 1276   5.678   7.928   2.413  1.4133  0.2194  1.6786
    4CHTO  C125 1277   5.908   7.932   2.435 -0.1792  0.1675  0.0223
    4CHTO   O84 1278   5.889   8.047   2.520  0.2774  0.0153  0.0860
    4CHTO  H205 1279   5.822   8.028   2.583 -0.5817  1.4451 -0.3747
    4CHTO  C114 1280   5.758   8.029   2.246  0.2039  0.4292  0.0873
    4CHTO  H218 1281   5.856   8.041   2.199 -0.6585  0.9854 -1.6088
    4CHTO  C116 1282   5.662   7.996   2.124 -0.1933 -0.3525  0.1360
    4CHTO  H220 1283   5.564   8.027   2.166  0.1373  0.7573  0.1105
    4CHTO   O79 1284   5.667   8.078   2.007 -0.1125  0.1480 -0.6748
    4CHTO  H201 1285   5.614   8.155   2.004  0.9242  0.8359 -1.3496
    4CHTO  C120 1286   5.654   7.841   2.081  0.1116 -0.1208 -0.5691
    4CHTO  H224 1287   5.742   7.823   2.016  0.3325  1.8538 -0.8645
    4CHTO   N21 1288   5.536   7.805   1.993 -1.0110  0.1934 -0.6679
    4CHTO  H211 1289   5.522   7.895   1.935 -1.3665  1.1515  0.8736
    4CHTO  H212 1290   5.456   7.799   2.064 -1.8821 -0.9450 -1.7317
    4CHTO   O75 1291   5.721   8.141   2.329 -0.5829 -0.0917  0.1032
    4CHTO  C112 1292   5.795   8.287   2.289 -0.0818  0.2098 -0.6488
    4CHTO  H216 1293   5.816   8.279   2.181  0.6169 -1.0848 -0.4326
    4CHTO   O73 1294   5.916   8.301   2.368 -0.6816  0.8765 -0.3562
    4CHTO  C113 1295   5.992   8.413   2.314  0.2850 -0.2300  0.0245
    4CHTO  H217 1296   6.024   8.385   2.211  3.0695  2.1116  0.1588
    4CHTO  C124 1297   6.118   8.415   2.398 -0.4958 -0.3325  1.0979
    4CHTO   O83 1298   6.202   8.300   2.376  0.2580 -0.2236 -0.1675
    4CHTO  H204 1299   6.157   8.218   2.384  1.2574 -0.7979 -0.3505
    4CHTO  C109 1300   5.910   8.550   2.320  0.0212  0.2585  0.5107
    4CHTO  H213 1301   5.921   8.582   2.424  3.0875  0.4792  0.1631
    4CHTO  C110 1302   5.764   8.537   2.278 -0.3418  0.0020 -0.0627
    4CHTO  H214 1303   5.769   8.537   2.170  0.9714 -0.3921 -0.0112
    4CHTO   O78 1304   5.690   8.652   2.326 -0.1308  0.0820  0.2357
    4CHTO  H200 1305   5.739   8.721   2.367  0.0753  0.8496 -1.2487
    4CHTO  C111 1306   5.693   8.403   2.313 -0.0197 -0.0035 -0.1045
    4CHTO  H215 1307   5.663   8.406   2.418 -1.0175  0.0010 -0.3843
    4CHTO   N19 1308   5.570   8.383   2.229 -0.6155  0.5315 -1.0791
    4CHTO  H207 1309   5.550   8.470   2.167 -0.8947  2.3966  1.5210
    4CHTO  H208 1310   5.484   8.371   2.293  1.9711 -0.6886  2.2939
    4CHTO   O74 1311   5.989   8.638   2.237 -0.0003  0.1184  0.3377
    4CHTO  C115 1312   5.944   8.799   2.262  0.1640  0.1790  1.1212
    4CHTO  H219 1313   5.851   8.826   2.211  0.1653  0.5171  1.2930
    4CHTO   O76 1314   5.912   8.834   2.435 -0.3330  0.0269  0.1429
    4CHTO  C122 1315   5.874   8.975   2.454 -0.2141 -0.3867 -0.0309
    4CHTO  H226 1316   5.862   8.983   2.562 -1.4742 -0.4261 -0.1634
    4CHTO  C126 1317   5.726   9.016   2.403 -0.3414 -0.1660 -0.6481
    4CHTO   O85 1318   5.675   9.149   2.429 -0.2731  0.5289  0.7150
    4CHTO  H206 1319   5.742   9.198   2.472  1.5973 -0.3124 -1.1129
    4CHTO  C121 1320   5.982   9.070   2.386 -0.2836 -0.1545 -1.0221
    4CHTO  H225 1321   5.957   9.177   2.403 -1.5581 -0.8110  1.5745
    4CHTO   O81 1322   6.097   9.055   2.465  0.3702  0.7137  0.0663
    4CHTO  H202 1323   6.093   9.107   2.543 -0.0826  0.3689  0.2726
    4CHTO  C119 1324   6.013   9.042   2.241 -0.1535 -0.4346  0.5816
    4CHTO  H223 1325   5.915   9.055   2.194  0.0411 -1.7385 -0.1967
    4CHTO  C117 1326   6.057   8.892   2.206  0.6039  0.2424  0.4668
    4CHTO  H221 1327   6.154   8.862   2.246  1.0973  0.4169 -0.5872
    4CHTO   N20 1328   6.064   8.886   2.060  0.0990  0.7836  0.3044
    4CHTO  H209 1329   6.118   8.799   2.026 -3.2678 -1.2426 -0.1244
    4CHTO  H210 1330   5.968   8.907   2.015  0.1675  1.6508  0.5581
    4CHTO   O80 1331   6.111   9.169   2.169  0.3450  0.2820  0.1548
    4CHTO  C103 1332   6.225   9.229   2.236 -0.1791  0.0287 -0.7625
    4CHTO  H190 1333   6.210   9.241   2.343  1.5376  0.8962 -0.6027
    4CHTO  C101 1334   6.365   9.154   2.221 -0.0095 -0.3639 -0.3366
    4CHTO  H188 1335   6.384   9.137   2.115  0.4135 -0.9869 -0.1677
    4CHTO   O68 1336   6.343   9.011   2.290  0.8060  0.7421 -0.8802
    4CHTO  H168 1337   6.353   9.006   2.383  0.8882  0.3779 -0.9106
    4CHTO   C99 1338   6.489   9.248   2.277 -0.0289  0.0155 -0.3726
    4CHTO  H186 1339   6.471   9.254   2.386 -0.5163  0.2643 -0.4667
    4CHTO   N17 1340   6.624   9.177   2.259  0.5512 -1.4328 -0.0958
    4CHTO  H174 1341   6.648   9.101   2.331 -0.5394  1.0871  3.0317
    4CHTO  H175 1342   6.638   9.150   2.155 -0.6085  0.5582 -0.8039
    4CHTO   C97 1343   6.477   9.393   2.213 -0.2736  0.0139 -0.4388
    4CHTO  H184 1344   6.494   9.386   2.104  1.8232  1.6735 -0.2526
    4CHTO   O64 1345   6.349   9.449   2.239  0.1491  0.2969  0.2791
    4CHTO  C104 1346   6.239   9.376   2.181 -0.3460  0.5142 -0.3809
    4CHTO  H191 1347   6.230   9.367   2.072 -0.1350 -1.4632 -0.2514
    4CHTO  C108 1348   6.114   9.464   2.227 -0.0563  0.2506 -0.0150
    4CHTO   O71 1349   6.077   9.454   2.367  0.4521  0.2566 -0.6761
    4CHTO  H171 1350   6.005   9.512   2.381 -0.0370 -0.7959  1.2931
    4CHTO   O62 1351   6.578   9.486   2.267 -0.5075  0.4625  0.3309
    4CHTO   C91 1352   6.605   9.606   2.196 -0.3773  0.3099  0.0777
    4CHTO  H178 1353   6.527   9.614   2.121 -0.7780  0.2731  0.4885
    4CHTO   C92 1354   6.742   9.590   2.118  0.0931  0.2630 -0.4362
    4CHTO  H179 1355   6.821   9.546   2.180  0.1937 -0.3633 -0.9974
    4CHTO   O66 1356   6.726   9.485   2.019  0.7768 -0.1251  0.0849
    4CHTO  H166 1357   6.780   9.495   1.944 -0.1775 -0.8588 -0.7106
    4CHTO   C93 1358   6.785   9.717   2.030  0.3217 -0.4043  0.0732
    4CHTO  H180 1359   6.767   9.696   1.923  0.1115  2.1667 -0.4155
    4CHTO   N16 1360   6.931   9.745   2.043  0.1030 -0.4647 -0.6106
    4CHTO  H172 1361   6.990   9.733   1.954 -0.2768  0.1341 -0.9437
    4CHTO  H173 1362   6.962   9.831   2.101 -0.5015 -0.2435 -0.6086
    4CHTO   C94 1363   6.691   9.843   2.060  0.7016 -0.6885  0.4722
    4CHTO  H181 1364   6.732   9.936   2.022  0.5896 -0.7519  0.1992
    4CHTO   O61 1365   6.663   9.862   2.200 -0.0047 -0.1977 -0.4409
    4CHTO   C95 1366   6.621   9.746   2.273 -0.4063 -0.3767  0.1801
    4CHTO  H182 1367   6.691   9.735   2.356  0.9490 -2.0041 -1.1432
    4CHTO  C106 1368   6.483   9.775   2.337  0.1464  0.0526  0.5124
    4CHTO   O69 1369   6.464   9.892   2.421 -0.0274  0.0591 -0.1184
    4CHTO  H169 1370   6.419   9.875   2.502  0.2249  0.0380  0.0186
    4CHTO   O63 1371   6.566   9.819   1.972  0.6264  0.5302 -0.6084
    4CHTO   C96 1372   6.570   9.823   1.822 -0.2406  0.0042  0.5610
    4CHTO  H183 1373   6.649   9.758   1.783 -0.0816  0.5219  0.0186
    4CHTO   C98 1374   6.581   9.969   1.766 -0.2951  0.0295  0.2294
    4CHTO  H185 1375   6.510  10.029   1.825 -2.1716 -0.1565 -1.7864
    4CHTO   O67 1376   6.714  10.024   1.791 -0.3099 -0.0671 -0.1018
    4CHTO  H167 1377   6.719  10.110   1.755 -1.5889  0.1873  0.2989
    4CHTO  C102 1378   6.541   9.984   1.609  0.1604 -0.9288  0.1224
    4CHTO  H189 1379   6.635   9.970   1.555  0.2178  0.4030 -0.1407
    4CHTO   N18 1380   6.501  10.120   1.571  0.3377  0.6601  0.4356
    4CHTO  H176 1381   6.486  10.141   1.466 -0.0193  0.5101  0.4559
    4CHTO  H177 1382   6.410  10.132   1.627 -0.6446 -3.1443 -0.2037
    4CHTO  C105 1383   6.440   9.881   1.557  0.5805 -0.0735 -0.0151
    4CHTO  H192 1384   6.337   9.918   1.566  0.2261 -1.5307  1.9973
    4CHTO   O65 1385   6.446   9.755   1.626  0.1147  0.0529 -0.2071
    4CHTO  C100 1386   6.437   9.763   1.771 -0.3401 -0.1451 -0.1427
    4CHTO  H187 1387   6.357   9.833   1.800  1.0410  0.2288  2.9409
    4CHTO  C107 1388   6.404   9.622   1.825  0.2563  0.0277 -0.9142
    4CHTO   O70 1389   6.511   9.528   1.820 -0.1888 -0.3812 -0.0377
    4CHTO  H170 1390   6.496   9.469   1.749  0.0415 -1.3697  0.7342
    4CHTO   O57 1391   6.480   9.862   1.400  0.1978 -0.1616  0.0081
    4CHTO   C85 1392   6.377   9.832   1.303 -0.2142  0.1159  0.0582
    4CHTO  H157 1393   6.279   9.872   1.337 -0.1073  0.0899  0.3978
    4CHTO   C83 1394   6.364   9.678   1.293 -0.3060  0.7277 -0.3717
    4CHTO  H155 1395   6.334   9.635   1.389  0.3920 -0.9254 -0.8676
    4CHTO   O56 1396   6.491   9.618   1.265 -0.2133  0.2203  0.3945
    4CHTO  H135 1397   6.560   9.676   1.292 -0.7365  0.1293  2.0182
    4CHTO   C81 1398   6.257   9.639   1.187  0.1830 -0.1283  0.0721
    4CHTO  H153 1399   6.161   9.687   1.209  0.8809  0.4195  2.0040
    4CHTO   N14 1400   6.217   9.502   1.169  0.2630 -0.6230 -0.2796
    4CHTO  H141 1401   6.302   9.447   1.133  2.4918  2.1738  0.5557
    4CHTO  H142 1402   6.133   9.487   1.103 -0.5427 -1.3924  0.8960
    4CHTO   C79 1403   6.307   9.702   1.048  0.0382  0.6701 -0.1569
    4CHTO  H151 1404   6.217   9.707   0.987  0.5681  0.8141 -0.9358
    4CHTO   O52 1405   6.345   9.837   1.049 -0.1475 -0.8931  0.1234
    4CHTO   C86 1406   6.419   9.892   1.163  0.2115  0.1626  0.3057
    4CHTO  H158 1407   6.526   9.870   1.142  0.4589  1.6536  0.0057
    4CHTO   C90 1408   6.411  10.054   1.172  0.4867  0.4460 -0.1903
    4CHTO   O60 1409   6.274  10.096   1.202 -0.3151  0.4113 -0.0523
    4CHTO  H138 1410   6.209  10.069   1.139 -1.4087 -1.2931  1.7306
    4CHTO   O50 1411   6.420   9.634   0.981  0.4047 -0.1148 -0.0828
    4CHTO   C73 1412   6.408   9.594   0.844  0.8441  0.2388  0.0157
    4CHTO  H145 1413   6.339   9.663   0.792  0.8986  1.2822  1.3102
    4CHTO   C74 1414   6.336   9.456   0.840 -0.0947  0.3536  0.2583
    4CHTO  H146 1415   6.242   9.459   0.896 -0.6453 -2.0672 -0.4624
    4CHTO   O54 1416   6.296   9.433   0.699 -0.3154 -0.2319  0.2679
    4CHTO  H133 1417   6.361   9.437   0.632 -0.5683 -0.5041  0.0008
    4CHTO   C75 1418   6.437   9.347   0.903  0.1108  0.1904 -0.4083
    4CHTO  H147 1419   6.457   9.375   1.008  1.2009 -3.2963  0.3891
    4CHTO   N13 1420   6.394   9.206   0.915 -0.5375 -0.7591  0.0626
    4CHTO  H139 1421   6.313   9.209   0.986 -0.5116 -0.6448  0.0879
    4CHTO  H140 1422   6.362   9.161   0.823 -0.3598 -3.7667  1.4178
    4CHTO   C76 1423   6.575   9.345   0.821  0.1969  0.1136 -0.1423
    4CHTO  H148 1424   6.570   9.301   0.721  0.1108  0.1078 -0.1360
    4CHTO   O49 1425   6.625   9.481   0.818 -0.1576  0.5806  0.3584
    4CHTO   C77 1426   6.537   9.581   0.764  0.0905  0.8753  0.2368
    4CHTO  H149 1427   6.509   9.557   0.661  1.0155 -2.0893  0.6139
    4CHTO   C88 1428   6.603   9.715   0.754  0.2804 -0.3903  0.5747
    4CHTO   O58 1429   6.668   9.767   0.882  0.1274 -0.2348 -0.4078
    4CHTO  H136 1430   6.635   9.854   0.896  2.0570  0.5541 -0.5909
    4CHTO   O51 1431   6.698   9.264   0.928  0.0087  0.2894 -0.0662
    4CHTO   C78 1432   6.816   9.177   0.854  0.1802  0.4696 -0.3915
    4CHTO  H150 1433   6.898   9.146   0.923 -1.1665 -3.4052 -0.3941
    4CHTO   C80 1434   6.884   9.239   0.731 -0.4807 -0.4835 -0.0808
    4CHTO  H152 1435   6.807   9.256   0.653 -0.7473  0.2609  0.3417
    4CHTO   O55 1436   6.942   9.362   0.779 -0.3503 -0.2410 -0.2871
    4CHTO  H134 1437   7.023   9.343   0.822 -1.5334 -1.8186  1.3408
    4CHTO   C84 1438   6.994   9.152   0.678 -0.6078 -0.2182  0.6204
    4CHTO  H156 1439   7.064   9.137   0.760 -0.6847  0.7302  0.8650
    4CHTO   N15 1440   7.075   9.209   0.561 -0.1732 -0.5684  0.5479
    4CHTO  H143 1441   7.179   9.185   0.563 -0.6164 -2.4887  2.8631
    4CHTO  H144 1442   7.071   9.316   0.550 -0.5884 -0.6475 -0.0811
    4CHTO   C87 1443   6.927   9.020   0.643  0.0567  0.1941  0.1857
    4CHTO  H159 1444   6.854   9.041   0.564  0.4545 -0.7380 -0.4413
    4CHTO   O53 1445   6.840   8.953   0.765  0.2171  0.2929 -0.2050
    4CHTO   C82 1446   6.743   9.044   0.831 -0.0178  0.3534  0.1949
    4CHTO  H154 1447   6.649   9.053   0.775 -0.1660  1.1836  0.5711
    4CHTO   C89 1448   6.709   8.983   0.967 -0.5288 -0.3712 -0.9610
    4CHTO   O59 1449   6.624   8.869   0.956 -0.0885 -0.0901 -0.1690
    4CHTO  H137 1450   6.668   8.803   1.006  1.6844  0.6368 -0.7288
    4CHTO   O45 1451   7.047   8.894   0.609  0.0930  0.2351  0.0841
    4CHTO   C67 1452   7.049   8.855   0.473 -0.5512 -0.1592 -0.0895
    4CHTO  H124 1453   7.033   8.942   0.409 -0.4045  1.8113  2.4070
    4CHTO   C65 1454   7.187   8.786   0.446  0.2029 -0.4211 -0.9076
    4CHTO  H122 1455   7.269   8.852   0.473  1.5186 -0.6665 -4.0583
    4CHTO   O44 1456   7.204   8.763   0.311  0.0347 -0.0220 -0.0998
    4CHTO  H102 1457   7.199   8.672   0.291 -0.8140  0.1679 -0.7354
    4CHTO   C63 1458   7.194   8.662   0.536 -0.4859 -0.0467 -0.2461
    4CHTO  H120 1459   7.178   8.695   0.639 -3.1029  2.5515 -1.4143
    4CHTO   N11 1460   7.326   8.602   0.552 -0.4707  0.3209  0.1599
    4CHTO  H108 1461   7.403   8.641   0.489  0.2373 -1.0263  0.1757
    4CHTO  H109 1462   7.324   8.496   0.549  1.7299  0.2189  1.5643
    4CHTO   C61 1463   7.073   8.563   0.508 -0.1411 -0.9684 -0.5635
    4CHTO  H118 1464   7.061   8.507   0.602 -3.0993 -1.6593 -1.3017
    4CHTO   O40 1465   6.947   8.621   0.490 -0.2782 -0.3875  0.4914
    4CHTO   C68 1466   6.923   8.760   0.445  0.1154 -0.4744  0.5166
    4CHTO  H125 1467   6.828   8.789   0.495  0.7138  1.3539  0.6148
    4CHTO   C72 1468   6.892   8.745   0.299 -0.4799 -0.5944  0.2027
    4CHTO   O48 1469   6.839   8.862   0.237  0.2225  0.1707  0.3956
    4CHTO  H105 1470   6.831   8.860   0.143  1.1098 -1.7840  0.3359
    4CHTO   O38 1471   7.097   8.467   0.407  1.1066  0.7745  0.1676
    4CHTO   C55 1472   7.038   8.339   0.423 -0.4034  0.4807 -0.0775
    4CHTO  H112 1473   6.939   8.347   0.470 -1.5218  3.5352 -2.7510
    4CHTO   C56 1474   7.136   8.237   0.505  0.3822 -0.3910  0.3327
    4CHTO  H113 1475   7.225   8.226   0.440  0.8853 -1.0093  1.1177
    4CHTO   O42 1476   7.175   8.285   0.631 -0.3986  0.4769 -1.0123
    4CHTO  H100 1477   7.262   8.321   0.626 -0.2095  0.1953  0.1570
    4CHTO   C57 1478   7.078   8.096   0.523  0.0873  0.5547 -0.3656
    4CHTO  H114 1479   7.003   8.110   0.601  0.6391 -0.7363  0.4116
    4CHTO   N10 1480   7.171   7.993   0.575 -0.1860  0.1836 -0.1334
    4CHTO  H106 1481   7.216   7.947   0.488 -1.0044 -0.8087 -0.0372
    4CHTO  H107 1482   7.249   8.044   0.629 -0.4249 -0.9583  1.3108
    4CHTO   C58 1483   7.013   8.049   0.386 -0.0007  0.5444 -0.2355
    4CHTO  H115 1484   7.095   8.019   0.317  1.6439 -0.4670  2.1044
    4CHTO   O37 1485   6.941   8.152   0.319 -0.8392  0.1771 -0.6102
    4CHTO   C59 1486   7.014   8.278   0.283 -0.3104  0.3242  0.0723
    4CHTO  H116 1487   7.110   8.255   0.236  1.4070  1.4978  2.8833
    4CHTO   C70 1488   6.936   8.366   0.191  0.4986  0.3378 -0.0863
    4CHTO   O46 1489   6.798   8.381   0.227  0.0662  0.2354 -0.5496
    4CHTO  H103 1490   6.750   8.432   0.164 -0.5633  1.2727  0.7434
    4CHTO   O39 1491   6.887   7.948   0.396 -0.2102  0.4699  0.8066
    4CHTO   C60 1492   6.893   7.851   0.291  0.5016 -0.2475  0.1452
    4CHTO  H117 1493   6.947   7.897   0.208 -0.9293  1.1697 -0.0166
    4CHTO   C62 1494   6.946   7.722   0.352  0.2901 -0.0505 -0.1887
    4CHTO  H119 1495   7.050   7.755   0.372 -0.2608  1.5936  0.0959
    4CHTO   O43 1496   6.882   7.679   0.472  0.2820  0.6672  0.1318
    4CHTO  H101 1497   6.931   7.696   0.550  1.9419 -3.0342 -0.0181
    4CHTO   C66 1498   6.941   7.605   0.232  0.3030 -0.0310  0.1126
    4CHTO  H123 1499   6.985   7.647   0.142  0.0912 -1.2896 -0.5789
    4CHTO   N12 1500   7.005   7.475   0.259 -0.1402  0.2715  0.2958
    4CHTO  H110 1501   6.939   7.406   0.309  1.4791 -2.2369 -0.9395
    4CHTO  H111 1502   7.094   7.501   0.314  1.5007 -0.5662 -1.9145
    4CHTO   C69 1503   6.787   7.588   0.190  0.1629 -0.3235  0.8925
    4CHTO  H126 1504   6.733   7.559   0.283  1.2007 -3.2214  0.6546
    4CHTO   O41 1505   6.729   7.717   0.143  0.1120 -0.3174 -0.0812
    4CHTO   C64 1506   6.744   7.841   0.242  0.2025  0.4150  0.4690
    4CHTO  H121 1507   6.678   7.827   0.330 -1.1229  3.7719  0.1043
    4CHTO   C71 1508   6.682   7.969   0.178  0.0289  0.4165  0.1156
    4CHTO   O47 1509   6.541   7.952   0.155  0.3944  0.0347  0.4836
    4CHTO  H104 1510   6.490   7.951   0.234 -0.4554 -1.2498 -0.0783
    4CHTO   O34 1511   6.756   7.482   0.086 -0.5508 -0.2375  0.2612
    4CHTO   C49 1512   6.616   7.393   0.042  0.2181 -0.2284 -0.0346
    4CHTO   H91 1513   6.563   7.472  -0.012 -1.6477 -2.5556 -1.7438
    4CHTO   C47 1514   6.540   7.355   0.171  0.3583 -0.9017 -0.1697
    4CHTO   H89 1515   6.447   7.303   0.140  0.9847 -2.8925  1.1966
    4CHTO   O33 1516   6.498   7.469   0.246 -0.4846 -0.2012  0.3835
    4CHTO   H70 1517   6.405   7.458   0.261 -0.9551  0.7228 -1.7552
    4CHTO   C45 1518   6.641   7.263   0.267 -0.2953 -0.4485  0.1975
    4CHTO   H87 1519   6.703   7.332   0.327 -0.2376  1.3880 -1.8817
    4CHTO    N8 1520   6.561   7.175   0.356  0.2627 -0.1174 -0.3745
    4CHTO   H75 1521   6.617   7.127   0.435  1.7624 -1.3701 -2.1522
    4CHTO   H76 1522   6.484   7.224   0.413  0.5252 -1.6255  1.3090
    4CHTO   C43 1523   6.743   7.187   0.164  0.5155 -0.1988  0.8629
    4CHTO   H85 1524   6.817   7.265   0.145 -1.3499  0.9799 -1.8173
    4CHTO   O29 1525   6.680   7.148   0.045 -0.3571  0.2030  0.3396
    4CHTO   C50 1526   6.641   7.258  -0.034 -0.4531  0.1175 -0.4335
    4CHTO   H92 1527   6.726   7.280  -0.099  0.5786 -1.5106  0.3452
    4CHTO   C54 1528   6.522   7.207  -0.119  0.4299 -0.1072  0.1341
    4CHTO   O36 1529   6.476   7.301  -0.219  0.5265 -0.1502  0.1526
    4CHTO   H72 1530   6.383   7.312  -0.217  0.9333  4.3515  0.6993
    4CHTO   O27 1531   6.808   7.067   0.221 -0.2341  0.3697  0.3553
    4CHTO   C37 1532   6.883   6.949   0.243 -0.1938 -0.2046 -0.4521
    4CHTO   H79 1533   6.888   6.895   0.148 -0.6146 -0.0685 -0.5530
    4CHTO   C38 1534   7.039   6.982   0.274  0.3063 -0.6730  0.3866
    4CHTO   H80 1535   7.041   7.053   0.357 -3.5362 -0.1670  0.1342
    4CHTO   O31 1536   7.098   7.046   0.155  0.3306 -0.1602  0.1605
    4CHTO   H68 1537   7.073   7.136   0.154 -0.9262 -0.5063 -1.9038
    4CHTO   C39 1538   7.112   6.849   0.305  0.1126  1.0194  0.6806
    4CHTO   H81 1539   7.129   6.788   0.216 -2.6077  1.6262 -0.2866
    4CHTO    N7 1540   7.244   6.874   0.362  0.0800 -0.2108 -0.1191
    4CHTO   H73 1541   7.233   6.905   0.465  0.3803  0.6939 -0.3526
    4CHTO   H74 1542   7.306   6.791   0.332  0.8916  0.7201 -1.0736
    4CHTO   C40 1543   7.030   6.747   0.396 -0.7721 -0.0390 -0.7366
    4CHTO   H82 1544   7.037   6.781   0.500  0.6111 -0.2363 -0.7462
    4CHTO   O26 1545   6.898   6.732   0.348  0.1080  0.0163  0.3743
    4CHTO   C41 1546   6.820   6.857   0.353  0.0092 -0.1367  0.0189
    4CHTO   H83 1547   6.822   6.915   0.447  0.4238 -1.6064  0.9321
    4CHTO   C52 1548   6.672   6.813   0.322  0.7330  1.0887 -0.4822
    4CHTO   O35 1549   6.609   6.720   0.434 -0.6566 -0.2937  0.5496
    4CHTO   H71 1550   6.652   6.749   0.513  0.4071 -0.1209 -0.0786
    4CHTO   O28 1551   7.082   6.613   0.394  0.2811  0.0263  0.1008
    4CHTO   C42 1552   7.178   6.541   0.488  0.3026  0.0805  0.0873
    4CHTO   H84 1553   7.229   6.623   0.539 -3.3123  1.7204  1.2233
    4CHTO   C44 1554   7.283   6.450   0.417 -0.0467  0.4602  0.3153
    4CHTO   H86 1555   7.228   6.383   0.350  0.2478  0.2312  0.2981
    4CHTO   O32 1556   7.371   6.531   0.339  0.5628  0.6612  0.3172
    4CHTO   H69 1557   7.458   6.540   0.372  0.6369  0.1668  0.2521
    4CHTO   C48 1558   7.375   6.364   0.515 -0.0861 -0.2442  0.1143
    4CHTO   H90 1559   7.436   6.433   0.574 -0.4016 -1.0019  1.3364
    4CHTO    N9 1560   7.470   6.265   0.454 -0.2591 -0.6555  0.2913
    4CHTO   H77 1561   7.541   6.323   0.397 -1.7152  1.5259  0.6512
    4CHTO   H78 1562   7.512   6.189   0.518  0.2888  1.7356  2.8619
    4CHTO   C51 1563   7.290   6.290   0.627  0.6454  0.3993  0.2795
    4CHTO   H93 1564   7.237   6.204   0.586 -0.9792  1.2705  0.5059
    4CHTO   O30 1565   7.204   6.384   0.684  0.6461 -0.4867  0.2737
    4CHTO   C46 1566   7.104   6.454   0.599  0.1735 -0.5105 -0.5440
    4CHTO   H88 1567   7.035   6.383   0.553 -2.0841 -0.4787  2.6456
    4CHTO   C53 1568   7.008   6.547   0.677 -0.0093 -0.1528  0.1434
    4CHTO   O72 1569   6.936   6.464   0.772  0.3721  0.3333 -0.2393
    4CHTO  H199 1570   6.967   6.479   0.859  0.5051 -0.8167 -0.0893
    4CHTO   O22 1571   7.365   6.248   0.741 -0.3781  0.5801 -0.4191
    4CHTO   C31 1572   7.313   6.233   0.875  0.4196 -0.3886  0.9183
    4CHTO   H59 1573   7.216   6.287   0.879  0.7517  0.1695  1.3787
    4CHTO   C29 1574   7.285   6.085   0.916  0.0745 -0.4620 -0.2681
    4CHTO   H57 1575   7.381   6.030   0.922  0.2608 -0.5473 -3.0984
    4CHTO   O21 1576   7.211   6.021   0.813  0.2996 -0.0445  0.1522
    4CHTO   H37 1577   7.171   5.941   0.843  0.1761  0.1884  0.6004
    4CHTO   C27 1578   7.229   6.077   1.065 -0.1531 -0.0587  0.1164
    4CHTO   H55 1579   7.126   6.116   1.058 -1.1436 -2.4484  0.7095
    4CHTO    N5 1580   7.219   5.938   1.119 -0.5066  0.5634  0.1954
    4CHTO   H43 1581   7.320   5.904   1.135 -1.0809 -0.2787  2.2544
    4CHTO   H44 1582   7.162   5.938   1.211  1.1630 -0.8699  1.2686
    4CHTO   C25 1583   7.311   6.169   1.166 -0.3205  0.6188  0.3306
    4CHTO   H53 1584   7.396   6.117   1.213 -0.7525 -0.9004 -0.5319
    4CHTO   O17 1585   7.340   6.302   1.110 -0.3310 -0.1913 -0.5406
    4CHTO   C32 1586   7.406   6.304   0.983 -0.2211 -0.2616 -0.1949
    4CHTO   H60 1587   7.498   6.247   0.988 -0.2827 -0.5210 -1.8664
    4CHTO   C36 1588   7.438   6.448   0.947  0.0504 -0.2034 -0.9523
    4CHTO   O25 1589   7.315   6.525   0.920  0.0863 -0.1422  0.2821
    4CHTO   H40 1590   7.339   6.614   0.903  1.5629 -0.6510 -0.4349
    4CHTO   O15 1591   7.236   6.196   1.282 -0.0792  0.4086  0.5415
    4CHTO   C19 1592   7.243   6.291   1.398  0.2769  0.6513  0.1150
    4CHTO   H47 1593   7.168   6.258   1.471  0.0898  0.0941 -0.3260
    4CHTO   C20 1594   7.379   6.287   1.471 -0.1894 -1.0201  0.2322
    4CHTO   H48 1595   7.458   6.322   1.403 -1.0467 -0.1122 -0.3100
    4CHTO   O19 1596   7.398   6.149   1.508 -0.5488  0.3492  1.2335
    4CHTO   H35 1597   7.344   6.118   1.579 -1.4166 -0.9826  0.0164
    4CHTO   C21 1598   7.382   6.386   1.587 -0.1031 -0.1460  0.5278
    4CHTO   H49 1599   7.297   6.355   1.649 -1.1852  3.4793  0.9512
    4CHTO    N4 1600   7.508   6.380   1.666 -0.2153  0.1072 -0.0148
    4CHTO   H41 1601   7.506   6.462   1.736  1.6122  2.8534 -2.9983
    4CHTO   H42 1602   7.524   6.285   1.714 -1.9306 -0.9971 -1.5382
    4CHTO   C22 1603   7.343   6.522   1.525 -0.3279  0.0497 -0.5707
    4CHTO   H50 1604   7.422   6.570   1.467  1.4363 -1.7217  0.3163
    4CHTO   O14 1605   7.222   6.525   1.459 -0.1460 -0.9592 -0.9196
    4CHTO   C23 1606   7.207   6.431   1.350 -0.1666  0.0287 -0.5110
    4CHTO   H51 1607   7.276   6.470   1.275 -0.8406 -0.7444 -1.5369
    4CHTO   C34 1608   7.060   6.446   1.297  0.2645  0.3113 -0.4810
    4CHTO   O23 1609   7.059   6.405   1.158  0.0344  0.1121  0.6585
    4CHTO   H38 1610   7.088   6.478   1.108  0.0691  0.3580  1.0384
    4CHTO   O16 1611   7.332   6.626   1.629 -0.0148 -0.1177 -0.5837
    4CHTO   C24 1612   7.322   6.791   1.572  0.4843  0.6336  0.7815
    4CHTO   H52 1613   7.295   6.791   1.466  1.0282 -0.0793  0.6402
    4CHTO   C26 1614   7.454   6.862   1.593  0.4029 -0.5262 -0.9608
    4CHTO   H54 1615   7.468   6.871   1.702  0.5373 -0.1450 -1.0056
    4CHTO   O20 1616   7.560   6.783   1.521 -0.2223  0.0991  0.5413
    4CHTO   H36 1617   7.592   6.716   1.578  1.7746  0.6351  0.0748
    4CHTO   C30 1618   7.444   7.013   1.541 -0.0204 -0.1218 -0.0971
    4CHTO   H58 1619   7.428   7.012   1.432  1.2512  0.0658 -0.2941
    4CHTO    N6 1620   7.567   7.083   1.578  0.2120  0.5809  0.1648
    4CHTO   H45 1621   7.650   7.020   1.604  1.3069  1.8761 -0.1892
    4CHTO   H46 1622   7.598   7.156   1.505  0.6643  1.6713  1.4545
    4CHTO   C33 1623   7.316   7.087   1.604  0.7397  0.9272 -0.1210
    4CHTO   H61 1624   7.322   7.108   1.711  3.1905 -0.5150  0.0698
    4CHTO   O18 1625   7.199   6.998   1.586  0.5084 -0.5991 -0.2123
    4CHTO   C28 1626   7.211   6.871   1.652  0.3999  0.7834 -0.0801
    4CHTO   H56 1627   7.249   6.890   1.753 -0.8943 -0.8481  0.7430
    4CHTO   C35 1628   7.074   6.785   1.665 -0.1182  0.2269  0.0806
    4CHTO   O24 1629   7.004   6.736   1.553  0.1209 -0.4217 -0.3685
    4CHTO   H39 1630   6.937   6.798   1.530  0.7775  0.1548 -0.7691
    4CHTO    O9 1631   7.304   7.215   1.544  0.4152 -0.0638  0.7301
    4CHTO   C13 1632   7.186   7.308   1.592  0.3653 -0.0811  0.4178
    4CHTO   H26 1633   7.098   7.242   1.598  0.6912 -0.5348  0.2521
    4CHTO   C11 1634   7.166   7.431   1.489 -0.6870  0.0770  0.1994
    4CHTO   H24 1635   7.153   7.386   1.389  2.6958 -0.8733  0.1347
    4CHTO    O8 1636   7.287   7.509   1.486 -0.0761  0.4571  0.0174
    4CHTO    H3 1637   7.362   7.454   1.471 -0.0724 -0.0444  1.7579
    4CHTO    C9 1638   7.044   7.509   1.547  0.1425  0.0323  0.8945
    4CHTO   H22 1639   6.965   7.434   1.559 -0.6515  1.0864  2.3184
    4CHTO    N2 1640   6.998   7.611   1.458 -0.5074  0.2856 -0.4991
    4CHTO   H10 1641   7.046   7.707   1.475  1.4052 -0.9043  1.0885
    4CHTO   H11 1642   6.891   7.612   1.470 -0.5189  0.9232 -0.6321
    4CHTO    C7 1643   7.086   7.572   1.693 -0.1733  0.6031 -0.6332
    4CHTO   H20 1644   6.999   7.619   1.743  0.2129 -0.6179  1.2377
    4CHTO    O4 1645   7.131   7.476   1.790 -0.6712  0.0122  0.0516
    4CHTO   C14 1646   7.216   7.368   1.737 -0.4263  0.2543  0.2501
    4CHTO   H27 1647   7.191   7.286   1.808 -0.6502  0.2801  0.2030
    4CHTO   C18 1648   7.371   7.397   1.753  0.0976 -0.2779 -0.7357
    4CHTO   O13 1649   7.393   7.403   1.898 -0.0189  0.2710 -0.0026
    4CHTO    H7 1650   7.441   7.481   1.920  0.7645  0.3780 -2.0181
    4CHTO    O2 1651   7.187   7.685   1.671  0.1011  0.0604  0.6828
    4CHTO    C1 1652   7.151   7.817   1.717 -0.7730 -0.1490  0.1840
    4CHTO   H14 1653   7.042   7.829   1.729 -0.7662  0.7489 -0.5263
    4CHTO    C2 1654   7.198   7.929   1.614  0.3336 -0.4344 -0.1059
    4CHTO   H15 1655   7.296   7.896   1.576 -1.1465 -1.9317 -2.8387
    4CHTO    O6 1656   7.100   7.942   1.502  0.0434  0.3078 -0.2682
    4CHTO    H1 1657   7.142   7.972   1.424  2.3823 -2.5412 -0.2158
    4CHTO    C3 1658   7.214   8.074   1.682 -0.0553 -0.1692  0.2431
    4CHTO   H16 1659   7.122   8.131   1.659  1.2026  2.0164  0.4843
    4CHTO    N1 1660   7.325   8.152   1.607 -0.4683  0.7645 -0.2099
    4CHTO    H8 1661   7.348   8.240   1.665  2.9150 -0.8998  1.1053
    4CHTO    H9 1662   7.414   8.091   1.616 -0.4872  0.9484  1.3601
    4CHTO    C4 1663   7.226   8.077   1.837 -0.4324 -0.4498  0.5693
    4CHTO   H17 1664   7.331   8.074   1.868 -0.5045  0.3981  0.8862
    4CHTO    O1 1665   7.151   7.972   1.905 -0.0865  0.1482 -0.2973
    4CHTO    C5 1666   7.198   7.847   1.864 -0.0097  0.3022 -0.3126
    4CHTO   H18 1667   7.307   7.838   1.859 -0.0912 -0.8512 -0.3192
    4CHTO   C16 1668   7.140   7.749   1.970  0.0220  0.2518 -0.1186
    4CHTO   O11 1669   7.195   7.777   2.098 -0.6996 -0.3707  0.4290
    4CHTO    H5 1670   7.268   7.720   2.113  0.6309  0.6663 -1.8037
    4CHTO    O3 1671   7.164   8.197   1.886  0.0445 -0.2037 -0.0834
    4CHTO    C6 1672   7.233   8.297   1.971  0.9109  0.5486 -0.1529
    4CHTO   H19 1673   7.340   8.276   1.964  0.6713 -0.1252 -2.1378
    4CHTO    C8 1674   7.199   8.441   1.919  0.1056  0.6379  0.6706
    4CHTO   H21 1675   7.090   8.445   1.915  0.1100 -0.6883 -2.3428
    4CHTO    O7 1676   7.260   8.460   1.788 -0.4742 -0.2380  0.2907
    4CHTO    H2 1677   7.349   8.489   1.787  0.6059 -3.3070  1.8777
    4CHTO   C12 1678   7.255   8.547   2.016 -0.7455  0.0903  0.0812
    4CHTO   H25 1679   7.366   8.542   2.013 -0.7193 -1.0742  2.0728
    4CHTO    N3 1680   7.221   8.685   1.969  0.2412 -0.1463  0.2069
    4CHTO   H12 1681   7.263   8.749   2.045  0.8617  0.0522 -0.3001
    4CHTO   H13 1682   7.114   8.698   1.963  0.0813 -1.9677 -1.7265
    4CHTO   C15 1683   7.215   8.519   2.162 -0.7326 -0.8868  0.0240
    4CHTO   H28 1684   7.109   8.540   2.175 -0.4691  0.9689 -0.6974
    4CHTO   O10 1685   7.287   8.614   2.277  0.4258  0.7609  0.7425
    4CHTO    H4 1686   7.380   8.618   2.265  0.5955 -1.0368  1.2834
    4CHTO    O5 1687   7.258   8.388   2.202 -0.6154 -0.5574 -0.1571
    4CHTO   C10 1688   7.190   8.280   2.121 -0.3068  0.4796  0.0984
    4CHTO   H23 1689   7.083   8.292   2.136 -0.5408 -0.7272 -0.5561
    4CHTO   C17 1690   7.229   8.139   2.163  0.8082 -0.2320 -0.2947
    4CHTO   O12 1691   7.202   8.107   2.296 -0.0836 -0.1180 -0.1363
    4CHTO    H6 1692   7.199   8.014   2.307  1.4263 -0.4050 -1.8976
    5CHTO  H203 1693   7.581   3.625   0.859  1.0057  0.2803 -1.2517
    5CHTO   O82 1694   7.595   3.713   0.889 -0.5167  0.0800  0.0692
    5CHTO  C123 1695   7.654   3.714   1.017 -0.4632  0.9808  0.3067
    5CHTO  H227 1696   7.754   3.673   0.998 -1.1073 -1.7370  2.5225
    5CHTO   O77 1697   7.655   3.852   1.052  0.6558  0.0011 -0.6764
    5CHTO  C118 1698   7.711   3.889   1.178 -0.2169  0.1748 -0.2979
    5CHTO  H222 1699   7.815   3.852   1.180 -1.2107 -2.7893  0.3840
    5CHTO  C125 1700   7.707   4.049   1.167 -0.4864 -0.1377 -0.2178
    5CHTO   O84 1701   7.752   4.121   1.279  0.4928 -0.0165 -0.3969
    5CHTO  H205 1702   7.846   4.116   1.287  0.3993  0.3071  1.1010
    5CHTO  C114 1703   7.619   3.829   1.282 -0.1393  0.1585  0.5205
    5CHTO  H218 1704   7.515   3.859   1.268 -0.1616 -0.0824  0.1526
    5CHTO  C116 1705   7.617   3.677   1.270 -0.1712 -0.4764  0.0264
    5CHTO  H220 1706   7.711   3.629   1.304  0.7809 -0.0436 -1.9583
    5CHTO   O79 1707   7.530   3.617   1.367 -0.5061  0.0383 -0.7067
    5CHTO  H201 1708   7.541   3.651   1.454  0.4202 -0.4054 -0.6461
    5CHTO  C120 1709   7.572   3.637   1.126  0.4390  0.1346 -0.3662
    5CHTO  H224 1710   7.466   3.664   1.110  0.3312 -0.8309 -1.3987
    5CHTO   N21 1711   7.589   3.486   1.097 -0.6824 -0.4765 -0.4322
    5CHTO  H211 1712   7.551   3.422   1.175  0.1874  0.0458  0.4393
    5CHTO  H212 1713   7.562   3.450   0.999  0.5686 -2.1960 -0.1701
    5CHTO   O75 1714   7.674   3.870   1.412  0.2818 -0.9729  0.1064
    5CHTO  C112 1715   7.560   3.921   1.526 -0.6446 -0.3202  0.4108
    5CHTO  H216 1716   7.470   3.859   1.520 -1.0680  0.2637  0.7873
    5CHTO   O73 1717   7.535   4.061   1.502  0.0425  0.2365  0.3122
    5CHTO  C113 1718   7.435   4.112   1.588  0.0937  0.0156 -0.4805
    5CHTO  H217 1719   7.339   4.065   1.555 -0.8585 -0.8793  3.3521
    5CHTO  C124 1720   7.430   4.261   1.559 -0.5682  0.2118 -0.2643
    5CHTO   O83 1721   7.338   4.353   1.617  0.3630 -0.2054 -0.2701
    5CHTO  H204 1722   7.332   4.436   1.574 -0.0130 -0.4910 -0.7788
    5CHTO  C109 1723   7.457   4.083   1.739 -1.2469 -0.6979  0.1121
    5CHTO  H213 1724   7.514   4.170   1.775 -3.8168  2.1253 -2.3668
    5CHTO  C110 1725   7.528   3.951   1.774 -0.1648  0.1133  0.0612
    5CHTO  H214 1726   7.454   3.877   1.806  1.3463 -0.5821  2.0817
    5CHTO   O78 1727   7.604   3.969   1.903 -0.1637 -0.1930  0.3815
    5CHTO  H200 1728   7.638   4.057   1.910 -1.0578  0.3389 -1.4904
    5CHTO  C111 1729   7.628   3.901   1.669  0.7019 -0.7194  0.3981
    5CHTO  H215 1730   7.717   3.966   1.673  0.1451  0.2052 -1.5534
    5CHTO   N19 1731   7.672   3.756   1.689 -0.4454  0.0580 -0.0757
    5CHTO  H207 1732   7.593   3.690   1.719 -0.2353 -0.5338 -0.8038
    5CHTO  H208 1733   7.704   3.723   1.591  0.8832 -2.2079  1.0767
    5CHTO   O74 1734   7.329   4.090   1.800 -0.1744  0.2401 -0.1984
    5CHTO  C115 1735   7.334   4.116   1.954  0.6400 -0.9536  0.0083
    5CHTO  H219 1736   7.433   4.103   1.997  0.6029  1.1055  0.7719
    5CHTO   O76 1737   7.288   4.268   1.984 -0.3835  0.4182  0.3849
    5CHTO  C122 1738   7.160   4.310   1.925  0.9174 -0.0981 -0.1955
    5CHTO  H226 1739   7.173   4.334   1.820 -0.9058  2.1283  0.0367
    5CHTO  C126 1740   7.109   4.449   1.990 -0.6835  0.4940  0.4456
    5CHTO   O85 1741   7.004   4.510   1.905 -0.4064 -0.4610  0.2083
    5CHTO  H206 1742   7.040   4.533   1.822  0.0936 -0.2495  0.4786
    5CHTO  C121 1743   7.050   4.193   1.922  0.0030  0.6201  0.3742
    5CHTO  H225 1744   6.952   4.240   1.947 -0.0581 -0.7433  2.8369
    5CHTO   O81 1745   7.045   4.133   1.791  0.1947 -0.2936  0.7818
    5CHTO  H202 1746   7.120   4.080   1.772  2.0183  2.2828  0.5199
    5CHTO  C119 1747   7.087   4.093   2.032 -0.1101 -0.3125  0.6467
    5CHTO  H223 1748   7.097   4.155   2.121 -0.4750 -1.4412  1.4805
    5CHTO  C117 1749   7.227   4.016   2.025 -0.1161 -0.2726 -0.5222
    5CHTO  H221 1750   7.225   3.925   1.964 -0.0920 -0.7029  0.1170
    5CHTO   N20 1751   7.282   3.972   2.161  0.8062  0.2573 -0.6480
    5CHTO  H209 1752   7.385   3.939   2.157  1.2252  1.2600  1.1880
    5CHTO  H210 1753   7.277   4.060   2.223  0.6317  0.1034 -0.4459
    5CHTO   O80 1754   6.948   3.992   2.076  0.2327 -0.1254 -0.2598
    5CHTO  C103 1755   6.834   3.977   1.990 -0.1482 -0.3118 -0.8674
    5CHTO  H190 1756   6.826   4.049   1.908 -1.3425  0.6350  0.0602
    5CHTO  C101 1757   6.839   3.837   1.926 -0.2331 -0.0529 -0.2506
    5CHTO  H188 1758   6.873   3.772   2.007 -2.5206  0.6390  1.3077
    5CHTO   O68 1759   6.951   3.846   1.825  0.0706  0.4351  0.8675
    5CHTO  H168 1760   6.980   3.933   1.807 -0.8352  0.6959  0.6520
    5CHTO   C99 1761   6.699   3.790   1.857 -0.1024  0.0837 -0.7104
    5CHTO  H186 1762   6.675   3.841   1.762 -1.1736  0.7105 -0.1124
    5CHTO   N17 1763   6.708   3.644   1.823  0.8815  0.0560  0.2310
    5CHTO  H174 1764   6.806   3.603   1.844 -0.3057 -1.9197  2.2085
    5CHTO  H175 1765   6.670   3.612   1.727  0.9766 -0.4618  0.3644
    5CHTO   C97 1766   6.586   3.830   1.952  0.0771 -0.0988 -0.4488
    5CHTO  H184 1767   6.581   3.764   2.039  2.2278  1.5315  0.9838
    5CHTO   O64 1768   6.599   3.967   1.998  0.5285 -0.1456  0.3192
    5CHTO  C104 1769   6.711   3.997   2.082  0.3132  1.0697  0.2993
    5CHTO  H191 1770   6.717   3.928   2.166 -0.8057 -0.9175 -1.2044
    5CHTO  C108 1771   6.702   4.135   2.139 -0.6339  0.3669 -0.0877
    5CHTO   O71 1772   6.674   4.229   2.035  0.0252 -0.4477 -0.4999
    5CHTO  H171 1773   6.703   4.315   2.058 -0.6247 -0.4444  0.3286
    5CHTO   O62 1774   6.464   3.829   1.881 -0.0068 -0.3674  0.5449
    5CHTO   C91 1775   6.338   3.799   1.944 -0.2733  0.1599 -0.4134
    5CHTO  H178 1776   6.346   3.805   2.053 -1.5729 -0.4221 -0.2775
    5CHTO   C92 1777   6.291   3.650   1.922  0.3357 -0.0478  0.4491
    5CHTO  H179 1778   6.300   3.630   1.814 -2.1231 -1.1530  0.4262
    5CHTO   O66 1779   6.393   3.563   1.974  0.8209  0.2020  0.5212
    5CHTO  H166 1780   6.418   3.588   2.061 -0.5613 -2.7803  1.8380
    5CHTO   C93 1781   6.144   3.616   1.962 -0.2134  0.6412 -0.0433
    5CHTO  H180 1782   6.146   3.598   2.070 -1.1862  1.7859  0.1727
    5CHTO   N16 1783   6.102   3.487   1.902 -0.3122 -0.0830 -0.3312
    5CHTO  H172 1784   6.108   3.401   1.967 -2.0574 -0.6469 -0.8925
    5CHTO  H173 1785   6.158   3.468   1.811  0.3420 -1.7159  0.3921
    5CHTO   C94 1786   6.047   3.736   1.929 -0.0991  0.2749 -0.0827
    5CHTO  H181 1787   6.015   3.740   1.825 -2.2753  0.5805  0.5658
    5CHTO   O61 1788   6.101   3.864   1.962 -0.2741  0.1114  0.6849
    5CHTO   C95 1789   6.221   3.890   1.892  0.0004 -0.2762 -0.3587
    5CHTO  H182 1790   6.205   3.887   1.785  0.9844  0.7249 -0.5419
    5CHTO  C106 1791   6.259   4.037   1.920 -0.5614  0.6217 -0.5788
    5CHTO   O69 1792   6.349   4.081   1.820 -0.4768 -0.2446  0.3070
    5CHTO  H169 1793   6.364   4.170   1.844  1.4016 -0.6962  0.8747
    5CHTO   O63 1794   5.918   3.719   2.016  0.1855 -0.0270 -0.3081
    5CHTO   C96 1795   5.791   3.686   1.914 -0.8245  0.9720 -0.2167
    5CHTO  H183 1796   5.825   3.632   1.825 -0.5685 -0.3021  0.6304
    5CHTO   C98 1797   5.716   3.807   1.869 -0.0744  0.2507 -0.4888
    5CHTO  H185 1798   5.675   3.857   1.958  1.9124  0.2498  0.4632
    5CHTO   O67 1799   5.814   3.901   1.823  0.0754  0.0989  0.0041
    5CHTO  H167 1800   5.779   3.981   1.791  1.1941  0.6035  0.0109
    5CHTO  C102 1801   5.607   3.761   1.766  0.2284 -0.0764  0.7686
    5CHTO  H189 1802   5.657   3.726   1.674 -1.2937 -0.8527  0.2271
    5CHTO   N18 1803   5.526   3.872   1.721 -0.3110 -0.3110  0.7425
    5CHTO  H176 1804   5.457   3.840   1.645  0.1796  1.6254 -0.5385
    5CHTO  H177 1805   5.467   3.908   1.804 -1.3527 -0.0540 -0.1025
    5CHTO  C105 1806   5.527   3.641   1.812 -0.0595 -0.5466 -0.6776
    5CHTO  H192 1807   5.430   3.674   1.851  0.4816  1.4136 -0.9054
    5CHTO   O65 1808   5.589   3.555   1.908 -0.1644 -0.1561  0.0105
    5CHTO  C100 1809   5.690   3.601   1.993  0.5930 -0.1437  0.9756
    5CHTO  H187 1810   5.643   3.671   2.064  0.7735 -0.0225  0.9774
    5CHTO  C107 1811   5.744   3.479   2.077 -0.0974 -0.3756  0.4833
    5CHTO   O70 1812   5.798   3.382   1.989  0.1336  0.5833  0.4273
    5CHTO  H170 1813   5.804   3.297   2.029  1.1413 -0.1112 -1.1457
    5CHTO   O57 1814   5.511   3.536   1.676 -0.2503  0.1690 -0.6424
    5CHTO   C85 1815   5.398   3.445   1.650  0.2549 -0.1560 -0.3236
    5CHTO  H157 1816   5.313   3.486   1.708  1.1221  1.2230 -0.0037
    5CHTO   C83 1817   5.428   3.314   1.718  0.3442 -0.6760  0.2164
    5CHTO  H155 1818   5.440   3.326   1.826  0.2268 -1.0088  0.2650
    5CHTO   O56 1819   5.558   3.262   1.678  0.3304 -0.4489 -0.1373
    5CHTO  H135 1820   5.618   3.263   1.749  4.2577  0.8051 -3.3130
    5CHTO   C81 1821   5.308   3.219   1.689 -0.3041 -0.4817 -0.0494
    5CHTO  H153 1822   5.218   3.276   1.711 -0.9969 -1.9772  1.0219
    5CHTO   N14 1823   5.313   3.094   1.765  0.3856  0.0997 -0.1395
    5CHTO  H141 1824   5.304   3.112   1.870  0.0588  0.7197 -0.2688
    5CHTO  H142 1825   5.392   3.025   1.745 -1.4582 -1.7155 -1.4225
    5CHTO   C79 1826   5.314   3.188   1.532  0.2513  0.0538  0.4066
    5CHTO  H151 1827   5.229   3.123   1.512 -0.8884  1.2664  1.1427
    5CHTO   O52 1828   5.281   3.310   1.461  0.7935 -0.3559 -0.2214
    5CHTO   C86 1829   5.368   3.424   1.498  0.1796 -0.2773  0.4719
    5CHTO  H158 1830   5.461   3.410   1.439  1.2513  0.8635  1.8679
    5CHTO   C90 1831   5.298   3.549   1.440  0.4744 -0.6172  0.5004
    5CHTO   O60 1832   5.387   3.661   1.453  0.0772 -0.2023 -0.6203
    5CHTO  H138 1833   5.338   3.741   1.453  1.1420  0.4720  0.2918
    5CHTO   O50 1834   5.435   3.133   1.480 -0.0775 -0.1237 -0.9355
    5CHTO   C73 1835   5.438   3.054   1.360  0.0125 -0.1817 -0.3302
    5CHTO  H145 1836   5.360   3.093   1.293 -0.2755 -0.5218 -0.1994
    5CHTO   C74 1837   5.411   2.900   1.393 -0.3641  0.5207 -0.4547
    5CHTO  H146 1838   5.308   2.887   1.430 -1.0368  0.2510 -2.3676
    5CHTO   O54 1839   5.425   2.825   1.271 -0.1534 -0.3572 -0.4394
    5CHTO  H133 1840   5.513   2.827   1.238  0.6097  1.0201  1.5589
    5CHTO   C75 1841   5.521   2.851   1.498  0.1812 -0.1238 -0.1969
    5CHTO  H147 1842   5.506   2.912   1.588 -1.2399 -0.3683 -0.2587
    5CHTO   N13 1843   5.506   2.705   1.538 -0.4390 -0.8800  0.4379
    5CHTO  H139 1844   5.582   2.661   1.600 -0.5628 -0.8759  0.5956
    5CHTO  H140 1845   5.412   2.683   1.588  0.3752 -1.1297  1.8985
    5CHTO   C76 1846   5.664   2.874   1.431  0.1401 -0.4737  0.1315
    5CHTO  H148 1847   5.677   2.798   1.354 -2.0962 -1.5188  0.7540
    5CHTO   O49 1848   5.679   3.008   1.383  0.5273 -0.1614  0.4606
    5CHTO   C77 1849   5.582   3.069   1.293 -0.0640  0.4147  0.0394
    5CHTO  H149 1850   5.582   3.026   1.193 -0.9741  0.1186  0.1633
    5CHTO   C88 1851   5.622   3.212   1.266 -0.3684  0.1190  0.2950
    5CHTO   O58 1852   5.571   3.254   1.120 -0.0489 -0.2132 -0.3780
    5CHTO  H136 1853   5.605   3.338   1.096 -0.5250 -0.3988 -1.7381
    5CHTO   O51 1854   5.781   2.869   1.541  0.5916 -0.8050 -0.6228
    5CHTO   C78 1855   5.932   2.926   1.490 -0.1052  0.6642  0.5685
    5CHTO  H150 1856   5.925   2.997   1.404 -2.2994  2.6360  2.3248
    5CHTO   C80 1857   6.030   2.813   1.453 -0.2906 -0.6417 -0.2266
    5CHTO  H152 1858   6.029   2.745   1.541 -0.2538  1.4409  1.4227
    5CHTO   O55 1859   5.976   2.736   1.347  0.3204 -0.0383  0.3896
    5CHTO  H134 1860   6.024   2.664   1.310 -2.2179 -0.9656 -1.2446
    5CHTO   C84 1861   6.176   2.868   1.416 -0.0331 -0.3324 -0.0119
    5CHTO  H156 1862   6.177   2.905   1.314 -1.4001  2.3116  0.8880
    5CHTO   N15 1863   6.265   2.756   1.413 -0.1483  0.4591  0.4114
    5CHTO  H143 1864   6.355   2.775   1.358 -1.3213  1.2033 -1.2598
    5CHTO  H144 1865   6.294   2.733   1.513  0.2529  1.3574  0.5047
    5CHTO   C87 1866   6.229   2.976   1.519  0.3061  0.2047 -0.3862
    5CHTO  H159 1867   6.245   2.931   1.618  1.2062 -0.4193 -0.8087
    5CHTO   O53 1868   6.112   3.080   1.534 -0.1011 -1.0126  0.3815
    5CHTO   C82 1869   5.992   3.025   1.587 -0.3910  0.5741  0.4405
    5CHTO  H154 1870   6.024   2.976   1.680 -1.1774 -1.2018 -0.2095
    5CHTO   C89 1871   5.887   3.139   1.626 -0.4080  0.1619  0.3084
    5CHTO   O59 1872   5.856   3.227   1.522 -0.2090  0.0014 -0.5820
    5CHTO  H137 1873   5.901   3.309   1.528  0.5556 -0.3407 -1.5901
    5CHTO   O45 1874   6.370   3.048   1.472 -0.3889  0.4577 -0.4087
    5CHTO   C67 1875   6.461   3.084   1.576 -0.2385 -0.0402  0.1436
    5CHTO  H124 1876   6.412   3.057   1.670 -1.3665 -0.6579 -0.6123
    5CHTO   C65 1877   6.586   2.998   1.569  0.3511  0.5521 -0.4699
    5CHTO  H122 1878   6.598   2.958   1.469  0.1895  0.0910 -0.3077
    5CHTO   O44 1879   6.556   2.889   1.662  0.3853 -0.1276  0.3841
    5CHTO  H102 1880   6.619   2.887   1.732  1.3699 -1.6246 -0.5204
    5CHTO   C63 1881   6.722   3.083   1.600 -0.4581 -0.6272 -0.3640
    5CHTO  H120 1882   6.747   3.143   1.513 -1.2683 -0.8106 -0.7345
    5CHTO   N11 1883   6.847   3.001   1.614  0.4343  0.2216  0.6238
    5CHTO  H108 1884   6.850   2.936   1.699 -0.2368  1.1104  1.3398
    5CHTO  H109 1885   6.931   3.066   1.602  0.5928 -0.3708 -1.5802
    5CHTO   C61 1886   6.686   3.184   1.720  0.4239 -0.2227  0.3351
    5CHTO  H118 1887   6.779   3.242   1.721 -1.1023  2.3371 -0.4308
    5CHTO   O40 1888   6.582   3.278   1.696 -0.3211  0.3951  0.5605
    5CHTO   C68 1889   6.491   3.244   1.587  0.3295 -0.0644  0.0696
    5CHTO  H125 1890   6.543   3.277   1.495  0.4350 -0.1187  0.1091
    5CHTO   C72 1891   6.366   3.333   1.604  0.1905  0.0038  0.3509
    5CHTO   O48 1892   6.396   3.465   1.555  0.1756 -0.7465  0.5160
    5CHTO  H105 1893   6.387   3.464   1.462 -2.5885  0.9542  0.7161
    5CHTO   O38 1894   6.663   3.120   1.850 -0.1887  0.5746  0.0418
    5CHTO   C55 1895   6.621   3.203   1.957  0.2573 -0.1623 -0.0101
    5CHTO  H112 1896   6.561   3.283   1.912 -0.9369 -1.5695 -0.9743
    5CHTO   C56 1897   6.743   3.256   2.043 -0.4585  0.0817 -0.7909
    5CHTO  H113 1898   6.790   3.167   2.087 -3.7702 -1.2105  0.2355
    5CHTO   O42 1899   6.845   3.320   1.963  0.0286 -0.3450 -0.2582
    5CHTO  H100 1900   6.806   3.397   1.925 -0.4026 -0.5416 -0.2181
    5CHTO   C57 1901   6.689   3.355   2.154 -0.6410 -0.0728  0.5623
    5CHTO  H114 1902   6.645   3.447   2.118 -0.8491 -0.2351  0.4054
    5CHTO   N10 1903   6.800   3.405   2.246 -1.3618 -0.4593  0.6922
    5CHTO  H106 1904   6.744   3.430   2.335 -1.3698  0.5577  0.4011
    5CHTO  H107 1905   6.875   3.331   2.272 -0.3867 -0.1586 -1.1840
    5CHTO   C58 1906   6.582   3.280   2.237 -0.1877  0.2641 -0.0911
    5CHTO  H115 1907   6.635   3.201   2.294  1.5447  1.4594  0.0119
    5CHTO   O37 1908   6.476   3.209   2.163  0.2317 -0.0076 -0.5727
    5CHTO   C59 1909   6.526   3.119   2.053 -0.0121  0.3724 -0.5264
    5CHTO  H116 1910   6.587   3.041   2.098  0.9060  1.1988 -0.3245
    5CHTO   C70 1911   6.411   3.043   1.984 -0.4164  0.7818 -0.2648
    5CHTO   O46 1912   6.366   2.936   2.062 -0.5468  0.6101 -0.5628
    5CHTO  H103 1913   6.280   2.959   2.091 -0.1109  0.6463  0.7522
    5CHTO   O39 1914   6.513   3.399   2.338 -0.6538  0.4413  0.0996
    5CHTO   C60 1915   6.384   3.457   2.310 -0.6494 -0.5250  0.1753
    5CHTO  H117 1916   6.372   3.482   2.204 -1.5469  1.0750  0.6382
    5CHTO   C62 1917   6.255   3.379   2.357 -0.2862 -0.0492 -0.7649
    5CHTO  H119 1918   6.267   3.288   2.294  1.5577  1.1069 -2.1418
    5CHTO   O43 1919   6.271   3.344   2.497 -0.1204 -0.4494  0.7191
    5CHTO  H101 1920   6.192   3.310   2.535 -0.9838  1.0372  0.2978
    5CHTO   C66 1921   6.120   3.459   2.328  0.1974 -0.0899  0.3013
    5CHTO  H123 1922   6.116   3.478   2.220  0.5461 -0.1154  0.2832
    5CHTO   N12 1923   5.995   3.383   2.365  0.0853  0.2344  0.5924
    5CHTO  H110 1924   5.971   3.305   2.294  1.3511  0.4328 -0.0770
    5CHTO  H111 1925   5.907   3.438   2.393 -0.8410 -0.2500 -1.2591
    5CHTO   C69 1926   6.128   3.605   2.395  0.0752  0.2543 -0.0028
    5CHTO  H126 1927   6.137   3.596   2.505  0.5052  2.0013  0.1236
    5CHTO   O41 1928   6.258   3.673   2.350  0.5366  0.2166  0.3547
    5CHTO   C64 1929   6.386   3.597   2.375  0.8058 -0.3043  0.4696
    5CHTO  H121 1930   6.402   3.570   2.481 -0.4978 -0.2039  0.6936
    5CHTO   C71 1931   6.502   3.688   2.321 -0.1422  0.2575 -0.3668
    5CHTO   O47 1932   6.526   3.800   2.419 -0.4910  0.3828 -0.1171
    5CHTO  H104 1933   6.481   3.875   2.386  0.0086  0.3126 -0.9672
    5CHTO   O34 1934   5.994   3.718   2.364 -0.0976  0.0744  0.3762
    5CHTO   C49 1935   5.992   3.876   2.362 -0.9712  0.2064 -0.7819
    5CHTO   H91 1936   6.061   3.911   2.284  1.2761 -1.9345  0.1717
    5CHTO   C47 1937   6.033   3.934   2.502 -0.2266 -0.5540 -0.3582
    5CHTO   H89 1938   6.044   4.043   2.488 -2.1860 -0.1998  0.7231
    5CHTO   O33 1939   6.169   3.886   2.533 -0.0596 -0.5255  0.6325
    5CHTO   H70 1940   6.176   3.792   2.531  0.4664 -0.4739 -0.2875
    5CHTO   C45 1941   5.928   3.890   2.604  0.2708  0.3372 -0.1340
    5CHTO   H87 1942   5.924   3.781   2.591 -3.2398  0.6959 -2.9741
    5CHTO    N8 1943   5.972   3.921   2.739  0.8329 -0.4588  0.7386
    5CHTO   H75 1944   5.993   4.027   2.748 -1.6085  0.1046  0.2661
    5CHTO   H76 1945   5.891   3.902   2.808  0.0237  2.6834  0.7234
    5CHTO   C43 1946   5.782   3.939   2.570  0.0538 -0.5219 -0.2010
    5CHTO   H85 1947   5.721   3.878   2.637  1.8616 -2.9257 -0.6984
    5CHTO   O29 1948   5.749   3.919   2.429  0.0865 -0.3052 -0.5290
    5CHTO   C50 1949   5.855   3.929   2.325 -0.4924 -0.5583 -0.1730
    5CHTO   H92 1950   5.824   3.863   2.242  1.3633  0.4753 -1.7254
    5CHTO   C54 1951   5.859   4.070   2.252  0.3789  0.1287 -0.1242
    5CHTO   O36 1952   5.933   4.081   2.135  0.2271  0.6050  0.6057
    5CHTO   H72 1953   5.969   4.000   2.104 -0.4329  1.0275 -1.3063
    5CHTO   O27 1954   5.764   4.078   2.598  0.3128 -0.5560 -0.2212
    5CHTO   C37 1955   5.651   4.169   2.611  0.8811  0.0700  0.2408
    5CHTO   H79 1956   5.672   4.251   2.541  1.3457  0.7984  1.2164
    5CHTO   C38 1957   5.510   4.102   2.598  0.1186  0.0089 -0.6337
    5CHTO   H80 1958   5.509   4.008   2.655 -2.3282  1.6005  2.0495
    5CHTO   O31 1959   5.505   4.077   2.454 -0.1300 -1.2977 -0.5008
    5CHTO   H68 1960   5.501   4.152   2.398  2.1565 -0.3250  0.5959
    5CHTO   C39 1961   5.392   4.188   2.644 -0.2369  0.3411  0.4170
    5CHTO   H81 1962   5.387   4.278   2.582 -0.7731  0.2588  0.3380
    5CHTO    N7 1963   5.258   4.118   2.638  0.4138 -0.4251 -0.6526
    5CHTO   H73 1964   5.175   4.186   2.655 -1.2100 -1.9628 -2.1004
    5CHTO   H74 1965   5.236   4.085   2.537 -0.0304  1.4270 -1.1923
    5CHTO   C40 1966   5.426   4.241   2.785 -0.3821 -0.4980  0.7813
    5CHTO   H82 1967   5.420   4.154   2.850 -0.8205 -2.0095 -1.2124
    5CHTO   O26 1968   5.551   4.310   2.784  0.7150 -0.4218 -0.4086
    5CHTO   C41 1969   5.659   4.225   2.753  0.2299  0.1186  0.1912
    5CHTO   H83 1970   5.664   4.148   2.832  0.0895  0.0278  0.1120
    5CHTO   C52 1971   5.791   4.291   2.779 -0.0979  0.0220  0.1353
    5CHTO   O35 1972   5.822   4.316   2.916 -0.1698  0.2388 -0.2417
    5CHTO   H71 1973   5.835   4.407   2.935 -2.7825  0.6008  0.0204
    5CHTO   O28 1974   5.345   4.346   2.845 -0.2189  0.0343  0.4361
    5CHTO   C42 1975   5.318   4.366   2.991 -0.0461 -0.5461  0.9015
    5CHTO   H84 1976   5.243   4.444   2.984  0.8252  0.3642  1.5350
    5CHTO   C44 1977   5.439   4.429   3.071 -0.1665 -0.0304 -0.1437
    5CHTO   H86 1978   5.514   4.459   2.997 -1.5704 -0.2178 -1.6824
    5CHTO   O32 1979   5.394   4.548   3.140 -0.2408  0.8412 -0.3345
    5CHTO   H69 1980   5.335   4.594   3.084 -1.2686 -0.5296 -0.3974
    5CHTO   C48 1981   5.504   4.318   3.168 -0.5125  0.1138 -1.1953
    5CHTO   H90 1982   5.452   4.322   3.264  0.1407  1.9884 -0.9041
    5CHTO    N9 1983   5.642   4.349   3.210  0.6111  0.0494 -0.3558
    5CHTO   H77 1984   5.649   4.450   3.246  0.8285 -0.8824  2.3843
    5CHTO   H78 1985   5.720   4.338   3.136  4.1466  1.4079  2.9767
    5CHTO   C51 1986   5.495   4.165   3.107  0.2505  0.4778  0.7445
    5CHTO   H93 1987   5.556   4.170   3.017  0.6841 -0.7114  0.9565
    5CHTO   O30 1988   5.359   4.119   3.079  0.6171 -0.0633 -0.4315
    5CHTO   C46 1989   5.250   4.242   3.057  0.5197 -0.1365 -0.4326
    5CHTO   H88 1990   5.178   4.194   2.991 -0.1917  0.4387 -0.0908
    5CHTO   C53 1991   5.172   4.278   3.192 -0.5460  0.5089  0.1313
    5CHTO   O72 1992   5.051   4.209   3.187  0.4751  0.0439 -0.2307
    5CHTO  H199 1993   4.982   4.261   3.150  0.1205 -1.9325 -2.4686
    5CHTO   O22 1994   5.540   4.064   3.201 -0.4896 -0.0237  0.2740
    5CHTO   C31 1995   5.580   3.930   3.163 -0.2650 -0.3004 -0.0410
    5CHTO   H59 1996   5.623   3.888   3.257 -1.5245  0.7016  1.0003
    5CHTO   C29 1997   5.465   3.832   3.118  0.5979 -0.4952  0.5902
    5CHTO   H57 1998   5.409   3.871   3.032  0.5625 -0.2965  0.7029
    5CHTO   O21 1999   5.373   3.815   3.222 -0.3457  0.0218  0.1046
    5CHTO   H37 2000   5.333   3.731   3.214  1.2820 -0.6882 -0.8725
    5CHTO   C27 2001   5.518   3.684   3.077 -0.6477 -0.2949 -0.2814
    5CHTO   H55 2002   5.557   3.635   3.168 -3.3331 -1.0027  0.5510
    5CHTO    N5 2003   5.413   3.598   3.020 -0.6841  0.4904 -0.8568
    5CHTO   H43 2004   5.365   3.662   2.947 -3.2020  3.0691  2.8977
    5CHTO   H44 2005   5.337   3.580   3.094 -0.3279 -0.5176 -0.7273
    5CHTO   C25 2006   5.639   3.699   2.985 -0.1311 -0.6751  0.4559
    5CHTO   H53 2007   5.604   3.744   2.891 -0.1302 -0.8139  0.3890
    5CHTO   O17 2008   5.737   3.786   3.047 -0.4561 -0.4135 -0.1028
    5CHTO   C32 2009   5.698   3.923   3.062  0.4728  0.2444 -0.0589
    5CHTO   H60 2010   5.660   3.957   2.965 -0.8949 -1.9298 -0.3400
    5CHTO   C36 2011   5.814   4.021   3.108 -0.4884  0.1418  0.3190
    5CHTO   O25 2012   5.932   4.016   3.035 -0.2978  0.0124 -0.5415
    5CHTO   H40 2013   5.928   4.053   2.949 -0.7278 -0.4801 -0.7368
    5CHTO   O15 2014   5.700   3.558   2.938  0.3149  0.7520 -0.0170
    5CHTO   C19 2015   5.793   3.478   3.011 -0.1604  0.5953  0.4570
    5CHTO   H47 2016   5.804   3.542   3.100  0.5288  0.7359  0.2698
    5CHTO   C20 2017   5.741   3.333   3.037  0.6239  0.3795 -0.5152
    5CHTO   H48 2018   5.709   3.280   2.946  1.0141 -2.6108  1.0227
    5CHTO   O19 2019   5.631   3.346   3.128 -0.1137  0.0346  0.0969
    5CHTO   H35 2020   5.582   3.267   3.137 -1.6028  1.0120  1.0251
    5CHTO   C21 2021   5.848   3.236   3.109 -0.8884  0.3776  0.4191
    5CHTO   H49 2022   5.877   3.277   3.205  1.7039 -0.6894  0.1296
    5CHTO    N4 2023   5.795   3.097   3.125 -0.4079 -0.5308  0.0411
    5CHTO   H41 2024   5.745   3.093   3.221  0.5598  0.4304  0.5997
    5CHTO   H42 2025   5.730   3.059   3.047  0.9824  0.9977 -1.9316
    5CHTO   C22 2026   5.972   3.245   3.016 -0.1390 -1.0078  0.0904
    5CHTO   H50 2027   5.944   3.197   2.922  0.6279 -1.7010  0.2025
    5CHTO   O14 2028   6.022   3.379   3.002 -0.3632 -0.1079 -0.5340
    5CHTO   C23 2029   5.931   3.464   2.931 -0.9993  0.8391  0.5214
    5CHTO   H51 2030   5.917   3.427   2.829  0.4665  1.0748  0.2266
    5CHTO   C34 2031   5.998   3.598   2.920  1.0325  0.0726 -0.2816
    5CHTO   O23 2032   6.099   3.578   2.817  0.6093  0.3529 -0.6151
    5CHTO   H38 2033   6.185   3.597   2.850  1.9403 -1.4804 -2.9128
    5CHTO   O16 2034   6.083   3.172   3.074 -0.4691  0.2598 -0.3095
    5CHTO   C24 2035   6.175   3.100   2.968 -0.9508  0.3069  0.4406
    5CHTO   H52 2036   6.121   3.074   2.877  0.1095  1.7028 -0.6165
    5CHTO   C26 2037   6.220   2.979   3.050 -0.2174  0.3478  0.0365
    5CHTO   H54 2038   6.270   3.019   3.141 -0.2515 -0.7585  0.5433
    5CHTO   O20 2039   6.104   2.897   3.073 -0.2292 -0.1010 -0.3466
    5CHTO   H36 2040   6.046   2.933   3.138 -0.9757 -0.2843 -0.8934
    5CHTO   C30 2041   6.320   2.897   2.970 -0.0344 -0.8326 -0.2086
    5CHTO   H58 2042   6.264   2.852   2.886  0.9638 -0.7636 -0.9257
    5CHTO    N6 2043   6.365   2.782   3.055 -0.2757 -0.1460  0.3522
    5CHTO   H45 2044   6.429   2.816   3.135 -1.2727  0.8017  0.7470
    5CHTO   H46 2045   6.279   2.731   3.096  1.3992 -2.3214  1.2950
    5CHTO   C33 2046   6.438   2.988   2.921  0.0881 -0.3622  0.6276
    5CHTO   H61 2047   6.495   3.026   3.006 -1.8770 -0.6313  2.1135
    5CHTO   O18 2048   6.387   3.098   2.847  0.5251  0.2332 -0.9682
    5CHTO   C28 2049   6.301   3.184   2.924 -0.0330  0.3214 -0.1060
    5CHTO   H56 2050   6.350   3.213   3.017  1.6553 -2.1851 -0.1920
    5CHTO   C35 2051   6.266   3.299   2.822  0.1317  0.0846  0.2408
    5CHTO   O24 2052   6.379   3.380   2.787 -0.1275  0.5260 -0.1531
    5CHTO   H39 2053   6.347   3.438   2.721 -1.5175  1.8988  1.6753
    5CHTO    O9 2054   6.530   2.913   2.840  0.7356 -0.1312  0.2934
    5CHTO   C13 2055   6.491   2.895   2.682 -0.2373 -0.3459  0.3042
    5CHTO   H26 2056   6.382   2.880   2.674 -0.1558 -0.7864 -0.0779
    5CHTO   C11 2057   6.571   2.768   2.636 -0.1861 -0.1162  0.1825
    5CHTO   H24 2058   6.533   2.687   2.700  0.0382 -1.0053 -0.7772
    5CHTO    O8 2059   6.711   2.778   2.668  0.4047 -0.0996 -0.0468
    5CHTO    H3 2060   6.745   2.691   2.659  1.2921  0.3748 -1.5771
    5CHTO    C9 2061   6.533   2.738   2.489 -0.0374 -0.1822 -0.7915
    5CHTO   H22 2062   6.423   2.732   2.486  0.0123 -0.9068 -1.4115
    5CHTO    N2 2063   6.583   2.606   2.445  0.5308  0.0252 -0.3109
    5CHTO   H10 2064   6.509   2.559   2.381 -2.3842  3.4255  0.3788
    5CHTO   H11 2065   6.607   2.540   2.527 -1.8530  0.5987  0.8897
    5CHTO    C7 2066   6.586   2.856   2.398  0.2427  0.7294  0.2629
    5CHTO   H20 2067   6.552   2.830   2.295 -0.4720 -1.1772  0.9491
    5CHTO    O4 2068   6.520   2.981   2.443  0.2827 -0.2871 -0.1541
    5CHTO   C14 2069   6.515   3.017   2.584 -0.5404 -0.5931 -0.2030
    5CHTO   H27 2070   6.428   3.084   2.597 -1.5619 -1.9281 -0.0780
    5CHTO   C18 2071   6.641   3.096   2.635  0.4273  0.2874  0.3004
    5CHTO   O13 2072   6.643   3.236   2.585 -0.0536 -0.1177  0.0332
    5CHTO    H7 2073   6.614   3.290   2.656 -1.6428 -2.0223  0.9028
    5CHTO    O2 2074   6.774   2.877   2.408 -0.6858  0.4143 -0.2033
    5CHTO    C1 2075   6.834   2.932   2.293  0.7552  0.1462  0.0301
    5CHTO   H14 2076   6.775   3.020   2.259  2.4489  1.8650  1.4817
    5CHTO    C2 2077   6.861   2.827   2.173  0.4342  0.4685  0.0435
    5CHTO   H15 2078   6.902   2.735   2.219 -0.5733  0.0058  0.0252
    5CHTO    O6 2079   6.737   2.795   2.116  0.8207 -0.3940 -0.1773
    5CHTO    H1 2080   6.704   2.714   2.151  1.9760 -1.5826 -1.7724
    5CHTO    C3 2081   6.963   2.885   2.067  0.7721 -0.5033  0.4314
    5CHTO   H16 2082   6.910   2.967   2.017  0.9772  0.5710  1.9613
    5CHTO    N1 2083   6.992   2.777   1.963 -0.1938  0.6107 -0.1782
    5CHTO    H8 2084   6.977   2.812   1.862 -2.9655  1.6916  0.5576
    5CHTO    H9 2085   6.921   2.696   1.974  1.7498 -1.4291 -2.0552
    5CHTO    C4 2086   7.090   2.944   2.132  0.9302 -0.4507  0.7455
    5CHTO   H17 2087   7.141   2.863   2.184 -1.4420 -0.6993  2.8377
    5CHTO    O1 2088   7.048   3.040   2.235 -0.2899 -0.0288 -0.4851
    5CHTO    C5 2089   6.968   2.990   2.344  0.8834 -0.1141 -0.6716
    5CHTO   H18 2090   7.016   2.913   2.403 -0.3964  0.3310  0.9958
    5CHTO   C16 2091   6.935   3.117   2.434 -0.0807  0.3029 -0.3012
    5CHTO   O11 2092   7.052   3.194   2.467 -0.7354  0.1754 -0.1054
    5CHTO    H5 2093   7.019   3.270   2.511 -3.8551 -0.6210 -0.9230
    5CHTO    O3 2094   7.173   3.026   2.046 -0.3492  0.1550 -0.0504
    5CHTO    C6 2095   7.314   3.034   2.091  0.4753  0.0544 -0.0724
    5CHTO   H19 2096   7.317   2.992   2.191  0.7802  0.9743  0.3052
    5CHTO    C8 2097   7.405   2.954   1.992 -0.3497  0.3250  0.6594
    5CHTO   H21 2098   7.407   2.998   1.892 -1.5538 -1.1793 -0.0665
    5CHTO    O7 2099   7.358   2.816   1.988 -0.7008 -0.1673 -0.4300
    5CHTO    H2 2100   7.326   2.787   1.905 -0.5439 -0.8516 -0.2532
    5CHTO   C12 2101   7.552   2.949   2.055  0.1563  0.2671 -0.2399
    5CHTO   H25 2102   7.552   2.883   2.144 -0.2827  0.6448  0.0390
    5CHTO    N3 2103   7.650   2.883   1.965 -0.6952  0.4323  0.0602
    5CHTO   H12 2104   7.715   2.951   1.912 -0.0401 -1.3544 -1.4879
    5CHTO   H13 2105   7.707   2.817   2.029 -1.2804 -1.5077 -1.3471
    5CHTO   C15 2106   7.599   3.096   2.099 -0.1074  0.1032  0.5761
    5CHTO   H28 2107   7.627   3.155   2.012  0.0072 -2.0610 -0.8888
    5CHTO   O10 2108   7.714   3.091   2.195  0.1235 -0.5198  0.2433
    5CHTO    H4 2109   7.779   3.155   2.177  2.0744 -1.9516  1.9239
    5CHTO    O5 2110   7.494   3.168   2.172 -0.1468  0.0402  0.7327
    5CHTO   C10 2111   7.374   3.184   2.102 -0.2124  0.1437 -0.0936
    5CHTO   H23 2112   7.403   3.206   1.999  0.2002 -4.7771 -1.1332
    5CHTO   C17 2113   7.281   3.289   2.169 -0.0221 -0.0697 -0.3346
    5CHTO   O12 2114   7.157   3.299   2.111 -0.7843  0.1207 -0.2255
    5CHTO    H6 2115   7.120   3.379   2.143 -0.0147  0.2272  0.4438
    6CHTO  H203 2116   6.222   5.195   0.428 -1.5193  1.8843  2.2984
    6CHTO   O82 2117   6.148   5.196   0.370 -0.0584 -0.6138  0.2366
    6CHTO  C123 2118   6.131   5.337   0.325 -0.0765  0.3427  0.4766
    6CHTO  H227 2119   6.199   5.367   0.244  0.5809 -2.1671  0.0333
    6CHTO   O77 2120   5.991   5.338   0.280  0.0255 -0.2103  0.4440
    6CHTO  C118 2121   5.939   5.467   0.238 -0.3754 -0.1017  0.2248
    6CHTO  H222 2122   6.003   5.504   0.157  0.6796 -0.9714  0.6446
    6CHTO  C125 2123   5.791   5.439   0.180  0.0007  0.1853  0.0052
    6CHTO   O84 2124   5.700   5.409   0.287 -0.6019 -0.3847 -0.1639
    6CHTO  H205 2125   5.656   5.484   0.321 -1.9490 -1.1706 -0.1099
    6CHTO  C114 2126   5.946   5.565   0.359  0.3296  0.9436  0.1116
    6CHTO  H218 2127   5.896   5.518   0.444  1.7285 -2.7129 -0.9895
    6CHTO  C116 2128   6.095   5.580   0.398 -0.5516 -0.2377 -0.4385
    6CHTO  H220 2129   6.150   5.605   0.305 -2.8485 -0.6994 -1.9709
    6CHTO   O79 2130   6.104   5.682   0.500  0.1636  0.2740  0.4089
    6CHTO  H201 2131   6.123   5.770   0.475  0.5322 -0.2886 -1.3116
    6CHTO  C120 2132   6.147   5.435   0.450 -0.1763 -0.2125  0.2460
    6CHTO  H224 2133   6.076   5.401   0.529 -1.7152  2.5980  0.1301
    6CHTO   N21 2134   6.278   5.439   0.526  0.6217  0.1448 -0.7614
    6CHTO  H211 2135   6.342   5.352   0.524 -1.4290 -1.3844 -0.5341
    6CHTO  H212 2136   6.245   5.458   0.627 -1.8326 -2.3024 -1.0520
    6CHTO   O75 2137   5.887   5.691   0.321  0.0726 -0.5085  0.4270
    6CHTO  C112 2138   5.789   5.741   0.428 -0.2341 -0.6581  0.1307
    6CHTO  H216 2139   5.832   5.723   0.527  1.9901  2.4793 -0.1727
    6CHTO   O73 2140   5.661   5.684   0.409  0.4879  0.1242 -0.0918
    6CHTO  C113 2141   5.552   5.708   0.505 -0.2357 -0.5249  0.3215
    6CHTO  H217 2142   5.582   5.661   0.601 -1.2633  1.5792  1.6790
    6CHTO  C124 2143   5.429   5.626   0.461  0.1013 -0.6224  0.2320
    6CHTO   O83 2144   5.415   5.492   0.510 -0.1215 -0.4474 -0.4415
    6CHTO  H204 2145   5.354   5.441   0.461  0.0030  1.5142 -2.6935
    6CHTO  C109 2146   5.515   5.860   0.501 -0.5415 -0.5887  0.5264
    6CHTO  H213 2147   5.490   5.886   0.397  0.8013  1.1831  0.6134
    6CHTO  C110 2148   5.649   5.939   0.530 -0.1374 -0.3723  0.3239
    6CHTO  H214 2149   5.688   5.911   0.628  0.6095 -0.1347  0.0971
    6CHTO   O78 2150   5.616   6.081   0.529 -0.0507  0.3235  0.1215
    6CHTO  H200 2151   5.588   6.110   0.614 -2.0106  1.8305 -0.9960
    6CHTO  C111 2152   5.760   5.900   0.425 -0.0738 -0.1427 -0.1189
    6CHTO  H215 2153   5.716   5.926   0.327  1.4230 -0.1565 -0.8172
    6CHTO   N19 2154   5.886   5.978   0.434  0.1847 -0.0323  0.0355
    6CHTO  H207 2155   5.925   6.000   0.336  0.8714  0.2806  0.3783
    6CHTO  H208 2156   5.950   5.938   0.511 -1.5292  0.3491  1.7126
    6CHTO   O74 2157   5.399   5.889   0.585 -0.3853  0.5472 -0.1148
    6CHTO  C115 2158   5.434   5.898   0.749 -0.7055 -0.1444  0.0003
    6CHTO  H219 2159   5.539   5.922   0.764 -1.0508  0.3935  1.6070
    6CHTO   O76 2160   5.350   6.016   0.822 -0.6882  0.5392 -0.3099
    6CHTO  C122 2161   5.214   5.995   0.829  0.4942  0.5063  0.3351
    6CHTO  H226 2162   5.185   5.977   0.725 -1.7775  0.5059  0.9332
    6CHTO  C126 2163   5.135   6.127   0.863 -0.0802 -0.3409 -0.2256
    6CHTO   O85 2164   4.992   6.107   0.853  0.2135  0.1202  0.4723
    6CHTO  H206 2165   4.943   6.173   0.809  0.2381 -1.2997 -1.7716
    6CHTO  C121 2166   5.180   5.878   0.924 -0.1531  0.0922  0.0222
    6CHTO  H225 2167   5.160   5.923   1.024  2.3921  0.4843  0.4139
    6CHTO   O81 2168   5.070   5.801   0.878  0.0515  0.1097  0.7095
    6CHTO  H202 2169   4.986   5.843   0.883 -0.1095  0.2950 -2.2961
    6CHTO  C119 2170   5.306   5.785   0.944  0.2985  0.5230  0.2660
    6CHTO  H223 2171   5.363   5.830   1.025 -1.2283  0.0821  1.6159
    6CHTO  C117 2172   5.398   5.759   0.813  0.7909 -0.6044  0.1638
    6CHTO  H221 2173   5.353   5.704   0.731  1.8163 -1.0565 -0.1055
    6CHTO   N20 2174   5.514   5.675   0.853  0.6161 -0.4123 -0.7341
    6CHTO  H209 2175   5.571   5.715   0.936  0.7779 -2.2662  0.0774
    6CHTO  H210 2176   5.489   5.571   0.867  1.9883 -0.4986  1.2897
    6CHTO   O80 2177   5.261   5.648   1.014 -0.1233 -0.3644  0.0590
    6CHTO  C103 2178   5.213   5.648   1.171 -0.8279 -0.0874 -0.2343
    6CHTO  H190 2179   5.253   5.742   1.211 -0.6730 -0.4630  0.4929
    6CHTO  C101 2180   5.055   5.636   1.192  0.7247 -0.0644  0.5466
    6CHTO  H188 2181   5.026   5.552   1.129  2.7375 -0.4409  0.0996
    6CHTO   O68 2182   4.990   5.763   1.150  0.1467  0.2292 -0.1498
    6CHTO  H168 2183   5.033   5.801   1.075 -2.2641  2.0438 -0.6924
    6CHTO   C99 2184   5.026   5.599   1.346 -0.2041 -0.5650  0.4194
    6CHTO  H186 2185   5.053   5.682   1.414  1.5512  1.6959 -2.8842
    6CHTO   N17 2186   4.878   5.583   1.377  0.0978  0.2967 -0.6333
    6CHTO  H174 2187   4.824   5.663   1.330 -0.9152 -0.4540 -0.7614
    6CHTO  H175 2188   4.868   5.586   1.485  2.4996 -0.3838 -0.3600
    6CHTO   C97 2189   5.116   5.477   1.383  0.7053 -0.5404 -0.5923
    6CHTO  H184 2190   5.097   5.388   1.321 -2.3189 -0.1071 -0.3700
    6CHTO   O64 2191   5.253   5.519   1.377  0.1448 -0.5423  0.5233
    6CHTO  C104 2192   5.289   5.524   1.239 -0.3663 -0.3862 -0.2318
    6CHTO  H191 2193   5.265   5.430   1.188 -0.0352 -1.5178  1.6405
    6CHTO  C108 2194   5.447   5.536   1.234  0.1081 -0.9635  1.0265
    6CHTO   O71 2195   5.523   5.440   1.302  0.0767 -0.1307 -0.3678
    6CHTO  H171 2196   5.524   5.449   1.396  0.8369  0.6756 -0.4464
    6CHTO   O62 2197   5.115   5.450   1.522 -0.4457 -0.4633  0.2097
    6CHTO   C91 2198   5.135   5.315   1.572 -0.2212  0.2875  0.1527
    6CHTO  H178 2199   5.146   5.324   1.680  1.5175 -0.9993  0.1102
    6CHTO   C92 2200   5.267   5.245   1.527  0.1490  0.7618 -0.0801
    6CHTO  H179 2201   5.279   5.255   1.418  1.9149  0.3525  0.0655
    6CHTO   O66 2202   5.381   5.313   1.586  0.0112 -0.1179  0.0459
    6CHTO  H166 2203   5.369   5.283   1.674 -3.2813 -2.0770 -0.9705
    6CHTO   C93 2204   5.273   5.087   1.545  0.1483 -0.2051 -0.6411
    6CHTO  H180 2205   5.312   5.073   1.647 -0.1290  1.1916 -0.3334
    6CHTO   N16 2206   5.375   5.013   1.469 -0.2140 -0.1526 -0.4113
    6CHTO  H172 2207   5.366   5.052   1.369 -1.5245 -2.8004 -1.3717
    6CHTO  H173 2208   5.337   4.912   1.466  0.6218 -0.4755 -0.3237
    6CHTO   C94 2209   5.134   5.016   1.536 -0.0488  0.5601  0.3510
    6CHTO  H181 2210   5.099   5.003   1.433 -1.2650 -0.0667  0.8376
    6CHTO   O61 2211   5.032   5.095   1.596  0.0945 -0.2368  0.5441
    6CHTO   C95 2212   5.019   5.224   1.537 -0.2080  0.4259  0.1445
    6CHTO  H182 2213   5.010   5.213   1.429  0.1987  2.2211 -0.0849
    6CHTO  C106 2214   4.881   5.272   1.593  0.5066  0.5068 -0.1573
    6CHTO   O69 2215   4.776   5.213   1.523  0.3890  0.2456  0.2616
    6CHTO  H169 2216   4.758   5.277   1.457 -1.3986 -0.8858 -0.3784
    6CHTO   O63 2217   5.144   4.873   1.625  0.2135 -0.2263  0.2947
    6CHTO   C96 2218   5.100   4.755   1.531 -0.6895 -0.5509 -0.0064
    6CHTO  H183 2219   5.130   4.777   1.428  0.0436  1.7398  0.6501
    6CHTO   C98 2220   4.945   4.735   1.532 -0.5141 -0.2701  0.8549
    6CHTO  H185 2221   4.909   4.715   1.634  1.1004  0.0848  1.5073
    6CHTO   O67 2222   4.876   4.860   1.494 -0.4240  0.1568  0.1293
    6CHTO  H167 2223   4.913   4.903   1.420 -0.1144  0.5367  0.5013
    6CHTO  C102 2224   4.917   4.626   1.426  0.3747 -0.0077  0.5713
    6CHTO  H189 2225   4.904   4.681   1.332 -3.0106 -2.4869 -0.5276
    6CHTO   N18 2226   4.785   4.556   1.443 -0.5197  0.0749  0.0400
    6CHTO  H176 2227   4.786   4.452   1.470 -0.8980  0.4753  1.6389
    6CHTO  H177 2228   4.721   4.580   1.359  0.1687 -0.0770 -0.5345
    6CHTO  C105 2229   5.030   4.522   1.404 -0.2497  0.2499  0.0243
    6CHTO  H192 2230   4.992   4.423   1.379  2.8404 -0.8667 -0.4449
    6CHTO   O65 2231   5.113   4.501   1.520 -0.7956  0.2663 -0.4197
    6CHTO  C100 2232   5.165   4.622   1.585 -0.1246  0.1870 -0.0468
    6CHTO  H187 2233   5.146   4.619   1.693 -0.0968 -0.0652 -0.0478
    6CHTO  C107 2234   5.316   4.615   1.559 -0.4331  0.4832  0.4276
    6CHTO   O70 2235   5.355   4.634   1.419 -0.2381 -0.6761  0.2933
    6CHTO  H170 2236   5.377   4.723   1.402 -0.8667 -0.7806 -1.1350
    6CHTO   O57 2237   5.104   4.573   1.284  0.4724  0.0343 -0.2562
    6CHTO   C85 2238   5.068   4.526   1.151  0.4677 -0.6547 -0.7137
    6CHTO  H157 2239   4.962   4.491   1.150 -0.0154  0.7304  1.0273
    6CHTO   C83 2240   5.156   4.395   1.130  0.7397 -0.4552 -0.3098
    6CHTO  H155 2241   5.130   4.327   1.212  0.0473  0.9883  0.6872
    6CHTO   O56 2242   5.295   4.430   1.138 -0.4798  0.0576  0.2911
    6CHTO  H135 2243   5.353   4.357   1.149  0.1016 -0.0145 -2.6884
    6CHTO   C81 2244   5.116   4.338   0.994 -0.2681 -0.1344  0.5628
    6CHTO  H153 2245   5.009   4.317   0.993 -0.0036 -1.5793  0.4866
    6CHTO   N14 2246   5.165   4.200   0.968  0.7538 -0.8198 -0.2827
    6CHTO  H141 2247   5.107   4.149   0.893 -1.7720  1.9854 -0.2948
    6CHTO  H142 2248   5.174   4.141   1.057 -2.6598  1.2607  1.5350
    6CHTO   C79 2249   5.146   4.439   0.873  0.7736  0.4651 -0.1134
    6CHTO  H151 2250   5.092   4.397   0.788  0.0463  1.7548 -0.3155
    6CHTO   O52 2251   5.084   4.572   0.904 -0.2944  0.1045  0.5139
    6CHTO   C86 2252   5.101   4.627   1.036  0.2043  0.0839  0.0401
    6CHTO  H158 2253   5.205   4.664   1.035  1.2522 -2.8091 -0.8175
    6CHTO   C90 2254   5.017   4.758   1.064 -0.3326  0.8753 -0.5572
    6CHTO   O60 2255   4.884   4.741   1.012  0.2173 -0.6176 -0.0709
    6CHTO  H138 2256   4.817   4.769   1.072 -0.0503 -0.5340 -0.4034
    6CHTO   O50 2257   5.291   4.456   0.844  0.0261  0.2221 -0.0983
    6CHTO   C73 2258   5.393   4.517   0.762 -0.0768 -0.3687 -0.1339
    6CHTO  H145 2259   5.392   4.468   0.664  1.7411 -1.1006  0.1999
    6CHTO   C74 2260   5.538   4.498   0.831 -0.2849  0.6081  1.2863
    6CHTO  H146 2261   5.538   4.388   0.835  0.2980  0.4486 -1.4885
    6CHTO   O54 2262   5.638   4.531   0.733 -0.2840 -0.2108  0.1582
    6CHTO  H133 2263   5.716   4.480   0.744  1.0429  1.7511  0.2028
    6CHTO   C75 2264   5.535   4.566   0.968 -0.5892 -0.9676 -0.0703
    6CHTO  H147 2265   5.447   4.531   1.024 -0.4401  1.4590  1.7857
    6CHTO   N13 2266   5.660   4.550   1.042  0.7101 -0.2174 -0.3178
    6CHTO  H139 2267   5.653   4.492   1.133  0.6103  0.7604  0.3024
    6CHTO  H140 2268   5.704   4.648   1.053  2.0081 -0.7943 -0.3029
    6CHTO   C76 2269   5.500   4.722   0.951 -0.4814 -0.3854 -0.2015
    6CHTO  H148 2270   5.584   4.757   0.891 -1.1189  1.2158 -0.1877
    6CHTO   O49 2271   5.369   4.735   0.877 -0.6816 -0.4312 -0.5611
    6CHTO   C77 2272   5.381   4.672   0.744 -0.5971  0.4930  0.6868
    6CHTO  H149 2273   5.465   4.707   0.684  0.0083  2.4860  2.6218
    6CHTO   C88 2274   5.261   4.714   0.663  0.3978  0.3305  0.0201
    6CHTO   O58 2275   5.281   4.847   0.621 -0.0096 -0.1680  0.2587
    6CHTO  H136 2276   5.220   4.865   0.552  0.7832 -0.0576 -0.4205
    6CHTO   O51 2277   5.484   4.789   1.092 -0.1901 -0.1451  0.2266
    6CHTO   C78 2278   5.517   4.953   1.104 -0.6530  0.4087 -0.0034
    6CHTO  H150 2279   5.474   4.988   1.200 -3.7690 -1.0007 -0.8409
    6CHTO   C80 2280   5.464   5.038   0.989  0.8555  0.5449  0.4338
    6CHTO  H152 2281   5.509   5.006   0.893  0.9160  1.0563  0.2867
    6CHTO   O55 2282   5.325   5.012   0.983 -0.2672 -1.1331  0.4494
    6CHTO  H134 2283   5.288   5.070   0.919  1.6204  1.0287  1.2556
    6CHTO   C84 2284   5.499   5.193   1.009  0.3267  0.3310 -0.0067
    6CHTO  H156 2285   5.458   5.235   1.101  1.9793 -0.4517  1.1033
    6CHTO   N15 2286   5.449   5.283   0.898 -0.2548  0.2631  0.2051
    6CHTO  H143 2287   5.525   5.329   0.838 -0.7486  1.7371  0.6894
    6CHTO  H144 2288   5.385   5.232   0.830 -0.0496  1.6551 -1.0686
    6CHTO   C87 2289   5.652   5.209   1.043 -0.1564 -1.2663 -0.2178
    6CHTO  H159 2290   5.709   5.192   0.951 -0.1018 -1.3525 -0.1682
    6CHTO   O53 2291   5.701   5.102   1.155  0.4875 -0.5161 -0.5869
    6CHTO   C82 2292   5.664   4.969   1.123  0.2924 -0.0656 -0.3954
    6CHTO  H154 2293   5.715   4.936   1.033  1.7940  1.0371  0.0193
    6CHTO   C89 2294   5.709   4.878   1.229 -0.5857  0.2021 -0.2587
    6CHTO   O59 2295   5.658   4.890   1.358  0.4574 -0.4709 -0.2678
    6CHTO  H137 2296   5.639   4.981   1.370 -2.3696 -1.0133 -0.2454
    6CHTO   O45 2297   5.694   5.352   1.109  0.0567 -0.1633 -0.0549
    6CHTO   C67 2298   5.831   5.382   1.105  0.0594 -0.6978  0.5405
    6CHTO  H124 2299   5.902   5.305   1.135  1.9190  0.9898  0.6293
    6CHTO   C65 2300   5.861   5.427   0.958  0.1868 -1.0550 -0.3163
    6CHTO  H122 2301   5.763   5.438   0.911  0.3818 -1.4038 -0.7931
    6CHTO   O44 2302   5.943   5.320   0.901  0.1572 -0.2518  0.0746
    6CHTO  H102 2303   5.948   5.326   0.807 -1.7483 -1.3146 -0.1111
    6CHTO   C63 2304   5.925   5.570   0.944 -0.4140  0.9342  0.0643
    6CHTO  H120 2305   5.855   5.647   0.977  1.3954  2.1703  1.1633
    6CHTO   N11 2306   5.961   5.620   0.806  0.2865  0.0788  0.1319
    6CHTO  H108 2307   6.040   5.552   0.784  0.7240  0.0685  1.7189
    6CHTO  H109 2308   5.874   5.630   0.744 -0.5411  0.7440  1.3863
    6CHTO   C61 2309   6.047   5.576   1.049  0.3210  0.8512 -0.2341
    6CHTO  H118 2310   6.082   5.680   1.047  1.1973  0.5554 -1.2426
    6CHTO   O40 2311   6.004   5.549   1.185 -0.2513  0.2576 -0.0731
    6CHTO   C68 2312   5.872   5.495   1.212  0.2614  0.4181 -0.6037
    6CHTO  H125 2313   5.803   5.582   1.208  1.1246  1.1151 -0.5831
    6CHTO   C72 2314   5.869   5.443   1.354  0.1469 -0.4316 -0.8406
    6CHTO   O48 2315   5.889   5.542   1.452 -0.0530  0.3498  0.0962
    6CHTO  H105 2316   5.979   5.568   1.463 -0.4563  2.6671 -1.8851
    6CHTO   O38 2317   6.159   5.492   1.011  0.3864 -0.0594 -0.4922
    6CHTO   C55 2318   6.293   5.533   1.050 -0.3486  1.0976 -1.0863
    6CHTO  H112 2319   6.278   5.594   1.140 -3.4137 -1.5406  0.3319
    6CHTO   C56 2320   6.368   5.603   0.930  0.2014  0.6935 -0.5986
    6CHTO  H113 2321   6.372   5.530   0.848 -0.7776  0.6270 -0.5898
    6CHTO   O42 2322   6.281   5.700   0.881  0.5563  0.7423  0.7048
    6CHTO  H100 2323   6.332   5.769   0.845  2.1677 -0.0568  1.3960
    6CHTO   C57 2324   6.508   5.655   0.972  0.5397  0.0873  0.3176
    6CHTO  H114 2325   6.500   5.727   1.054 -0.1238 -2.4341  2.5367
    6CHTO   N10 2326   6.580   5.723   0.862 -0.2277 -0.0856  0.0309
    6CHTO  H106 2327   6.517   5.775   0.792  0.5829 -0.9046 -1.3206
    6CHTO  H107 2328   6.650   5.790   0.911 -1.4406  1.8849 -0.9050
    6CHTO   C58 2329   6.595   5.532   1.021 -0.1005 -0.2644 -0.8759
    6CHTO  H115 2330   6.625   5.471   0.934  0.1518 -1.6922  0.1843
    6CHTO   O37 2331   6.523   5.457   1.117  0.0182 -0.0759  0.2554
    6CHTO   C59 2332   6.390   5.414   1.084  0.2162 -0.6770 -1.0050
    6CHTO  H116 2333   6.391   5.347   0.999  0.2784 -0.3098 -1.2973
    6CHTO   C70 2334   6.347   5.330   1.204  0.0170  0.2336  0.9630
    6CHTO   O46 2335   6.227   5.253   1.184 -0.8030 -0.2960 -0.4372
    6CHTO  H103 2336   6.180   5.262   1.265 -0.4197  0.8736 -0.3348
    6CHTO   O39 2337   6.728   5.603   1.101  0.0968  0.0809 -0.4212
    6CHTO   C60 2338   6.854   5.538   1.066 -0.8034  0.2458  0.1608
    6CHTO  H117 2339   6.835   5.431   1.052  2.5099 -0.4502  0.5399
    6CHTO   C62 2340   6.920   5.599   0.937  0.3446  0.6285 -0.3843
    6CHTO  H119 2341   6.850   5.594   0.851  2.0085 -0.8519 -1.6752
    6CHTO   O43 2342   6.957   5.734   0.971 -0.1091  0.2533 -0.1978
    6CHTO  H101 2343   6.887   5.794   0.988  1.1502  1.7269 -0.1566
    6CHTO   C66 2344   7.044   5.506   0.896  0.6226 -0.2623 -0.5931
    6CHTO  H123 2345   7.018   5.400   0.898 -0.3638 -0.0236 -0.4289
    6CHTO   N12 2346   7.090   5.541   0.759  0.3804 -0.7441  0.2246
    6CHTO  H110 2347   7.190   5.581   0.748  0.8753 -1.3076  2.4458
    6CHTO  H111 2348   7.022   5.589   0.691  0.7499 -0.9475 -0.2876
    6CHTO   C69 2349   7.148   5.522   1.004 -0.2520 -0.7358 -0.6395
    6CHTO  H126 2350   7.165   5.627   1.035 -3.6645 -0.0171 -1.0598
    6CHTO   O41 2351   7.075   5.460   1.137  0.0540 -0.4395  0.0029
    6CHTO   C64 2352   6.955   5.541   1.187  0.3393  1.1973 -0.2828
    6CHTO  H121 2353   6.983   5.643   1.221  0.4324  0.2752  2.5246
    6CHTO   C71 2354   6.886   5.472   1.303 -1.2275 -0.0250 -0.0031
    6CHTO   O47 2355   6.964   5.459   1.421  0.0975  0.2507 -0.5240
    6CHTO  H104 2356   6.989   5.371   1.442  0.0930  0.4071  0.1351
    6CHTO   O34 2357   7.289   5.442   0.971 -0.3032 -0.1622 -0.1870
    6CHTO   C49 2358   7.434   5.488   0.911 -0.1389  0.0781  0.2328
    6CHTO   H91 2359   7.425   5.467   0.804  1.7064 -0.6545  0.2023
    6CHTO   C47 2360   7.532   5.398   0.990  0.5560  0.3113  0.2538
    6CHTO   H89 2361   7.631   5.408   0.940  0.5460 -1.3260 -0.1392
    6CHTO   O33 2362   7.483   5.263   0.969  0.1747  0.2611  0.7873
    6CHTO   H70 2363   7.535   5.205   1.021 -2.6743 -0.2781  3.1827
    6CHTO   C45 2364   7.536   5.441   1.138  0.3408 -0.1447  0.2492
    6CHTO   H87 2365   7.436   5.424   1.180 -0.4616  0.9668 -1.1443
    6CHTO    N8 2366   7.631   5.360   1.217  0.6159 -0.1821 -0.3931
    6CHTO   H75 2367   7.614   5.256   1.190  1.5689 -0.5127  0.2594
    6CHTO   H76 2368   7.732   5.398   1.204  0.3248  0.6438 -0.2312
    6CHTO   C43 2369   7.559   5.595   1.157 -0.2053  0.1213 -0.2591
    6CHTO   H85 2370   7.549   5.625   1.261 -0.0256 -0.5793 -0.0359
    6CHTO   O29 2371   7.476   5.676   1.068  0.0299  0.5813 -0.1390
    6CHTO   C50 2372   7.464   5.639   0.928 -0.4372 -0.0118  0.2553
    6CHTO   H92 2373   7.380   5.693   0.883  0.4559  1.6183  0.5148
    6CHTO   C54 2374   7.587   5.675   0.840  0.3628  0.3281  0.3265
    6CHTO   O36 2375   7.546   5.686   0.702  0.1499 -0.1825 -0.3698
    6CHTO   H72 2376   7.625   5.693   0.653  1.5491  0.9840  1.9619
    6CHTO   O27 2377   7.697   5.630   1.136  0.2068 -0.2108  0.3010
    6CHTO   C37 2378   7.764   5.752   1.179 -0.5774 -0.2216  0.6991
    6CHTO   H79 2379   7.832   5.764   1.093 -3.4377  0.9579 -1.5044
    6CHTO   C38 2380   7.684   5.884   1.188  0.8774 -0.8085 -0.4164
    6CHTO   H80 2381   7.591   5.867   1.245  1.4427 -1.3674  0.3585
    6CHTO   O31 2382   7.646   5.918   1.055  0.1877  0.0989 -0.0224
    6CHTO   H68 2383   7.614   5.847   1.004  1.7628 -1.2655  0.8315
    6CHTO   C39 2384   7.760   6.007   1.251  0.3272 -0.1856 -0.0080
    6CHTO   H81 2385   7.841   6.033   1.183  1.6557  2.0081  2.2956
    6CHTO    N7 2386   7.672   6.124   1.257 -0.0402 -0.6044 -0.6708
    6CHTO   H73 2387   7.735   6.211   1.273 -0.8962 -0.3420  1.4913
    6CHTO   H74 2388   7.616   6.130   1.164 -2.6000 -0.1000  0.8428
    6CHTO   C40 2389   7.824   5.966   1.391 -0.1580  0.1734 -0.0177
    6CHTO   H82 2390   7.745   5.957   1.466 -0.8705  0.1103 -0.7747
    6CHTO   O26 2391   7.902   5.849   1.378  0.4639  0.4233  0.1997
    6CHTO   C41 2392   7.839   5.730   1.314 -0.9051  0.2290 -0.4771
    6CHTO   H83 2393   7.775   5.692   1.394 -0.3013 -0.6405 -0.4086
    6CHTO   C52 2394   7.952   5.633   1.286  1.2056 -0.2757  0.0701
    6CHTO   O35 2395   8.006   5.566   1.419 -0.2169  0.1458  0.2029
    6CHTO   H71 2396   7.933   5.531   1.467 -2.1444  2.1864 -1.1092
    6CHTO   O28 2397   7.927   6.063   1.428 -0.4167  0.1336  0.3865
    6CHTO   C42 2398   7.952   6.097   1.568  0.0767 -0.4792  0.7901
    6CHTO   H84 2399   8.057   6.128   1.572  0.1947 -0.7557 -0.0936
    6CHTO   C44 2400   7.930   5.985   1.679  0.3161 -0.6049 -0.1484
    6CHTO   H86 2401   7.830   5.942   1.669  0.0475  0.7584 -4.2293
    6CHTO   O32 2402   8.032   5.888   1.652  0.0869  0.3117 -0.5268
    6CHTO   H69 2403   8.025   5.864   1.561  5.8503 -3.1855 -0.3137
    6CHTO   C48 2404   7.941   6.039   1.825  0.0552 -0.6887  0.3611
    6CHTO   H90 2405   8.047   6.065   1.830 -0.0836  0.2521 -1.3296
    6CHTO    N9 2406   7.907   5.933   1.929  0.2702  0.1127 -0.0382
    6CHTO   H77 2407   7.977   5.934   2.011 -0.0924 -1.1629  0.2996
    6CHTO   H78 2408   7.813   5.951   1.979 -0.0746  1.0323 -0.9960
    6CHTO   C51 2409   7.857   6.172   1.835 -0.1960  0.0933  0.1845
    6CHTO   H93 2410   7.749   6.159   1.830 -0.3149  1.2355 -0.5930
    6CHTO   O30 2411   7.903   6.264   1.741  0.3349  0.0397 -0.1915
    6CHTO   C46 2412   7.869   6.221   1.601  0.4185  0.3287 -0.1949
    6CHTO   H88 2413   7.762   6.200   1.594  1.1029 -2.9869 -1.4592
    6CHTO   C53 2414   7.900   6.340   1.503 -0.7633 -0.3689 -0.2474
    6CHTO   O72 2415   7.811   6.446   1.549 -0.4073 -0.1263  0.5960
    6CHTO  H199 2416   7.797   6.509   1.481  0.6997 -1.0047 -0.4576
    6CHTO   O22 2417   7.873   6.237   1.960 -0.0512  0.1904 -0.2139
    6CHTO   C31 2418   7.773   6.329   2.019  0.2387 -0.0226 -0.3253
    6CHTO   H59 2419   7.816   6.353   2.119  0.0385 -1.7512  0.1872
    6CHTO   C29 2420   7.761   6.460   1.943 -0.0280 -0.0230 -0.1360
    6CHTO   H57 2421   7.716   6.426   1.848 -1.5908  0.6358  0.3376
    6CHTO   O21 2422   7.894   6.513   1.910 -0.6006  0.0479  0.0075
    6CHTO   H37 2423   7.933   6.553   1.985  0.1133  0.6975 -0.7019
    6CHTO   C27 2424   7.662   6.565   2.012  0.3109 -0.0688  0.5371
    6CHTO   H55 2425   7.708   6.609   2.102  0.7398  0.4417  0.0710
    6CHTO    N5 2426   7.635   6.679   1.917  0.4742 -0.2803 -0.4109
    6CHTO   H43 2427   7.728   6.726   1.888 -0.4637  1.7460 -0.1948
    6CHTO   H44 2428   7.563   6.754   1.944  1.6246  1.1327 -1.2038
    6CHTO   C25 2429   7.529   6.494   2.053 -0.0398  0.5161  0.0083
    6CHTO   H53 2430   7.455   6.472   1.975  0.7798 -0.0244 -0.6238
    6CHTO   O17 2431   7.563   6.368   2.126  0.5198  0.3775 -0.0159
    6CHTO   C32 2432   7.635   6.271   2.048  0.4400 -0.2165  0.0094
    6CHTO   H60 2433   7.583   6.253   1.955 -0.3169 -1.3164  0.6312
    6CHTO   C36 2434   7.646   6.155   2.157  0.2083  0.2433  0.4609
    6CHTO   O25 2435   7.591   6.034   2.107  0.6331  0.0026  0.2302
    6CHTO   H40 2436   7.508   6.016   2.146  0.7753 -0.9735  0.0886
    6CHTO   O15 2437   7.447   6.595   2.157  0.2221  0.1979  0.1859
    6CHTO   C19 2438   7.340   6.695   2.169  0.1087  0.2495  1.2109
    6CHTO   H47 2439   7.344   6.709   2.279  0.5026  0.0596  1.2206
    6CHTO   C20 2440   7.370   6.827   2.093  0.1433  0.4016 -0.4223
    6CHTO   H48 2441   7.382   6.808   1.985  1.0213 -1.6954  0.0021
    6CHTO   O19 2442   7.487   6.882   2.159  0.0631  0.5091  0.3386
    6CHTO   H35 2443   7.516   6.960   2.115 -1.3353  0.3499 -0.9400
    6CHTO   C21 2444   7.249   6.919   2.101 -0.2302 -0.4261 -0.4293
    6CHTO   H49 2445   7.228   6.949   2.204 -0.1955 -0.7038 -0.3427
    6CHTO    N4 2446   7.279   7.040   2.020  0.4769 -0.5602  0.1217
    6CHTO   H41 2447   7.223   7.130   2.039  3.2162  1.1141  0.5064
    6CHTO   H42 2448   7.269   7.012   1.917  1.1069 -0.9161  0.1551
    6CHTO   C22 2449   7.120   6.850   2.052 -0.7820  0.7917  0.4030
    6CHTO   H50 2450   7.130   6.826   1.946  1.5760 -2.2364  1.2445
    6CHTO   O14 2451   7.094   6.733   2.135  0.2763 -0.5862  0.1894
    6CHTO   C23 2452   7.200   6.635   2.135 -0.0795 -0.5134 -0.1308
    6CHTO   H51 2453   7.197   6.585   2.037  0.0077  1.0888 -0.9648
    6CHTO   C34 2454   7.163   6.529   2.243  1.1198  0.7500 -0.1500
    6CHTO   O23 2455   7.033   6.471   2.218 -0.1134  0.3323  0.5602
    6CHTO   H38 2456   6.975   6.466   2.291 -1.1924 -0.7565 -0.3525
    6CHTO   O16 2457   6.997   6.926   2.073  0.1902  0.7534  0.1992
    6CHTO   C24 2458   6.890   6.941   1.950  0.0829 -0.9981 -0.5885
    6CHTO   H52 2459   6.919   6.884   1.862 -0.4221 -2.1992  0.0132
    6CHTO   C26 2460   6.873   7.091   1.918 -0.1948 -0.4466 -0.6635
    6CHTO   H54 2461   6.874   7.147   2.014  0.7468 -1.4759 -0.0496
    6CHTO   O20 2462   6.988   7.131   1.838  0.3611  0.5137  0.2725
    6CHTO   H36 2463   7.076   7.117   1.866  0.7602 -2.0715 -2.0929
    6CHTO   C30 2464   6.745   7.124   1.839 -0.1618 -0.0420 -0.2254
    6CHTO   H58 2465   6.756   7.093   1.735  2.7244  1.7306 -0.5055
    6CHTO    N6 2466   6.731   7.272   1.829  0.3075 -0.3648  0.3951
    6CHTO   H45 2467   6.757   7.301   1.729  2.0202 -1.6923  0.4224
    6CHTO   H46 2468   6.635   7.309   1.860  0.4491 -0.1792  0.6174
    6CHTO   C33 2469   6.623   7.057   1.910 -0.5862  0.5170  0.1730
    6CHTO   H61 2470   6.611   7.088   2.015  0.2404 -0.1050  0.4581
    6CHTO   O18 2471   6.650   6.914   1.909 -0.2901 -0.0407 -0.1650
    6CHTO   C28 2472   6.757   6.873   2.001 -0.0604  0.5896  0.0665
    6CHTO   H56 2473   6.723   6.907   2.098 -3.1054 -0.5841 -0.5278
    6CHTO   C35 2474   6.774   6.721   1.997 -0.5519 -0.7451 -0.5455
    6CHTO   O24 2475   6.651   6.651   2.020  0.3686 -0.1587 -0.2138
    6CHTO   H39 2476   6.647   6.571   1.972  1.0078  0.7458 -1.8092
    6CHTO    O9 2477   6.499   7.088   1.845 -0.3184 -0.3263  0.8905
    6CHTO   C13 2478   6.365   7.089   1.935  0.0760 -0.5375 -0.1158
    6CHTO   H26 2479   6.376   7.176   2.003  2.4032  0.4289 -1.6724
    6CHTO   C11 2480   6.350   6.954   2.016  0.5081 -0.4104  0.1253
    6CHTO   H24 2481   6.436   6.949   2.084  1.0408  2.4637 -0.2690
    6CHTO    O8 2482   6.355   6.837   1.925 -0.7167 -0.0916 -0.3538
    6CHTO    H3 2483   6.300   6.769   1.960  0.1169 -0.8727 -0.5560
    6CHTO    C9 2484   6.224   6.960   2.107  0.1926  0.3947 -0.8019
    6CHTO   H22 2485   6.247   7.045   2.173  0.3188  0.7944 -1.3576
    6CHTO    N2 2486   6.217   6.846   2.201 -0.8685 -0.3521 -0.1386
    6CHTO   H10 2487   6.205   6.747   2.160 -2.0488 -1.8186  3.5043
    6CHTO   H11 2488   6.293   6.843   2.278  0.7851  1.5071 -1.6311
    6CHTO    C7 2489   6.091   7.000   2.027  0.2006  0.2909  0.4755
    6CHTO   H20 2490   6.018   7.031   2.105 -2.0167  0.9644 -1.8179
    6CHTO    O4 2491   6.122   7.116   1.940  0.8116  0.0035  0.1060
    6CHTO   C14 2492   6.237   7.133   1.854  0.3635  0.2407  0.0271
    6CHTO   H27 2493   6.255   7.240   1.832 -2.3329  0.8426  0.5844
    6CHTO   C18 2494   6.208   7.064   1.716  0.9321  0.4178 -0.1219
    6CHTO   O13 2495   6.155   7.157   1.622  0.8961 -0.5797  0.3124
    6CHTO    H7 2496   6.075   7.128   1.582 -0.1796  1.7130  0.7187
    6CHTO    O2 2497   6.031   6.876   1.942 -0.1961 -0.0679  0.1994
    6CHTO    C1 2498   5.884   6.871   1.940  1.1209 -0.0701 -0.7523
    6CHTO   H14 2499   5.867   6.775   1.887  1.3019 -0.6086  0.1496
    6CHTO    C2 2500   5.825   6.975   1.862  0.0880 -0.7048  0.9431
    6CHTO   H15 2501   5.864   7.068   1.907 -1.3226  0.8563 -0.9725
    6CHTO    O6 2502   5.883   6.977   1.733 -0.3011  0.3186  0.2506
    6CHTO    H1 2503   5.865   7.055   1.684 -1.8649 -0.0624  0.1856
    6CHTO    C3 2504   5.664   6.967   1.859 -0.2510 -0.0110  0.0644
    6CHTO   H16 2505   5.646   6.876   1.800  0.3803  0.9671 -1.6571
    6CHTO    N1 2506   5.586   7.077   1.796  0.4859  0.0406 -0.0002
    6CHTO    H8 2507   5.515   7.120   1.865 -0.7137  0.6704 -1.6103
    6CHTO    H9 2508   5.643   7.155   1.747  0.7457 -0.0682  0.1254
    6CHTO    C4 2509   5.608   6.940   2.001  0.2258  0.1799  0.5769
    6CHTO   H17 2510   5.607   7.032   2.059 -0.7455 -0.0708  0.9564
    6CHTO    O1 2511   5.680   6.845   2.075 -0.1207 -0.1709  0.4786
    6CHTO    C5 2512   5.821   6.852   2.078 -0.3142  0.2709  0.6651
    6CHTO   H18 2513   5.862   6.933   2.139 -1.6211  1.5189 -0.0944
    6CHTO   C16 2514   5.862   6.723   2.139 -0.4640  0.1956 -0.2793
    6CHTO   O11 2515   5.868   6.730   2.289  1.2759 -0.1209  0.1823
    6CHTO    H5 2516   5.867   6.642   2.322  0.4940 -0.4497 -0.7036
    6CHTO    O3 2517   5.478   6.885   1.988  0.0752 -0.2825 -0.6743
    6CHTO    C6 2518   5.372   6.898   2.095  0.5546 -0.1736  0.5993
    6CHTO   H19 2519   5.400   6.951   2.186 -1.5676 -0.1984  1.2974
    6CHTO    C8 2520   5.243   6.968   2.036 -0.3396  0.6362 -0.4530
    6CHTO   H21 2521   5.205   6.918   1.947  0.8855  0.7146 -1.0223
    6CHTO    O7 2522   5.302   7.094   1.996 -0.3676 -0.6555  0.5676
    6CHTO    H2 2523   5.324   7.148   2.069 -1.7914 -0.8103  1.1337
    6CHTO   C12 2524   5.129   6.973   2.142 -0.1519 -0.7040 -0.0888
    6CHTO   H25 2525   5.170   7.044   2.218  0.7159 -0.4692 -0.7724
    6CHTO    N3 2526   5.008   7.036   2.090 -0.3488 -0.4919  0.2483
    6CHTO   H12 2527   5.022   7.141   2.071 -0.1982 -1.1291 -3.6792
    6CHTO   H13 2528   4.984   7.003   1.990 -2.0395  1.8783 -0.1597
    6CHTO   C15 2529   5.106   6.828   2.205 -0.4844 -0.2028 -0.2967
    6CHTO   H28 2530   5.049   6.758   2.143 -1.1763  2.0512 -2.2945
    6CHTO   O10 2531   5.036   6.835   2.337 -0.0842 -0.4823 -0.3850
    6CHTO    H4 2532   5.037   6.755   2.386 -2.6163  0.3725  1.1713
    6CHTO    O5 2533   5.234   6.765   2.240  0.8099  0.4338  0.6813
    6CHTO   C10 2534   5.336   6.754   2.138  0.4060  0.1610 -0.0556
    6CHTO   H23 2535   5.292   6.695   2.058 -2.9695  2.0355  0.3338
    6CHTO   C17 2536   5.451   6.672   2.198  0.4067  0.0972  0.0890
    6CHTO   O12 2537   5.402   6.536   2.241 -0.2437  0.9493 -0.5448
    6CHTO    H6 2538   5.424   6.475   2.174  2.3090 -1.4348  2.3011
    7CHTO  H203 2539   4.664   3.233   2.465 -1.1529 -0.0173 -0.4130
    7CHTO   O82 2540   4.725   3.164   2.484 -0.8975  0.2779 -0.1645
    7CHTO  C123 2541   4.853   3.190   2.425  0.4982 -0.5999 -0.2287
    7CHTO  H227 2542   4.880   3.295   2.443 -2.1703 -0.0072  0.5794
    7CHTO   O77 2543   4.948   3.096   2.490 -0.4353 -0.0662 -1.0041
    7CHTO  C118 2544   5.081   3.132   2.476  0.8706  0.7213  0.2148
    7CHTO  H222 2545   5.088   3.233   2.518 -2.3245  0.7596  0.8501
    7CHTO  C125 2546   5.165   3.040   2.565 -0.3391 -0.0220 -0.4106
    7CHTO   O84 2547   5.138   2.904   2.566  0.3204 -0.7461 -0.4598
    7CHTO  H205 2548   5.167   2.863   2.645  3.0416 -2.3953 -2.2126
    7CHTO  C114 2549   5.123   3.117   2.329  0.4345  0.5473 -0.1843
    7CHTO  H218 2550   5.117   3.013   2.299  0.9868  0.9638 -1.7995
    7CHTO  C116 2551   5.022   3.196   2.234  0.0638  0.2753  0.0905
    7CHTO  H220 2552   5.041   3.305   2.244  0.2923  0.2878 -0.4631
    7CHTO   O79 2553   5.059   3.156   2.098  0.0273  0.1463 -0.1291
    7CHTO  H201 2554   4.992   3.172   2.033  0.1726 -0.8595 -0.5299
    7CHTO  C120 2555   4.872   3.157   2.270 -0.3951 -0.0471 -0.4687
    7CHTO  H224 2556   4.853   3.049   2.258 -3.9648  0.3452  1.2050
    7CHTO   N21 2557   4.784   3.235   2.186  0.2893 -0.5590  0.7599
    7CHTO  H211 2558   4.687   3.193   2.163  0.9584 -1.8011  0.1938
    7CHTO  H212 2559   4.780   3.336   2.225  1.0490 -1.3939  3.0612
    7CHTO   O75 2560   5.256   3.166   2.315 -0.2516 -0.4769 -0.6170
    7CHTO  C112 2561   5.357   3.057   2.219  0.5221 -0.7312 -0.0178
    7CHTO  H216 2562   5.310   3.036   2.122  0.2409 -0.4168  0.0481
    7CHTO   O73 2563   5.372   2.936   2.301 -0.0179  0.1862 -0.3407
    7CHTO  C113 2564   5.490   2.858   2.266  0.2285  0.0487 -0.2153
    7CHTO  H217 2565   5.480   2.823   2.161  0.8786 -1.2248  0.1449
    7CHTO  C124 2566   5.496   2.730   2.353  0.3083  0.1571 -0.3871
    7CHTO   O83 2567   5.368   2.664   2.355  0.3243 -0.6318 -0.4383
    7CHTO  H204 2568   5.373   2.570   2.349  0.3742 -0.7665  1.4340
    7CHTO  C109 2569   5.619   2.938   2.284  0.5656  0.1280  0.3470
    7CHTO  H213 2570   5.613   2.980   2.385 -2.0299  0.2422  0.1678
    7CHTO  C110 2571   5.614   3.052   2.185 -0.1871 -0.1578 -0.1410
    7CHTO  H214 2572   5.607   3.023   2.080  0.9734  0.4646 -0.4027
    7CHTO   O78 2573   5.740   3.123   2.194  0.0582 -0.1001 -0.3282
    7CHTO  H200 2574   5.743   3.194   2.133 -0.1225  0.3891  0.2319
    7CHTO  C111 2575   5.493   3.139   2.214  0.1421  0.3000 -0.0463
    7CHTO  H215 2576   5.509   3.182   2.314 -0.7912 -0.0837  0.2797
    7CHTO   N19 2577   5.484   3.255   2.121 -0.3817 -0.6891  0.6968
    7CHTO  H207 2578   5.574   3.313   2.133 -1.4562  0.6575  2.7458
    7CHTO  H208 2579   5.462   3.244   2.016  1.4545 -0.2141  0.2481
    7CHTO   O74 2580   5.740   2.846   2.271  0.5009 -0.2034  0.2112
    7CHTO  C115 2581   5.848   2.864   2.384 -0.4963  0.0532 -0.2906
    7CHTO  H219 2582   5.848   2.963   2.430  2.5632 -0.3552  0.7090
    7CHTO   O76 2583   5.822   2.774   2.507 -0.2920 -0.5224 -0.5456
    7CHTO  C122 2584   5.926   2.772   2.611  0.2237 -0.3010  0.0873
    7CHTO  H226 2585   5.917   2.690   2.682  0.2614  0.6359  1.1758
    7CHTO  C126 2586   5.899   2.901   2.699 -0.6502  1.5369 -0.4199
    7CHTO   O85 2587   5.875   2.873   2.837 -0.2290  0.3319 -0.2580
    7CHTO  H206 2588   5.791   2.909   2.857  0.3982  1.8267 -0.2655
    7CHTO  C121 2589   6.074   2.781   2.558  0.6863  0.1054 -0.0053
    7CHTO  H225 2590   6.121   2.880   2.573 -0.0547  0.2781  1.1957
    7CHTO   O81 2591   6.166   2.691   2.626 -0.1427  0.3793  0.5016
    7CHTO  H202 2592   6.219   2.733   2.692  1.5479  2.0980 -1.8278
    7CHTO  C119 2593   6.082   2.747   2.405  0.0341 -0.3740 -0.2186
    7CHTO  H223 2594   6.185   2.754   2.371  0.1120 -2.0287 -0.3845
    7CHTO  C117 2595   5.990   2.838   2.315  0.1264 -0.4482 -0.3193
    7CHTO  H221 2596   5.960   2.804   2.215 -2.0505 -0.1691  0.2181
    7CHTO   N20 2597   6.049   2.972   2.284 -0.0133  0.1870  0.3592
    7CHTO  H209 2598   6.132   2.943   2.221 -0.7700  1.3852 -1.2073
    7CHTO  H210 2599   6.069   3.037   2.367  2.8147 -0.3881  0.1783
    7CHTO   O80 2600   6.069   2.612   2.396  0.0888 -0.0011  0.3411
    7CHTO  C103 2601   6.070   2.541   2.253  0.2828  0.1165  0.2407
    7CHTO  H190 2602   6.022   2.597   2.173 -0.3708 -1.4993 -0.5216
    7CHTO  C101 2603   6.211   2.498   2.198 -0.0485  0.2680 -0.2122
    7CHTO  H188 2604   6.254   2.435   2.275  1.1519  3.7587  2.0639
    7CHTO   O68 2605   6.299   2.622   2.168  0.5485  0.2599 -0.4636
    7CHTO  H168 2606   6.387   2.591   2.169  0.1887 -0.8577  1.8824
    7CHTO   C99 2607   6.198   2.407   2.068 -0.0839 -0.0970  0.0353
    7CHTO  H186 2608   6.164   2.466   1.981  2.1254 -0.5254 -1.1740
    7CHTO   N17 2609   6.336   2.345   2.032  0.0227  0.4164 -0.6772
    7CHTO  H174 2610   6.353   2.366   1.928  2.5268  0.7710 -0.2208
    7CHTO  H175 2611   6.335   2.237   2.033 -0.8870  0.4057 -1.5746
    7CHTO   C97 2612   6.101   2.298   2.104 -0.0074 -0.2906 -0.2908
    7CHTO  H184 2613   6.157   2.245   2.183  1.5106 -1.7720 -2.3141
    7CHTO   O64 2614   5.974   2.337   2.151 -0.2173 -0.3979  0.6247
    7CHTO  C104 2615   5.980   2.416   2.275  0.1142 -0.0210 -0.0918
    7CHTO  H191 2616   6.025   2.354   2.352 -0.0452 -0.3949 -0.2966
    7CHTO  C108 2617   5.838   2.450   2.328  0.0873 -1.1380  0.0107
    7CHTO   O71 2618   5.780   2.346   2.396 -0.4831 -0.3675  0.5053
    7CHTO  H171 2619   5.752   2.283   2.333  1.5241  1.3743 -2.2233
    7CHTO   O62 2620   6.060   2.214   1.987 -0.3119  0.6281 -0.1258
    7CHTO   C91 2621   6.091   2.072   2.004 -0.4564  0.0475 -0.3134
    7CHTO  H178 2622   6.197   2.048   2.002 -0.5321 -0.2615 -0.7702
    7CHTO   C92 2623   6.007   1.987   1.900 -0.0855 -0.5530 -0.1450
    7CHTO  H179 2624   6.033   2.035   1.805  0.9613  2.6528  1.6965
    7CHTO   O66 2625   6.038   1.854   1.900 -0.5990 -0.4672  0.5413
    7CHTO  H166 2626   6.069   1.832   1.985  1.7055  1.5901  0.2871
    7CHTO   C93 2627   5.850   1.996   1.934  0.8561 -0.4962 -0.4012
    7CHTO  H180 2628   5.807   1.905   1.890 -1.5826  0.2939  0.3045
    7CHTO   N16 2629   5.778   2.104   1.864  0.4279 -0.5618  0.7499
    7CHTO  H172 2630   5.721   2.171   1.927  1.6958 -1.3540  2.7826
    7CHTO  H173 2631   5.857   2.171   1.834 -0.2198 -0.2656 -0.3119
    7CHTO   C94 2632   5.819   2.001   2.084 -0.1584  0.7183 -0.8405
    7CHTO  H181 2633   5.817   2.103   2.123 -2.0498  0.6438 -0.6931
    7CHTO   O61 2634   5.925   1.933   2.152 -0.2369  0.4191 -0.6677
    7CHTO   C95 2635   6.054   2.008   2.150  0.3137 -0.0799  0.5591
    7CHTO  H182 2636   6.046   2.088   2.224 -0.8112  0.1124  0.2481
    7CHTO  C106 2637   6.164   1.917   2.214  0.1582 -0.0544 -0.5816
    7CHTO   O69 2638   6.160   1.888   2.354  0.2021 -0.4502 -0.0383
    7CHTO  H169 2639   6.202   1.806   2.371 -0.4974 -0.8264 -0.1050
    7CHTO   O63 2640   5.677   1.913   2.103  0.7454 -0.3425  0.2368
    7CHTO   C96 2641   5.597   1.934   2.242 -0.2693 -0.4344 -0.3431
    7CHTO  H183 2642   5.574   2.040   2.247  1.2097 -0.1348  0.5787
    7CHTO   C98 2643   5.675   1.916   2.373  0.0616  0.0193  0.5265
    7CHTO  H185 2644   5.769   1.973   2.371  1.3470 -2.0848 -1.3080
    7CHTO   O67 2645   5.598   1.979   2.482  0.7442  0.0999  0.1113
    7CHTO  H167 2646   5.553   1.919   2.538  1.6376 -0.1225  0.5898
    7CHTO  C102 2647   5.696   1.760   2.412 -0.6209 -0.4555 -0.8138
    7CHTO  H189 2648   5.683   1.755   2.521  1.2379 -0.3754 -0.5741
    7CHTO   N18 2649   5.829   1.707   2.384 -0.4256  0.2472  0.0180
    7CHTO  H176 2650   5.909   1.761   2.431  0.1209  0.1564 -0.7982
    7CHTO  H177 2651   5.827   1.605   2.418 -0.4566 -0.7116 -2.7635
    7CHTO  C105 2652   5.584   1.674   2.360  0.2790  0.4647  0.2480
    7CHTO  H192 2653   5.611   1.628   2.265  3.7952  1.3581  0.7488
    7CHTO   O65 2654   5.468   1.748   2.344  0.0402 -0.3584  0.2548
    7CHTO  C100 2655   5.461   1.841   2.233  0.0322 -0.2548 -0.3574
    7CHTO  H187 2656   5.466   1.784   2.139 -0.6243  0.6210 -0.9267
    7CHTO  C107 2657   5.341   1.936   2.253  0.5983 -0.3227 -0.3495
    7CHTO   O70 2658   5.221   1.864   2.263 -0.5964  0.5492  0.0417
    7CHTO  H170 2659   5.232   1.796   2.327  0.1392  0.5835 -0.0541
    7CHTO   O57 2660   5.560   1.571   2.471 -0.0889 -0.1503  0.5569
    7CHTO   C85 2661   5.580   1.435   2.435  0.0963 -0.2137  0.2703
    7CHTO  H157 2662   5.638   1.417   2.342 -0.3235  0.7235 -0.1820
    7CHTO   C83 2663   5.438   1.367   2.413 -0.1315  0.2580 -0.4773
    7CHTO  H155 2664   5.413   1.406   2.314 -0.5648 -0.3609 -0.6153
    7CHTO   O56 2665   5.348   1.415   2.517  0.4776  0.3822 -0.2603
    7CHTO  H135 2666   5.316   1.501   2.497 -2.6333 -0.3259  1.3514
    7CHTO   C81 2667   5.453   1.217   2.404  0.7186 -0.2695 -0.3239
    7CHTO  H153 2668   5.514   1.196   2.317  3.5968  0.9186  1.3284
    7CHTO   N14 2669   5.322   1.153   2.377  0.0311 -0.1251  0.7777
    7CHTO  H141 2670   5.261   1.168   2.464  0.2071 -0.9123  1.0465
    7CHTO  H142 2671   5.270   1.194   2.293 -0.9947 -1.9909  0.4654
    7CHTO   C79 2672   5.516   1.150   2.532  0.3761 -0.6422 -0.3064
    7CHTO  H151 2673   5.543   1.047   2.508  0.3299 -0.7307  0.0212
    7CHTO   O52 2674   5.645   1.216   2.549 -0.2562 -0.3230 -0.1632
    7CHTO   C86 2675   5.652   1.364   2.556  0.6420 -0.4121  0.0359
    7CHTO  H158 2676   5.595   1.393   2.646  1.9063  1.0118  0.4092
    7CHTO   C90 2677   5.798   1.405   2.575 -0.2993 -0.0258  0.1468
    7CHTO   O60 2678   5.841   1.383   2.709  0.3160 -0.1950 -0.6640
    7CHTO  H138 2679   5.906   1.320   2.733  1.6560  1.1729 -0.5821
    7CHTO   O50 2680   5.433   1.162   2.649 -0.5069  0.1453 -0.0147
    7CHTO   C73 2681   5.444   1.087   2.768 -0.7158 -0.8452 -0.9437
    7CHTO  H145 2682   5.544   1.045   2.787 -0.7134 -0.6847 -0.5844
    7CHTO   C74 2683   5.351   0.972   2.761  0.7613 -0.0521  0.2948
    7CHTO  H146 2684   5.378   0.911   2.674  1.6354 -1.1624  1.3273
    7CHTO   O54 2685   5.385   0.886   2.871  0.2056 -0.3274  0.3933
    7CHTO  H133 2686   5.318   0.821   2.885 -1.4542  0.9709 -1.2701
    7CHTO   C75 2687   5.198   1.006   2.767  0.3902  0.2075  0.2052
    7CHTO  H147 2688   5.167   1.071   2.683 -1.2900  0.6908  1.1639
    7CHTO   N13 2689   5.109   0.887   2.760  1.1684  0.4333  0.2636
    7CHTO  H139 2690   5.132   0.831   2.671 -1.1684  1.1496 -0.8533
    7CHTO  H140 2691   5.126   0.819   2.842 -1.8019 -1.9490 -0.9961
    7CHTO   C76 2692   5.176   1.099   2.896  0.7298  0.3412 -0.0997
    7CHTO  H148 2693   5.194   1.033   2.981  0.9356 -2.4027 -2.2167
    7CHTO   O49 2694   5.267   1.218   2.897  0.1706  0.1479 -0.0859
    7CHTO   C77 2695   5.407   1.183   2.893 -0.2450  0.8715  0.2129
    7CHTO  H149 2696   5.420   1.122   2.982  0.1567  1.3576  0.4876
    7CHTO   C88 2697   5.484   1.313   2.907 -0.2179  0.8476  0.5856
    7CHTO   O58 2698   5.627   1.295   2.939  0.5407 -0.0835  0.3333
    7CHTO  H136 2699   5.627   1.298   3.033 -0.2872  0.8760  0.3157
    7CHTO   O51 2700   5.030   1.170   2.878  0.2625 -0.1933 -0.7190
    7CHTO   C78 2701   4.962   1.182   3.025  0.6817  0.2353  0.2978
    7CHTO  H150 2702   5.022   1.139   3.108 -2.0801 -1.2604  1.6129
    7CHTO   C80 2703   4.833   1.098   3.023 -0.3494 -0.5112  0.4245
    7CHTO  H152 2704   4.766   1.142   2.947 -1.0901 -0.1493  1.2823
    7CHTO   O55 2705   4.852   0.962   2.975 -0.5364  0.8228  0.2858
    7CHTO  H134 2706   4.774   0.922   2.942 -0.4713  1.7452 -1.0495
    7CHTO   C84 2707   4.761   1.107   3.155 -0.1671 -0.1694 -0.1432
    7CHTO  H156 2708   4.833   1.069   3.228  0.4838 -1.2806 -1.3477
    7CHTO   N15 2709   4.631   1.037   3.147 -0.1339  0.3001 -0.3736
    7CHTO  H143 2710   4.566   1.077   3.073  1.1428  0.6540 -1.3116
    7CHTO  H144 2711   4.584   1.039   3.243 -0.8027 -1.3871 -0.6404
    7CHTO   C87 2712   4.742   1.259   3.202 -0.1172  0.2986 -0.5550
    7CHTO  H159 2713   4.669   1.307   3.137  1.1911 -0.4928 -2.6467
    7CHTO   O53 2714   4.887   1.330   3.198 -0.4423 -0.0471  0.3060
    7CHTO   C82 2715   4.928   1.324   3.062 -0.0533 -0.2491  0.3175
    7CHTO  H154 2716   4.859   1.366   2.989  0.8302 -2.4833 -1.8625
    7CHTO   C89 2717   5.055   1.412   3.054 -0.8802 -0.1086  1.0439
    7CHTO   O59 2718   5.160   1.374   3.148  0.2100  0.0743 -0.6506
    7CHTO  H137 2719   5.229   1.436   3.134 -1.4866  1.5419 -2.6938
    7CHTO   O45 2720   4.685   1.251   3.378 -0.0858  0.2923 -0.3006
    7CHTO   C67 2721   4.760   1.336   3.466  0.0795  0.7208  0.1907
    7CHTO  H124 2722   4.852   1.374   3.422  1.3930 -2.4602  0.0921
    7CHTO   C65 2723   4.672   1.457   3.511  0.1082  0.3386  0.6823
    7CHTO  H122 2724   4.569   1.423   3.515  0.6784 -1.2430  3.1809
    7CHTO   O44 2725   4.699   1.554   3.406  0.1752  0.2970 -0.1853
    7CHTO  H102 2726   4.786   1.589   3.405 -0.6279  2.3795 -1.0728
    7CHTO   C63 2727   4.695   1.503   3.661  0.4556 -0.1193 -0.4647
    7CHTO  H120 2728   4.640   1.434   3.725  1.5459  0.4300  1.1203
    7CHTO   N11 2729   4.632   1.637   3.695  0.1933 -0.2560  0.0361
    7CHTO  H108 2730   4.528   1.620   3.681  0.0722 -0.7926  1.4933
    7CHTO  H109 2731   4.658   1.670   3.794  2.5001 -2.3439  0.1888
    7CHTO   C61 2732   4.852   1.494   3.693 -0.5305 -0.0704  0.1168
    7CHTO  H118 2733   4.870   1.527   3.796 -2.2033 -1.9365  1.0590
    7CHTO   O40 2734   4.890   1.348   3.686 -0.1654  0.0221  0.0879
    7CHTO   C68 2735   4.813   1.257   3.593  0.7461 -0.4776 -0.0288
    7CHTO  H125 2736   4.728   1.209   3.646  1.1028 -1.1750 -0.0787
    7CHTO   C72 2737   4.906   1.141   3.550 -0.1881  0.7101  0.2688
    7CHTO   O48 2738   4.934   1.054   3.657 -0.1359 -0.4924 -0.1564
    7CHTO  H105 2739   5.000   1.096   3.708  1.0627  0.1805 -2.1925
    7CHTO   O38 2740   4.943   1.557   3.598  0.9348 -0.5271 -0.4402
    7CHTO   C55 2741   5.062   1.610   3.658 -0.3653  0.5882  0.1663
    7CHTO  H112 2742   5.089   1.553   3.748 -2.0654 -2.2751 -1.0753
    7CHTO   C56 2743   5.053   1.767   3.684  0.2506 -0.0394 -1.3133
    7CHTO  H113 2744   5.038   1.821   3.589 -1.6210  1.3201 -0.2874
    7CHTO   O42 2745   4.940   1.792   3.769 -0.3341 -0.2473 -0.0774
    7CHTO  H100 2746   4.862   1.762   3.728 -0.2769 -1.3658  0.6317
    7CHTO   C57 2747   5.191   1.816   3.742  0.4054 -1.0245  0.8307
    7CHTO  H114 2748   5.202   1.750   3.828  2.1545 -0.1727  1.2803
    7CHTO   N10 2749   5.198   1.956   3.790 -0.7056  0.6559  0.3639
    7CHTO  H106 2750   5.285   1.998   3.743 -0.8407  2.0036  1.2918
    7CHTO  H107 2751   5.113   2.006   3.746 -0.2537 -0.9464 -2.4929
    7CHTO   C58 2752   5.296   1.781   3.639  0.1564 -0.0092 -0.1976
    7CHTO  H115 2753   5.264   1.837   3.549 -0.7823  0.0514  0.1735
    7CHTO   O37 2754   5.300   1.641   3.616  0.3828 -0.3077  0.2286
    7CHTO   C59 2755   5.184   1.583   3.554 -0.2423  0.4466  0.7391
    7CHTO  H116 2756   5.172   1.625   3.454  1.1824  1.7458  1.0970
    7CHTO   C70 2757   5.222   1.434   3.530  0.0277  0.2653  0.3671
    7CHTO   O46 2758   5.130   1.371   3.441  0.1786  0.3340 -0.2486
    7CHTO  H103 2759   5.180   1.326   3.375  2.1426 -0.4542  1.7415
    7CHTO   O39 2760   5.461   1.832   3.677  0.0824 -0.1843 -0.5139
    7CHTO   C60 2761   5.551   1.751   3.607  0.0272 -0.0267 -0.0036
    7CHTO  H117 2762   5.536   1.649   3.641 -1.0237  0.2325  0.3239
    7CHTO   C62 2763   5.535   1.752   3.448 -0.6165 -0.6913 -0.1274
    7CHTO  H119 2764   5.428   1.735   3.424 -1.1386  0.1826  1.5193
    7CHTO   O43 2765   5.546   1.887   3.399 -0.2389 -0.0266 -0.0863
    7CHTO  H101 2766   5.498   1.905   3.321 -1.9603  1.5598  1.2965
    7CHTO   C66 2767   5.629   1.642   3.377  0.5348  1.4759 -0.7192
    7CHTO  H123 2768   5.614   1.546   3.426  2.9263  2.0825  1.2619
    7CHTO   N12 2769   5.587   1.621   3.236  0.3767 -0.4800 -0.3140
    7CHTO  H110 2770   5.530   1.706   3.202  0.1325 -0.2190  0.7283
    7CHTO  H111 2771   5.522   1.535   3.237 -1.1649  0.6576  0.7432
    7CHTO   C69 2772   5.775   1.695   3.394 -0.3461 -0.0267  0.6100
    7CHTO  H126 2773   5.791   1.791   3.341 -0.5730  0.5625  1.5997
    7CHTO   O41 2774   5.792   1.706   3.546  0.4447  0.6951 -0.3504
    7CHTO   C64 2775   5.697   1.787   3.644 -0.0055 -0.6478 -0.8916
    7CHTO  H121 2776   5.704   1.896   3.625  2.0700 -0.6746 -0.3592
    7CHTO   C71 2777   5.717   1.739   3.796 -0.0571 -0.3270  0.6272
    7CHTO   O47 2778   5.860   1.766   3.811  0.1826  0.2650 -0.1953
    7CHTO  H104 2779   5.901   1.719   3.740 -0.6076  0.6792 -0.9377
    7CHTO   O34 2780   5.891   1.605   3.345 -0.1342 -0.3665  0.2832
    7CHTO   C49 2781   5.948   1.524   3.241  0.4623  0.4834  0.8381
    7CHTO   H91 2782   6.036   1.481   3.289  1.4655 -0.0068 -1.3880
    7CHTO   C47 2783   5.993   1.610   3.122 -0.4846 -0.0511 -0.5913
    7CHTO   H89 2784   6.101   1.631   3.136 -0.6595 -0.4959  1.7808
    7CHTO   O33 2785   5.924   1.743   3.110  0.0588  0.1267 -0.1002
    7CHTO   H70 2786   5.936   1.815   3.168 -0.1032  0.6845 -0.7520
    7CHTO   C45 2787   5.959   1.528   2.978 -0.3867  0.0620  0.5204
    7CHTO   H87 2788   5.853   1.540   2.951  0.4363  1.2650 -2.3806
    7CHTO    N8 2789   6.044   1.580   2.870 -0.3881  0.1411 -0.0932
    7CHTO   H75 2790   6.066   1.507   2.794  2.1659 -0.1325  0.8391
    7CHTO   H76 2791   6.123   1.645   2.905 -1.2571  0.6821  0.9052
    7CHTO   C43 2792   5.984   1.371   3.002  0.2008  0.3519 -0.2058
    7CHTO   H85 2793   5.975   1.325   2.904  2.3178 -1.8284  0.5615
    7CHTO   O29 2794   5.891   1.319   3.095 -0.8238  0.6580  0.4964
    7CHTO   C50 2795   5.862   1.396   3.209 -0.4466  0.9689 -0.6381
    7CHTO   H92 2796   5.755   1.415   3.191 -0.8984  1.3628  2.1937
    7CHTO   C54 2797   5.852   1.300   3.331 -0.0705  0.3279  0.3459
    7CHTO   O36 2798   5.723   1.327   3.397  0.3976  0.2923 -0.2944
    7CHTO   H72 2799   5.696   1.257   3.453  1.3209 -1.4487 -1.9802
    7CHTO   O27 2800   6.124   1.354   3.039  0.1954  0.3004  0.4866
    7CHTO   C37 2801   6.202   1.259   3.109 -0.6727  0.3085  0.0704
    7CHTO   H79 2802   6.192   1.282   3.216 -0.0481  0.6872  0.0472
    7CHTO   C38 2803   6.155   1.110   3.083  0.5588  0.3373 -0.1625
    7CHTO   H80 2804   6.160   1.089   2.975  2.0465  0.6455 -0.1672
    7CHTO   O31 2805   6.030   1.086   3.143  0.2017 -0.3140  0.3872
    7CHTO   H68 2806   5.994   1.003   3.119 -0.2923  0.6803 -2.5391
    7CHTO   C39 2807   6.254   1.002   3.136  0.1043 -0.2260 -0.1079
    7CHTO   H81 2808   6.243   1.015   3.244 -0.1876  0.2106 -0.1881
    7CHTO    N7 2809   6.230   0.855   3.099  0.4622 -0.3885  0.6231
    7CHTO   H73 2810   6.156   0.802   3.156 -1.2908 -0.3064 -1.5169
    7CHTO   H74 2811   6.210   0.840   2.994  0.3991  1.0144  0.4266
    7CHTO   C40 2812   6.404   1.045   3.107 -0.3239  0.3397 -0.5360
    7CHTO   H82 2813   6.433   1.023   3.004  3.1552 -0.1906  0.5077
    7CHTO   O26 2814   6.428   1.184   3.138 -0.0132  0.0415 -0.0200
    7CHTO   C41 2815   6.341   1.279   3.067 -0.1365 -0.2322  0.0954
    7CHTO   H83 2816   6.359   1.271   2.959 -0.0825 -0.5856  0.1296
    7CHTO   C52 2817   6.397   1.421   3.100  0.5714  0.1245  0.4280
    7CHTO   O35 2818   6.533   1.428   3.046  0.0581  0.3789  0.1147
    7CHTO   H71 2819   6.593   1.387   3.105  1.5085  1.4875 -0.5607
    7CHTO   O28 2820   6.498   0.973   3.193 -0.1777  0.0511  0.2181
    7CHTO   C42 2821   6.638   0.958   3.147  0.0944  0.2951  0.2000
    7CHTO   H84 2822   6.682   0.921   3.239 -2.9125 -0.5024  1.3827
    7CHTO   C44 2823   6.717   1.081   3.103 -0.1329 -0.1529 -0.1305
    7CHTO   H86 2824   6.670   1.123   3.014 -2.1130 -0.6097  0.6929
    7CHTO   O32 2825   6.716   1.172   3.214 -0.3570 -0.5260 -0.1985
    7CHTO   H69 2826   6.743   1.258   3.187 -0.8510  0.1962  1.5184
    7CHTO   C48 2827   6.867   1.035   3.062 -0.1604  0.3032  0.6661
    7CHTO   H90 2828   6.913   0.980   3.144 -0.8578  0.0553  0.8904
    7CHTO    N9 2829   6.958   1.154   3.035  0.3365 -0.2157  0.0507
    7CHTO   H77 2830   7.062   1.137   3.014  0.5240  1.3853 -0.4236
    7CHTO   H78 2831   6.915   1.226   2.967 -1.8003 -1.4974  0.0105
    7CHTO   C51 2832   6.845   0.944   2.937 -0.7868  0.3950  0.4653
    7CHTO   H93 2833   6.777   0.994   2.869 -1.2577 -1.2789 -0.3320
    7CHTO   O30 2834   6.785   0.830   2.992 -0.0614 -0.3737 -0.8007
    7CHTO   C46 2835   6.646   0.842   3.038 -0.7011 -0.4624 -0.2819
    7CHTO   H88 2836   6.591   0.864   2.946 -0.4035 -2.4659 -0.9624
    7CHTO   C53 2837   6.603   0.710   3.105 -0.0345  0.8907 -0.1284
    7CHTO   O72 2838   6.560   0.625   3.000  0.5836  0.3465 -0.6275
    7CHTO  H199 2839   6.469   0.642   2.988  0.5230  0.4977  0.0679
    7CHTO   O22 2840   6.973   0.892   2.880  0.1975 -0.8661 -0.1415
    7CHTO   C31 2841   6.977   0.858   2.741  0.0212 -0.3379  1.1688
    7CHTO   H59 2842   7.074   0.806   2.725 -0.3176 -0.7078  0.2748
    7CHTO   C29 2843   6.866   0.758   2.701 -0.4447 -0.2923 -0.4155
    7CHTO   H57 2844   6.769   0.806   2.719 -1.3057 -1.1279 -2.6210
    7CHTO   O21 2845   6.868   0.642   2.785 -0.3629  0.5947  0.1339
    7CHTO   H37 2846   6.796   0.591   2.752  0.3607 -1.4760  1.6376
    7CHTO   C27 2847   6.874   0.714   2.550 -0.2256  0.3963 -0.0048
    7CHTO   H55 2848   6.974   0.669   2.536 -1.1091 -1.5025 -0.2648
    7CHTO    N5 2849   6.767   0.615   2.503 -0.2958 -0.6932  0.2357
    7CHTO   H43 2850   6.685   0.607   2.573  0.6950  0.7537  1.5793
    7CHTO   H44 2851   6.799   0.512   2.498  2.1524  0.1148 -2.0600
    7CHTO   C25 2852   6.865   0.855   2.475  0.0119  0.7743  0.1774
    7CHTO   H53 2853   6.777   0.907   2.514 -1.8806 -1.1743 -1.3861
    7CHTO   O17 2854   6.974   0.941   2.513  0.1310  0.2245  0.1628
    7CHTO   C32 2855   6.976   0.987   2.649 -0.1274 -0.8953 -0.6628
    7CHTO   H60 2856   6.878   1.032   2.666 -0.8158 -2.8588  0.7018
    7CHTO   C36 2857   7.097   1.078   2.679  0.0082 -0.4871  0.1095
    7CHTO   O25 2858   7.091   1.202   2.613  0.1808 -0.2597 -0.4725
    7CHTO   H40 2859   7.075   1.175   2.525 -2.2216 -1.2821  0.2253
    7CHTO   O15 2860   6.863   0.844   2.328 -0.4683  0.0670  0.2675
    7CHTO   C19 2861   6.842   0.961   2.236  0.0778 -0.4958  0.2916
    7CHTO   H47 2862   6.861   0.921   2.135  0.4660 -1.3145  0.6852
    7CHTO   C20 2863   6.692   1.000   2.234  0.3064  0.1136  0.6175
    7CHTO   H48 2864   6.654   1.023   2.335 -4.1644  1.3378 -1.2022
    7CHTO   O19 2865   6.617   0.883   2.188  0.1209 -0.2046  0.2312
    7CHTO   H35 2866   6.547   0.859   2.247  0.4379  0.0273  0.7046
    7CHTO   C21 2867   6.672   1.123   2.135  0.1924  0.1835 -0.2952
    7CHTO   H49 2868   6.678   1.088   2.031  0.2363  1.6299 -0.7900
    7CHTO    N4 2869   6.531   1.174   2.137 -0.4039  0.0453  0.7166
    7CHTO   H41 2870   6.466   1.115   2.199 -0.2234 -1.0858 -0.1516
    7CHTO   H42 2871   6.534   1.276   2.174 -1.9206  0.5818 -0.5598
    7CHTO   C22 2872   6.776   1.233   2.150  0.2635 -0.3653 -0.1559
    7CHTO   H50 2873   6.755   1.269   2.250 -1.2196  0.3412 -0.7064
    7CHTO   O14 2874   6.906   1.169   2.147  0.6286 -0.6029 -0.3742
    7CHTO   C23 2875   6.942   1.080   2.249  0.2760  0.0537  0.5831
    7CHTO   H51 2876   6.937   1.128   2.348 -0.6059  1.2031 -0.0020
    7CHTO   C34 2877   7.092   1.038   2.232 -0.0017  0.5405 -0.5143
    7CHTO   O23 2878   7.191   1.139   2.254  0.4470 -0.7441  0.1220
    7CHTO   H38 2879   7.274   1.117   2.217 -0.4011 -2.5541 -0.7400
    7CHTO   O16 2880   6.771   1.331   2.044  0.1834  0.4864 -0.1039
    7CHTO   C24 2881   6.774   1.491   2.121  0.0813  0.1196  0.2378
    7CHTO   H52 2882   6.792   1.485   2.229  1.7996 -1.2328 -0.0966
    7CHTO   C26 2883   6.642   1.561   2.090 -0.1852  0.2732  0.1168
    7CHTO   H54 2884   6.637   1.557   1.979  0.6766 -3.1742  0.1387
    7CHTO   O20 2885   6.536   1.488   2.160  0.1643  0.1620 -0.0135
    7CHTO   H36 2886   6.452   1.520   2.133  0.8808  0.7539 -1.5699
    7CHTO   C30 2887   6.645   1.713   2.125 -0.2691  0.0898 -0.7483
    7CHTO   H58 2888   6.667   1.728   2.232 -1.4492 -0.1300 -0.4625
    7CHTO    N6 2889   6.516   1.784   2.092 -0.6457 -0.4903 -0.4269
    7CHTO   H45 2890   6.455   1.805   2.178  0.2364  2.3005 -0.4246
    7CHTO   H46 2891   6.537   1.880   2.047 -0.4586 -0.8070 -1.0169
    7CHTO   C33 2892   6.771   1.780   2.054  0.1437 -0.4028  0.3279
    7CHTO   H61 2893   6.768   1.783   1.944  0.1332  1.3856  0.3615
    7CHTO   O18 2894   6.888   1.702   2.093  0.1687 -0.2841 -0.0758
    7CHTO   C28 2895   6.893   1.563   2.054  0.2086  0.1095 -0.0638
    7CHTO   H56 2896   6.903   1.548   1.947  0.4964 -0.0988 -0.0081
    7CHTO   C35 2897   7.029   1.494   2.094  0.6566 -0.5531 -0.0460
    7CHTO   O24 2898   7.134   1.581   2.049  0.0279 -0.2277  0.0538
    7CHTO   H39 2899   7.106   1.668   2.069 -0.9220 -1.1124  2.7754
    7CHTO    O9 2900   6.786   1.919   2.089  0.2059 -0.3180  0.1295
    7CHTO   C13 2901   6.920   2.006   2.029  0.4369  0.6898  0.6143
    7CHTO   H26 2902   6.933   1.965   1.927 -0.0282 -0.2372  0.9284
    7CHTO   C11 2903   7.049   1.987   2.113 -0.5738  0.0829  0.7450
    7CHTO   H24 2904   7.077   1.881   2.109  1.7956  0.6737  0.7094
    7CHTO    O8 2905   7.016   2.004   2.249 -0.0872 -0.4870 -0.2915
    7CHTO    H3 2906   7.083   1.965   2.301  0.6270 -0.2329 -1.0049
    7CHTO    C9 2907   7.165   2.082   2.058  0.1582  0.6856  0.3788
    7CHTO   H22 2908   7.176   2.061   1.950  0.6236  1.8020  0.2037
    7CHTO    N2 2909   7.297   2.047   2.117 -0.8005  0.1296  0.5009
    7CHTO   H10 2910   7.297   2.078   2.221 -1.5662 -0.6029  0.7231
    7CHTO   H11 2911   7.379   2.092   2.064 -2.6201 -0.4820 -3.0229
    7CHTO    C7 2912   7.122   2.237   2.064 -0.6416 -0.0545 -0.8427
    7CHTO   H20 2913   7.212   2.282   2.018  1.2775 -1.8269  1.0645
    7CHTO    O4 2914   6.999   2.247   1.989  0.2039  0.2256  0.2133
    7CHTO   C14 2915   6.882   2.160   2.006  0.6192  0.4928 -0.1516
    7CHTO   H27 2916   6.821   2.165   1.913  1.8961  0.0696 -1.0285
    7CHTO   C18 2917   6.793   2.213   2.122  0.3871  0.0601 -0.1494
    7CHTO   O13 2918   6.767   2.354   2.105 -0.4826 -0.2238 -0.2990
    7CHTO    H7 2919   6.682   2.367   2.068 -0.7685 -0.4728  0.2430
    7CHTO    O2 2920   7.093   2.283   2.224 -0.0482  0.7491 -0.4737
    7CHTO    C1 2921   7.125   2.420   2.261 -0.6930 -0.5485  0.4747
    7CHTO   H14 2922   7.080   2.490   2.188 -0.3525  0.3397  1.1108
    7CHTO    C2 2923   7.284   2.445   2.261 -0.1961  0.0829 -0.2441
    7CHTO   H15 2924   7.330   2.367   2.323  2.1547  2.2934  0.9156
    7CHTO    O6 2925   7.335   2.441   2.125 -0.2446  0.3407  0.3879
    7CHTO    H1 2926   7.269   2.441   2.058 -0.9556  1.6109  1.0720
    7CHTO    C3 2927   7.311   2.594   2.317  0.1097  0.1201 -0.2880
    7CHTO   H16 2928   7.281   2.659   2.233  1.7374  0.4123 -0.6604
    7CHTO    N1 2929   7.460   2.609   2.338 -0.8810 -0.5755  0.2050
    7CHTO    H8 2930   7.513   2.670   2.266 -2.2814 -1.0674 -1.2902
    7CHTO    H9 2931   7.511   2.519   2.366 -0.8315 -1.0940 -1.4964
    7CHTO    C4 2932   7.218   2.639   2.443 -0.0953 -0.3615 -0.4800
    7CHTO   H17 2933   7.261   2.598   2.534 -1.9581  0.9612  1.0111
    7CHTO    O1 2934   7.083   2.596   2.430  0.6704  0.0883  0.0998
    7CHTO    C5 2935   7.069   2.454   2.401  0.7404 -0.7170 -0.4034
    7CHTO   H18 2936   7.124   2.396   2.475  0.7762  1.5584  1.4454
    7CHTO   C16 2937   6.918   2.429   2.410 -0.2918 -0.5025 -0.0870
    7CHTO   O11 2938   6.877   2.433   2.544 -0.3651 -0.3955 -0.0361
    7CHTO    H5 2939   6.839   2.517   2.560 -0.2868 -0.1692 -0.9951
    7CHTO    O3 2940   7.221   2.781   2.442  0.4276  0.3157 -0.1485
    7CHTO    C6 2941   7.294   2.848   2.550 -0.5221 -0.4680 -0.1464
    7CHTO   H19 2942   7.369   2.780   2.591 -1.0562 -0.5785  0.6409
    7CHTO    C8 2943   7.363   2.971   2.490 -0.1067 -0.1642  0.5250
    7CHTO   H21 2944   7.286   3.040   2.454  0.6736 -0.8218 -2.5537
    7CHTO    O7 2945   7.450   2.932   2.381 -0.0111 -0.0110 -0.3317
    7CHTO    H2 2946   7.444   2.987   2.306 -1.8299  0.4388  0.1135
    7CHTO   C12 2947   7.445   3.043   2.606 -0.1805  0.4560 -0.1139
    7CHTO   H25 2948   7.526   2.972   2.633 -0.2707  0.9196  1.4194
    7CHTO    N3 2949   7.517   3.167   2.568 -0.2091  0.1019  0.8163
    7CHTO   H12 2950   7.590   3.155   2.488 -1.5153 -0.7182 -0.2803
    7CHTO   H13 2951   7.564   3.205   2.657  0.7150  1.0282 -0.0494
    7CHTO   C15 2952   7.350   3.064   2.733  0.6962  0.6272  0.3524
    7CHTO   H28 2953   7.287   3.150   2.711  1.9360  1.0928 -1.4383
    7CHTO   O10 2954   7.418   3.087   2.879  0.0928  0.4179 -0.4253
    7CHTO    H4 2955   7.500   3.042   2.878 -0.5260 -0.7512  0.2692
    7CHTO    O5 2956   7.269   2.951   2.770 -0.1994 -0.0185 -0.3109
    7CHTO   C10 2957   7.198   2.889   2.664  0.6363  0.8453  0.3954
    7CHTO   H23 2958   7.129   2.967   2.630 -1.1992 -1.5141 -1.4874
    7CHTO   C17 2959   7.124   2.771   2.724 -0.0826  0.5624 -0.1403
    7CHTO   O12 2960   6.982   2.772   2.706  0.1362  0.6726 -0.6521
    7CHTO    H6 2961   6.947   2.686   2.696  0.6045  0.3561  0.3815
    8CHTO  H203 2962   7.147   9.500   1.899 -1.0622 -0.2186 -1.2952
    8CHTO   O82 2963   7.125   9.410   1.889  0.0970 -0.6599 -0.1008
    8CHTO  C123 2964   7.035   9.379   1.771  0.5362  0.1102 -0.3489
    8CHTO  H227 2965   7.096   9.335   1.690 -1.2388  0.8146 -2.1287
    8CHTO   O77 2966   6.943   9.291   1.828  0.1907 -0.1657 -0.4026
    8CHTO  C118 2967   6.849   9.221   1.745  0.1329  0.0021  0.3655
    8CHTO  H222 2968   6.907   9.167   1.668 -0.0059  1.0642 -0.4942
    8CHTO  C125 2969   6.772   9.117   1.845 -0.2532 -0.3586 -0.0902
    8CHTO   O84 2970   6.720   9.006   1.774  0.3945 -0.0362 -0.0669
    8CHTO  H205 2971   6.627   9.005   1.788  0.1353 -2.7987 -1.5807
    8CHTO  C114 2972   6.761   9.324   1.676  0.5128 -0.4296  0.7170
    8CHTO  H218 2973   6.692   9.370   1.748 -0.4936 -1.4872  0.4488
    8CHTO  C116 2974   6.847   9.437   1.614  0.3095  0.9010  0.1118
    8CHTO  H220 2975   6.902   9.398   1.526  2.7432 -0.2482  2.0726
    8CHTO   O79 2976   6.754   9.533   1.568 -0.4149 -0.1974  0.2490
    8CHTO  H201 2977   6.713   9.569   1.644  0.1899  0.0292  0.4713
    8CHTO  C120 2978   6.957   9.499   1.710 -1.1971 -0.1418 -0.4754
    8CHTO  H224 2979   6.912   9.568   1.785 -0.7641 -1.1359  0.7232
    8CHTO   N21 2980   7.045   9.589   1.636 -0.4009 -0.5119  0.9829
    8CHTO  H211 2981   7.003   9.688   1.651  0.3771 -0.0038 -0.1531
    8CHTO  H212 2982   7.043   9.558   1.533  0.1520  1.7252  0.2691
    8CHTO   O75 2983   6.683   9.239   1.596  0.0003 -0.3288 -0.0955
    8CHTO  C112 2984   6.528   9.282   1.554 -0.0607 -0.3374 -0.5121
    8CHTO  H216 2985   6.515   9.389   1.529 -1.3792 -0.3502  0.1047
    8CHTO   O73 2986   6.442   9.244   1.669  0.1450  0.3767 -0.3450
    8CHTO  C113 2987   6.307   9.292   1.646 -0.0994  0.0242 -0.3808
    8CHTO  H217 2988   6.304   9.401   1.626 -1.4160 -0.3916 -2.5843
    8CHTO  C124 2989   6.236   9.283   1.781  0.1378  0.1353 -0.0310
    8CHTO   O83 2990   6.237   9.161   1.856  0.3692  0.4817 -0.7577
    8CHTO  H204 2991   6.308   9.156   1.918 -0.4012 -0.9649  0.0387
    8CHTO  C109 2992   6.236   9.213   1.535 -0.2371 -0.3308  0.9091
    8CHTO  H213 2993   6.225   9.109   1.568  1.5418  0.0921  2.9129
    8CHTO  C110 2994   6.329   9.226   1.401  0.4717  0.4556 -0.4219
    8CHTO  H214 2995   6.324   9.323   1.352 -1.1000  0.8670  0.5159
    8CHTO   O78 2996   6.271   9.138   1.304  0.7690 -0.1967  0.3855
    8CHTO  H200 2997   6.330   9.111   1.237 -0.8746 -0.7958 -0.8569
    8CHTO  C111 2998   6.477   9.195   1.432  0.2255 -0.8739 -0.3699
    8CHTO  H215 2999   6.489   9.088   1.454  1.9897 -0.8611 -1.1146
    8CHTO   N19 3000   6.568   9.224   1.317 -0.6790  0.7660  0.0248
    8CHTO  H207 3001   6.635   9.308   1.327 -0.0543  0.4728 -1.5536
    8CHTO  H208 3002   6.603   9.127   1.285 -0.4092  1.3569 -1.4867
    8CHTO   O74 3003   6.111   9.268   1.509 -0.0581 -0.2506  0.4070
    8CHTO  C115 3004   5.993   9.168   1.513 -0.2729 -0.0457 -0.5892
    8CHTO  H219 3005   6.021   9.069   1.476  0.7437 -0.1572  0.4405
    8CHTO   O76 3006   5.943   9.145   1.678  0.0300 -0.0838 -0.5007
    8CHTO  C122 3007   5.870   9.251   1.732 -0.6842 -0.4553 -1.3197
    8CHTO  H226 3008   5.936   9.335   1.756  1.3947 -2.6648  1.0661
    8CHTO  C126 3009   5.804   9.208   1.871  0.3695  0.0418  0.3182
    8CHTO   O85 3010   5.906   9.158   1.957 -0.2791 -0.0950 -0.0975
    8CHTO  H206 3011   5.974   9.218   1.983 -0.6651  0.1531  0.3576
    8CHTO  C121 3012   5.752   9.303   1.636  0.1454  0.5062  0.5037
    8CHTO  H225 3013   5.677   9.222   1.624  0.4675  0.1715  0.7366
    8CHTO   O81 3014   5.693   9.413   1.698  0.3977 -0.6522  0.7136
    8CHTO  H202 3015   5.629   9.392   1.764 -0.6423  0.2604  0.0205
    8CHTO  C119 3016   5.811   9.344   1.489  0.2094 -0.8483 -0.0071
    8CHTO  H223 3017   5.728   9.379   1.428  0.4208 -2.3900 -1.2170
    8CHTO  C117 3018   5.873   9.219   1.416  0.2982 -0.2878  0.3670
    8CHTO  H221 3019   5.929   9.238   1.324  0.4706 -1.0824  0.2978
    8CHTO   N20 3020   5.773   9.117   1.383 -0.2557  0.0031  1.0092
    8CHTO  H209 3021   5.751   9.086   1.282  1.9249  0.4585  0.3750
    8CHTO  H210 3022   5.754   9.053   1.469 -0.6918 -1.3953 -0.1059
    8CHTO   O80 3023   5.908   9.475   1.493  0.0469 -0.1327  0.1074
    8CHTO  C103 3024   5.872   9.589   1.539 -0.3756  0.3847  0.1535
    8CHTO  H190 3025   5.778   9.585   1.594  0.2323 -3.6645  1.1173
    8CHTO  C101 3026   5.989   9.659   1.632 -0.2271  0.5110  0.0015
    8CHTO  H188 3027   6.085   9.622   1.596  0.9492  0.7733  2.6960
    8CHTO   O68 3028   5.965   9.588   1.779  0.2427  0.5573 -0.6647
    8CHTO  H168 3029   6.030   9.526   1.807 -1.2248 -0.4077  0.6684
    8CHTO   C99 3030   5.982   9.823   1.635 -0.1907 -0.5571  0.8567
    8CHTO  H186 3031   5.896   9.856   1.696 -0.4934  0.6343 -0.1931
    8CHTO   N17 3032   6.097   9.878   1.705  0.0786  0.1262  0.2689
    8CHTO  H174 3033   6.118   9.830   1.800  0.9356  1.4949  0.7856
    8CHTO  H175 3034   6.086   9.985   1.716 -0.4119  0.0550  0.4457
    8CHTO   C97 3035   5.952   9.880   1.495  0.1867 -0.1941 -0.0050
    8CHTO  H184 3036   6.040   9.858   1.432  1.1265  0.3579  1.0942
    8CHTO   O64 3037   5.829   9.816   1.443  0.5764 -0.0308  0.1724
    8CHTO  C104 3038   5.849   9.673   1.404  0.4719  0.2163 -0.1466
    8CHTO  H191 3039   5.931   9.666   1.333 -0.4679  4.6874 -1.8934
    8CHTO  C108 3040   5.723   9.634   1.331  0.0553  0.3022 -0.0024
    8CHTO   O71 3041   5.689   9.715   1.216 -0.5415  0.1209  0.9101
    8CHTO  H171 3042   5.623   9.780   1.233  0.1777  0.7967  1.1092
    8CHTO   O62 3043   5.928  10.021   1.499  0.0889  0.2070  0.0614
    8CHTO   C91 3044   6.000  10.100   1.398 -0.1016  0.4252 -0.4480
    8CHTO  H178 3045   6.097  10.051   1.381 -0.1414 -0.0520  0.6485
    8CHTO   C92 3046   6.042  10.241   1.469  0.3331  0.7903 -0.0086
    8CHTO  H179 3047   5.953  10.277   1.524  0.4686 -1.8432  2.0208
    8CHTO   O66 3048   6.133  10.212   1.580 -0.7941  0.1478 -0.8056
    8CHTO  H166 3049   6.128  10.129   1.625  1.2956  1.5401  2.1408
    8CHTO   C93 3050   6.106  10.347   1.369  0.6873  0.2750  0.2847
    8CHTO  H180 3051   6.204  10.303   1.344 -0.4339 -1.9627 -0.2710
    8CHTO   N16 3052   6.129  10.484   1.423  0.2104  0.1472  0.4086
    8CHTO  H172 3053   6.127  10.471   1.530  0.0108 -3.6778 -0.0066
    8CHTO  H173 3054   6.225  10.525   1.394 -0.4479  0.2163 -1.8015
    8CHTO   C94 3055   6.017  10.354   1.234 -0.0084  0.2508 -0.1206
    8CHTO  H181 3056   5.922  10.402   1.256  0.4811  0.2546  2.1811
    8CHTO   O61 3057   5.992  10.224   1.179 -0.4624 -0.0642 -0.1131
    8CHTO   C95 3058   5.927  10.124   1.260  0.1555 -0.8708 -0.2002
    8CHTO  H182 3059   5.825  10.157   1.282  1.4093  1.0410  3.1262
    8CHTO  C106 3060   5.925   9.996   1.161  0.5308  0.1630 -0.8295
    8CHTO   O69 3061   6.056   9.951   1.121  0.3344  0.8086 -0.2534
    8CHTO  H169 3062   6.049   9.889   1.051  1.0623 -0.8614  1.1178
    8CHTO   O63 3063   6.088  10.448   1.125 -0.0094 -0.1995  0.2001
    8CHTO   C96 3064   6.022  10.443   0.982 -0.1605 -0.5713  0.3751
    8CHTO  H183 3065   5.976  10.345   0.965  0.0364 -0.7616  0.9281
    8CHTO   C98 3066   6.130  10.461   0.869 -0.1039  1.1481 -0.0499
    8CHTO  H185 3067   6.190  10.552   0.885  1.6060  0.0479 -0.2018
    8CHTO   O67 3068   6.225  10.352   0.881  0.2504  0.9277 -0.1772
    8CHTO  H167 3069   6.302  10.382   0.837  0.7156  0.1226  0.1051
    8CHTO  C102 3070   6.051  10.472   0.723 -0.1385  0.2968 -0.3701
    8CHTO  H189 3071   6.003  10.375   0.703  2.1401 -0.8704 -0.3996
    8CHTO   N18 3072   6.148  10.487   0.613 -0.0340 -0.0220 -0.2981
    8CHTO  H176 3073   6.096  10.470   0.520 -1.4566 -0.3195  0.5463
    8CHTO  H177 3074   6.225  10.412   0.626 -1.4454 -1.0379  2.5610
    8CHTO  C105 3075   5.938  10.574   0.732 -0.4179  0.0050 -0.4718
    8CHTO  H192 3076   5.982  10.674   0.733  1.8946 -0.9989 -0.7168
    8CHTO   O65 3077   5.853  10.551   0.849  0.5748  0.1160 -0.4037
    8CHTO  C100 3078   5.923  10.567   0.972 -0.1078  0.6266  0.7631
    8CHTO  H187 3079   5.978  10.663   0.967  3.0327 -1.1626 -0.3802
    8CHTO  C107 3080   5.829  10.596   1.092  0.0070  0.1717 -0.7835
    8CHTO   O70 3081   5.744  10.709   1.059  0.2156 -0.6372  0.1486
    8CHTO  H170 3082   5.705  10.696   0.975 -0.7909  0.4568  0.4231
    8CHTO   O57 3083   5.840  10.549   0.600 -0.1153 -0.0186  0.3900
    8CHTO   C85 3084   5.822  10.657   0.507  0.0628 -0.1422  0.4230
    8CHTO  H157 3085   5.926  10.693   0.494  0.1287 -0.8774 -1.1713
    8CHTO   C83 3086   5.740  10.781   0.565  0.5199 -0.5643 -0.6486
    8CHTO  H155 3087   5.804  10.834   0.636  0.5663  2.0808 -2.5740
    8CHTO   O56 3088   5.624  10.736   0.632 -0.1063  0.4370  0.1402
    8CHTO  H135 3089   5.562  10.714   0.565  1.5282  3.7793 -2.6182
    8CHTO   C81 3090   5.699  10.879   0.450  0.6641 -0.6558 -0.4749
    8CHTO  H153 3091   5.788  10.920   0.403  1.4029 -0.7513  0.8082
    8CHTO   N14 3092   5.634  11.000   0.501  0.1953  0.0553 -0.0960
    8CHTO  H141 3093   5.703  11.050   0.566  0.2024 -0.3973  0.2481
    8CHTO  H142 3094   5.556  10.966   0.566  1.0792  0.0422  0.9669
    8CHTO   C79 3095   5.614  10.801   0.342  0.0218  0.4098 -0.3182
    8CHTO  H151 3096   5.594  10.870   0.260 -2.7539  1.7193  1.4059
    8CHTO   O52 3097   5.709  10.705   0.283 -0.1782  0.1093 -0.2638
    8CHTO   C86 3098   5.762  10.602   0.370  0.4116  0.1413  0.4528
    8CHTO  H158 3099   5.679  10.529   0.379 -0.2864  0.3496 -3.4123
    8CHTO   C90 3100   5.868  10.534   0.283 -0.1514 -0.0816 -0.4063
    8CHTO   O60 3101   5.921  10.410   0.337 -0.3521  0.1931 -0.1601
    8CHTO  H138 3102   5.978  10.424   0.411 -1.3666 -2.8597  1.2806
    8CHTO   O50 3103   5.495  10.734   0.391 -0.6576 -0.1096  0.2363
    8CHTO   C73 3104   5.359  10.704   0.364  0.4204  0.1752 -0.2814
    8CHTO  H145 3105   5.351  10.688   0.256  1.6988  0.3143 -0.4134
    8CHTO   C74 3106   5.268  10.828   0.403 -0.0608  0.5309 -0.4639
    8CHTO  H146 3107   5.309  10.910   0.342  1.7708 -0.9311 -1.2672
    8CHTO   O54 3108   5.129  10.804   0.361  0.7460 -0.3983 -0.0642
    8CHTO  H133 3109   5.081  10.879   0.389  0.4645 -0.8301  0.6351
    8CHTO   C75 3110   5.279  10.857   0.558 -0.8138 -0.5077 -0.2797
    8CHTO  H147 3111   5.384  10.884   0.578 -0.6412  0.0797 -1.9086
    8CHTO   N13 3112   5.198  10.974   0.605  0.0765  1.0004  0.0934
    8CHTO  H139 3113   5.218  11.060   0.542  1.5085 -0.0833 -0.9741
    8CHTO  H140 3114   5.189  10.989   0.712  0.8902  0.2125  0.2721
    8CHTO   C76 3115   5.259  10.715   0.638 -0.6838  0.1731 -0.2823
    8CHTO  H148 3116   5.153  10.702   0.659 -0.6303  2.2560  1.4972
    8CHTO   O49 3117   5.318  10.596   0.580 -0.5582  0.2624 -0.4407
    8CHTO   C77 3118   5.318  10.574   0.434 -0.3016 -0.2356 -0.6747
    8CHTO  H149 3119   5.216  10.554   0.399 -1.5958  1.4167  1.9955
    8CHTO   C88 3120   5.404  10.456   0.397 -0.2547  0.0690 -0.2463
    8CHTO   O58 3121   5.390  10.406   0.255 -0.4026 -0.2709 -0.5740
    8CHTO  H136 3122   5.383  10.472   0.189  0.3102  1.6207  1.1937
    8CHTO   O51 3123   5.326  10.730   0.772 -0.1855  0.2700  0.0181
    8CHTO   C78 3124   5.282  10.639   0.878  0.0359 -0.6320  0.0762
    8CHTO  H150 3125   5.214  10.565   0.831  1.1759 -0.4866 -1.8567
    8CHTO   C80 3126   5.204  10.728   0.987  0.3543 -0.1547  0.5764
    8CHTO  H152 3127   5.259  10.824   0.999 -0.5406  0.7533 -2.2107
    8CHTO   O55 3128   5.083  10.766   0.921  0.0151  0.0724  0.2481
    8CHTO  H134 3129   5.102  10.819   0.847 -2.6312  2.1257  0.9601
    8CHTO   C84 3130   5.168  10.653   1.123 -0.3096  0.4310 -0.2047
    8CHTO  H156 3131   5.085  10.585   1.104 -0.0572  0.4383 -1.3550
    8CHTO   N15 3132   5.116  10.744   1.217  0.5653  0.3902 -0.2735
    8CHTO  H143 3133   5.026  10.784   1.176 -0.9165 -1.9697  0.5716
    8CHTO  H144 3134   5.087  10.689   1.305  1.7322 -1.3490 -0.9483
    8CHTO   C87 3135   5.290  10.565   1.167  0.3715 -0.2819  0.5559
    8CHTO  H159 3136   5.373  10.630   1.192 -1.3848  1.3076  2.4931
    8CHTO   O53 3137   5.339  10.473   1.050  0.3313 -0.2839 -0.2617
    8CHTO   C82 3138   5.396  10.556   0.949  0.5651 -0.6218  0.3988
    8CHTO  H154 3139   5.467  10.624   0.997 -0.3861 -0.7871  2.0648
    8CHTO   C89 3140   5.477  10.469   0.851 -0.6380  0.4572 -0.1613
    8CHTO   O59 3141   5.563  10.377   0.915 -0.2745 -0.6144 -0.5287
    8CHTO  H137 3142   5.516  10.349   0.991 -0.5649  3.1177  0.7855
    8CHTO   O45 3143   5.250  10.469   1.302  0.4004 -0.2885 -0.2415
    8CHTO   C67 3144   5.324  10.352   1.338 -0.1834 -0.4025 -0.1705
    8CHTO  H124 3145   5.288  10.272   1.273  2.3947 -1.4540 -0.3717
    8CHTO   C65 3146   5.482  10.365   1.320  0.0264  0.1758 -0.0160
    8CHTO  H122 3147   5.496  10.457   1.263  2.2129 -0.0417  0.1238
    8CHTO   O44 3148   5.541  10.260   1.247  0.0930 -0.1741 -0.0637
    8CHTO  H102 3149   5.468  10.210   1.214  1.4356 -1.8273 -0.5721
    8CHTO   C63 3150   5.555  10.388   1.458  0.0336 -0.2251  0.3467
    8CHTO  H120 3151   5.506  10.469   1.511 -0.3508  0.7039 -1.3979
    8CHTO   N11 3152   5.691  10.444   1.455 -1.2581  0.3647  0.1858
    8CHTO  H108 3153   5.683  10.529   1.390 -1.3392  1.4499  1.5785
    8CHTO  H109 3154   5.720  10.475   1.554  3.1252 -0.6955 -0.6496
    8CHTO   C61 3155   5.526  10.265   1.548  0.2435  0.3293 -0.3324
    8CHTO  H118 3156   5.551  10.298   1.650 -0.1368  0.4542 -0.2770
    8CHTO   O40 3157   5.384  10.226   1.551 -0.2131  0.4091  0.0925
    8CHTO   C68 3158   5.285  10.315   1.489 -0.9344 -0.2238  0.2295
    8CHTO  H125 3159   5.280  10.408   1.549  0.2188  0.6941 -1.0911
    8CHTO   C72 3160   5.148  10.241   1.505 -0.4097 -0.1798  0.0241
    8CHTO   O48 3161   5.122  10.200   1.639  0.0379 -0.6743  0.1557
    8CHTO  H105 3162   5.128  10.268   1.703  1.0424 -0.5971 -0.0168
    8CHTO   O38 3163   5.603  10.153   1.506  0.0988 -0.0314 -0.6850
    8CHTO   C55 3164   5.578  10.020   1.542 -0.1987 -0.2190 -0.4162
    8CHTO  H112 3165   5.672   9.964   1.545 -0.8151 -1.3047 -0.9599
    8CHTO   C56 3166   5.470   9.949   1.444 -0.4926 -0.3802 -0.2206
    8CHTO  H113 3167   5.385  10.016   1.424  0.5791  0.8689 -0.6561
    8CHTO   O42 3168   5.542   9.932   1.319  0.6992 -0.1792 -0.1076
    8CHTO  H100 3169   5.533   9.847   1.280  2.9262 -0.2884 -0.4195
    8CHTO   C57 3170   5.416   9.821   1.518  0.0893  0.5809 -0.7710
    8CHTO  H114 3171   5.500   9.755   1.540  1.0934  2.3462  0.9292
    8CHTO   N10 3172   5.316   9.755   1.432  0.1616 -0.0043  0.1270
    8CHTO  H106 3173   5.293   9.654   1.464  0.0598  0.1242  0.4631
    8CHTO  H107 3174   5.227   9.817   1.428  1.8408  2.6743  2.2732
    8CHTO   C58 3175   5.363   9.862   1.655  0.6882  0.6155  0.3511
    8CHTO  H115 3176   5.309   9.958   1.637  0.3736 -0.2700 -3.7415
    8CHTO   O37 3177   5.483   9.880   1.736  0.3041  0.1980  0.0164
    8CHTO   C59 3178   5.545  10.005   1.693  0.1876 -0.7628  0.1261
    8CHTO  H116 3179   5.487  10.093   1.721  0.7432 -0.3817  0.0842
    8CHTO   C70 3180   5.672  10.027   1.787  0.1403  0.2655 -0.0310
    8CHTO   O46 3181   5.721  10.162   1.784 -0.1499 -0.3951 -0.1582
    8CHTO  H103 3182   5.750  10.194   1.867  1.1113 -0.1632 -0.6781
    8CHTO   O39 3183   5.261   9.748   1.740 -0.7002 -0.3102  0.1800
    8CHTO   C60 3184   5.127   9.797   1.750 -0.0778 -0.3809  0.2265
    8CHTO  H117 3185   5.116   9.885   1.686 -0.1078 -1.2244 -0.9363
    8CHTO   C62 3186   5.032   9.684   1.694 -0.4881 -0.0819 -0.2253
    8CHTO  H119 3187   5.071   9.682   1.590  1.6032  1.4657  0.4820
    8CHTO   O43 3188   5.050   9.552   1.748 -0.3050  0.0308 -0.6430
    8CHTO  H101 3189   5.003   9.539   1.828  1.0895 -0.9605  0.0497
    8CHTO   C66 3190   4.880   9.746   1.686 -0.1155 -0.0060 -0.9969
    8CHTO  H123 3191   4.883   9.838   1.627  1.4126 -0.0603 -1.0091
    8CHTO   N12 3192   4.788   9.652   1.624 -1.0917 -0.6419  0.3208
    8CHTO  H110 3193   4.820   9.623   1.525 -1.5375 -2.4450  0.6911
    8CHTO  H111 3194   4.690   9.696   1.617  0.2151  2.1957 -0.8547
    8CHTO   C69 3195   4.838   9.800   1.829 -0.1631  0.0819 -0.0058
    8CHTO  H126 3196   4.828   9.707   1.890 -1.9072 -0.2868 -0.8299
    8CHTO   O41 3197   4.947   9.898   1.898  0.2597  0.1324  0.5648
    8CHTO   C64 3198   5.088   9.840   1.895 -0.0247 -0.0911 -0.2604
    8CHTO  H121 3199   5.092   9.759   1.971  1.7593  1.0755  0.9522
    8CHTO   C71 3200   5.177   9.943   1.967  0.5361 -0.3544 -0.2540
    8CHTO   O47 3201   5.279   9.866   2.027  0.0961 -0.1137  0.4622
    8CHTO  H104 3202   5.253   9.876   2.116  0.3533 -1.0765  0.6568
    8CHTO   O34 3203   4.697   9.860   1.838  0.0659 -0.1471  0.2884
    8CHTO   C49 3204   4.597   9.963   1.849  0.2748 -0.4192 -0.5590
    8CHTO   H91 3205   4.542   9.956   1.943 -0.5971  1.0566 -0.9337
    8CHTO   C47 3206   4.486   9.949   1.737  0.7708 -0.8590 -0.2051
    8CHTO   H89 3207   4.402  10.021   1.750  0.1676 -1.4793 -0.6538
    8CHTO   O33 3208   4.431   9.815   1.747  0.6749 -0.2339  0.6121
    8CHTO   H70 3209   4.407   9.788   1.661  1.8506  0.2150  0.1238
    8CHTO   C45 3210   4.550   9.980   1.595  0.1506 -0.2023 -0.2686
    8CHTO   H87 3211   4.633   9.909   1.584  1.0898  0.9891 -0.9622
    8CHTO    N8 3212   4.458   9.961   1.480  0.6952 -0.2468  0.0170
    8CHTO   H75 3213   4.506   9.995   1.389  0.2780 -1.1532 -0.5499
    8CHTO   H76 3214   4.444   9.855   1.463  2.8399 -0.3500 -1.3870
    8CHTO   C43 3215   4.613  10.124   1.599 -0.2642  0.5221 -0.1456
    8CHTO   H85 3216   4.663  10.144   1.505 -1.0101  0.9479 -0.4483
    8CHTO   O29 3217   4.707  10.148   1.707 -0.4934  0.7981 -0.0299
    8CHTO   C50 3218   4.673  10.101   1.839  0.1514 -0.0053  0.1260
    8CHTO   H92 3219   4.762  10.080   1.901  0.7666  0.4419 -0.5914
    8CHTO   C54 3220   4.591  10.206   1.911  0.1863 -0.6196  0.3785
    8CHTO   O36 3221   4.675  10.310   1.963  0.1782  0.1413  0.4609
    8CHTO   H72 3222   4.635  10.393   1.945 -1.4187 -0.8699 -0.7222
    8CHTO   O27 3223   4.510  10.229   1.611 -0.7203 -0.1484  0.3038
    8CHTO   C37 3224   4.492  10.366   1.554  0.6434  1.2642  0.6657
    8CHTO   H79 3225   4.419  10.421   1.616 -0.5497 -0.4332  0.8216
    8CHTO   C38 3226   4.630  10.435   1.550  0.4885 -0.2618  0.9090
    8CHTO   H80 3227   4.694  10.374   1.485 -1.4843  0.1690 -1.4896
    8CHTO   O31 3228   4.674  10.451   1.689  0.5964 -0.1782  0.3953
    8CHTO   H68 3229   4.745  10.393   1.708  0.5095 -0.2832  0.4016
    8CHTO   C39 3230   4.621  10.578   1.479 -1.2664  0.6312 -0.5454
    8CHTO   H81 3231   4.567  10.645   1.546 -0.8882 -0.6517  1.0695
    8CHTO    N7 3232   4.759  10.636   1.467  0.1418  0.3043  0.2247
    8CHTO   H73 3233   4.770  10.735   1.427 -3.2283 -0.0102 -1.6594
    8CHTO   H74 3234   4.825  10.564   1.419  1.3337  1.3659  0.2468
    8CHTO   C40 3235   4.550  10.568   1.337 -0.5399  0.4462  0.1029
    8CHTO   H82 3236   4.612  10.519   1.262 -0.8934  0.3811 -0.1433
    8CHTO   O26 3237   4.428  10.495   1.358  0.0186 -0.3582 -0.0535
    8CHTO   C41 3238   4.441  10.361   1.407  0.5565  0.6995 -0.3166
    8CHTO   H83 3239   4.516  10.308   1.346  1.7990  3.8110 -1.6104
    8CHTO   C52 3240   4.317  10.296   1.388  0.8319  0.3043  0.4433
    8CHTO   O35 3241   4.279  10.305   1.218 -0.0562 -0.2537 -0.5296
    8CHTO   H71 3242   4.301  10.387   1.177  2.7910 -0.6462  0.1103
    8CHTO   O28 3243   4.516  10.700   1.285  0.5633 -0.2783  0.0407
    8CHTO   C42 3244   4.465  10.726   1.155  1.0685 -0.4232  0.5114
    8CHTO   H84 3245   4.426  10.828   1.160  1.7521 -0.0856 -0.8692
    8CHTO   C44 3246   4.348  10.630   1.098  0.1052  0.2687 -0.2789
    8CHTO   H86 3247   4.378  10.525   1.095  2.3481  0.8724  0.5419
    8CHTO   O32 3248   4.239  10.633   1.195 -0.2755 -0.1403 -0.0407
    8CHTO   H69 3249   4.260  10.614   1.284 -1.4659 -0.0552  0.2723
    8CHTO   C48 3250   4.304  10.676   0.952  0.3371  0.0457  0.1716
    8CHTO   H90 3251   4.251  10.769   0.933  1.7903  0.5887 -1.2915
    8CHTO    N9 3252   4.202  10.585   0.895  0.1764  0.4036 -0.1952
    8CHTO   H77 3253   4.249  10.488   0.897 -2.5694 -0.9820 -0.4610
    8CHTO   H78 3254   4.113  10.581   0.957 -0.8228 -1.0413 -1.6804
    8CHTO   C51 3255   4.434  10.680   0.863 -0.2531  0.4600  0.6800
    8CHTO   H93 3256   4.478  10.580   0.862  2.5039  1.6598 -0.2736
    8CHTO   O30 3257   4.523  10.776   0.917 -0.6437 -0.2312  0.2461
    8CHTO   C46 3258   4.581  10.723   1.049  0.0383  0.0784 -0.6649
    8CHTO   H88 3259   4.610  10.618   1.047  0.4200  0.1783 -0.4671
    8CHTO   C53 3260   4.699  10.803   1.104  0.0383  0.4134 -0.8809
    8CHTO   O72 3261   4.806  10.750   1.027  0.5030  0.2056  0.8999
    8CHTO  H199 3262   4.887  10.793   1.048  0.5980  2.3107 -3.2691
    8CHTO   O22 3263   4.419  10.725   0.730  0.1128  0.2946  0.1815
    8CHTO   C31 3264   4.507  10.683   0.622  0.1955  0.0593 -0.7026
    8CHTO   H59 3265   4.486  10.741   0.530 -0.6828 -3.5963 -2.9046
    8CHTO   C29 3266   4.655  10.713   0.656 -0.2718  0.2984 -0.1325
    8CHTO   H57 3267   4.679  10.669   0.754  0.7965  0.1475 -0.4541
    8CHTO   O21 3268   4.682  10.853   0.655  0.2137 -0.0702 -0.2583
    8CHTO   H37 3269   4.656  10.898   0.732  0.8729 -1.6737  0.9196
    8CHTO   C27 3270   4.745  10.635   0.549  0.1489 -0.1345 -0.1462
    8CHTO   H55 3271   4.734  10.681   0.450  1.5887 -2.0624 -1.2230
    8CHTO    N5 3272   4.894  10.639   0.581 -0.5878  0.5168 -0.6325
    8CHTO   H43 3273   4.946  10.699   0.508 -2.3478  2.9468  0.0070
    8CHTO   H44 3274   4.903  10.707   0.665 -0.2084  2.3192 -2.0977
    8CHTO   C25 3275   4.695  10.483   0.540  0.3293 -0.1297  0.4060
    8CHTO   H53 3276   4.699  10.443   0.642  1.7626 -0.2538  0.3028
    8CHTO   O17 3277   4.562  10.481   0.487  0.3641 -0.4839  0.3674
    8CHTO   C32 3278   4.473  10.533   0.584 -0.0754  0.3316  0.4836
    8CHTO   H60 3279   4.474  10.478   0.678  0.2989  2.2791  1.6376
    8CHTO   C36 3280   4.332  10.505   0.528 -0.2171 -0.2763  0.1942
    8CHTO   O25 3281   4.309  10.579   0.407 -0.0517  0.0734  0.4631
    8CHTO   H40 3282   4.366  10.551   0.337  0.6171  5.0834 -1.2185
    8CHTO   O15 3283   4.805  10.395   0.437 -0.5766 -0.1453 -0.2740
    8CHTO   C19 3284   4.849  10.387   0.293  0.1660 -0.5068 -0.0566
    8CHTO   H47 3285   4.784  10.308   0.252 -0.3854  0.2309 -0.6338
    8CHTO   C20 3286   4.831  10.522   0.210 -0.5750 -0.0793 -0.3327
    8CHTO   H48 3287   4.892  10.604   0.249 -1.1178  1.2163 -2.1309
    8CHTO   O19 3288   4.694  10.556   0.231 -0.3376 -0.7626  0.1253
    8CHTO   H35 3289   4.641  10.509   0.170 -1.7829 -0.9257  1.4709
    8CHTO   C21 3290   4.871  10.501   0.061 -0.2536  0.1034 -0.5734
    8CHTO   H49 3291   4.795  10.436   0.018 -0.7930  0.1706  0.2693
    8CHTO    N4 3292   4.865  10.625  -0.023  0.2092  0.0703 -0.1104
    8CHTO   H41 3293   4.941  10.630  -0.100 -0.2308 -0.4531 -0.5876
    8CHTO   H42 3294   4.766  10.628  -0.066 -0.2032 -2.6630  0.5340
    8CHTO   C22 3295   5.003  10.430   0.047  0.9899 -0.2060 -0.1369
    8CHTO   H50 3296   5.081  10.499   0.077 -0.1735  1.1091 -0.0988
    8CHTO   O14 3297   5.018  10.322   0.131  0.1901 -0.1801  0.3432
    8CHTO   C23 3298   5.000  10.340   0.272 -0.7394  0.0300  0.8005
    8CHTO   H51 3299   5.075  10.412   0.309 -0.2128 -0.0807 -0.0451
    8CHTO   C34 3300   5.029  10.212   0.353 -0.3253 -0.3663  0.0106
    8CHTO   O23 3301   4.964  10.103   0.291 -0.4538  0.2073  0.2605
    8CHTO   H38 3302   5.007  10.097   0.208 -0.8793  0.2781  0.0301
    8CHTO   O16 3303   5.011  10.371  -0.086 -0.1289  0.6221 -0.1560
    8CHTO   C24 3304   5.161  10.293  -0.110  0.8062  0.5461 -0.0461
    8CHTO   H52 3305   5.228  10.290  -0.024 -0.4183 -0.7696  0.8813
    8CHTO   C26 3306   5.235  10.384  -0.214 -0.0528  0.2036 -0.6200
    8CHTO   H54 3307   5.179  10.385  -0.310 -3.1501 -2.2536  1.0695
    8CHTO   O20 3308   5.239  10.513  -0.150 -0.0990  0.1528 -0.5068
    8CHTO   H36 3309   5.226  10.576  -0.219  0.3557  1.4106  0.5196
    8CHTO   C30 3310   5.370  10.320  -0.244 -0.2394  0.0230  0.4789
    8CHTO   H58 3311   5.424  10.311  -0.148  1.2329 -0.4287 -0.3688
    8CHTO    N6 3312   5.456  10.395  -0.344  0.4810  0.4779  0.0207
    8CHTO   H45 3313   5.518  10.456  -0.280 -0.3750  2.6267 -1.1480
    8CHTO   H46 3314   5.402  10.457  -0.413  0.6340  1.2264  0.5720
    8CHTO   C33 3315   5.347  10.165  -0.283 -0.1291  0.3884 -0.1575
    8CHTO   H61 3316   5.288  10.154  -0.376  0.4164 -1.7751 -0.2780
    8CHTO   O18 3317   5.274  10.101  -0.183  0.8707  0.4506  0.2888
    8CHTO   C28 3318   5.144  10.154  -0.163  0.1384  0.0882 -0.5382
    8CHTO   H56 3319   5.084  10.152  -0.254  1.1753 -2.1145 -1.2155
    8CHTO   C35 3320   5.058  10.073  -0.068  0.3621  0.1258 -0.2095
    8CHTO   O24 3321   5.035   9.934  -0.114 -0.3113 -0.2742 -0.4697
    8CHTO   H39 3322   4.966   9.921  -0.176 -0.7106  0.2017 -0.1287
    8CHTO    O9 3323   5.474  10.097  -0.314  0.1099  0.5611 -0.2350
    8CHTO   C13 3324   5.466   9.930  -0.329 -0.1280 -0.0448  0.5926
    8CHTO   H26 3325   5.380   9.903  -0.394  0.0996  0.3219  0.1375
    8CHTO   C11 3326   5.458   9.871  -0.179  0.2613  0.4786  0.1581
    8CHTO   H24 3327   5.352   9.879  -0.148  0.5694  1.0683  1.0864
    8CHTO    O8 3328   5.529   9.953  -0.083  0.0743  0.1146 -0.0663
    8CHTO    H3 3329   5.469   9.985  -0.018  1.8265 -1.3553  2.3871
    8CHTO    C9 3330   5.512   9.720  -0.180 -0.9237 -0.6651  0.1779
    8CHTO   H22 3331   5.451   9.661  -0.249 -0.9187 -1.6814  1.0257
    8CHTO    N2 3332   5.493   9.649  -0.057 -0.1306  0.6101  0.1847
    8CHTO   H10 3333   5.432   9.560  -0.065  0.8560 -0.1531  0.9242
    8CHTO   H11 3334   5.581   9.613  -0.004 -0.7980 -0.5809  0.5151
    8CHTO    C7 3335   5.660   9.720  -0.238 -0.6139  0.0370 -0.0819
    8CHTO   H20 3336   5.665   9.631  -0.304 -1.7281 -0.4935  0.5426
    8CHTO    O4 3337   5.695   9.836  -0.319  0.4831 -0.1125  0.2274
    8CHTO   C14 3338   5.584   9.870  -0.409 -0.3688  0.0270  0.3223
    8CHTO   H27 3339   5.561   9.773  -0.457  0.4665  0.0197 -0.0619
    8CHTO   C18 3340   5.643   9.968  -0.519  0.0437 -0.1049  0.4164
    8CHTO   O13 3341   5.536  10.023  -0.596  0.6925 -0.1589 -0.0418
    8CHTO    H7 3342   5.568  10.073  -0.669 -0.3943  1.1194  0.3395
    8CHTO    O2 3343   5.778   9.712  -0.125 -0.1685  0.1335  0.0829
    8CHTO    C1 3344   5.874   9.608  -0.168 -0.2711  0.4480 -0.0516
    8CHTO   H14 3345   5.896   9.593  -0.276  1.1517 -0.2740  0.3260
    8CHTO    C2 3346   5.838   9.464  -0.108 -0.1919 -0.0704  0.7293
    8CHTO   H15 3347   5.794   9.484  -0.009  1.5028  3.5843  0.8149
    8CHTO    O6 3348   5.738   9.405  -0.189 -0.2651  0.5794 -0.4348
    8CHTO    H1 3349   5.714   9.320  -0.156  3.6842  0.3498  2.2132
    8CHTO    C3 3350   5.965   9.362  -0.106 -0.3520  0.3829  0.2541
    8CHTO   H16 3351   5.985   9.332  -0.210 -1.5309 -1.1898  0.4637
    8CHTO    N1 3352   5.938   9.239  -0.034 -0.0580 -0.1420 -0.2564
    8CHTO    H8 3353   6.011   9.161  -0.046  0.2668  0.2352 -0.6939
    8CHTO    H9 3354   5.838   9.197  -0.041 -0.0965 -0.5507  2.2603
    8CHTO    C4 3355   6.092   9.430  -0.053 -0.4870 -0.3127 -0.8100
    8CHTO   H17 3356   6.081   9.452   0.053  2.2177  0.2620 -0.6133
    8CHTO    O1 3357   6.115   9.552  -0.123  0.0084 -0.4780 -0.9758
    8CHTO    C5 3358   6.010   9.648  -0.107  0.0720  0.8084 -0.3978
    8CHTO   H18 3359   6.002   9.663   0.001  1.7544  0.5295 -0.2068
    8CHTO   C16 3360   6.066   9.775  -0.172  0.7335 -0.6908 -0.4466
    8CHTO   O11 3361   6.184   9.819  -0.109 -0.5355 -0.8119 -0.3092
    8CHTO    H5 3362   6.176   9.908  -0.083 -3.5226 -1.0184 -0.3035
    8CHTO    O3 3363   6.205   9.343  -0.079 -0.0997  0.4804 -0.0537
    8CHTO    C6 3364   6.309   9.361   0.024  0.0664  1.3281  1.0398
    8CHTO   H19 3365   6.302   9.456   0.078  0.8609  1.5277  0.7982
    8CHTO    C8 3366   6.310   9.243   0.139  0.4923 -0.9436  0.5157
    8CHTO   H21 3367   6.324   9.143   0.099 -2.0523 -2.5326  3.4050
    8CHTO    O7 3368   6.191   9.261   0.225  0.4889 -0.2586  0.3049
    8CHTO    H2 3369   6.112   9.259   0.174 -0.6625 -0.5126  2.0731
    8CHTO   C12 3370   6.440   9.265   0.224 -0.6090  0.1680  0.3673
    8CHTO   H25 3371   6.423   9.370   0.255 -0.3775  0.3218 -0.0146
    8CHTO    N3 3372   6.447   9.173   0.345 -0.0960 -0.1629  0.0248
    8CHTO   H12 3373   6.534   9.110   0.339 -0.3431 -0.2802 -2.5623
    8CHTO   H13 3374   6.433   9.222   0.441  1.2733  0.1651  0.0646
    8CHTO   C15 3375   6.566   9.267   0.128  0.5278 -0.3139 -0.4770
    8CHTO   H28 3376   6.586   9.173   0.076 -0.2233 -0.4165 -0.5842
    8CHTO   O10 3377   6.695   9.302   0.201 -0.3186 -0.9645 -0.5387
    8CHTO    H4 3378   6.732   9.225   0.239  1.1094  0.4458  1.0476
    8CHTO    O5 3379   6.551   9.376   0.039 -0.8763 -0.2908 -0.1924
    8CHTO   C10 3380   6.445   9.365  -0.056  0.6339  0.4215  0.3798
    8CHTO   H23 3381   6.460   9.268  -0.103  1.0474  2.3131 -3.6642
    8CHTO   C17 3382   6.454   9.478  -0.168  0.1637 -0.4667 -0.0571
    8CHTO   O12 3383   6.442   9.614  -0.124 -0.6339  0.3388  0.0431
    8CHTO    H6 3384   6.406   9.669  -0.190  0.5318  0.0270 -0.8690
    9CHTO  H203 3385   7.254   4.545   1.203  2.9125 -0.9223 -0.7709
    9CHTO   O82 3386   7.279   4.628   1.166 -0.3202  0.5913  0.1604
    9CHTO  C123 3387   7.410   4.625   1.106  0.0803 -0.5216 -0.1581
    9CHTO  H227 3388   7.408   4.574   1.009  0.2666  2.1924 -1.6285
    9CHTO   O77 3389   7.452   4.766   1.085  0.2978  0.1234 -0.1208
    9CHTO  C118 3390   7.581   4.783   1.021  0.1905  0.5226  0.0556
    9CHTO  H222 3391   7.564   4.722   0.930 -1.8130  1.0556  0.0444
    9CHTO  C125 3392   7.592   4.928   0.975  0.1308  0.3436 -0.3427
    9CHTO   O84 3393   7.493   4.957   0.881  0.1805  0.5494 -0.2949
    9CHTO  H205 3394   7.523   4.916   0.801 -0.7554  0.2855 -0.5202
    9CHTO  C114 3395   7.695   4.731   1.105 -0.1264  0.2117  0.6800
    9CHTO  H218 3396   7.691   4.777   1.204 -2.3191  0.0259  0.7006
    9CHTO  C116 3397   7.666   4.577   1.129  0.1958  0.4213  0.3259
    9CHTO  H220 3398   7.673   4.518   1.035 -2.2306  0.8915 -0.1728
    9CHTO   O79 3399   7.775   4.525   1.208 -0.5558  0.0507 -0.7155
    9CHTO  H201 3400   7.791   4.591   1.272 -1.9965 -0.4335  0.1718
    9CHTO  C120 3401   7.525   4.552   1.191 -0.0931 -0.7495 -0.0439
    9CHTO  H224 3402   7.531   4.595   1.293 -0.0224 -0.4020 -0.1929
    9CHTO   N21 3403   7.492   4.406   1.207  0.1859  0.2106 -0.1354
    9CHTO  H211 3404   7.534   4.347   1.127 -1.0947 -0.4509 -0.3406
    9CHTO  H212 3405   7.525   4.359   1.299  0.7811  0.4371 -0.2319
    9CHTO   O75 3406   7.822   4.762   1.034  0.7631  0.6564 -0.0224
    9CHTO  C112 3407   7.848   4.669   0.880 -0.0529  0.2026  0.4491
    9CHTO  H216 3408   7.753   4.674   0.824  0.1092 -3.0235 -0.2117
    9CHTO   O73 3409   7.891   4.536   0.907 -0.2850 -0.4539 -0.0034
    9CHTO  C113 3410   7.905   4.451   0.793 -0.0392  0.0488  0.3987
    9CHTO  H217 3411   7.820   4.443   0.722  2.8197 -0.7760 -3.1124
    9CHTO  C124 3412   7.922   4.308   0.841  0.2560 -0.0351 -0.3019
    9CHTO   O83 3413   8.051   4.289   0.892 -0.0468  0.0063 -0.0460
    9CHTO  H204 3414   8.101   4.230   0.839 -0.0540  0.4292 -0.5340
    9CHTO  C109 3415   8.019   4.515   0.698 -0.0228 -0.1840 -0.2675
    9CHTO  H213 3416   8.114   4.503   0.751  1.2582 -0.1495 -2.5227
    9CHTO  C110 3417   7.987   4.668   0.670 -0.1595 -0.0553 -0.1592
    9CHTO  H214 3418   7.897   4.668   0.608  0.3130  0.2645 -0.8554
    9CHTO   O78 3419   8.102   4.708   0.600  0.4495 -0.2715  0.5727
    9CHTO  H200 3420   8.130   4.792   0.630  0.5370 -0.6395  1.5406
    9CHTO  C111 3421   7.962   4.749   0.801 -0.0051 -0.1868  0.0900
    9CHTO  H215 3422   8.045   4.739   0.873  0.0226 -0.6551 -0.0073
    9CHTO   N19 3423   7.928   4.891   0.787 -0.7408  0.3179  0.1938
    9CHTO  H207 3424   7.955   4.920   0.686 -0.3786 -0.7592 -0.0219
    9CHTO  H208 3425   7.824   4.903   0.814 -0.7666  1.6800 -0.4945
    9CHTO   O74 3426   8.024   4.449   0.568 -0.0541 -0.5120 -0.1316
    9CHTO  C115 3427   8.169   4.418   0.519  0.4689 -0.3832  0.0448
    9CHTO  H219 3428   8.242   4.479   0.571  1.8294 -0.8071 -1.3099
    9CHTO   O76 3429   8.219   4.258   0.558  0.0970  0.1165 -0.0532
    9CHTO  C122 3430   8.134   4.162   0.490 -0.0047  0.3023 -0.7827
    9CHTO  H226 3431   8.034   4.169   0.532  0.8539 -0.5069  1.4808
    9CHTO  C126 3432   8.188   4.016   0.536  0.1128 -0.7847  0.6768
    9CHTO   O85 3433   8.175   3.997   0.676 -0.6147 -0.3099  0.0611
    9CHTO  H206 3434   8.084   4.010   0.695 -1.1445 -1.5320 -1.5276
    9CHTO  C121 3435   8.146   4.185   0.334 -0.2727 -1.6983  0.0442
    9CHTO  H225 3436   8.251   4.166   0.305  0.1112 -1.6108  1.3509
    9CHTO   O81 3437   8.074   4.096   0.254 -0.3036  0.5370  0.0498
    9CHTO  H202 3438   7.984   4.089   0.280 -0.5328  2.7604 -0.0135
    9CHTO  C119 3439   8.099   4.327   0.293  0.3010  0.2782 -0.1507
    9CHTO  H223 3440   8.105   4.337   0.185  3.1405 -0.5306 -0.0953
    9CHTO  C117 3441   8.177   4.442   0.362  0.2199  0.5618  0.1383
    9CHTO  H221 3442   8.139   4.544   0.362 -1.5029 -0.0725 -1.0273
    9CHTO   N20 3443   8.320   4.453   0.319 -0.0251  0.6538  0.1707
    9CHTO  H209 3444   8.331   4.470   0.213 -0.8888 -0.6611 -0.1308
    9CHTO  H210 3445   8.379   4.368   0.348 -0.2251 -0.2228 -1.9320
    9CHTO   O80 3446   7.940   4.340   0.309  0.3984  0.2675 -0.0815
    9CHTO  C103 3447   7.850   4.420   0.197 -0.9224  0.3399  0.2273
    9CHTO  H190 3448   7.753   4.438   0.244 -0.5825 -0.8555  1.4270
    9CHTO  C101 3449   7.908   4.560   0.148  0.2184  0.6077  0.3297
    9CHTO  H188 3450   8.013   4.550   0.120  0.4689 -1.3795  1.8499
    9CHTO   O68 3451   7.910   4.658   0.275  0.0526 -0.0049  0.6431
    9CHTO  H168 3452   7.826   4.668   0.316  0.1266 -1.1424  1.0955
    9CHTO   C99 3453   7.824   4.615   0.027 -0.2105  0.2023 -0.6752
    9CHTO  H186 3454   7.719   4.634   0.057 -1.1778 -3.0881 -1.7344
    9CHTO   N17 3455   7.864   4.754  -0.012 -0.4750  0.1103 -0.6565
    9CHTO  H174 3456   7.956   4.787   0.034 -0.9660 -1.3288  1.3996
    9CHTO  H175 3457   7.788   4.830  -0.016 -0.3463  0.1903 -2.0331
    9CHTO   C97 3458   7.814   4.505  -0.083  0.4927  0.5220  0.2391
    9CHTO  H184 3459   7.914   4.483  -0.123 -0.8251 -2.6222 -1.4992
    9CHTO   O64 3460   7.750   4.387  -0.026 -0.4236  0.2919  0.4116
    9CHTO  C104 3461   7.829   4.320   0.076 -0.2928  0.3216  0.1358
    9CHTO  H191 3462   7.927   4.294   0.037 -0.2788  0.3063  0.1804
    9CHTO  C108 3463   7.762   4.187   0.121 -0.1951  0.3191  0.1404
    9CHTO   O71 3464   7.622   4.210   0.141  0.2969  0.1442  0.1479
    9CHTO  H171 3465   7.589   4.147   0.202  2.2767 -1.9790 -0.9366
    9CHTO   O62 3466   7.722   4.543  -0.187  0.1291  0.0905 -0.3039
    9CHTO   C91 3467   7.751   4.470  -0.312  0.1345  0.0833 -0.5643
    9CHTO  H178 3468   7.784   4.368  -0.288  0.2810  0.0336 -0.9708
    9CHTO   C92 3469   7.866   4.552  -0.382 -0.3564  0.3532  1.0931
    9CHTO  H179 3470   7.935   4.571  -0.299  0.8467 -0.2880  0.2478
    9CHTO   O66 3471   7.950   4.471  -0.466  0.1530 -0.5971 -0.0466
    9CHTO  H166 3472   7.915   4.450  -0.551  1.5725 -2.3456 -0.2319
    9CHTO   C93 3473   7.806   4.677  -0.454 -0.4155  0.2926  0.0715
    9CHTO  H180 3474   7.845   4.679  -0.557  1.0528  2.2882  0.6219
    9CHTO   N16 3475   7.866   4.793  -0.384 -0.5386 -0.7087 -0.9671
    9CHTO  H172 3476   7.811   4.881  -0.410 -0.6001  0.7019  3.5174
    9CHTO  H173 3477   7.962   4.806  -0.433 -0.3708  0.4713 -0.3380
    9CHTO   C94 3478   7.647   4.682  -0.461 -0.6559 -0.0278 -0.4932
    9CHTO  H181 3479   7.604   4.703  -0.363 -3.4862 -0.8422 -1.5063
    9CHTO   O61 3480   7.604   4.548  -0.505 -0.0766  0.3223 -0.3629
    9CHTO   C95 3481   7.623   4.444  -0.405 -0.1524  0.3802 -0.5819
    9CHTO  H182 3482   7.533   4.440  -0.343  0.9301 -1.1107  0.9609
    9CHTO  C106 3483   7.638   4.305  -0.484  0.1614  0.2573 -0.7490
    9CHTO   O69 3484   7.574   4.198  -0.407 -0.0210  0.0069 -0.1365
    9CHTO  H169 3485   7.589   4.211  -0.316  2.1017 -0.9766 -0.3001
    9CHTO   O63 3486   7.593   4.779  -0.550 -0.2256  0.4621 -0.2404
    9CHTO   C96 3487   7.439   4.825  -0.490  0.6861 -0.7809  0.3083
    9CHTO  H183 3488   7.429   4.782  -0.391  0.0427  1.2267  1.1371
    9CHTO   C98 3489   7.328   4.779  -0.581  0.8975  0.2250  0.5306
    9CHTO  H185 3490   7.349   4.827  -0.678  0.2424  0.9770  0.7566
    9CHTO   O67 3491   7.332   4.632  -0.606 -0.0576  0.2396 -0.3434
    9CHTO  H167 3492   7.415   4.598  -0.635 -0.5412 -1.3429  0.0577
    9CHTO  C102 3493   7.180   4.827  -0.529  0.0496 -0.0734  0.9137
    9CHTO  H189 3494   7.168   4.783  -0.429  1.0941 -2.1670  0.1586
    9CHTO   N18 3495   7.057   4.793  -0.609 -0.1362  0.2492 -0.1353
    9CHTO  H176 3496   7.074   4.708  -0.673  2.4435  1.6165 -1.3807
    9CHTO  H177 3497   6.965   4.794  -0.553 -0.6519 -3.3734 -0.8481
    9CHTO  C105 3498   7.182   4.979  -0.510 -0.5499  0.7730 -0.1852
    9CHTO  H192 3499   7.201   5.029  -0.605 -0.9088  2.1943  0.4808
    9CHTO   O65 3500   7.294   5.013  -0.432  0.0122  0.2416  0.0565
    9CHTO  C100 3501   7.432   4.982  -0.474 -0.4369 -0.5621  0.5597
    9CHTO  H187 3502   7.443   5.035  -0.570  0.1592 -0.2770  0.7857
    9CHTO  C107 3503   7.532   5.042  -0.367  0.2940 -0.4356 -1.0003
    9CHTO   O70 3504   7.530   4.971  -0.244 -0.0296  0.3555  0.3278
    9CHTO  H170 3505   7.510   5.031  -0.174 -1.4879  2.0467 -1.4612
    9CHTO   O57 3506   7.047   5.036  -0.440  0.4156 -0.0541 -0.2310
    9CHTO   C85 3507   6.977   5.149  -0.500  0.8609 -0.0592  1.1098
    9CHTO  H157 3508   6.986   5.124  -0.608 -3.3304  1.8655  0.2068
    9CHTO   C83 3509   7.055   5.285  -0.477  0.3212  0.5685  0.0709
    9CHTO  H155 3510   7.153   5.295  -0.523  0.7771 -0.1983  0.8599
    9CHTO   O56 3511   7.078   5.301  -0.331  0.4738 -0.2212 -0.1571
    9CHTO  H135 3512   7.171   5.305  -0.318  0.5617 -1.8225 -0.2580
    9CHTO   C81 3513   6.963   5.398  -0.530 -0.5901 -0.4651  0.0881
    9CHTO  H153 3514   6.951   5.381  -0.637  2.3695 -2.3621  0.0116
    9CHTO   N14 3515   7.040   5.526  -0.527 -0.4661 -0.1251  0.4519
    9CHTO  H141 3516   7.076   5.568  -0.619  0.2942  1.3571  1.4073
    9CHTO  H142 3517   7.122   5.527  -0.459  0.6260  1.9902 -0.8258
    9CHTO   C79 3518   6.820   5.408  -0.465 -0.2693  0.3827 -0.3436
    9CHTO  H151 3519   6.773   5.500  -0.499 -0.2757  0.9010  1.0187
    9CHTO   O52 3520   6.749   5.281  -0.498  0.0746 -0.0773  0.2618
    9CHTO   C86 3521   6.824   5.159  -0.459 -0.8209 -0.5244 -0.4647
    9CHTO  H158 3522   6.819   5.159  -0.348  1.8469 -0.6503 -0.3315
    9CHTO   C90 3523   6.743   5.027  -0.508  0.0421  0.2367  0.0199
    9CHTO   O60 3524   6.712   5.035  -0.648 -0.2698  0.4336 -0.3074
    9CHTO  H138 3525   6.648   4.968  -0.662  0.9444 -0.6023 -0.9966
    9CHTO   O50 3526   6.806   5.422  -0.318  0.0525 -0.2023 -0.6695
    9CHTO   C73 3527   6.722   5.505  -0.233 -0.4434  0.2225 -0.5083
    9CHTO  H145 3528   6.618   5.496  -0.266  0.1637  0.8477 -2.7039
    9CHTO   C74 3529   6.758   5.657  -0.237  0.0429  0.7368  0.4231
    9CHTO  H146 3530   6.742   5.697  -0.338 -0.9751 -2.0969 -0.5758
    9CHTO   O54 3531   6.652   5.727  -0.166 -0.1681  0.3861  0.2074
    9CHTO  H133 3532   6.609   5.673  -0.103  0.2942 -0.0317  0.1695
    9CHTO   C75 3533   6.906   5.675  -0.184  0.0189 -0.0104  0.7794
    9CHTO  H147 3534   6.977   5.621  -0.249 -0.6104  1.2212 -0.9427
    9CHTO   N13 3535   6.965   5.808  -0.177  0.2374 -0.6536 -0.1314
    9CHTO  H139 3536   6.906   5.879  -0.120 -0.0650  0.6980 -2.0609
    9CHTO  H140 3537   6.955   5.854  -0.274 -1.0848  0.7215  0.6315
    9CHTO   C76 3538   6.922   5.599  -0.044 -0.2333 -0.5354 -0.2721
    9CHTO  H148 3539   6.864   5.653   0.032  0.4420  3.1677 -2.2845
    9CHTO   O49 3540   6.875   5.465  -0.051 -0.8558  0.0522  0.0851
    9CHTO   C77 3541   6.737   5.456  -0.090 -0.0519  0.8103  0.1669
    9CHTO  H149 3542   6.680   5.515  -0.018 -0.3442  0.4290  0.2533
    9CHTO   C88 3543   6.702   5.302  -0.073  0.4749 -0.1710  0.3713
    9CHTO   O58 3544   6.546   5.281  -0.047 -0.1292 -0.4367 -0.1655
    9CHTO  H136 3545   6.493   5.342  -0.095 -0.0733 -1.6196 -1.7526
    9CHTO   O51 3546   7.075   5.571  -0.002  0.3562 -0.6773  0.4185
    9CHTO   C78 3547   7.095   5.503   0.149 -0.7824 -0.9322 -0.0905
    9CHTO  H150 3548   6.996   5.472   0.189  0.2314 -0.7205  2.6334
    9CHTO   C80 3549   7.150   5.613   0.241 -0.5655 -0.1119  0.3248
    9CHTO  H152 3550   7.231   5.663   0.185  0.8219 -0.0791  2.3154
    9CHTO   O55 3551   7.045   5.714   0.257 -0.5989 -0.1705  0.2059
    9CHTO  H134 3552   6.993   5.693   0.332  0.1829  0.3615  0.9008
    9CHTO   C84 3553   7.222   5.560   0.368  0.3227 -0.0293 -0.0224
    9CHTO  H156 3554   7.138   5.531   0.430 -2.0479  2.6135 -1.8929
    9CHTO   N15 3555   7.280   5.670   0.455 -0.0648 -0.1525  0.2002
    9CHTO  H143 3556   7.295   5.757   0.394  0.8481 -0.7018 -0.3895
    9CHTO  H144 3557   7.211   5.695   0.532 -0.6648  0.3440 -0.5031
    9CHTO   C87 3558   7.317   5.443   0.335 -0.0587  0.4520 -0.2420
    9CHTO  H159 3559   7.401   5.466   0.269  1.4734 -1.8116  0.8251
    9CHTO   O53 3560   7.228   5.344   0.274 -0.3606  0.5914 -0.5119
    9CHTO   C82 3561   7.180   5.379   0.139  0.0289 -0.2841 -0.4805
    9CHTO  H154 3562   7.264   5.388   0.070  0.1943 -0.4165 -0.2983
    9CHTO   C89 3563   7.097   5.260   0.085 -0.1351 -0.0736 -0.3405
    9CHTO   O59 3564   6.992   5.215   0.177  0.2197 -0.1024  0.3758
    9CHTO  H137 3565   7.033   5.173   0.250  0.3620 -1.5481 -0.5173
    9CHTO   O45 3566   7.359   5.372   0.473 -0.1202 -0.2814  0.2317
    9CHTO   C67 3567   7.435   5.250   0.473  0.1000  0.0280 -0.2229
    9CHTO  H124 3568   7.413   5.194   0.383  1.4717 -1.2076  0.2032
    9CHTO   C65 3569   7.589   5.285   0.482  0.2079 -0.8806  1.0967
    9CHTO  H122 3570   7.602   5.389   0.511  0.1882  0.3307 -2.9802
    9CHTO   O44 3571   7.644   5.266   0.350 -0.3874  0.5840  0.0541
    9CHTO  H102 3572   7.594   5.324   0.295 -1.5630  0.4519  0.9770
    9CHTO   C63 3573   7.661   5.189   0.585 -0.4943 -0.0913 -0.8668
    9CHTO  H120 3574   7.632   5.217   0.687 -1.9004 -0.6495 -1.1068
    9CHTO   N11 3575   7.809   5.214   0.595  0.2720 -0.5375 -0.6290
    9CHTO  H108 3576   7.858   5.139   0.535  0.3119 -0.3330 -0.8536
    9CHTO  H109 3577   7.829   5.310   0.552  1.8985 -1.1750 -1.3473
    9CHTO   C61 3578   7.612   5.044   0.574  0.3475  0.4811 -0.0811
    9CHTO  H118 3579   7.657   4.993   0.661  1.6761  1.0222 -0.4375
    9CHTO   O40 3580   7.462   5.029   0.587 -0.3912 -0.3254 -0.5274
    9CHTO   C68 3581   7.392   5.163   0.587  0.0431  0.3760  0.2806
    9CHTO  H125 3582   7.394   5.226   0.679 -0.5751  1.9225 -0.7379
    9CHTO   C72 3583   7.245   5.125   0.565  0.0928 -0.7581  0.2712
    9CHTO   O48 3584   7.153   5.228   0.580 -0.0121  0.4029 -0.2286
    9CHTO  H105 3585   7.082   5.189   0.534  1.3555 -1.1140 -1.1106
    9CHTO   O38 3586   7.665   4.982   0.454 -0.0524  0.0670 -0.1160
    9CHTO   C55 3587   7.587   4.871   0.404  0.1259  0.1226  0.5749
    9CHTO  H112 3588   7.479   4.890   0.411 -0.3322 -2.2422  0.5171
    9CHTO   C56 3589   7.628   4.736   0.476 -0.6785  0.3507  0.4255
    9CHTO  H113 3590   7.733   4.716   0.449 -0.5586  0.8412  0.5288
    9CHTO   O42 3591   7.604   4.741   0.616 -0.2604 -0.1525  0.3717
    9CHTO  H100 3592   7.604   4.652   0.646  0.7770  0.6540  2.9319
    9CHTO   C57 3593   7.543   4.621   0.421  0.1728 -0.3564 -0.2080
    9CHTO  H114 3594   7.447   4.632   0.473  0.1000  1.6319 -0.7326
    9CHTO   N10 3595   7.592   4.479   0.455  0.1421  0.3406  0.0420
    9CHTO  H106 3596   7.652   4.445   0.373 -0.6947 -2.2315  0.4461
    9CHTO  H107 3597   7.659   4.486   0.540  0.3624 -0.2071 -0.0882
    9CHTO   C58 3598   7.510   4.631   0.269  0.1835 -1.0893  0.4191
    9CHTO  H115 3599   7.576   4.563   0.210 -0.1817 -0.0750 -1.2068
    9CHTO   O37 3600   7.517   4.760   0.201  0.1974  0.4356 -0.2371
    9CHTO   C59 3601   7.611   4.858   0.250  0.1851  0.7894  0.2941
    9CHTO  H116 3602   7.714   4.826   0.234 -0.2831 -1.6557  1.7759
    9CHTO   C70 3603   7.594   4.991   0.178  0.4707 -0.1042  0.1227
    9CHTO   O46 3604   7.624   4.976   0.040  0.9315 -0.0304 -0.2205
    9CHTO  H103 3605   7.704   5.024   0.025 -0.1335  1.4870 -1.0951
    9CHTO   O39 3606   7.336   4.559   0.239 -0.0055 -0.8214 -0.2932
    9CHTO   C60 3607   7.345   4.420   0.207 -0.2124  0.6537  0.3446
    9CHTO  H117 3608   7.444   4.376   0.218  0.2248  0.8869 -2.3474
    9CHTO   C62 3609   7.254   4.334   0.303 -0.4723  0.1508  0.2295
    9CHTO  H119 3610   7.274   4.367   0.407 -3.6582  1.3447  0.5433
    9CHTO   O43 3611   7.113   4.363   0.284 -0.2318  0.2999  0.2114
    9CHTO  H101 3612   7.104   4.451   0.254  0.4346  0.6633  1.0472
    9CHTO   C66 3613   7.282   4.173   0.275 -0.2835 -0.9577 -0.7583
    9CHTO  H123 3614   7.389   4.154   0.276 -0.0048  0.5262  0.6864
    9CHTO   N12 3615   7.226   4.093   0.389  0.3487  0.5655 -0.2063
    9CHTO  H110 3616   7.162   4.017   0.347  1.3250 -1.6713  2.1948
    9CHTO  H111 3617   7.312   4.046   0.435 -0.1456  1.6930  1.9376
    9CHTO   C69 3618   7.230   4.137   0.134  0.5968  0.2605 -0.6913
    9CHTO  H126 3619   7.121   4.156   0.130  0.4852 -0.6111 -2.5463
    9CHTO   O41 3620   7.305   4.234   0.033  0.6012  0.0765 -0.2684
    9CHTO   C64 3621   7.297   4.395   0.059  0.3047  0.5791 -0.0909
    9CHTO  H121 3622   7.194   4.429   0.034 -0.0701  0.5191  1.3399
    9CHTO   C71 3623   7.397   4.468  -0.031 -0.5186  0.2243 -0.6313
    9CHTO   O47 3624   7.343   4.463  -0.158  0.8146  0.3210 -0.1732
    9CHTO  H104 3625   7.343   4.546  -0.202 -0.9731  0.1264 -0.6127
    9CHTO   O34 3626   7.265   3.975   0.100  0.6707  0.7634 -0.1375
    9CHTO   C49 3627   7.330   3.861  -0.003 -0.3288  1.1042  0.0590
    9CHTO   H91 3628   7.295   3.897  -0.100  2.5678  1.1716 -1.0259
    9CHTO   C47 3629   7.285   3.717   0.036  0.4962  0.1787 -0.1197
    9CHTO   H89 3630   7.318   3.656  -0.050  0.5278  0.0996 -0.0518
    9CHTO   O33 3631   7.144   3.712   0.039 -0.2169 -0.2151 -0.0970
    9CHTO   H70 3632   7.108   3.700  -0.047  1.8774  0.2671 -1.0912
    9CHTO   C45 3633   7.345   3.665   0.172  0.1988  0.8693  1.0587
    9CHTO   H87 3634   7.263   3.676   0.245 -0.9646  0.6654 -0.1854
    9CHTO    N8 3635   7.381   3.520   0.152 -0.2134  0.4546  0.2308
    9CHTO   H75 3636   7.292   3.466   0.125  0.8996 -1.7632  0.8222
    9CHTO   H76 3637   7.418   3.467   0.239  1.3490 -1.7092 -1.6861
    9CHTO   C43 3638   7.468   3.765   0.215  0.8441 -0.8719  0.4480
    9CHTO   H85 3639   7.424   3.855   0.257  3.5000  1.5576 -1.7360
    9CHTO   O29 3640   7.554   3.791   0.099 -0.7123  0.4300  0.0544
    9CHTO   C50 3641   7.487   3.862  -0.006  0.8145  0.6161  0.2137
    9CHTO   H92 3642   7.513   3.968   0.002 -2.6279  1.4869  0.7940
    9CHTO   C54 3643   7.526   3.824  -0.155  0.2481  0.4132  0.0466
    9CHTO   O36 3644   7.666   3.843  -0.188 -0.5316  0.0306  0.1685
    9CHTO   H72 3645   7.726   3.771  -0.182  1.2268  1.3711 -0.7262
    9CHTO   O27 3646   7.553   3.705   0.318 -0.2565  0.0248  0.3742
    9CHTO   C37 3647   7.589   3.760   0.441  0.2730  0.2659 -0.6825
    9CHTO   H79 3648   7.672   3.707   0.489 -1.6033 -1.2452  0.9663
    9CHTO   C38 3649   7.634   3.907   0.433 -0.0524  0.3242 -0.2828
    9CHTO   H80 3650   7.556   3.963   0.380  2.5739  1.8102 -2.7080
    9CHTO   O31 3651   7.756   3.906   0.357  0.7528 -0.3390 -0.4224
    9CHTO   H68 3652   7.760   3.974   0.292  1.3576 -2.5023 -2.6983
    9CHTO   C39 3653   7.660   3.971   0.574  0.8888 -0.5200  0.2220
    9CHTO   H81 3654   7.724   3.908   0.634  0.5106 -0.7799  0.3552
    9CHTO    N7 3655   7.710   4.119   0.559  0.0527  0.1088  0.5024
    9CHTO   H73 3656   7.815   4.123   0.583 -0.0004  0.0527  0.7511
    9CHTO   H74 3657   7.670   4.198   0.621 -0.2825  1.2000 -1.0854
    9CHTO   C40 3658   7.520   3.954   0.650 -0.4069 -0.0175  0.1792
    9CHTO   H82 3659   7.444   4.008   0.594  1.1120  1.8137 -0.1516
    9CHTO   O26 3660   7.489   3.816   0.663  0.6593 -0.4460  0.2676
    9CHTO   C41 3661   7.462   3.746   0.535 -0.3819  0.2255 -0.2263
    9CHTO   H83 3662   7.369   3.793   0.499 -1.1747 -0.9627  0.2197
    9CHTO   C52 3663   7.431   3.593   0.560 -0.5231 -0.7454 -0.3601
    9CHTO   O35 3664   7.297   3.562   0.585  0.9371  0.3859 -0.5388
    9CHTO   H71 3665   7.285   3.479   0.544  0.0299 -0.0782  0.6471
    9CHTO   O28 3666   7.522   4.020   0.780  0.4500  0.1992 -0.0727
    9CHTO   C42 3667   7.400   4.085   0.833 -0.1203  0.2701 -0.7867
    9CHTO   H84 3668   7.412   4.087   0.941 -2.0561  0.3345 -0.5729
    9CHTO   C44 3669   7.266   4.005   0.808 -0.0180 -0.2917 -0.4093
    9CHTO   H86 3670   7.258   3.980   0.702  1.0082 -0.0983 -0.5321
    9CHTO   O32 3671   7.251   3.876   0.873 -0.3923 -0.5441 -0.6122
    9CHTO   H69 3672   7.336   3.848   0.899 -0.2074 -2.1743 -2.8004
    9CHTO   C48 3673   7.136   4.094   0.846  0.1683  0.3245  0.5879
    9CHTO   H90 3674   7.134   4.094   0.955  0.2280 -4.0497  0.6680
    9CHTO    N9 3675   7.002   4.036   0.801  0.0673  0.6404 -1.0828
    9CHTO   H77 3676   6.922   4.107   0.811  0.7588  1.4498 -1.2564
    9CHTO   H78 3677   7.014   4.007   0.697  0.6245 -0.2153 -0.7840
    9CHTO   C51 3678   7.158   4.241   0.787  0.0071 -0.0095  0.4280
    9CHTO   H93 3679   7.163   4.234   0.679  0.2647 -3.2207  0.6180
    9CHTO   O30 3680   7.279   4.289   0.844 -0.4205 -0.0069 -0.1199
    9CHTO   C46 3681   7.393   4.234   0.784 -0.2474 -0.7054  0.1071
    9CHTO   H88 3682   7.383   4.235   0.676  0.0043  0.0542  0.0866
    9CHTO   C53 3683   7.524   4.323   0.831  0.4745  0.2225 -0.1972
    9CHTO   O72 3684   7.541   4.460   0.786 -0.3569  0.0404 -0.2065
    9CHTO  H199 3685   7.466   4.514   0.804 -1.6078 -1.4169 -0.8737
    9CHTO   O22 3686   7.057   4.336   0.823  0.0907 -0.3552  0.1012
    9CHTO   C31 3687   7.034   4.455   0.739 -1.3509 -0.0094 -0.0855
    9CHTO   H59 3688   6.942   4.501   0.782 -1.3583  0.0286 -0.1432
    9CHTO   C29 3689   7.144   4.563   0.765  0.1708 -0.0832 -0.3712
    9CHTO   H57 3690   7.241   4.511   0.755 -0.9065 -2.3300  0.4464
    9CHTO   O21 3691   7.130   4.607   0.901  0.2341 -0.4219 -0.8321
    9CHTO   H37 3692   7.206   4.660   0.918  0.1733 -0.1331 -1.4203
    9CHTO   C27 3693   7.140   4.685   0.664  0.8042  0.7833  1.3447
    9CHTO   H55 3694   7.059   4.752   0.695 -1.2355 -0.6234 -0.8146
    9CHTO    N5 3695   7.269   4.764   0.657 -0.1543 -0.2706  0.1216
    9CHTO   H43 3696   7.335   4.728   0.735 -1.8211  0.2896  1.8403
    9CHTO   H44 3697   7.319   4.756   0.562  0.3916 -1.2124  0.4819
    9CHTO   C25 3698   7.101   4.640   0.518  0.6001  1.0029  0.1912
    9CHTO   H53 3699   7.192   4.586   0.488  0.2335 -0.1877  1.1531
    9CHTO   O17 3700   6.990   4.549   0.516 -0.7153 -0.1711 -0.3624
    9CHTO   C32 3701   7.009   4.428   0.591 -0.6746 -0.1626  0.6765
    9CHTO   H60 3702   7.095   4.377   0.548 -0.9938  0.0725 -0.2763
    9CHTO   C36 3703   6.882   4.339   0.555  0.1590 -0.5606  0.4889
    9CHTO   O25 3704   6.878   4.299   0.411 -0.0805  0.2586 -0.6866
    9CHTO   H40 3705   6.953   4.246   0.394  0.9903  1.0777  1.2899
    9CHTO   O15 3706   7.081   4.775   0.426 -0.2963 -0.1294 -0.0332
    9CHTO   C19 3707   7.058   4.831   0.288  0.0901 -0.5274 -0.5725
    9CHTO   H47 3708   7.014   4.929   0.308  0.1164 -0.4703 -0.7934
    9CHTO   C20 3709   7.181   4.867   0.206 -0.8270  0.3121  0.2394
    9CHTO   H48 3710   7.263   4.799   0.230  1.5211  3.1246  0.3652
    9CHTO   O19 3711   7.228   4.988   0.254  0.8514 -0.3455  0.6040
    9CHTO   H35 3712   7.169   5.060   0.262 -1.1264 -1.8140 -0.3953
    9CHTO   C21 3713   7.154   4.873   0.045 -0.2466  0.5892 -0.7162
    9CHTO   H49 3714   7.120   4.972   0.016  0.7520  0.9779 -0.5775
    9CHTO    N4 3715   7.285   4.862  -0.030  0.6714  0.6480 -0.5038
    9CHTO   H41 3716   7.338   4.771  -0.007  1.6295  1.2098 -0.4719
    9CHTO   H42 3717   7.275   4.863  -0.138 -0.4918 -2.9650 -0.4775
    9CHTO   C22 3718   7.053   4.771   0.004  0.4339  0.1025  0.4782
    9CHTO   H50 3719   7.093   4.670   0.005  0.7318  0.2096 -0.7886
    9CHTO   O14 3720   6.938   4.784   0.079  0.2597 -0.3618 -0.2616
    9CHTO   C23 3721   6.960   4.740   0.214 -0.3349 -0.4635  0.1550
    9CHTO   H51 3722   6.988   4.633   0.212 -4.4765 -1.6479  1.2614
    9CHTO   C34 3723   6.822   4.748   0.284 -1.0806 -0.2447  0.1873
    9CHTO   O23 3724   6.720   4.681   0.216  0.2413 -0.1068  0.0620
    9CHTO   H38 3725   6.641   4.691   0.265  1.5201 -1.5735  2.5161
    9CHTO   O16 3726   7.008   4.788  -0.130 -0.1332 -0.5824 -0.0360
    9CHTO   C24 3727   6.888   4.684  -0.180  0.5848 -0.4011 -0.0615
    9CHTO   H52 3728   6.837   4.644  -0.093  3.0277  1.1224  2.1382
    9CHTO   C26 3729   6.937   4.567  -0.267  0.2058 -0.5477  0.0171
    9CHTO   H54 3730   6.995   4.610  -0.351  1.5993 -1.2343  0.6044
    9CHTO   O20 3731   7.017   4.481  -0.181 -0.3949 -0.9310  0.1162
    9CHTO   H36 3732   7.027   4.391  -0.204 -1.5401 -0.5030 -2.2470
    9CHTO   C30 3733   6.819   4.485  -0.326 -0.1168  0.6744  0.6531
    9CHTO   H58 3734   6.762   4.433  -0.247  2.1484 -1.1102  1.1482
    9CHTO    N6 3735   6.858   4.378  -0.424 -0.1558 -0.5507  0.2559
    9CHTO   H45 3736   6.777   4.357  -0.491  2.4267  0.6687 -3.4162
    9CHTO   H46 3737   6.888   4.286  -0.375 -0.7737 -1.2509 -0.6616
    9CHTO   C33 3738   6.708   4.580  -0.389  0.3224  0.4290  0.5931
    9CHTO   H61 3739   6.746   4.629  -0.480 -0.3768  0.5604  0.3644
    9CHTO   O18 3740   6.675   4.685  -0.292  0.1486  0.0395  0.2289
    9CHTO   C28 3741   6.780   4.767  -0.260 -0.5311  0.2661  0.5483
    9CHTO   H56 3742   6.829   4.807  -0.349 -0.2649  1.3550  1.1843
    9CHTO   C35 3743   6.738   4.881  -0.166 -0.3108 -0.2422  0.5278
    9CHTO   O24 3744   6.643   4.972  -0.217 -0.5307 -0.1405 -0.2136
    9CHTO   H39 3745   6.671   5.022  -0.291 -1.5201  3.2606  1.5917
    9CHTO    O9 3746   6.593   4.508  -0.434 -0.3510  0.2682 -0.0284
    9CHTO   C13 3747   6.472   4.595  -0.501  0.4683  0.2620  0.0084
    9CHTO   H26 3748   6.508   4.649  -0.592  0.2502  1.8856  0.8802
    9CHTO   C11 3749   6.408   4.693  -0.398  0.2665 -0.0631 -0.0881
    9CHTO   H24 3750   6.484   4.772  -0.390 -0.6015  0.8496 -0.7003
    9CHTO    O8 3751   6.395   4.627  -0.271  0.1471 -0.5589  0.8552
    9CHTO    H3 3752   6.470   4.572  -0.262  0.4563  0.1983  3.0209
    9CHTO    C9 3753   6.284   4.750  -0.466 -0.0991  0.3625 -0.5559
    9CHTO   H22 3754   6.311   4.804  -0.558 -0.3785 -0.2139 -0.9801
    9CHTO    N2 3755   6.217   4.849  -0.383 -0.4690 -0.0860  0.1235
    9CHTO   H10 3756   6.271   4.942  -0.402  3.0587 -2.0521  0.0021
    9CHTO   H11 3757   6.202   4.816  -0.282  2.5112 -0.2764  0.5629
    9CHTO    C7 3758   6.180   4.632  -0.497 -0.1800  0.3624 -0.2899
    9CHTO   H20 3759   6.102   4.687  -0.552 -1.6003  0.1908  1.5132
    9CHTO    O4 3760   6.238   4.534  -0.580 -0.2070 -0.1070 -0.0518
    9CHTO   C14 3761   6.369   4.489  -0.553 -0.3283  0.5399  0.6043
    9CHTO   H27 3762   6.411   4.456  -0.650  1.3039  0.3032  1.3678
    9CHTO   C18 3763   6.365   4.360  -0.469  0.1896 -0.5991 -0.2972
    9CHTO   O13 3764   6.315   4.248  -0.535 -0.3202  0.3147 -0.0073
    9CHTO    H7 3765   6.285   4.267  -0.622 -1.6136  0.7145  0.5154
    9CHTO    O2 3766   6.123   4.555  -0.357  0.0372  0.4142 -0.0390
    9CHTO    C1 3767   5.986   4.531  -0.336  0.4399 -0.1179  0.7324
    9CHTO   H14 3768   5.977   4.440  -0.272  0.2279  0.7656  1.9601
    9CHTO    C2 3769   5.899   4.517  -0.465  0.6392  0.1545  0.5583
    9CHTO   H15 3770   5.908   4.616  -0.512  0.4323  0.9855  2.2498
    9CHTO    O6 3771   5.956   4.416  -0.557  0.0661  0.2837 -0.3519
    9CHTO    H1 3772   5.883   4.386  -0.608 -0.2268 -0.5047  0.4944
    9CHTO    C3 3773   5.741   4.497  -0.429 -0.1030  0.4207 -0.1155
    9CHTO   H16 3774   5.741   4.396  -0.386  0.5191 -0.6209 -2.4608
    9CHTO    N1 3775   5.669   4.488  -0.555  0.5735 -0.3108 -0.2061
    9CHTO    H8 3776   5.711   4.541  -0.639  3.1158  1.3014  1.9984
    9CHTO    H9 3777   5.676   4.382  -0.574 -1.4551 -0.4345 -0.3689
    9CHTO    C4 3778   5.687   4.598  -0.323 -0.1214 -0.0389 -0.1004
    9CHTO   H17 3779   5.668   4.692  -0.374  1.1749 -0.0951 -0.6898
    9CHTO    O1 3780   5.785   4.619  -0.212 -0.7161 -0.3294 -0.0576
    9CHTO    C5 3781   5.922   4.645  -0.248 -0.8571  0.3096  0.4097
    9CHTO   H18 3782   5.929   4.736  -0.307  0.3368  0.3496  0.5936
    9CHTO   C16 3783   5.986   4.674  -0.109  0.5802 -0.1023 -0.1961
    9CHTO   O11 3784   5.981   4.570  -0.012  0.0927  0.2120  0.4754
    9CHTO    H5 3785   6.015   4.614   0.063  0.8734  1.0017 -0.3226
    9CHTO    O3 3786   5.565   4.545  -0.260  0.4899 -0.0132 -0.2370
    9CHTO    C6 3787   5.449   4.632  -0.249 -0.0146  0.1772  0.3034
    9CHTO   H19 3788   5.461   4.733  -0.288  1.7871  0.6924  2.1169
    9CHTO    C8 3789   5.331   4.553  -0.329  0.0744 -0.0386  0.9258
    9CHTO   H21 3790   5.341   4.446  -0.313 -3.3951 -0.3866  1.1422
    9CHTO    O7 3791   5.353   4.575  -0.470  0.2201  0.3666  0.1651
    9CHTO    H2 3792   5.334   4.665  -0.491  1.4650 -0.1378 -3.3587
    9CHTO   C12 3793   5.183   4.601  -0.294  0.0984  0.3520  0.7485
    9CHTO   H25 3794   5.165   4.701  -0.339  1.3179  0.2653  0.0514
    9CHTO    N3 3795   5.079   4.512  -0.352 -0.2445 -0.4978  0.0798
    9CHTO   H12 3796   5.109   4.416  -0.312 -2.3520 -1.2739 -0.1292
    9CHTO   H13 3797   4.978   4.525  -0.315 -0.0007 -2.5680  1.5421
    9CHTO   C15 3798   5.163   4.610  -0.137 -0.4859  0.5181  0.6171
    9CHTO   H28 3799   5.171   4.510  -0.095 -0.4838  0.2009 -0.1303
    9CHTO   O10 3800   5.028   4.680  -0.078  0.1613  0.1972  0.6119
    9CHTO    H4 3801   4.957   4.619  -0.084 -0.0126  0.5812 -1.7083
    9CHTO    O5 3802   5.277   4.689  -0.080  0.0578  0.6389  0.2797
    9CHTO   C10 3803   5.408   4.640  -0.101 -0.2613  0.3258  0.1717
    9CHTO   H23 3804   5.411   4.553  -0.035  0.2842  1.4183  1.6040
    9CHTO   C17 3805   5.511   4.720  -0.015  0.6611 -0.0223  0.6177
    9CHTO   O12 3806   5.527   4.694   0.126 -0.7029  0.1602 -0.0442
    9CHTO    H6 3807   5.522   4.603   0.145  0.2225  0.6220  2.5925
   10CHTO  H203 3808   4.683   7.012   2.242  0.8973 -0.6005  0.1887
   10CHTO   O82 3809   4.654   7.040   2.327 -0.7293  0.6682 -0.7396
   10CHTO  C123 3810   4.517   7.074   2.335 -0.2579 -0.6929 -0.1057
   10CHTO  H227 3811   4.466   7.050   2.241  2.6840 -2.8787 -1.2075
   10CHTO   O77 3812   4.457   7.000   2.444 -0.0629  0.4201  0.0296
   10CHTO  C118 3813   4.311   7.010   2.458 -0.3218 -0.1699 -0.9285
   10CHTO  H222 3814   4.263   6.988   2.361 -0.6711 -1.2409 -0.5260
   10CHTO  C125 3815   4.257   6.905   2.565  0.2148 -0.0250  0.1352
   10CHTO   O84 3816   4.299   6.935   2.700  0.3252 -0.1065  0.3616
   10CHTO  H205 3817   4.233   6.901   2.757 -1.8880  0.3360 -1.8446
   10CHTO  C114 3818   4.282   7.159   2.491 -0.9800 -0.4313  0.0816
   10CHTO  H218 3819   4.323   7.181   2.590 -2.1997 -1.6554  0.8800
   10CHTO  C116 3820   4.349   7.268   2.393 -0.8611 -0.6410 -0.2799
   10CHTO  H220 3821   4.290   7.271   2.299  0.2148 -1.3879 -0.9886
   10CHTO   O79 3822   4.338   7.393   2.456  0.5677  0.4655  0.2770
   10CHTO  H201 3823   4.248   7.419   2.460 -0.7038 -3.7164  0.8107
   10CHTO  C120 3824   4.503   7.232   2.353  0.3876 -0.0814 -0.7587
   10CHTO  H224 3825   4.569   7.263   2.437 -1.2459 -2.1141  1.3623
   10CHTO   N21 3826   4.537   7.316   2.236 -0.0829  0.4625 -0.2927
   10CHTO  H211 3827   4.596   7.404   2.256 -1.2250  0.4239  3.4964
   10CHTO  H212 3828   4.596   7.254   2.170  0.3663  1.5623 -0.9403
   10CHTO   O75 3829   4.139   7.151   2.497  0.4283  0.4730  0.5619
   10CHTO  C112 3830   4.084   7.238   2.610  0.0493 -0.0251  0.7912
   10CHTO  H216 3831   4.157   7.318   2.631 -1.0426  1.4453 -0.9201
   10CHTO   O73 3832   4.066   7.154   2.727  0.5229 -0.1111  0.1515
   10CHTO  C113 3833   4.018   7.229   2.839 -0.3202  0.3533 -0.7175
   10CHTO  H217 3834   4.097   7.302   2.867 -1.9991  1.5799  0.9373
   10CHTO  C124 3835   4.007   7.136   2.964  0.1866 -0.7093 -0.0489
   10CHTO   O83 3836   3.911   7.034   2.959 -0.4847 -0.0279  0.1501
   10CHTO  H204 3837   3.925   6.980   3.035  1.2381  2.2201  1.4800
   10CHTO  C109 3838   3.886   7.307   2.806 -0.7005  0.1164  0.0645
   10CHTO  H213 3839   3.804   7.234   2.800  0.5541 -1.2093 -1.5431
   10CHTO  C110 3840   3.901   7.395   2.672  0.0211  0.5268 -0.1915
   10CHTO  H214 3841   3.961   7.483   2.695  1.7010 -0.6872  0.1472
   10CHTO   O78 3842   3.769   7.450   2.642  0.6454 -0.0841  0.1599
   10CHTO  H200 3843   3.730   7.508   2.704  0.4040 -1.2745  1.1419
   10CHTO  C111 3844   3.958   7.315   2.551 -0.2091 -0.1684 -0.4615
   10CHTO  H215 3845   3.882   7.241   2.521 -1.3432  1.5238 -1.8958
   10CHTO   N19 3846   3.988   7.399   2.430  0.2153 -0.5298  0.5253
   10CHTO  H207 3847   4.083   7.385   2.380  0.5480  2.7892  0.1082
   10CHTO  H208 3848   3.905   7.419   2.364 -0.6500 -0.8509  1.4991
   10CHTO   O74 3849   3.859   7.388   2.925  0.3074  0.1278  0.0576
   10CHTO  C115 3850   3.695   7.447   2.940  0.1140  0.4186  0.5879
   10CHTO  H219 3851   3.676   7.523   2.865  1.5783 -1.4403 -1.7514
   10CHTO   O76 3852   3.585   7.333   2.906  0.7830  0.1058 -0.6686
   10CHTO  C122 3853   3.571   7.230   2.993  0.4467 -0.1843  0.0515
   10CHTO  H226 3854   3.636   7.150   2.955  0.8367  0.6124 -0.9762
   10CHTO  C126 3855   3.425   7.180   2.980  0.8092  0.1521  0.3234
   10CHTO   O85 3856   3.388   7.138   2.848  0.1494 -0.1276  0.4240
   10CHTO  H206 3857   3.371   7.213   2.795 -0.8865  0.5585  1.6991
   10CHTO  C121 3858   3.608   7.264   3.147 -0.2534  0.3514  0.3782
   10CHTO  H225 3859   3.526   7.212   3.200  0.7863  0.2789  1.9697
   10CHTO   O81 3860   3.733   7.203   3.180 -0.1895 -1.0227  0.6377
   10CHTO  H202 3861   3.749   7.206   3.273  0.3950  2.2773  0.4961
   10CHTO  C119 3862   3.593   7.410   3.185 -0.4050  0.4177 -0.3393
   10CHTO  H223 3863   3.490   7.429   3.154 -0.3215  1.7753  0.1790
   10CHTO  C117 3864   3.679   7.507   3.088 -0.5478  0.9151  0.1413
   10CHTO  H221 3865   3.784   7.526   3.105 -0.2960  0.4100 -0.7980
   10CHTO   N20 3866   3.624   7.647   3.088 -0.3768  0.6882 -0.7850
   10CHTO  H209 3867   3.636   7.690   3.186  1.1801  0.4633 -0.8650
   10CHTO  H210 3868   3.670   7.712   3.015 -0.3966  0.2001 -1.2411
   10CHTO   O80 3869   3.589   7.435   3.327  0.7926 -0.3881 -0.3137
   10CHTO  C103 3870   3.470   7.367   3.414 -0.2801  0.3068 -0.0127
   10CHTO  H190 3871   3.386   7.345   3.348  1.4740  0.0249 -2.2207
   10CHTO  C101 3872   3.510   7.247   3.514 -0.9937 -0.0864 -1.1365
   10CHTO  H188 3873   3.604   7.276   3.562 -0.4460 -1.8276 -1.1015
   10CHTO   O68 3874   3.539   7.122   3.417  0.3414  0.2929 -0.3424
   10CHTO  H168 3875   3.614   7.138   3.363  0.8509 -0.7041  0.0432
   10CHTO   C99 3876   3.398   7.215   3.622  0.0769 -0.0856 -0.2034
   10CHTO  H186 3877   3.315   7.168   3.565 -1.0109  0.9689  0.5006
   10CHTO   N17 3878   3.441   7.103   3.727 -0.2592 -0.2529 -0.3994
   10CHTO  H174 3879   3.382   7.109   3.817  0.6385  0.3788  0.1516
   10CHTO  H175 3880   3.547   7.098   3.749  0.2628  3.6698 -1.7842
   10CHTO   C97 3881   3.338   7.337   3.690  0.4874 -0.1898 -0.4915
   10CHTO  H184 3882   3.409   7.366   3.769 -0.3252 -2.3869  1.1021
   10CHTO   O64 3883   3.311   7.443   3.596 -0.3915 -0.2849  0.1577
   10CHTO  C104 3884   3.423   7.487   3.513 -0.1174  0.7524  0.0880
   10CHTO  H191 3885   3.507   7.521   3.574  0.7423  1.2761 -1.3520
   10CHTO  C108 3886   3.371   7.608   3.432  0.2008 -0.4941 -0.6000
   10CHTO   O71 3887   3.399   7.730   3.505 -0.1804 -0.1883 -0.0981
   10CHTO  H171 3888   3.318   7.774   3.524 -0.0258 -0.2425  0.7151
   10CHTO   O62 3889   3.208   7.306   3.746  0.2155 -0.1971  0.1529
   10CHTO   C91 3890   3.188   7.339   3.888 -0.1062  0.1079 -0.2567
   10CHTO  H178 3891   3.287   7.362   3.927 -0.5844  1.3208  0.2799
   10CHTO   C92 3892   3.118   7.218   3.956  0.3347  0.1876 -0.7309
   10CHTO  H179 3893   3.033   7.191   3.891 -0.5774 -1.6178  1.1429
   10CHTO   O66 3894   3.205   7.102   3.962 -0.3151 -0.4124  0.2728
   10CHTO  H166 3895   3.149   7.027   3.968 -1.3362  0.4220  1.4560
   10CHTO   C93 3896   3.062   7.244   4.103  0.0997 -0.0686  0.0962
   10CHTO  H180 3897   3.149   7.250   4.170  0.1691 -1.7629  0.1816
   10CHTO   N16 3898   2.980   7.128   4.156  0.1507 -0.0534  0.0170
   10CHTO  H172 3899   2.891   7.102   4.101  0.5589 -1.1890 -0.1083
   10CHTO  H173 3900   2.950   7.153   4.257 -3.3755 -0.6281 -0.8168
   10CHTO   C94 3901   2.992   7.384   4.109  0.4024  0.3974  0.2347
   10CHTO  H181 3902   2.911   7.393   4.036  1.9272  1.8486 -1.3415
   10CHTO   O61 3903   3.088   7.481   4.056 -0.1654  0.0745 -0.8903
   10CHTO   C95 3904   3.120   7.477   3.915  0.4312 -0.2060  0.2606
   10CHTO  H182 3905   3.028   7.484   3.857 -0.0370 -1.7357  0.7996
   10CHTO  C106 3906   3.221   7.593   3.886  0.3822  0.0270 -0.2841
   10CHTO   O69 3907   3.160   7.725   3.911  0.3232  0.0885  0.6380
   10CHTO  H169 3908   3.110   7.720   3.990  0.5933  0.3136  0.8267
   10CHTO   O63 3909   2.963   7.428   4.263 -0.0581 -0.5405  0.5778
   10CHTO   C96 3910   3.074   7.508   4.344 -0.2311 -0.1698  0.6584
   10CHTO  H183 3911   3.123   7.580   4.279 -2.2905  1.2117  0.5911
   10CHTO   C98 3912   3.180   7.417   4.411 -0.7720  0.3853 -0.0531
   10CHTO  H185 3913   3.225   7.341   4.345 -1.7112 -0.8327  0.6841
   10CHTO   O67 3914   3.291   7.505   4.440  0.6011 -0.1440 -0.6136
   10CHTO  H167 3915   3.356   7.444   4.468 -1.3944 -2.0020  0.1440
   10CHTO  C102 3916   3.138   7.348   4.549 -0.1448  0.4313 -0.5983
   10CHTO  H189 3917   3.232   7.314   4.595 -0.1207  3.6823  1.8767
   10CHTO   N18 3918   3.056   7.221   4.539 -0.1779  0.1341 -0.0278
   10CHTO  H176 3919   3.109   7.134   4.503  1.1888  0.2861  1.5337
   10CHTO  H177 3920   2.989   7.202   4.622  1.0505 -2.6546  0.3963
   10CHTO  C105 3921   3.051   7.443   4.640  0.2854  0.8017 -0.4696
   10CHTO  H192 3922   2.951   7.403   4.654  0.6575 -0.4067 -1.2080
   10CHTO   O65 3923   3.048   7.580   4.588 -0.0303  0.3368  0.0872
   10CHTO  C100 3924   2.996   7.593   4.455  0.8897 -0.8098 -0.0559
   10CHTO  H187 3925   2.895   7.551   4.464  0.6841 -0.2370  0.3153
   10CHTO  C107 3926   2.987   7.745   4.414 -0.9953 -0.1862 -1.4263
   10CHTO   O70 3927   2.869   7.810   4.465 -0.4449  0.2640  0.0120
   10CHTO  H170 3928   2.844   7.875   4.402 -0.3481  0.8124  0.5356
   10CHTO   O57 3929   3.129   7.442   4.782  0.4669 -0.6821 -0.0712
   10CHTO   C85 3930   3.050   7.465   4.904  0.3594  0.1094 -0.7384
   10CHTO  H157 3931   2.945   7.459   4.868  0.1638  1.1560 -0.3551
   10CHTO   C83 3932   3.081   7.612   4.954  0.0961  0.5297  0.3907
   10CHTO  H155 3933   3.040   7.691   4.891 -0.4863  0.1293  0.2666
   10CHTO   O56 3934   3.224   7.627   4.971  0.1046  0.4887  0.3310
   10CHTO  H135 3935   3.264   7.570   5.033  0.7388 -1.2962 -1.6660
   10CHTO   C81 3936   3.004   7.625   5.090 -0.4669 -0.1092  0.0249
   10CHTO  H153 3937   2.899   7.599   5.075 -0.6636 -0.4422  1.7958
   10CHTO   N14 3938   3.007   7.763   5.144  0.3336 -1.1020  0.3790
   10CHTO  H141 3939   3.061   7.830   5.080 -2.0633  0.9339  0.4206
   10CHTO  H142 3940   2.915   7.807   5.178 -0.8649 -3.3082  0.0353
   10CHTO   C79 3941   3.054   7.517   5.191 -0.2197  0.0027 -0.2873
   10CHTO  H151 3942   2.981   7.516   5.272 -0.4465  2.1916 -0.4295
   10CHTO   O52 3943   3.038   7.377   5.146  0.1951  0.0613  0.3782
   10CHTO   C86 3944   3.080   7.351   5.008 -0.1045 -0.3803  0.2598
   10CHTO  H158 3945   3.191   7.341   5.014 -0.0775 -1.5917 -1.6755
   10CHTO   C90 3946   3.036   7.208   4.957  0.4535  0.2431  0.0888
   10CHTO   O60 3947   2.906   7.170   4.998 -0.6104  0.3104 -0.5669
   10CHTO  H138 3948   2.906   7.110   5.070  1.3323  3.9147  2.6082
   10CHTO   O50 3949   3.192   7.529   5.224  0.4251  0.0653  0.2305
   10CHTO   C73 3950   3.247   7.489   5.349  0.0230  0.2277  0.1308
   10CHTO  H145 3951   3.210   7.393   5.388 -1.7345  0.3378 -1.2232
   10CHTO   C74 3952   3.237   7.601   5.460  0.2330  1.1036  0.2389
   10CHTO  H146 3953   3.130   7.605   5.487 -0.4389 -0.2262 -2.0713
   10CHTO   O54 3954   3.301   7.540   5.575 -0.4011  0.0441 -0.3804
   10CHTO  H133 3955   3.300   7.608   5.640  0.0759  0.6673 -1.0120
   10CHTO   C75 3956   3.292   7.732   5.396  0.1903  0.1063 -0.3086
   10CHTO  H147 3957   3.223   7.759   5.316  2.2113  1.0822 -1.7678
   10CHTO   N13 3958   3.290   7.840   5.498  0.2460  0.1533  0.2857
   10CHTO  H139 3959   3.317   7.805   5.597  1.3550  0.0819 -0.0273
   10CHTO  H140 3960   3.192   7.885   5.495  0.0836 -0.2358 -0.2783
   10CHTO   C76 3961   3.436   7.714   5.341 -0.0734 -0.2606  0.4349
   10CHTO  H148 3962   3.506   7.706   5.424  1.2512  0.1620 -0.6294
   10CHTO   O49 3963   3.446   7.593   5.249  0.5527 -0.1423  0.6505
   10CHTO   C77 3964   3.403   7.475   5.313  0.5555  0.1583  0.1561
   10CHTO  H149 3965   3.458   7.462   5.407  1.1107  1.5398  0.0318
   10CHTO   C88 3966   3.428   7.353   5.222 -0.2188 -0.1904  0.2378
   10CHTO   O58 3967   3.386   7.229   5.276 -0.0613  0.1547 -0.8392
   10CHTO  H136 3968   3.312   7.239   5.333 -0.4234  0.7618 -1.4124
   10CHTO   O51 3969   3.472   7.819   5.256  0.0956  0.2988  0.3431
   10CHTO   C78 3970   3.636   7.836   5.252 -0.9151  0.1280  0.1019
   10CHTO  H150 3971   3.691   7.745   5.282  0.7502  1.4718  1.2362
   10CHTO   C80 3972   3.672   7.941   5.361  0.4099 -0.1859  0.5019
   10CHTO  H152 3973   3.608   8.030   5.345  4.0680  2.4603  0.0336
   10CHTO   O55 3974   3.654   7.887   5.494 -0.3807  0.3255 -0.3530
   10CHTO  H134 3975   3.691   7.801   5.488  2.1659  1.4567 -1.4276
   10CHTO   C84 3976   3.825   7.984   5.341 -0.2963  0.0136  0.0358
   10CHTO  H156 3977   3.875   7.896   5.382 -0.1728 -0.1264 -0.4100
   10CHTO   N15 3978   3.871   8.085   5.437 -0.3755 -0.7393 -0.3573
   10CHTO  H143 3979   3.977   8.070   5.443 -0.3240  0.3022  1.6856
   10CHTO  H144 3980   3.851   8.183   5.401 -1.8551 -0.6500  0.6454
   10CHTO   C87 3981   3.866   8.014   5.196  0.4998 -0.0970  0.0249
   10CHTO  H159 3982   3.834   8.112   5.164  2.1976  1.2925  2.4069
   10CHTO   O53 3983   3.818   7.905   5.097  0.3550 -0.9135 -0.4361
   10CHTO   C82 3984   3.675   7.875   5.102  0.1561 -0.0400 -0.9917
   10CHTO  H154 3985   3.622   7.961   5.061 -0.5846 -0.7880 -1.6222
   10CHTO   C89 3986   3.657   7.759   5.001 -0.2487 -0.0347  0.4209
   10CHTO   O59 3987   3.520   7.751   4.965 -0.0644  0.2015  0.1634
   10CHTO  H137 3988   3.504   7.691   4.895  3.8946 -0.1678 -0.5355
   10CHTO   O45 3989   4.026   8.018   5.179  0.1252  0.4039  0.3216
   10CHTO   C67 3990   4.076   8.073   5.057  0.0665 -0.2467  0.6099
   10CHTO  H124 3991   4.021   8.032   4.973 -0.2841  3.2009 -0.9464
   10CHTO   C65 3992   4.062   8.225   5.055 -0.1809  0.1126 -0.5876
   10CHTO  H122 3993   3.962   8.248   5.092  0.1645 -0.7791  0.9717
   10CHTO   O44 3994   4.084   8.262   4.913 -0.0970 -0.1370  0.3737
   10CHTO  H102 3995   4.060   8.350   4.892  1.9377  0.2831 -0.3349
   10CHTO   C63 3996   4.159   8.288   5.155  0.2829  0.2319 -0.1653
   10CHTO  H120 3997   4.142   8.254   5.257  0.9360  2.1694  0.6154
   10CHTO   N11 3998   4.128   8.430   5.164 -0.0239  0.1244  0.1396
   10CHTO  H108 3999   4.123   8.470   5.065 -1.4052 -0.9062 -0.2095
   10CHTO  H109 4000   4.215   8.480   5.202  1.0951 -0.4787 -1.5858
   10CHTO   C61 4001   4.314   8.244   5.122  0.3918  0.5991  0.0404
   10CHTO  H118 4002   4.370   8.276   5.212 -0.6465  1.0932  0.5231
   10CHTO   O40 4003   4.326   8.097   5.117 -0.1183 -0.4445 -0.4859
   10CHTO   C68 4004   4.229   8.023   5.036  1.1120  0.0158 -0.2652
   10CHTO  H125 4005   4.233   7.924   5.085  0.9667 -0.0666 -0.4205
   10CHTO   C72 4006   4.283   8.018   4.894 -0.1420  0.2837 -0.5204
   10CHTO   O48 4007   4.212   7.928   4.807  0.4644 -0.3747  0.0902
   10CHTO  H105 4008   4.249   7.843   4.820  3.6034  1.0991  1.1154
   10CHTO   O38 4009   4.363   8.313   5.005  0.2485  0.0062  0.8188
   10CHTO   C55 4010   4.477   8.405   5.005 -0.5223 -0.0741  0.4712
   10CHTO  H112 4011   4.559   8.335   4.983 -0.5076  0.4979 -1.3182
   10CHTO   C56 4012   4.505   8.481   5.146  0.6469 -0.2856 -0.1938
   10CHTO  H113 4013   4.407   8.486   5.195 -0.7204  0.1003 -2.8613
   10CHTO   O42 4014   4.599   8.395   5.218  0.8492 -0.0367  0.2741
   10CHTO  H100 4015   4.547   8.320   5.238 -0.2252  0.8813  1.0130
   10CHTO   C57 4016   4.575   8.631   5.136  0.1434 -0.8805  0.3073
   10CHTO  H114 4017   4.684   8.621   5.130  0.3001  0.1833  1.1963
   10CHTO   N10 4018   4.562   8.707   5.264  0.7483  0.3255 -0.1594
   10CHTO  H106 4019   4.643   8.775   5.286 -0.2282  0.6249  2.7195
   10CHTO  H107 4020   4.468   8.760   5.272  0.1717 -0.9287  1.8644
   10CHTO   C58 4021   4.514   8.711   5.014 -0.4942 -0.1306  0.4260
   10CHTO  H115 4022   4.405   8.729   5.023  0.0679  2.8222  1.8387
   10CHTO   O37 4023   4.539   8.628   4.897 -0.1983  0.1157  0.3856
   10CHTO   C59 4024   4.455   8.510   4.884  0.4664  0.1196 -0.0702
   10CHTO  H116 4025   4.351   8.542   4.883  0.2306 -0.6191  0.4891
   10CHTO   C70 4026   4.478   8.434   4.756 -0.0169 -0.2444  0.3964
   10CHTO   O46 4027   4.608   8.384   4.748 -0.1051 -0.5739  0.1634
   10CHTO  H103 4028   4.627   8.321   4.816 -0.6703  0.4093  1.2415
   10CHTO   O39 4029   4.586   8.858   5.005 -0.0525 -0.3124 -0.2642
   10CHTO   C60 4030   4.492   8.961   4.971  0.1442 -0.3635 -0.1994
   10CHTO  H117 4031   4.394   8.915   4.978  0.7618 -1.5959  0.5823
   10CHTO   C62 4032   4.512   9.086   5.063  0.0261 -0.1841  0.1071
   10CHTO  H119 4033   4.509   9.043   5.165  1.8338  1.0613  0.7232
   10CHTO   O43 4034   4.644   9.136   5.047 -0.0375  0.4025  0.5069
   10CHTO  H101 4035   4.694   9.063   5.016  0.0717  0.5887  0.2493
   10CHTO   C66 4036   4.397   9.194   5.040  0.3484 -0.0194 -0.1987
   10CHTO  H123 4037   4.300   9.149   5.060 -0.5279  1.7933 -0.2499
   10CHTO   N12 4038   4.406   9.295   5.150  0.1559  0.3636  0.9878
   10CHTO  H110 4039   4.314   9.351   5.137 -0.8163 -1.6133 -1.0725
   10CHTO  H111 4040   4.501   9.346   5.139  0.2402 -0.2770 -1.6874
   10CHTO   C69 4041   4.401   9.247   4.897  0.6309 -0.1600 -0.2402
   10CHTO  H126 4042   4.491   9.306   4.870  0.4552  0.2631  0.0960
   10CHTO   O41 4043   4.374   9.120   4.803 -0.1932  0.2159  0.7110
   10CHTO   C64 4044   4.502   9.006   4.829 -0.6922 -0.2910 -0.2354
   10CHTO  H121 4045   4.603   9.049   4.812  0.0336 -1.3033  1.3577
   10CHTO   C71 4046   4.485   8.890   4.729  0.0881  0.6515  0.2595
   10CHTO   O47 4047   4.479   8.928   4.593 -0.0962 -0.1894  0.0715
   10CHTO  H104 4048   4.565   8.942   4.558  0.5684 -0.2379  1.6603
   10CHTO   O34 4049   4.281   9.353   4.872  0.0734  0.0159 -0.2003
   10CHTO   C49 4050   4.201   9.448   4.745 -0.0161 -0.5075  0.6330
   10CHTO   H91 4051   4.187   9.549   4.784  0.4693  0.0316 -0.5604
   10CHTO   C47 4052   4.062   9.377   4.722 -0.2146  0.1806  0.1751
   10CHTO   H89 4053   4.006   9.436   4.798  1.2863 -0.3385  1.7144
   10CHTO   O33 4054   4.063   9.239   4.752  0.3135 -0.7062 -0.0695
   10CHTO   H70 4055   4.092   9.189   4.677  3.1004 -0.3515  0.7526
   10CHTO   C45 4056   4.010   9.405   4.570 -0.2305  0.1594  0.1381
   10CHTO   H87 4057   4.048   9.319   4.514 -1.7770  0.1425 -0.8918
   10CHTO    N8 4058   3.863   9.404   4.570  0.5290 -0.3910 -0.5968
   10CHTO   H75 4059   3.832   9.311   4.615  1.3669 -0.7051 -0.6540
   10CHTO   H76 4060   3.826   9.427   4.471  1.0700 -0.1051 -0.7311
   10CHTO   C43 4061   4.083   9.530   4.494 -0.2270  0.2274 -0.1654
   10CHTO   H85 4062   4.058   9.528   4.387 -0.5043  0.0221 -0.0983
   10CHTO   O29 4063   4.225   9.516   4.514  0.0146 -0.2886 -0.0436
   10CHTO   C50 4064   4.291   9.455   4.627 -0.6145  0.5976 -0.2059
   10CHTO   H92 4065   4.333   9.358   4.596  1.2712  1.3571 -0.1086
   10CHTO   C54 4066   4.427   9.529   4.661 -0.2567 -0.0458  0.0680
   10CHTO   O36 4067   4.530   9.508   4.569 -0.1251  0.8304 -0.2162
   10CHTO   H72 4068   4.597   9.571   4.587 -0.8391  0.9098  2.3484
   10CHTO   O27 4069   4.038   9.660   4.539 -0.2340  0.0586  0.5176
   10CHTO   C37 4070   4.089   9.788   4.503 -0.2393  0.1545 -0.3032
   10CHTO   H79 4071   4.198   9.781   4.487 -0.4355  0.8497 -2.1852
   10CHTO   C38 4072   4.028   9.842   4.368  0.2092  0.2777 -0.2396
   10CHTO   H80 4073   3.921   9.819   4.364  0.9864 -3.9225  0.6718
   10CHTO   O31 4074   4.088   9.774   4.258 -0.4797 -0.7701  0.3884
   10CHTO   H68 4075   4.051   9.801   4.177 -1.9281 -2.1950  0.5476
   10CHTO   C39 4076   4.045   9.997   4.347  0.9506 -0.0364 -0.4863
   10CHTO   H81 4077   4.150  10.005   4.318  1.6396  4.4685  2.7718
   10CHTO    N7 4078   3.961  10.058   4.240  0.3866  0.0251  0.6383
   10CHTO   H73 4079   3.860  10.021   4.245  0.3207 -0.5141 -3.6209
   10CHTO   H74 4080   3.964  10.166   4.243  1.6153 -0.0125  1.1918
   10CHTO   C40 4081   4.036  10.077   4.486 -0.5015  0.4053  0.0180
   10CHTO   H82 4082   3.934  10.102   4.517 -0.8409 -2.1681  1.0905
   10CHTO   O26 4083   4.109  10.022   4.593  0.3890  0.2116 -0.1080
   10CHTO   C41 4084   4.060   9.887   4.621  0.0542 -0.3342 -0.4626
   10CHTO   H83 4085   3.953   9.893   4.648 -0.3338 -1.1348 -1.7670
   10CHTO   C52 4086   4.118   9.826   4.749  0.1155 -0.2615 -0.1990
   10CHTO   O35 4087   4.122   9.895   4.888 -0.4657 -1.0956 -0.0387
   10CHTO   H71 4088   4.204   9.869   4.925  1.4921  1.4919 -2.3416
   10CHTO   O28 4089   4.125  10.193   4.483 -0.0736  0.0931  0.0370
   10CHTO   C42 4090   4.094  10.330   4.532 -0.3142  0.0568 -0.1724
   10CHTO   H84 4091   4.013  10.309   4.602 -0.0962 -1.1946 -0.2806
   10CHTO   C44 4092   4.035  10.433   4.424 -0.1637  0.4333 -0.1478
   10CHTO   H86 4093   4.099  10.423   4.337  2.4743 -0.9463  1.8848
   10CHTO   O32 4094   3.901  10.381   4.400  0.6851 -0.5380  0.5632
   10CHTO   H69 4095   3.859  10.404   4.319  0.1420 -1.4722  0.5750
   10CHTO   C48 4096   4.029  10.576   4.470  0.4786 -0.2255  0.3410
   10CHTO   H90 4097   3.960  10.574   4.555  0.5140 -0.3247  0.3679
   10CHTO    N9 4098   3.975  10.669   4.366 -0.2993 -0.4845  0.3996
   10CHTO   H77 4099   3.880  10.637   4.326 -0.8563 -0.2223  1.4997
   10CHTO   H78 4100   4.047  10.667   4.285 -0.9020 -0.6165 -0.1378
   10CHTO   C51 4101   4.170  10.620   4.527  0.2351  0.2090  0.3296
   10CHTO   H93 4102   4.246  10.610   4.449  0.0152  0.9589  0.0076
   10CHTO   O30 4103   4.204  10.537   4.641  0.4202 -0.3300 -0.4161
   10CHTO   C46 4104   4.214  10.385   4.622  0.3021  0.0703  0.1647
   10CHTO   H88 4105   4.304  10.374   4.561  0.7333 -0.1025  0.8282
   10CHTO   C53 4106   4.216  10.310   4.767 -0.7396  1.2998 -0.1258
   10CHTO   O72 4107   4.273  10.184   4.767 -0.3987 -0.0024  0.7554
   10CHTO  H199 4108   4.318  10.172   4.849  1.9074 -3.1028 -0.8443
   10CHTO   O22 4109   4.176  10.752   4.566 -0.7754  1.1336 -0.0034
   10CHTO   C31 4110   4.289  10.841   4.549  0.5111  0.3364 -0.5958
   10CHTO   H59 4111   4.273  10.928   4.617  0.4734  0.8664 -1.2692
   10CHTO   C29 4112   4.426  10.773   4.592 -0.6445 -0.7240 -0.5221
   10CHTO   H57 4113   4.434  10.680   4.533 -1.8071 -0.7895 -0.5837
   10CHTO   O21 4114   4.406  10.734   4.725  0.0998  0.2165 -0.0233
   10CHTO   H37 4115   4.454  10.657   4.750  3.2424  2.3407  0.7747
   10CHTO   C27 4116   4.556  10.866   4.571  0.3598 -0.1661 -0.2104
   10CHTO   H55 4117   4.548  10.953   4.638 -1.0440  1.0164 -1.8364
   10CHTO    N5 4118   4.679  10.797   4.597  0.3715  0.3717  0.4699
   10CHTO   H43 4119   4.668  10.749   4.693  0.6209  1.0675  0.8465
   10CHTO   H44 4120   4.698  10.718   4.525  0.2571  0.0806  0.7577
   10CHTO   C25 4121   4.550  10.938   4.428 -0.3873  0.7982 -0.3380
   10CHTO   H53 4122   4.569  10.868   4.346  1.4337 -0.4793  1.1276
   10CHTO   O17 4123   4.420  10.991   4.401  0.2918  0.1567 -0.2955
   10CHTO   C32 4124   4.312  10.895   4.405  0.2213  0.1854 -0.1849
   10CHTO   H60 4125   4.329  10.812   4.336  2.1078 -0.0724  0.5504
   10CHTO   C36 4126   4.181  10.960   4.356 -0.0186  0.1293 -0.1052
   10CHTO   O25 4127   4.193  11.004   4.219 -0.1749 -0.0733  0.6372
   10CHTO   H40 4128   4.136  11.073   4.193 -3.1998 -2.2830  1.2196
   10CHTO   O15 4129   4.660  11.058   4.392  0.2950 -0.8753  0.8155
   10CHTO   C19 4130   4.706  11.112   4.263 -0.0249 -0.2287  0.4926
   10CHTO   H47 4131   4.673  11.038   4.188  2.9693 -0.2394 -0.8780
   10CHTO   C20 4132   4.651  11.255   4.229  0.0039  0.4838 -0.4944
   10CHTO   H48 4133   4.669  11.328   4.310 -2.5876  0.4101  0.1731
   10CHTO   O19 4134   4.504  11.252   4.209 -0.1517  0.2038  0.4121
   10CHTO   H35 4135   4.468  11.166   4.217 -1.4639  0.8492  1.5630
   10CHTO   C21 4136   4.725  11.318   4.105 -0.7435  0.8822  0.5328
   10CHTO   H49 4137   4.700  11.253   4.020  2.2207  0.0291  0.2555
   10CHTO    N4 4138   4.675  11.448   4.059  0.4423  0.3116 -0.4834
   10CHTO   H41 4139   4.568  11.438   4.054  0.6224 -0.5789 -3.6281
   10CHTO   H42 4140   4.699  11.523   4.133  1.7752  2.1769 -2.7280
   10CHTO   C22 4141   4.876  11.317   4.125 -0.3066  0.1802 -0.5995
   10CHTO   H50 4142   4.901  11.380   4.210  1.0038 -0.7343 -0.2905
   10CHTO   O14 4143   4.908  11.180   4.141  0.3648  0.0528 -0.1246
   10CHTO   C23 4144   4.861  11.114   4.254 -1.0718 -0.1455 -1.4581
   10CHTO   H51 4145   4.907  11.169   4.338 -0.0165  0.5027 -2.4456
   10CHTO   C34 4146   4.903  10.967   4.262  0.3590 -0.2169  0.3207
   10CHTO   O23 4147   5.044  10.948   4.246  0.1082 -0.5509  0.4435
   10CHTO   H38 4148   5.068  10.912   4.163 -0.9577 -0.9932  0.3216
   10CHTO   O16 4149   4.948  11.367   4.012  0.3701  0.2243 -0.5082
   10CHTO   C24 4150   5.096  11.363   4.034 -0.6811  0.7820  0.6054
   10CHTO   H52 4151   5.124  11.303   4.120 -0.7698  0.3409  0.3269
   10CHTO   C26 4152   5.148  11.507   4.056  0.4708 -0.0616  0.4864
   10CHTO   H54 4153   5.111  11.564   3.968  1.2514  2.3152  1.6722
   10CHTO   O20 4154   5.083  11.564   4.171 -0.1727 -0.2939  0.6598
   10CHTO   H36 4155   5.154  11.573   4.232 -1.0161  0.2691  1.5625
   10CHTO   C30 4156   5.303  11.506   4.052  0.1125  0.3465  1.1811
   10CHTO   H58 4157   5.351  11.470   4.144  3.8768 -0.0752 -0.8520
   10CHTO    N6 4158   5.350  11.651   4.041 -0.3486  0.2821  0.2466
   10CHTO   H45 4159   5.296  11.713   4.112 -0.9540 -1.3806  1.2621
   10CHTO   H46 4160   5.454  11.664   4.063 -1.1926  3.0963  2.9144
   10CHTO   C33 4161   5.365  11.425   3.928  0.0247 -0.6134 -0.3286
   10CHTO   H61 4162   5.340  11.478   3.835  0.5077  1.9356  0.9423
   10CHTO   O18 4163   5.299  11.304   3.929 -0.2377 -0.6221 -0.0249
   10CHTO   C28 4164   5.157  11.299   3.906  0.0151  0.3686  0.0423
   10CHTO   H56 4165   5.130  11.363   3.821 -1.1617 -0.6754 -0.3910
   10CHTO   C35 4166   5.114  11.149   3.895  0.4769 -0.3389  0.2571
   10CHTO   O24 4167   5.185  11.083   3.791 -0.2958  0.2483 -0.6108
   10CHTO   H39 4168   5.191  10.998   3.830 -2.9098 -0.4936 -1.6875
   10CHTO    O9 4169   5.506  11.407   3.916 -0.5836 -0.1718  0.1493
   10CHTO   C13 4170   5.563  11.320   3.789  0.3710  0.0621 -0.2892
   10CHTO   H26 4171   5.519  11.361   3.695  0.3877 -0.5149 -0.5517
   10CHTO   C11 4172   5.531  11.162   3.801  0.1276 -0.0269 -0.0251
   10CHTO   H24 4173   5.421  11.151   3.804  0.0815 -0.2745 -1.9501
   10CHTO    O8 4174   5.594  11.109   3.922  0.4318 -0.3948 -0.0426
   10CHTO    H3 4175   5.686  11.124   3.932  0.2595  0.9904 -0.4383
   10CHTO    C9 4176   5.588  11.101   3.673  0.0783  0.0868 -0.1684
   10CHTO   H22 4177   5.537  11.154   3.591  0.4515  2.7201  1.2559
   10CHTO    N2 4178   5.548  10.959   3.658  0.3285 -0.0929 -1.3530
   10CHTO   H10 4179   5.443  10.949   3.634 -0.0186  1.1590 -0.4337
   10CHTO   H11 4180   5.619  10.903   3.600  1.6460 -0.6159  0.6974
   10CHTO    C7 4181   5.742  11.120   3.663 -0.1395  0.6057  0.5034
   10CHTO   H20 4182   5.766  11.090   3.558  1.7282  0.9013  0.8363
   10CHTO    O4 4183   5.783  11.257   3.683 -0.0769  0.1564 -0.1905
   10CHTO   C14 4184   5.721  11.349   3.776 -0.4019 -0.0365  0.4066
   10CHTO   H27 4185   5.735  11.455   3.749  0.0602 -0.0753  0.4924
   10CHTO   C18 4186   5.799  11.330   3.905  0.0037  0.4560  0.2183
   10CHTO   O13 4187   5.779  11.432   4.005 -0.1594 -0.3140  0.5311
   10CHTO    H7 4188   5.842  11.422   4.074  1.7068  0.2936 -1.0251
   10CHTO    O2 4189   5.824  11.025   3.766 -0.0223 -0.5535  0.0065
   10CHTO    C1 4190   5.965  11.027   3.766 -0.5738  0.6723 -0.6461
   10CHTO   H14 4191   6.002  11.130   3.787  1.6358 -0.1375 -0.4118
   10CHTO    C2 4192   6.026  10.974   3.631  0.3912  0.4384 -0.5952
   10CHTO   H15 4193   5.976  10.879   3.608  1.7615 -0.1187 -1.3429
   10CHTO    O6 4194   6.001  11.060   3.528 -0.5492  0.0061  0.6748
   10CHTO    H1 4195   5.908  11.070   3.522 -0.6809 -1.8842 -0.7676
   10CHTO    C3 4196   6.178  10.939   3.633  0.0181  0.5423 -0.2942
   10CHTO   H16 4197   6.231  11.035   3.641 -0.1719  0.5287  1.3088
   10CHTO    N1 4198   6.228  10.857   3.513 -0.4748  0.4436  0.3295
   10CHTO    H8 4199   6.288  10.921   3.451 -0.3260 -0.8136 -0.8298
   10CHTO    H9 4200   6.137  10.838   3.458 -0.2986 -1.1783  0.5901
   10CHTO    C4 4201   6.212  10.865   3.771  0.1728 -0.0418 -0.8615
   10CHTO   H17 4202   6.169  10.764   3.774  2.0719 -0.8758 -1.1624
   10CHTO    O1 4203   6.156  10.946   3.882  0.0203 -0.3775 -0.6557
   10CHTO    C5 4204   6.017  10.934   3.881  0.0740 -0.5374 -0.1254
   10CHTO   H18 4205   5.981  10.834   3.861  0.2244 -0.6404  0.1136
   10CHTO   C16 4206   5.963  10.981   4.013 -0.2894  0.2476 -0.0785
   10CHTO   O11 4207   5.824  10.956   4.032 -0.4204  0.5832 -0.0570
   10CHTO    H5 4208   5.809  10.865   4.052  0.3647  0.5515  0.3766
   10CHTO    O3 4209   6.348  10.844   3.807  0.0472  0.3852  0.6388
   10CHTO    C6 4210   6.382  10.719   3.875  0.2974 -0.3572 -0.1925
   10CHTO   H19 4211   6.292  10.657   3.882 -0.2212  0.2849 -1.1129
   10CHTO    C8 4212   6.483  10.643   3.780  0.4403  0.4681  0.2479
   10CHTO   H21 4213   6.576  10.699   3.771  0.0038  0.8988 -1.6290
   10CHTO    O7 4214   6.423  10.616   3.650 -0.5030 -0.4170 -0.2096
   10CHTO    H2 4215   6.412  10.695   3.601 -0.5671  0.0341  0.5240
   10CHTO   C12 4216   6.519  10.508   3.857  0.7037  0.9376  0.3684
   10CHTO   H25 4217   6.425  10.450   3.865  0.3969  1.5354  1.1028
   10CHTO    N3 4218   6.612  10.413   3.783 -0.0644  0.2165 -0.4185
   10CHTO   H12 4219   6.663  10.346   3.851 -1.2311  0.2855  0.5491
   10CHTO   H13 4220   6.558  10.349   3.715  1.6650  1.8279 -3.4138
   10CHTO   C15 4221   6.565  10.540   4.000 -0.1692  0.1678 -0.5365
   10CHTO   H28 4222   6.660  10.592   4.004  0.2075 -0.6463  2.3184
   10CHTO   O10 4223   6.584  10.404   4.091  0.1636 -1.0208  0.4726
   10CHTO    H4 4224   6.622  10.430   4.172  0.6870  0.1843 -0.1487
   10CHTO    O5 4225   6.457  10.611   4.073  0.0670  0.2889 -0.0258
   10CHTO   C10 4226   6.433  10.742   4.021 -0.2191 -0.3677 -0.2870
   10CHTO   H23 4227   6.527  10.796   4.027 -1.6488  2.2920 -1.2231
   10CHTO   C17 4228   6.340  10.814   4.112  0.5072  0.3822  0.3351
   10CHTO   O12 4229   6.394  10.843   4.243 -0.5988 -0.1772  0.3133
   10CHTO    H6 4230   6.344  10.879   4.313 -1.3310  0.9874 -0.7872
   11CHTO  H203 4231   6.652   5.296   0.327 -2.2300 -2.1444 -0.4436
   11CHTO   O82 4232   6.612   5.367   0.279  0.3172 -0.0763  0.3780
   11CHTO  C123 4233   6.670   5.497   0.314 -0.0898  0.9046  0.0668
   11CHTO  H227 4234   6.744   5.522   0.237  1.8234 -0.0014  1.5845
   11CHTO   O77 4235   6.549   5.582   0.304  0.0299 -0.0936  0.3933
   11CHTO  C118 4236   6.576   5.721   0.310  0.0195  0.0549  0.2695
   11CHTO  H222 4237   6.646   5.757   0.234 -1.3710 -3.4226 -2.7650
   11CHTO  C125 4238   6.441   5.796   0.272 -0.2088  0.0426  0.2655
   11CHTO   O84 4239   6.321   5.770   0.353 -0.4365 -0.4132  0.6529
   11CHTO  H205 4240   6.322   5.677   0.368  0.1158 -0.4081  0.6632
   11CHTO  C114 4241   6.632   5.760   0.446  0.5320  0.1743 -0.1018
   11CHTO  H218 4242   6.556   5.745   0.522  1.0983  0.3747  0.5158
   11CHTO  C116 4243   6.757   5.672   0.479 -0.3346 -0.0068  0.3962
   11CHTO  H220 4244   6.842   5.696   0.412 -2.0226  1.6929 -1.2401
   11CHTO   O79 4245   6.805   5.724   0.609  0.4309  0.5884  0.0258
   11CHTO  H201 4246   6.841   5.649   0.653  0.2591  1.7383  2.1908
   11CHTO  C120 4247   6.715   5.517   0.461 -0.0991  0.9339 -0.5071
   11CHTO  H224 4248   6.633   5.503   0.534  0.8693 -0.7522  0.2745
   11CHTO   N21 4249   6.823   5.427   0.496 -0.3118 -0.1182 -0.6071
   11CHTO  H211 4250   6.813   5.336   0.438  1.5622  0.1038 -1.3318
   11CHTO  H212 4251   6.821   5.399   0.601 -2.5734 -1.6056 -1.0018
   11CHTO   O75 4252   6.664   5.899   0.442  0.7086 -0.0760 -0.3264
   11CHTO  C112 4253   6.574   5.992   0.558 -0.0217 -0.0565 -0.6196
   11CHTO  H216 4254   6.592   5.957   0.661 -1.2215 -0.2122 -0.4604
   11CHTO   O73 4255   6.436   5.988   0.529 -0.1230  0.4593  0.0775
   11CHTO  C113 4256   6.353   6.068   0.615 -0.1892 -0.1071  0.4680
   11CHTO  H217 4257   6.374   6.028   0.716  1.0803 -1.4489 -0.2902
   11CHTO  C124 4258   6.215   6.030   0.581 -0.8215 -0.2866 -0.3434
   11CHTO   O83 4259   6.106   6.063   0.669 -0.3675 -0.3339  0.5810
   11CHTO  H204 4260   6.128   6.141   0.717  2.7102 -1.2553  0.7674
   11CHTO  C109 4261   6.390   6.217   0.605 -0.4771 -0.2178 -0.0908
   11CHTO  H213 4262   6.386   6.247   0.499 -0.7656 -0.9668 -0.2924
   11CHTO  C110 4263   6.544   6.224   0.649 -0.3533 -0.0054  0.2762
   11CHTO  H214 4264   6.553   6.194   0.753  2.2839 -2.4594 -0.5866
   11CHTO   O78 4265   6.573   6.365   0.652 -0.1518 -0.0100  0.4039
   11CHTO  H200 4266   6.557   6.386   0.742  2.1029 -1.3859  1.1593
   11CHTO  C111 4267   6.629   6.135   0.550 -0.1990 -0.2877 -0.2189
   11CHTO  H215 4268   6.612   6.165   0.446  0.5121 -2.3857 -0.9654
   11CHTO   N19 4269   6.776   6.147   0.581  0.6262 -0.3764 -0.2113
   11CHTO  H207 4270   6.837   6.163   0.493  0.0242 -1.2905 -0.8108
   11CHTO  H208 4271   6.793   6.229   0.649  2.7715  0.0276 -1.1973
   11CHTO   O74 4272   6.305   6.301   0.679 -0.5452  0.5350 -0.1342
   11CHTO  C115 4273   6.251   6.427   0.574  0.6305 -0.6439  0.2212
   11CHTO  H219 4274   6.325   6.448   0.496  0.6748 -0.7059  0.2469
   11CHTO   O76 4275   6.107   6.394   0.500  0.1759 -0.1957 -0.7792
   11CHTO  C122 4276   6.004   6.379   0.599  0.3963 -0.3593  0.7233
   11CHTO  H226 4277   6.019   6.281   0.646  1.8243 -0.2703  0.4639
   11CHTO  C126 4278   5.875   6.369   0.523 -0.4197  0.4291  0.7939
   11CHTO   O85 4279   5.765   6.326   0.608  0.1741 -0.0860  0.0213
   11CHTO  H206 4280   5.764   6.232   0.611 -0.7002 -0.0987 -0.4427
   11CHTO  C121 4281   6.001   6.490   0.717  0.6131  0.0122  0.4807
   11CHTO  H225 4282   5.896   6.526   0.718 -0.1860 -2.2446  0.4712
   11CHTO   O81 4283   6.030   6.417   0.839  0.2938  0.0112 -0.1628
   11CHTO  H202 4284   6.016   6.471   0.915  1.6008 -0.1381  0.2053
   11CHTO  C119 4285   6.095   6.609   0.681  0.4187 -0.3890  0.4534
   11CHTO  H223 4286   6.060   6.635   0.581  1.2761 -0.9142  0.0070
   11CHTO  C117 4287   6.244   6.568   0.663 -0.6643 -1.1979  0.4046
   11CHTO  H221 4288   6.303   6.531   0.746  2.1565  0.9049 -0.5798
   11CHTO   N20 4289   6.328   6.678   0.606  0.0059 -0.0764 -0.1944
   11CHTO  H209 4290   6.327   6.770   0.662 -0.4428 -0.0299 -0.2760
   11CHTO  H210 4291   6.298   6.705   0.505  1.5548 -0.3499 -0.7404
   11CHTO   O80 4292   6.061   6.742   0.763 -0.3803  0.4489  0.0313
   11CHTO  C103 4293   6.104   6.767   0.918 -0.1359 -0.1133 -0.4537
   11CHTO  H190 4294   6.131   6.679   0.976 -0.3765 -1.1388 -1.8845
   11CHTO  C101 4295   6.221   6.871   0.932  0.1038  0.0117  0.3604
   11CHTO  H188 4296   6.206   6.943   0.852 -1.6282  0.5011  1.1010
   11CHTO   O68 4297   6.352   6.796   0.900  0.6530  0.0574  0.1736
   11CHTO  H168 4298   6.354   6.781   0.808  1.3651  1.3499 -0.0275
   11CHTO   C99 4299   6.230   6.949   1.069  0.5725  0.0908 -0.2718
   11CHTO  H186 4300   6.257   6.883   1.154 -0.1146 -1.7442 -1.4406
   11CHTO   N17 4301   6.332   7.063   1.062  0.4891  0.3022 -0.1038
   11CHTO  H174 4302   6.391   7.053   0.972  0.5885  0.2226 -0.0297
   11CHTO  H175 4303   6.289   7.162   1.065 -1.1360 -0.1878 -3.9693
   11CHTO   C97 4304   6.093   7.009   1.104  0.7978  0.4056  0.0987
   11CHTO  H184 4305   6.069   7.086   1.029 -0.2206  1.0622  1.0806
   11CHTO   O64 4306   5.992   6.908   1.106 -0.2494  0.0770  0.5159
   11CHTO  C104 4307   5.968   6.828   0.986  0.3363 -0.4463  0.0334
   11CHTO  H191 4308   5.917   6.891   0.913  1.6513 -1.6670 -1.9683
   11CHTO  C108 4309   5.864   6.730   1.030  0.4847 -0.1336  0.1743
   11CHTO   O71 4310   5.783   6.691   0.925  0.5102 -0.2947  0.0621
   11CHTO  H171 4311   5.740   6.607   0.926  2.5697 -1.4120 -1.0185
   11CHTO   O62 4312   6.082   7.068   1.240  0.3275  0.1979 -0.1301
   11CHTO   C91 4313   5.979   7.165   1.264  0.1801  0.2138  0.1167
   11CHTO  H178 4314   5.909   7.156   1.181  2.0357 -2.3092 -1.2351
   11CHTO   C92 4315   6.034   7.307   1.252  0.7547  0.5280 -0.2837
   11CHTO  H179 4316   6.132   7.313   1.301 -0.1939 -0.5382  1.7911
   11CHTO   O66 4317   6.078   7.348   1.117 -0.3446  0.0631  0.2805
   11CHTO  H166 4318   6.137   7.420   1.127 -1.1963  0.7416  0.4771
   11CHTO   C93 4319   5.941   7.410   1.321  0.0498  0.4928  0.1304
   11CHTO  H180 4320   5.839   7.394   1.281  0.1505 -1.4265  0.6019
   11CHTO   N16 4321   5.966   7.559   1.296 -0.0719  0.2736 -0.2318
   11CHTO  H172 4322   6.062   7.586   1.337  0.7891 -2.2247 -0.5376
   11CHTO  H173 4323   5.892   7.626   1.338 -0.1622  1.0129 -1.5584
   11CHTO   C94 4324   5.943   7.372   1.474  0.2920  0.1078 -0.1648
   11CHTO  H181 4325   6.044   7.368   1.515  0.7189 -0.0080 -1.2018
   11CHTO   O61 4326   5.891   7.240   1.495 -0.2314 -0.8660  0.2532
   11CHTO   C95 4327   5.914   7.132   1.403 -0.0911  0.5679 -0.5453
   11CHTO  H182 4328   5.978   7.057   1.450 -1.6489 -0.2114  0.3588
   11CHTO  C106 4329   5.777   7.053   1.383 -0.6801 -0.3551 -0.4698
   11CHTO   O69 4330   5.675   7.128   1.321 -0.2309 -0.3494  0.2922
   11CHTO  H169 4331   5.597   7.146   1.371 -0.4762  0.3968 -0.3524
   11CHTO   O63 4332   5.864   7.495   1.563  0.2317  0.1229 -0.0654
   11CHTO   C96 4333   5.922   7.514   1.703 -0.4438  0.0435 -0.2559
   11CHTO  H183 4334   6.029   7.510   1.685 -0.3730 -1.5080  0.4818
   11CHTO   C98 4335   5.880   7.411   1.813  0.4756 -0.3760  0.3556
   11CHTO  H185 4336   5.774   7.425   1.840  0.4163 -1.7886  0.9204
   11CHTO   O67 4337   5.896   7.276   1.767 -0.8083 -0.0224  0.3079
   11CHTO  H167 4338   5.875   7.213   1.833 -1.5171  0.3906  0.4828
   11CHTO  C102 4339   5.946   7.438   1.949 -0.3564  0.4730 -0.4105
   11CHTO  H189 4340   6.047   7.396   1.941 -0.8845 -0.5226 -2.0977
   11CHTO   N18 4341   5.884   7.366   2.065 -0.2256  0.4127  0.7190
   11CHTO  H176 4342   5.919   7.419   2.152  0.6406 -1.2404  1.4024
   11CHTO  H177 4343   5.777   7.378   2.065 -0.5174 -1.8998  0.0212
   11CHTO  C105 4344   5.960   7.586   1.984 -0.7463 -0.2846  0.1314
   11CHTO  H192 4345   5.919   7.614   2.081  0.4247 -1.5877  1.0222
   11CHTO   O65 4346   5.877   7.670   1.903  0.4079 -0.5804  0.2660
   11CHTO  C100 4347   5.894   7.667   1.759 -0.1877  0.2746  0.1763
   11CHTO  H187 4348   5.799   7.698   1.712  0.6151 -0.8036 -2.2594
   11CHTO  C107 4349   6.000   7.770   1.706  1.0669  0.3214  0.0537
   11CHTO   O70 4350   5.939   7.892   1.711 -0.6582 -0.3787  0.0580
   11CHTO  H170 4351   5.954   7.935   1.793 -1.9779 -2.8032  1.6136
   11CHTO   O57 4352   6.106   7.617   1.980  0.4915  0.1425 -0.3874
   11CHTO   C85 4353   6.156   7.692   2.094  0.5360 -0.6377 -0.6356
   11CHTO  H157 4354   6.078   7.692   2.173  2.1283  1.3070  1.0176
   11CHTO   C83 4355   6.183   7.839   2.057  0.3029  0.2776  0.1177
   11CHTO  H155 4356   6.085   7.881   2.037  0.2435  0.4870  0.8327
   11CHTO   O56 4357   6.257   7.857   1.933  0.0859 -0.2537  0.2781
   11CHTO  H135 4358   6.243   7.945   1.904  1.3473  0.2540  1.1364
   11CHTO   C81 4359   6.247   7.916   2.178 -0.0437  0.0365 -0.7436
   11CHTO  H153 4360   6.181   7.897   2.263  1.1212  1.9360  0.6292
   11CHTO   N14 4361   6.246   8.063   2.162  0.0586 -0.0661  0.3612
   11CHTO  H141 4362   6.337   8.091   2.114  0.0566  0.4117  0.6354
   11CHTO  H142 4363   6.243   8.110   2.258 -1.9568  0.9884 -0.1980
   11CHTO   C79 4364   6.382   7.846   2.216  0.2775 -1.1698  0.3539
   11CHTO  H151 4365   6.417   7.888   2.310 -3.1865 -2.2357  2.2252
   11CHTO   O52 4366   6.367   7.701   2.241  0.8922  0.3496 -0.1792
   11CHTO   C86 4367   6.292   7.626   2.141 -0.3548  0.0154 -0.0150
   11CHTO  H158 4368   6.369   7.616   2.061 -0.2040  2.5424 -0.2475
   11CHTO   C90 4369   6.268   7.482   2.187  0.2386 -0.2017  0.1237
   11CHTO   O60 4370   6.378   7.432   2.263 -0.0353 -0.0985 -0.4360
   11CHTO  H138 4371   6.410   7.493   2.327  1.7375 -1.0846 -0.3471
   11CHTO   O50 4372   6.480   7.859   2.109 -0.2529 -0.0489 -0.7150
   11CHTO   C73 4373   6.626   7.869   2.123 -0.7000  0.1462  0.7189
   11CHTO  H145 4374   6.664   7.807   2.206 -1.3913 -1.9354 -0.4583
   11CHTO   C74 4375   6.668   8.014   2.163 -0.7390 -0.3795 -0.1890
   11CHTO  H146 4376   6.607   8.047   2.249 -1.7126  0.4354 -1.1811
   11CHTO   O54 4377   6.803   8.009   2.210 -0.5276 -0.6202  0.2245
   11CHTO  H133 4378   6.821   7.935   2.265 -2.2722 -1.0381  0.2506
   11CHTO   C75 4379   6.644   8.110   2.038  0.1555  0.3848 -0.5127
   11CHTO  H147 4380   6.535   8.123   2.027  0.0612 -0.1200 -0.2164
   11CHTO   N13 4381   6.700   8.247   2.059 -0.3743  0.0235  0.1616
   11CHTO  H139 4382   6.737   8.257   2.160  2.9228  0.5549 -1.0358
   11CHTO  H140 4383   6.776   8.262   1.984 -1.8489  0.3923 -1.3134
   11CHTO   C76 4384   6.707   8.038   1.911  0.0730  0.1552 -0.9606
   11CHTO  H148 4385   6.815   8.033   1.920  0.0567  3.4981  2.3352
   11CHTO   O49 4386   6.652   7.905   1.885 -0.6121 -0.0488  0.4902
   11CHTO   C77 4387   6.697   7.822   1.990  0.1259  0.3740 -0.1495
   11CHTO  H149 4388   6.805   7.825   2.000  0.1418  0.6485 -0.3860
   11CHTO   C88 4389   6.669   7.679   1.943 -0.3722  0.1055 -0.6983
   11CHTO   O58 4390   6.751   7.643   1.809  0.4470  0.0366  0.1182
   11CHTO  H136 4391   6.718   7.698   1.741 -1.6673  0.0410  1.0983
   11CHTO   O51 4392   6.658   8.131   1.764 -0.0205  0.6469  0.0316
   11CHTO   C78 4393   6.779   8.157   1.663  0.3035  0.3818 -0.2660
   11CHTO  H150 4394   6.870   8.097   1.688 -1.2570 -1.8011  0.2862
   11CHTO   C80 4395   6.815   8.304   1.668 -0.1630  0.1087  0.5593
   11CHTO  H152 4396   6.723   8.366   1.667 -0.7944 -0.8095  0.7205
   11CHTO   O55 4397   6.878   8.337   1.799 -0.2784  0.2800 -0.0428
   11CHTO  H134 4398   6.820   8.392   1.848  0.0221 -0.0537  0.6871
   11CHTO   C84 4399   6.911   8.348   1.546  0.5764 -0.8512  0.4629
   11CHTO  H156 4400   7.010   8.308   1.563  0.8455  0.2528  1.5962
   11CHTO   N15 4401   6.934   8.500   1.548 -0.1031 -0.1741  0.2011
   11CHTO  H143 4402   6.841   8.551   1.563  0.2712  0.4102  0.5555
   11CHTO  H144 4403   6.982   8.533   1.459  0.1483  0.8093  0.6932
   11CHTO   C87 4404   6.847   8.301   1.410  0.3519  0.1653 -0.2798
   11CHTO  H159 4405   6.750   8.347   1.395  0.0778 -0.8719 -1.7527
   11CHTO   O53 4406   6.841   8.150   1.425  0.4449 -0.3046  0.3359
   11CHTO   C82 4407   6.741   8.107   1.521 -0.5859 -0.5559 -0.9627
   11CHTO  H154 4408   6.644   8.150   1.496 -0.2268  1.2157  0.5941
   11CHTO   C89 4409   6.725   7.953   1.521 -0.4201  0.2448  0.2265
   11CHTO   O59 4410   6.834   7.884   1.567  0.3884  0.1268 -0.3394
   11CHTO  H137 4411   6.903   7.903   1.505 -1.2470 -0.8964 -2.5136
   11CHTO   O45 4412   6.942   8.322   1.293 -0.7109 -0.3910  0.4258
   11CHTO   C67 4413   6.897   8.280   1.166  0.0119  0.0588 -0.2878
   11CHTO  H124 4414   6.824   8.200   1.178  1.5231 -1.3937 -0.5809
   11CHTO   C65 4415   6.818   8.396   1.080  0.2939  0.1762  0.3639
   11CHTO  H122 4416   6.877   8.480   1.118  1.9630  0.6413 -3.0265
   11CHTO   O44 4417   6.678   8.395   1.120  0.1632 -0.0349 -0.5584
   11CHTO  H102 4418   6.637   8.347   1.051  1.0516 -0.4855 -0.7761
   11CHTO   C63 4419   6.854   8.393   0.929 -0.2025 -0.2804  0.2405
   11CHTO  H120 4420   6.955   8.432   0.920 -0.2733 -0.2230 -0.3215
   11CHTO   N11 4421   6.781   8.490   0.842  0.0633 -0.4881 -0.4170
   11CHTO  H108 4422   6.711   8.549   0.899 -0.4324 -0.7945 -0.7060
   11CHTO  H109 4423   6.732   8.436   0.764  0.5974 -0.8941 -0.4699
   11CHTO   C61 4424   6.866   8.249   0.878 -0.0394 -0.6144 -0.2155
   11CHTO  H118 4425   6.902   8.260   0.774 -3.4499  0.0604 -1.3574
   11CHTO   O40 4426   6.965   8.169   0.953 -0.4714  0.4757  0.6629
   11CHTO   C68 4427   7.016   8.224   1.078 -0.1100 -0.5874 -0.3736
   11CHTO  H125 4428   7.090   8.306   1.061  0.2065 -1.1021 -1.4948
   11CHTO   C72 4429   7.091   8.118   1.162 -0.1549 -0.3109  0.1053
   11CHTO   O48 4430   7.174   8.171   1.268 -0.8727 -0.1856 -0.0776
   11CHTO  H105 4431   7.186   8.263   1.262  2.8089 -0.5247  1.0850
   11CHTO   O38 4432   6.742   8.180   0.882  0.2338 -0.1477 -0.3530
   11CHTO   C55 4433   6.728   8.057   0.814  0.6385  0.0658 -0.2336
   11CHTO  H112 4434   6.828   8.011   0.807  1.2529  0.9306  2.2481
   11CHTO   C56 4435   6.657   8.082   0.679  0.7983  0.4196  0.0340
   11CHTO  H113 4436   6.573   8.152   0.692 -0.2012 -0.8452  0.3670
   11CHTO   O42 4437   6.744   8.159   0.588 -0.0714  0.2108 -0.2128
   11CHTO  H100 4438   6.693   8.211   0.529 -0.7025 -1.1995 -0.9226
   11CHTO   C57 4439   6.613   7.946   0.616  0.4680 -0.8492  0.4854
   11CHTO  H114 4440   6.706   7.917   0.565  1.1269  0.9275  0.6457
   11CHTO   N10 4441   6.504   7.965   0.518  0.4343 -0.2786  0.3643
   11CHTO  H106 4442   6.529   8.059   0.471  1.1835 -0.2831  0.7370
   11CHTO  H107 4443   6.519   7.886   0.445  1.2161  0.4568 -0.2844
   11CHTO   C58 4444   6.569   7.832   0.719  0.9163 -0.7134 -0.3207
   11CHTO  H115 4445   6.466   7.852   0.755  1.3970  2.3697 -0.5915
   11CHTO   O37 4446   6.658   7.829   0.835  0.0438 -0.0703 -0.4199
   11CHTO   C59 4447   6.663   7.950   0.907  0.2654 -0.1987  0.3637
   11CHTO  H116 4448   6.562   7.980   0.935  0.0736  0.1938 -0.7165
   11CHTO   C70 4449   6.748   7.913   1.028 -0.2655 -0.2374 -0.0843
   11CHTO   O46 4450   6.716   7.982   1.151  0.5595 -0.5442  0.4759
   11CHTO  H103 4451   6.746   8.070   1.137  1.6065 -0.9663 -0.0100
   11CHTO   O39 4452   6.573   7.692   0.646 -0.3862 -0.5279 -0.2229
   11CHTO   C60 4453   6.484   7.590   0.675 -0.1977 -0.3129 -0.5943
   11CHTO  H117 4454   6.470   7.568   0.781 -1.4061 -0.1959 -0.7172
   11CHTO   C62 4455   6.339   7.634   0.639 -0.7147  0.3253 -0.0606
   11CHTO  H119 4456   6.320   7.735   0.681 -0.2411  0.1207  0.6584
   11CHTO   O43 4457   6.332   7.648   0.497  0.5333  0.1018 -0.5715
   11CHTO  H101 4458   6.390   7.598   0.443 -0.4184 -1.1505 -0.4534
   11CHTO   C66 4459   6.227   7.533   0.694  0.0075 -1.0729  0.3672
   11CHTO  H123 4460   6.240   7.525   0.802  0.1374 -1.5172  0.3219
   11CHTO   N12 4461   6.093   7.600   0.674 -0.1656  0.1155  0.2904
   11CHTO  H110 4462   6.095   7.658   0.583  1.5597 -2.5478 -1.4505
   11CHTO  H111 4463   6.055   7.648   0.762  1.9752  0.9196  0.7983
   11CHTO   C69 4464   6.236   7.403   0.617 -0.2284  0.7161  0.4944
   11CHTO  H126 4465   6.202   7.429   0.515 -2.1063  5.1177  2.1381
   11CHTO   O41 4466   6.387   7.338   0.628  0.0722 -0.4807 -0.0588
   11CHTO   C64 4467   6.523   7.453   0.605  0.4391  0.1855 -0.2440
   11CHTO  H121 4468   6.534   7.474   0.497 -0.3174  3.0093  0.1974
   11CHTO   C71 4469   6.647   7.382   0.664 -0.6212  0.3307  0.8213
   11CHTO   O47 4470   6.749   7.487   0.675 -0.5375 -0.2161  0.2577
   11CHTO  H104 4471   6.830   7.438   0.672 -0.1964  0.4136 -2.4149
   11CHTO   O34 4472   6.139   7.299   0.676 -0.0230 -0.3001 -0.4584
   11CHTO   C49 4473   6.033   7.218   0.748  0.4986  0.5312 -0.7327
   11CHTO   H91 4474   6.083   7.189   0.840  1.4768  1.0986 -1.0737
   11CHTO   C47 4475   5.994   7.111   0.640 -0.5203 -0.2656 -0.5904
   11CHTO   H89 4476   5.941   7.036   0.702 -1.6760  0.5772 -0.5489
   11CHTO   O33 4477   6.116   7.045   0.594 -0.4438 -0.1311  0.3776
   11CHTO   H70 4478   6.169   7.107   0.549 -0.5687 -0.2520  0.0569
   11CHTO   C45 4479   5.912   7.179   0.522 -0.6759 -0.5280  0.3972
   11CHTO   H87 4480   5.981   7.250   0.474 -1.9833 -0.0430 -0.8085
   11CHTO    N8 4481   5.864   7.083   0.423  0.0709  0.7084 -0.5319
   11CHTO   H75 4482   5.762   7.107   0.397 -1.2867 -0.3971  3.4106
   11CHTO   H76 4483   5.922   7.083   0.332  0.7537 -2.3900 -0.1496
   11CHTO   C43 4484   5.783   7.265   0.588  0.5774 -0.0707 -0.6413
   11CHTO   H85 4485   5.735   7.315   0.504  0.7895  0.1893 -0.6113
   11CHTO   O29 4486   5.821   7.358   0.688 -0.4825 -0.5056 -0.5575
   11CHTO   C50 4487   5.911   7.303   0.789 -0.8053  0.6763 -0.9218
   11CHTO   H92 4488   5.959   7.395   0.826  0.1177 -0.1396 -0.0535
   11CHTO   C54 4489   5.831   7.242   0.910  0.6229  0.2083 -0.3916
   11CHTO   O36 4490   5.764   7.346   0.985 -0.2429 -0.1573  0.5273
   11CHTO   H72 4491   5.726   7.305   1.060 -0.9973 -0.6992 -0.1417
   11CHTO   O27 4492   5.680   7.187   0.654  0.0834 -0.2511 -0.4118
   11CHTO   C37 4493   5.541   7.170   0.689 -0.0474 -0.6598  0.2374
   11CHTO   H79 4494   5.524   7.167   0.798 -0.4705  1.4400  0.2511
   11CHTO   C38 4495   5.474   7.299   0.652 -0.1056 -0.3855  0.0756
   11CHTO   H80 4496   5.502   7.325   0.549  1.5643  0.4794  0.7309
   11CHTO   O31 4497   5.518   7.403   0.729 -0.2041 -0.4824 -0.1292
   11CHTO   H68 4498   5.608   7.419   0.710 -0.9099  0.6549 -2.7899
   11CHTO   C39 4499   5.320   7.290   0.667 -0.2559  0.1499 -0.3722
   11CHTO   H81 4500   5.293   7.317   0.769 -0.2339 -1.1338 -0.0212
   11CHTO    N7 4501   5.244   7.403   0.594 -0.5232  0.0425 -0.2673
   11CHTO   H73 4502   5.298   7.489   0.557 -0.2728  0.4149  0.9503
   11CHTO   H74 4503   5.167   7.373   0.525  0.4180 -1.0244 -0.8639
   11CHTO   C40 4504   5.259   7.147   0.642  0.1014  0.0539  0.0847
   11CHTO   H82 4505   5.221   7.134   0.540  1.1304  1.1857 -0.4589
   11CHTO   O26 4506   5.347   7.045   0.677 -0.4712 -0.1902  0.1261
   11CHTO   C41 4507   5.477   7.049   0.621 -0.0981  0.0940  0.5740
   11CHTO   H83 4508   5.475   7.064   0.512 -3.7183 -0.0329  0.5849
   11CHTO   C52 4509   5.567   6.926   0.658 -0.3881  1.1853 -0.5141
   11CHTO   O35 4510   5.511   6.793   0.626  0.0715 -0.6207  0.1875
   11CHTO   H71 4511   5.568   6.722   0.647 -0.6460 -1.0402  0.7567
   11CHTO   O28 4512   5.143   7.130   0.724 -0.2877  0.0504  0.3331
   11CHTO   C42 4513   5.055   7.016   0.719 -0.1632  1.1507 -0.9457
   11CHTO   H84 4514   5.095   6.955   0.638 -2.6825  0.2432 -1.5426
   11CHTO   C44 4515   4.910   7.052   0.682 -0.0284 -0.6122  0.5568
   11CHTO   H86 4516   4.871   7.111   0.765 -0.1054 -0.7266  0.6019
   11CHTO   O32 4517   4.913   7.139   0.561  0.5843  0.1842 -0.2306
   11CHTO   H69 4518   4.832   7.180   0.537 -0.5283  0.1594  3.3237
   11CHTO   C48 4519   4.822   6.924   0.666  0.0210  0.1992 -0.3685
   11CHTO   H90 4520   4.863   6.866   0.583  1.0391  1.9173 -1.0854
   11CHTO    N9 4521   4.680   6.944   0.630 -0.1882 -0.2218 -0.0235
   11CHTO   H77 4522   4.671   7.045   0.592 -0.4021 -0.2593 -0.0738
   11CHTO   H78 4523   4.658   6.871   0.554  2.0303  0.5332 -1.4214
   11CHTO   C51 4524   4.824   6.835   0.794  0.4286  0.3487 -0.1526
   11CHTO   H93 4525   4.778   6.889   0.876  1.3201 -1.0163  1.2876
   11CHTO   O30 4526   4.960   6.800   0.822 -0.4116 -1.1530  0.0449
   11CHTO   C46 4527   5.057   6.933   0.847 -0.5024 -0.5579  0.1311
   11CHTO   H88 4528   5.029   6.992   0.934  0.6950 -0.8205  0.7088
   11CHTO   C53 4529   5.195   6.860   0.869  0.0308 -0.0297  0.5419
   11CHTO   O72 4530   5.229   6.765   0.765 -0.1549  0.2906  0.0771
   11CHTO  H199 4531   5.182   6.685   0.776  0.1093  0.0261 -0.6795
   11CHTO   O22 4532   4.761   6.705   0.788  0.2377 -0.1612  0.6207
   11CHTO   C31 4533   4.718   6.631   0.899  0.6281  0.0875 -0.3793
   11CHTO   H59 4534   4.782   6.664   0.983  0.0080  0.1428  0.0762
   11CHTO   C29 4535   4.570   6.663   0.938 -0.0114  0.3102 -0.3309
   11CHTO   H57 4536   4.504   6.638   0.854  0.5847  2.4882 -1.4793
   11CHTO   O21 4537   4.553   6.806   0.961 -0.0246 -0.3641 -0.4899
   11CHTO   H37 4538   4.578   6.839   1.045 -0.8776 -0.7482 -0.0756
   11CHTO   C27 4539   4.519   6.579   1.066 -0.2736  0.2953  0.8573
   11CHTO   H55 4540   4.563   6.625   1.155 -0.9020 -1.2623  1.9909
   11CHTO    N5 4541   4.367   6.577   1.080  0.7078  0.4197  0.0790
   11CHTO   H43 4542   4.322   6.552   0.985 -0.6491  0.1310  0.7870
   11CHTO   H44 4543   4.334   6.523   1.168  0.6459 -2.0599 -1.4056
   11CHTO   C25 4544   4.570   6.432   1.056 -0.8619 -0.4003  0.6343
   11CHTO   H53 4545   4.507   6.369   0.993  1.2547 -0.9697 -0.9617
   11CHTO   O17 4546   4.707   6.417   1.009  0.6354  0.2511  0.2498
   11CHTO   C32 4547   4.744   6.480   0.886 -0.6642  0.2449  0.4109
   11CHTO   H60 4548   4.688   6.431   0.807  0.2189 -3.5377  2.0355
   11CHTO   C36 4549   4.895   6.448   0.872 -0.0158 -0.3273 -0.6667
   11CHTO   O25 4550   4.954   6.524   0.770  0.5527  0.1054  0.4435
   11CHTO   H40 4551   4.991   6.606   0.798  0.3994  0.4834 -0.4404
   11CHTO   O15 4552   4.566   6.365   1.206 -0.4361  0.5287 -0.7983
   11CHTO   C19 4553   4.532   6.235   1.236  0.2798 -0.1741 -0.1138
   11CHTO   H47 4554   4.545   6.220   1.344 -0.5779 -1.3404 -0.1641
   11CHTO   C20 4555   4.383   6.218   1.201  0.1662 -1.3118 -0.2586
   11CHTO   H48 4556   4.355   6.268   1.107 -1.7419 -0.4762  0.7158
   11CHTO   O19 4557   4.311   6.294   1.293 -0.4216 -0.0666 -0.0706
   11CHTO   H35 4558   4.265   6.360   1.246  1.3757  1.8462  0.7945
   11CHTO   C21 4559   4.334   6.073   1.202 -0.2924 -0.4615 -0.1997
   11CHTO   H49 4560   4.311   6.049   1.306 -1.7367  3.2313  0.4120
   11CHTO    N4 4561   4.197   6.059   1.149 -0.4182  0.3774 -0.1316
   11CHTO   H41 4562   4.190   6.125   1.063  0.8408  1.6548  0.7257
   11CHTO   H42 4563   4.187   5.957   1.115  0.0794 -0.2277  1.4664
   11CHTO   C22 4564   4.435   5.991   1.113  0.6500 -0.2303  0.0540
   11CHTO   H50 4565   4.428   6.023   1.009 -1.8666 -1.1574 -0.0855
   11CHTO   O14 4566   4.566   6.001   1.170  0.2175 -0.5129  0.4146
   11CHTO   C23 4567   4.626   6.131   1.157 -0.1647 -0.3814  0.2859
   11CHTO   H51 4568   4.631   6.156   1.050  1.5275 -0.7767  0.2728
   11CHTO   C34 4569   4.773   6.126   1.197 -0.0690  0.4697 -0.3434
   11CHTO   O23 4570   4.790   6.077   1.333  1.0023  0.0888 -0.3611
   11CHTO   H38 4571   4.879   6.082   1.363  0.2645  1.2827  1.7808
   11CHTO   O16 4572   4.408   5.849   1.112 -0.9172  0.0548  1.0130
   11CHTO   C24 4573   4.387   5.775   0.954 -0.5484  0.0145 -0.1512
   11CHTO   H52 4574   4.403   5.848   0.875 -0.3417  0.8038  0.6041
   11CHTO   C26 4575   4.245   5.717   0.942  0.0063 -0.1021 -0.0618
   11CHTO   H54 4576   4.232   5.647   1.028 -2.3440 -3.1485 -2.7509
   11CHTO   O20 4577   4.148   5.822   0.960  0.1534 -0.0408  0.5279
   11CHTO   H36 4578   4.118   5.852   0.876 -0.8262  0.7920  1.1544
   11CHTO   C30 4579   4.228   5.644   0.806  0.2225  0.1725 -0.5957
   11CHTO   H58 4580   4.219   5.709   0.718  3.0844 -0.5989 -1.5087
   11CHTO    N6 4581   4.101   5.567   0.806  0.6110  0.7066  0.0381
   11CHTO   H45 4582   4.117   5.478   0.865 -1.9655  0.8761  1.0471
   11CHTO   H46 4583   4.066   5.541   0.707  0.2448 -0.9385  0.5910
   11CHTO   C33 4584   4.346   5.551   0.764  0.0015  0.3294  0.0913
   11CHTO   H61 4585   4.339   5.458   0.822  3.3799  0.0431  0.1489
   11CHTO   O18 4586   4.473   5.611   0.795  0.1415  0.2111 -0.5660
   11CHTO   C28 4587   4.474   5.654   0.933  0.3240 -0.2089 -0.0432
   11CHTO   H56 4588   4.449   5.578   1.006  0.0027  0.0320  0.0984
   11CHTO   C35 4589   4.626   5.685   0.960  0.2811  0.2368 -0.7738
   11CHTO   O24 4590   4.649   5.709   1.101  0.1746  0.5010 -0.2203
   11CHTO   H39 4591   4.614   5.794   1.119 -0.0183  0.2928  0.3885
   11CHTO    O9 4592   4.337   5.506   0.628 -0.3920  0.0759  0.1966
   11CHTO   C13 4593   4.417   5.623   0.529 -0.6085 -0.0665 -0.2869
   11CHTO   H26 4594   4.444   5.709   0.595  0.3036  0.3473 -1.1912
   11CHTO   C11 4595   4.326   5.662   0.407  0.0642 -0.1339 -0.3194
   11CHTO   H24 4596   4.231   5.702   0.445 -0.6280 -0.8006 -1.3010
   11CHTO    O8 4597   4.287   5.550   0.318  0.1346 -0.8642 -0.5942
   11CHTO    H3 4598   4.239   5.595   0.251  1.3062 -0.8358 -1.4376
   11CHTO    C9 4599   4.394   5.780   0.328  0.1904  0.5772  0.4938
   11CHTO   H22 4600   4.405   5.868   0.393  0.2462  1.2033 -0.3424
   11CHTO    N2 4601   4.321   5.812   0.204  0.2738 -0.7246  0.2665
   11CHTO   H10 4602   4.269   5.906   0.205  1.4574 -0.0315 -1.0457
   11CHTO   H11 4603   4.258   5.731   0.168 -1.0385  0.6698 -0.6159
   11CHTO    C7 4604   4.548   5.744   0.296 -0.7190 -0.2871  0.2219
   11CHTO   H20 4605   4.602   5.822   0.353 -1.0993  0.3073 -0.2240
   11CHTO    O4 4606   4.586   5.609   0.334 -0.4524 -0.3095  0.0544
   11CHTO   C14 4607   4.556   5.579   0.474 -0.3743 -0.5967 -0.2975
   11CHTO   H27 4608   4.633   5.633   0.533 -1.0744 -1.3265  1.3104
   11CHTO   C18 4609   4.578   5.424   0.507 -0.6175  0.1821  0.2741
   11CHTO   O13 4610   4.524   5.345   0.405 -0.2838 -0.0864 -0.3238
   11CHTO    H7 4611   4.572   5.265   0.410 -0.0570  0.0339 -0.5655
   11CHTO    O2 4612   4.603   5.768   0.144 -0.1501 -0.8794  0.0392
   11CHTO    C1 4613   4.697   5.879   0.134  0.6609  0.6537  0.3153
   11CHTO   H14 4614   4.778   5.866   0.209  1.2541  0.1115 -0.4171
   11CHTO    C2 4615   4.639   6.028   0.146  0.7885 -0.2645  0.4768
   11CHTO   H15 4616   4.559   6.032   0.072  1.4218 -1.9551 -0.3328
   11CHTO    O6 4617   4.590   6.049   0.286 -0.1413  0.0154 -0.0967
   11CHTO    H1 4618   4.534   6.124   0.286  1.0124  0.9351 -3.2694
   11CHTO    C3 4619   4.748   6.135   0.122  0.2767 -0.3761  0.5784
   11CHTO   H16 4620   4.823   6.122   0.201 -1.1718 -0.9641  1.8840
   11CHTO    N1 4621   4.699   6.278   0.119 -0.6123  0.1331 -0.4174
   11CHTO    H8 4622   4.675   6.314   0.020 -1.1612 -0.6173 -0.5593
   11CHTO    H9 4623   4.619   6.285   0.191  0.6121  0.0954  0.9619
   11CHTO    C4 4624   4.817   6.096  -0.010 -0.0006  0.2322 -0.6546
   11CHTO   H17 4625   4.747   6.109  -0.092 -2.3331 -0.2844  1.2152
   11CHTO    O1 4626   4.872   5.962  -0.013  0.0435  0.3516  0.0502
   11CHTO    C5 4627   4.785   5.853   0.005  0.5895  0.1121  0.0721
   11CHTO   H18 4628   4.713   5.845  -0.077 -0.8808  0.2244  1.3425
   11CHTO   C16 4629   4.869   5.730   0.012  0.1121  0.4920 -0.0383
   11CHTO   O11 4630   4.930   5.690  -0.111 -0.0396 -0.2896 -0.1143
   11CHTO    H5 4631   4.866   5.699  -0.178 -2.2362 -0.3101  1.9022
   11CHTO    O3 4632   4.936   6.178  -0.040 -0.0073 -0.3009  0.3499
   11CHTO    C6 4633   4.971   6.183  -0.183 -0.0547 -0.3257  0.4578
   11CHTO   H19 4634   4.917   6.117  -0.250 -1.0047 -0.5867  1.4764
   11CHTO    C8 4635   4.965   6.332  -0.235  0.2791 -0.2375  0.7609
   11CHTO   H21 4636   5.028   6.397  -0.172  0.6649 -0.3291  0.4748
   11CHTO    O7 4637   4.824   6.367  -0.232  0.2811  0.4691  1.0240
   11CHTO    H2 4638   4.805   6.437  -0.172 -0.0854 -1.2905  3.0196
   11CHTO   C12 4639   5.028   6.343  -0.387 -0.4149  0.5947  0.4628
   11CHTO   H25 4640   4.964   6.297  -0.465  0.7798 -0.0349 -0.1668
   11CHTO    N3 4641   5.024   6.493  -0.422  0.0041  0.1863 -0.7713
   11CHTO   H12 4642   5.070   6.502  -0.519 -1.0481 -1.3398 -1.4317
   11CHTO   H13 4643   5.092   6.546  -0.356 -0.0178 -2.6152  1.6531
   11CHTO   C15 4644   5.167   6.274  -0.392 -0.1741  0.0655  0.6286
   11CHTO   H28 4645   5.251   6.326  -0.345  2.9279 -1.4613 -2.9380
   11CHTO   O10 4646   5.202   6.250  -0.548 -0.2884  0.2316  0.0809
   11CHTO    H4 4647   5.145   6.301  -0.602 -1.1299 -2.2866 -1.5314
   11CHTO    O5 4648   5.147   6.143  -0.337  0.4546  0.1594 -0.1455
   11CHTO   C10 4649   5.116   6.137  -0.199  0.4454 -0.2466  0.0095
   11CHTO   H23 4650   5.187   6.201  -0.146 -0.5745  1.7899 -1.0282
   11CHTO   C17 4651   5.120   5.990  -0.159  0.2810 -0.6795  0.3683
   11CHTO   O12 4652   5.257   5.950  -0.165 -0.3228 -0.6748 -0.1581
   11CHTO    H6 4653   5.267   5.960  -0.258 -1.8353  2.1763 -0.0710
   12CHTO  H203 4654   5.062   2.504   2.523  0.2890  0.2580 -0.0363
   12CHTO   O82 4655   5.134   2.454   2.490  0.1108 -0.2261  0.2996
   12CHTO  C123 4656   5.153   2.353   2.582  0.3480  0.5031  0.9672
   12CHTO  H227 4657   5.193   2.399   2.674  3.3149 -1.3503  0.6760
   12CHTO   O77 4658   5.016   2.299   2.616 -0.4663  0.1755 -0.0179
   12CHTO  C118 4659   5.000   2.173   2.685 -0.2138  0.7109 -0.3555
   12CHTO  H222 4660   5.030   2.190   2.789 -2.4026 -1.8595  0.7511
   12CHTO  C125 4661   4.852   2.122   2.686 -0.2173  0.2068 -0.5726
   12CHTO   O84 4662   4.791   2.110   2.556  0.0600 -0.0929  0.1198
   12CHTO  H205 4663   4.772   2.197   2.527  0.1478  0.7830  2.5652
   12CHTO  C114 4664   5.099   2.062   2.634  0.6642  0.4866 -0.0939
   12CHTO  H218 4665   5.077   2.032   2.532  2.4329 -1.7406  0.1611
   12CHTO  C116 4666   5.243   2.110   2.624 -0.0113  0.2121  0.8292
   12CHTO  H220 4667   5.277   2.129   2.728  2.8632  2.0015 -0.3505
   12CHTO   O79 4668   5.320   2.003   2.575 -0.0481  0.7472  0.5796
   12CHTO  H201 4669   5.398   2.032   2.532  0.1774 -0.7042 -0.0153
   12CHTO  C120 4670   5.245   2.241   2.533 -0.7792 -0.5194  0.1325
   12CHTO  H224 4671   5.211   2.196   2.437  0.7966 -0.1649 -0.6073
   12CHTO   N21 4672   5.391   2.281   2.507  0.3901 -0.2698  0.7280
   12CHTO  H211 4673   5.425   2.350   2.582 -0.7028  0.7674  0.2905
   12CHTO  H212 4674   5.457   2.198   2.488  2.1491  1.2802 -0.0378
   12CHTO   O75 4675   5.088   1.949   2.725  0.1814 -0.0739 -0.1827
   12CHTO  C112 4676   5.075   1.809   2.619 -0.5780 -0.3679  0.4345
   12CHTO  H216 4677   5.143   1.811   2.533  0.1555 -0.9056  0.9909
   12CHTO   O73 4678   4.936   1.805   2.579  0.5221  0.2824  0.6859
   12CHTO  C113 4679   4.886   1.703   2.494  0.0953  0.0579 -0.1146
   12CHTO  H217 4680   4.928   1.723   2.393 -2.2240  0.3445 -1.0529
   12CHTO  C124 4681   4.733   1.711   2.474 -0.0329  0.2018 -0.7955
   12CHTO   O83 4682   4.689   1.837   2.421  0.5463 -0.3911  0.0085
   12CHTO  H204 4683   4.601   1.844   2.452  0.1149  2.1589 -1.6036
   12CHTO  C109 4684   4.923   1.570   2.566 -0.6300 -0.0210 -0.0287
   12CHTO  H213 4685   4.858   1.565   2.655  0.0717 -2.5295  0.3845
   12CHTO  C110 4686   5.069   1.554   2.616  0.3344 -0.3336 -0.0371
   12CHTO  H214 4687   5.135   1.552   2.529  1.4396 -2.5475  0.8171
   12CHTO   O78 4688   5.087   1.427   2.687  0.0288  0.0392  0.1184
   12CHTO  H200 4689   5.138   1.368   2.635  0.6027  1.2180 -0.6788
   12CHTO  C111 4690   5.098   1.680   2.697  0.0204 -0.4720  0.2204
   12CHTO  H215 4691   5.027   1.688   2.781  2.4804  1.6381  2.1961
   12CHTO   N19 4692   5.236   1.681   2.756  0.2066  0.2758  0.2031
   12CHTO  H207 4693   5.296   1.731   2.681  0.4658 -2.4633 -1.4758
   12CHTO  H208 4694   5.229   1.742   2.845  2.7717 -0.2206  0.7913
   12CHTO   O74 4695   4.891   1.452   2.491 -0.0670  0.0657 -0.1235
   12CHTO  C115 4696   4.780   1.357   2.559  0.1567 -0.3447  0.1824
   12CHTO  H219 4697   4.799   1.333   2.664 -2.4871  0.5625  0.8924
   12CHTO   O76 4698   4.640   1.417   2.554 -0.5608  0.0158 -0.3643
   12CHTO  C122 4699   4.527   1.329   2.565 -0.1003 -0.6076  0.5997
   12CHTO  H226 4700   4.450   1.367   2.498 -0.6919 -0.7160  1.2197
   12CHTO  C126 4701   4.467   1.346   2.710 -0.4704  0.1336 -0.1661
   12CHTO   O85 4702   4.556   1.352   2.822  0.1182 -0.0414  0.3015
   12CHTO  H206 4703   4.612   1.276   2.823 -1.0108 -1.1766 -4.9045
   12CHTO  C121 4704   4.532   1.179   2.520  0.1244 -0.2009 -0.0537
   12CHTO  H225 4705   4.465   1.110   2.575  0.9541 -0.1020  1.1070
   12CHTO   O81 4706   4.497   1.163   2.381  0.3140 -0.0720  0.0877
   12CHTO  H202 4707   4.403   1.168   2.378 -0.3727 -4.5474  5.1462
   12CHTO  C119 4708   4.673   1.123   2.546  0.2938  0.1886  0.0433
   12CHTO  H223 4709   4.690   1.127   2.654  0.9117 -0.9362 -0.0093
   12CHTO  C117 4710   4.785   1.217   2.486 -1.0631  0.2627 -0.2864
   12CHTO  H221 4711   4.782   1.250   2.382  0.6234  1.0392 -0.1113
   12CHTO   N20 4712   4.923   1.154   2.504 -0.6456 -0.5356 -0.2424
   12CHTO  H209 4713   4.982   1.204   2.579 -0.3428  0.2428 -0.9915
   12CHTO  H210 4714   4.942   1.051   2.479 -1.3038 -1.2394  2.0873
   12CHTO   O80 4715   4.675   0.961   2.520  0.6569 -0.2995 -0.0543
   12CHTO  C103 4716   4.523   0.864   2.512  0.1880  0.5302  0.5683
   12CHTO  H190 4717   4.435   0.928   2.506  0.3659  0.8995  1.6797
   12CHTO  C101 4718   4.509   0.763   2.395  0.7691 -0.0016 -0.6864
   12CHTO  H188 4719   4.594   0.695   2.397  1.2714  0.6225 -0.6876
   12CHTO   O68 4720   4.519   0.847   2.259 -0.4972 -0.1614  0.6103
   12CHTO  H168 4721   4.441   0.896   2.238 -0.4216 -0.5690 -0.7092
   12CHTO   C99 4722   4.362   0.681   2.404  0.0725  0.3967 -0.3494
   12CHTO  H186 4723   4.276   0.751   2.400 -0.6392 -0.5608 -2.9223
   12CHTO   N17 4724   4.332   0.587   2.287  0.1825  0.0003  0.0485
   12CHTO  H174 4725   4.321   0.638   2.193 -3.7092  0.3050  0.6018
   12CHTO  H175 4726   4.402   0.506   2.276 -0.3613 -0.3737 -0.6055
   12CHTO   C97 4727   4.361   0.611   2.546  0.8632  0.3791  0.1343
   12CHTO  H184 4728   4.434   0.529   2.549  0.4102  0.0155  2.6587
   12CHTO   O64 4729   4.397   0.711   2.653  0.2634  0.8165 -0.0855
   12CHTO  C104 4730   4.517   0.786   2.648 -0.3785  0.7712  0.7053
   12CHTO  H191 4731   4.606   0.723   2.657 -1.2362 -0.4839  0.5831
   12CHTO  C108 4732   4.526   0.892   2.757  0.0052 -0.0185 -0.3964
   12CHTO   O71 4733   4.541   0.823   2.882  0.3051 -0.0095 -0.0958
   12CHTO  H171 4734   4.458   0.795   2.914  1.4708 -1.9484  1.3716
   12CHTO   O62 4735   4.234   0.570   2.594  0.0369 -0.0808  0.3351
   12CHTO   C91 4736   4.222   0.456   2.678 -1.2207 -0.1831  0.7358
   12CHTO  H178 4737   4.311   0.434   2.737 -0.7439 -0.1689  0.0280
   12CHTO   C92 4738   4.193   0.335   2.589  0.3671  0.1417  0.0373
   12CHTO  H179 4739   4.118   0.358   2.512  0.1633 -1.4047 -0.2449
   12CHTO   O66 4740   4.309   0.315   2.513 -0.2441  0.1580 -0.3347
   12CHTO  H166 4741   4.291   0.289   2.424  0.0854 -1.9719  0.1880
   12CHTO   C93 4742   4.165   0.206   2.677  0.0959 -0.5940  0.0621
   12CHTO  H180 4743   4.262   0.177   2.719  1.4345  5.0612  1.2816
   12CHTO   N16 4744   4.099   0.101   2.595  0.9508  0.0986  0.3962
   12CHTO  H172 4745   4.159   0.013   2.578 -0.3846 -1.3689  2.8551
   12CHTO  H173 4746   3.999   0.068   2.618  1.8008 -2.8210  0.0407
   12CHTO   C94 4747   4.068   0.236   2.799 -0.1217 -0.0674 -0.3749
   12CHTO  H181 4748   3.964   0.243   2.768 -0.4635  3.0479  1.3049
   12CHTO   O61 4749   4.109   0.353   2.871  0.3672  0.4535 -0.9209
   12CHTO   C95 4750   4.098   0.467   2.791 -0.0145  0.1794  0.3201
   12CHTO  H182 4751   3.998   0.469   2.747 -0.8174  3.3579  2.1158
   12CHTO  C106 4752   4.110   0.592   2.880 -0.0504 -0.2973 -0.3738
   12CHTO   O69 4753   4.051   0.710   2.826 -0.1680 -0.2676 -0.0497
   12CHTO  H169 4754   3.959   0.694   2.822 -0.4581  1.5614 -1.2115
   12CHTO   O63 4755   4.075   0.097   2.919  0.2054  0.1832 -0.4217
   12CHTO   C96 4756   4.177   0.119   3.033 -0.0968 -0.2946 -0.1413
   12CHTO  H183 4757   4.151   0.213   3.081 -1.0665 -0.3253 -0.5842
   12CHTO   C98 4758   4.330   0.130   2.997  0.0972  0.3885  0.9143
   12CHTO  H185 4759   4.354   0.058   2.916 -0.3718  1.9709 -0.6605
   12CHTO   O67 4760   4.355   0.261   2.941  0.2784 -0.0706 -0.2711
   12CHTO  H167 4761   4.337   0.259   2.849 -1.4852  1.2204  0.0263
   12CHTO  C102 4762   4.433   0.108   3.118  0.0091  0.4013  0.6348
   12CHTO  H189 4763   4.433   0.202   3.175  0.3776  0.1664  1.0243
   12CHTO   N18 4764   4.578   0.078   3.086  0.1719 -0.4694  0.5860
   12CHTO  H176 4765   4.634   0.106   3.174 -2.3700  3.6848  1.0159
   12CHTO  H177 4766   4.603  -0.023   3.057  2.1100  0.6568 -1.8394
   12CHTO  C105 4767   4.372  -0.004   3.212 -0.9869  0.2981 -0.9135
   12CHTO  H192 4768   4.380  -0.099   3.159 -0.6261 -0.0880 -0.1798
   12CHTO   O65 4769   4.237   0.031   3.252  0.6803 -0.2874  0.4328
   12CHTO  C100 4770   4.143   0.011   3.143 -0.5742  0.0438 -0.8128
   12CHTO  H187 4771   4.159  -0.090   3.102  2.7803 -0.0677  0.6197
   12CHTO  C107 4772   3.996   0.018   3.193  0.0849 -0.4936  0.7416
   12CHTO   O70 4773   3.971  -0.066   3.307  0.1794  0.3736  0.0052
   12CHTO  H170 4774   4.021  -0.032   3.379 -1.6813  2.0405  0.5792
   12CHTO   O57 4775   4.477  -0.018   3.344 -1.1268  0.9046  0.7850
   12CHTO   C85 4776   4.438   0.026   3.475  0.2752  0.5563  0.1813
   12CHTO  H157 4777   4.336   0.069   3.464  1.3826  2.8557 -1.2989
   12CHTO   C83 4778   4.531   0.139   3.521  0.2320 -0.0129  0.9376
   12CHTO  H155 4779   4.517   0.222   3.451  0.6795  0.1447  1.0286
   12CHTO   O56 4780   4.670   0.103   3.508  0.1058 -0.0650 -0.1847
   12CHTO  H135 4781   4.725   0.176   3.525 -1.5276  1.0781  0.3614
   12CHTO   C81 4782   4.489   0.180   3.660 -0.4848 -0.0379 -0.1017
   12CHTO  H153 4783   4.381   0.193   3.665 -0.2909  1.3562  0.7813
   12CHTO   N14 4784   4.550   0.309   3.705 -0.2038  0.8096 -0.5617
   12CHTO  H141 4785   4.654   0.322   3.683  0.2413 -0.1019  0.9195
   12CHTO  H142 4786   4.531   0.306   3.810 -1.9814  0.1043 -0.8720
   12CHTO   C79 4787   4.520   0.067   3.758  0.0122 -0.1135 -0.0172
   12CHTO  H151 4788   4.491   0.098   3.858  2.7355  0.6630  0.5583
   12CHTO   O52 4789   4.432  -0.049   3.720 -0.2318  0.1203 -0.7875
   12CHTO   C86 4790   4.445  -0.093   3.578 -0.3795  0.3100 -0.3848
   12CHTO  H158 4791   4.546  -0.138   3.576  0.3165  1.8985 -1.1108
   12CHTO   C90 4792   4.352  -0.216   3.530 -0.8365  0.1426  0.3557
   12CHTO   O60 4793   4.414  -0.341   3.581  0.7155  0.2589 -0.2074
   12CHTO  H138 4794   4.341  -0.397   3.598  0.6474  0.0411 -1.1712
   12CHTO   O50 4795   4.658   0.024   3.770 -0.0405 -0.2228 -0.6179
   12CHTO   C73 4796   4.740  -0.024   3.879 -0.6689 -0.2822 -0.2777
   12CHTO  H145 4797   4.684  -0.099   3.937  0.0240 -0.6449 -0.0742
   12CHTO   C74 4798   4.785   0.096   3.969 -0.0193 -0.0035 -0.5334
   12CHTO  H146 4799   4.696   0.149   4.006  1.0581 -0.2188  2.4689
   12CHTO   O54 4800   4.853   0.039   4.088  0.1717 -0.2705 -0.0709
   12CHTO  H133 4801   4.936   0.000   4.066  0.0157 -0.4972 -0.2505
   12CHTO   C75 4802   4.892   0.192   3.898  0.2052  0.3419 -0.6840
   12CHTO  H147 4803   4.848   0.231   3.806  0.1237  1.7049 -0.0775
   12CHTO   N13 4804   4.935   0.317   3.962 -0.0856  0.3457 -0.3393
   12CHTO  H139 4805   4.857   0.383   3.999 -0.3818 -1.0317  1.5858
   12CHTO  H140 4806   5.008   0.291   4.037 -1.1196  0.0150  0.5673
   12CHTO   C76 4807   5.014   0.100   3.851 -0.3441 -0.1676 -0.8787
   12CHTO  H148 4808   5.059   0.061   3.942 -1.0569  0.9617 -0.0231
   12CHTO   O49 4809   4.965   0.000   3.760  0.1981 -0.0910  0.0915
   12CHTO   C77 4810   4.866  -0.091   3.817 -0.0786  0.5181 -0.0304
   12CHTO  H149 4811   4.906  -0.158   3.894 -0.1033 -0.5367 -0.9134
   12CHTO   C88 4812   4.826  -0.191   3.706 -0.3682  0.5922  0.7916
   12CHTO   O58 4813   4.936  -0.290   3.680 -1.3653 -0.4366  0.4122
   12CHTO  H136 4814   4.962  -0.320   3.765 -4.1062 -1.3194  0.9902
   12CHTO   O51 4815   5.128   0.196   3.773  0.0064  0.0401 -0.5371
   12CHTO   C78 4816   5.237   0.106   3.680 -0.0435  0.3961  0.0848
   12CHTO  H150 4817   5.184   0.010   3.659 -0.6253  0.4282  1.3394
   12CHTO   C80 4818   5.369   0.080   3.756 -0.2996 -0.2101 -0.4670
   12CHTO  H152 4819   5.409   0.176   3.795  0.3304 -0.1660 -1.2268
   12CHTO   O55 4820   5.340  -0.001   3.874  0.2392 -0.2339 -0.1552
   12CHTO  H134 4821   5.270   0.036   3.924  0.9603  2.8897 -1.3546
   12CHTO   C84 4822   5.476   0.005   3.665 -0.5121  0.1361 -0.4029
   12CHTO  H156 4823   5.446  -0.100   3.661  0.4183 -0.1184 -0.8470
   12CHTO   N15 4824   5.618   0.012   3.731  0.2527  0.0977  0.3942
   12CHTO  H143 4825   5.611  -0.011   3.835  2.3077 -1.8148  0.1312
   12CHTO  H144 4826   5.677  -0.063   3.683  0.4965  0.7125 -0.2746
   12CHTO   C87 4827   5.481   0.067   3.523 -0.0962  0.7875  0.3912
   12CHTO  H159 4828   5.527   0.164   3.545 -1.5807  1.6423 -0.1890
   12CHTO   O53 4829   5.346   0.084   3.468  0.3632  0.1580 -0.1072
   12CHTO   C82 4830   5.261   0.173   3.540  0.4522  0.7082  0.5330
   12CHTO  H154 4831   5.303   0.273   3.552 -0.2245  1.2565 -1.4673
   12CHTO   C89 4832   5.122   0.192   3.466  0.0230 -0.5013  0.4655
   12CHTO   O59 4833   5.045   0.300   3.532  0.1064  0.1561  0.0844
   12CHTO  H137 4834   4.964   0.308   3.486  0.4513  2.1527 -0.2264
   12CHTO   O45 4835   5.576  -0.037   3.421  0.6521  0.0317 -0.4229
   12CHTO   C67 4836   5.629   0.011   3.297  0.5118 -0.4911  0.1290
   12CHTO  H124 4837   5.722  -0.046   3.291  0.6519 -0.1749 -0.8157
   12CHTO   C65 4838   5.531  -0.021   3.172 -0.5248  0.0664 -0.2373
   12CHTO  H122 4839   5.430  -0.036   3.210 -0.1721  2.8669  1.9772
   12CHTO   O44 4840   5.592  -0.143   3.114  0.5675 -0.1186  0.6485
   12CHTO  H102 4841   5.584  -0.218   3.171 -0.4324 -0.5722 -0.0705
   12CHTO   C63 4842   5.505   0.102   3.076 -0.4981  0.5414 -0.1471
   12CHTO  H120 4843   5.439   0.174   3.124 -0.7064  0.2568 -0.0052
   12CHTO   N11 4844   5.426   0.071   2.949 -0.5705  0.7921  0.0763
   12CHTO  H108 4845   5.479   0.008   2.880  0.2616 -0.3126  1.6825
   12CHTO  H109 4846   5.332   0.023   2.965 -0.8571  2.2197  2.9982
   12CHTO   C61 4847   5.643   0.165   3.046  1.2478 -0.4114  0.7697
   12CHTO  H118 4848   5.619   0.260   2.995 -0.6759 -0.8368  0.8425
   12CHTO   O40 4849   5.720   0.201   3.168 -0.5523  0.5664  0.3957
   12CHTO   C68 4850   5.669   0.164   3.294  0.7729 -0.3838 -0.7236
   12CHTO  H125 4851   5.578   0.223   3.320  2.1707  0.1019  3.3539
   12CHTO   C72 4852   5.774   0.188   3.410 -0.2967 -0.0384 -0.3324
   12CHTO   O48 4853   5.895   0.115   3.394 -0.1757  0.0072 -0.0832
   12CHTO  H105 4854   5.945   0.148   3.322  1.6354  0.4777  1.3631
   12CHTO   O38 4855   5.729   0.085   2.959  0.1792  0.1762  0.2023
   12CHTO   C55 4856   5.830   0.158   2.875 -0.4856 -0.3407 -0.3241
   12CHTO  H112 4857   5.837   0.259   2.918 -3.0483 -0.7905  1.2888
   12CHTO   C56 4858   5.785   0.167   2.728  0.2991 -0.1120 -0.1780
   12CHTO  H113 4859   5.746   0.068   2.700  0.2558  0.4900 -2.3604
   12CHTO   O42 4860   5.662   0.250   2.722  0.4341  0.5462  0.0887
   12CHTO  H100 4861   5.659   0.323   2.780  0.1548  1.2719 -0.8363
   12CHTO   C57 4862   5.892   0.217   2.626 -1.0759 -0.0371 -0.0986
   12CHTO  H114 4863   5.900   0.326   2.634  0.8271 -0.1568 -0.1830
   12CHTO   N10 4864   5.860   0.197   2.480  0.1248  0.8097 -0.0843
   12CHTO  H106 4865   5.787   0.268   2.444 -0.1000 -0.4020 -2.0988
   12CHTO  H107 4866   5.833   0.094   2.461  1.4584  0.2119  1.1859
   12CHTO   C58 4867   6.030   0.158   2.663 -0.7473  0.3964 -0.6572
   12CHTO  H115 4868   6.043   0.058   2.617 -2.9297 -0.2743  0.0940
   12CHTO   O37 4869   6.058   0.155   2.805 -0.1844  0.5336 -0.7736
   12CHTO   C59 4870   5.964   0.085   2.887 -0.1399  0.3580  0.5537
   12CHTO  H116 4871   5.960  -0.019   2.855  3.9458  0.0071  1.0327
   12CHTO   C70 4872   6.028   0.094   3.026  0.2913  0.3443  0.4187
   12CHTO   O46 4873   5.969  -0.004   3.111 -0.1167 -0.3023 -0.1982
   12CHTO  H103 4874   5.882   0.024   3.132  0.5676  0.9709  1.0289
   12CHTO   O39 4875   6.149   0.262   2.595  0.2101  0.0893  0.9099
   12CHTO   C60 4876   6.282   0.277   2.651  0.4066  0.7795 -1.8319
   12CHTO  H117 4877   6.291   0.210   2.736 -0.2164  2.0599 -0.7394
   12CHTO   C62 4878   6.393   0.230   2.551 -0.1504  1.0009 -0.6596
   12CHTO  H119 4879   6.361   0.133   2.509 -0.8799  1.0562 -0.2349
   12CHTO   O43 4880   6.410   0.323   2.447 -0.3332  0.2734 -0.0007
   12CHTO  H101 4881   6.464   0.396   2.469  1.1142 -0.5996 -0.5842
   12CHTO   C66 4882   6.526   0.211   2.634  0.4763 -0.2083 -0.0599
   12CHTO  H123 4883   6.508   0.138   2.714 -0.3705  0.8808  0.7635
   12CHTO   N12 4884   6.637   0.147   2.561  0.5201 -0.6616  0.3769
   12CHTO  H110 4885   6.653   0.189   2.463 -2.9761 -2.3239 -0.9889
   12CHTO  H111 4886   6.634   0.040   2.557  0.1382 -0.5876 -1.4555
   12CHTO   C69 4887   6.569   0.344   2.698 -0.4471 -1.0451 -0.4980
   12CHTO  H126 4888   6.620   0.405   2.620 -0.4893 -1.0382 -0.5195
   12CHTO   O41 4889   6.465   0.433   2.755  0.1248 -0.3735  0.2925
   12CHTO   C64 4890   6.312   0.419   2.699  0.3201 -0.0229 -1.0371
   12CHTO  H121 4891   6.289   0.493   2.620  3.0837  0.3731 -1.5073
   12CHTO   C71 4892   6.225   0.441   2.826 -0.8949  0.2421 -0.4099
   12CHTO   O47 4893   6.200   0.580   2.862  0.6592 -0.4900  0.4730
   12CHTO  H104 4894   6.200   0.634   2.785  1.5215 -2.2378 -0.7889
   12CHTO   O34 4895   6.678   0.309   2.801 -0.0399 -0.0973  0.2285
   12CHTO   C49 4896   6.671   0.296   2.964 -0.0103 -0.4702 -0.1665
   12CHTO   H91 4897   6.716   0.387   3.004 -0.8461  0.3892 -1.1431
   12CHTO   C47 4898   6.760   0.179   3.012  0.1437 -0.3528  0.7806
   12CHTO   H89 4899   6.761   0.176   3.123 -2.0352 -0.8459  0.8005
   12CHTO   O33 4900   6.896   0.186   2.963  0.2631 -0.2048  0.3835
   12CHTO   H70 4901   6.939   0.263   2.995 -0.4314  0.2717  0.2123
   12CHTO   C45 4902   6.695   0.040   2.958 -0.8039 -0.8967  0.7077
   12CHTO   H87 4903   6.685   0.051   2.849 -0.4640  2.6329  0.9630
   12CHTO    N8 4904   6.772  -0.080   2.988  0.5685  0.2221  0.0916
   12CHTO   H75 4905   6.879  -0.078   2.979  0.5411 -1.7391 -0.8328
   12CHTO   H76 4906   6.756  -0.113   3.090  1.4465  1.6345  0.6952
   12CHTO   C43 4907   6.537   0.037   3.001 -1.2797  0.2747 -0.8521
   12CHTO   H85 4908   6.492  -0.047   2.948  0.4167 -1.0358 -0.2477
   12CHTO   O29 4909   6.464   0.159   2.985 -0.0940 -0.1879  0.6422
   12CHTO   C50 4910   6.530   0.281   3.020 -0.2503 -0.0274 -0.2864
   12CHTO   H92 4911   6.473   0.362   2.971 -0.9349  0.6996  1.6573
   12CHTO   C54 4912   6.520   0.310   3.174 -0.4036 -0.0822 -0.1229
   12CHTO   O36 4913   6.385   0.311   3.227 -0.2103  0.1371 -0.1740
   12CHTO   H72 4914   6.338   0.381   3.185 -2.5477 -1.0164  0.4455
   12CHTO   O27 4915   6.525   0.003   3.142 -0.1194  0.1458  0.3351
   12CHTO   C37 4916   6.464  -0.088   3.234  0.2739 -0.0581 -0.6759
   12CHTO   H79 4917   6.544  -0.149   3.278 -0.7520 -0.7807  0.2359
   12CHTO   C38 4918   6.389  -0.008   3.343  0.2503  0.2971  0.4612
   12CHTO   H80 4919   6.334   0.073   3.292  0.6621 -1.9862 -3.8451
   12CHTO   O31 4920   6.483   0.048   3.433 -0.4655  0.2414  1.1876
   12CHTO   H68 4921   6.554  -0.010   3.455  2.0322  3.0513  0.7626
   12CHTO   C39 4922   6.277  -0.088   3.419 -0.1044 -0.3446 -0.7242
   12CHTO   H81 4923   6.333  -0.146   3.493  0.3253  0.5151 -0.3614
   12CHTO    N7 4924   6.182   0.001   3.498 -0.4993  0.3719 -0.1487
   12CHTO   H73 4925   6.102  -0.062   3.535 -0.1491  0.7247  1.2509
   12CHTO   H74 4926   6.234   0.049   3.579 -0.8972 -0.7330  0.7728
   12CHTO   C40 4927   6.197  -0.182   3.328  0.3316 -0.1913  1.0596
   12CHTO   H82 4928   6.112  -0.140   3.275  1.1084  0.2789  0.1691
   12CHTO   O26 4929   6.278  -0.260   3.240  0.3575  0.8662 -0.7204
   12CHTO   C41 4930   6.362  -0.179   3.157 -0.1049 -0.2709  0.8276
   12CHTO   H83 4931   6.299  -0.118   3.091  0.3894 -1.2673 -0.5767
   12CHTO   C52 4932   6.446  -0.280   3.073  0.4048 -0.0977  0.6993
   12CHTO   O35 4933   6.354  -0.335   2.977  0.1019  0.0349 -0.5909
   12CHTO   H71 4934   6.366  -0.284   2.899  1.1825  3.4141  1.6689
   12CHTO   O28 4935   6.151  -0.295   3.404 -0.2035  0.7129  0.2055
   12CHTO   C42 4936   6.023  -0.371   3.380 -0.4115 -1.1367  0.7491
   12CHTO   H84 4937   6.028  -0.448   3.456 -1.6036 -0.7422  1.2427
   12CHTO   C44 4938   6.006  -0.447   3.245  0.2385 -0.3283  0.0439
   12CHTO   H86 4939   6.027  -0.382   3.160  0.4735 -0.0538  0.3138
   12CHTO   O32 4940   6.107  -0.546   3.242 -0.2568 -0.0011  0.1988
   12CHTO   H69 4941   6.185  -0.498   3.223  0.1052 -0.9610 -0.7450
   12CHTO   C48 4942   5.861  -0.521   3.219  0.4464  0.2390 -0.1353
   12CHTO   H90 4943   5.846  -0.611   3.279 -0.7462 -0.2440 -1.1322
   12CHTO    N9 4944   5.833  -0.566   3.080  0.0934  0.2684  0.1764
   12CHTO   H77 4945   5.847  -0.480   3.016 -2.0361 -1.3267 -2.4966
   12CHTO   H78 4946   5.730  -0.596   3.078 -0.0304  0.6568  0.6062
   12CHTO   C51 4947   5.732  -0.431   3.272 -0.3083  0.5076  0.5746
   12CHTO   H93 4948   5.708  -0.354   3.199 -3.9203 -2.4162 -1.4538
   12CHTO   O30 4949   5.764  -0.379   3.407 -0.2174  0.0824  0.5509
   12CHTO   C46 4950   5.891  -0.290   3.411 -0.6321 -0.6664  0.8323
   12CHTO   H88 4951   5.886  -0.211   3.336  0.7704 -0.2699  1.1481
   12CHTO   C53 4952   5.909  -0.239   3.555  0.3178  0.0460 -0.6855
   12CHTO   O72 4953   5.886  -0.341   3.659 -0.0662 -0.5117 -0.5785
   12CHTO  H199 4954   5.942  -0.320   3.732 -1.0968 -1.1190  0.4141
   12CHTO   O22 4955   5.622  -0.521   3.301 -0.4265  0.4043 -0.6098
   12CHTO   C31 4956   5.479  -0.492   3.303  1.4340  0.0361 -0.4291
   12CHTO   H59 4957   5.433  -0.582   3.349  0.9778  0.9640  0.9632
   12CHTO   C29 4958   5.434  -0.375   3.396 -0.4150  0.6448 -0.2478
   12CHTO   H57 4959   5.489  -0.289   3.356 -1.0864  0.1425 -2.2953
   12CHTO   O21 4960   5.485  -0.403   3.532 -0.6138 -0.6795  0.3329
   12CHTO   H37 4961   5.432  -0.462   3.582 -0.5906  2.5740  4.4143
   12CHTO   C27 4962   5.278  -0.347   3.390 -0.0688 -0.0011 -0.2077
   12CHTO   H55 4963   5.227  -0.432   3.438 -0.3832  0.1699 -0.2391
   12CHTO    N5 4964   5.230  -0.223   3.467  0.1483  0.8913  0.6213
   12CHTO   H43 4965   5.300  -0.194   3.544 -1.7877  1.1281  2.3289
   12CHTO   H44 4966   5.223  -0.142   3.397 -1.0076  1.7487  1.7135
   12CHTO   C25 4967   5.233  -0.331   3.244 -0.5838  0.1063 -1.3255
   12CHTO   H53 4968   5.267  -0.243   3.187  0.9207 -0.1946 -0.9180
   12CHTO   O17 4969   5.277  -0.453   3.172 -0.2103  0.1492  0.3525
   12CHTO   C32 4970   5.418  -0.481   3.163 -0.3535  0.1103  0.1938
   12CHTO   H60 4971   5.460  -0.390   3.119  0.4346 -0.9134 -1.1967
   12CHTO   C36 4972   5.443  -0.606   3.068 -0.1129 -0.8183  0.5379
   12CHTO   O25 4973   5.389  -0.574   2.944  0.4229 -0.0601  0.2342
   12CHTO   H40 4974   5.439  -0.616   2.877 -0.4838 -0.5990 -0.1175
   12CHTO   O15 4975   5.074  -0.318   3.246  0.1854 -0.3552 -0.4263
   12CHTO   C19 4976   4.972  -0.273   3.161 -0.5535  0.9629  0.0949
   12CHTO   H47 4977   4.986  -0.164   3.171 -0.0171  1.2713 -3.2667
   12CHTO   C20 4978   4.983  -0.306   3.010 -0.0512  0.2287 -0.6467
   12CHTO   H48 4979   4.993  -0.414   2.995  0.4492 -0.0125  1.3073
   12CHTO   O19 4980   5.109  -0.237   2.964 -0.0415 -0.0094 -0.5813
   12CHTO   H35 4981   5.138  -0.283   2.888 -0.0031  2.6861 -2.2614
   12CHTO   C21 4982   4.860  -0.265   2.923 -0.0538  0.2651 -0.1616
   12CHTO   H49 4983   4.866  -0.157   2.910  3.1083  0.1872  0.3170
   12CHTO    N4 4984   4.867  -0.313   2.787 -0.3502  0.2823 -0.2239
   12CHTO   H41 4985   4.832  -0.415   2.779 -0.3521  0.3804 -1.6676
   12CHTO   H42 4986   4.799  -0.252   2.729  0.2148  0.3092 -0.8680
   12CHTO   C22 4987   4.726  -0.304   2.994  0.1681  0.0708 -0.4887
   12CHTO   H50 4988   4.720  -0.412   3.010 -0.1794  0.1636  0.0426
   12CHTO   O14 4989   4.730  -0.242   3.131  0.1135  0.5428  0.1262
   12CHTO   C23 4990   4.833  -0.308   3.212  0.6094 -0.1696  0.3481
   12CHTO   H51 4991   4.812  -0.416   3.204 -3.3705  0.7121 -2.2283
   12CHTO   C34 4992   4.806  -0.249   3.348 -0.0661  0.1272 -0.5463
   12CHTO   O23 4993   4.682  -0.291   3.405  0.3680 -0.1099 -0.5368
   12CHTO   H38 4994   4.610  -0.248   3.363  0.9168  1.3662  0.0046
   12CHTO   O16 4995   4.608  -0.260   2.931  0.0741 -0.1859 -0.4955
   12CHTO   C24 4996   4.500  -0.376   2.903  0.4475 -0.1834  0.3397
   12CHTO   H52 4997   4.545  -0.475   2.907  1.1396  0.0811 -0.6493
   12CHTO   C26 4998   4.443  -0.349   2.765 -0.0151  0.1246 -0.5286
   12CHTO   H54 4999   4.412  -0.243   2.761 -1.1643 -0.1801  0.0063
   12CHTO   O20 5000   4.554  -0.368   2.674  0.0440  0.3845  0.4318
   12CHTO   H36 5001   4.629  -0.319   2.701 -0.5961 -0.3912  3.8190
   12CHTO   C30 5002   4.322  -0.444   2.725 -0.2589  0.5571 -0.1757
   12CHTO   H58 5003   4.345  -0.551   2.718 -3.3579 -0.2465  1.2020
   12CHTO    N6 5004   4.261  -0.409   2.593  0.0031  0.1610 -0.3372
   12CHTO   H45 5005   4.157  -0.433   2.606  0.5140 -1.0024  1.8054
   12CHTO   H46 5006   4.296  -0.466   2.508  1.2438  2.0304 -1.1238
   12CHTO   C33 5007   4.220  -0.438   2.849 -0.0409  0.6305  0.3014
   12CHTO   H61 5008   4.161  -0.345   2.852 -0.2209  0.5427 -0.3496
   12CHTO   O18 5009   4.285  -0.458   2.978  0.7390  0.8638  0.0488
   12CHTO   C28 5010   4.390  -0.369   3.009 -0.3918 -1.1980 -0.4157
   12CHTO   H56 5011   4.352  -0.267   3.017 -2.3261 -2.0261  1.1887
   12CHTO   C35 5012   4.453  -0.398   3.143 -0.4278 -0.4467 -0.7704
   12CHTO   O24 5013   4.367  -0.396   3.260 -0.0625 -0.4347 -0.1278
   12CHTO   H39 5014   4.422  -0.413   3.334  1.4071  0.2349 -1.0455
   12CHTO    O9 5015   4.124  -0.543   2.828  0.5027  0.3279  0.2104
   12CHTO   C13 5016   4.166  -0.699   2.825 -0.4468  0.1710 -0.1087
   12CHTO   H26 5017   4.276  -0.716   2.829 -0.3944  0.5000 -0.1954
   12CHTO   C11 5018   4.099  -0.764   2.693 -0.4676  0.1441  0.0803
   12CHTO   H24 5019   4.147  -0.713   2.609  0.3439 -0.6568  0.0567
   12CHTO    O8 5020   3.961  -0.747   2.678  0.0518  0.4250 -0.2435
   12CHTO    H3 5021   3.924  -0.667   2.708 -4.1756 -2.6883  3.3512
   12CHTO    C9 5022   4.149  -0.911   2.691  0.6418 -0.8600  0.8161
   12CHTO   H22 5023   4.259  -0.900   2.691  0.5732  0.0107 -0.6819
   12CHTO    N2 5024   4.118  -0.990   2.561 -0.1721 -0.1060 -0.1001
   12CHTO   H10 5025   4.027  -0.942   2.526 -0.4703  0.4685  1.3906
   12CHTO   H11 5026   4.198  -0.981   2.489  0.4453 -0.2921  0.5595
   12CHTO    C7 5027   4.107  -0.986   2.828  0.9060 -0.5579 -0.1070
   12CHTO   H20 5028   4.199  -1.041   2.855  0.7980 -0.9423 -0.5157
   12CHTO    O4 5029   4.067  -0.900   2.939  0.3143 -0.2002  0.1023
   12CHTO   C14 5030   4.119  -0.764   2.958  0.2905  0.7567  0.0808
   12CHTO   H27 5031   4.201  -0.785   3.029  0.8721 -0.3514 -0.9116
   12CHTO   C18 5032   4.005  -0.682   3.023 -0.0905 -0.2282 -0.0013
   12CHTO   O13 5033   3.965  -0.723   3.154  0.5764 -0.7246 -0.0156
   12CHTO    H7 5034   3.905  -0.662   3.193  1.7315 -0.1789  0.9365
   12CHTO    O2 5035   3.974  -1.092   2.798  0.1122 -0.7733 -0.3552
   12CHTO    C1 5036   3.980  -1.203   2.891 -0.1803  0.4750 -0.0213
   12CHTO   H14 5037   4.038  -1.175   2.982 -0.9767 -1.3042  1.0761
   12CHTO    C2 5038   4.033  -1.335   2.825  0.2069  0.4843 -0.3025
   12CHTO   H15 5039   3.975  -1.345   2.732  0.2954  0.0532 -0.3137
   12CHTO    O6 5040   4.167  -1.315   2.789  0.2541 -0.2720  0.1378
   12CHTO    H1 5041   4.178  -1.242   2.731 -0.9204 -0.0105  0.2473
   12CHTO    C3 5042   4.014  -1.463   2.925 -0.3689  0.2898  0.1751
   12CHTO   H16 5043   4.077  -1.454   3.015 -0.0114 -2.0439  0.1751
   12CHTO    N1 5044   4.059  -1.584   2.844  0.2977 -0.5507 -0.0901
   12CHTO    H8 5045   4.079  -1.553   2.743 -3.5130  0.0465 -0.7549
   12CHTO    H9 5046   4.144  -1.625   2.896 -0.1819 -0.0109  1.1417
   12CHTO    C4 5047   3.867  -1.468   2.975  0.0346 -0.1251  0.3633
   12CHTO   H17 5048   3.804  -1.496   2.890  0.8126  1.3786 -0.7214
   12CHTO    O1 5049   3.835  -1.345   3.032 -0.6947  0.1839 -0.8637
   12CHTO    C5 5050   3.831  -1.227   2.944 -0.2918  0.3043 -0.5037
   12CHTO   H18 5051   3.767  -1.253   2.860  0.8924  1.8254 -1.9067
   12CHTO   C16 5052   3.768  -1.106   3.030  0.1889  0.5070  0.1343
   12CHTO   O11 5053   3.847  -1.049   3.133 -0.0833 -0.3958 -0.5127
   12CHTO    H5 5054   3.890  -0.969   3.110 -0.1584 -0.7125 -1.7807
   12CHTO    O3 5055   3.849  -1.568   3.083 -0.0753 -0.3424 -0.2496
   12CHTO    C6 5056   3.715  -1.598   3.132  0.8438 -0.2819  0.4134
   12CHTO   H19 5057   3.641  -1.518   3.129 -0.1081 -1.0648  2.1612
   12CHTO    C8 5058   3.652  -1.709   3.039 -0.5865 -0.2826  0.5315
   12CHTO   H21 5059   3.731  -1.781   3.020 -0.6619 -0.3679  0.5407
   12CHTO    O7 5060   3.620  -1.637   2.920  0.0108  0.7799  0.1469
   12CHTO    H2 5061   3.570  -1.558   2.929 -2.6691 -0.5780 -2.1955
   12CHTO   C12 5062   3.524  -1.777   3.109  0.2080 -0.8650 -0.5302
   12CHTO   H25 5063   3.447  -1.697   3.104  2.6181  1.4148 -2.8401
   12CHTO    N3 5064   3.469  -1.893   3.027 -0.1854 -0.7710 -0.1926
   12CHTO   H12 5065   3.378  -1.921   3.078  0.1618  0.0680  0.9099
   12CHTO   H13 5066   3.532  -1.980   3.013 -2.5448 -2.3392 -1.4128
   12CHTO   C15 5067   3.556  -1.807   3.256 -0.3337 -0.8691  0.1773
   12CHTO   H28 5068   3.626  -1.890   3.265  1.3528  0.4562 -0.5626
   12CHTO   O10 5069   3.438  -1.833   3.327  0.1228 -0.2546 -0.0157
   12CHTO    H4 5070   3.454  -1.904   3.386  1.9052 -0.4316 -0.7060
   12CHTO    O5 5071   3.600  -1.689   3.330  0.1940 -0.1712 -0.2645
   12CHTO   C10 5072   3.724  -1.650   3.279 -0.2045  0.0855  0.5363
   12CHTO   H23 5073   3.782  -1.741   3.278 -0.4461 -0.0706 -0.9716
   12CHTO   C17 5074   3.795  -1.543   3.369 -0.3922 -0.3820  0.4830
   12CHTO   O12 5075   3.832  -1.597   3.494  0.2819 -0.0637  0.0992
   12CHTO    H6 5076   3.922  -1.623   3.493  0.0869 -1.0388  2.5872
   13CHTO  H203 5077   7.649   5.054   2.070 -1.5631 -1.5321 -0.5353
   13CHTO   O82 5078   7.701   5.053   1.992 -0.6031  0.2187  0.0633
   13CHTO  C123 5079   7.621   5.076   1.873 -0.5968  0.6905  0.5851
   13CHTO  H227 5080   7.608   4.982   1.817  1.9576  1.5998 -1.6685
   13CHTO   O77 5081   7.489   5.114   1.935 -0.0355  0.4308  0.1002
   13CHTO  C118 5082   7.387   5.151   1.840  0.3852  0.0850  0.0225
   13CHTO  H222 5083   7.372   5.080   1.757 -0.4378  0.1664  0.1020
   13CHTO  C125 5084   7.251   5.173   1.917 -0.0074  0.3702 -0.0622
   13CHTO   O84 5085   7.134   5.131   1.849 -0.1117  0.2069  0.6763
   13CHTO  H205 5086   7.151   5.044   1.819  0.6023  1.1434 -1.7909
   13CHTO  C114 5087   7.436   5.289   1.778  0.4506  0.0743 -0.2468
   13CHTO  H218 5088   7.454   5.362   1.857  1.5492 -0.3941 -0.0453
   13CHTO  C116 5089   7.573   5.265   1.698 -0.0670  0.1385 -1.0591
   13CHTO  H220 5090   7.546   5.201   1.611  0.9862  0.7954 -1.8865
   13CHTO   O79 5091   7.609   5.398   1.648 -0.0540 -0.0426 -0.0661
   13CHTO  H201 5092   7.684   5.382   1.594 -0.1578  1.2511 -0.6136
   13CHTO  C120 5093   7.689   5.201   1.790 -0.1563  0.3448 -0.5539
   13CHTO  H224 5094   7.719   5.288   1.852  0.4460 -0.2514  0.0002
   13CHTO   N21 5095   7.802   5.165   1.714  0.5030  0.3351  0.2600
   13CHTO  H211 5096   7.885   5.142   1.780 -0.8140  0.4375  1.9964
   13CHTO  H212 5097   7.774   5.075   1.662 -0.2578  0.6821  0.0585
   13CHTO   O75 5098   7.336   5.337   1.682  0.5973 -0.4679  0.4589
   13CHTO  C112 5099   7.282   5.497   1.712 -0.3871  0.1606  0.5303
   13CHTO  H216 5100   7.364   5.551   1.761  0.7660 -1.1836  0.1148
   13CHTO   O73 5101   7.163   5.487   1.798 -0.0431  0.2052  0.1322
   13CHTO  C113 5102   7.083   5.612   1.809  0.9286 -0.0466 -0.7128
   13CHTO  H217 5103   7.137   5.694   1.861  1.5667 -2.5552  2.7428
   13CHTO  C124 5104   6.961   5.594   1.903 -0.2990  0.7393  0.1807
   13CHTO   O83 5105   6.880   5.476   1.876 -0.2332  0.2484 -0.4367
   13CHTO  H204 5106   6.807   5.474   1.934 -0.8898 -1.3203 -1.2959
   13CHTO  C109 5107   7.040   5.660   1.667 -0.0278  0.7150  0.1424
   13CHTO  H213 5108   6.988   5.575   1.620  1.5675 -0.0905 -0.1796
   13CHTO  C110 5109   7.162   5.694   1.573  0.2746 -0.2113 -0.0874
   13CHTO  H214 5110   7.220   5.767   1.629  1.3028 -0.4598 -0.8307
   13CHTO   O78 5111   7.133   5.755   1.448 -0.1819  0.8974  0.6821
   13CHTO  H200 5112   7.100   5.692   1.387  0.3663 -0.9425  2.2457
   13CHTO  C111 5113   7.250   5.561   1.564  0.6632  0.3941  0.3075
   13CHTO  H215 5114   7.189   5.489   1.508 -1.7458  2.3276  0.3186
   13CHTO   N19 5115   7.366   5.584   1.479 -0.4759 -0.0434  0.4150
   13CHTO  H207 5116   7.428   5.496   1.472  1.3210  1.0512  2.3761
   13CHTO  H208 5117   7.332   5.608   1.379  1.1463  1.6481  0.2539
   13CHTO   O74 5118   6.957   5.781   1.686  0.3850 -0.0561  0.1223
   13CHTO  C115 5119   6.788   5.776   1.652 -0.7236 -0.1839  0.0526
   13CHTO  H219 5120   6.761   5.820   1.556 -1.1302  1.5890  0.9613
   13CHTO   O76 5121   6.737   5.635   1.648  0.3937  0.2659  0.3255
   13CHTO  C122 5122   6.599   5.614   1.635 -0.4051 -0.2762  0.0281
   13CHTO  H226 5123   6.588   5.508   1.655  0.7138 -0.1435  1.4815
   13CHTO  C126 5124   6.539   5.636   1.480  0.0986 -0.0689 -0.1928
   13CHTO   O85 5125   6.397   5.624   1.486  0.2959 -0.1558  0.1506
   13CHTO  H206 5126   6.360   5.698   1.442  0.7249 -1.0434 -1.7229
   13CHTO  C121 5127   6.522   5.691   1.746  0.5358 -0.5612 -0.3216
   13CHTO  H225 5128   6.413   5.681   1.727 -0.1241  0.6357  2.6569
   13CHTO   O81 5129   6.540   5.637   1.879 -0.0213 -0.0636  0.3665
   13CHTO  H202 5130   6.503   5.551   1.874 -2.0496  0.6863  1.9803
   13CHTO  C119 5131   6.558   5.842   1.749  0.5966  0.7826  0.5875
   13CHTO  H223 5132   6.517   5.883   1.657  0.3439 -0.2141  0.2620
   13CHTO  C117 5133   6.716   5.856   1.760 -0.4781 -0.4275 -0.0774
   13CHTO  H221 5134   6.763   5.826   1.854  0.2363 -1.6300 -0.7975
   13CHTO   N20 5135   6.758   6.001   1.754  0.1618 -0.1831  0.3184
   13CHTO  H209 5136   6.713   6.050   1.668  0.2306 -1.3477 -0.3965
   13CHTO  H210 5137   6.730   6.052   1.845 -2.3982  0.7706 -0.9556
   13CHTO   O80 5138   6.481   5.923   1.857  0.5658 -0.0191 -0.6347
   13CHTO  C103 5139   6.321   5.992   1.821 -0.4607 -0.0928  0.4585
   13CHTO  H190 5140   6.294   6.062   1.899 -0.1229  1.0645 -0.4437
   13CHTO  C101 5141   6.318   6.075   1.695  0.5792 -0.6781  0.2926
   13CHTO  H188 5142   6.360   6.018   1.612 -0.2239 -1.8111  0.6449
   13CHTO   O68 5143   6.425   6.196   1.717 -0.0901  0.3798 -0.7882
   13CHTO  H168 5144   6.403   6.233   1.800 -0.7002 -1.0058 -0.3055
   13CHTO   C99 5145   6.166   6.125   1.664 -0.1476 -0.4415  0.1137
   13CHTO  H186 5146   6.146   6.198   1.745 -2.3570 -0.6838 -0.1610
   13CHTO   N17 5147   6.155   6.194   1.533  0.0278 -0.3973 -0.1353
   13CHTO  H174 5148   6.186   6.129   1.452  2.6791  1.4656 -0.6700
   13CHTO  H175 5149   6.063   6.249   1.523 -1.1986 -2.5079 -0.9353
   13CHTO   C97 5150   6.066   6.009   1.683  0.3661 -0.5842 -0.1545
   13CHTO  H184 5151   6.085   5.939   1.600 -0.4555 -0.6617 -0.2858
   13CHTO   O64 5152   6.084   5.943   1.814  0.0378 -0.2951  0.4794
   13CHTO  C104 5153   6.217   5.882   1.824  0.3680  0.5588 -0.0633
   13CHTO  H191 5154   6.235   5.811   1.743 -0.3515  2.8017 -2.2601
   13CHTO  C108 5155   6.228   5.806   1.955  0.1816  0.1713 -0.1235
   13CHTO   O71 5156   6.138   5.699   1.965  0.0282 -0.1498  0.7356
   13CHTO  H171 5157   6.111   5.681   2.053 -1.4537 -0.5794  0.2010
   13CHTO   O62 5158   5.929   6.053   1.657  0.0562 -0.0923  0.2328
   13CHTO   C91 5159   5.836   5.955   1.621 -0.3503  1.2314 -0.0313
   13CHTO  H178 5160   5.876   5.856   1.641  0.2769  1.3456 -0.7186
   13CHTO   C92 5161   5.808   5.967   1.471 -0.6158  0.0107 -0.0050
   13CHTO  H179 5162   5.787   6.072   1.446 -0.8696  0.0285  0.2815
   13CHTO   O66 5163   5.933   5.942   1.395 -0.2443  0.0958  0.1387
   13CHTO  H166 5164   6.004   5.898   1.438  0.0349 -0.9289 -1.3405
   13CHTO   C93 5165   5.691   5.873   1.418  0.2768 -0.3666 -0.3540
   13CHTO  H180 5166   5.738   5.774   1.427  0.0857 -0.3805  0.4925
   13CHTO   N16 5167   5.646   5.888   1.278 -0.1928 -0.2797 -0.2438
   13CHTO  H172 5168   5.733   5.894   1.214  0.1930 -2.2936  0.0575
   13CHTO  H173 5169   5.587   5.978   1.282  2.2948  1.4407 -1.3376
   13CHTO   C94 5170   5.573   5.880   1.521 -0.8221 -0.4413  0.8161
   13CHTO  H181 5171   5.527   5.979   1.515  1.9846  0.8636  0.1496
   13CHTO   O61 5172   5.615   5.856   1.656  0.0605 -0.0906 -0.0032
   13CHTO   C95 5173   5.695   5.968   1.698 -0.3602 -0.3418 -0.3218
   13CHTO  H182 5174   5.643   6.061   1.678 -0.5999 -0.3682  0.1663
   13CHTO  C106 5175   5.711   5.957   1.856  0.2333 -0.0507 -0.0425
   13CHTO   O69 5176   5.806   5.861   1.902  0.3030  0.3299  0.1146
   13CHTO  H169 5177   5.763   5.781   1.924 -1.5791  1.0087 -0.9712
   13CHTO   O63 5178   5.460   5.766   1.490  0.1181  0.1006  0.4316
   13CHTO   C96 5179   5.313   5.793   1.541 -0.2618 -0.2623 -0.8771
   13CHTO  H183 5180   5.246   5.723   1.489 -1.7476  1.9380 -2.0280
   13CHTO   C98 5181   5.252   5.929   1.512 -0.7740 -0.1328  0.9050
   13CHTO  H185 5182   5.326   6.006   1.540  0.5185 -0.7425 -0.7975
   13CHTO   O67 5183   5.234   5.937   1.368  0.2466  0.5055  0.1395
   13CHTO  H167 5184   5.172   5.875   1.334 -0.3698  0.9024  0.5219
   13CHTO  C102 5185   5.120   5.961   1.595  0.8616 -0.3922 -0.2848
   13CHTO  H189 5186   5.043   5.899   1.545  2.5148 -0.1395 -3.2151
   13CHTO   N18 5187   5.076   6.104   1.576  0.6486  0.3489  0.0152
   13CHTO  H176 5188   5.144   6.182   1.606  0.5101  0.3979  0.2044
   13CHTO  H177 5189   4.985   6.119   1.632  0.2630 -2.2333  0.1591
   13CHTO  C105 5190   5.134   5.912   1.743  0.2255  0.0170 -0.3162
   13CHTO  H192 5191   5.199   5.983   1.795  0.8094  0.6066 -1.8203
   13CHTO   O65 5192   5.181   5.773   1.754 -0.1557 -0.2189  0.1740
   13CHTO  C100 5193   5.310   5.771   1.697 -0.3955  0.2992  0.5886
   13CHTO  H187 5194   5.384   5.844   1.734  0.0867  0.2501 -0.2630
   13CHTO  C107 5195   5.374   5.636   1.734  0.2883 -0.4382  0.2253
   13CHTO   O70 5196   5.396   5.612   1.875  0.6920 -0.3038  0.0284
   13CHTO  H170 5197   5.335   5.670   1.916  0.3897 -0.5044 -0.1393
   13CHTO   O57 5198   4.982   5.922   1.806  0.1244  0.2517 -0.0874
   13CHTO   C85 5199   4.868   5.840   1.761 -0.0292 -0.4718 -0.3312
   13CHTO  H157 5200   4.913   5.794   1.670  0.3673 -0.7878  0.0236
   13CHTO   C83 5201   4.752   5.928   1.717 -0.2431 -0.6302 -0.7910
   13CHTO  H155 5202   4.789   5.996   1.640 -0.4297  0.2537 -0.1088
   13CHTO   O56 5203   4.713   6.008   1.834 -0.1619 -0.2445  0.2355
   13CHTO  H135 5204   4.685   6.090   1.799  1.7684  1.0134  1.5608
   13CHTO   C81 5205   4.634   5.847   1.660 -0.4939 -0.5657  0.4603
   13CHTO  H153 5206   4.669   5.794   1.571 -0.3725  0.9552 -0.4274
   13CHTO   N14 5207   4.531   5.938   1.595  0.3474  0.4013  0.0593
   13CHTO  H141 5208   4.583   5.982   1.512  2.4208  1.5843  1.9134
   13CHTO  H142 5209   4.497   6.019   1.656  0.9357  1.0967 -0.5196
   13CHTO   C79 5210   4.577   5.741   1.769  0.0965  0.4873 -0.2897
   13CHTO  H151 5211   4.519   5.668   1.714 -0.2945 -2.5572  3.9441
   13CHTO   O52 5212   4.684   5.665   1.843  0.0142 -0.1413 -0.4943
   13CHTO   C86 5213   4.812   5.727   1.869 -0.7946 -0.3904  0.1553
   13CHTO  H158 5214   4.794   5.780   1.964 -0.2061  0.0654  0.0172
   13CHTO   C90 5215   4.920   5.620   1.899  0.0751  0.2262 -0.2168
   13CHTO   O60 5216   4.944   5.539   1.780 -0.1473  0.5949 -0.8851
   13CHTO  H138 5217   5.015   5.481   1.799 -2.0622 -1.2186  0.9209
   13CHTO   O50 5218   4.489   5.795   1.874 -0.0441  0.5218  0.3451
   13CHTO   C73 5219   4.361   5.751   1.920 -0.6595 -0.2997  0.2089
   13CHTO  H145 5220   4.310   5.695   1.839 -1.3768  1.1434 -0.3548
   13CHTO   C74 5221   4.285   5.876   1.958  0.5537 -0.5587 -0.5492
   13CHTO  H146 5222   4.280   5.936   1.865 -0.7444 -3.1184 -2.1816
   13CHTO   O54 5223   4.155   5.842   2.000  0.4497 -0.5959  0.2309
   13CHTO  H133 5224   4.095   5.884   1.941  1.9008 -0.0013 -0.8310
   13CHTO   C75 5225   4.367   5.954   2.075  0.0304 -0.7305  0.6490
   13CHTO  H147 5226   4.464   5.979   2.029 -0.0036 -2.4085 -0.3610
   13CHTO   N13 5227   4.300   6.084   2.106 -0.1516 -1.0190 -0.5043
   13CHTO  H139 5228   4.199   6.092   2.069 -0.3394 -1.0517  0.0008
   13CHTO  H140 5229   4.297   6.099   2.213  0.5480 -1.9320 -0.3577
   13CHTO   C76 5230   4.388   5.849   2.194 -0.1549  0.6546 -0.5674
   13CHTO  H148 5231   4.290   5.822   2.233  1.3322 -2.2813  1.3497
   13CHTO   O49 5232   4.461   5.732   2.143  0.5981  0.8705 -0.3105
   13CHTO   C77 5233   4.382   5.661   2.047  0.2674 -0.1182  0.1108
   13CHTO  H149 5234   4.286   5.634   2.092  0.8388 -0.9202  0.8705
   13CHTO   C88 5235   4.444   5.525   2.006  0.4690 -0.1649 -0.2568
   13CHTO   O58 5236   4.436   5.430   2.110  0.3489 -0.1212 -0.4117
   13CHTO  H136 5237   4.442   5.343   2.075  2.0110  0.8775 -2.7183
   13CHTO   O51 5238   4.472   5.901   2.326  0.1563  0.0510 -0.2447
   13CHTO   C78 5239   4.613   5.912   2.326  0.7004  0.3618  0.1228
   13CHTO  H150 5240   4.645   5.966   2.418  1.8235  0.1917 -0.1543
   13CHTO   C80 5241   4.686   5.991   2.212  0.1861  0.0382  0.0543
   13CHTO  H152 5242   4.652   5.956   2.112 -1.4699  0.3680  0.4837
   13CHTO   O55 5243   4.635   6.125   2.209 -0.2348  0.5539 -0.4352
   13CHTO  H134 5244   4.542   6.131   2.199 -0.3109 -0.8453 -0.7079
   13CHTO   C84 5245   4.843   5.984   2.229 -0.3052 -0.2551  0.2124
   13CHTO  H156 5246   4.856   6.050   2.315 -0.9075  0.6105 -0.3464
   13CHTO   N15 5247   4.929   6.037   2.119  0.0799  0.2896 -0.3950
   13CHTO  H143 5248   4.919   5.964   2.042  1.5275  0.1616 -0.4721
   13CHTO  H144 5249   4.902   6.134   2.083  0.3379 -0.3687 -2.3975
   13CHTO   C87 5250   4.885   5.841   2.256 -0.0418 -0.1515  0.0289
   13CHTO  H159 5251   4.868   5.774   2.172 -1.2932 -0.6322  0.6644
   13CHTO   O53 5252   4.808   5.785   2.390  0.3360  0.0920  0.5928
   13CHTO   C82 5253   4.671   5.775   2.353 -0.3985  0.2895 -0.6924
   13CHTO  H154 5254   4.664   5.705   2.270  1.8873 -2.4844  1.3624
   13CHTO   C89 5255   4.610   5.704   2.479 -0.1474  0.6293 -0.1395
   13CHTO   O59 5256   4.469   5.672   2.470 -0.3378  0.4728  0.2530
   13CHTO  H137 5257   4.445   5.595   2.422 -0.7517  1.9839 -2.0361
   13CHTO   O45 5258   5.034   5.833   2.287  0.2804 -0.7646 -0.0145
   13CHTO   C67 5259   5.085   5.701   2.278 -0.4196 -0.2192 -0.0437
   13CHTO  H124 5260   5.013   5.627   2.242 -2.6499  2.1111 -0.5447
   13CHTO   C65 5261   5.203   5.706   2.167 -0.1580  0.7285 -0.0137
   13CHTO  H122 5262   5.155   5.744   2.076  3.1777  0.4656 -1.9693
   13CHTO   O44 5263   5.240   5.571   2.121  0.0557  0.3619  0.8257
   13CHTO  H102 5264   5.262   5.562   2.030 -1.2200  2.6629  0.2273
   13CHTO   C63 5265   5.319   5.805   2.203  0.4581 -0.2438 -0.0359
   13CHTO  H120 5266   5.271   5.902   2.215  2.1066  0.4188  1.4621
   13CHTO   N11 5267   5.414   5.840   2.097 -0.3198  0.0294  0.6325
   13CHTO  H108 5268   5.359   5.835   2.006 -0.1008  0.7856  0.4583
   13CHTO  H109 5269   5.508   5.790   2.083  0.5308  1.7629  0.1117
   13CHTO   C61 5270   5.375   5.761   2.351 -0.6109 -0.2575 -0.0818
   13CHTO  H118 5271   5.425   5.854   2.383 -0.9160  0.5199 -1.8071
   13CHTO   O40 5272   5.268   5.731   2.444  0.1202 -0.3199  0.1265
   13CHTO   C68 5273   5.150   5.655   2.412  0.0570 -0.2328  0.1641
   13CHTO  H125 5274   5.079   5.699   2.486  0.4022 -1.2139  1.0938
   13CHTO   C72 5275   5.166   5.498   2.442 -0.5385  0.2275 -0.6738
   13CHTO   O48 5276   5.267   5.426   2.371 -0.1033 -0.0142 -0.0748
   13CHTO  H105 5277   5.345   5.452   2.417 -2.2091 -0.0974  3.7042
   13CHTO   O38 5278   5.478   5.660   2.348  0.1553  0.8850  0.0177
   13CHTO   C55 5279   5.590   5.660   2.443  0.5055  0.3929 -1.0301
   13CHTO  H112 5280   5.626   5.556   2.432  1.5718  0.6470 -0.0019
   13CHTO   C56 5281   5.543   5.699   2.594  0.0231  0.1029 -0.4941
   13CHTO  H113 5282   5.506   5.802   2.599  1.2609  0.5338 -0.1130
   13CHTO   O42 5283   5.439   5.607   2.635 -0.1639 -0.6547  0.4712
   13CHTO  H100 5284   5.364   5.648   2.672  0.5634  0.2009  0.9987
   13CHTO   C57 5285   5.665   5.697   2.693 -0.4188 -0.3099 -0.5432
   13CHTO  H114 5286   5.687   5.591   2.702 -2.3587 -0.7549 -0.8334
   13CHTO   N10 5287   5.642   5.759   2.827 -0.5030  0.4410 -0.1666
   13CHTO  H106 5288   5.722   5.727   2.893 -1.5383 -1.1171  0.3839
   13CHTO  H107 5289   5.647   5.866   2.822  1.4014  0.3997  0.4280
   13CHTO   C58 5290   5.791   5.760   2.631  0.1055 -0.3050 -0.0248
   13CHTO  H115 5291   5.767   5.868   2.618 -1.8210 -0.6264  0.7050
   13CHTO   O37 5292   5.818   5.712   2.497  0.7129 -0.4016  0.7029
   13CHTO   C59 5293   5.712   5.741   2.402 -0.7111  0.1057 -0.6034
   13CHTO  H116 5294   5.699   5.849   2.393 -0.3121  0.5397  3.2663
   13CHTO   C70 5295   5.763   5.693   2.263 -0.0822  0.2627  0.0381
   13CHTO   O46 5296   5.866   5.775   2.211  0.3116 -0.3225 -0.8823
   13CHTO  H103 5297   5.844   5.831   2.139  3.1796  0.2961 -1.3450
   13CHTO   O39 5298   5.930   5.724   2.719  0.3096 -0.3679  0.2907
   13CHTO   C60 5299   6.035   5.817   2.694 -1.2027 -0.0078 -0.0541
   13CHTO  H117 5300   6.040   5.836   2.587  1.0153  2.3429  0.4185
   13CHTO   C62 5301   6.013   5.951   2.772  0.1057 -0.4601  0.2162
   13CHTO  H119 5302   5.926   6.003   2.728  0.2773  1.2682  1.8312
   13CHTO   O43 5303   5.982   5.911   2.907 -0.0511 -0.1710 -0.5607
   13CHTO  H101 5304   6.029   5.836   2.936  0.8187  0.5456 -0.0680
   13CHTO   C66 5305   6.133   6.057   2.759  0.2027  0.2386 -0.7313
   13CHTO  H123 5306   6.136   6.087   2.654  1.6742  0.0357 -0.7608
   13CHTO   N12 5307   6.098   6.185   2.825 -0.1965  0.5838 -0.7674
   13CHTO  H110 5308   5.993   6.185   2.850 -0.0834 -1.0477 -0.2647
   13CHTO  H111 5309   6.124   6.268   2.761  1.8741  1.9676  1.8150
   13CHTO   C69 5310   6.264   5.988   2.801  0.1917  0.0249 -0.3054
   13CHTO  H126 5311   6.261   5.948   2.904  4.6401 -1.2679 -0.6046
   13CHTO   O41 5312   6.288   5.859   2.704 -0.1063 -0.1798  0.4246
   13CHTO   C64 5313   6.172   5.758   2.737 -0.1164 -0.2201 -0.0151
   13CHTO  H121 5314   6.165   5.721   2.841 -5.2959  1.8052  0.5006
   13CHTO   C71 5315   6.191   5.628   2.653 -0.6798  0.3511  0.3122
   13CHTO   O47 5316   6.316   5.572   2.689 -0.4915  0.6618  0.2602
   13CHTO  H104 5317   6.298   5.521   2.766  1.1597 -0.5589 -0.1336
   13CHTO   O34 5318   6.379   6.080   2.788 -0.0024 -0.5532  0.3768
   13CHTO   C49 5319   6.527   6.126   2.775 -0.6870 -0.5717  0.0658
   13CHTO   H91 5320   6.592   6.043   2.749 -0.3081 -0.1252 -0.4168
   13CHTO   C47 5321   6.576   6.182   2.909 -0.2234 -0.3919  0.3382
   13CHTO   H89 5322   6.686   6.191   2.895 -0.1871 -1.2607  0.0319
   13CHTO   O33 5323   6.556   6.084   3.011  0.4616  0.2098  0.0167
   13CHTO   H70 5324   6.632   6.074   3.066 -0.2756 -1.6769  0.7442
   13CHTO   C45 5325   6.500   6.331   2.939 -0.4750 -0.0057 -0.1622
   13CHTO   H87 5326   6.415   6.310   3.006 -0.6497  3.7256  0.8924
   13CHTO    N8 5327   6.590   6.421   3.014  0.0409  0.5038  0.3894
   13CHTO   H75 5328   6.529   6.492   3.067 -3.2894 -0.4991 -1.9253
   13CHTO   H76 5329   6.651   6.366   3.084 -0.3003 -0.5735 -0.1454
   13CHTO   C43 5330   6.430   6.393   2.805  0.5847  0.5177 -0.3776
   13CHTO   H85 5331   6.336   6.339   2.790  1.5268 -1.7642  1.6085
   13CHTO   O29 5332   6.516   6.381   2.692 -0.0099 -0.3571 -0.4617
   13CHTO   C50 5333   6.543   6.239   2.662 -0.7101 -0.4689  0.1348
   13CHTO   H92 5334   6.470   6.206   2.587 -0.0539 -2.0075  0.1551
   13CHTO   C54 5335   6.678   6.236   2.592 -0.5615  0.2458 -0.2917
   13CHTO   O36 5336   6.735   6.102   2.576 -0.1752 -0.3419 -0.0676
   13CHTO   H72 5337   6.745   6.059   2.659  0.0820 -0.3207 -0.0881
   13CHTO   O27 5338   6.400   6.534   2.813  0.2129  0.2112 -0.0919
   13CHTO   C37 5339   6.302   6.640   2.806 -0.0878 -0.5351  0.3790
   13CHTO   H79 5340   6.228   6.619   2.728 -0.2686  0.4387  0.2842
   13CHTO   C38 5341   6.243   6.646   2.951 -0.1917  1.2275 -0.2534
   13CHTO   H80 5342   6.328   6.657   3.020 -0.6685 -0.3142  0.6093
   13CHTO   O31 5343   6.166   6.527   2.990 -0.4213  0.6043 -0.3017
   13CHTO   H68 5344   6.228   6.457   2.994 -1.5370 -0.4118 -0.5693
   13CHTO   C39 5345   6.156   6.772   2.957 -0.4978 -0.3731  0.0667
   13CHTO   H81 5346   6.069   6.755   2.894 -0.9929  1.4691  0.2428
   13CHTO    N7 5347   6.117   6.805   3.098 -0.2420 -0.1233 -0.2180
   13CHTO   H73 5348   6.198   6.824   3.167 -0.1691  0.7668 -0.5523
   13CHTO   H74 5349   6.034   6.751   3.143  1.2228 -0.9140  1.6047
   13CHTO   C40 5350   6.220   6.903   2.892  0.2255 -0.3888  0.1611
   13CHTO   H82 5351   6.285   6.962   2.957  0.1258 -2.7097  2.4532
   13CHTO   O26 5352   6.278   6.875   2.762  0.3669  0.0583 -0.6449
   13CHTO   C41 5353   6.378   6.766   2.764  0.4799  0.8633 -0.4202
   13CHTO   H83 5354   6.453   6.797   2.838  0.4358 -1.0494  0.4465
   13CHTO   C52 5355   6.453   6.760   2.630 -0.0942  0.0540 -0.0792
   13CHTO   O35 5356   6.529   6.871   2.608  0.1884  0.7235  0.1757
   13CHTO   H71 5357   6.619   6.868   2.633  0.3377 -0.3538 -0.4148
   13CHTO   O28 5358   6.112   6.988   2.842  0.0887  0.2325 -0.1303
   13CHTO   C42 5359   6.136   7.126   2.801  0.4682  0.4744 -0.1199
   13CHTO   H84 5360   6.231   7.126   2.748  0.5269  0.6587 -0.0181
   13CHTO   C44 5361   6.146   7.245   2.908  0.2326  0.2342  0.1636
   13CHTO   H86 5362   6.059   7.243   2.973  1.1214  0.7107  1.3815
   13CHTO   O32 5363   6.259   7.220   2.994  0.0037 -0.6143 -0.3428
   13CHTO   H69 5364   6.342   7.213   2.950  0.1288  2.3681 -0.6897
   13CHTO   C48 5365   6.147   7.391   2.845 -0.8390  0.4120 -0.2544
   13CHTO   H90 5366   6.247   7.406   2.803 -0.0535  1.2059  1.8019
   13CHTO    N9 5367   6.141   7.492   2.955 -0.1557  0.4090 -0.4128
   13CHTO   H77 5368   6.222   7.476   3.024 -0.9045  0.1457  0.4118
   13CHTO   H78 5369   6.148   7.588   2.905 -0.4549  1.9509  2.3832
   13CHTO   C51 5370   6.024   7.404   2.751 -0.2811  0.3438  0.4541
   13CHTO   H93 5371   5.932   7.395   2.808  0.7687  1.3580  2.3442
   13CHTO   O30 5372   6.034   7.307   2.647  0.5172  0.0608  0.2567
   13CHTO   C46 5373   6.029   7.163   2.691  0.7994  0.5976 -0.1535
   13CHTO   H88 5374   5.932   7.152   2.739  1.5225  0.4810  1.3399
   13CHTO   C53 5375   6.026   7.081   2.566  0.0521  0.1920 -0.0762
   13CHTO   O72 5376   6.152   7.075   2.504  0.3184 -0.0787  0.4241
   13CHTO  H199 5377   6.150   7.027   2.423 -1.0247  1.9662 -0.8070
   13CHTO   O22 5378   6.022   7.532   2.682 -0.1578 -0.5376  0.8425
   13CHTO   C31 5379   5.908   7.596   2.620 -0.4094  0.3403  0.3393
   13CHTO   H59 5380   5.946   7.664   2.542  1.3048 -1.7933 -0.7326
   13CHTO   C29 5381   5.806   7.497   2.557 -0.1233  0.8798 -0.1079
   13CHTO   H57 5382   5.780   7.413   2.622  1.2186  1.6611  1.4622
   13CHTO   O21 5383   5.868   7.437   2.443 -0.3379 -0.2818 -0.0370
   13CHTO   H37 5384   5.851   7.345   2.440 -1.1515 -0.0992 -1.1825
   13CHTO   C27 5385   5.673   7.574   2.508 -0.4527  0.1980  1.0753
   13CHTO   H55 5386   5.704   7.632   2.420  0.5909 -0.6286  0.8791
   13CHTO    N5 5387   5.564   7.481   2.456 -0.2818 -0.5153 -0.7058
   13CHTO   H43 5388   5.588   7.427   2.366  0.6971  0.8070 -1.2531
   13CHTO   H44 5389   5.527   7.428   2.543  1.3372  1.4269  1.2444
   13CHTO   C25 5390   5.625   7.681   2.615 -0.4790  0.1048  0.6490
   13CHTO   H53 5391   5.591   7.611   2.693 -0.9927 -0.2345  0.1196
   13CHTO   O17 5392   5.732   7.766   2.664 -0.0773 -0.0378  0.1692
   13CHTO   C32 5393   5.841   7.696   2.728  0.4861  0.4193  0.4043
   13CHTO   H60 5394   5.793   7.631   2.800  0.1053 -1.1643 -1.2406
   13CHTO   C36 5395   5.944   7.786   2.796  0.5271  0.5428 -0.0254
   13CHTO   O25 5396   5.876   7.895   2.858 -0.0389 -0.1660  0.0162
   13CHTO   H40 5397   5.825   7.869   2.932  0.5962  2.5596  1.4718
   13CHTO   O15 5398   5.524   7.758   2.577  0.4132 -0.2279  0.4877
   13CHTO   C19 5399   5.428   7.856   2.627  0.3681  0.2360 -0.4443
   13CHTO   H47 5400   5.438   7.855   2.736  4.2615  0.3954 -0.7555
   13CHTO   C20 5401   5.458   7.999   2.569  0.5570 -0.9272 -0.6696
   13CHTO   H48 5402   5.463   8.002   2.459  0.6860  4.3887 -0.6570
   13CHTO   O19 5403   5.582   8.042   2.623 -0.8161  0.4043 -0.8446
   13CHTO   H35 5404   5.616   8.118   2.581 -2.0289  1.2840 -0.2384
   13CHTO   C21 5405   5.344   8.097   2.616 -0.3957  0.0221 -0.1929
   13CHTO   H49 5406   5.344   8.108   2.725 -0.6376  1.0417 -0.2952
   13CHTO    N4 5407   5.355   8.231   2.557 -0.1647 -0.1009 -0.1541
   13CHTO   H41 5408   5.320   8.224   2.455 -0.2062 -0.0819 -0.1406
   13CHTO   H42 5409   5.459   8.262   2.563 -0.2589  0.0127  0.9153
   13CHTO   C22 5410   5.210   8.029   2.587  0.3298 -0.3570  0.1247
   13CHTO   H50 5411   5.192   8.010   2.481  0.2141  2.3862 -0.3747
   13CHTO   O14 5412   5.201   7.904   2.656  0.0135  0.5446 -0.3930
   13CHTO   C23 5413   5.287   7.802   2.605  0.6236 -0.2863 -0.0782
   13CHTO   H51 5414   5.260   7.795   2.499 -1.6174  0.9920  0.3841
   13CHTO   C34 5415   5.254   7.667   2.668 -0.1736 -0.6335 -0.5055
   13CHTO   O23 5416   5.274   7.661   2.809  0.1498 -0.4957  0.2701
   13CHTO   H38 5417   5.359   7.693   2.832 -0.3640  0.6606  0.6320
   13CHTO   O16 5418   5.092   8.105   2.629 -0.7027 -0.6906  0.3350
   13CHTO   C24 5419   4.952   8.024   2.649  0.5997 -0.1964 -0.2768
   13CHTO   H52 5420   4.967   7.932   2.706 -1.4031  0.7406  1.8315
   13CHTO   C26 5421   4.902   7.996   2.509  0.5997 -0.0929 -1.1451
   13CHTO   H54 5422   4.926   8.085   2.447 -0.0074  2.1028  1.6400
   13CHTO   O20 5423   4.981   7.893   2.437  0.5364 -0.3498  0.2806
   13CHTO   H36 5424   4.988   7.818   2.493 -1.6070  0.2183  1.3627
   13CHTO   C30 5425   4.744   7.961   2.505 -0.5247 -1.1116 -0.4300
   13CHTO   H58 5426   4.733   7.873   2.570 -2.2159 -0.4396  0.2175
   13CHTO    N6 5427   4.679   7.949   2.370 -0.0295 -0.6512 -0.2535
   13CHTO   H45 5428   4.623   8.037   2.345  1.1816  0.1427 -0.2054
   13CHTO   H46 5429   4.628   7.855   2.351 -0.2256 -0.9965  1.9166
   13CHTO   C33 5430   4.669   8.064   2.595  0.7672 -0.5135  0.2155
   13CHTO   H61 5431   4.691   8.164   2.554  0.7741 -0.0532  1.3318
   13CHTO   O18 5432   4.729   8.052   2.719  0.7453  0.2273  0.6360
   13CHTO   C28 5433   4.861   8.105   2.731  0.2187  0.2814  0.3598
   13CHTO   H56 5434   4.860   8.206   2.687  0.5102  0.2519  0.2869
   13CHTO   C35 5435   4.904   8.127   2.881  0.2728 -0.2591 -0.0567
   13CHTO   O24 5436   5.027   8.197   2.903 -0.2698 -0.2468  0.1729
   13CHTO   H39 5437   5.030   8.261   2.834  0.4780 -0.1406  0.3062
   13CHTO    O9 5438   4.521   8.050   2.609 -0.1281 -0.0725 -0.0804
   13CHTO   C13 5439   4.472   7.933   2.717  0.3245 -0.6001  0.4732
   13CHTO   H26 5440   4.563   7.877   2.745  1.0372  1.3644  2.2147
   13CHTO   C11 5441   4.357   7.839   2.659 -0.0646  0.4691  0.1689
   13CHTO   H24 5442   4.409   7.776   2.586 -0.5956  0.9137 -0.5973
   13CHTO    O8 5443   4.255   7.919   2.598  0.0442  0.3932 -0.1613
   13CHTO    H3 5444   4.290   7.943   2.515 -0.7108 -0.2187 -0.6653
   13CHTO    C9 5445   4.306   7.738   2.767  0.3069 -0.2592  0.6722
   13CHTO   H22 5446   4.396   7.676   2.784 -0.0377 -0.3937  2.0207
   13CHTO    N2 5447   4.206   7.642   2.713 -0.2613 -0.0937 -0.0092
   13CHTO   H10 5448   4.255   7.577   2.641 -0.2390 -0.4684  0.3461
   13CHTO   H11 5449   4.124   7.700   2.673 -0.1405  0.2691  0.2707
   13CHTO    C7 5450   4.264   7.810   2.901 -0.1033 -0.8285 -0.5400
   13CHTO   H20 5451   4.338   7.768   2.972 -3.4011 -1.1555  2.8384
   13CHTO    O4 5452   4.283   7.949   2.902 -0.0243 -0.4379  0.5501
   13CHTO   C14 5453   4.412   7.997   2.854 -0.2793 -0.1176  0.4381
   13CHTO   H27 5454   4.488   7.966   2.928  0.4623 -2.0572 -1.0772
   13CHTO   C18 5455   4.403   8.153   2.835  0.0469  0.0113 -0.0941
   13CHTO   O13 5456   4.384   8.232   2.955 -0.5375 -0.6601  0.0403
   13CHTO    H7 5457   4.364   8.319   2.925  0.6098 -1.3590 -2.8766
   13CHTO    O2 5458   4.100   7.783   2.964  0.0594 -0.0455  0.3307
   13CHTO    C1 5459   4.095   7.786   3.109 -0.2717  0.8850  0.1810
   13CHTO   H14 5460   4.176   7.853   3.146  0.0915 -1.1194  3.2093
   13CHTO    C2 5461   4.117   7.640   3.166 -0.2308 -0.8256  0.1115
   13CHTO   H15 5462   4.032   7.576   3.136  0.6836 -2.3556  0.7006
   13CHTO    O6 5463   4.232   7.577   3.116 -0.1274 -0.1540 -0.4102
   13CHTO    H1 5464   4.301   7.640   3.117  0.8630 -1.0536 -4.6654
   13CHTO    C3 5465   4.120   7.652   3.327  0.2265  0.2478 -0.7386
   13CHTO   H16 5466   4.206   7.712   3.362 -1.4111  1.8747  0.6495
   13CHTO    N1 5467   4.135   7.517   3.390  0.0232 -0.2646 -0.2906
   13CHTO    H8 5468   4.211   7.454   3.346  2.4690  0.6772  2.4202
   13CHTO    H9 5469   4.156   7.523   3.496 -0.8197  3.2592 -0.2604
   13CHTO    C4 5470   3.994   7.727   3.381  0.0598  0.1970 -0.9999
   13CHTO   H17 5471   3.904   7.667   3.364 -0.1775  0.4600 -0.6987
   13CHTO    O1 5472   3.972   7.848   3.312  0.3357 -0.0282 -0.1269
   13CHTO    C5 5473   3.963   7.841   3.167  0.4737 -0.3648  0.9254
   13CHTO   H18 5474   3.881   7.773   3.142 -0.3151  0.2782  1.7223
   13CHTO   C16 5475   3.917   7.984   3.112  0.6074  0.1604 -0.5543
   13CHTO   O11 5476   4.010   8.086   3.147 -0.0992  0.0632  0.2457
   13CHTO    H5 5477   3.983   8.138   3.221 -1.0593  1.5624 -1.1293
   13CHTO    O3 5478   4.001   7.765   3.518  0.2142 -0.3809  0.3405
   13CHTO    C6 5479   3.861   7.773   3.575  0.2441 -0.8004 -0.0634
   13CHTO   H19 5480   3.779   7.784   3.504  1.2494  0.6429 -1.0300
   13CHTO    C8 5481   3.821   7.636   3.645 -0.0550 -0.6869 -0.8543
   13CHTO   H21 5482   3.896   7.605   3.719 -1.2693 -1.0677  0.2379
   13CHTO    O7 5483   3.803   7.538   3.544 -0.0433 -0.3204 -0.3297
   13CHTO    H2 5484   3.741   7.475   3.574 -2.2435  1.3095 -1.3673
   13CHTO   C12 5485   3.693   7.660   3.738  0.8490 -0.5679  0.3160
   13CHTO   H25 5486   3.600   7.647   3.678  1.3782 -0.1598 -0.5969
   13CHTO    N3 5487   3.681   7.547   3.847 -0.9182 -0.6934 -0.5388
   13CHTO   H12 5488   3.671   7.455   3.790 -0.8345 -1.9069  1.3634
   13CHTO   H13 5489   3.767   7.559   3.910  1.2989 -0.1304 -3.5770
   13CHTO   C15 5490   3.686   7.803   3.804  0.1080 -0.3836 -0.0177
   13CHTO   H28 5491   3.744   7.807   3.896 -0.1384 -2.8407  0.2848
   13CHTO   O10 5492   3.534   7.855   3.853  0.0265 -0.0216  0.6022
   13CHTO    H4 5493   3.477   7.802   3.800  2.5907  0.2279 -2.4634
   13CHTO    O5 5494   3.721   7.905   3.704  0.3407 -0.1773 -0.0176
   13CHTO   C10 5495   3.854   7.894   3.664 -0.5889  0.2841  0.1594
   13CHTO   H23 5496   3.928   7.874   3.743  1.0122  3.2780 -0.5061
   13CHTO   C17 5497   3.896   8.027   3.601  0.4646 -0.2908 -0.6632
   13CHTO   O12 5498   3.830   8.054   3.480  0.0521 -0.1480  0.3820
   13CHTO    H6 5499   3.737   8.046   3.480 -0.0822  1.3096 -0.7353
   14CHTO  H203 5500   6.423   5.277   2.464 -0.6296  0.0554 -0.7855
   14CHTO   O82 5501   6.426   5.211   2.397 -0.2582 -0.5253 -0.2030
   14CHTO  C123 5502   6.362   5.250   2.276 -0.5930 -0.1108  0.6067
   14CHTO  H227 5503   6.436   5.263   2.197  0.2982 -1.3158  1.2247
   14CHTO   O77 5504   6.264   5.144   2.236  0.0995 -0.7847  0.2770
   14CHTO  C118 5505   6.187   5.171   2.116  0.1301  0.1869 -0.0526
   14CHTO  H222 5506   6.262   5.202   2.041 -0.5120 -1.1013 -1.2505
   14CHTO  C125 5507   6.117   5.036   2.074  0.1524 -0.2339 -0.0321
   14CHTO   O84 5508   6.035   4.985   2.180 -0.4524 -0.3197 -0.1863
   14CHTO  H205 5509   5.956   5.032   2.195 -0.2651 -0.1313  0.2137
   14CHTO  C114 5510   6.088   5.279   2.156 -1.2549  0.4071 -0.1711
   14CHTO  H218 5511   6.038   5.253   2.249 -0.9324 -2.2990 -0.7238
   14CHTO  C116 5512   6.170   5.409   2.176 -0.3012 -0.0994 -0.4073
   14CHTO  H220 5513   6.220   5.438   2.081 -2.5267  0.4745 -1.4512
   14CHTO   O79 5514   6.083   5.520   2.208  0.4000 -0.5244 -0.5734
   14CHTO  H201 5515   5.991   5.506   2.201 -0.1290  2.7117 -1.1700
   14CHTO  C120 5516   6.278   5.383   2.290 -0.1407 -0.3162 -0.0361
   14CHTO  H224 5517   6.220   5.376   2.385  0.1758  1.1920  0.2722
   14CHTO   N21 5518   6.366   5.500   2.308  0.4453  0.5066  0.4129
   14CHTO  H211 5519   6.332   5.580   2.373 -1.9525 -0.5873  0.5574
   14CHTO  H212 5520   6.393   5.540   2.211 -1.6736  3.1120  0.8192
   14CHTO   O75 5521   5.993   5.296   2.044  0.3091  0.3735 -0.2093
   14CHTO  C112 5522   5.829   5.308   2.074 -0.5365 -0.2409 -0.6448
   14CHTO  H216 5523   5.825   5.382   2.155  0.8140 -0.2556 -0.5529
   14CHTO   O73 5524   5.785   5.173   2.116  0.1388 -0.2238 -0.2691
   14CHTO  C113 5525   5.652   5.159   2.157 -0.7998  0.4603  0.0741
   14CHTO  H217 5526   5.624   5.236   2.232 -0.9664  2.3861 -1.9090
   14CHTO  C124 5527   5.639   5.018   2.222 -0.6341  0.5575  0.1129
   14CHTO   O83 5528   5.717   5.012   2.343  0.2224 -0.3332 -0.8370
   14CHTO  H204 5529   5.663   5.039   2.415  1.4699 -0.1228  0.0222
   14CHTO  C109 5530   5.568   5.180   2.025 -0.0659 -0.1399  0.4444
   14CHTO  H213 5531   5.584   5.091   1.963 -0.3712 -0.0214  0.1995
   14CHTO  C110 5532   5.607   5.312   1.953  0.0007 -0.0811  0.6259
   14CHTO  H214 5533   5.558   5.394   2.004 -2.0397 -0.3924 -0.7777
   14CHTO   O78 5534   5.550   5.311   1.822  0.4337  0.2255  0.1320
   14CHTO  H200 5535   5.464   5.273   1.831  1.0846 -1.1696  0.6076
   14CHTO  C111 5536   5.759   5.346   1.945 -0.2043 -0.0533  0.4310
   14CHTO  H215 5537   5.798   5.292   1.858 -1.7724 -1.1862  0.3950
   14CHTO   N19 5538   5.770   5.490   1.917 -0.2754 -0.0831  0.0428
   14CHTO  H207 5539   5.702   5.515   1.838 -1.0313  1.2678  1.0892
   14CHTO  H208 5540   5.872   5.523   1.907 -0.0470  0.3514  3.2078
   14CHTO   O74 5541   5.427   5.193   2.065  0.0815 -0.1671 -0.3428
   14CHTO  C115 5542   5.326   5.160   1.982  0.3860 -0.2839 -0.0110
   14CHTO  H219 5543   5.323   5.229   1.897  0.6062 -0.0376  0.1793
   14CHTO   O76 5544   5.352   5.002   1.901  0.4169  0.4902 -0.5819
   14CHTO  C122 5545   5.334   4.897   1.997 -0.2544 -0.9140 -0.0967
   14CHTO  H226 5546   5.407   4.914   2.077 -0.6846 -0.4607  0.2038
   14CHTO  C126 5547   5.370   4.758   1.929 -0.1660  0.0018 -0.2243
   14CHTO   O85 5548   5.342   4.639   2.005  0.3463 -0.0989  0.0013
   14CHTO  H206 5549   5.389   4.646   2.086  0.9217 -1.1142 -0.2321
   14CHTO  C121 5550   5.183   4.898   2.045 -0.3816  1.3880 -0.5915
   14CHTO  H225 5551   5.139   4.808   1.997  1.3591 -1.6355  3.2310
   14CHTO   O81 5552   5.171   4.869   2.185 -0.5008 -0.0568  0.1279
   14CHTO  H202 5553   5.184   4.949   2.234  1.2791 -1.1486  1.4917
   14CHTO  C119 5554   5.103   5.030   2.008  0.2623  0.4050 -0.1989
   14CHTO  H223 5555   5.085   5.038   1.901  1.9413  1.6419 -0.4121
   14CHTO  C117 5556   5.185   5.161   2.046 -0.0667  0.2397  0.0029
   14CHTO  H221 5557   5.202   5.167   2.153 -1.5600  0.8259  0.2220
   14CHTO   N20 5558   5.108   5.281   2.016 -0.0345 -0.1803 -0.5082
   14CHTO  H209 5559   5.131   5.356   2.090  1.5854  0.1895 -1.3752
   14CHTO  H210 5560   5.139   5.312   1.918  0.9217 -0.0697 -0.1761
   14CHTO   O80 5561   4.946   5.030   2.064  0.2812 -0.2323 -0.0534
   14CHTO  C103 5562   4.813   5.010   1.939  0.4004 -0.4947  0.0056
   14CHTO  H190 5563   4.847   5.041   1.840  0.1446  0.2098  0.1373
   14CHTO  C101 5564   4.756   4.867   1.925 -0.1891  0.3042  0.7452
   14CHTO  H188 5565   4.726   4.833   2.024 -0.8711 -2.4886 -0.3996
   14CHTO   O68 5566   4.866   4.796   1.869 -0.1383 -0.0497 -0.0565
   14CHTO  H168 5567   4.842   4.706   1.879  2.2928 -0.8886 -1.3336
   14CHTO   C99 5568   4.633   4.863   1.824  0.6401 -1.0604 -0.3094
   14CHTO  H186 5569   4.662   4.883   1.719  0.7479 -3.2430 -0.7221
   14CHTO   N17 5570   4.565   4.726   1.818 -0.4200  0.1098 -0.0098
   14CHTO  H174 5571   4.478   4.719   1.754  1.0070 -1.6096 -1.7996
   14CHTO  H175 5572   4.636   4.652   1.786  0.4615  0.4589  1.1055
   14CHTO   C97 5573   4.532   4.977   1.872 -0.3472  0.3864 -0.5305
   14CHTO  H184 5574   4.488   4.944   1.967 -0.1319  0.1250 -0.5214
   14CHTO   O64 5575   4.600   5.102   1.884 -0.5659  0.2565  0.6617
   14CHTO  C104 5576   4.696   5.104   1.984 -0.0704  0.1193  0.2553
   14CHTO  H191 5577   4.653   5.071   2.079 -3.2551 -0.1078 -1.1707
   14CHTO  C108 5578   4.739   5.250   2.004 -0.2258  0.5938 -0.0608
   14CHTO   O71 5579   4.815   5.278   2.127  0.4022  0.3388  0.3577
   14CHTO  H171 5580   4.761   5.248   2.197  2.7935 -2.1455  1.2398
   14CHTO   O62 5581   4.438   4.999   1.763  0.1962 -0.2246  0.4107
   14CHTO   C91 5582   4.303   5.026   1.811  1.1084 -0.1205  0.6571
   14CHTO  H178 5583   4.277   4.951   1.887 -0.6297 -1.1919 -0.9486
   14CHTO   C92 5584   4.207   5.005   1.696  0.5239  1.0577 -0.0834
   14CHTO  H179 5585   4.238   4.919   1.635  0.7640  0.7434  0.4797
   14CHTO   O66 5586   4.075   4.970   1.746  0.1748  0.4154 -0.4301
   14CHTO  H166 5587   4.010   4.961   1.678 -0.7563  1.3206  0.3211
   14CHTO   C93 5588   4.194   5.131   1.604  0.2655 -0.6190  0.3584
   14CHTO  H180 5589   4.107   5.132   1.536  1.9442  0.6867 -1.8323
   14CHTO   N16 5590   4.304   5.130   1.505  0.7658  0.6904 -0.2231
   14CHTO  H172 5591   4.311   5.039   1.448 -0.6961  0.4171  0.0113
   14CHTO  H173 5592   4.290   5.213   1.438  0.6105  0.6261 -0.2705
   14CHTO   C94 5593   4.188   5.267   1.677 -0.3316  0.9406 -0.5134
   14CHTO  H181 5594   4.283   5.322   1.677 -0.5616  1.4931 -4.4606
   14CHTO   O61 5595   4.164   5.237   1.817 -0.4469 -0.0389  0.3311
   14CHTO   C95 5596   4.277   5.172   1.869 -0.1475 -0.7702  0.2225
   14CHTO  H182 5597   4.358   5.245   1.860 -1.4603  0.9963  2.1241
   14CHTO  C106 5598   4.258   5.172   2.023 -0.1429  0.9500  0.0721
   14CHTO   O69 5599   4.162   5.084   2.072 -0.5245 -0.0251 -0.2268
   14CHTO  H169 5600   4.081   5.105   2.030 -2.1317 -2.2548  1.5923
   14CHTO   O63 5601   4.077   5.350   1.619 -0.3275 -0.0229  0.2578
   14CHTO   C96 5602   4.078   5.492   1.675  0.3157 -1.1517 -0.1004
   14CHTO  H183 5603   4.160   5.502   1.747  1.4117  1.4966 -1.6286
   14CHTO   C98 5604   3.946   5.537   1.739  0.0727 -0.6046  0.8886
   14CHTO  H185 5605   3.861   5.512   1.674 -0.9098  1.7721  1.2056
   14CHTO   O67 5606   3.931   5.448   1.853 -0.5842 -0.4375 -0.1009
   14CHTO  H167 5607   3.844   5.453   1.888 -0.1365 -0.8626  1.0965
   14CHTO  C102 5608   3.946   5.695   1.785 -0.1227  0.5815 -0.4911
   14CHTO  H189 5609   4.021   5.697   1.866  0.4728  0.1860 -1.0290
   14CHTO   N18 5610   3.818   5.749   1.841  0.0871  0.0522 -0.1767
   14CHTO  H176 5611   3.809   5.739   1.948 -0.5854 -0.6203 -0.2897
   14CHTO  H177 5612   3.726   5.706   1.802 -0.3166  1.5330 -0.9135
   14CHTO  C105 5613   4.017   5.788   1.681  0.2748 -0.2013  0.3578
   14CHTO  H192 5614   3.946   5.804   1.599  0.1227 -0.3666  0.4564
   14CHTO   O65 5615   4.136   5.725   1.635 -0.3389 -0.7118 -0.1546
   14CHTO  C100 5616   4.123   5.601   1.562  0.2679  0.2477 -0.4705
   14CHTO  H187 5617   4.045   5.613   1.486  0.0333  0.7078 -0.1528
   14CHTO  C107 5618   4.254   5.558   1.488  0.2252  0.2031  0.2787
   14CHTO   O70 5619   4.296   5.656   1.393  0.1903 -0.0415 -0.0541
   14CHTO  H170 5620   4.360   5.619   1.336 -0.4892 -0.3308 -0.6457
   14CHTO   O57 5621   4.061   5.936   1.765 -0.0505 -0.1827  0.5744
   14CHTO   C85 5622   3.995   6.061   1.730 -0.5333 -0.4707 -0.4628
   14CHTO  H157 5623   3.892   6.033   1.702 -0.6440 -0.4647 -0.0578
   14CHTO   C83 5624   4.063   6.121   1.596 -0.0139 -0.0510 -0.1076
   14CHTO  H155 5625   4.044   6.050   1.515  1.1516 -0.5102  0.0130
   14CHTO   O56 5626   4.204   6.124   1.610 -0.0631 -0.0272 -0.0688
   14CHTO  H135 5627   4.248   6.042   1.620 -0.2783  0.0821  1.9352
   14CHTO   C81 5628   4.008   6.266   1.569 -0.1342 -0.7332 -0.2352
   14CHTO  H153 5629   3.899   6.260   1.560 -0.0839  0.4245 -1.9363
   14CHTO   N14 5630   4.043   6.326   1.435  0.0541  0.0996  0.2722
   14CHTO  H141 5631   4.019   6.430   1.437  2.7549  0.7940 -0.2421
   14CHTO  H142 5632   4.150   6.317   1.430  0.0993  1.1108 -0.9800
   14CHTO   C79 5633   4.048   6.358   1.688  0.5321  0.2484  0.5863
   14CHTO  H151 5634   4.006   6.456   1.666 -0.3759 -0.6587 -1.9307
   14CHTO   O52 5635   3.987   6.312   1.814  0.4253  0.2923  0.2578
   14CHTO   C86 5636   4.002   6.172   1.850 -0.6268  0.4937  1.2007
   14CHTO  H158 5637   4.100   6.174   1.903  0.8594 -0.0002 -1.4564
   14CHTO   C90 5638   3.890   6.137   1.953 -0.2152 -0.0607  0.2598
   14CHTO   O60 5639   3.916   6.014   2.013 -0.7221 -0.3034 -0.2392
   14CHTO  H138 5640   3.844   5.955   2.018 -0.0838 -0.9864  1.8652
   14CHTO   O50 5641   4.192   6.380   1.696 -0.2655 -0.2228 -0.8554
   14CHTO   C73 5642   4.253   6.488   1.764  0.3636  0.1869  0.2406
   14CHTO  H145 5643   4.206   6.501   1.863 -0.9609  0.7070 -0.4435
   14CHTO   C74 5644   4.256   6.631   1.695  0.5159  0.2963  0.0444
   14CHTO  H146 5645   4.148   6.649   1.678  0.3464  0.3115  1.1553
   14CHTO   O54 5646   4.312   6.734   1.780 -0.0819 -0.4923  0.0068
   14CHTO  H133 5647   4.273   6.813   1.746  0.2144 -0.4184 -0.1607
   14CHTO   C75 5648   4.336   6.615   1.559  0.6196  0.0179  0.2511
   14CHTO  H147 5649   4.280   6.543   1.499 -0.8065  1.8315 -0.6466
   14CHTO   N13 5650   4.347   6.737   1.477  0.4133 -0.3624  0.0661
   14CHTO  H139 5651   4.448   6.770   1.456 -0.2311  0.7280 -1.4657
   14CHTO  H140 5652   4.290   6.719   1.387  1.6503  0.5717 -0.9400
   14CHTO   C76 5653   4.482   6.562   1.593 -0.2804 -0.0079  0.4417
   14CHTO  H148 5654   4.531   6.639   1.654  0.5380 -0.6378  0.5914
   14CHTO   O49 5655   4.476   6.441   1.669 -0.0971  0.1069 -0.1406
   14CHTO   C77 5656   4.403   6.455   1.785  0.3340  0.1696  0.1254
   14CHTO  H149 5657   4.448   6.525   1.856  2.3269  1.9267 -2.7320
   14CHTO   C88 5658   4.429   6.320   1.851  0.2641  0.4441 -0.6208
   14CHTO   O58 5659   4.568   6.301   1.874 -0.4489 -0.3145 -0.1938
   14CHTO  H136 5660   4.572   6.280   1.965 -1.1287 -1.3550 -0.3974
   14CHTO   O51 5661   4.557   6.509   1.457  0.6840  0.2137  0.0933
   14CHTO   C78 5662   4.721   6.551   1.457 -0.4790 -0.3129  0.2746
   14CHTO  H150 5663   4.741   6.614   1.546 -0.4772  0.7377 -0.4587
   14CHTO   C80 5664   4.776   6.628   1.333  0.3692  0.4444 -0.1935
   14CHTO  H152 5665   4.742   6.573   1.242  0.3518  0.3457 -0.1264
   14CHTO   O55 5666   4.716   6.758   1.337  0.2686  0.3873 -0.3809
   14CHTO  H134 5667   4.754   6.816   1.274 -0.4506 -0.6100 -1.7561
   14CHTO   C84 5668   4.935   6.630   1.332  0.2188  0.3555 -0.3928
   14CHTO  H156 5669   4.970   6.703   1.404  0.8138  0.4767 -0.8016
   14CHTO   N15 5670   4.983   6.682   1.200 -0.2230 -0.6208  0.5025
   14CHTO  H143 5671   5.084   6.716   1.203 -0.6168  0.6841 -0.5483
   14CHTO  H144 5672   4.925   6.760   1.155 -0.4019 -1.0140  0.0488
   14CHTO   C87 5673   5.003   6.499   1.367  0.1621  0.3737  0.5362
   14CHTO  H159 5674   4.993   6.433   1.281  0.0198  0.1018  0.7611
   14CHTO   O53 5675   4.950   6.445   1.491 -0.3948 -0.1123  0.7066
   14CHTO   C82 5676   4.808   6.422   1.472 -0.3889  0.0898 -0.3929
   14CHTO  H154 5677   4.794   6.359   1.384 -0.4375  1.3396 -1.2823
   14CHTO   C89 5678   4.751   6.346   1.594  0.2310 -0.0071  0.3745
   14CHTO   O59 5679   4.658   6.252   1.567  0.1017  0.1544 -0.0975
   14CHTO  H137 5680   4.574   6.293   1.579  0.6327  0.7855  1.4882
   14CHTO   O45 5681   5.161   6.511   1.380  0.3747  0.0411  0.3891
   14CHTO   C67 5682   5.236   6.392   1.360  0.4447 -0.4872 -0.2562
   14CHTO  H124 5683   5.188   6.305   1.404 -1.1311  0.2891 -0.3723
   14CHTO   C65 5684   5.249   6.360   1.206  0.0754  0.7348  0.2271
   14CHTO  H122 5685   5.152   6.382   1.162  0.3781 -0.7039 -1.2009
   14CHTO   O44 5686   5.277   6.220   1.181 -0.1384 -0.2229  0.3236
   14CHTO  H102 5687   5.210   6.179   1.129 -1.5567  1.7048  0.5492
   14CHTO   C63 5688   5.342   6.460   1.137 -0.6447  0.2496  0.5565
   14CHTO  H120 5689   5.299   6.557   1.161  1.2778  0.7612  2.0755
   14CHTO   N11 5690   5.335   6.456   0.984 -0.1181  0.3906  0.2252
   14CHTO  H108 5691   5.349   6.360   0.939  0.5114  0.1816  0.8552
   14CHTO  H109 5692   5.251   6.510   0.943  0.3192 -0.5007 -1.9347
   14CHTO   C61 5693   5.480   6.448   1.208  0.5649 -0.4991 -0.5996
   14CHTO  H118 5694   5.547   6.526   1.170  2.4660  0.0215  3.6140
   14CHTO   O40 5695   5.470   6.475   1.350  0.7923  0.3144  0.5531
   14CHTO   C68 5696   5.375   6.398   1.428  0.2560 -0.2522 -0.2237
   14CHTO  H125 5697   5.370   6.442   1.529 -0.2572 -0.6713 -0.0675
   14CHTO   C72 5698   5.428   6.252   1.450  0.4201 -0.1798  0.2019
   14CHTO   O48 5699   5.564   6.260   1.505  0.5036  0.3501  0.0604
   14CHTO  H105 5700   5.606   6.176   1.496 -0.5025 -0.1560 -0.0448
   14CHTO   O38 5701   5.540   6.323   1.173 -0.2718 -0.1717 -0.4215
   14CHTO   C55 5702   5.661   6.313   1.100 -0.0670  0.0561 -0.0061
   14CHTO  H112 5703   5.683   6.414   1.064 -1.2659 -0.3910 -2.0426
   14CHTO   C56 5704   5.660   6.206   0.980 -0.6059  0.7716  1.0603
   14CHTO  H113 5705   5.617   6.115   1.026  0.4446 -1.6331 -2.5157
   14CHTO   O42 5706   5.567   6.238   0.871 -0.2590 -0.4928  0.0992
   14CHTO  H100 5707   5.492   6.182   0.875 -0.3181 -0.3416  1.2713
   14CHTO   C57 5708   5.806   6.175   0.929 -0.2703  0.0826 -0.3709
   14CHTO  H114 5709   5.847   6.258   0.872  0.5146  1.8713  2.6599
   14CHTO   N10 5710   5.822   6.062   0.839 -0.2503 -0.0282  0.2453
   14CHTO  H106 5711   5.808   6.101   0.739  0.0627 -0.1769  0.1448
   14CHTO  H107 5712   5.923   6.025   0.842  0.2087  1.0227 -1.5890
   14CHTO   C58 5713   5.904   6.159   1.044  0.3405  0.2125 -0.9796
   14CHTO  H115 5714   5.885   6.065   1.101  0.0993  0.2670 -0.9698
   14CHTO   O37 5715   5.905   6.266   1.146 -0.3960 -0.4959 -0.0608
   14CHTO   C59 5716   5.771   6.276   1.208 -0.4686 -0.7557 -0.9692
   14CHTO  H116 5717   5.752   6.180   1.257  2.5881 -0.9376 -0.0259
   14CHTO   C70 5718   5.785   6.385   1.313 -0.5680 -0.2977  0.0850
   14CHTO   O46 5719   5.863   6.343   1.429  0.4337 -0.0313  0.1633
   14CHTO  H103 5720   5.828   6.264   1.465  0.9628 -0.7763 -0.9149
   14CHTO   O39 5721   6.061   6.171   0.997 -0.6464  0.1737  0.3228
   14CHTO   C60 5722   6.162   6.141   1.091  0.5437  0.1456 -0.1338
   14CHTO  H117 5723   6.139   6.211   1.171 -1.5803  0.2598 -0.8164
   14CHTO   C62 5724   6.161   5.992   1.133 -0.4051 -0.0197  0.0972
   14CHTO  H119 5725   6.065   5.968   1.183 -0.3692  1.1446  0.7349
   14CHTO   O43 5726   6.157   5.911   1.016  0.1115 -0.2611 -0.1781
   14CHTO  H101 5727   6.067   5.906   0.989  0.4017  0.3461 -1.2944
   14CHTO   C66 5728   6.283   5.959   1.233  0.4181 -0.3379  0.2219
   14CHTO  H123 5729   6.282   6.030   1.315 -2.1194 -1.7726  1.5023
   14CHTO   N12 5730   6.264   5.829   1.307  0.3290 -0.0803 -0.3293
   14CHTO  H110 5731   6.352   5.806   1.365 -0.2688 -2.3047 -0.2649
   14CHTO  H111 5732   6.250   5.756   1.229  2.6897  0.1528 -1.0120
   14CHTO   C69 5733   6.414   5.979   1.147  0.6249  1.1136 -0.0048
   14CHTO  H126 5734   6.404   5.926   1.050 -0.7573  0.2584  0.5854
   14CHTO   O41 5735   6.422   6.127   1.105  0.0948  0.4380 -0.1774
   14CHTO   C64 5736   6.296   6.178   1.032 -0.1910 -0.7277  0.1806
   14CHTO  H121 5737   6.309   6.129   0.934 -2.4705 -0.0930 -0.4624
   14CHTO   C71 5738   6.323   6.330   1.024 -0.1753 -0.0776 -0.4174
   14CHTO   O47 5739   6.416   6.358   0.922 -0.0502 -0.0179  0.2446
   14CHTO  H104 5740   6.385   6.340   0.836  0.8264  1.4410 -0.3898
   14CHTO   O34 5741   6.547   5.940   1.212  0.3768  0.0080  0.5265
   14CHTO   C49 5742   6.701   5.955   1.147 -0.2466 -0.0978 -0.8134
   14CHTO   H91 5743   6.720   5.881   1.069  2.3578  1.2370 -1.4914
   14CHTO   C47 5744   6.795   5.922   1.257 -0.3530 -1.1453 -0.3861
   14CHTO   H89 5745   6.893   5.915   1.206 -1.3295 -1.9882 -2.2100
   14CHTO   O33 5746   6.773   5.795   1.324  0.7079  0.5138  0.2552
   14CHTO   H70 5747   6.714   5.815   1.395  1.2696 -1.0267  1.1993
   14CHTO   C45 5748   6.808   6.041   1.364  0.2759 -0.1489  0.2040
   14CHTO   H87 5749   6.739   6.017   1.447 -2.3153  0.8112 -1.6167
   14CHTO    N8 5750   6.944   6.036   1.417  0.6551  0.1200  0.3047
   14CHTO   H75 5751   6.943   6.098   1.506 -0.6337 -0.3977  0.6613
   14CHTO   H76 5752   7.011   6.070   1.339  1.7468  0.3490  1.3170
   14CHTO   C43 5753   6.754   6.184   1.298 -0.6823 -0.0327 -0.2021
   14CHTO   H85 5754   6.646   6.178   1.301 -0.6459 -0.4492  0.3305
   14CHTO   O29 5755   6.802   6.196   1.163 -0.0170 -0.2805 -0.1978
   14CHTO   C50 5756   6.749   6.092   1.081  0.1804 -0.4514 -0.4549
   14CHTO   H92 5757   6.677   6.145   1.017 -0.7996 -0.1234  0.9072
   14CHTO   C54 5758   6.854   6.059   0.983  0.0438 -0.6012  0.6761
   14CHTO   O36 5759   6.897   6.170   0.897 -0.0851  0.3442 -0.3785
   14CHTO   H72 5760   6.820   6.185   0.846 -0.3211  1.4363  0.2816
   14CHTO   O27 5761   6.789   6.300   1.372  0.1380 -0.9052 -0.5497
   14CHTO   C37 5762   6.707   6.418   1.400  0.0941  0.3216 -0.0642
   14CHTO   H79 5763   6.769   6.507   1.418  0.1300  0.2786  0.0186
   14CHTO   C38 5764   6.603   6.457   1.286  0.6959 -0.8254  0.6712
   14CHTO   H80 5765   6.536   6.373   1.259  0.8527 -0.2061 -1.8421
   14CHTO   O31 5766   6.686   6.494   1.170 -0.0583  0.4638 -0.9185
   14CHTO   H68 5767   6.737   6.571   1.189  2.5388 -1.5528  0.5806
   14CHTO   C39 5768   6.512   6.582   1.328 -0.0906  0.2403 -0.5439
   14CHTO   H81 5769   6.585   6.658   1.356  0.6023  0.1153 -1.9815
   14CHTO    N7 5770   6.415   6.629   1.222  0.5828 -0.4650 -0.2524
   14CHTO   H73 5771   6.327   6.567   1.221  1.6282 -1.9882 -0.1265
   14CHTO   H74 5772   6.466   6.646   1.128  3.2735  0.6503  1.3499
   14CHTO   C40 5773   6.438   6.548   1.468 -0.0605  0.2526 -0.0618
   14CHTO   H82 5774   6.372   6.465   1.442 -0.2177 -0.1360  1.5431
   14CHTO   O26 5775   6.534   6.512   1.566 -0.1755 -0.2159  0.2450
   14CHTO   C41 5776   6.624   6.402   1.537  0.3208  0.3160  0.3629
   14CHTO   H83 5777   6.560   6.313   1.530  0.2072  0.3640  0.7755
   14CHTO   C52 5778   6.728   6.391   1.660  0.1268 -0.2662 -0.3014
   14CHTO   O35 5779   6.679   6.324   1.777  0.1287 -0.3080  0.4680
   14CHTO   H71 5780   6.589   6.350   1.776 -0.0639 -0.9273  1.0872
   14CHTO   O28 5781   6.358   6.662   1.523 -0.8978  0.4847 -1.0747
   14CHTO   C42 5782   6.250   6.637   1.616  0.5201 -0.3048 -0.6301
   14CHTO   H84 5783   6.242   6.733   1.666 -1.5258 -1.3075  1.0506
   14CHTO   C44 5784   6.278   6.535   1.731 -0.4068 -0.2474 -0.1937
   14CHTO   H86 5785   6.293   6.435   1.690  1.0640  0.5490 -1.6317
   14CHTO   O32 5786   6.396   6.568   1.810 -0.7780 -0.6338  0.1463
   14CHTO   H69 5787   6.479   6.566   1.766 -1.2433 -1.1336 -0.7294
   14CHTO   C48 5788   6.153   6.529   1.814  0.4120  0.2095 -0.4318
   14CHTO   H90 5789   6.143   6.626   1.863  1.5545 -0.5243  1.3101
   14CHTO    N9 5790   6.155   6.429   1.931  0.4738 -0.2799  0.0005
   14CHTO   H77 5791   6.235   6.357   1.918  1.1337  0.9557 -3.2943
   14CHTO   H78 5792   6.154   6.475   2.029  1.0271  1.4317 -0.7808
   14CHTO   C51 5793   6.021   6.508   1.729  0.5813  0.7506 -0.6106
   14CHTO   H93 5794   6.028   6.407   1.688  0.7533  0.0307  1.1517
   14CHTO   O30 5795   6.010   6.613   1.624 -0.8115 -0.0546  0.1718
   14CHTO   C46 5796   6.112   6.610   1.534 -0.5966 -0.5444  0.0574
   14CHTO   H88 5797   6.110   6.509   1.493 -2.8140 -0.8093  0.7129
   14CHTO   C53 5798   6.088   6.715   1.417 -0.4112 -0.3727  0.3386
   14CHTO   O72 5799   6.071   6.638   1.294  0.4621 -0.3455 -0.3347
   14CHTO  H199 5800   6.024   6.558   1.308 -0.6285  0.8902  3.4722
   14CHTO   O22 5801   5.902   6.532   1.803 -0.0969  0.0554 -0.6351
   14CHTO   C31 5802   5.767   6.474   1.767 -0.5987 -0.0919  0.0637
   14CHTO   H59 5803   5.775   6.408   1.678 -1.0416  1.5067 -1.1921
   14CHTO   C29 5804   5.712   6.392   1.885  0.1827  0.5861  0.5209
   14CHTO   H57 5805   5.722   6.458   1.972  0.0969 -0.0101  0.9849
   14CHTO   O21 5806   5.797   6.276   1.899 -0.7524  0.0477  0.4978
   14CHTO   H37 5807   5.762   6.191   1.881 -0.8923  0.2495 -0.1976
   14CHTO   C27 5808   5.562   6.356   1.864 -0.5042 -0.3839  0.1937
   14CHTO   H55 5809   5.557   6.280   1.784  2.2451 -0.6054  0.1724
   14CHTO    N5 5810   5.502   6.299   1.989 -0.1424  0.6942 -0.7861
   14CHTO   H43 5811   5.401   6.264   1.973 -0.1942 -0.5496  2.0246
   14CHTO   H44 5812   5.564   6.223   2.034 -0.8214  1.1184  0.8691
   14CHTO   C25 5813   5.477   6.487   1.821 -0.5044 -0.0441 -0.3557
   14CHTO   H53 5814   5.490   6.556   1.906  0.3596 -0.8201  0.1613
   14CHTO   O17 5815   5.536   6.530   1.701  0.0602 -0.5232 -0.1632
   14CHTO   C32 5816   5.661   6.588   1.732 -0.2370  0.8897 -0.1347
   14CHTO   H60 5817   5.655   6.655   1.817  2.5949  0.8537  0.1243
   14CHTO   C36 5818   5.716   6.668   1.609 -0.1284 -0.0822 -0.2185
   14CHTO   O25 5819   5.632   6.780   1.583 -0.1307 -0.1204 -0.5903
   14CHTO   H40 5820   5.641   6.847   1.649  1.9296 -1.1823  0.2408
   14CHTO   O15 5821   5.317   6.475   1.807 -0.2191  0.3832 -0.7314
   14CHTO   C19 5822   5.184   6.535   1.785 -0.2256  0.0144 -0.1256
   14CHTO   H47 5823   5.144   6.482   1.697 -0.1419 -0.8838  0.3680
   14CHTO   C20 5824   5.088   6.530   1.905 -0.7442  0.4420 -0.1053
   14CHTO   H48 5825   5.121   6.598   1.984  0.9328 -1.3737  0.8090
   14CHTO   O19 5826   5.107   6.403   1.964 -0.3078 -0.3222 -0.0899
   14CHTO   H35 5827   5.117   6.416   2.056  0.0551  2.1941 -0.4342
   14CHTO   C21 5828   4.948   6.572   1.854 -0.4838  0.4543  0.5735
   14CHTO   H49 5829   4.919   6.508   1.770  1.7256 -0.0708  0.1689
   14CHTO    N4 5830   4.850   6.563   1.963  0.0299 -0.3862  0.3175
   14CHTO   H41 5831   4.819   6.461   1.974 -2.2620  0.1211 -1.1818
   14CHTO   H42 5832   4.898   6.591   2.056 -2.3947 -0.7970  1.7410
   14CHTO   C22 5833   4.954   6.719   1.796  0.3011  0.0051  0.2887
   14CHTO   H50 5834   4.972   6.791   1.876 -0.5935  2.2419 -1.4797
   14CHTO   O14 5835   5.061   6.725   1.700  0.3853 -0.9847  0.4524
   14CHTO   C23 5836   5.197   6.683   1.741  0.4934 -0.0924  0.4133
   14CHTO   H51 5837   5.222   6.750   1.824 -0.3103 -1.1955  1.5568
   14CHTO   C34 5838   5.283   6.700   1.619  0.3322  0.3662 -0.2517
   14CHTO   O23 5839   5.310   6.834   1.586  0.3048 -0.3738  0.6040
   14CHTO   H38 5840   5.233   6.875   1.549  0.5183 -0.0701  0.4925
   14CHTO   O16 5841   4.836   6.754   1.716 -0.3044 -0.1683 -0.5862
   14CHTO   C24 5842   4.794   6.910   1.697 -0.4403  0.5767 -0.3053
   14CHTO   H52 5843   4.704   6.919   1.636 -3.5333 -0.7873  3.7991
   14CHTO   C26 5844   4.919   6.988   1.634  0.3962 -0.4075  0.1769
   14CHTO   H54 5845   5.009   6.967   1.694  0.2551  2.3359  1.4452
   14CHTO   O20 5846   4.937   6.952   1.495 -0.1253  0.2371 -0.4275
   14CHTO   H36 5847   4.934   6.859   1.481 -2.7052  0.5110 -1.9383
   14CHTO   C30 5848   4.898   7.141   1.644  0.6482 -0.3854 -0.2683
   14CHTO   H58 5849   4.826   7.177   1.569  1.0281  1.5543  0.2807
   14CHTO    N6 5850   5.025   7.214   1.614  0.1390 -0.0316 -0.0823
   14CHTO   H45 5851   5.041   7.226   1.507  1.4389  1.2287  0.2385
   14CHTO   H46 5852   5.112   7.171   1.660 -2.7053 -2.2641  3.4539
   14CHTO   C33 5853   4.837   7.190   1.783  0.2378 -1.4084 -0.4703
   14CHTO   H61 5854   4.917   7.189   1.859 -0.4897  2.1386  0.4484
   14CHTO   O18 5855   4.729   7.109   1.828 -0.2436  0.6992 -0.3678
   14CHTO   C28 5856   4.757   6.969   1.834  0.1160  0.3135 -0.1015
   14CHTO   H56 5857   4.824   6.938   1.913 -0.3227 -1.0342 -0.2390
   14CHTO   C35 5858   4.619   6.907   1.877  0.2266 -0.5047 -0.5439
   14CHTO   O24 5859   4.588   6.940   2.010 -0.0725 -0.4212 -0.1658
   14CHTO   H39 5860   4.501   6.916   2.037 -0.1357 -1.0866 -0.9525
   14CHTO    O9 5861   4.797   7.330   1.775  0.3747 -0.1442 -0.3393
   14CHTO   C13 5862   4.777   7.404   1.930 -0.3642  0.4674  0.5024
   14CHTO   H26 5863   4.728   7.327   1.993 -0.0017  0.8294  1.2304
   14CHTO   C11 5864   4.681   7.525   1.907  0.5079  0.1105  0.2611
   14CHTO   H24 5865   4.577   7.493   1.891 -0.3673  2.7368  0.3634
   14CHTO    O8 5866   4.706   7.611   1.794  0.0955  0.6897 -0.4060
   14CHTO    H3 5867   4.668   7.571   1.718  0.3525 -1.5683  0.6061
   14CHTO    C9 5868   4.680   7.609   2.040  0.8600 -0.2167  0.0842
   14CHTO   H22 5869   4.663   7.536   2.121 -0.2087 -1.1618 -0.9587
   14CHTO    N2 5870   4.558   7.701   2.055 -0.0426  0.2144  0.5104
   14CHTO   H10 5871   4.467   7.652   2.086 -2.2189  2.8503 -1.4465
   14CHTO   H11 5872   4.544   7.746   1.958  0.5399 -0.1984  0.2309
   14CHTO    C7 5873   4.821   7.671   2.067  0.3306 -0.4097 -0.3233
   14CHTO   H20 5874   4.817   7.723   2.165  1.5379 -2.6343  0.9435
   14CHTO    O4 5875   4.913   7.559   2.082 -0.4350 -0.2181 -0.0681
   14CHTO   C14 5876   4.917   7.454   1.984  0.2433 -0.4578  0.8412
   14CHTO   H27 5877   4.971   7.366   2.025  0.9326 -0.3036  0.2880
   14CHTO   C18 5878   5.013   7.507   1.869 -0.1967  0.2734 -0.0868
   14CHTO   O13 5879   5.145   7.480   1.905  0.4146  0.4118  0.0726
   14CHTO    H7 5880   5.171   7.538   1.974  0.2380 -0.8278  1.2019
   14CHTO    O2 5881   4.880   7.784   1.941 -0.0761 -0.2299  0.5232
   14CHTO    C1 5882   4.949   7.909   1.966 -0.0802  0.5053  0.1550
   14CHTO   H14 5883   4.978   7.957   1.871 -1.7829 -2.9321 -2.2005
   14CHTO    C2 5884   5.076   7.886   2.063 -0.6822  0.2172 -0.1385
   14CHTO   H15 5885   5.047   7.838   2.157 -2.3744 -1.3370 -1.4110
   14CHTO    O6 5886   5.166   7.799   1.994 -0.4453  0.2794  0.3669
   14CHTO    H1 5887   5.204   7.739   2.055 -0.3856  0.0154  0.0725
   14CHTO    C3 5888   5.141   8.031   2.086 -0.3979 -0.6266 -0.0897
   14CHTO   H16 5889   5.182   8.071   1.992  1.0196 -0.2292  0.6799
   14CHTO    N1 5890   5.255   8.032   2.188  0.0066 -0.0072  0.1241
   14CHTO    H8 5891   5.336   7.965   2.168  0.6846  0.7550  0.2875
   14CHTO    H9 5892   5.294   8.133   2.200 -2.4508  0.5219  5.2421
   14CHTO    C4 5893   5.028   8.131   2.136 -0.3912  0.2117 -0.0150
   14CHTO   H17 5894   4.991   8.099   2.233 -0.4228 -2.2260 -0.8072
   14CHTO    O1 5895   4.916   8.136   2.041 -0.5075  0.7217 -0.3752
   14CHTO    C5 5896   4.853   8.010   2.036  0.2176  0.4193  0.2344
   14CHTO   H18 5897   4.826   7.974   2.135 -0.5466  1.5044  0.4315
   14CHTO   C16 5898   4.720   8.027   1.958 -0.1881  0.1974  0.3750
   14CHTO   O11 5899   4.631   8.085   2.050 -0.0861  0.1658  0.4505
   14CHTO    H5 5900   4.593   8.166   2.021  0.8738  1.1667  1.9581
   14CHTO    O3 5901   5.083   8.265   2.127 -0.4964 -0.2594 -0.0303
   14CHTO    C6 5902   5.005   8.372   2.193  0.1969  0.3191 -0.8119
   14CHTO   H19 5903   4.900   8.343   2.207  0.5984 -0.4249  0.6941
   14CHTO    C8 5904   5.069   8.433   2.324 -0.5816 -0.6933 -0.2786
   14CHTO   H21 5905   5.172   8.456   2.299 -0.8858 -0.8943 -1.7727
   14CHTO    O7 5906   5.077   8.327   2.408  0.1552  0.0812  0.2803
   14CHTO    H2 5907   5.103   8.248   2.364 -0.2745  1.4023 -2.4174
   14CHTO   C12 5908   4.976   8.553   2.368 -0.1858  0.1191  0.5407
   14CHTO   H25 5909   4.874   8.509   2.382  0.1531 -1.1064 -0.7324
   14CHTO    N3 5910   5.025   8.614   2.493 -0.3860  0.1384 -0.2431
   14CHTO   H12 5911   5.015   8.720   2.475 -0.2445  0.1495 -0.2518
   14CHTO   H13 5912   4.976   8.590   2.586  1.2848 -0.7932  0.4136
   14CHTO   C15 5913   4.975   8.656   2.244  1.1182 -0.2568  0.0696
   14CHTO   H28 5914   5.071   8.699   2.218  2.0955 -1.7065  1.2241
   14CHTO   O10 5915   4.862   8.778   2.289  0.2489  0.0963 -0.4367
   14CHTO    H4 5916   4.848   8.841   2.221  1.3542  1.2789  0.4241
   14CHTO    O5 5917   4.917   8.595   2.126  0.8495  0.1326 -0.1143
   14CHTO   C10 5918   4.997   8.483   2.084  0.2637 -0.5185 -0.6757
   14CHTO   H23 5919   5.096   8.524   2.063  0.9494 -0.6658  2.0738
   14CHTO   C17 5920   4.936   8.439   1.944  0.5922 -0.0225  0.4688
   14CHTO   O12 5921   4.927   8.536   1.836  0.1870  0.2102  0.8555
   14CHTO    H6 5922   4.894   8.622   1.856 -0.3051 -0.4927  3.1361
   15CHTO  H203 5923   6.673   5.348   2.003  0.5872  3.2544  0.7114
   15CHTO   O82 5924   6.582   5.342   2.027  0.7133 -0.2139  0.4999
   15CHTO  C123 5925   6.521   5.267   1.920  0.1977 -0.3910 -0.3945
   15CHTO  H227 5926   6.494   5.167   1.957  1.4850 -1.0244 -1.1058
   15CHTO   O77 5927   6.405   5.354   1.884 -0.4212 -0.1132 -0.3691
   15CHTO  C118 5928   6.322   5.290   1.787 -0.4373 -0.5844  0.2793
   15CHTO  H222 5929   6.292   5.190   1.822  0.7500 -1.0163  0.0608
   15CHTO  C125 5930   6.191   5.378   1.776  0.0966 -0.4077  0.3647
   15CHTO   O84 5931   6.218   5.505   1.723 -0.8046  0.5546  0.3057
   15CHTO  H205 5932   6.162   5.568   1.765 -0.8861 -1.7335  3.8559
   15CHTO  C114 5933   6.389   5.279   1.656  0.1690 -0.6419 -0.9919
   15CHTO  H218 5934   6.426   5.377   1.626  2.1714 -0.9287  0.4179
   15CHTO  C116 5935   6.515   5.196   1.676 -0.1737  0.1958  0.3576
   15CHTO  H220 5936   6.487   5.090   1.695 -1.6303  0.7060  1.1741
   15CHTO   O79 5937   6.581   5.197   1.555 -0.3865  0.0861  0.1315
   15CHTO  H201 5938   6.547   5.143   1.486  0.6152  0.8866 -1.0135
   15CHTO  C120 5939   6.610   5.247   1.788  0.3049  0.2782  0.3969
   15CHTO  H224 5940   6.644   5.346   1.752 -1.7502  0.3019 -1.5930
   15CHTO   N21 5941   6.730   5.163   1.810  0.4635  0.3523  0.0446
   15CHTO  H211 5942   6.778   5.188   1.903 -1.8192 -0.0048  1.3679
   15CHTO  H212 5943   6.797   5.162   1.726  1.0131 -0.9613  0.4745
   15CHTO   O75 5944   6.287   5.244   1.558  0.2086  0.0693 -0.0044
   15CHTO  C112 5945   6.255   5.086   1.559 -0.7555  0.0316  0.3521
   15CHTO  H216 5946   6.250   5.043   1.660 -0.3882  0.6850  0.6506
   15CHTO   O73 5947   6.353   5.027   1.483 -0.4027 -0.2352 -0.0735
   15CHTO  C113 5948   6.356   4.878   1.470  0.1323 -0.1247 -0.6055
   15CHTO  H217 5949   6.367   4.838   1.573 -0.0981  0.3222 -0.4060
   15CHTO  C124 5950   6.490   4.842   1.400  0.4703  0.0665  0.2294
   15CHTO   O83 5951   6.605   4.884   1.463 -0.1732  0.0077  0.7163
   15CHTO  H204 5952   6.606   4.977   1.462  1.0567  0.0383 -3.2270
   15CHTO  C109 5953   6.231   4.833   1.391  0.1463 -0.4530  0.8624
   15CHTO  H213 5954   6.236   4.875   1.290  0.3791  1.0915  1.4979
   15CHTO  C110 5955   6.113   4.893   1.472  0.2113 -0.3750  0.2372
   15CHTO  H214 5956   6.117   4.862   1.577  0.0484  1.3105  0.7616
   15CHTO   O78 5957   5.988   4.849   1.412 -0.5006 -0.1535 -0.3174
   15CHTO  H200 5958   5.971   4.848   1.319 -0.2802 -1.4675 -0.3578
   15CHTO  C111 5959   6.119   5.048   1.494  0.3941 -0.1236 -0.3342
   15CHTO  H215 5960   6.128   5.097   1.396  0.5120 -2.1031 -1.3276
   15CHTO   N19 5961   6.005   5.116   1.566 -0.4928  0.4110 -0.3567
   15CHTO  H207 5962   5.930   5.046   1.596 -0.1022  0.5589  0.9962
   15CHTO  H208 5963   5.958   5.181   1.493 -0.2657 -1.0072 -1.7911
   15CHTO   O74 5964   6.244   4.690   1.379 -0.3428  0.4594  0.2569
   15CHTO  C115 5965   6.174   4.633   1.251  0.2653 -0.5953  0.6429
   15CHTO  H219 5966   6.097   4.701   1.215  1.1522 -0.8325 -1.7960
   15CHTO   O76 5967   6.272   4.628   1.129  0.0754  0.1139  0.1596
   15CHTO  C122 5968   6.381   4.536   1.157  0.1543  0.4672  0.2905
   15CHTO  H226 5969   6.429   4.560   1.252  1.4169  1.4647 -0.5709
   15CHTO  C126 5970   6.480   4.571   1.048  0.0279  0.3465  0.0109
   15CHTO   O85 5971   6.536   4.701   1.054  0.0943 -0.3187  0.4309
   15CHTO  H206 5972   6.624   4.698   1.087 -0.1227  0.2425  1.0874
   15CHTO  C121 5973   6.325   4.386   1.161  0.0518 -0.2590  0.4407
   15CHTO  H225 5974   6.345   4.332   1.066 -0.4992 -0.6078  0.5238
   15CHTO   O81 5975   6.392   4.332   1.277 -0.0881 -0.0177 -0.0087
   15CHTO  H202 5976   6.475   4.294   1.259  0.5580 -0.1631  3.0314
   15CHTO  C119 5977   6.169   4.380   1.190  0.4179  0.3146  0.1037
   15CHTO  H223 5978   6.119   4.395   1.094  0.9870  2.3970  0.1229
   15CHTO  C117 5979   6.112   4.496   1.289 -0.2496 -0.0438  1.0808
   15CHTO  H221 5980   6.146   4.479   1.391  0.0463  0.9160  1.1428
   15CHTO   N20 5981   5.965   4.491   1.288  0.1366  0.3679 -0.1169
   15CHTO  H209 5982   5.920   4.495   1.189 -1.8382 -0.6380  0.7031
   15CHTO  H210 5983   5.942   4.394   1.327  0.9552 -0.0872 -0.7528
   15CHTO   O80 5984   6.118   4.230   1.225 -0.1043 -0.2820  0.4572
   15CHTO  C103 5985   6.067   4.137   1.104 -0.2843 -0.2502  0.5252
   15CHTO  H190 5986   6.000   4.059   1.141 -1.6118  1.6096  2.1685
   15CHTO  C101 5987   5.969   4.201   0.996 -0.2670  0.0037 -0.5593
   15CHTO  H188 5988   6.037   4.273   0.950 -0.0926 -0.4064 -0.9471
   15CHTO   O68 5989   5.860   4.268   1.082  0.3623  0.6320  0.0661
   15CHTO  H168 5990   5.800   4.319   1.032 -0.9970 -0.1108  0.9124
   15CHTO   C99 5991   5.922   4.093   0.888 -0.2305 -0.4079  0.1339
   15CHTO  H186 5992   5.855   4.023   0.942 -0.0034  0.0438  1.0093
   15CHTO   N17 5993   5.848   4.149   0.773  0.0683  0.2715 -0.6084
   15CHTO  H174 5994   5.872   4.093   0.684  1.3284  2.3838 -1.6199
   15CHTO  H175 5995   5.743   4.143   0.795 -0.0308  1.2027 -0.8267
   15CHTO   C97 5996   6.044   4.005   0.839 -0.6269 -1.0801  0.2573
   15CHTO  H184 5997   6.107   4.061   0.768  1.6484 -0.8110  2.4146
   15CHTO   O64 5998   6.124   3.961   0.955  0.5396  0.4566 -0.5088
   15CHTO  C104 5999   6.184   4.064   1.027  0.2058 -0.5954 -0.0436
   15CHTO  H191 6000   6.233   4.134   0.959  0.5327  0.8065  1.5810
   15CHTO  C108 6001   6.300   3.999   1.110  0.5755  0.4522  0.1892
   15CHTO   O71 6002   6.240   3.945   1.230 -0.0229 -0.0108  0.2536
   15CHTO  H171 6003   6.183   3.874   1.208 -0.6322  0.0533  1.5843
   15CHTO   O62 6004   5.990   3.884   0.786 -0.1501  0.0194  0.1575
   15CHTO   C91 6005   6.060   3.822   0.674  0.2137  0.1182 -0.3643
   15CHTO  H178 6006   6.115   3.900   0.621 -1.2997  1.3271 -0.1963
   15CHTO   C92 6007   5.949   3.767   0.576 -0.0218 -0.3205  0.3295
   15CHTO  H179 6008   5.886   3.853   0.550  0.3002 -0.4981 -1.0418
   15CHTO   O66 6009   6.020   3.732   0.455  0.1067 -0.4896  0.0091
   15CHTO  H166 6010   5.967   3.710   0.382 -1.3359  1.6504  0.3666
   15CHTO   C93 6011   5.868   3.646   0.632 -0.2429 -0.1592 -0.2183
   15CHTO  H180 6012   5.829   3.597   0.542 -2.5976  2.7234 -0.8507
   15CHTO   N16 6013   5.746   3.676   0.710  0.3113 -0.5602  0.1233
   15CHTO  H172 6014   5.764   3.758   0.779 -1.3035  0.3347 -0.4944
   15CHTO  H173 6015   5.660   3.693   0.647  1.0333  2.3038 -0.1681
   15CHTO   C94 6016   5.964   3.546   0.709 -0.1887 -0.3827 -0.3945
   15CHTO  H181 6017   5.954   3.555   0.817  0.8705  1.8883 -0.4499
   15CHTO   O61 6018   6.103   3.576   0.678  0.4221  0.4564 -0.0398
   15CHTO   C95 6019   6.148   3.707   0.717 -0.5635  0.3082  0.1225
   15CHTO  H182 6020   6.171   3.713   0.823 -1.3528  1.1293  0.2557
   15CHTO  C106 6021   6.276   3.721   0.642 -0.5112 -0.4567 -0.1947
   15CHTO   O69 6022   6.379   3.623   0.665  0.2736 -0.4182  0.0101
   15CHTO  H169 6023   6.453   3.646   0.718  0.8429  0.7828 -1.2923
   15CHTO   O63 6024   5.938   3.391   0.654  0.1356  0.1007 -0.1912
   15CHTO   C96 6025   6.002   3.274   0.727 -0.0992  0.7617  0.4532
   15CHTO  H183 6026   6.010   3.310   0.829 -0.0235  0.3364  0.6006
   15CHTO   C98 6027   6.137   3.218   0.667 -0.1995 -0.9539  0.5907
   15CHTO  H185 6028   6.121   3.209   0.559  0.8113  1.0150  0.2623
   15CHTO   O67 6029   6.232   3.324   0.685  0.3764 -0.5507 -0.6824
   15CHTO  H167 6030   6.285   3.343   0.610  0.2923 -1.0374 -0.8677
   15CHTO  C102 6031   6.181   3.078   0.731  0.6235  0.2100  0.7035
   15CHTO  H189 6032   6.221   3.096   0.832  1.0365  3.3111  0.0251
   15CHTO   N18 6033   6.297   3.019   0.652 -0.4859  0.5730 -0.1357
   15CHTO  H176 6034   6.303   2.917   0.687 -1.2013  0.5103 -0.1927
   15CHTO  H177 6035   6.385   3.075   0.680 -1.0323  1.4827 -0.2055
   15CHTO  C105 6036   6.058   2.985   0.729  0.6049 -0.7349  0.6888
   15CHTO  H192 6037   6.034   2.960   0.626  2.5844 -0.5153  0.1617
   15CHTO   O65 6038   5.942   3.042   0.793 -0.3326  0.1085  0.1037
   15CHTO  C100 6039   5.897   3.165   0.729  0.2744  0.4438  0.7451
   15CHTO  H187 6040   5.863   3.126   0.632 -1.2053 -0.1729  1.4870
   15CHTO  C107 6041   5.775   3.199   0.815 -0.2273  0.2512 -0.0679
   15CHTO   O70 6042   5.698   3.304   0.756 -0.4586 -0.1126  0.1780
   15CHTO  H170 6043   5.643   3.252   0.700  0.6332 -0.8043 -0.2834
   15CHTO   O57 6044   6.105   2.849   0.805 -0.0587 -0.2325  0.3090
   15CHTO   C85 6045   6.031   2.750   0.872 -0.8357  0.1705 -0.1704
   15CHTO  H157 6046   5.946   2.807   0.914 -1.0806 -0.8915  0.7843
   15CHTO   C83 6047   6.106   2.682   0.991  0.1407 -1.0143  0.5703
   15CHTO  H155 6048   6.131   2.756   1.068  0.9390 -0.4153 -0.2603
   15CHTO   O56 6049   6.233   2.629   0.943  0.4087 -0.3587 -0.3606
   15CHTO  H135 6050   6.221   2.558   0.883 -0.4168 -0.2803 -0.2834
   15CHTO   C81 6051   6.021   2.570   1.067  0.3695 -0.2977  0.5981
   15CHTO  H153 6052   5.936   2.610   1.121 -0.7241 -1.4605 -0.2492
   15CHTO   N14 6053   6.092   2.499   1.175 -0.5641  0.1366 -0.5429
   15CHTO  H141 6054   6.080   2.555   1.265 -0.9642  0.1354 -0.5956
   15CHTO  H142 6055   6.196   2.505   1.152  0.1084  1.7332  2.6324
   15CHTO   C79 6056   5.963   2.469   0.968 -0.0503 -0.0637 -0.2895
   15CHTO  H151 6057   5.882   2.414   1.018 -1.1755  1.0947 -0.8188
   15CHTO   O52 6058   5.897   2.539   0.859 -0.1679  0.0932  0.1153
   15CHTO   C86 6059   5.981   2.631   0.783 -0.0568  0.3391 -0.3742
   15CHTO  H158 6060   6.053   2.557   0.743 -0.5871  0.3780 -1.4159
   15CHTO   C90 6061   5.897   2.685   0.667  0.3229 -0.5492 -0.2835
   15CHTO   O60 6062   5.777   2.741   0.721 -0.4901  0.0080 -0.0424
   15CHTO  H138 6063   5.744   2.817   0.677 -0.9921  0.0196  0.3335
   15CHTO   O50 6064   6.052   2.372   0.915 -0.4749  0.3501 -0.1098
   15CHTO   C73 6065   6.036   2.259   0.830 -0.1801  0.0792 -1.0053
   15CHTO  H145 6066   5.956   2.290   0.761 -0.8251 -0.3200 -0.4418
   15CHTO   C74 6067   6.001   2.137   0.913  0.5034 -0.2755 -0.1018
   15CHTO  H146 6068   5.903   2.163   0.956  0.5818  1.3797 -0.9192
   15CHTO   O54 6069   5.972   2.026   0.821 -0.3004 -0.4267  0.0667
   15CHTO  H133 6070   5.881   2.010   0.807 -0.3174  0.5138 -0.9242
   15CHTO   C75 6071   6.108   2.096   1.018  0.0489  0.4706  0.5251
   15CHTO  H147 6072   6.116   2.178   1.092  1.4562  0.5784  0.2608
   15CHTO   N13 6073   6.075   1.975   1.104  0.1368 -0.1840 -0.0897
   15CHTO  H139 6074   6.154   1.948   1.172  1.1055 -0.1421 -1.1820
   15CHTO  H140 6075   6.052   1.886   1.047  0.5142 -0.8356  0.7730
   15CHTO   C76 6076   6.254   2.081   0.948 -0.2142  0.8727  0.1299
   15CHTO  H148 6077   6.248   1.984   0.899 -5.0071  1.2472 -0.2131
   15CHTO   O49 6078   6.270   2.193   0.851  0.1569 -0.6384  0.8041
   15CHTO   C77 6079   6.168   2.226   0.756  0.0717 -0.1557 -0.1007
   15CHTO  H149 6080   6.153   2.144   0.686  2.8275 -0.1122 -0.7856
   15CHTO   C88 6081   6.217   2.340   0.666  0.1922 -0.3154  0.6292
   15CHTO   O58 6082   6.146   2.370   0.562  0.0957 -0.1844 -0.3828
   15CHTO  H136 6083   6.173   2.448   0.517 -1.5863 -0.4714 -1.9230
   15CHTO   O51 6084   6.372   2.091   1.049 -0.4304  0.3888  0.2796
   15CHTO   C78 6085   6.496   2.009   0.994 -0.2050 -0.3153 -0.0411
   15CHTO  H150 6086   6.494   2.005   0.883  1.8199 -2.2272 -0.0506
   15CHTO   C80 6087   6.496   1.862   1.055  0.0253 -0.2372  0.2435
   15CHTO  H152 6088   6.495   1.873   1.166  0.5699  0.4982  0.1779
   15CHTO   O55 6089   6.375   1.790   1.028  0.3951 -0.0584 -0.1482
   15CHTO  H134 6090   6.362   1.790   0.935 -1.3595  2.5306  0.0579
   15CHTO   C84 6091   6.624   1.781   0.999 -0.2005  0.2603  0.7696
   15CHTO  H156 6092   6.617   1.791   0.891 -4.4865  0.2136  0.9413
   15CHTO   N15 6093   6.623   1.630   1.036 -0.4656 -0.2234  0.3371
   15CHTO  H143 6094   6.717   1.583   1.013 -0.2077  0.5410 -0.1959
   15CHTO  H144 6095   6.595   1.605   1.137  2.9330 -0.2807  1.3323
   15CHTO   C87 6096   6.748   1.856   1.050 -0.9660  0.0915 -0.0971
   15CHTO  H159 6097   6.747   1.848   1.159  0.2971 -3.0415 -0.2676
   15CHTO   O53 6098   6.752   2.001   1.002  0.4938 -0.0520 -0.0825
   15CHTO   C82 6099   6.630   2.083   1.034 -0.2807  0.0690  0.5107
   15CHTO  H154 6100   6.626   2.108   1.140  1.4757  0.0913  0.5848
   15CHTO   C89 6101   6.621   2.218   0.957 -0.1655 -0.8520  0.1460
   15CHTO   O59 6102   6.708   2.310   1.018 -0.2306  0.1768  0.4645
   15CHTO  H137 6103   6.654   2.362   1.075 -3.4254 -0.1651 -2.1019
   15CHTO   O45 6104   6.878   1.800   0.985 -0.1085 -0.1441  0.5229
   15CHTO   C67 6105   6.998   1.880   1.008 -0.3985 -0.0286 -0.6397
   15CHTO  H124 6106   6.970   1.983   1.027 -2.2404 -0.8422  1.2178
   15CHTO   C65 6107   7.077   1.823   1.133  0.5488 -0.3288  0.1534
   15CHTO  H122 6108   7.043   1.720   1.129 -3.1731  0.8080  0.4350
   15CHTO   O44 6109   7.026   1.899   1.244  0.5031 -0.1125  0.2446
   15CHTO  H102 6110   7.083   1.887   1.318  0.7448  1.8427  0.3951
   15CHTO   C63 6111   7.232   1.826   1.097  0.4104  1.0852 -1.1245
   15CHTO  H120 6112   7.254   1.743   1.031 -2.5810 -1.4698  0.9551
   15CHTO   N11 6113   7.320   1.784   1.212 -0.3296  0.2963  0.8208
   15CHTO  H108 6114   7.298   1.683   1.241  2.0529 -0.7279 -0.7998
   15CHTO  H109 6115   7.418   1.796   1.171  0.2464 -2.3182  1.3082
   15CHTO   C61 6116   7.270   1.960   1.034 -0.0271  0.1643 -0.2281
   15CHTO  H118 6117   7.378   1.955   1.014  0.2774  1.3075  1.0993
   15CHTO   O40 6118   7.199   1.973   0.902 -0.8558 -0.0435 -0.7182
   15CHTO   C68 6119   7.089   1.886   0.878 -0.9102  0.0427 -0.3053
   15CHTO  H125 6120   7.126   1.787   0.842  1.6836  0.6580  0.5455
   15CHTO   C72 6121   7.004   1.947   0.756 -0.5390  0.1206 -0.1151
   15CHTO   O48 6122   7.082   1.972   0.642  0.4126 -0.1637  0.1992
   15CHTO  H105 6123   7.036   2.035   0.590  2.8052 -0.6117 -2.6198
   15CHTO   O38 6124   7.243   2.073   1.117  0.3537  0.3724 -0.0734
   15CHTO   C55 6125   7.295   2.199   1.073 -0.0023 -0.3068  0.3041
   15CHTO  H112 6126   7.301   2.189   0.964  1.6771 -2.0541  0.5386
   15CHTO   C56 6127   7.439   2.235   1.143  0.0920  0.3300 -0.3503
   15CHTO  H113 6128   7.434   2.220   1.252  2.1383 -2.4653 -0.5819
   15CHTO   O42 6129   7.535   2.137   1.095  0.5441  0.0287 -0.6287
   15CHTO  H100 6130   7.621   2.153   1.129  0.5944  0.2887 -0.8714
   15CHTO   C57 6131   7.485   2.381   1.095 -0.9326  0.8763 -0.4639
   15CHTO  H114 6132   7.526   2.392   0.994 -0.1463 -0.5049 -0.3011
   15CHTO   N10 6133   7.607   2.415   1.179  0.1027 -1.0547 -0.2667
   15CHTO  H106 6134   7.659   2.493   1.126 -2.8255  0.6184 -0.7836
   15CHTO  H107 6135   7.580   2.454   1.277 -0.6699 -4.7174  1.0563
   15CHTO   C58 6136   7.363   2.477   1.105 -0.7213 -0.4542 -0.5002
   15CHTO  H115 6137   7.333   2.481   1.212  0.6276 -1.9312 -0.0293
   15CHTO   O37 6138   7.253   2.429   1.039  0.8172 -0.2550  0.2376
   15CHTO   C59 6139   7.197   2.316   1.096  0.0622  0.0542 -0.2475
   15CHTO  H116 6140   7.170   2.330   1.200  1.3803 -0.9509  0.2466
   15CHTO   C70 6141   7.070   2.302   1.015 -0.3749 -0.1014 -0.1744
   15CHTO   O46 6142   6.970   2.402   1.045 -0.7705  0.2551  0.4668
   15CHTO  H103 6143   7.013   2.485   1.042 -1.0337  0.3331 -1.1689
   15CHTO   O39 6144   7.398   2.620   1.053 -0.0775  0.3065 -0.3662
   15CHTO   C60 6145   7.346   2.668   0.928  0.6374 -0.8720 -0.7092
   15CHTO  H117 6146   7.337   2.581   0.863 -1.5378  1.2647 -3.3957
   15CHTO   C62 6147   7.206   2.732   0.947  0.3025  0.9773 -0.1628
   15CHTO  H119 6148   7.158   2.657   1.014  1.0779 -1.0861 -1.8702
   15CHTO   O43 6149   7.206   2.848   1.024  0.5089  0.2520  0.4086
   15CHTO  H101 6150   7.283   2.901   1.030  0.0837  0.6941  2.4006
   15CHTO   C66 6151   7.138   2.742   0.797  0.1236  0.0881  0.6026
   15CHTO  H123 6152   7.137   2.639   0.760 -1.1095 -0.3131  1.6865
   15CHTO   N12 6153   6.995   2.785   0.798  0.1222  0.2902  0.1437
   15CHTO  H110 6154   6.933   2.768   0.712 -0.9469  1.2797  0.6955
   15CHTO  H111 6155   6.952   2.752   0.892 -0.0400  3.4887  1.2408
   15CHTO   C69 6156   7.218   2.840   0.714 -0.1713  0.0910 -0.1671
   15CHTO  H126 6157   7.210   2.941   0.758  0.1325 -0.2535  0.6995
   15CHTO   O41 6158   7.378   2.803   0.721  0.1814  0.0752  0.0134
   15CHTO   C64 6159   7.430   2.775   0.859 -0.3265  0.2801 -0.0384
   15CHTO  H121 6160   7.430   2.871   0.914 -0.3372 -0.9763  2.2157
   15CHTO   C71 6161   7.571   2.719   0.842  0.2684  0.2380 -0.0729
   15CHTO   O47 6162   7.653   2.728   0.960 -0.0365 -0.6032 -0.0518
   15CHTO  H104 6163   7.673   2.640   0.986 -0.9763 -0.7656  0.1462
   15CHTO   O34 6164   7.172   2.842   0.570 -0.9653  0.1039 -0.0360
   15CHTO   C49 6165   7.118   2.899   0.409 -0.1650 -0.2286 -1.0446
   15CHTO   H91 6166   7.146   2.825   0.334  4.0791  0.0110  0.1755
   15CHTO   C47 6167   7.208   3.024   0.387  0.0872  0.1660  0.1373
   15CHTO   H89 6168   7.192   3.060   0.283  1.1040 -0.7290 -0.3417
   15CHTO   O33 6169   7.346   2.980   0.406 -0.5197 -0.4252 -0.0789
   15CHTO   H70 6170   7.405   3.031   0.354  0.3096 -1.9576 -0.6753
   15CHTO   C45 6171   7.164   3.147   0.482 -0.1216 -0.1049 -0.8019
   15CHTO   H87 6172   7.162   3.107   0.585  0.5383  1.2799 -0.2361
   15CHTO    N8 6173   7.257   3.263   0.470  0.2202 -0.2711 -0.2316
   15CHTO   H75 6174   7.243   3.323   0.381 -1.7601  0.1379  0.3433
   15CHTO   H76 6175   7.356   3.219   0.468 -0.5311 -1.9830 -0.7906
   15CHTO   C43 6176   7.011   3.182   0.456  0.6624  0.0829  0.9068
   15CHTO   H85 6177   6.985   3.262   0.525  0.4882  2.0306 -1.3799
   15CHTO   O29 6178   6.932   3.058   0.479 -0.0461 -0.7920 -0.4049
   15CHTO   C50 6179   6.965   2.934   0.405 -0.0511  0.2234  0.0336
   15CHTO   H92 6180   6.904   2.845   0.424 -0.1344 -0.3468 -2.6236
   15CHTO   C54 6181   6.917   2.944   0.257  0.4762  0.6469  0.0782
   15CHTO   O36 6182   6.775   2.961   0.253  0.0271 -0.5970 -0.1578
   15CHTO   H72 6183   6.762   2.996   0.166 -1.0157 -0.0554  0.2023
   15CHTO   O27 6184   6.993   3.236   0.330  0.0468 -0.4583  0.3635
   15CHTO   C37 6185   6.889   3.289   0.253  0.0146  0.1348  0.0473
   15CHTO   H79 6186   6.834   3.207   0.206  1.7181 -1.5308  0.9043
   15CHTO   C38 6187   6.786   3.351   0.345 -0.0411  0.1238  0.4892
   15CHTO   H80 6188   6.833   3.422   0.414  2.0619 -0.2688 -0.4956
   15CHTO   O31 6189   6.716   3.256   0.424  0.4832  0.0742  0.0883
   15CHTO   H68 6190   6.678   3.303   0.496 -0.4989 -3.1562  1.8253
   15CHTO   C39 6191   6.668   3.432   0.271  0.8695 -0.2708 -0.1716
   15CHTO   H81 6192   6.606   3.349   0.238 -1.3399  1.5000 -0.6096
   15CHTO    N7 6193   6.564   3.519   0.347  0.2411 -0.9455 -0.6346
   15CHTO   H73 6194   6.565   3.492   0.452 -1.2637  0.6358 -0.1671
   15CHTO   H74 6195   6.466   3.496   0.307  0.3922 -1.0208 -0.9536
   15CHTO   C40 6196   6.724   3.515   0.146  0.6876  0.3615  0.3803
   15CHTO   H82 6197   6.765   3.608   0.184  1.5307  0.4059 -0.6253
   15CHTO   O26 6198   6.816   3.439   0.068  0.0636 -0.7264 -0.2334
   15CHTO   C41 6199   6.934   3.395   0.137 -0.2960  0.2459 -0.0317
   15CHTO   H83 6200   6.975   3.481   0.193 -4.0875 -0.4063  4.0345
   15CHTO   C52 6201   7.036   3.341   0.039 -0.9734 -0.1818 -0.3023
   15CHTO   O35 6202   7.074   3.442  -0.082 -0.5837  0.2599  0.2275
   15CHTO   H71 6203   7.012   3.511  -0.099  1.0277  1.5545 -0.4806
   15CHTO   O28 6204   6.629   3.550   0.048  0.3433  0.6522 -0.0823
   15CHTO   C42 6205   6.624   3.688  -0.008  0.4686 -0.0240 -0.6837
   15CHTO   H84 6206   6.574   3.675  -0.103 -1.3728  0.9166  0.1299
   15CHTO   C44 6207   6.762   3.747  -0.048 -0.4324 -1.3239  0.9105
   15CHTO   H86 6208   6.826   3.756   0.040  0.0889 -2.4778  0.6506
   15CHTO   O32 6209   6.829   3.655  -0.135 -0.6637  0.6214  0.1714
   15CHTO   H69 6210   6.841   3.572  -0.092  2.5229  0.3284 -1.1158
   15CHTO   C48 6211   6.762   3.894  -0.114 -0.0344  0.3264 -0.0888
   15CHTO   H90 6212   6.726   3.887  -0.217 -0.2049  0.1192 -0.0148
   15CHTO    N9 6213   6.903   3.944  -0.135  0.3403  0.0739  0.0843
   15CHTO   H77 6214   6.973   3.915  -0.058 -1.2094 -0.4425  1.3337
   15CHTO   H78 6215   6.935   3.904  -0.229  1.3994  1.1706 -0.0274
   15CHTO   C51 6216   6.672   3.993  -0.035  0.0575  0.1942 -0.1426
   15CHTO   H93 6217   6.717   4.030   0.056 -0.8075  1.4667 -0.2160
   15CHTO   O30 6218   6.547   3.927  -0.014 -0.3049 -0.0873  0.1562
   15CHTO   C46 6219   6.547   3.789   0.073  0.1411 -0.5865 -0.2823
   15CHTO   H88 6220   6.601   3.807   0.166  0.5889 -2.0059 -0.2662
   15CHTO   C53 6221   6.401   3.745   0.100  0.1633  0.5475 -0.1353
   15CHTO   O72 6222   6.338   3.715  -0.026 -0.1344  0.0479  0.0023
   15CHTO  H199 6223   6.392   3.745  -0.097 -1.3257  1.6693 -0.2483
   15CHTO   O22 6224   6.638   4.107  -0.124 -0.4434  0.0971 -0.1594
   15CHTO   C31 6225   6.559   4.223  -0.085 -0.5529 -0.1360  0.8141
   15CHTO   H59 6226   6.577   4.296  -0.167 -0.0022  0.0236  1.0719
   15CHTO   C29 6227   6.405   4.204  -0.082  0.1245 -0.0451 -0.4086
   15CHTO   H57 6228   6.393   4.133   0.002  0.0453 -1.9541 -1.9882
   15CHTO   O21 6229   6.371   4.128  -0.202  0.0538  0.0823  0.1574
   15CHTO   H37 6230   6.338   4.182  -0.271  0.4881 -0.3226 -0.3726
   15CHTO   C27 6231   6.330   4.339  -0.061 -0.7850 -0.2471 -0.1373
   15CHTO   H55 6232   6.354   4.409  -0.142 -3.2796  1.4197  0.4874
   15CHTO    N5 6233   6.184   4.323  -0.054 -0.3183  0.0952 -0.1040
   15CHTO   H43 6234   6.151   4.237  -0.110 -0.3151  0.1756 -0.2295
   15CHTO   H44 6235   6.163   4.296   0.049 -0.3338 -0.8733 -0.3595
   15CHTO   C25 6236   6.393   4.412   0.069  0.6014  0.3529  0.3302
   15CHTO   H53 6237   6.365   4.355   0.159  0.7764  0.3598  0.3891
   15CHTO   O17 6238   6.540   4.419   0.071  0.3990  0.0983  0.4525
   15CHTO   C32 6239   6.608   4.292   0.048 -0.1940  0.1184 -0.1181
   15CHTO   H60 6240   6.591   4.226   0.133 -0.3976  1.4688  0.9078
   15CHTO   C36 6241   6.761   4.334   0.047 -0.1057 -0.7063 -0.0264
   15CHTO   O25 6242   6.791   4.394   0.176  0.4806  0.4616 -0.3125
   15CHTO   H40 6243   6.868   4.448   0.174 -0.9181  2.4929 -1.3794
   15CHTO   O15 6244   6.334   4.566   0.093 -0.1174 -0.4112  0.3778
   15CHTO   C19 6245   6.397   4.680   0.156  0.2701 -0.4777 -0.0142
   15CHTO   H47 6246   6.503   4.673   0.128  0.4277  2.1074 -0.2385
   15CHTO   C20 6247   6.360   4.822   0.102  0.7875 -0.1982 -0.0635
   15CHTO   H48 6248   6.252   4.829   0.086  0.9888 -0.0191 -1.4599
   15CHTO   O19 6249   6.410   4.830  -0.032  0.1494  0.4851  0.0826
   15CHTO   H35 6250   6.359   4.771  -0.084 -0.3827 -0.9599  2.2141
   15CHTO   C21 6251   6.415   4.943   0.188 -0.1702  0.1266  0.4466
   15CHTO   H49 6252   6.522   4.952   0.172 -0.2608  1.4831  0.5003
   15CHTO    N4 6253   6.355   5.071   0.141 -0.5300 -0.0801 -0.1176
   15CHTO   H41 6254   6.294   5.125   0.213 -2.1313  0.0568 -1.5303
   15CHTO   H42 6255   6.303   5.072   0.047 -0.2141  0.3657 -0.2902
   15CHTO   C22 6256   6.387   4.923   0.339 -0.7158 -0.1066  0.3721
   15CHTO   H50 6257   6.279   4.925   0.350 -0.7617 -1.3588  0.2747
   15CHTO   O14 6258   6.445   4.798   0.373 -0.4460 -0.1810  0.1285
   15CHTO   C23 6259   6.394   4.674   0.313  0.1141 -0.9689  0.5464
   15CHTO   H51 6260   6.292   4.658   0.349  0.2233 -2.5994  0.1684
   15CHTO   C34 6261   6.474   4.560   0.377  0.1888  0.4055  0.5961
   15CHTO   O23 6262   6.456   4.565   0.518  0.7273  0.2113 -0.0139
   15CHTO   H38 6263   6.399   4.494   0.542 -0.8373  1.4069 -0.1773
   15CHTO   O16 6264   6.436   5.024   0.428  0.3611  0.0087  0.1831
   15CHTO   C24 6265   6.486   4.978   0.576  0.4875 -0.1401 -0.7208
   15CHTO   H52 6266   6.501   4.870   0.577  0.4429 -0.2044 -3.1085
   15CHTO   C26 6267   6.382   5.009   0.686  0.0322 -0.7818  0.8702
   15CHTO   H54 6268   6.353   5.116   0.672 -2.5733 -1.6803 -1.1246
   15CHTO   O20 6269   6.272   4.922   0.650 -0.3771  0.5857  0.2100
   15CHTO   H36 6270   6.206   4.960   0.596  0.9302  0.5495 -1.4469
   15CHTO   C30 6271   6.435   4.993   0.828 -0.3231  0.0070 -0.0466
   15CHTO   H58 6272   6.456   4.888   0.851  1.8165  0.0325 -1.7539
   15CHTO    N6 6273   6.337   5.039   0.931  0.2323  0.4145 -0.6713
   15CHTO   H45 6274   6.277   4.955   0.966 -0.3031  0.1600 -2.1253
   15CHTO   H46 6275   6.272   5.118   0.895  0.6220  1.6891  1.3494
   15CHTO   C33 6276   6.574   5.063   0.841 -0.0201  0.3249  0.7321
   15CHTO   H61 6277   6.560   5.171   0.832  0.5566  0.3461  0.0442
   15CHTO   O18 6278   6.658   5.022   0.736  0.1399 -0.1804  0.5981
   15CHTO   C28 6279   6.617   5.052   0.600 -0.1315 -0.1693  0.1155
   15CHTO   H56 6280   6.607   5.158   0.576  0.5656 -0.2055 -0.3488
   15CHTO   C35 6281   6.738   5.007   0.514  0.6985 -0.0781  0.0441
   15CHTO   O24 6282   6.723   5.076   0.391  0.1594  0.5507 -0.6463
   15CHTO   H39 6283   6.791   5.042   0.336  0.4654 -1.3303  0.8609
   15CHTO    O9 6284   6.645   5.045   0.969 -0.6717 -0.0789 -0.2439
   15CHTO   C13 6285   6.780   5.090   0.979  0.3600  0.5937 -0.1666
   15CHTO   H26 6286   6.799   5.165   0.899 -0.0398 -0.8010 -1.6114
   15CHTO   C11 6287   6.877   4.970   0.969 -0.2727 -0.2173  0.4324
   15CHTO   H24 6288   6.867   4.920   0.871  0.8911 -0.1984  0.3023
   15CHTO    O8 6289   6.862   4.866   1.068 -0.1121  0.4363  0.0612
   15CHTO    H3 6290   6.914   4.794   1.039  3.0711  2.5596  0.1669
   15CHTO    C9 6291   7.015   5.043   0.976 -0.1271 -0.0074 -0.0591
   15CHTO   H22 6292   7.014   5.118   0.896  1.3482  2.3827  2.0756
   15CHTO    N2 6293   7.130   4.958   0.932 -0.6432  0.1274 -0.5306
   15CHTO   H10 6294   7.194   4.941   1.018 -1.2733  0.5170  0.0256
   15CHTO   H11 6295   7.179   4.993   0.843 -0.7664  0.8852 -0.3052
   15CHTO    C7 6296   7.035   5.109   1.115  0.3987  0.6060 -0.1923
   15CHTO   H20 6297   7.122   5.177   1.099  0.7130 -0.2578 -2.3904
   15CHTO    O4 6298   6.928   5.199   1.135  0.1259  0.0547 -0.6652
   15CHTO   C14 6299   6.793   5.167   1.109  0.4596  0.1558  0.5520
   15CHTO   H27 6300   6.732   5.260   1.106 -1.2259 -0.9473  0.3930
   15CHTO   C18 6301   6.749   5.088   1.241  0.3325  0.0154 -0.5322
   15CHTO   O13 6302   6.742   5.178   1.351  0.4272  0.2775  0.1328
   15CHTO    H7 6303   6.814   5.179   1.411 -0.1303  0.9595  0.8083
   15CHTO    O2 6304   7.053   4.998   1.233  0.3781 -0.6488  0.1686
   15CHTO    C1 6305   7.147   5.033   1.333 -0.4384 -0.3340 -0.8224
   15CHTO   H14 6306   7.130   5.134   1.377  2.8028 -0.8099  1.6671
   15CHTO    C2 6307   7.302   5.022   1.298  0.1828  0.0948 -0.0160
   15CHTO   H15 6308   7.304   4.939   1.225  1.0410  0.8122 -0.8250
   15CHTO    O6 6309   7.345   5.143   1.239  0.7021  0.0141 -0.1678
   15CHTO    H1 6310   7.313   5.159   1.152  1.1748 -0.9295 -0.5185
   15CHTO    C3 6311   7.402   4.990   1.423 -0.3065  0.5210 -0.4159
   15CHTO   H16 6312   7.412   5.081   1.484  2.0549 -1.1375  1.7478
   15CHTO    N1 6313   7.546   4.957   1.385  0.2911 -0.0351 -0.1004
   15CHTO    H8 6314   7.612   4.921   1.462 -0.4643  0.3334  0.7337
   15CHTO    H9 6315   7.588   5.044   1.336 -1.3391  0.3416 -0.8593
   15CHTO    C4 6316   7.334   4.885   1.511  0.9174 -0.1162  0.2660
   15CHTO   H17 6317   7.314   4.794   1.456  0.4887  1.4938 -2.3028
   15CHTO    O1 6318   7.213   4.943   1.554 -0.2409  0.3641 -0.1052
   15CHTO    C5 6319   7.106   4.943   1.456  0.3703 -0.1620 -0.3968
   15CHTO   H18 6320   7.079   4.841   1.428 -3.7710  0.1131  2.1282
   15CHTO   C16 6321   6.981   4.996   1.523 -0.1561  0.0987  0.1726
   15CHTO   O11 6322   6.913   4.902   1.605 -0.3319 -0.4318 -0.4098
   15CHTO    H5 6323   6.820   4.914   1.602 -0.4437 -0.9294  1.0637
   15CHTO    O3 6324   7.417   4.858   1.623 -0.9899 -0.2853  0.0000
   15CHTO    C6 6325   7.453   4.722   1.663  0.1489 -0.2305 -0.5213
   15CHTO   H19 6326   7.401   4.645   1.604  0.1896  0.7543 -1.8574
   15CHTO    C8 6327   7.610   4.694   1.659  0.4003  0.3285  0.0470
   15CHTO   H21 6328   7.660   4.782   1.699 -1.5528  0.6064  1.9995
   15CHTO    O7 6329   7.634   4.675   1.521  0.9427 -0.2368  0.1903
   15CHTO    H2 6330   7.721   4.703   1.502  1.4468 -1.4791  0.6492
   15CHTO   C12 6331   7.660   4.573   1.747  0.4297  0.0523  0.1590
   15CHTO   H25 6332   7.632   4.486   1.683 -0.1763 -0.1937  0.7457
   15CHTO    N3 6333   7.809   4.559   1.755  0.3716  0.4927  0.0840
   15CHTO   H12 6334   7.862   4.652   1.770  0.2018  0.0936  3.5287
   15CHTO   H13 6335   7.846   4.513   1.665  1.8861  0.3236  0.7668
   15CHTO   C15 6336   7.583   4.553   1.878  0.1778 -0.4760 -1.0825
   15CHTO   H28 6337   7.613   4.626   1.954  1.6478 -1.2877 -0.8641
   15CHTO   O10 6338   7.587   4.407   1.944 -0.0812  0.5036 -0.0084
   15CHTO    H4 6339   7.632   4.407   2.026  0.0754  2.4127 -0.0834
   15CHTO    O5 6340   7.441   4.582   1.862 -0.6102 -0.4372 -0.1211
   15CHTO   C10 6341   7.403   4.710   1.807 -1.2095 -0.1307  0.3102
   15CHTO   H23 6342   7.438   4.791   1.872  2.0153 -0.9656 -0.3493
   15CHTO   C17 6343   7.248   4.713   1.806  0.3991  0.1988 -0.2421
   15CHTO   O12 6344   7.195   4.842   1.835 -0.2841  0.3235  0.3269
   15CHTO    H6 6345   7.227   4.880   1.915 -0.1658  0.2337  0.3214
   16CHTO  H203 6346   5.505   5.281   0.455  0.5645 -0.0021 -0.0901
   16CHTO   O82 6347   5.519   5.196   0.418  0.3438 -0.0429 -0.0792
   16CHTO  C123 6348   5.590   5.111   0.507 -0.2778 -0.2519  0.0663
   16CHTO  H227 6349   5.528   5.087   0.595  2.5041  1.1877  2.5230
   16CHTO   O77 6350   5.623   4.996   0.423  0.6134 -0.6901 -0.3176
   16CHTO  C118 6351   5.661   4.885   0.514 -0.3626 -0.7248 -0.1151
   16CHTO  H222 6352   5.579   4.870   0.585  0.7167 -1.7187  0.9472
   16CHTO  C125 6353   5.664   4.756   0.421 -0.0464 -0.4530 -0.7903
   16CHTO   O84 6354   5.729   4.776   0.296 -0.4127  0.1997  0.5543
   16CHTO  H205 6355   5.761   4.692   0.270 -1.0746 -0.0263  0.4797
   16CHTO  C114 6356   5.802   4.913   0.572  0.2666 -0.2043 -0.0920
   16CHTO  H218 6357   5.870   4.895   0.489 -0.0634 -1.7046 -0.0535
   16CHTO  C116 6358   5.815   5.057   0.633 -0.2608 -0.3425  0.1032
   16CHTO  H220 6359   5.769   5.042   0.733  1.6961 -0.7976  0.9523
   16CHTO   O79 6360   5.953   5.096   0.654 -0.2575 -0.4614  0.1378
   16CHTO  H201 6361   5.985   5.026   0.709 -0.6944  1.8938  3.5246
   16CHTO  C120 6362   5.729   5.164   0.554 -0.1774 -0.4118  0.7013
   16CHTO  H224 6363   5.783   5.203   0.466 -0.4473  1.0204  1.1585
   16CHTO   N21 6364   5.714   5.284   0.637 -0.3176  0.2977  0.0681
   16CHTO  H211 6365   5.704   5.271   0.743 -1.5101  0.8333  0.0289
   16CHTO  H212 6366   5.669   5.370   0.588 -0.5196 -0.2149 -0.6523
   16CHTO   O75 6367   5.827   4.807   0.663 -0.0247  0.0381 -0.2382
   16CHTO  C112 6368   5.969   4.719   0.647  0.8990  0.5081  0.7711
   16CHTO  H216 6369   6.054   4.784   0.620  0.1706  0.6156 -1.3689
   16CHTO   O73 6370   5.950   4.614   0.551  0.1368 -0.4234  0.1283
   16CHTO  C113 6371   6.066   4.537   0.522 -0.1239  0.3185  0.5589
   16CHTO  H217 6372   6.136   4.618   0.493 -0.8397  1.4667  1.9687
   16CHTO  C124 6373   6.033   4.461   0.396 -0.0692 -0.7798 -0.1956
   16CHTO   O83 6374   6.150   4.417   0.325 -0.4041  0.6873 -0.3089
   16CHTO  H204 6375   6.196   4.483   0.277 -0.4185  0.5772 -0.4764
   16CHTO  C109 6376   6.120   4.450   0.644 -0.1508  0.0305 -0.4740
   16CHTO  H213 6377   6.048   4.368   0.661 -1.2262  1.1917  0.6441
   16CHTO  C110 6378   6.137   4.555   0.764 -0.6210 -1.0332 -0.5454
   16CHTO  H214 6379   6.223   4.617   0.739 -1.5546 -1.1676 -4.3742
   16CHTO   O78 6380   6.178   4.485   0.885 -0.1042 -0.1869  0.0591
   16CHTO  H200 6381   6.261   4.443   0.874 -0.1932  0.1636 -2.3069
   16CHTO  C111 6382   6.012   4.643   0.784  0.3580 -0.5308  0.0076
   16CHTO  H215 6383   5.928   4.578   0.814  0.2584 -1.3889 -2.0389
   16CHTO   N19 6384   6.029   4.744   0.892  0.0373  0.2306  0.0232
   16CHTO  H207 6385   5.930   4.784   0.909  0.4768  2.0741 -1.4650
   16CHTO  H208 6386   6.103   4.813   0.853 -0.0666  0.5772  0.4391
   16CHTO   O74 6387   6.248   4.395   0.594  0.3507  0.4566 -0.3251
   16CHTO  C115 6388   6.285   4.243   0.646 -0.1637  0.5981  0.8396
   16CHTO  H219 6389   6.240   4.226   0.744 -0.4923  3.1904  1.1611
   16CHTO   O76 6390   6.225   4.130   0.556 -0.0780  0.3685 -0.5209
   16CHTO  C122 6391   6.298   4.134   0.436  0.0935  0.7209  0.6649
   16CHTO  H226 6392   6.297   4.236   0.400  1.8767  0.4394 -0.2025
   16CHTO  C126 6393   6.226   4.041   0.332  0.0417  0.1008  0.9276
   16CHTO   O85 6394   6.272   4.060   0.196 -0.3551  0.0249 -0.0230
   16CHTO  H206 6395   6.265   3.985   0.141  2.1097  1.8561 -2.9812
   16CHTO  C121 6396   6.449   4.091   0.448 -0.3549 -0.8090 -0.3100
   16CHTO  H225 6397   6.465   3.986   0.415 -0.6834 -0.9240 -0.1073
   16CHTO   O81 6398   6.529   4.175   0.358 -0.1858 -0.2885 -0.3294
   16CHTO  H202 6399   6.523   4.269   0.357 -0.4118 -0.2977  0.4020
   16CHTO  C119 6400   6.499   4.099   0.594 -0.2701 -0.1721 -0.0590
   16CHTO  H223 6401   6.451   4.018   0.650  1.7518  0.3275  2.4819
   16CHTO  C117 6402   6.448   4.230   0.670  0.2212 -0.0051 -0.0954
   16CHTO  H221 6403   6.486   4.325   0.633 -0.6375  0.8567  1.1537
   16CHTO   N20 6404   6.481   4.223   0.818 -0.7670  0.4097  0.4174
   16CHTO  H209 6405   6.461   4.121   0.847 -2.7544  0.5558 -0.3681
   16CHTO  H210 6406   6.587   4.235   0.835 -1.0218  1.7992  1.0296
   16CHTO   O80 6407   6.661   4.056   0.611  0.1652 -0.6861 -0.0358
   16CHTO  C103 6408   6.699   3.901   0.581 -0.1378 -0.8601  0.3777
   16CHTO  H190 6409   6.614   3.851   0.536 -1.7402  4.8734 -3.4705
   16CHTO  C101 6410   6.831   3.877   0.490 -0.2653 -0.1288 -0.4879
   16CHTO  H188 6411   6.908   3.949   0.519 -0.7471 -0.0004  0.4677
   16CHTO   O68 6412   6.790   3.897   0.345 -0.3534  0.1695  0.7484
   16CHTO  H168 6413   6.732   3.828   0.321  1.1472 -1.3636  1.4733
   16CHTO   C99 6414   6.899   3.730   0.504  1.0353  0.1663 -0.3577
   16CHTO  H186 6415   6.831   3.661   0.450 -0.7446  0.3956  1.5626
   16CHTO   N17 6416   7.031   3.710   0.442  0.1373 -0.0388 -0.4295
   16CHTO  H174 6417   7.106   3.762   0.500 -0.1181 -0.3884  0.2270
   16CHTO  H175 6418   7.040   3.732   0.337 -0.6823  1.0977 -0.2632
   16CHTO   C97 6419   6.887   3.677   0.644 -0.3211  0.1423 -0.4019
   16CHTO  H184 6420   6.970   3.704   0.711 -1.5455 -0.0590  1.2221
   16CHTO   O64 6421   6.757   3.706   0.707 -0.6865 -0.0533  0.6199
   16CHTO  C104 6422   6.724   3.838   0.723 -0.6406 -0.0062  0.4057
   16CHTO  H191 6423   6.802   3.888   0.780  0.8096 -1.8236  0.0676
   16CHTO  C108 6424   6.596   3.845   0.809 -0.0593  0.0614  0.0483
   16CHTO   O71 6425   6.613   3.762   0.928  0.6939 -0.1602 -0.3918
   16CHTO  H171 6426   6.532   3.756   0.975 -0.3332 -0.4751 -2.1256
   16CHTO   O62 6427   6.878   3.530   0.642 -0.2878 -0.2557  0.6950
   16CHTO   C91 6428   6.882   3.462   0.766 -0.7032 -0.4674  0.2973
   16CHTO  H178 6429   6.856   3.536   0.842  1.9786  1.0433 -0.2044
   16CHTO   C92 6430   7.032   3.424   0.788  0.5261  0.7189  0.2727
   16CHTO  H179 6431   7.056   3.365   0.699 -0.7718 -1.9706  1.6433
   16CHTO   O66 6432   7.111   3.546   0.789 -0.5236  0.0303 -0.8692
   16CHTO  H166 6433   7.182   3.543   0.850 -1.7041  0.2941  0.5345
   16CHTO   C93 6434   7.056   3.329   0.907 -0.5609 -0.5239 -0.1627
   16CHTO  H180 6435   7.052   3.396   0.995  1.6000  0.0042 -0.4472
   16CHTO   N16 6436   7.191   3.273   0.898 -0.4891  0.1158 -0.1258
   16CHTO  H172 6437   7.184   3.165   0.901  1.5079 -0.0074  1.0494
   16CHTO  H173 6438   7.254   3.309   0.978 -0.0828 -0.3639 -0.2264
   16CHTO   C94 6439   6.942   3.219   0.921  0.2956  0.1201 -0.5188
   16CHTO  H181 6440   6.973   3.123   0.879  0.0892 -0.9385  1.6395
   16CHTO   O61 6441   6.811   3.253   0.887 -0.2705 -0.3764  0.4222
   16CHTO   C95 6442   6.795   3.334   0.768  0.1780  0.1190 -0.1439
   16CHTO  H182 6443   6.807   3.271   0.680 -0.6281 -2.2312  1.3569
   16CHTO  C106 6444   6.647   3.384   0.752  0.4988  0.8194  0.4947
   16CHTO   O69 6445   6.560   3.274   0.734 -0.1817  0.2046 -0.1427
   16CHTO  H169 6446   6.484   3.286   0.788  2.1652  1.0192  3.1573
   16CHTO   O63 6447   6.936   3.196   1.092  0.0452  1.1259 -0.0758
   16CHTO   C96 6448   6.777   3.144   1.153  0.6316  0.3235  0.6796
   16CHTO  H183 6449   6.793   3.091   1.247 -0.4842 -2.9057 -0.8778
   16CHTO   C98 6450   6.694   3.044   1.063  0.4488  0.7733  0.2456
   16CHTO  H185 6451   6.689   3.084   0.961 -1.8732  0.0089  0.0248
   16CHTO   O67 6452   6.781   2.934   1.053  0.2166 -0.3694  0.1323
   16CHTO  H167 6453   6.744   2.868   0.997  1.5265  0.0610 -1.3037
   16CHTO  C102 6454   6.541   3.006   1.116  0.0098 -0.5735 -0.6048
   16CHTO  H189 6455   6.550   2.953   1.211 -2.6326 -0.2253 -0.1068
   16CHTO   N18 6456   6.457   2.914   1.027  0.4083 -0.5398 -0.3050
   16CHTO  H176 6457   6.418   2.965   0.940  0.2621 -1.6664 -0.8998
   16CHTO  H177 6458   6.368   2.881   1.077 -0.0984  0.8044 -0.3017
   16CHTO  C105 6459   6.480   3.148   1.141 -0.9091 -0.3537  1.0095
   16CHTO  H192 6460   6.482   3.207   1.049  0.1241  0.9893  1.8740
   16CHTO   O65 6461   6.557   3.221   1.241  0.6268 -0.2212  0.6768
   16CHTO  C100 6462   6.681   3.262   1.185 -0.0529  0.2976 -0.7400
   16CHTO  H187 6463   6.662   3.324   1.095  0.5453  1.2530 -0.2135
   16CHTO  C107 6464   6.745   3.362   1.286  0.8964 -0.2734  0.1645
   16CHTO   O70 6465   6.648   3.455   1.345  0.6339  0.9169 -0.9617
   16CHTO  H170 6466   6.580   3.416   1.397  0.2608 -1.2889 -2.9979
   16CHTO   O57 6467   6.317   3.132   1.174 -0.3491 -0.0534  0.0580
   16CHTO   C85 6468   6.235   3.233   1.109  0.0986 -0.6820 -0.9616
   16CHTO  H157 6469   6.259   3.228   1.001 -2.3370  1.3602 -1.6405
   16CHTO   C83 6470   6.270   3.377   1.150 -0.0124 -0.4571  0.8871
   16CHTO  H155 6471   6.377   3.387   1.132  0.2120 -3.1749  0.5195
   16CHTO   O56 6472   6.262   3.390   1.290  0.3787  0.0210 -0.4398
   16CHTO  H135 6473   6.288   3.314   1.338 -0.4964 -0.1167 -0.1722
   16CHTO   C81 6474   6.186   3.475   1.063 -0.1923  0.4898 -0.2805
   16CHTO  H153 6475   6.194   3.450   0.957 -2.1444 -1.8538  0.1080
   16CHTO   N14 6476   6.233   3.616   1.061  0.1469  0.0764 -0.2064
   16CHTO  H141 6477   6.197   3.667   1.148 -0.3017  0.3444 -0.5501
   16CHTO  H142 6478   6.202   3.669   0.974  0.1085 -1.2551 -1.0229
   16CHTO   C79 6479   6.031   3.457   1.101  0.6683 -0.2059 -0.6713
   16CHTO  H151 6480   5.979   3.517   1.026 -0.0039  0.4146  0.2888
   16CHTO   O52 6481   5.989   3.324   1.073  0.4610 -0.5066 -0.0666
   16CHTO   C86 6482   6.072   3.211   1.134 -0.1806  0.6730  0.0795
   16CHTO  H158 6483   6.047   3.218   1.242 -4.2000  0.2443 -0.7379
   16CHTO   C90 6484   6.024   3.066   1.085  0.1397 -0.1578  0.4771
   16CHTO   O60 6485   5.884   3.036   1.114 -0.3575 -0.2221  0.4255
   16CHTO  H138 6486   5.878   2.995   1.198 -2.3585 -0.8491  0.0010
   16CHTO   O50 6487   5.991   3.506   1.233 -0.6604 -0.2687  0.1293
   16CHTO   C73 6488   5.868   3.506   1.302 -0.1414  0.4374 -0.1303
   16CHTO  H145 6489   5.832   3.403   1.319  1.3073  0.0640  0.8141
   16CHTO   C74 6490   5.756   3.561   1.206  0.4757  0.2939  1.1785
   16CHTO  H146 6491   5.765   3.501   1.115  1.4612  0.5094  1.1237
   16CHTO   O54 6492   5.617   3.530   1.243 -0.2423 -0.3412 -0.7044
   16CHTO  H133 6493   5.605   3.548   1.335  2.3053 -0.5838 -0.2966
   16CHTO   C75 6494   5.778   3.719   1.182  0.7202  0.1940  0.1477
   16CHTO  H147 6495   5.878   3.733   1.139  0.9644  0.8688  0.9121
   16CHTO   N13 6496   5.686   3.777   1.081 -0.4860 -0.2347 -0.2069
   16CHTO  H139 6497   5.579   3.779   1.091 -0.3850  2.3557  0.7881
   16CHTO  H140 6498   5.713   3.880   1.058 -0.8446  0.2321  1.3558
   16CHTO   C76 6499   5.774   3.793   1.319  0.2147 -0.3295  0.0975
   16CHTO  H148 6500   5.671   3.781   1.349  0.0109 -1.4626 -1.0248
   16CHTO   O49 6501   5.872   3.730   1.415 -0.0283 -0.2521  0.4719
   16CHTO   C77 6502   5.864   3.589   1.432  0.1485  0.1943 -0.2152
   16CHTO  H149 6503   5.772   3.561   1.483  1.4216 -1.0147  1.5268
   16CHTO   C88 6504   5.968   3.549   1.544 -0.3260 -0.3132  1.0463
   16CHTO   O58 6505   6.094   3.600   1.519 -0.1794 -0.2392 -0.3907
   16CHTO  H136 6506   6.147   3.607   1.597 -1.4296  2.3129  0.2775
   16CHTO   O51 6507   5.817   3.946   1.310 -0.0110 -0.5553 -0.1305
   16CHTO   C78 6508   5.774   4.021   1.415  0.4057  0.0117 -0.7588
   16CHTO  H150 6509   5.732   3.959   1.497 -1.1286  2.5651  0.4699
   16CHTO   C80 6510   5.668   4.126   1.367  0.2219  0.5630  0.2388
   16CHTO  H152 6511   5.700   4.168   1.270 -0.5218 -0.2483 -0.3757
   16CHTO   O55 6512   5.548   4.055   1.343  0.4896 -0.7342 -0.3152
   16CHTO  H134 6513   5.500   4.096   1.273  0.7282 -1.5488 -0.9615
   16CHTO   C84 6514   5.639   4.239   1.471  0.1291 -0.1119 -0.0929
   16CHTO  H156 6515   5.581   4.198   1.554  0.7211 -0.5028  0.1345
   16CHTO   N15 6516   5.561   4.352   1.415  0.3304 -0.5017 -0.0100
   16CHTO  H143 6517   5.627   4.401   1.347  0.0187  0.4768  0.3856
   16CHTO  H144 6518   5.524   4.423   1.486 -0.6061  0.1958 -1.1803
   16CHTO   C87 6519   5.775   4.299   1.530  0.0566 -0.2198 -0.3302
   16CHTO  H159 6520   5.824   4.348   1.445  0.0791  4.5565  2.2960
   16CHTO   O53 6521   5.857   4.189   1.573  0.3719 -0.3444 -0.2775
   16CHTO   C82 6522   5.896   4.097   1.466 -0.4051 -0.5849  0.8206
   16CHTO  H154 6523   5.945   4.155   1.388  1.5432 -1.6452  1.2310
   16CHTO   C89 6524   5.999   4.005   1.519 -0.3271 -0.0780 -0.2779
   16CHTO   O59 6525   6.133   4.063   1.509  0.4803 -0.0910  0.0136
   16CHTO  H137 6526   6.178   4.049   1.428  2.4297 -3.2299  1.5251
   16CHTO   O45 6527   5.743   4.393   1.657  0.4108 -0.3958  0.1779
   16CHTO   C67 6528   5.848   4.480   1.707 -0.4154 -0.6453 -0.5302
   16CHTO  H124 6529   5.941   4.462   1.654  0.0569 -2.5058  0.8687
   16CHTO   C65 6530   5.815   4.634   1.693 -0.6154 -0.3110  0.7087
   16CHTO  H122 6531   5.707   4.641   1.700 -0.5593 -0.6902  1.9878
   16CHTO   O44 6532   5.873   4.662   1.563 -0.2242 -0.0683 -0.1570
   16CHTO  H102 6533   5.862   4.754   1.551 -0.0468  0.0619  0.6758
   16CHTO   C63 6534   5.880   4.716   1.814  0.3461  0.5884 -0.1443
   16CHTO  H120 6535   5.811   4.707   1.899 -0.8104  0.9091 -1.0330
   16CHTO   N11 6536   5.878   4.863   1.791  0.2170  0.2989 -0.1715
   16CHTO  H108 6537   5.803   4.904   1.856  0.6358  0.4881  0.2022
   16CHTO  H109 6538   5.849   4.884   1.690 -3.7374  2.0728  1.2267
   16CHTO   C61 6539   6.015   4.660   1.874 -0.2740  0.5609 -0.7181
   16CHTO  H118 6540   6.038   4.709   1.970 -0.8438  1.0240 -0.8125
   16CHTO   O40 6541   6.011   4.511   1.896 -0.0538  0.4421  0.0582
   16CHTO   C68 6542   5.886   4.439   1.858 -0.4292 -0.6969 -0.8816
   16CHTO  H125 6543   5.803   4.470   1.925 -0.9979 -2.8525 -0.5393
   16CHTO   C72 6544   5.912   4.294   1.887  0.8077  0.2147 -0.2619
   16CHTO   O48 6545   5.792   4.214   1.874 -0.1625  0.5687  0.1720
   16CHTO  H105 6546   5.806   4.137   1.925 -2.2869  1.4582  2.1878
   16CHTO   O38 6547   6.124   4.671   1.786 -0.4068  0.3243 -0.7249
   16CHTO   C55 6548   6.254   4.613   1.820 -0.2402  0.0976 -0.1847
   16CHTO  H112 6549   6.242   4.546   1.906  0.3787  1.2589  0.8197
   16CHTO   C56 6550   6.351   4.734   1.845  0.1200 -0.3919 -0.1462
   16CHTO  H113 6551   6.327   4.793   1.756  0.4189 -1.0618 -0.6818
   16CHTO   O42 6552   6.311   4.808   1.956  0.4084  0.2474 -0.9367
   16CHTO  H100 6553   6.340   4.767   2.035 -1.5371  2.2449  0.8618
   16CHTO   C57 6554   6.501   4.685   1.857  0.4705  0.4896 -0.2367
   16CHTO  H114 6555   6.518   4.632   1.951 -2.3902 -0.7478 -0.3762
   16CHTO   N10 6556   6.599   4.802   1.864 -0.6804 -0.5267 -0.0496
   16CHTO  H106 6557   6.688   4.775   1.919  0.3974  0.8173 -1.1018
   16CHTO  H107 6558   6.561   4.893   1.906  0.7753 -0.0157  0.2023
   16CHTO   C58 6559   6.537   4.591   1.741 -0.2192 -0.4749 -0.4686
   16CHTO  H115 6560   6.535   4.645   1.644 -2.3368 -1.3569 -0.9530
   16CHTO   O37 6561   6.444   4.483   1.738  0.5567  0.1817 -0.0260
   16CHTO   C59 6562   6.316   4.519   1.701 -0.4664 -0.7049  0.1708
   16CHTO  H116 6563   6.323   4.576   1.609  0.4964  0.1129  0.7316
   16CHTO   C70 6564   6.238   4.383   1.694  0.1580 -0.4201  0.2766
   16CHTO   O46 6565   6.290   4.289   1.601 -0.0255 -0.7358 -0.3935
   16CHTO  H103 6566   6.237   4.212   1.604 -1.9587  0.5805 -0.2789
   16CHTO   O39 6567   6.701   4.522   1.748 -0.3839 -0.4427  0.0320
   16CHTO   C60 6568   6.726   4.466   1.619 -0.1202  0.0827  0.7036
   16CHTO  H117 6569   6.634   4.442   1.566 -0.0637  3.2488 -0.9837
   16CHTO   C62 6570   6.817   4.562   1.531 -0.9395 -0.2528  0.2005
   16CHTO  H119 6571   6.755   4.654   1.531  1.0740  1.1417  0.9481
   16CHTO   O43 6572   6.945   4.579   1.595 -0.2037  0.1272  0.2984
   16CHTO  H101 6573   6.964   4.664   1.630  1.5383 -0.2553  0.3307
   16CHTO   C66 6574   6.822   4.488   1.387 -0.3268 -0.1443  0.5867
   16CHTO  H123 6575   6.722   4.460   1.354  0.1235  0.1978 -1.1398
   16CHTO   N12 6576   6.875   4.574   1.275  0.0441  0.4879  0.4502
   16CHTO  H110 6577   6.962   4.637   1.290  1.1727 -1.0680  0.5131
   16CHTO  H111 6578   6.892   4.518   1.184 -0.5441  0.7411  0.1837
   16CHTO   C69 6579   6.903   4.363   1.399  0.2120  0.9727 -0.5358
   16CHTO  H126 6580   7.008   4.396   1.412 -0.6547  3.2762  0.7872
   16CHTO   O41 6581   6.867   4.271   1.525  0.5000  0.5629  0.5367
   16CHTO   C64 6582   6.800   4.331   1.651 -0.2866  0.0050  0.0601
   16CHTO  H121 6583   6.880   4.360   1.722 -0.8613  2.6064 -0.3148
   16CHTO   C71 6584   6.699   4.228   1.711 -0.2337  0.1147 -0.7297
   16CHTO   O47 6585   6.613   4.171   1.611 -0.1290 -0.1011  0.3540
   16CHTO  H104 6586   6.659   4.107   1.558  0.5868  1.5594 -1.0955
   16CHTO   O34 6587   6.899   4.276   1.250  0.0289 -0.1730  0.1210
   16CHTO   C49 6588   6.989   4.166   1.182  0.2543  0.1852 -0.7214
   16CHTO   H91 6589   7.026   4.215   1.092  2.3654 -0.6276 -0.3329
   16CHTO   C47 6590   6.895   4.043   1.162 -0.1346 -0.3472  0.0842
   16CHTO   H89 6591   6.957   3.974   1.101 -2.9704 -1.2471 -1.9169
   16CHTO   O33 6592   6.785   4.076   1.074  0.1992  0.3328  0.0690
   16CHTO   H70 6593   6.817   4.123   1.000 -0.3061  1.1211  0.3506
   16CHTO   C45 6594   6.852   3.975   1.307  0.2386  0.4596 -0.2093
   16CHTO   H87 6595   6.786   4.048   1.356 -0.2082  1.6402 -2.5024
   16CHTO    N8 6596   6.777   3.846   1.287 -0.1981 -0.2376 -0.4521
   16CHTO   H75 6597   6.742   3.846   1.185 -0.2789 -2.0263 -0.4421
   16CHTO   H76 6598   6.836   3.758   1.307  1.5919  0.7071 -1.4154
   16CHTO   C43 6599   6.980   3.954   1.403  0.2259 -0.0029  0.1402
   16CHTO   H85 6600   6.938   3.934   1.502 -1.2347 -0.4156 -0.5456
   16CHTO   O29 6601   7.061   4.071   1.403  0.1265  0.0710 -0.4780
   16CHTO   C50 6602   7.104   4.133   1.280 -0.4957  0.1745  0.0744
   16CHTO   H92 6603   7.155   4.227   1.306  1.4600 -0.9874  0.5464
   16CHTO   C54 6604   7.218   4.047   1.210 -0.3134 -0.2534 -0.2237
   16CHTO   O36 6605   7.329   4.038   1.300  0.0257  0.1297 -0.5106
   16CHTO   H72 6606   7.393   3.987   1.255 -2.5801 -2.2974 -1.6168
   16CHTO   O27 6607   7.064   3.837   1.373 -0.4024 -0.0100 -0.1836
   16CHTO   C37 6608   7.175   3.757   1.423 -0.0929 -0.0540  0.0743
   16CHTO   H79 6609   7.269   3.805   1.392 -0.8247 -0.5314 -2.9606
   16CHTO   C38 6610   7.168   3.751   1.584 -0.4586  0.1139 -0.2920
   16CHTO   H80 6611   7.063   3.726   1.608 -0.5252  0.1593 -0.5344
   16CHTO   O31 6612   7.195   3.884   1.627  0.6187 -0.8695 -0.3721
   16CHTO   H68 6613   7.165   3.895   1.716  1.1531  0.4270 -0.3353
   16CHTO   C39 6614   7.273   3.651   1.642 -0.3929 -0.2769  0.1780
   16CHTO   H81 6615   7.374   3.676   1.609  0.1757 -1.2779  1.1305
   16CHTO    N7 6616   7.269   3.642   1.790  0.3660  0.7723  0.3084
   16CHTO   H73 6617   7.222   3.726   1.837  1.0656 -0.1080  2.6305
   16CHTO   H74 6618   7.365   3.627   1.837  0.0064  1.0753  1.1420
   16CHTO   C40 6619   7.251   3.514   1.573  0.2746 -0.2060 -0.9920
   16CHTO   H82 6620   7.151   3.489   1.609  0.3784  0.8411  0.0526
   16CHTO   O26 6621   7.259   3.520   1.430 -0.1124  0.1898 -0.2508
   16CHTO   C41 6622   7.166   3.619   1.367  0.2433  0.3090 -0.0144
   16CHTO   H83 6623   7.060   3.590   1.368 -0.0739  1.4413  0.9387
   16CHTO   C52 6624   7.200   3.629   1.215 -0.0805  0.0591 -0.1229
   16CHTO   O35 6625   7.211   3.492   1.153  0.1676  0.2605 -0.4193
   16CHTO   H71 6626   7.295   3.456   1.171 -0.4992 -1.4715 -0.6913
   16CHTO   O28 6627   7.344   3.416   1.621 -0.1671 -0.2167 -0.2552
   16CHTO   C42 6628   7.344   3.273   1.564 -0.3651  0.2273 -0.3079
   16CHTO   H84 6629   7.423   3.228   1.625  0.1839  1.0894 -0.3758
   16CHTO   C44 6630   7.387   3.244   1.416  0.3140  1.2500  0.3412
   16CHTO   H86 6631   7.324   3.304   1.352  2.3153 -0.3080 -3.2906
   16CHTO   O32 6632   7.524   3.285   1.414 -0.0599  0.6069 -0.3165
   16CHTO   H69 6633   7.575   3.241   1.349 -1.6719 -0.0539 -1.1678
   16CHTO   C48 6634   7.378   3.093   1.372  0.1108  0.6309 -0.4799
   16CHTO   H90 6635   7.464   3.044   1.418  1.6993  2.1334 -1.7677
   16CHTO    N9 6636   7.383   3.090   1.222 -0.6568 -0.4190  0.4806
   16CHTO   H77 6637   7.419   2.993   1.190  1.3971  0.9879 -1.6562
   16CHTO   H78 6638   7.282   3.110   1.190 -1.4348 -3.3867  0.9332
   16CHTO   C51 6639   7.246   3.021   1.421  0.3795 -0.1892  0.0819
   16CHTO   H93 6640   7.163   3.053   1.357  0.6474  1.4765  0.5464
   16CHTO   O30 6641   7.220   3.048   1.561 -0.1000  0.4159 -0.3671
   16CHTO   C46 6642   7.213   3.200   1.596  0.0573 -0.3455  0.0729
   16CHTO   H88 6643   7.122   3.236   1.549 -0.1585  0.1313  0.8543
   16CHTO   C53 6644   7.197   3.208   1.749  0.6637 -0.4427 -0.7933
   16CHTO   O72 6645   7.072   3.156   1.794 -0.1305 -0.0582 -0.5104
   16CHTO  H199 6646   7.083   3.131   1.884 -1.9000 -0.4246 -0.3972
   16CHTO   O22 6647   7.262   2.880   1.416 -0.6370 -0.1227  0.2240
   16CHTO   C31 6648   7.152   2.783   1.432 -0.2704  0.0136 -0.7091
   16CHTO   H59 6649   7.098   2.820   1.521  3.0879 -1.2904  1.9805
   16CHTO   C29 6650   7.055   2.776   1.310 -0.1673 -0.4340  0.1138
   16CHTO   H57 6651   7.107   2.751   1.217 -2.5744  2.7084 -2.1928
   16CHTO   O21 6652   6.990   2.902   1.294  0.1779  0.1371  0.1078
   16CHTO   H37 6653   6.938   2.904   1.216  0.8304 -0.7345 -0.3574
   16CHTO   C27 6654   6.939   2.667   1.330  0.5529 -0.3509 -0.0266
   16CHTO   H55 6655   6.868   2.707   1.404 -1.0618  1.0713 -2.2747
   16CHTO    N5 6656   6.857   2.645   1.201  0.0635 -0.1684 -0.2264
   16CHTO   H43 6657   6.907   2.614   1.110 -0.7258 -1.1780 -0.3257
   16CHTO   H44 6658   6.781   2.718   1.181 -0.5102 -1.0630 -1.4117
   16CHTO   C25 6659   6.996   2.530   1.379  0.5745 -0.6768 -0.6283
   16CHTO   H53 6660   7.057   2.473   1.308  0.6761  1.1395 -2.0308
   16CHTO   O17 6661   7.095   2.549   1.487  0.7750  0.2433  0.0329
   16CHTO   C32 6662   7.201   2.637   1.464  0.3510 -0.2038 -0.2146
   16CHTO   H60 6663   7.259   2.597   1.381  2.3546 -0.3272  1.2256
   16CHTO   C36 6664   7.299   2.640   1.582  0.1550 -0.2552 -0.1415
   16CHTO   O25 6665   7.232   2.664   1.707 -0.1565 -0.1756  0.5490
   16CHTO   H40 6666   7.195   2.583   1.736 -0.5700 -0.5210 -0.8763
   16CHTO   O15 6667   6.858   2.422   1.427 -0.6781  0.1127 -0.7600
   16CHTO   C19 6668   6.745   2.414   1.523  0.3913  0.0128  0.2877
   16CHTO   H47 6669   6.743   2.309   1.554 -0.2163 -0.6763 -1.9996
   16CHTO   C20 6670   6.766   2.501   1.656  0.5715 -0.1695 -0.1739
   16CHTO   H48 6671   6.770   2.609   1.634  2.5929  0.3485  2.5484
   16CHTO   O19 6672   6.883   2.462   1.728  0.5339 -0.3462 -0.2816
   16CHTO   H35 6673   6.893   2.494   1.816 -2.3707  0.9217 -0.3441
   16CHTO   C21 6674   6.643   2.486   1.758 -0.5153 -0.4444 -0.1171
   16CHTO   H49 6675   6.651   2.386   1.801  1.9011  0.5143  1.8047
   16CHTO    N4 6676   6.646   2.583   1.870 -0.5921 -0.4703  0.1685
   16CHTO   H41 6677   6.592   2.545   1.956 -0.4708 -0.6069  0.1833
   16CHTO   H42 6678   6.610   2.684   1.852 -0.6699 -0.3846  0.8028
   16CHTO   C22 6679   6.511   2.495   1.671  0.0176 -1.0114  0.3149
   16CHTO   H50 6680   6.506   2.597   1.635  0.0935 -1.3481 -0.6638
   16CHTO   O14 6681   6.512   2.405   1.563 -0.0115  0.2225 -0.2879
   16CHTO   C23 6682   6.607   2.450   1.470  0.2804  0.5735 -0.6253
   16CHTO   H51 6683   6.595   2.558   1.449  1.3150  0.7214 -0.5169
   16CHTO   C34 6684   6.563   2.379   1.335 -0.2545  0.5429 -0.4172
   16CHTO   O23 6685   6.563   2.239   1.336 -0.6935  0.0730 -0.2388
   16CHTO   H38 6686   6.493   2.204   1.387 -2.1030 -0.3616 -2.4428
   16CHTO   O16 6687   6.398   2.446   1.746  0.0108  0.0775 -0.4094
   16CHTO   C24 6688   6.282   2.532   1.714 -0.1202 -0.5491  0.5987
   16CHTO   H52 6689   6.291   2.574   1.614  0.0525 -2.3041 -0.1369
   16CHTO   C26 6690   6.260   2.650   1.816 -0.3805  0.4857 -0.1216
   16CHTO   H54 6691   6.279   2.614   1.920  0.0173  1.4970  0.1672
   16CHTO   O20 6692   6.362   2.751   1.801 -0.9865 -0.0770 -0.0419
   16CHTO   H36 6693   6.359   2.798   1.882 -3.5506 -0.0320 -0.1354
   16CHTO   C30 6694   6.115   2.712   1.807 -0.4244  0.2265 -0.6264
   16CHTO   H58 6695   6.110   2.767   1.711 -1.9925 -0.8767 -1.1965
   16CHTO    N6 6696   6.088   2.809   1.917  0.6727  0.0958 -0.5364
   16CHTO   H45 6697   6.178   2.868   1.930  0.1484  1.0365 -1.1332
   16CHTO   H46 6698   6.008   2.875   1.888 -0.6771 -0.9302  0.7546
   16CHTO   C33 6699   6.005   2.604   1.792  0.4100 -0.3065  0.2046
   16CHTO   H61 6700   6.000   2.533   1.876 -1.9578 -1.9061 -1.2338
   16CHTO   O18 6701   6.042   2.528   1.677  0.1322 -0.1838  0.0729
   16CHTO   C28 6702   6.151   2.445   1.710 -0.0004 -0.1664 -0.0856
   16CHTO   H56 6703   6.142   2.391   1.804 -1.1405  0.2203  0.0360
   16CHTO   C35 6704   6.160   2.345   1.597  0.3352 -0.4597  0.8877
   16CHTO   O24 6705   6.078   2.229   1.616  0.2785 -0.5236 -0.0288
   16CHTO   H39 6706   6.108   2.180   1.690  1.0319 -0.6413 -0.4116
   16CHTO    O9 6707   5.874   2.658   1.780 -0.6525 -0.2163 -0.2438
   16CHTO   C13 6708   5.775   2.630   1.916  0.1247 -0.4494 -0.0223
   16CHTO   H26 6709   5.843   2.637   2.003  0.6102 -2.5340 -0.2175
   16CHTO   C11 6710   5.712   2.482   1.905 -0.0693 -0.9080 -0.2004
   16CHTO   H24 6711   5.794   2.409   1.911  0.7755  0.1829  2.5184
   16CHTO    O8 6712   5.650   2.467   1.775  0.5642  0.2624  0.3195
   16CHTO    H3 6713   5.712   2.428   1.717  0.5844  0.2548  0.3457
   16CHTO    C9 6714   5.609   2.472   2.021 -0.1035 -0.2795  0.5769
   16CHTO   H22 6715   5.662   2.515   2.107  0.0436  1.2880 -0.2816
   16CHTO    N2 6716   5.587   2.339   2.063  0.6546 -0.3506 -0.1835
   16CHTO   H10 6717   5.659   2.314   2.140  1.3910  0.2489 -0.6725
   16CHTO   H11 6718   5.485   2.325   2.095 -0.0419  3.0979 -0.7130
   16CHTO    C7 6719   5.489   2.570   1.981  0.5974  0.0128  0.2091
   16CHTO   H20 6720   5.446   2.600   2.080  1.0558 -0.6330  0.6053
   16CHTO    O4 6721   5.524   2.694   1.910  0.3543  0.2916  0.8081
   16CHTO   C14 6722   5.662   2.743   1.939  0.0825 -0.4713  0.3046
   16CHTO   H27 6723   5.662   2.763   2.048 -1.7489 -2.2903  0.6689
   16CHTO   C18 6724   5.684   2.876   1.863 -0.2216 -0.8586 -0.0916
   16CHTO   O13 6725   5.796   2.949   1.911  0.3666 -0.2521  0.5608
   16CHTO    H7 6726   5.842   3.000   1.848  0.0061  0.1717  0.6444
   16CHTO    O2 6727   5.381   2.498   1.903  0.1395 -0.3196 -0.3446
   16CHTO    C1 6728   5.240   2.518   1.922 -0.0985 -0.1262  0.3502
   16CHTO   H14 6729   5.195   2.468   1.833  0.2791  0.9964 -0.4834
   16CHTO    C2 6730   5.186   2.670   1.922 -0.1090  0.0142  0.3217
   16CHTO   H15 6731   5.271   2.728   1.962  0.2086  0.0538 -0.4030
   16CHTO    O6 6732   5.169   2.708   1.787 -0.2264  0.4135  0.1506
   16CHTO    H1 6733   5.141   2.798   1.790 -0.1245  0.3923  2.6133
   16CHTO    C3 6734   5.056   2.696   2.012 -0.3492  0.4163  0.5266
   16CHTO   H16 6735   4.962   2.678   1.958 -0.1482  1.0279 -0.0298
   16CHTO    N1 6736   5.061   2.838   2.053  0.2829  0.3148  0.4314
   16CHTO    H8 6737   5.141   2.844   2.124 -0.1702  0.3799  0.9434
   16CHTO    H9 6738   5.088   2.891   1.964 -0.9561 -0.6652 -0.5572
   16CHTO    C4 6739   5.043   2.604   2.136 -0.0767  0.4304  0.8707
   16CHTO   H17 6740   5.114   2.636   2.212 -0.1064  0.8660  0.7204
   16CHTO    O1 6741   5.064   2.469   2.083  0.1404 -0.8454 -0.2244
   16CHTO    C5 6742   5.200   2.436   2.048  0.2056 -0.6157 -0.3258
   16CHTO   H18 6743   5.264   2.467   2.131 -1.4968 -0.2469  0.8947
   16CHTO   C16 6744   5.203   2.284   2.032 -0.5029  0.0440  1.1177
   16CHTO   O11 6745   5.147   2.210   2.152 -0.4670 -0.2213  0.0641
   16CHTO    H5 6746   5.072   2.159   2.129  0.7751 -1.3150 -1.6608
   16CHTO    O3 6747   4.908   2.612   2.186 -0.3587 -0.0362  0.4961
   16CHTO    C6 6748   4.883   2.567   2.319  0.3287  0.0596 -0.0373
   16CHTO   H19 6749   4.974   2.523   2.361 -0.9077 -0.8610  1.7611
   16CHTO    C8 6750   4.836   2.683   2.408  0.9334  0.6330 -0.5769
   16CHTO   H21 6751   4.746   2.723   2.361  1.2911 -1.0500 -2.7806
   16CHTO    O7 6752   4.938   2.782   2.402  0.2376 -0.3294 -0.2139
   16CHTO    H2 6753   4.910   2.858   2.449 -0.0228 -0.5358 -0.0309
   16CHTO   C12 6754   4.809   2.621   2.554 -0.1463 -0.1032  0.1544
   16CHTO   H25 6755   4.908   2.576   2.577  0.0571  0.6919  0.8545
   16CHTO    N3 6756   4.777   2.731   2.648  0.1842 -0.0918  0.2437
   16CHTO   H12 6757   4.794   2.687   2.745 -0.0908  1.5036  1.0248
   16CHTO   H13 6758   4.680   2.773   2.631  0.7687  0.7364 -1.1538
   16CHTO   C15 6759   4.701   2.509   2.537 -0.2201 -0.0974 -0.3375
   16CHTO   H28 6760   4.611   2.554   2.496 -0.4725  0.0410  0.3742
   16CHTO   O10 6761   4.652   2.425   2.673 -0.4242  0.0000 -0.5767
   16CHTO    H4 6762   4.717   2.363   2.701 -0.5716  1.3692  3.1125
   16CHTO    O5 6763   4.754   2.403   2.447 -0.2198  0.6260  0.8664
   16CHTO   C10 6764   4.779   2.449   2.315 -0.6405  0.4208  0.6331
   16CHTO   H23 6765   4.682   2.480   2.278  0.5855  2.5889 -0.9130
   16CHTO   C17 6766   4.820   2.323   2.240  0.5175 -0.1518  0.6742
   16CHTO   O12 6767   4.715   2.233   2.214 -0.1980 -0.5527 -0.1507
   16CHTO    H6 6768   4.731   2.155   2.262 -0.9368  0.0118  1.0417
   17CHTO  H203 6769   5.184   5.094   0.345 -1.1889  0.5659 -0.6178
   17CHTO   O82 6770   5.099   5.060   0.367 -0.6428 -0.6751 -0.3814
   17CHTO  C123 6771   5.010   5.167   0.405  0.0248  0.4047 -0.8393
   17CHTO  H227 6772   4.919   5.126   0.451  1.3387  1.3592  2.8056
   17CHTO   O77 6773   5.095   5.239   0.496 -0.0773 -0.3673  0.5692
   17CHTO  C118 6774   5.028   5.354   0.560 -0.1109 -0.1352  0.0485
   17CHTO  H222 6775   4.932   5.326   0.606 -0.4938  0.1971 -0.5437
   17CHTO  C125 6776   5.125   5.407   0.671  0.8165 -0.3813  0.0900
   17CHTO   O84 6777   5.042   5.480   0.763 -0.6481  0.0143 -0.0378
   17CHTO  H205 6778   4.995   5.425   0.823  1.7839 -0.4411  1.5476
   17CHTO  C114 6779   5.007   5.461   0.449  0.9629 -0.5047 -0.6426
   17CHTO  H218 6780   5.107   5.490   0.415  1.1170  0.1245  0.3475
   17CHTO  C116 6781   4.933   5.403   0.321 -0.9139 -0.6828 -0.0649
   17CHTO  H220 6782   4.824   5.409   0.342 -0.5347 -0.1690  1.8080
   17CHTO   O79 6783   4.964   5.488   0.207  0.5087 -0.4455 -0.3768
   17CHTO  H201 6784   4.945   5.438   0.131  1.2814 -1.7429  0.2727
   17CHTO  C120 6785   4.980   5.255   0.282  0.1349  0.4238  0.2585
   17CHTO  H224 6786   5.076   5.271   0.229 -0.0176  0.5157  0.0084
   17CHTO   N21 6787   4.878   5.189   0.198  0.2439 -0.0213 -0.4443
   17CHTO  H211 6788   4.802   5.257   0.161  0.2290  0.1822 -0.0413
   17CHTO  H212 6789   4.924   5.125   0.124 -0.9681 -2.4168  0.8031
   17CHTO   O75 6790   4.959   5.576   0.514 -0.4794  0.2641  0.5926
   17CHTO  C112 6791   4.957   5.731   0.431  0.3260 -0.8986  1.1090
   17CHTO  H216 6792   4.863   5.730   0.374  0.1710  2.4130  1.2462
   17CHTO   O73 6793   5.075   5.747   0.348 -0.6988  0.3037 -0.1841
   17CHTO  C113 6794   5.087   5.867   0.277 -1.0491 -0.1259  0.1285
   17CHTO  H217 6795   5.001   5.881   0.208 -0.1084  2.5488 -0.5732
   17CHTO  C124 6796   5.212   5.856   0.188 -0.2060  0.6273  0.2119
   17CHTO   O83 6797   5.218   5.755   0.084 -0.2917 -0.1587  0.0937
   17CHTO  H204 6798   5.258   5.787   0.006  1.3711  1.5236  1.5835
   17CHTO  C109 6799   5.101   5.977   0.383  0.1729 -0.2909 -0.4938
   17CHTO  H213 6800   5.188   5.949   0.445 -0.2342 -0.5728 -0.0471
   17CHTO  C110 6801   4.963   5.978   0.469  0.1244 -0.2065  0.1881
   17CHTO  H214 6802   4.876   5.976   0.403 -0.3579 -3.1411  0.8102
   17CHTO   O78 6803   4.962   6.095   0.553  0.3140  0.6017  0.2109
   17CHTO  H200 6804   4.926   6.172   0.513  1.4675  1.1066  0.1416
   17CHTO  C111 6805   4.962   5.847   0.543  0.0176  0.5648  0.3383
   17CHTO  H215 6806   5.057   5.841   0.598  1.4900 -0.2572 -2.2139
   17CHTO   N19 6807   4.849   5.837   0.642 -0.0669 -0.1061 -0.3687
   17CHTO  H207 6808   4.853   5.901   0.728 -0.6030 -0.9884  0.3175
   17CHTO  H208 6809   4.757   5.847   0.587  0.3150 -1.0321 -1.1855
   17CHTO   O74 6810   5.128   6.113   0.327  0.6484  0.1221 -0.0186
   17CHTO  C115 6811   5.247   6.191   0.421 -0.0778  0.3002  0.8039
   17CHTO  H219 6812   5.250   6.154   0.523  1.7596 -0.0425  0.6481
   17CHTO   O76 6813   5.382   6.158   0.364  0.3926  0.0670  0.2354
   17CHTO  C122 6814   5.391   6.194   0.226 -0.3759 -0.1048  0.3978
   17CHTO  H226 6815   5.340   6.117   0.169 -1.3299  0.2404  0.7664
   17CHTO  C126 6816   5.539   6.184   0.183 -0.1520  0.1100 -0.2009
   17CHTO   O85 6817   5.626   6.279   0.242 -0.0127 -0.8249  0.4509
   17CHTO  H206 6818   5.711   6.271   0.204 -0.0402 -1.6492  0.5487
   17CHTO  C121 6819   5.327   6.340   0.193 -0.2902 -0.4026  0.0006
   17CHTO  H225 6820   5.385   6.394   0.115  1.3493 -1.3075  0.5731
   17CHTO   O81 6821   5.201   6.335   0.130 -0.0504  0.7150 -0.0239
   17CHTO  H202 6822   5.202   6.265   0.068 -0.5022  2.3459 -1.9464
   17CHTO  C119 6823   5.306   6.426   0.321  0.2936  0.2751 -0.5125
   17CHTO  H223 6824   5.406   6.439   0.362  1.1842 -1.1735 -2.1585
   17CHTO  C117 6825   5.219   6.345   0.428  0.2361  0.0409  0.1527
   17CHTO  H221 6826   5.111   6.345   0.416  0.2086  1.1669  0.3074
   17CHTO   N20 6827   5.242   6.397   0.570 -0.2679  0.4660  0.0124
   17CHTO  H209 6828   5.346   6.381   0.591  0.8097  4.0323 -2.0540
   17CHTO  H210 6829   5.210   6.500   0.580 -0.0631  0.5855 -0.5227
   17CHTO   O80 6830   5.262   6.564   0.298 -0.5004  0.0893 -0.8102
   17CHTO  C103 6831   5.369   6.686   0.329 -0.1894  0.3476 -0.5337
   17CHTO  H190 6832   5.406   6.688   0.431 -1.4171 -0.2343 -0.0622
   17CHTO  C101 6833   5.497   6.696   0.242  0.1183  0.2623 -0.2011
   17CHTO  H188 6834   5.480   6.669   0.137 -1.3227  0.9542 -0.1502
   17CHTO   O68 6835   5.611   6.587   0.301 -0.1032 -0.2835 -1.0138
   17CHTO  H168 6836   5.661   6.625   0.371 -0.5413  1.8242 -1.8034
   17CHTO   C99 6837   5.570   6.839   0.245  0.0837 -0.5526 -0.0893
   17CHTO  H186 6838   5.600   6.866   0.348 -1.6951 -2.0690  0.8648
   17CHTO   N17 6839   5.688   6.852   0.158  0.0804  0.5386  0.8698
   17CHTO  H174 6840   5.667   6.818   0.057 -2.0807  0.2374  1.3966
   17CHTO  H175 6841   5.714   6.956   0.153  1.9143  0.1203  1.3148
   17CHTO   C97 6842   5.458   6.943   0.212 -0.0937 -0.4145 -0.2497
   17CHTO  H184 6843   5.409   6.920   0.117  0.2480  2.9057 -1.2587
   17CHTO   O64 6844   5.367   6.931   0.323  0.6522  0.3604 -0.0946
   17CHTO  C104 6845   5.283   6.813   0.306  0.2949 -0.6370  0.2210
   17CHTO  H191 6846   5.242   6.811   0.205 -2.8535 -1.6133  1.4750
   17CHTO  C108 6847   5.159   6.815   0.405  0.5167 -0.4981  0.5253
   17CHTO   O71 6848   5.095   6.941   0.400  0.2930 -0.3148  0.0543
   17CHTO  H171 6849   5.034   6.952   0.471  0.9672 -1.6383  0.8737
   17CHTO   O62 6850   5.512   7.077   0.195 -0.3232  0.1095  0.2280
   17CHTO   C91 6851   5.423   7.182   0.138  0.3822  0.6342  0.0596
   17CHTO  H178 6852   5.351   7.134   0.072 -0.1918 -0.8037  1.7014
   17CHTO   C92 6853   5.516   7.278   0.054 -0.2255 -0.1043  0.1630
   17CHTO  H179 6854   5.580   7.225  -0.017  1.3481 -0.4663  1.8257
   17CHTO   O66 6855   5.427   7.353  -0.029  0.0756 -0.1031 -0.2979
   17CHTO  H166 6856   5.346   7.308  -0.043  0.4150  0.0379 -2.9287
   17CHTO   C93 6857   5.594   7.377   0.135 -1.3644 -0.0681 -0.1405
   17CHTO  H180 6858   5.634   7.451   0.065 -0.8320  0.3365  0.5752
   17CHTO   N16 6859   5.715   7.318   0.198 -0.0708 -0.6714  0.1219
   17CHTO  H172 6860   5.684   7.251   0.277  0.2494  0.4520  1.2122
   17CHTO  H173 6861   5.774   7.261   0.128 -0.3500  0.7157 -1.2728
   17CHTO   C94 6862   5.506   7.443   0.244  0.1186 -0.0638  0.1258
   17CHTO  H181 6863   5.533   7.416   0.346  0.8482  1.6646  0.3949
   17CHTO   O61 6864   5.367   7.412   0.227 -0.4333 -0.2187  0.4373
   17CHTO   C95 6865   5.346   7.269   0.241  0.4397 -0.7590  0.5770
   17CHTO  H182 6866   5.373   7.237   0.341 -0.7066  1.5744  1.6477
   17CHTO  C106 6867   5.194   7.221   0.231 -0.3905 -0.2360  0.2117
   17CHTO   O69 6868   5.102   7.273   0.333  0.1536 -0.4807  0.0224
   17CHTO  H169 6869   5.125   7.363   0.346 -2.5154  0.2889 -0.3275
   17CHTO   O63 6870   5.527   7.599   0.221 -0.3270  0.2661 -0.2645
   17CHTO   C96 6871   5.484   7.666   0.346  0.2765  0.0287 -0.2570
   17CHTO  H183 6872   5.476   7.592   0.426 -2.6957 -0.1099 -0.6120
   17CHTO   C98 6873   5.348   7.732   0.339  0.7099 -1.2212 -0.2250
   17CHTO  H185 6874   5.338   7.801   0.253  1.1572 -0.8195  0.0378
   17CHTO   O67 6875   5.246   7.636   0.322  0.8125  0.8098 -0.0381
   17CHTO  H167 6876   5.161   7.674   0.312  0.0056 -0.8304  0.3781
   17CHTO  C102 6877   5.314   7.829   0.472 -0.4196 -0.0366  0.1031
   17CHTO  H189 6878   5.319   7.761   0.558  0.2347  0.8854  0.7924
   17CHTO   N18 6879   5.178   7.898   0.486 -0.5005  0.0252 -0.6442
   17CHTO  H176 6880   5.149   7.960   0.402  0.0438  0.2869 -0.6425
   17CHTO  H177 6881   5.168   7.951   0.580  0.3110  2.7091 -2.0084
   17CHTO  C105 6882   5.437   7.914   0.500  0.4295 -0.5027 -0.1611
   17CHTO  H192 6883   5.456   7.990   0.424  0.2294  1.3991  1.6341
   17CHTO   O65 6884   5.560   7.836   0.507 -0.0084  0.1568  0.5739
   17CHTO  C100 6885   5.593   7.765   0.389 -0.5677  0.2414 -0.1447
   17CHTO  H187 6886   5.609   7.848   0.318 -0.8347  0.4664  0.0601
   17CHTO  C107 6887   5.734   7.682   0.404 -0.0432  0.4523  0.3854
   17CHTO   O70 6888   5.842   7.774   0.428  0.5720  0.2223  0.3460
   17CHTO  H170 6889   5.906   7.725   0.476 -0.2259  1.1977  2.4652
   17CHTO   O57 6890   5.402   7.985   0.636 -0.0424  0.3749  0.3767
   17CHTO   C85 6891   5.499   8.081   0.680 -0.0667 -0.4572  0.1565
   17CHTO  H157 6892   5.536   8.128   0.586 -0.5579  1.2412  0.7912
   17CHTO   C83 6893   5.627   8.019   0.739 -0.3916 -0.4376 -0.3539
   17CHTO  H155 6894   5.678   7.960   0.663  0.9297  0.0265  0.1713
   17CHTO   O56 6895   5.588   7.930   0.850 -0.1396  0.7785 -0.3215
   17CHTO  H135 6896   5.664   7.885   0.881 -0.7565  0.0852  0.1913
   17CHTO   C81 6897   5.724   8.139   0.785 -0.0050  0.2739  0.2846
   17CHTO  H153 6898   5.735   8.212   0.705  0.4083  1.2472  1.2105
   17CHTO   N14 6899   5.856   8.096   0.827  0.4693  0.2340 -0.0750
   17CHTO  H141 6900   5.922   8.128   0.748 -1.6709  2.8272 -0.9114
   17CHTO  H142 6901   5.845   7.990   0.829 -1.1416  0.4045  1.9856
   17CHTO   C79 6902   5.650   8.215   0.908  0.8288  0.1802  0.3708
   17CHTO  H151 6903   5.711   8.301   0.933 -0.0709  1.5095 -1.8280
   17CHTO   O52 6904   5.534   8.276   0.843 -0.3407 -0.2578 -0.3494
   17CHTO   C86 6905   5.439   8.194   0.772  0.2243 -0.8353  0.4678
   17CHTO  H158 6906   5.371   8.151   0.849  0.3876 -2.7868 -0.4548
   17CHTO   C90 6907   5.352   8.287   0.683 -0.4674  0.1072 -0.9023
   17CHTO   O60 6908   5.275   8.374   0.758 -0.7463  0.1455  0.0902
   17CHTO  H138 6909   5.237   8.431   0.694  0.4471 -0.9230 -1.5975
   17CHTO   O50 6910   5.602   8.140   1.026  0.1422  0.1274 -0.6973
   17CHTO   C73 6911   5.570   8.154   1.168  0.2007 -0.0647  0.2195
   17CHTO  H145 6912   5.534   8.257   1.184 -0.2376 -0.1747 -0.0271
   17CHTO   C74 6913   5.691   8.128   1.267 -0.3591 -0.3558  0.5465
   17CHTO  H146 6914   5.772   8.196   1.237 -0.3925  0.0557  1.3632
   17CHTO   O54 6915   5.656   8.191   1.394  0.2121  0.2235 -0.1476
   17CHTO  H133 6916   5.723   8.183   1.459 -1.5812  3.0135  2.1830
   17CHTO   C75 6917   5.733   7.984   1.269  0.3507 -0.0098  0.2233
   17CHTO  H147 6918   5.760   7.960   1.165  1.8573  0.1974  0.5572
   17CHTO   N13 6919   5.843   7.947   1.351 -0.1929 -0.0179 -0.4834
   17CHTO  H139 6920   5.913   8.029   1.342  0.8002 -0.9931 -1.7469
   17CHTO  H140 6921   5.892   7.867   1.298  0.5063  0.0985 -0.0283
   17CHTO   C76 6922   5.606   7.893   1.292  1.1462 -0.3604  0.0320
   17CHTO  H148 6923   5.573   7.909   1.395  1.1996  1.2293 -0.1770
   17CHTO   O49 6924   5.498   7.923   1.201 -0.4154  0.3461  0.3325
   17CHTO   C77 6925   5.463   8.061   1.204  0.6787  0.0330 -0.5730
   17CHTO  H149 6926   5.428   8.080   1.305  0.9324  0.7429 -0.6146
   17CHTO   C88 6927   5.335   8.079   1.113  0.1892 -0.6204  0.0807
   17CHTO   O58 6928   5.251   7.982   1.133 -0.2138  0.4700 -0.4584
   17CHTO  H136 6929   5.200   7.965   1.056  1.2071  2.5239 -1.9147
   17CHTO   O51 6930   5.639   7.729   1.254 -0.6473 -0.0440  0.0552
   17CHTO   C78 6931   5.524   7.628   1.239 -0.8323  0.5360  0.1982
   17CHTO  H150 6932   5.426   7.677   1.256 -0.8737  0.6646 -0.4147
   17CHTO   C80 6933   5.548   7.526   1.350 -0.1682 -0.4165 -0.1882
   17CHTO  H152 6934   5.647   7.478   1.334 -0.8106 -1.5914 -0.6960
   17CHTO   O55 6935   5.531   7.585   1.483  0.2110  0.1663 -0.0238
   17CHTO  H134 6936   5.442   7.585   1.512 -0.3502  0.9404 -1.6752
   17CHTO   C84 6937   5.443   7.409   1.337  0.0983 -0.3272 -0.2072
   17CHTO  H156 6938   5.346   7.454   1.354  0.9588  1.3902  0.2708
   17CHTO   N15 6939   5.456   7.288   1.438 -0.4793  0.1556 -0.2002
   17CHTO  H143 6940   5.549   7.238   1.423 -0.1873  1.0415 -1.4030
   17CHTO  H144 6941   5.451   7.327   1.538  2.4212  1.0503 -0.3630
   17CHTO   C87 6942   5.443   7.352   1.191 -0.0813  0.4486 -0.0237
   17CHTO  H159 6943   5.538   7.299   1.179  1.5966  2.9378  1.7895
   17CHTO   O53 6944   5.421   7.458   1.100  0.5799 -0.0100  0.2181
   17CHTO   C82 6945   5.519   7.569   1.101  1.0408  0.7783 -0.2367
   17CHTO  H154 6946   5.618   7.536   1.070 -0.3477 -4.9283  0.9257
   17CHTO   C89 6947   5.468   7.669   1.000  0.2073  0.0272 -0.1695
   17CHTO   O59 6948   5.341   7.726   1.030 -0.1349 -0.3274 -0.2589
   17CHTO  H137 6949   5.338   7.811   0.991 -2.0443 -0.6429 -0.8689
   17CHTO   O45 6950   5.336   7.234   1.158  0.1022 -0.7368  0.5327
   17CHTO   C67 6951   5.192   7.253   1.183 -0.2235  0.6071  0.4579
   17CHTO  H124 6952   5.171   7.279   1.287 -0.7304 -0.7844  0.7098
   17CHTO   C65 6953   5.131   7.363   1.093 -0.1787  0.4317 -0.0952
   17CHTO  H122 6954   5.206   7.389   1.019 -0.7210  2.1722 -0.0389
   17CHTO   O44 6955   5.114   7.479   1.176 -0.1349 -0.0160 -0.1713
   17CHTO  H102 6956   5.058   7.541   1.132 -1.7314 -1.5234 -0.2946
   17CHTO   C63 6957   5.020   7.298   1.001 -0.2728 -0.3058 -0.0348
   17CHTO  H120 6958   5.068   7.233   0.928  0.4407 -0.2880  0.4211
   17CHTO   N11 6959   4.944   7.394   0.909 -0.1677 -0.0179 -0.0037
   17CHTO  H108 6960   4.885   7.335   0.842 -0.1063 -0.5332  0.3947
   17CHTO  H109 6961   5.004   7.463   0.854 -0.8055  1.8107  1.4948
   17CHTO   C61 6962   4.918   7.204   1.083 -0.7358  0.0718  0.8692
   17CHTO  H118 6963   4.854   7.147   1.015 -1.6205  0.6763  1.1869
   17CHTO   O40 6964   4.987   7.115   1.172  0.2657 -0.0035 -0.1753
   17CHTO   C68 6965   5.132   7.108   1.165 -0.7045 -0.3464 -0.3626
   17CHTO  H125 6966   5.162   7.061   1.069 -0.3195 -1.6460  0.3806
   17CHTO   C72 6967   5.183   7.008   1.272  0.1899  0.2780 -0.0227
   17CHTO   O48 6968   5.318   6.959   1.257 -0.2852  0.1353 -0.5786
   17CHTO  H105 6969   5.308   6.885   1.200 -2.3312 -1.2965  1.5009
   17CHTO   O38 6970   4.820   7.288   1.154 -0.3741  0.4644  0.1433
   17CHTO   C55 6971   4.733   7.228   1.255 -0.5995  0.1772  0.6875
   17CHTO  H112 6972   4.790   7.178   1.335 -1.5943 -0.9463  0.7202
   17CHTO   C56 6973   4.625   7.125   1.190  0.8277 -0.6982  0.6712
   17CHTO  H113 6974   4.588   7.164   1.094 -0.2553  0.0755  1.3983
   17CHTO   O42 6975   4.688   6.997   1.169 -0.1508  0.1138  0.6218
   17CHTO  H100 6976   4.644   6.961   1.094  0.3302  2.6307 -0.9384
   17CHTO   C57 6977   4.504   7.089   1.289  0.2299  0.4191  0.3393
   17CHTO  H114 6978   4.537   7.004   1.349  0.1732 -0.8141 -1.3671
   17CHTO   N10 6979   4.384   7.038   1.213  0.3549 -0.3706 -0.2340
   17CHTO  H106 6980   4.300   7.057   1.277  1.3687  1.2588  0.6393
   17CHTO  H107 6981   4.392   6.932   1.190  1.9178 -0.5289  0.9306
   17CHTO   C58 6982   4.470   7.212   1.376 -0.2380 -0.1660  0.0641
   17CHTO  H115 6983   4.408   7.282   1.315 -1.5414 -2.7922 -1.7534
   17CHTO   O37 6984   4.581   7.283   1.430  0.2156 -1.0083  0.0270
   17CHTO   C59 6985   4.663   7.341   1.324  1.1122 -0.0045  0.0760
   17CHTO  H116 6986   4.610   7.403   1.251 -0.0958 -0.5122  0.5130
   17CHTO   C70 6987   4.766   7.433   1.401 -0.7621 -0.4095  0.1477
   17CHTO   O46 6988   4.699   7.521   1.492 -0.9701  0.1431  0.0949
   17CHTO  H103 6989   4.730   7.608   1.477  2.7510 -1.2924 -0.8939
   17CHTO   O39 6990   4.377   7.156   1.504  0.0380  0.7808 -0.4534
   17CHTO   C60 6991   4.273   7.248   1.540  0.9821  0.1550 -0.2053
   17CHTO  H117 6992   4.312   7.349   1.552 -0.0777  0.7022 -1.2281
   17CHTO   C62 6993   4.149   7.240   1.446  0.0268  0.3372 -0.7332
   17CHTO  H119 6994   4.193   7.249   1.345 -0.0323 -1.3017 -0.9231
   17CHTO   O43 6995   4.093   7.111   1.449  0.3291  0.4075 -0.8234
   17CHTO  H101 6996   4.155   7.052   1.410 -0.8273 -0.7884 -0.8890
   17CHTO   C66 6997   4.038   7.354   1.482 -0.1610  0.0697 -0.0483
   17CHTO  H123 6998   4.088   7.450   1.471  2.1324 -0.8880  1.6825
   17CHTO   N12 6999   3.930   7.347   1.386 -0.6781  0.0432  0.2652
   17CHTO  H110 7000   3.848   7.290   1.427  0.7067 -2.7046 -0.6205
   17CHTO  H111 7001   3.902   7.446   1.354  1.0092  0.4905  0.1238
   17CHTO   C69 7002   3.993   7.337   1.633 -0.3042  1.0050 -0.1614
   17CHTO  H126 7003   3.926   7.249   1.641 -0.2195  0.9192 -0.3955
   17CHTO   O41 7004   4.109   7.322   1.726  0.1292  0.8096 -0.1828
   17CHTO   C64 7005   4.222   7.208   1.676  0.3262 -0.2572 -0.2413
   17CHTO  H121 7006   4.169   7.111   1.667  0.8142 -0.5045 -0.4664
   17CHTO   C71 7007   4.343   7.183   1.775  0.0323  0.3289  0.0875
   17CHTO   O47 7008   4.412   7.303   1.802 -0.2935  0.1972 -0.3045
   17CHTO  H104 7009   4.395   7.333   1.889  2.7855  0.1275  0.3707
   17CHTO   O34 7010   3.907   7.457   1.682 -0.0308 -0.2642 -0.3263
   17CHTO   C49 7011   3.800   7.573   1.723  0.7601  0.1290 -0.0370
   17CHTO   H91 7012   3.860   7.664   1.716  0.9330  0.0652  0.5812
   17CHTO   C47 7013   3.739   7.548   1.867 -0.4191  0.3655  0.2153
   17CHTO   H89 7014   3.689   7.642   1.896 -1.3725 -0.0979  0.0781
   17CHTO   O33 7015   3.842   7.519   1.964  0.5130  0.0322 -0.1308
   17CHTO   H70 7016   3.803   7.548   2.044  1.9959  0.2926  0.4990
   17CHTO   C45 7017   3.616   7.436   1.865 -0.2731  0.4486 -0.0214
   17CHTO   H87 7018   3.645   7.352   1.930 -0.7384  1.2060  1.1663
   17CHTO    N8 7019   3.488   7.485   1.922 -0.4159 -0.0025  0.3982
   17CHTO   H75 7020   3.479   7.591   1.901  0.9710 -0.0618 -0.5746
   17CHTO   H76 7021   3.496   7.460   2.027 -2.3365 -3.1460 -0.1489
   17CHTO   C43 7022   3.610   7.376   1.717  0.1868  0.1297 -0.5540
   17CHTO   H85 7023   3.698   7.317   1.692 -0.5193 -0.9776 -0.4470
   17CHTO   O29 7024   3.586   7.476   1.625  0.5467 -0.5607  0.1339
   17CHTO   C50 7025   3.693   7.573   1.620  0.1428 -1.1446  0.8267
   17CHTO   H92 7026   3.748   7.571   1.524 -1.5272  4.2405 -0.4068
   17CHTO   C54 7027   3.634   7.719   1.601  0.8076  0.0732  0.9953
   17CHTO   O36 7028   3.583   7.748   1.469  0.3070 -0.5433 -0.2383
   17CHTO   H72 7029   3.532   7.826   1.476  0.9084 -0.3287  2.3779
   17CHTO   O27 7030   3.511   7.279   1.710  0.0229 -0.0356 -0.3326
   17CHTO   C37 7031   3.508   7.134   1.685  0.0494  0.2070  0.4485
   17CHTO   H79 7032   3.605   7.082   1.687 -0.3108 -0.6093 -2.0282
   17CHTO   C38 7033   3.427   7.067   1.803  0.1694 -0.6231  0.1561
   17CHTO   H80 7034   3.327   7.113   1.806 -0.0815 -1.2295  1.7332
   17CHTO   O31 7035   3.504   7.091   1.924 -0.2589 -0.1216 -0.1674
   17CHTO   H68 7036   3.447   7.075   1.997  0.7234  1.6239  1.0449
   17CHTO   C39 7037   3.410   6.920   1.774  0.2300  0.5902  0.1697
   17CHTO   H81 7038   3.508   6.872   1.779  1.0546  2.2557  0.1566
   17CHTO    N7 7039   3.322   6.851   1.879  0.1894 -0.4757  0.6922
   17CHTO   H73 7040   3.217   6.876   1.886 -0.0183 -0.8786 -0.6575
   17CHTO   H74 7041   3.340   6.744   1.881  0.9342 -0.4608 -2.4907
   17CHTO   C40 7042   3.360   6.885   1.628  0.3185 -0.6835  0.0485
   17CHTO   H82 7043   3.253   6.901   1.615  0.1206  0.0023  2.3008
   17CHTO   O26 7044   3.436   6.955   1.533 -0.7967  0.0594  0.1234
   17CHTO   C41 7045   3.448   7.104   1.546  0.0233  0.7584  0.1451
   17CHTO   H83 7046   3.349   7.152   1.546  0.2007  1.1738 -2.3616
   17CHTO   C52 7047   3.531   7.165   1.436 -0.0207  0.4382 -0.2103
   17CHTO   O35 7048   3.465   7.215   1.336  0.1430  0.3011  0.1540
   17CHTO   H71 7049   3.427   7.148   1.283  3.9837 -0.7890 -1.4463
   17CHTO   O28 7050   3.385   6.746   1.592 -0.1047  0.2254  0.0669
   17CHTO   C42 7051   3.501   6.686   1.522  0.5889 -0.3084  0.1365
   17CHTO   H84 7052   3.487   6.578   1.531 -0.1987 -0.0172  2.6710
   17CHTO   C44 7053   3.639   6.720   1.593 -0.2383 -1.0312  0.0063
   17CHTO   H86 7054   3.640   6.828   1.606 -2.2251 -1.0156  0.1803
   17CHTO   O32 7055   3.625   6.658   1.725  0.0114 -0.1159  0.1027
   17CHTO   H69 7056   3.594   6.709   1.798 -2.5749  0.3479 -1.2992
   17CHTO   C48 7057   3.775   6.677   1.517  0.1173 -0.1252  0.3567
   17CHTO   H90 7058   3.783   6.568   1.512  2.1952 -0.0859  2.2997
   17CHTO    N9 7059   3.899   6.725   1.580  0.0770 -0.1859 -0.2748
   17CHTO   H77 7060   3.905   6.832   1.592  1.6906 -0.4349  1.3998
   17CHTO   H78 7061   3.981   6.696   1.516 -0.5511 -1.3528 -0.5630
   17CHTO   C51 7062   3.766   6.720   1.361  0.5442 -1.0204 -0.7894
   17CHTO   H93 7063   3.756   6.828   1.360  1.8125 -0.8727  0.1466
   17CHTO   O30 7064   3.648   6.658   1.310 -0.1369  0.4663 -0.2967
   17CHTO   C46 7065   3.518   6.721   1.371  0.0576 -0.1640 -0.5986
   17CHTO   H88 7066   3.527   6.829   1.359  0.3428 -0.2582 -1.2746
   17CHTO   C53 7067   3.396   6.685   1.284  0.4890 -0.4629  0.6307
   17CHTO   O72 7068   3.416   6.706   1.144 -0.0946  0.2946  0.4743
   17CHTO  H199 7069   3.373   6.633   1.104 -1.2267  1.1086  0.1810
   17CHTO   O22 7070   3.876   6.659   1.293  0.1541  0.1383 -0.2771
   17CHTO   C31 7071   3.923   6.677   1.160 -0.1838 -0.5492  0.0797
   17CHTO   H59 7072   4.034   6.678   1.159 -0.1710  2.2586 -0.9401
   17CHTO   C29 7073   3.878   6.554   1.077  0.5567  0.2254  0.3442
   17CHTO   H57 7074   3.769   6.555   1.061  0.7930  0.7608 -1.2504
   17CHTO   O21 7075   3.907   6.429   1.145 -0.1018  0.9125 -0.1377
   17CHTO   H37 7076   3.837   6.380   1.184  0.0356  1.2912  0.5962
   17CHTO   C27 7077   3.947   6.554   0.939 -0.0732  0.1294  0.2949
   17CHTO   H55 7078   4.055   6.550   0.955 -0.1001 -3.5953 -0.0340
   17CHTO    N5 7079   3.914   6.439   0.854  0.4284 -0.7951  0.0975
   17CHTO   H43 7080   3.808   6.427   0.841  0.1938 -0.3179  1.4721
   17CHTO   H44 7081   3.947   6.347   0.900  0.0638 -0.8987  0.1507
   17CHTO   C25 7082   3.894   6.680   0.864 -0.2467  0.1010 -0.0026
   17CHTO   H53 7083   3.785   6.672   0.846 -0.1253 -1.2885 -0.1435
   17CHTO   O17 7084   3.926   6.798   0.952 -0.2284 -0.1477  0.3264
   17CHTO   C32 7085   3.875   6.804   1.087 -0.5703 -0.2459 -0.2834
   17CHTO   H60 7086   3.766   6.800   1.086 -0.5366 -1.1780 -0.9487
   17CHTO   C36 7087   3.929   6.934   1.145 -0.3956  0.3417 -0.0590
   17CHTO   O25 7088   3.884   7.055   1.093 -0.2748 -0.2936 -0.0046
   17CHTO   H40 7089   3.792   7.045   1.108  0.1568 -1.8277  1.8279
   17CHTO   O15 7090   3.957   6.711   0.705 -0.1524 -0.6261  0.0571
   17CHTO   C19 7091   4.009   6.842   0.682 -1.2381 -1.1833  0.1091
   17CHTO   H47 7092   4.035   6.829   0.575 -0.6211 -2.4849  0.4100
   17CHTO   C20 7093   3.902   6.963   0.698  0.0865  0.1771  0.3010
   17CHTO   H48 7094   3.854   6.965   0.797  0.4158  2.2411  0.4390
   17CHTO   O19 7095   3.804   6.944   0.599 -0.2653  0.6683  0.1126
   17CHTO   H35 7096   3.734   7.006   0.611 -1.1658 -0.3143 -0.0380
   17CHTO   C21 7097   3.975   7.102   0.684 -0.8128 -0.4698 -0.3141
   17CHTO   H49 7098   3.994   7.117   0.577  1.6211  0.6867  0.2511
   17CHTO    N4 7099   3.887   7.211   0.732  0.6059  0.3640  0.9245
   17CHTO   H41 7100   3.921   7.310   0.704  0.1487  0.1678 -0.3957
   17CHTO   H42 7101   3.863   7.209   0.837  1.2501  2.0084  1.1161
   17CHTO   C22 7102   4.106   7.101   0.767  0.4215  0.5515  0.0776
   17CHTO   H50 7103   4.076   7.085   0.871  0.1793  1.2196  0.1138
   17CHTO   O14 7104   4.194   6.996   0.718  0.5487 -0.3745  0.0816
   17CHTO   C23 7105   4.146   6.868   0.756  1.2560 -0.1118  0.6155
   17CHTO   H51 7106   4.132   6.874   0.865 -0.5750  1.1852  0.3375
   17CHTO   C34 7107   4.253   6.762   0.717  0.3034  0.2476  0.2316
   17CHTO   O23 7108   4.223   6.627   0.756  0.0298 -0.0046  0.0004
   17CHTO   H38 7109   4.146   6.595   0.713 -2.0564  1.9075  2.1871
   17CHTO   O16 7110   4.183   7.221   0.752 -0.3403  0.3393  0.0037
   17CHTO   C24 7111   4.265   7.270   0.884  0.1650 -0.5375 -0.6612
   17CHTO   H52 7112   4.294   7.185   0.945 -0.0740 -0.3063 -0.2229
   17CHTO   C26 7113   4.176   7.369   0.968  0.3257  0.3068 -0.3014
   17CHTO   H54 7114   4.128   7.438   0.896  1.3787  1.3161 -0.0573
   17CHTO   O20 7115   4.071   7.291   1.026 -0.6744 -0.0714 -0.4808
   17CHTO   H36 7116   4.000   7.284   0.966 -1.3851 -0.6726  0.4110
   17CHTO   C30 7117   4.258   7.448   1.072 -0.3932  0.0764 -0.1340
   17CHTO   H58 7118   4.288   7.378   1.152 -0.3926  1.1805  0.8350
   17CHTO    N6 7119   4.175   7.554   1.128 -0.1005  0.1282  0.0138
   17CHTO   H45 7120   4.156   7.619   1.044 -1.1888  1.0901  0.9920
   17CHTO   H46 7121   4.214   7.612   1.210  1.4410  2.9014 -2.5672
   17CHTO   C33 7122   4.387   7.507   1.000  0.2224 -0.0908  0.2536
   17CHTO   H61 7123   4.359   7.569   0.914 -0.3752  1.8330  1.8080
   17CHTO   O18 7124   4.460   7.395   0.956 -0.2581  0.0641  0.0657
   17CHTO   C28 7125   4.395   7.335   0.842 -0.1752  0.2126 -0.0325
   17CHTO   H56 7126   4.370   7.399   0.757 -1.5373 -0.8579 -0.4665
   17CHTO   C35 7127   4.488   7.226   0.786 -0.0151 -0.0478 -0.3592
   17CHTO   O24 7128   4.602   7.283   0.719  0.2135 -0.2144  0.1296
   17CHTO   H39 7129   4.580   7.326   0.639 -0.2349 -3.1480 -1.3986
   17CHTO    O9 7130   4.463   7.595   1.084  0.3313 -0.0671 -0.0356
   17CHTO   C13 7131   4.580   7.674   0.963 -0.0476  1.5242  0.3749
   17CHTO   H26 7132   4.608   7.598   0.888 -1.4452 -1.1570  2.4476
   17CHTO   C11 7133   4.711   7.713   1.052  0.7617  0.2031  0.4265
   17CHTO   H24 7134   4.764   7.619   1.074 -1.6192 -1.2102  0.3041
   17CHTO    O8 7135   4.672   7.774   1.175 -0.4236 -0.1682 -0.2604
   17CHTO    H3 7136   4.619   7.713   1.223 -3.1358  1.3681 -1.1802
   17CHTO    C9 7137   4.805   7.802   0.963 -0.2774 -0.9428 -1.1397
   17CHTO   H22 7138   4.822   7.740   0.874 -0.4149  0.1547 -1.9424
   17CHTO    N2 7139   4.941   7.819   1.018 -0.2831 -0.4671 -0.4542
   17CHTO   H10 7140   4.937   7.882   1.105 -0.7983 -1.1005 -0.0169
   17CHTO   H11 7141   4.981   7.723   1.048  0.0958 -0.0081  0.5221
   17CHTO    C7 7142   4.733   7.932   0.918 -0.3894 -0.0817 -0.6933
   17CHTO   H20 7143   4.801   7.968   0.838  0.1682 -0.3236 -0.3275
   17CHTO    O4 7144   4.603   7.915   0.858 -0.1684  0.3567 -0.7855
   17CHTO   C14 7145   4.520   7.805   0.893 -0.4346 -0.0223 -0.0362
   17CHTO   H27 7146   4.472   7.772   0.799 -0.5006 -1.9558  0.6516
   17CHTO   C18 7147   4.401   7.862   0.976  0.1741  0.7340 -0.3028
   17CHTO   O13 7148   4.294   7.912   0.903  0.0583 -0.0094  0.4485
   17CHTO    H7 7149   4.264   7.854   0.836 -0.9888 -0.9427  1.7057
   17CHTO    O2 7150   4.727   8.039   1.054  0.1054 -0.3114 -0.7025
   17CHTO    C1 7151   4.685   8.177   1.033  0.4598  0.2061 -0.4004
   17CHTO   H14 7152   4.612   8.192   0.951  0.8870  2.1906 -0.4395
   17CHTO    C2 7153   4.802   8.280   1.004  0.1532  0.5855 -0.1413
   17CHTO   H15 7154   4.879   8.258   1.079  0.7113 -0.1410 -0.9250
   17CHTO    O6 7155   4.847   8.250   0.872  0.2396 -0.2964 -0.4387
   17CHTO    H1 7156   4.940   8.264   0.869  0.2023 -0.0879 -0.5875
   17CHTO    C3 7157   4.758   8.434   1.006  0.4162 -0.1603 -0.0325
   17CHTO   H16 7158   4.685   8.444   0.924 -0.3420  0.9415  0.7595
   17CHTO    N1 7159   4.869   8.533   0.985 -0.1811 -0.0254  0.0767
   17CHTO    H8 7160   4.844   8.588   0.896 -2.9448 -1.2373  0.0680
   17CHTO    H9 7161   4.888   8.594   1.072  1.7245 -0.5217  0.0374
   17CHTO    C4 7162   4.672   8.454   1.135 -0.6026 -0.0754 -0.3176
   17CHTO   H17 7163   4.741   8.447   1.219  0.2637  1.4921 -0.8900
   17CHTO    O1 7164   4.572   8.349   1.148 -0.9287 -0.1407 -0.2141
   17CHTO    C5 7165   4.616   8.216   1.164  0.5022 -0.0762  0.2724
   17CHTO   H18 7166   4.672   8.196   1.255 -1.7833  0.0480  1.7578
   17CHTO   C16 7167   4.486   8.131   1.168  0.1406  0.3090  0.2125
   17CHTO   O11 7168   4.408   8.157   1.282  0.3133 -0.3622 -0.9165
   17CHTO    H5 7169   4.325   8.120   1.260 -0.4279 -0.5673  1.9969
   17CHTO    O3 7170   4.594   8.573   1.134 -0.3514 -0.1660 -0.4418
   17CHTO    C6 7171   4.561   8.643   1.262 -0.2896 -0.2620  0.9394
   17CHTO   H19 7172   4.458   8.677   1.258  0.3357  1.6466  0.8867
   17CHTO    C8 7173   4.573   8.562   1.395  0.8192  0.0944 -0.3826
   17CHTO   H21 7174   4.676   8.528   1.407  0.1518 -2.0372 -0.5758
   17CHTO    O7 7175   4.471   8.455   1.395  0.1050  0.0658  0.0521
   17CHTO    H2 7176   4.506   8.387   1.448  0.6372  0.2932 -0.0101
   17CHTO   C12 7177   4.546   8.667   1.516 -0.5137 -0.3243 -0.5785
   17CHTO   H25 7178   4.440   8.697   1.502 -0.6400 -0.5003  0.0035
   17CHTO    N3 7179   4.560   8.607   1.653 -0.5174 -0.3839  0.5678
   17CHTO   H12 7180   4.543   8.676   1.733 -0.3963  0.6179 -0.2629
   17CHTO   H13 7181   4.661   8.569   1.653  0.9744  3.2254 -3.1196
   17CHTO   C15 7182   4.638   8.794   1.499  0.0334  0.1439  0.2394
   17CHTO   H28 7183   4.743   8.765   1.507  0.0090 -0.8684 -2.5287
   17CHTO   O10 7184   4.610   8.909   1.587  0.1804 -0.8366  0.3812
   17CHTO    H4 7185   4.672   8.919   1.657  1.9587 -0.0791 -1.2199
   17CHTO    O5 7186   4.626   8.856   1.372  0.3856 -0.0465  0.0929
   17CHTO   C10 7187   4.650   8.769   1.264  0.1465  0.4688 -0.5467
   17CHTO   H23 7188   4.757   8.748   1.266 -0.0881 -0.7705  3.2848
   17CHTO   C17 7189   4.625   8.848   1.131  0.6196 -0.3988  0.5084
   17CHTO   O12 7190   4.680   8.982   1.131 -0.4367 -0.8169  0.2878
   17CHTO    H6 7191   4.653   9.033   1.204 -2.1388 -3.9678  1.9448
   18CHTO  H203 7192   5.898   8.577   1.997 -1.1770  0.2722 -0.0404
   18CHTO   O82 7193   5.887   8.490   1.961 -0.4388  0.2374 -0.1865
   18CHTO  C123 7194   5.894   8.500   1.820  0.0969  0.5028 -0.4596
   18CHTO  H227 7195   5.794   8.523   1.779 -1.6940 -4.2260  0.9060
   18CHTO   O77 7196   5.989   8.601   1.777 -0.1120  0.2560 -0.3054
   18CHTO  C118 7197   5.976   8.653   1.641 -0.4560  0.2258 -0.0211
   18CHTO  H222 7198   5.873   8.688   1.625 -0.0378  0.7593 -1.6015
   18CHTO  C125 7199   6.069   8.777   1.620 -0.4389  0.0626  0.4069
   18CHTO   O84 7200   6.027   8.876   1.720 -0.6192  0.3998  0.2556
   18CHTO  H205 7201   6.007   8.839   1.803  2.1783  0.7801  1.1663
   18CHTO  C114 7202   6.016   8.538   1.548  0.2600  0.0049  0.3500
   18CHTO  H218 7203   6.124   8.526   1.550  0.4304  1.1849 -0.9995
   18CHTO  C116 7204   5.935   8.407   1.593 -0.1462  0.4024  0.7735
   18CHTO  H220 7205   5.829   8.420   1.564  0.6570 -1.3407 -3.1845
   18CHTO   O79 7206   5.977   8.294   1.513 -0.0321 -0.3880  1.0624
   18CHTO  H201 7207   6.065   8.267   1.532  0.0669  0.4485  1.8061
   18CHTO  C120 7208   5.940   8.367   1.748 -0.2536 -0.3949  0.0024
   18CHTO  H224 7209   6.049   8.346   1.758  0.1013  1.0429 -0.7606
   18CHTO   N21 7210   5.835   8.260   1.775 -0.7578 -0.3054  0.4885
   18CHTO  H211 7211   5.742   8.273   1.722 -0.3484 -0.3536 -0.2399
   18CHTO  H212 7212   5.877   8.162   1.759 -3.9009 -1.5953 -0.2905
   18CHTO   O75 7213   5.985   8.581   1.414 -0.0105  0.1505 -0.0701
   18CHTO  C112 7214   6.104   8.547   1.299  0.0678  1.0175  0.0737
   18CHTO  H216 7215   6.165   8.464   1.337 -0.0112 -0.3221 -2.6209
   18CHTO   O73 7216   6.178   8.668   1.285  0.2960  0.2147  0.3700
   18CHTO  C113 7217   6.294   8.680   1.207  0.0410 -0.0359  0.1008
   18CHTO  H217 7218   6.377   8.616   1.242  0.0795  0.3499  0.7299
   18CHTO  C124 7219   6.352   8.824   1.230 -0.1538 -0.4551 -0.2217
   18CHTO   O83 7220   6.417   8.850   1.358  0.6872 -0.0815  0.1261
   18CHTO  H204 7221   6.505   8.881   1.358  0.2137  1.3108 -0.0978
   18CHTO  C109 7222   6.247   8.640   1.068 -0.1680 -0.5511  0.2662
   18CHTO  H213 7223   6.181   8.717   1.027  0.5691 -0.0847 -0.0432
   18CHTO  C110 7224   6.182   8.501   1.066  0.1289  0.3135  0.1059
   18CHTO  H214 7225   6.257   8.432   1.107 -0.6958 -0.1254  0.8940
   18CHTO   O78 7226   6.154   8.459   0.928  0.1129 -0.0699 -0.1149
   18CHTO  H200 7227   6.083   8.505   0.887 -0.1989 -1.1060 -0.7299
   18CHTO  C111 7228   6.059   8.506   1.158  0.1800  1.2044 -0.5166
   18CHTO  H215 7229   5.988   8.579   1.116 -0.4351  0.8550 -0.0774
   18CHTO   N19 7230   5.990   8.373   1.159  0.3535 -0.1048  0.3322
   18CHTO  H207 7231   5.932   8.367   1.249 -0.8742  2.3212 -0.2664
   18CHTO  H208 7232   5.914   8.375   1.083  0.4643  2.3775  0.2499
   18CHTO   O74 7233   6.371   8.622   0.984  0.6614 -0.2392 -0.2243
   18CHTO  C115 7234   6.342   8.690   0.820  0.2648  0.5030 -0.2137
   18CHTO  H219 7235   6.242   8.671   0.780 -0.7527  3.7678  0.5596
   18CHTO   O76 7236   6.360   8.852   0.823 -0.6085 -0.5592 -0.3653
   18CHTO  C122 7237   6.358   8.921   0.697 -0.0307  0.4561  0.3801
   18CHTO  H226 7238   6.401   9.021   0.702  0.0836  0.3681  1.1115
   18CHTO  C126 7239   6.212   8.940   0.641 -0.3221 -0.7698  0.5538
   18CHTO   O85 7240   6.143   8.823   0.610  0.4449  0.5552 -0.4995
   18CHTO  H206 7241   6.052   8.839   0.594  1.3328  3.7717 -2.8686
   18CHTO  C121 7242   6.451   8.841   0.593 -0.9553  0.1669  0.3664
   18CHTO  H225 7243   6.416   8.889   0.499  1.3137  0.1824 -0.4979
   18CHTO   O81 7244   6.587   8.879   0.602 -0.2796  0.3268 -0.5639
   18CHTO  H202 7245   6.600   8.970   0.584  0.0550  0.3969  0.0254
   18CHTO  C119 7246   6.437   8.692   0.582 -0.1970  0.8384 -0.1083
   18CHTO  H223 7247   6.345   8.661   0.533  0.0364 -3.3589  1.8718
   18CHTO  C117 7248   6.445   8.623   0.725 -0.2081 -0.9973 -0.0769
   18CHTO  H221 7249   6.540   8.634   0.777 -1.1552  0.5552  1.3485
   18CHTO   N20 7250   6.416   8.478   0.721  0.3015  0.1510  0.9214
   18CHTO  H209 7251   6.322   8.450   0.766 -0.5816 -0.0453 -0.9965
   18CHTO  H210 7252   6.487   8.418   0.776  0.8460  0.8680  1.0093
   18CHTO   O80 7253   6.567   8.638   0.464  0.6046 -0.4647 -0.6456
   18CHTO  C103 7254   6.531   8.564   0.333  0.3622 -0.8879  0.0759
   18CHTO  H190 7255   6.619   8.535   0.275  1.9278  1.0676  1.4437
   18CHTO  C101 7256   6.453   8.435   0.357 -0.2717 -0.4899 -0.2994
   18CHTO  H188 7257   6.371   8.447   0.428  0.5316 -2.1390  0.9597
   18CHTO   O68 7258   6.556   8.317   0.415  0.2607 -0.1563 -0.5861
   18CHTO  H168 7259   6.643   8.328   0.383 -0.3801  1.2367 -1.9120
   18CHTO   C99 7260   6.395   8.386   0.215  0.6691 -0.4451  0.0803
   18CHTO  H186 7261   6.479   8.379   0.142  3.1596  1.5901  2.6497
   18CHTO   N17 7262   6.328   8.253   0.211 -0.0297 -0.5685  0.5539
   18CHTO  H174 7263   6.235   8.260   0.265  0.4799  3.3508  1.0895
   18CHTO  H175 7264   6.399   8.198   0.270  0.2168 -0.2939  0.5145
   18CHTO   C97 7265   6.303   8.494   0.160  0.0531  0.1268  1.0185
   18CHTO  H184 7266   6.223   8.520   0.231 -0.8852 -0.7237  0.2926
   18CHTO   O64 7267   6.391   8.608   0.134  0.1653  0.4423 -0.4793
   18CHTO  C104 7268   6.448   8.683   0.248  0.3871 -0.2848  0.1837
   18CHTO  H191 7269   6.374   8.722   0.318  1.3519 -2.3909  2.4780
   18CHTO  C108 7270   6.531   8.803   0.204  0.2876 -0.5766 -0.0261
   18CHTO   O71 7271   6.454   8.885   0.111 -0.2051  0.4883 -0.5171
   18CHTO  H171 7272   6.434   8.836   0.033  1.8675  0.9515 -1.3752
   18CHTO   O62 7273   6.240   8.479   0.030 -0.2044  0.0194 -1.5304
   18CHTO   C91 7274   6.104   8.518   0.027 -0.0090  0.0695 -0.2584
   18CHTO  H178 7275   6.071   8.537   0.129 -1.1473 -0.2403 -0.5613
   18CHTO   C92 7276   6.014   8.401  -0.010  0.8064 -0.1103 -0.6164
   18CHTO  H179 7277   6.037   8.357  -0.108 -0.0818 -1.4342 -0.2398
   18CHTO   O66 7278   6.030   8.291   0.083 -0.2768 -0.2357  0.1308
   18CHTO  H166 7279   6.036   8.207   0.041 -1.5821  0.2676 -1.1121
   18CHTO   C93 7280   5.862   8.439  -0.010  0.4330  0.2481  0.6424
   18CHTO  H180 7281   5.839   8.443   0.098 -1.1845  0.2198  0.3000
   18CHTO   N16 7282   5.768   8.339  -0.071  0.2332  0.2805 -0.2061
   18CHTO  H172 7283   5.821   8.249  -0.100  1.6234  0.3473  2.0305
   18CHTO  H173 7284   5.677   8.328  -0.015  2.6114  1.1156  4.0303
   18CHTO   C94 7285   5.835   8.582  -0.063  0.3386 -0.2029 -0.3314
   18CHTO  H181 7286   5.808   8.579  -0.169  2.5118 -1.2110 -0.8673
   18CHTO   O61 7287   5.937   8.679  -0.049  0.4092  0.2614 -0.4255
   18CHTO   C95 7288   6.074   8.641  -0.050 -0.6663  0.4867 -0.2602
   18CHTO  H182 7289   6.112   8.632  -0.152  1.4453  0.4307  0.5228
   18CHTO  C106 7290   6.156   8.765   0.009  0.3897  0.0391  0.1794
   18CHTO   O69 7291   6.128   8.802   0.144 -0.2266  0.4312 -0.4457
   18CHTO  H169 7292   6.203   8.773   0.192 -2.3257 -1.5083  1.7848
   18CHTO   O63 7293   5.711   8.632   0.031  0.5000  0.1622  0.4863
   18CHTO   C96 7294   5.645   8.761  -0.027  0.1828 -0.1398 -0.4245
   18CHTO  H183 7295   5.668   8.778  -0.133 -0.1350 -2.4785 -0.9011
   18CHTO   C98 7296   5.676   8.889   0.055  0.0809 -0.2248  0.2234
   18CHTO  H185 7297   5.652   8.878   0.162 -1.9994 -3.0260 -0.4678
   18CHTO   O67 7298   5.818   8.917   0.045 -0.4391  0.1221  0.0012
   18CHTO  H167 7299   5.844   8.963   0.122  0.3312  1.4853 -1.0558
   18CHTO  C102 7300   5.591   9.017   0.002 -0.2220  0.2777 -0.1773
   18CHTO  H189 7301   5.650   9.049  -0.085  0.5274  0.7617  0.4946
   18CHTO   N18 7302   5.593   9.136   0.097 -0.1524 -0.4274  0.1226
   18CHTO  H176 7303   5.531   9.208   0.046  1.5725  1.0072  0.0222
   18CHTO  H177 7304   5.693   9.176   0.101 -1.0841  1.9424  0.7744
   18CHTO  C105 7305   5.449   8.987  -0.043 -0.3869  0.6551 -0.6963
   18CHTO  H192 7306   5.386   8.993   0.045  1.8674 -0.3582  1.0297
   18CHTO   O65 7307   5.425   8.851  -0.092  0.0011  0.0984  1.5889
   18CHTO  C100 7308   5.492   8.738  -0.031 -0.7896  0.7919  0.2993
   18CHTO  H187 7309   5.446   8.728   0.069  0.3411 -1.0340  0.6744
   18CHTO  C107 7310   5.457   8.617  -0.116 -0.2044  0.1573 -0.2547
   18CHTO   O70 7311   5.320   8.579  -0.127 -0.4287 -0.5102  0.3983
   18CHTO  H170 7312   5.298   8.565  -0.217 -0.0839  0.1820  0.1941
   18CHTO   O57 7313   5.434   9.077  -0.177 -0.5831  0.3032  0.0148
   18CHTO   C85 7314   5.306   9.129  -0.222  0.1175 -0.1443  0.2738
   18CHTO  H157 7315   5.337   9.193  -0.307 -1.4984 -0.0420 -0.2405
   18CHTO   C83 7316   5.246   9.231  -0.123  0.2612  0.4366 -0.3638
   18CHTO  H155 7317   5.322   9.308  -0.110  1.8406 -0.9335 -1.1844
   18CHTO   O56 7318   5.227   9.174   0.009 -0.1576  0.1076 -0.1083
   18CHTO  H135 7319   5.197   9.244   0.064 -0.5549 -0.0826 -0.0829
   18CHTO   C81 7320   5.117   9.289  -0.179  0.3997 -1.0385  0.2572
   18CHTO  H153 7321   5.134   9.330  -0.279  1.1454  0.4812  0.9871
   18CHTO   N14 7322   5.063   9.408  -0.107 -0.2107 -0.9594 -0.3291
   18CHTO  H141 7323   4.967   9.383  -0.068  0.4461 -1.1335  1.2211
   18CHTO  H142 7324   5.057   9.488  -0.179  0.3576  0.0190  0.6987
   18CHTO   C79 7325   5.010   9.170  -0.196  0.1302 -0.2568  0.2494
   18CHTO  H151 7326   4.917   9.209  -0.236 -0.8111 -1.2879  1.3848
   18CHTO   O52 7327   5.061   9.072  -0.288 -0.6244 -0.3761  0.1216
   18CHTO   C86 7328   5.199   9.015  -0.265 -0.5427 -0.2417  1.2842
   18CHTO  H158 7329   5.179   8.930  -0.196 -1.9571 -0.3515  0.7450
   18CHTO   C90 7330   5.250   8.942  -0.400  0.1129 -0.2888 -0.2110
   18CHTO   O60 7331   5.384   8.898  -0.407  0.0854  0.2429  0.3887
   18CHTO  H138 7332   5.408   8.871  -0.494 -1.4999 -0.1757  0.0494
   18CHTO   O50 7333   4.977   9.104  -0.068  0.2976 -0.3052  0.8114
   18CHTO   C73 7334   4.903   8.989  -0.033  0.5831  0.1487  0.5282
   18CHTO  H145 7335   4.924   8.906  -0.102  0.1690 -0.6053  1.3001
   18CHTO   C74 7336   4.747   9.019  -0.042 -0.3870  0.4205 -0.8547
   18CHTO  H146 7337   4.713   9.035  -0.145  2.5190  0.6564 -1.8304
   18CHTO   O54 7338   4.674   8.903   0.000 -0.3616  0.2085  0.0130
   18CHTO  H133 7339   4.683   8.823  -0.049  0.2197 -0.4415  1.1510
   18CHTO   C75 7340   4.721   9.149   0.045 -0.0204 -0.0875  0.3671
   18CHTO  H147 7341   4.774   9.234   0.001  0.5275  0.1733  1.5011
   18CHTO   N13 7342   4.581   9.195   0.038  0.6223  0.5166  0.7159
   18CHTO  H139 7343   4.549   9.204  -0.065 -0.2355  1.5211  1.0628
   18CHTO  H140 7344   4.511   9.131   0.089 -0.4311  3.3143  2.9146
   18CHTO   C76 7345   4.780   9.120   0.198 -0.0641 -0.2392  0.9548
   18CHTO  H148 7346   4.716   9.046   0.247 -1.5908 -0.6129 -1.5174
   18CHTO   O49 7347   4.922   9.069   0.189 -0.1196  0.7325  0.7669
   18CHTO   C77 7348   4.952   8.951   0.108  0.0088  0.3252  0.9615
   18CHTO  H149 7349   4.885   8.871   0.140  0.0789 -0.0250  0.2573
   18CHTO   C88 7350   5.101   8.911   0.117  0.3105 -0.8448 -0.1225
   18CHTO   O58 7351   5.117   8.786   0.049  0.0209  0.1257 -0.2131
   18CHTO  H136 7352   5.197   8.744   0.075  1.2145  2.8840  0.8147
   18CHTO   O51 7353   4.793   9.252   0.286 -0.2061  0.0401 -0.2432
   18CHTO   C78 7354   4.818   9.228   0.424  0.1649  0.4757 -0.6119
   18CHTO  H150 7355   4.819   9.122   0.454 -1.1290  0.6319  0.0364
   18CHTO   C80 7356   4.707   9.294   0.512  0.2624 -0.5988 -0.4743
   18CHTO  H152 7357   4.707   9.402   0.489 -0.2252 -1.1059 -2.9368
   18CHTO   O55 7358   4.583   9.237   0.465  0.1229 -0.6013  0.2518
   18CHTO  H134 7359   4.507   9.282   0.496  1.2408  0.6282  1.2230
   18CHTO   C84 7360   4.733   9.286   0.665  0.1031  0.0232  0.4256
   18CHTO  H156 7361   4.725   9.181   0.693 -1.3363 -0.0881 -0.3395
   18CHTO   N15 7362   4.628   9.352   0.747 -0.0103  0.0908  0.6749
   18CHTO  H143 7363   4.576   9.418   0.682  0.4415  1.6712  1.9035
   18CHTO  H144 7364   4.560   9.281   0.788 -0.8454 -0.6506 -1.8883
   18CHTO   C87 7365   4.874   9.335   0.709  0.5935  0.9552  0.0464
   18CHTO  H159 7366   4.877   9.444   0.715 -0.6743  0.9851  0.2692
   18CHTO   O53 7367   4.986   9.276   0.596 -0.5532 -0.2209  0.6044
   18CHTO   C82 7368   4.955   9.295   0.453  0.0201  0.6377  0.2464
   18CHTO  H154 7369   4.956   9.401   0.426 -0.8503  1.0032  1.5826
   18CHTO   C89 7370   5.083   9.231   0.385 -0.4366  0.3052 -0.1667
   18CHTO   O59 7371   5.116   9.103   0.438 -0.3766 -0.5092 -0.2419
   18CHTO  H137 7372   5.207   9.111   0.460 -0.5911 -1.0044  0.8770
   18CHTO   O45 7373   4.924   9.279   0.859  0.4522 -0.0487  0.1114
   18CHTO   C67 7374   5.061   9.289   0.892 -0.6571 -0.2604  0.9573
   18CHTO  H124 7375   5.117   9.290   0.798  1.6573 -0.1942  2.2982
   18CHTO   C65 7376   5.096   9.414   0.973  0.5088 -0.0704  0.7102
   18CHTO  H122 7377   5.008   9.451   1.025  1.1990  1.7655  0.6129
   18CHTO   O44 7378   5.130   9.513   0.874 -0.4329 -0.0427 -0.1498
   18CHTO  H102 7379   5.171   9.584   0.920  0.0724  0.8603 -1.9304
   18CHTO   C63 7380   5.202   9.397   1.094  0.6277 -0.2580 -0.1044
   18CHTO  H120 7381   5.148   9.359   1.180 -2.2438  2.1123 -0.8009
   18CHTO   N11 7382   5.263   9.515   1.168 -0.7064 -0.2237  0.0324
   18CHTO  H108 7383   5.370   9.525   1.164 -0.8966  1.6581 -1.2396
   18CHTO  H109 7384   5.213   9.608   1.152 -1.1416 -0.5876 -0.7687
   18CHTO   C61 7385   5.300   9.279   1.052  0.1109  0.3593  0.2634
   18CHTO  H118 7386   5.352   9.251   1.145 -0.5197  1.6034  1.0022
   18CHTO   O40 7387   5.239   9.157   0.997 -0.6799 -0.2736 -0.0605
   18CHTO   C68 7388   5.094   9.157   0.959  0.9759 -0.1008  0.1052
   18CHTO  H125 7389   5.041   9.143   1.056 -1.8301  0.9315 -1.2240
   18CHTO   C72 7390   5.073   9.036   0.871  0.5949  0.3098 -0.5244
   18CHTO   O48 7391   4.934   9.005   0.839  0.1217 -0.1097  0.2077
   18CHTO  H105 7392   4.880   9.075   0.809 -1.2615 -1.4955 -0.6342
   18CHTO   O38 7393   5.393   9.324   0.946  0.2590 -0.5459  0.1310
   18CHTO   C55 7394   5.521   9.253   0.935 -0.1704  0.2816 -0.7768
   18CHTO  H112 7395   5.521   9.156   0.986  1.4037  1.4928  1.6244
   18CHTO   C56 7396   5.643   9.342   0.993 -0.3100  0.0757 -0.0526
   18CHTO  H113 7397   5.641   9.439   0.942  1.9708  1.1188  1.7549
   18CHTO   O42 7398   5.612   9.358   1.131 -0.0138 -0.9417 -0.0569
   18CHTO  H100 7399   5.663   9.425   1.172  0.7070 -1.6755  0.2482
   18CHTO   C57 7400   5.783   9.273   0.973  0.7769 -0.5061 -0.5883
   18CHTO  H114 7401   5.796   9.195   1.048  0.3353 -0.8904 -0.9083
   18CHTO   N10 7402   5.893   9.365   0.998 -0.1491 -0.1609  0.1803
   18CHTO  H106 7403   5.872   9.425   1.085  1.3779 -0.0966  0.5192
   18CHTO  H107 7404   5.923   9.424   0.912 -2.8443 -0.6036 -1.1222
   18CHTO   C58 7405   5.790   9.207   0.831  0.2848 -0.7467  0.5495
   18CHTO  H115 7406   5.828   9.282   0.759  0.6720  0.5482  2.0589
   18CHTO   O37 7407   5.669   9.151   0.778  0.6974 -0.2810  0.2159
   18CHTO   C59 7408   5.553   9.239   0.786 -0.0567 -0.0948  0.2803
   18CHTO  H116 7409   5.580   9.333   0.738 -0.7341 -0.2807 -0.4765
   18CHTO   C70 7410   5.442   9.167   0.716 -0.6441 -0.6047 -0.4214
   18CHTO   O46 7411   5.425   9.030   0.750  0.2174  0.0695 -0.4392
   18CHTO  H103 7412   5.341   9.004   0.719 -1.4068  1.6500  2.3978
   18CHTO   O39 7413   5.904   9.073   0.843  0.1908  0.1908  0.5686
   18CHTO   C60 7414   5.850   8.961   0.911 -0.4335  0.3605 -0.4269
   18CHTO  H117 7415   5.781   9.000   0.985 -1.8265 -1.5459 -0.7011
   18CHTO   C62 7416   5.782   8.858   0.811  0.3689  0.2052  0.4152
   18CHTO  H119 7417   5.715   8.919   0.748 -1.2604  0.6732  2.5134
   18CHTO   O43 7418   5.882   8.806   0.719 -0.2746 -0.6937 -0.3964
   18CHTO  H101 7419   5.920   8.875   0.667 -1.7470 -2.4268 -3.9572
   18CHTO   C66 7420   5.690   8.749   0.887  0.6460  0.0487 -0.7477
   18CHTO  H123 7421   5.606   8.797   0.937  0.9243  0.0498 -0.2721
   18CHTO   N12 7422   5.619   8.649   0.794  0.2668 -0.0815 -0.4309
   18CHTO  H110 7423   5.632   8.673   0.689  0.1880  0.7403 -0.2599
   18CHTO  H111 7424   5.514   8.645   0.815  0.4711  1.0366  0.8782
   18CHTO   C69 7425   5.769   8.667   0.992  0.4421 -0.0593  0.5286
   18CHTO  H126 7426   5.837   8.591   0.948  0.7525 -0.5456  1.8206
   18CHTO   O41 7427   5.863   8.765   1.070  0.5923  0.7422 -0.1928
   18CHTO   C64 7428   5.948   8.876   0.987 -0.2278  0.4833  0.4905
   18CHTO  H121 7429   6.017   8.830   0.913 -1.5214  0.8805 -0.9890
   18CHTO   C71 7430   6.028   8.968   1.092 -0.5471  0.1606  0.1733
   18CHTO   O47 7431   6.104   9.067   1.027 -0.3547 -0.7994  0.1070
   18CHTO  H104 7432   6.109   9.137   1.089  0.2078  0.5867 -1.4485
   18CHTO   O34 7433   5.671   8.601   1.092 -0.0843 -0.1837  0.6473
   18CHTO   C49 7434   5.603   8.593   1.229  0.3453 -0.4330  0.3470
   18CHTO   H91 7435   5.637   8.500   1.274  0.3376 -0.1295  0.9902
   18CHTO   C47 7436   5.453   8.583   1.205  0.1289  0.5322 -0.0410
   18CHTO   H89 7437   5.409   8.565   1.305  1.3105  0.6887  0.5208
   18CHTO   O33 7438   5.426   8.474   1.121  0.5690 -0.1158 -0.3109
   18CHTO   H70 7439   5.438   8.395   1.170 -2.1766  0.2615  1.0579
   18CHTO   C45 7440   5.396   8.717   1.150  0.6055  0.4179  0.3273
   18CHTO   H87 7441   5.465   8.743   1.068 -0.0819  1.6557  0.1424
   18CHTO    N8 7442   5.261   8.714   1.096  0.3778  0.5297 -0.1069
   18CHTO   H75 7443   5.200   8.730   1.183  0.5658 -1.1692  0.3390
   18CHTO   H76 7444   5.233   8.619   1.054  1.3706 -0.0544  0.5487
   18CHTO   C43 7445   5.425   8.832   1.256  0.3316 -0.3212 -0.3221
   18CHTO   H85 7446   5.395   8.931   1.220  0.8190  0.0981  0.4043
   18CHTO   O29 7447   5.560   8.833   1.296 -0.0010  0.0852 -0.2662
   18CHTO   C50 7448   5.624   8.708   1.323 -0.1907 -0.3622 -0.2451
   18CHTO   H92 7449   5.733   8.725   1.321  0.1789 -2.6315 -2.2588
   18CHTO   C54 7450   5.601   8.658   1.468 -0.0205  0.4598 -0.1201
   18CHTO   O36 7451   5.649   8.753   1.559 -0.2189  0.5065  0.4691
   18CHTO   H72 7452   5.588   8.823   1.557 -0.9869 -0.1855 -1.3513
   18CHTO   O27 7453   5.343   8.824   1.375  0.1652 -0.1007 -0.0516
   18CHTO   C37 7454   5.274   8.929   1.447 -0.1052  0.1569  0.5034
   18CHTO   H79 7455   5.235   8.888   1.541  1.2585 -0.9508  0.5911
   18CHTO   C38 7456   5.372   9.048   1.499 -0.2829 -0.1849  0.2189
   18CHTO   H80 7457   5.448   9.068   1.422  0.4494 -2.5341  0.2848
   18CHTO   O31 7458   5.454   9.005   1.607 -0.1055 -0.2954  0.5119
   18CHTO   H68 7459   5.530   9.058   1.623  0.6209 -1.0771 -0.3144
   18CHTO   C39 7460   5.300   9.186   1.538 -0.4860 -0.5739 -0.6485
   18CHTO   H81 7461   5.252   9.169   1.634  0.2116  0.5310 -0.0939
   18CHTO    N7 7462   5.395   9.306   1.553  0.3825 -0.0926  0.0780
   18CHTO   H73 7463   5.447   9.299   1.648 -0.8154  1.7209  0.9071
   18CHTO   H74 7464   5.349   9.404   1.553  1.2862  0.3503 -1.9669
   18CHTO   C40 7465   5.182   9.222   1.444  0.5865  0.0937 -0.2249
   18CHTO   H82 7466   5.221   9.251   1.347 -1.0396 -0.9689 -1.2165
   18CHTO   O26 7467   5.104   9.108   1.433  0.2484 -0.2140 -0.1145
   18CHTO   C41 7468   5.157   8.994   1.360  0.1864 -0.5466  0.3131
   18CHTO   H83 7469   5.197   9.020   1.261  0.9411 -4.4697 -0.4943
   18CHTO   C52 7470   5.038   8.892   1.343 -0.2073 -0.1950  0.5481
   18CHTO   O35 7471   4.958   8.945   1.237 -0.2536 -0.1257 -0.2320
   18CHTO   H71 7472   4.911   9.018   1.274  1.5296  2.6141 -3.0943
   18CHTO   O28 7473   5.090   9.329   1.487 -0.5953 -0.3505  0.3547
   18CHTO   C42 7474   4.950   9.315   1.522  0.1090 -0.4555  0.1169
   18CHTO   H84 7475   4.931   9.417   1.557  0.6510 -0.6351  0.9336
   18CHTO   C44 7476   4.913   9.227   1.636  0.2383  0.0573 -0.2678
   18CHTO   H86 7477   4.935   9.125   1.604 -1.0521 -0.4518  0.3948
   18CHTO   O32 7478   5.012   9.252   1.740  0.1566 -0.5931 -0.3675
   18CHTO   H69 7479   5.001   9.191   1.810 -2.6942  0.1631 -0.0990
   18CHTO   C48 7480   4.758   9.244   1.679 -0.1264 -0.5671 -0.1155
   18CHTO   H90 7481   4.741   9.342   1.722  0.7265  0.4327 -2.0097
   18CHTO    N9 7482   4.706   9.154   1.786 -0.2297 -0.2776  0.0489
   18CHTO   H77 7483   4.606   9.186   1.810 -0.1179 -1.1657  1.8453
   18CHTO   H78 7484   4.765   9.147   1.876  0.1282 -1.0546 -0.2432
   18CHTO   C51 7485   4.669   9.244   1.549  0.1657  0.0675  0.1293
   18CHTO   H93 7486   4.665   9.142   1.511  1.2792 -1.0775  2.9164
   18CHTO   O30 7487   4.722   9.335   1.452  0.0252  0.5535  0.5232
   18CHTO   C46 7488   4.863   9.294   1.401  0.1092  0.4223 -0.1580
   18CHTO   H88 7489   4.864   9.191   1.365  3.2460 -0.2393  1.6871
   18CHTO   C53 7490   4.902   9.400   1.296 -0.0734 -0.1410 -0.0152
   18CHTO   O72 7491   4.797   9.440   1.197 -0.2243  0.3624 -0.4002
   18CHTO  H199 7492   4.770   9.367   1.145 -1.1512  0.1736  0.3436
   18CHTO   O22 7493   4.535   9.288   1.584 -0.1448  0.0182  0.1148
   18CHTO   C31 7494   4.419   9.318   1.496  0.0727 -0.7302 -0.4345
   18CHTO   H59 7495   4.336   9.355   1.560  0.9025 -0.6336  0.5971
   18CHTO   C29 7496   4.449   9.431   1.394  1.4490  0.2442 -0.5987
   18CHTO   H57 7497   4.539   9.399   1.339  0.3954 -3.0232 -0.5504
   18CHTO   O21 7498   4.474   9.548   1.475  0.5320 -0.1557  0.0320
   18CHTO   H37 7499   4.555   9.584   1.443  1.3313 -3.2430 -1.6026
   18CHTO   C27 7500   4.333   9.457   1.287 -0.1644 -0.3388  0.3044
   18CHTO   H55 7501   4.241   9.485   1.342 -0.2052  0.5170 -0.1829
   18CHTO    N5 7502   4.374   9.555   1.186  0.2955 -0.4781 -0.1077
   18CHTO   H43 7503   4.448   9.626   1.222  0.4655 -0.7075 -0.0038
   18CHTO   H44 7504   4.285   9.611   1.162  1.9979  2.5950  0.3642
   18CHTO   C25 7505   4.308   9.316   1.230  0.3744  0.5072  0.1706
   18CHTO   H53 7506   4.404   9.285   1.186  0.0346 -0.0978 -0.1489
   18CHTO   O17 7507   4.265   9.218   1.331  0.6574 -0.0907 -0.1353
   18CHTO   C32 7508   4.372   9.196   1.417  0.3269 -0.3847  0.8110
   18CHTO   H60 7509   4.457   9.161   1.359 -0.3499 -0.4096 -0.1748
   18CHTO   C36 7510   4.327   9.076   1.510  0.6155  0.2357 -0.3152
   18CHTO   O25 7511   4.253   8.972   1.444  0.4990 -0.1456 -0.4996
   18CHTO   H40 7512   4.268   8.883   1.469  0.1024 -0.0256  0.1920
   18CHTO   O15 7513   4.197   9.310   1.128 -0.3395  0.7229 -0.3979
   18CHTO   C19 7514   4.195   9.232   1.003  0.2049 -0.3996 -0.0184
   18CHTO   H47 7515   4.090   9.216   0.974  0.5586  0.3173 -1.7433
   18CHTO   C20 7516   4.258   9.299   0.880  0.2318  0.0963  0.0811
   18CHTO   H48 7517   4.367   9.310   0.892  0.2181  0.1923  0.1247
   18CHTO   O19 7518   4.206   9.427   0.860 -0.2101  0.4312  0.0265
   18CHTO   H35 7519   4.113   9.439   0.863 -0.1085  1.7917 -1.9558
   18CHTO   C21 7520   4.220   9.204   0.756 -0.4238 -0.4029  0.1625
   18CHTO   H49 7521   4.115   9.175   0.760 -0.8451  1.0995  0.3515
   18CHTO    N4 7522   4.237   9.264   0.619  0.2615  0.2000  0.5820
   18CHTO   H41 7523   4.156   9.326   0.586  0.4207 -1.3091 -2.8203
   18CHTO   H42 7524   4.246   9.181   0.550 -0.1164 -0.5810  1.4439
   18CHTO   C22 7525   4.301   9.074   0.775  0.2080  0.7435 -0.0534
   18CHTO   H50 7526   4.403   9.111   0.783  0.7221 -0.5375 -0.5392
   18CHTO   O14 7527   4.259   9.013   0.897  0.0760 -0.1714  0.2833
   18CHTO   C23 7528   4.258   9.088   1.020 -0.0911  0.0824  0.7544
   18CHTO   H51 7529   4.363   9.095   1.052 -0.4519  1.2050  1.7203
   18CHTO   C34 7530   4.189   9.005   1.126  0.7831 -0.3556 -0.0571
   18CHTO   O23 7531   4.251   8.880   1.170  0.1132  0.0986  0.6191
   18CHTO   H38 7532   4.176   8.824   1.177  1.0634 -1.0768  1.3522
   18CHTO   O16 7533   4.276   8.973   0.675  0.3294 -0.1074 -0.0724
   18CHTO   C24 7534   4.411   8.951   0.583  0.1841 -0.0765  0.4678
   18CHTO   H52 7535   4.472   9.041   0.572 -1.1738  0.5114 -2.9912
   18CHTO   C26 7536   4.358   8.922   0.440  0.1717 -0.1083 -0.2131
   18CHTO   H54 7537   4.304   8.824   0.438  1.2827 -0.7107 -1.7015
   18CHTO   O20 7538   4.308   9.049   0.389 -0.2595  0.4837  0.2490
   18CHTO   H36 7539   4.224   9.069   0.425 -1.2608 -0.8942 -1.2797
   18CHTO   C30 7540   4.471   8.873   0.344 -0.0789 -0.0254 -0.2018
   18CHTO   H58 7541   4.540   8.956   0.325  0.3253 -0.3714 -0.2425
   18CHTO    N6 7542   4.424   8.819   0.213  0.2202 -0.2755 -0.2745
   18CHTO   H45 7543   4.341   8.750   0.226 -0.5190  0.5195 -0.7381
   18CHTO   H46 7544   4.505   8.770   0.163 -0.9121 -1.8014 -0.6712
   18CHTO   C33 7545   4.561   8.770   0.418 -0.1252  0.3435 -0.8795
   18CHTO   H61 7546   4.512   8.672   0.427 -0.2925  0.3872 -1.2921
   18CHTO   O18 7547   4.610   8.820   0.545 -0.0007 -0.5266 -0.1555
   18CHTO   C28 7548   4.509   8.843   0.640  0.1160  0.2052  0.1823
   18CHTO   H56 7549   4.451   8.754   0.666 -0.7006  0.1424 -1.7674
   18CHTO   C35 7550   4.584   8.890   0.764 -0.4020  0.2816  0.1825
   18CHTO   O24 7551   4.686   8.791   0.792 -0.0863 -0.2736 -0.0919
   18CHTO   H39 7552   4.735   8.828   0.862  2.1247 -2.5658 -0.3585
   18CHTO    O9 7553   4.672   8.740   0.332  0.1094 -0.1593  0.2706
   18CHTO   C13 7554   4.784   8.644   0.419 -0.6783  0.1982 -0.5538
   18CHTO   H26 7555   4.729   8.578   0.489  1.7374 -0.9437  0.3339
   18CHTO   C11 7556   4.885   8.734   0.503 -0.4965 -0.0559 -1.1262
   18CHTO   H24 7557   4.831   8.796   0.577 -0.3024 -0.4351 -0.6668
   18CHTO    O8 7558   4.945   8.831   0.414 -0.4697  0.7514 -0.4314
   18CHTO    H3 7559   4.981   8.906   0.457 -0.7036  0.2964  0.5821
   18CHTO    C9 7560   4.988   8.643   0.577 -0.1674 -0.6970 -0.2491
   18CHTO   H22 7561   4.932   8.561   0.624 -0.4089 -1.1825 -1.3588
   18CHTO    N2 7562   5.077   8.716   0.677  0.3983 -0.0743 -0.4270
   18CHTO   H10 7563   5.030   8.791   0.738  2.4212  0.7522  0.1726
   18CHTO   H11 7564   5.165   8.756   0.629 -0.7021 -0.3361 -2.6942
   18CHTO    C7 7565   5.073   8.565   0.463 -0.5427 -0.0962 -0.0212
   18CHTO   H20 7566   5.135   8.490   0.517 -0.1001 -0.3657 -0.8911
   18CHTO    O4 7567   4.985   8.488   0.375  0.2586  0.2637 -0.5747
   18CHTO   C14 7568   4.857   8.539   0.328  0.6931 -0.1095  0.4560
   18CHTO   H27 7569   4.785   8.455   0.328 -0.2853  0.7146 -1.4920
   18CHTO   C18 7570   4.866   8.583   0.178 -0.3418 -0.3032  0.3237
   18CHTO   O13 7571   4.884   8.480   0.082 -0.0893  0.5591 -0.2896
   18CHTO    H7 7572   4.940   8.413   0.114 -1.7187 -1.0862 -0.7614
   18CHTO    O2 7573   5.166   8.668   0.363 -0.0930  0.5131  0.4190
   18CHTO    C1 7574   5.286   8.603   0.309 -0.6336 -0.1028  0.1248
   18CHTO   H14 7575   5.315   8.660   0.219  0.1820  2.1841  1.7876
   18CHTO    C2 7576   5.294   8.450   0.269  0.2669  0.2432 -0.9405
   18CHTO   H15 7577   5.248   8.398   0.354  1.8709  0.4162  0.0726
   18CHTO    O6 7578   5.208   8.437   0.153  0.4807  0.2118 -0.0753
   18CHTO    H1 7579   5.232   8.358   0.109  1.4864  0.1028  0.6385
   18CHTO    C3 7580   5.439   8.383   0.238  0.1307 -0.4177  0.7154
   18CHTO   H16 7581   5.483   8.428   0.148  0.1559  1.4140  1.6341
   18CHTO    N1 7582   5.435   8.242   0.202  0.4068 -0.7039 -0.5083
   18CHTO    H8 7583   5.383   8.227   0.109 -1.4731  0.8435  0.2520
   18CHTO    H9 7584   5.533   8.196   0.203  0.1749 -1.1899  0.0674
   18CHTO    C4 7585   5.535   8.425   0.350 -0.5044 -1.1261 -0.4017
   18CHTO   H17 7586   5.503   8.369   0.438 -1.9190  1.2322  0.6136
   18CHTO    O1 7587   5.521   8.565   0.372 -0.1911 -0.0224  0.2039
   18CHTO    C5 7588   5.398   8.620   0.418  0.4752 -0.7509  0.3287
   18CHTO   H18 7589   5.372   8.565   0.509 -1.3854  0.1579  0.3672
   18CHTO   C16 7590   5.409   8.774   0.455  0.3106  0.1679 -0.4859
   18CHTO   O11 7591   5.467   8.855   0.348  0.3227 -0.6663 -0.2067
   18CHTO    H5 7592   5.488   8.937   0.389 -0.6976  0.3149 -1.5660
   18CHTO    O3 7593   5.674   8.410   0.308  0.1515 -0.0894  0.1866
   18CHTO    C6 7594   5.776   8.373   0.405  0.4701 -0.5456 -0.4029
   18CHTO   H19 7595   5.744   8.374   0.509  2.8726  0.7378  0.3521
   18CHTO    C8 7596   5.843   8.233   0.367 -0.2341 -0.3694 -0.0269
   18CHTO   H21 7597   5.877   8.239   0.264  0.4053 -1.0162  0.1379
   18CHTO    O7 7598   5.741   8.134   0.366  0.3418 -0.2100  0.2825
   18CHTO    H2 7599   5.707   8.110   0.450  1.3774 -1.8031  0.2565
   18CHTO   C12 7600   5.962   8.210   0.473  0.3501 -0.4592  0.0300
   18CHTO   H25 7601   5.914   8.189   0.571  0.3498  0.7563  0.2921
   18CHTO    N3 7602   6.026   8.073   0.451  0.2471 -0.3772  0.0867
   18CHTO   H12 7603   6.134   8.079   0.452  0.2141  0.1355  0.5885
   18CHTO   H13 7604   5.983   8.028   0.362 -1.3524  1.4664 -0.1128
   18CHTO   C15 7605   6.060   8.333   0.491  0.4468  0.3721  0.0870
   18CHTO   H28 7606   6.144   8.339   0.422  0.8728 -2.9842  0.2532
   18CHTO   O10 7607   6.124   8.324   0.620 -0.0257  0.0451 -0.0032
   18CHTO    H4 7608   6.059   8.315   0.688 -0.7845  0.2761 -0.6810
   18CHTO    O5 7609   5.982   8.452   0.505 -0.5149 -0.1147  0.1026
   18CHTO   C10 7610   5.889   8.484   0.397 -0.5775  0.5313  0.4253
   18CHTO   H23 7611   5.943   8.468   0.304 -1.6517  0.3945 -0.1876
   18CHTO   C17 7612   5.846   8.629   0.413 -0.5640 -0.1115 -0.1528
   18CHTO   O12 7613   5.960   8.714   0.403  0.2063  0.1184  0.3861
   18CHTO    H6 7614   5.962   8.753   0.318 -2.5727 -1.5233 -0.4779
   19CHTO  H203 7615   4.606  10.480   2.535  0.8298  1.1167  0.2672
   19CHTO   O82 7616   4.685  10.432   2.548  0.1382 -0.2293 -0.4253
   19CHTO  C123 7617   4.671  10.301   2.493 -0.1060  0.1507 -0.0075
   19CHTO  H227 7618   4.583  10.294   2.427 -1.5842 -0.6491  1.9617
   19CHTO   O77 7619   4.789  10.288   2.414 -0.4471 -0.4688 -0.1661
   19CHTO  C118 7620   4.794  10.178   2.327  0.0047 -0.0049  0.3644
   19CHTO  H222 7621   4.717  10.177   2.248  0.8139  2.0249 -0.4819
   19CHTO  C125 7622   4.931  10.183   2.263 -0.6619 -0.4163  0.1170
   19CHTO   O84 7623   4.940  10.084   2.155 -0.1819  0.0995  0.9450
   19CHTO  H205 7624   5.019  10.035   2.168  0.0379 -0.0723 -0.9194
   19CHTO  C114 7625   4.772  10.048   2.408 -0.1162 -1.4384 -0.5535
   19CHTO  H218 7626   4.861  10.024   2.466  1.0735 -0.8734 -2.1227
   19CHTO  C116 7627   4.663  10.047   2.516  0.1753  0.5820  0.2522
   19CHTO  H220 7628   4.564  10.036   2.469  0.7730  3.8095 -1.8997
   19CHTO   O79 7629   4.675   9.930   2.597 -0.5637 -0.2571  0.2153
   19CHTO  H201 7630   4.690   9.960   2.685 -0.9439  1.1138 -0.1722
   19CHTO  C120 7631   4.674  10.185   2.600  0.1658 -0.7514 -1.2098
   19CHTO  H224 7632   4.769  10.190   2.658  0.2878 -1.5771 -1.3287
   19CHTO   N21 7633   4.559  10.206   2.699  0.3857 -0.1986  0.1315
   19CHTO  H211 7634   4.548  10.308   2.731  0.3712 -0.3022  0.4650
   19CHTO  H212 7635   4.569  10.143   2.786 -1.0435 -3.2186 -1.7865
   19CHTO   O75 7636   4.727   9.951   2.308  0.2661 -0.0386  0.3686
   19CHTO  C112 7637   4.788   9.797   2.325  0.8119 -0.1663  1.2930
   19CHTO  H216 7638   4.755   9.752   2.419  1.4001 -0.6601  1.2718
   19CHTO   O73 7639   4.930   9.809   2.324  0.3196 -0.1064  0.4107
   19CHTO  C113 7640   4.999   9.683   2.323  0.3923  0.0628 -0.5047
   19CHTO  H217 7641   4.974   9.624   2.414  1.1056  1.2002  0.4534
   19CHTO  C124 7642   5.150   9.704   2.331  0.8210  0.4022  0.4525
   19CHTO   O83 7643   5.235   9.597   2.364  0.0461 -0.0860 -0.2771
   19CHTO  H204 7644   5.251   9.549   2.285 -0.6029  2.2268 -1.8831
   19CHTO  C109 7645   4.966   9.603   2.192 -0.1415  0.7480  0.0544
   19CHTO  H213 7646   5.007   9.659   2.107 -1.0660  1.1444 -0.1391
   19CHTO  C110 7647   4.808   9.575   2.194  0.2206 -0.7509  0.3534
   19CHTO  H214 7648   4.774   9.511   2.276 -1.2021  0.6117  0.8480
   19CHTO   O78 7649   4.777   9.503   2.074 -0.0113 -0.2123 -0.3972
   19CHTO  H200 7650   4.746   9.416   2.089 -0.5583  0.2037  0.9068
   19CHTO  C111 7651   4.736   9.714   2.195 -0.1772 -0.3143 -0.2482
   19CHTO  H215 7652   4.766   9.772   2.107  1.5814  1.4941  1.4791
   19CHTO   N19 7653   4.585   9.700   2.197  0.1960  0.4733  0.3211
   19CHTO  H207 7654   4.552   9.654   2.289 -1.7590  0.1490 -0.5225
   19CHTO  H208 7655   4.543   9.794   2.165 -0.0851  0.2807  0.1244
   19CHTO   O74 7656   5.030   9.467   2.195  0.4852  0.2039 -0.1616
   19CHTO  C115 7657   5.064   9.392   2.063 -0.5461 -0.0006  1.1363
   19CHTO  H219 7658   4.982   9.397   1.991 -0.2224 -0.1915  0.7450
   19CHTO   O76 7659   5.195   9.463   1.982 -0.5474  0.1497  0.6123
   19CHTO  C122 7660   5.321   9.414   2.025  0.2894 -0.4548  0.9650
   19CHTO  H226 7661   5.338   9.446   2.128 -0.3950  1.8628  0.3844
   19CHTO  C126 7662   5.431   9.476   1.939  0.0128  0.5316 -0.8944
   19CHTO   O85 7663   5.437   9.618   1.961 -0.3026  0.2746  0.1623
   19CHTO  H206 7664   5.471   9.644   2.044  1.8996 -0.7671 -0.3653
   19CHTO  C121 7665   5.336   9.249   2.034 -0.6097  0.4082 -0.0788
   19CHTO  H225 7666   5.408   9.216   1.956 -1.6711 -1.1446 -0.4177
   19CHTO   O81 7667   5.401   9.212   2.157  0.1145 -0.6808 -0.2885
   19CHTO  H202 7668   5.486   9.251   2.147  0.7624 -1.0593  3.0526
   19CHTO  C119 7669   5.210   9.176   2.011  0.0198 -0.1374 -0.4524
   19CHTO  H223 7670   5.188   9.191   1.906  1.0168  1.2178 -0.4819
   19CHTO  C117 7671   5.091   9.243   2.098  0.3391 -0.1183 -0.0190
   19CHTO  H221 7672   5.114   9.237   2.204 -2.4654 -0.3671  0.6333
   19CHTO   N20 7673   4.969   9.163   2.077 -0.1644 -0.2893 -0.4478
   19CHTO  H209 7674   4.944   9.130   2.176 -1.2162  1.3104 -0.1624
   19CHTO  H210 7675   4.882   9.221   2.052 -1.2061 -1.7263 -0.2560
   19CHTO   O80 7676   5.227   9.010   2.025 -0.3221 -0.6202  0.4534
   19CHTO  C103 7677   5.299   8.934   1.919 -0.5194 -0.6034 -0.3605
   19CHTO  H190 7678   5.294   8.989   1.825 -3.2619 -0.0456  0.0727
   19CHTO  C101 7679   5.444   8.879   1.949 -1.0530  0.0363  0.2699
   19CHTO  H188 7680   5.431   8.827   2.044 -1.3924 -0.1375  0.1279
   19CHTO   O68 7681   5.540   8.999   1.951 -0.9217 -0.1912 -0.6936
   19CHTO  H168 7682   5.513   9.065   2.011 -0.8234  0.7092 -1.6179
   19CHTO   C99 7683   5.489   8.772   1.852 -0.0909 -0.2253  0.4088
   19CHTO  H186 7684   5.505   8.824   1.755  2.9472 -1.1117  0.3955
   19CHTO   N17 7685   5.611   8.698   1.896 -0.0100 -0.0165 -0.3027
   19CHTO  H174 7686   5.590   8.659   1.994  1.2195 -0.5401 -0.2380
   19CHTO  H175 7687   5.695   8.767   1.899 -1.7020  2.0592  0.3655
   19CHTO   C97 7688   5.380   8.661   1.825  0.8045  0.6345 -1.1616
   19CHTO  H184 7689   5.357   8.599   1.913  0.3300 -0.4980 -2.0720
   19CHTO   O64 7690   5.265   8.733   1.787  0.1071 -0.0437  0.2789
   19CHTO  C104 7691   5.213   8.805   1.899 -0.0079 -0.0764  0.2739
   19CHTO  H191 7692   5.210   8.747   1.992  0.1351  0.1741  0.4375
   19CHTO  C108 7693   5.066   8.846   1.860  0.6302  1.3233 -0.6025
   19CHTO   O71 7694   5.065   8.927   1.742 -0.6104  0.2081  0.2812
   19CHTO  H171 7695   5.123   8.999   1.758 -0.9483  0.9633 -1.6978
   19CHTO   O62 7696   5.418   8.575   1.710  0.3625 -0.2056  0.2821
   19CHTO   C91 7697   5.347   8.450   1.702  0.2803  0.5898  0.4679
   19CHTO  H178 7698   5.272   8.452   1.781  0.3914 -0.1514  0.6014
   19CHTO   C92 7699   5.448   8.342   1.723  0.4234  0.0072  0.1674
   19CHTO  H179 7700   5.536   8.365   1.661  0.3485  1.7128  0.6757
   19CHTO   O66 7701   5.504   8.349   1.857 -0.1199  0.6444 -0.5241
   19CHTO  H166 7702   5.445   8.381   1.923  0.3433  0.2603  0.0825
   19CHTO   C93 7703   5.388   8.194   1.695 -0.0307 -0.0799 -0.2538
   19CHTO  H180 7704   5.343   8.161   1.789 -1.2970  0.9859 -0.4650
   19CHTO   N16 7705   5.487   8.087   1.672 -0.9381  0.2256 -0.1589
   19CHTO  H172 7706   5.525   8.032   1.756 -3.3444 -2.0601 -0.5222
   19CHTO  H173 7707   5.570   8.133   1.621  0.4803 -0.9134  1.0994
   19CHTO   C94 7708   5.279   8.187   1.578 -0.1785 -0.3966 -0.0985
   19CHTO  H181 7709   5.325   8.185   1.479 -1.3528 -1.2276 -0.6375
   19CHTO   O61 7710   5.193   8.298   1.581  0.2927 -0.3870 -0.4098
   19CHTO   C95 7711   5.259   8.427   1.573  0.3147  0.1893 -0.1827
   19CHTO  H182 7712   5.314   8.436   1.479  0.2122 -1.6717 -0.4544
   19CHTO  C106 7713   5.145   8.527   1.539 -0.1378  0.4469  0.3735
   19CHTO   O69 7714   5.097   8.496   1.411  0.2823 -0.3736  0.4505
   19CHTO  H169 7715   5.057   8.571   1.371  0.6187 -1.1895 -1.4672
   19CHTO   O63 7716   5.184   8.056   1.609 -0.3638  0.4899 -0.1570
   19CHTO   C96 7717   5.100   8.009   1.483 -0.2904  0.0513  0.3445
   19CHTO  H183 7718   5.179   7.987   1.412 -0.6324 -0.6736  0.1938
   19CHTO   C98 7719   5.006   8.117   1.410 -0.2157  0.1207  0.4638
   19CHTO  H185 7720   5.064   8.210   1.401  0.8445 -0.5929 -0.1749
   19CHTO   O67 7721   4.972   8.076   1.276  0.0905 -0.7489  0.2981
   19CHTO  H167 7722   5.053   8.063   1.230  0.2515 -0.3968  0.4881
   19CHTO  C102 7723   4.877   8.141   1.489 -0.0555 -0.4460 -0.0313
   19CHTO  H189 7724   4.806   8.185   1.418  0.6649 -1.2382 -1.2508
   19CHTO   N18 7725   4.887   8.237   1.605 -0.7828  0.0816  0.1223
   19CHTO  H176 7726   4.848   8.328   1.562 -0.7380 -0.3017 -0.7296
   19CHTO  H177 7727   4.986   8.268   1.635 -0.5715  0.0289 -0.5124
   19CHTO  C105 7728   4.812   8.003   1.528 -0.0244  0.4375 -0.5830
   19CHTO  H192 7729   4.809   7.983   1.635 -1.6151  2.0366 -0.3027
   19CHTO   O65 7730   4.879   7.889   1.473 -0.4932  0.5529  0.0157
   19CHTO  C100 7731   5.020   7.878   1.515  0.2992  0.2857 -1.0131
   19CHTO  H187 7732   5.013   7.864   1.624  0.9316  1.2374 -0.8536
   19CHTO  C107 7733   5.091   7.764   1.449 -0.3980 -0.3370  0.1672
   19CHTO   O70 7734   5.215   7.747   1.513  0.2821 -0.3205  0.5956
   19CHTO  H170 7735   5.262   7.675   1.475 -0.0047  0.1154 -0.6032
   19CHTO   O57 7736   4.652   8.010   1.481 -0.0933  0.3418  0.5503
   19CHTO   C85 7737   4.561   7.922   1.556  0.3560  0.1763  0.1204
   19CHTO  H157 7738   4.614   7.863   1.634  0.7283  0.4428  0.0668
   19CHTO   C83 7739   4.499   7.814   1.469 -0.0135 -0.4590  0.2188
   19CHTO  H155 7740   4.581   7.750   1.434 -1.8841 -0.6246 -4.1409
   19CHTO   O56 7741   4.444   7.875   1.354  0.6848  0.3095 -0.5409
   19CHTO  H135 7742   4.481   7.959   1.338 -0.0790  0.6204 -0.7075
   19CHTO   C81 7743   4.416   7.722   1.554  0.3136  0.3306 -0.4715
   19CHTO  H153 7744   4.478   7.671   1.627  1.8489 -0.2474 -2.1681
   19CHTO   N14 7745   4.359   7.606   1.478 -0.4413  0.5077 -1.1710
   19CHTO  H141 7746   4.299   7.535   1.532  0.8471 -0.0889 -0.4836
   19CHTO  H142 7747   4.296   7.649   1.403 -0.0617  0.7909 -1.3312
   19CHTO   C79 7748   4.301   7.806   1.631  0.3641 -0.4292  0.3293
   19CHTO  H151 7749   4.266   7.748   1.717 -2.1484  0.6097  0.0353
   19CHTO   O52 7750   4.358   7.922   1.706  0.4578  0.1508  0.6816
   19CHTO   C86 7751   4.444   8.007   1.617 -0.2205 -0.1063 -0.1781
   19CHTO  H158 7752   4.379   8.049   1.538 -1.6604 -2.4933 -0.3018
   19CHTO   C90 7753   4.485   8.135   1.703  0.3822  0.0572 -0.1214
   19CHTO   O60 7754   4.578   8.226   1.639  0.1641  0.8044 -0.5087
   19CHTO  H138 7755   4.576   8.307   1.686 -1.4513  0.9675 -0.8500
   19CHTO   O50 7756   4.189   7.835   1.546  0.0196  0.5644 -0.0876
   19CHTO   C73 7757   4.047   7.847   1.536  0.0222 -0.5811  0.3604
   19CHTO  H145 7758   3.994   7.751   1.551 -4.1008  1.7308  1.4908
   19CHTO   C74 7759   4.008   7.904   1.397  0.0257 -0.1825  0.5381
   19CHTO  H146 7760   4.044   7.832   1.323 -0.7744 -0.6265  0.5773
   19CHTO   O54 7761   3.864   7.897   1.398 -0.5920 -0.2692  0.3771
   19CHTO  H133 7762   3.824   7.936   1.323 -1.7292 -1.2148  0.4859
   19CHTO   C75 7763   4.062   8.050   1.374 -0.7314 -0.1567 -0.5798
   19CHTO  H147 7764   4.172   8.045   1.371 -0.6442  0.8024  0.6134
   19CHTO   N13 7765   4.018   8.118   1.245 -0.3961  0.1726  0.3212
   19CHTO  H139 7766   3.926   8.082   1.202 -0.7386  0.1357  1.0976
   19CHTO  H140 7767   4.000   8.224   1.256 -1.2128  0.4408 -3.0949
   19CHTO   C76 7768   4.029   8.141   1.498  0.0051  0.4151  0.5342
   19CHTO  H148 7769   3.925   8.175   1.492  0.2001  0.9130 -0.0899
   19CHTO   O49 7770   4.048   8.070   1.625  0.1981  0.1579 -0.2722
   19CHTO   C77 7771   3.986   7.944   1.642  0.4638 -0.0087  0.7863
   19CHTO  H149 7772   3.879   7.949   1.619  0.6593  1.1713  0.1375
   19CHTO   C88 7773   3.999   7.898   1.785 -0.2759  0.3134 -0.3009
   19CHTO   O58 7774   3.927   7.995   1.869 -0.5071 -0.2170 -0.5702
   19CHTO  H136 7775   3.872   7.943   1.925 -0.4850 -1.6697 -1.8608
   19CHTO   O51 7776   4.142   8.247   1.512 -0.1896  0.2471  0.2483
   19CHTO   C78 7777   4.096   8.378   1.570  0.0332  0.2355 -0.0990
   19CHTO  H150 7778   3.998   8.362   1.621 -0.5717 -1.5357 -1.7761
   19CHTO   C80 7779   4.078   8.487   1.470  0.4438 -0.6685 -0.0912
   19CHTO  H152 7780   4.168   8.493   1.406  0.2114  0.8704 -0.2914
   19CHTO   O55 7781   3.969   8.443   1.388  0.0610 -0.3946 -0.3695
   19CHTO  H134 7782   3.893   8.446   1.444 -0.4862 -1.0569 -1.0647
   19CHTO   C84 7783   4.050   8.635   1.524  0.3605  0.8240 -0.1428
   19CHTO  H156 7784   3.948   8.644   1.563  0.4090 -0.6431  0.3471
   19CHTO   N15 7785   4.054   8.738   1.416 -0.1483 -0.0485 -0.2258
   19CHTO  H143 7786   3.982   8.716   1.340  0.7589  1.2108 -1.4842
   19CHTO  H144 7787   4.147   8.754   1.365 -0.3618  3.4872  0.3043
   19CHTO   C87 7788   4.158   8.666   1.632  0.4465  0.6919 -0.3903
   19CHTO  H159 7789   4.260   8.661   1.591  1.3385  0.3575  1.8254
   19CHTO   O53 7790   4.154   8.565   1.731  0.3714 -0.2778  0.0790
   19CHTO   C82 7791   4.187   8.432   1.679 -0.2329  0.1909 -1.0582
   19CHTO  H154 7792   4.287   8.441   1.637 -0.0760 -3.6380 -1.6725
   19CHTO   C89 7793   4.189   8.332   1.798  0.6513  0.2248  0.1364
   19CHTO   O59 7794   4.068   8.332   1.872  0.3013 -0.2578  0.4482
   19CHTO  H137 7795   4.006   8.271   1.838 -0.6101  0.5639  0.6178
   19CHTO   O45 7796   4.144   8.817   1.720 -0.8633  0.3835  0.6555
   19CHTO   C67 7797   4.035   8.813   1.811 -0.7848 -0.2943 -0.2392
   19CHTO  H124 7798   3.957   8.744   1.778  1.6726 -2.2167 -2.2451
   19CHTO   C65 7799   4.084   8.773   1.955 -0.0226  1.0827  0.1088
   19CHTO  H122 7800   4.193   8.780   1.953  0.1195 -0.8861  0.4590
   19CHTO   O44 7801   4.048   8.635   1.981  0.2780 -0.1055 -0.8420
   19CHTO  H102 7802   4.120   8.591   2.021 -0.8785 -0.1301  1.2835
   19CHTO   C63 7803   4.044   8.876   2.066 -0.7354  0.2072  0.7025
   19CHTO  H120 7804   4.101   8.967   2.048 -0.4258  0.1014  1.1416
   19CHTO   N11 7805   4.084   8.835   2.206 -0.0199 -0.5030 -0.8445
   19CHTO  H108 7806   4.011   8.842   2.285  1.2231 -0.3069  0.3117
   19CHTO  H109 7807   4.174   8.882   2.239 -0.2454 -0.4489 -0.2958
   19CHTO   C61 7808   3.891   8.921   2.044  0.0671 -0.0693  0.6044
   19CHTO  H118 7809   3.865   8.995   2.121  0.2494  0.6755 -0.0512
   19CHTO   O40 7810   3.875   8.983   1.922  0.2189  0.5184  0.3996
   19CHTO   C68 7811   3.971   8.959   1.817 -0.5746  0.0565  0.0340
   19CHTO  H125 7812   4.063   9.021   1.823  0.0357 -0.6199 -1.8625
   19CHTO   C72 7813   3.911   8.986   1.670  0.1193 -1.0091  0.5473
   19CHTO   O48 7814   3.845   9.112   1.643 -0.2030  1.2126 -0.3811
   19CHTO  H105 7815   3.802   9.105   1.560 -0.0446  0.0139 -0.3618
   19CHTO   O38 7816   3.801   8.807   2.046  0.2058 -0.2683 -0.2053
   19CHTO   C55 7817   3.661   8.826   2.084  0.1990  0.0793 -0.5419
   19CHTO  H112 7818   3.637   8.933   2.068 -0.6190  0.0161  0.2597
   19CHTO   C56 7819   3.624   8.781   2.226  0.0059 -0.4594  0.0845
   19CHTO  H113 7820   3.665   8.679   2.237  1.5142 -0.1719 -2.5179
   19CHTO   O42 7821   3.700   8.862   2.316 -0.1191  0.3983 -0.4517
   19CHTO  H100 7822   3.769   8.829   2.371 -3.1503 -1.7631  2.2228
   19CHTO   C57 7823   3.470   8.794   2.257  0.9650  0.2316 -0.1165
   19CHTO  H114 7824   3.428   8.892   2.237 -1.1486 -0.5625  0.2109
   19CHTO   N10 7825   3.426   8.751   2.396  0.0805  0.5210  0.5004
   19CHTO  H106 7826   3.395   8.647   2.390 -0.2642  0.7174 -1.1073
   19CHTO  H107 7827   3.503   8.764   2.470  0.6894  0.9143 -0.2039
   19CHTO   C58 7828   3.406   8.706   2.152  0.0375  0.2517 -0.7722
   19CHTO  H115 7829   3.431   8.598   2.164 -2.2854 -0.2669 -0.2817
   19CHTO   O37 7830   3.427   8.758   2.016 -0.3649 -0.4420 -0.0190
   19CHTO   C59 7831   3.566   8.744   1.986 -0.8306  0.5815  0.0524
   19CHTO  H116 7832   3.595   8.639   1.977  3.5041  1.7059 -0.3900
   19CHTO   C70 7833   3.588   8.796   1.843 -0.2776 -0.2316 -0.6353
   19CHTO   O46 7834   3.707   8.744   1.786 -0.3501 -0.0716  0.6252
   19CHTO  H103 7835   3.692   8.732   1.694 -1.3436  1.5051  0.5672
   19CHTO   O39 7836   3.233   8.714   2.168  0.5045 -0.7916 -0.0660
   19CHTO   C60 7837   3.163   8.644   2.068  0.4617  0.0309  0.7669
   19CHTO  H117 7838   3.224   8.630   1.980 -0.0351  1.3445  0.1951
   19CHTO   C62 7839   3.118   8.512   2.125 -0.0193 -0.0924 -0.6503
   19CHTO  H119 7840   3.207   8.458   2.162  0.2671  1.0719  0.4083
   19CHTO   O43 7841   3.022   8.532   2.231  0.6508  0.0551  0.8142
   19CHTO  H101 7842   3.003   8.459   2.286  2.8636 -0.1555  1.3830
   19CHTO   C66 7843   3.053   8.427   1.999 -0.0127 -0.2820  0.0601
   19CHTO  H123 7844   3.126   8.405   1.921  0.3113  0.4665  0.1466
   19CHTO   N12 7845   3.009   8.292   2.035 -0.0973  0.1636  0.2911
   19CHTO  H110 7846   2.984   8.298   2.139  4.0398  0.6416  1.3559
   19CHTO  H111 7847   3.086   8.217   2.024 -0.8376 -0.4023 -1.1139
   19CHTO   C69 7848   2.933   8.506   1.940  0.2997 -0.5758  0.0366
   19CHTO  H126 7849   2.845   8.490   2.005  0.8651 -0.9364  0.7119
   19CHTO   O41 7850   2.966   8.662   1.923  0.1665 -0.3478  0.0963
   19CHTO   C64 7851   3.045   8.726   2.019  0.6521 -0.7537 -0.4048
   19CHTO  H121 7852   2.986   8.748   2.111  2.4657  0.5751  0.4605
   19CHTO   C71 7853   3.088   8.854   1.958 -0.9726  0.0474  0.4782
   19CHTO   O47 7854   2.973   8.935   1.939  0.3985  0.2575  0.0737
   19CHTO  H104 7855   2.906   8.885   1.896  0.0636 -0.7114  1.7012
   19CHTO   O34 7856   2.914   8.447   1.795 -0.7459 -0.1247 -0.2600
   19CHTO   C49 7857   2.952   8.434   1.660 -0.4599 -0.1012  0.7828
   19CHTO   H91 7858   2.888   8.355   1.622  0.3093 -1.0373  1.4159
   19CHTO   C47 7859   3.101   8.402   1.629  0.2033 -0.0194  0.2068
   19CHTO   H89 7860   3.103   8.369   1.523 -0.8202 -1.2479  0.5502
   19CHTO   O33 7861   3.130   8.289   1.714 -0.8406 -0.1664 -0.1566
   19CHTO   H70 7862   3.222   8.289   1.728 -0.9934  0.1792  0.8367
   19CHTO   C45 7863   3.199   8.525   1.672  0.2287 -1.2528  0.1051
   19CHTO   H87 7864   3.179   8.556   1.775 -0.9348  1.5297 -0.9120
   19CHTO    N8 7865   3.342   8.503   1.653 -0.2473  0.3895  1.0705
   19CHTO   H75 7866   3.353   8.449   1.560  0.0066  3.7053 -0.9178
   19CHTO   H76 7867   3.381   8.445   1.735  0.3404  1.0493  1.2646
   19CHTO   C43 7868   3.151   8.650   1.584  0.1034  0.7299 -0.2192
   19CHTO   H85 7869   3.206   8.738   1.615  0.0242  0.8800 -0.4962
   19CHTO   O29 7870   3.008   8.673   1.597  0.2028  0.8933  0.2819
   19CHTO   C50 7871   2.922   8.562   1.578  0.5554  0.4598  0.7816
   19CHTO   H92 7872   2.822   8.594   1.610  0.7568  1.3616  0.5304
   19CHTO   C54 7873   2.892   8.537   1.428  0.6274 -0.3265  1.1083
   19CHTO   O36 7874   2.798   8.635   1.371  0.5575  0.1931 -0.8027
   19CHTO   H72 7875   2.803   8.647   1.278 -0.8468 -1.9957 -1.2074
   19CHTO   O27 7876   3.184   8.639   1.448 -0.0260 -0.0504  0.1891
   19CHTO   C37 7877   3.243   8.714   1.337  0.2503 -0.2969 -0.2242
   19CHTO   H79 7878   3.163   8.755   1.273  0.6688  1.3226  0.2723
   19CHTO   C38 7879   3.334   8.822   1.384 -0.4527  0.7673  0.3487
   19CHTO   H80 7880   3.405   8.784   1.459  1.3558  0.8126 -1.2953
   19CHTO   O31 7881   3.254   8.929   1.435  0.4236 -0.6148  0.6398
   19CHTO   H68 7882   3.301   8.971   1.505 -2.3842  2.7853  0.6251
   19CHTO   C39 7883   3.415   8.874   1.254  0.1137  1.3264  0.5103
   19CHTO   H81 7884   3.337   8.908   1.186 -0.1119  1.1780  0.6927
   19CHTO    N7 7885   3.514   8.985   1.281  0.0427 -0.0031  0.4560
   19CHTO   H73 7886   3.574   9.019   1.198  1.2048  0.8236  1.6252
   19CHTO   H74 7887   3.470   9.069   1.333 -0.0558 -2.0049  3.7323
   19CHTO   C40 7888   3.488   8.750   1.186 -0.5326 -0.0531  0.8391
   19CHTO   H82 7889   3.555   8.710   1.261  0.4754 -1.0605 -0.5702
   19CHTO   O26 7890   3.392   8.652   1.151 -0.6729  0.0529  0.1992
   19CHTO   C41 7891   3.324   8.605   1.265  0.0691  0.3990  0.8220
   19CHTO   H83 7892   3.398   8.565   1.335 -0.2869 -0.1307  0.8959
   19CHTO   C52 7893   3.230   8.485   1.225 -0.8642 -0.7149 -0.4232
   19CHTO   O35 7894   3.308   8.377   1.205 -0.4914  0.2410  0.1639
   19CHTO   H71 7895   3.287   8.302   1.257 -2.3820  1.0523  0.6248
   19CHTO   O28 7896   3.549   8.779   1.056  0.9502 -0.0495  0.1917
   19CHTO   C42 7897   3.692   8.763   1.020 -0.0148 -0.3179  0.0232
   19CHTO   H84 7898   3.753   8.779   1.110  1.0446 -0.4575 -0.6667
   19CHTO   C44 7899   3.739   8.864   0.917  0.3109 -0.1624 -0.0003
   19CHTO   H86 7900   3.676   8.852   0.829 -2.2183  0.0432  1.7267
   19CHTO   O32 7901   3.709   8.995   0.984  0.1565 -0.5213  0.1291
   19CHTO   H69 7902   3.712   9.066   0.922  2.1791 -1.7707 -1.2589
   19CHTO   C48 7903   3.886   8.845   0.877  0.1995 -0.5448  0.7351
   19CHTO   H90 7904   3.944   8.873   0.965 -1.1173  1.4108  0.9918
   19CHTO    N9 7905   3.924   8.954   0.775  0.3275  0.7759  0.1548
   19CHTO   H77 7906   3.941   8.897   0.685  1.0094  1.6046 -0.2418
   19CHTO   H78 7907   3.851   9.031   0.759 -1.8313 -1.0951  0.7938
   19CHTO   C51 7908   3.925   8.704   0.831 -0.3373  0.3680  1.1227
   19CHTO   H93 7909   3.870   8.687   0.739  0.4854 -0.4943  0.7703
   19CHTO   O30 7910   3.876   8.619   0.936  0.4311 -0.2758  0.2436
   19CHTO   C46 7911   3.725   8.614   0.978  0.0535 -0.7965  0.3090
   19CHTO   H88 7912   3.662   8.591   0.892 -3.0260  1.0392  1.9699
   19CHTO   C53 7913   3.700   8.511   1.089 -0.1510 -0.1120 -0.1529
   19CHTO   O72 7914   3.727   8.381   1.048 -0.2507  0.2500 -0.5275
   19CHTO  H199 7915   3.813   8.351   1.071  0.2953  1.2669 -1.2448
   19CHTO   O22 7916   4.066   8.685   0.836  0.3755  0.6108 -0.1423
   19CHTO   C31 7917   4.137   8.564   0.780  0.7940 -0.3096  0.1545
   19CHTO   H59 7918   4.058   8.488   0.759  1.6875 -1.1745 -0.1014
   19CHTO   C29 7919   4.208   8.586   0.645 -0.4585  0.0012  0.2603
   19CHTO   H57 7920   4.290   8.656   0.667  0.3498 -0.6187 -0.7356
   19CHTO   O21 7921   4.120   8.658   0.560 -0.0821  0.6843 -0.2894
   19CHTO   H37 7922   4.058   8.603   0.515  0.1713 -0.0777  0.2912
   19CHTO   C27 7923   4.268   8.454   0.593 -0.2580  0.2616 -0.4159
   19CHTO   H55 7924   4.189   8.377   0.592  0.2054 -0.2393  0.5190
   19CHTO    N5 7925   4.315   8.472   0.455  0.3292 -1.0098 -0.4677
   19CHTO   H43 7926   4.229   8.499   0.396 -0.5371 -1.4447  0.5739
   19CHTO   H44 7927   4.403   8.534   0.448 -0.6409  0.5360  0.5583
   19CHTO   C25 7928   4.372   8.405   0.698  0.4656  0.6820  0.1723
   19CHTO   H53 7929   4.445   8.485   0.715  0.0607  1.2290 -0.6542
   19CHTO   O17 7930   4.297   8.379   0.826 -0.4875 -0.3277  0.1193
   19CHTO   C32 7931   4.234   8.493   0.883 -0.0803 -0.6000  0.2408
   19CHTO   H60 7932   4.308   8.565   0.918 -0.8326 -0.2470  1.1365
   19CHTO   C36 7933   4.163   8.449   1.018 -0.5760 -0.1353 -0.2245
   19CHTO   O25 7934   4.256   8.411   1.119  0.7274 -0.1470 -0.0235
   19CHTO   H40 7935   4.311   8.338   1.096  1.2562 -0.0947  1.0409
   19CHTO   O15 7936   4.425   8.276   0.649  0.2320  0.5294  0.0633
   19CHTO   C19 7937   4.525   8.209   0.561  0.7982  0.8688 -0.4742
   19CHTO   H47 7938   4.502   8.261   0.466  1.0845  0.6141 -0.6827
   19CHTO   C20 7939   4.669   8.218   0.615  0.6154  1.2072  0.5962
   19CHTO   H48 7940   4.680   8.168   0.712  1.4772  0.1968 -0.0120
   19CHTO   O19 7941   4.700   8.356   0.612  0.5473  0.6009 -0.7630
   19CHTO   H35 7942   4.781   8.374   0.656  0.4345 -0.7497  0.0449
   19CHTO   C21 7943   4.772   8.151   0.511  0.2693 -0.0958  0.1252
   19CHTO   H49 7944   4.766   8.209   0.419 -1.6887 -0.0981  0.2260
   19CHTO    N4 7945   4.914   8.169   0.548  0.5563 -0.2842  0.5587
   19CHTO   H41 7946   4.940   8.104   0.631 -1.9075 -3.0805 -0.7641
   19CHTO   H42 7947   4.923   8.273   0.577 -0.0195  0.3390 -1.4378
   19CHTO   C22 7948   4.722   8.004   0.484 -0.0094  0.1880  0.2711
   19CHTO   H50 7949   4.742   7.943   0.572  2.6528  2.5790  1.4012
   19CHTO   O14 7950   4.585   8.006   0.449  1.0357  0.2826 -0.3825
   19CHTO   C23 7951   4.491   8.061   0.541  0.5410  0.1051 -1.0404
   19CHTO   H51 7952   4.504   8.004   0.634  1.2888  0.3639 -0.9846
   19CHTO   C34 7953   4.349   8.037   0.478  0.2242  0.2310  0.4349
   19CHTO   O23 7954   4.248   8.070   0.568 -0.1827  0.1117 -0.8492
   19CHTO   H38 7955   4.231   8.161   0.559 -1.2554  0.1958  1.7655
   19CHTO   O16 7956   4.796   7.952   0.370 -0.6993  0.5253  0.0964
   19CHTO   C24 7957   4.816   7.790   0.339  0.1206 -0.3104  0.3512
   19CHTO   H52 7958   4.889   7.742   0.405 -0.3057 -2.5209 -0.7373
   19CHTO   C26 7959   4.870   7.782   0.193 -0.0475  0.3743 -0.1273
   19CHTO   H54 7960   4.804   7.846   0.131  0.0713 -0.3935 -1.0703
   19CHTO   O20 7961   5.006   7.824   0.181 -0.0951  0.2758  0.1030
   19CHTO   H36 7962   5.015   7.888   0.113 -1.3581  0.6361  0.2729
   19CHTO   C30 7963   4.851   7.634   0.132 -0.7085 -0.8618 -0.3781
   19CHTO   H58 7964   4.917   7.562   0.182 -0.2527 -0.2079 -0.0326
   19CHTO    N6 7965   4.892   7.630  -0.016 -0.2795  0.1821 -0.1895
   19CHTO   H45 7966   4.868   7.535  -0.061  0.3283 -0.0759  0.0285
   19CHTO   H46 7967   4.834   7.706  -0.067  1.7538  1.3546 -0.7923
   19CHTO   C33 7968   4.704   7.576   0.151  0.3558  0.1914 -0.4626
   19CHTO   H61 7969   4.629   7.641   0.102 -1.6531 -0.9828  0.9852
   19CHTO   O18 7970   4.680   7.586   0.294  0.1449 -0.1537 -0.1936
   19CHTO   C28 7971   4.676   7.718   0.353 -0.0642 -0.4698 -0.0574
   19CHTO   H56 7972   4.605   7.785   0.304  0.6109 -0.3907 -0.9525
   19CHTO   C35 7973   4.637   7.684   0.502 -0.1725 -0.0216  0.5053
   19CHTO   O24 7974   4.501   7.652   0.525  0.1716  0.0443 -0.7446
   19CHTO   H39 7975   4.442   7.680   0.458 -1.3931 -3.0680 -0.7794
   19CHTO    O9 7976   4.684   7.441   0.105  0.5765  0.0791 -0.0051
   19CHTO   C13 7977   4.537   7.372   0.124 -0.3441  0.3459 -0.5603
   19CHTO   H26 7978   4.458   7.447   0.100  0.0087  0.7985 -0.2965
   19CHTO   C11 7979   4.525   7.326   0.277 -0.3529  0.1299 -0.3986
   19CHTO   H24 7980   4.529   7.413   0.343  4.5013 -0.1572 -0.1142
   19CHTO    O8 7981   4.642   7.252   0.312 -0.0328  0.5313  0.2454
   19CHTO    H3 7982   4.725   7.297   0.312  0.4718 -0.2973  2.2971
   19CHTO    C9 7983   4.389   7.257   0.286 -0.4210 -0.0364 -0.2511
   19CHTO   H22 7984   4.317   7.333   0.252 -0.3777 -0.0532 -0.3794
   19CHTO    N2 7985   4.339   7.232   0.425 -0.3903 -0.0062  0.0268
   19CHTO   H10 7986   4.350   7.127   0.446 -2.6978 -0.8308 -2.6196
   19CHTO   H11 7987   4.238   7.266   0.442  0.2270  1.4921  0.8257
   19CHTO    C7 7988   4.390   7.133   0.194  0.2427 -0.5346 -0.1574
   19CHTO   H20 7989   4.287   7.093   0.208  0.5036 -1.0475  0.3073
   19CHTO    O4 7990   4.415   7.161   0.058 -0.3877 -0.4699 -0.4077
   19CHTO   C14 7991   4.514   7.261   0.022 -0.2847  0.6986 -0.1582
   19CHTO   H27 7992   4.489   7.311  -0.074  0.5598 -1.6598 -1.6464
   19CHTO   C18 7993   4.650   7.178  -0.005 -0.4885 -0.1289  0.1582
   19CHTO   O13 7994   4.745   7.250  -0.085 -0.3261 -0.3795 -0.1902
   19CHTO    H7 7995   4.751   7.186  -0.153  2.1696 -1.0965  0.6442
   19CHTO    O2 7996   4.483   7.011   0.247 -0.3380 -0.6610  0.1051
   19CHTO    C1 7997   4.460   6.871   0.213  0.5719 -0.3301  0.6266
   19CHTO   H14 7998   4.462   6.859   0.103  0.5614 -1.4294  0.7366
   19CHTO    C2 7999   4.320   6.812   0.269 -0.7473  0.2186  0.3268
   19CHTO   H15 8000   4.311   6.850   0.372  0.1387 -0.0877  0.5229
   19CHTO    O6 8001   4.209   6.865   0.195  0.1870  0.2259  0.1767
   19CHTO    H1 8002   4.144   6.906   0.250  0.6248 -1.2212  1.8293
   19CHTO    C3 8003   4.322   6.648   0.276  1.0099  0.3667  0.1939
   19CHTO   H16 8004   4.327   6.609   0.173 -1.3979  0.8363 -0.1337
   19CHTO    N1 8005   4.190   6.608   0.336 -0.0789  0.2221 -0.1009
   19CHTO    H8 8006   4.102   6.635   0.280 -2.5905 -1.6079  2.7793
   19CHTO    H9 8007   4.190   6.624   0.443 -0.5415 -0.8691  0.0652
   19CHTO    C4 8008   4.452   6.604   0.348 -0.2486 -0.0647  0.1670
   19CHTO   H17 8009   4.459   6.649   0.446 -2.0015 -1.9651  1.1992
   19CHTO    O1 8010   4.555   6.643   0.263  0.1758  0.7781 -0.1014
   19CHTO    C5 8011   4.577   6.786   0.268  0.2721 -0.4438 -0.5853
   19CHTO   H18 8012   4.590   6.816   0.372  0.2482 -2.4200  0.0019
   19CHTO   C16 8013   4.703   6.824   0.182 -0.1894  0.1841 -0.5163
   19CHTO   O11 8014   4.807   6.778   0.268 -0.4789 -0.1974  0.0896
   19CHTO    H5 8015   4.890   6.816   0.242 -0.9549  1.9053  1.5137
   19CHTO    O3 8016   4.462   6.467   0.368  0.1013  0.3116 -0.3512
   19CHTO    C6 8017   4.514   6.419   0.501  0.7500 -0.5487  0.0634
   19CHTO   H19 8018   4.524   6.497   0.576  0.1370  0.2433 -0.6631
   19CHTO    C8 8019   4.414   6.323   0.565  0.2869  0.0414  0.2728
   19CHTO   H21 8020   4.374   6.264   0.482  1.4819  0.9214 -0.9499
   19CHTO    O7 8021   4.308   6.408   0.611  0.3285 -0.1781  0.5536
   19CHTO    H2 8022   4.296   6.396   0.704  1.5306  0.5066  0.8110
   19CHTO   C12 8023   4.466   6.236   0.687  0.2816  0.1616  0.2190
   19CHTO   H25 8024   4.481   6.308   0.770 -2.4506  0.0104  0.8947
   19CHTO    N3 8025   4.374   6.138   0.747 -0.2088  0.0467 -0.1421
   19CHTO   H12 8026   4.330   6.078   0.668 -1.1172  0.0888  0.3327
   19CHTO   H13 8027   4.405   6.084   0.835 -1.1147  2.7413  1.8582
   19CHTO   C15 8028   4.612   6.171   0.653  0.1643 -0.3280  0.3756
   19CHTO   H28 8029   4.604   6.086   0.585  2.9300 -1.9988  2.0162
   19CHTO   O10 8030   4.696   6.132   0.782  0.3451 -0.4127  0.0310
   19CHTO    H4 8031   4.741   6.052   0.765  0.8201  0.0376 -0.8678
   19CHTO    O5 8032   4.696   6.278   0.605 -0.4690 -0.0621 -0.0096
   19CHTO   C10 8033   4.656   6.352   0.487 -0.0255 -0.4203 -0.1344
   19CHTO   H23 8034   4.664   6.275   0.411  2.2944  0.0594 -0.4046
   19CHTO   C17 8035   4.763   6.457   0.455 -0.5143  0.3071  0.2392
   19CHTO   O12 8036   4.762   6.571   0.538 -0.5580  0.2540  0.4372
   19CHTO    H6 8037   4.834   6.557   0.596 -0.3927  0.2565  0.2321
   20CHTO  H203 8038   4.597   1.640   2.231  0.9069  1.4954 -0.7799
   20CHTO   O82 8039   4.664   1.611   2.172  0.6093 -0.3055 -0.2840
   20CHTO  C123 8040   4.672   1.712   2.067  0.7586  0.2760 -0.1903
   20CHTO  H227 8041   4.588   1.782   2.082 -0.2695 -1.1727  1.0682
   20CHTO   O77 8042   4.802   1.776   2.092 -0.1556 -0.3501  0.0575
   20CHTO  C118 8043   4.837   1.885   2.005  0.3898 -0.4417 -0.1959
   20CHTO  H222 8044   4.762   1.965   2.007  1.0609  0.1364  1.8503
   20CHTO  C125 8045   4.966   1.942   2.064  0.1136 -0.3415 -0.2987
   20CHTO   O84 8046   4.950   1.989   2.199 -0.2687 -0.8470  0.6566
   20CHTO  H205 8047   5.032   2.013   2.236 -1.2580  1.7456  1.2553
   20CHTO  C114 8048   4.849   1.834   1.858 -0.2734  0.2941 -0.1974
   20CHTO  H218 8049   4.942   1.778   1.846 -1.2999 -1.1124 -1.8070
   20CHTO  C116 8050   4.734   1.744   1.815  0.0786 -0.1180 -0.6095
   20CHTO  H220 8051   4.650   1.804   1.774 -1.8708 -0.1650  3.1540
   20CHTO   O79 8052   4.777   1.662   1.704 -0.3876  0.2679  0.3357
   20CHTO  H201 8053   4.713   1.647   1.637  0.4914  2.3328 -0.9874
   20CHTO  C120 8054   4.676   1.649   1.926 -0.8485 -0.3092 -0.3221
   20CHTO  H224 8055   4.742   1.559   1.933  0.7761  0.6720 -2.4086
   20CHTO   N21 8056   4.542   1.594   1.887 -0.4869 -0.2947 -0.0543
   20CHTO  H211 8057   4.456   1.648   1.925  0.4947  0.4960  1.0925
   20CHTO  H212 8058   4.528   1.488   1.901 -0.5327 -0.4899 -1.4976
   20CHTO   O75 8059   4.866   1.956   1.784 -0.2849  0.0062  0.0550
   20CHTO  C112 8060   5.009   1.941   1.678 -0.4966 -0.4849 -0.0402
   20CHTO  H216 8061   5.030   1.833   1.681 -1.2439 -0.5950  1.9462
   20CHTO   O73 8062   5.116   2.021   1.738  0.0316  0.0490 -0.3826
   20CHTO  C113 8063   5.238   2.037   1.667 -0.4351 -0.0697 -0.0992
   20CHTO  H217 8064   5.280   1.938   1.638  0.6041  0.6136 -0.9363
   20CHTO  C124 8065   5.352   2.111   1.746  0.8284  0.2730 -0.1442
   20CHTO   O83 8066   5.406   2.030   1.848 -0.7164  0.0812 -1.1883
   20CHTO  H204 8067   5.347   1.979   1.899  1.3040  1.0591  2.3392
   20CHTO  C109 8068   5.221   2.099   1.524 -0.1487 -1.5357 -0.1903
   20CHTO  H213 8069   5.191   2.204   1.537  0.3281 -1.3992 -0.1512
   20CHTO  C110 8070   5.113   2.009   1.457 -0.4662 -0.2834  0.3485
   20CHTO  H214 8071   5.156   1.909   1.450  0.9978  0.4057 -0.7968
   20CHTO   O78 8072   5.091   2.048   1.319  0.0803  0.3202  0.3895
   20CHTO  H200 8073   5.065   2.136   1.301 -0.9222 -0.2593 -1.0887
   20CHTO  C111 8074   4.978   2.001   1.534 -0.1743  0.8353 -0.3673
   20CHTO  H215 8075   4.935   2.101   1.548 -1.3522  0.0462  1.8714
   20CHTO   N19 8076   4.870   1.919   1.465 -0.0365 -1.0985 -0.2411
   20CHTO  H207 8077   4.893   1.815   1.453 -2.6644 -1.6628 -0.5908
   20CHTO  H208 8078   4.791   1.924   1.539 -0.4978 -0.7782 -0.7448
   20CHTO   O74 8079   5.346   2.101   1.447  0.6387  0.5645  0.2986
   20CHTO  C115 8080   5.426   2.238   1.439 -0.2122 -0.8993  1.2660
   20CHTO  H219 8081   5.399   2.304   1.521 -1.9810  0.2283 -0.1992
   20CHTO   O76 8082   5.567   2.213   1.456  0.1615  0.2325 -0.2806
   20CHTO  C122 8083   5.626   2.117   1.361 -0.0280 -0.3433  0.2079
   20CHTO  H226 8084   5.592   2.020   1.397  0.8389 -0.9034 -0.4664
   20CHTO  C126 8085   5.784   2.132   1.388  0.0024  0.6597  0.1445
   20CHTO   O85 8086   5.803   2.120   1.525  0.2591 -0.1969  0.0136
   20CHTO  H206 8087   5.873   2.061   1.545  1.5369  0.8314 -1.4114
   20CHTO  C121 8088   5.583   2.139   1.210  0.2576  0.3068  0.3680
   20CHTO  H225 8089   5.686   2.139   1.169 -0.2116 -0.6479 -0.8621
   20CHTO   O81 8090   5.508   2.025   1.159  0.2448  0.2786  0.2921
   20CHTO  H202 8091   5.557   1.952   1.190  0.0976 -0.6494 -1.6070
   20CHTO  C119 8092   5.506   2.275   1.190  0.1397 -0.4131 -0.2455
   20CHTO  H223 8093   5.574   2.358   1.212 -0.7181  0.4927 -0.9419
   20CHTO  C117 8094   5.386   2.299   1.294  0.2291  0.2474 -0.4102
   20CHTO  H221 8095   5.295   2.251   1.258  1.9598 -0.5139 -3.9047
   20CHTO   N20 8096   5.353   2.448   1.302  0.1276 -0.0212  0.0566
   20CHTO  H209 8097   5.450   2.496   1.302 -0.2431  0.7297 -0.2029
   20CHTO  H210 8098   5.318   2.453   1.403 -2.0597 -3.3605 -0.4482
   20CHTO   O80 8099   5.461   2.313   1.039 -0.2697 -0.0770  0.3392
   20CHTO  C103 8100   5.562   2.343   0.919 -0.6579  0.0387  0.2030
   20CHTO  H190 8101   5.662   2.372   0.950 -0.2695  0.0470 -0.9990
   20CHTO  C101 8102   5.581   2.224   0.814 -0.3967  0.0654 -0.4141
   20CHTO  H188 8103   5.490   2.170   0.787  0.1165 -0.3711 -1.2991
   20CHTO   O68 8104   5.664   2.121   0.884 -0.0105  0.2515 -0.1685
   20CHTO  H168 8105   5.614   2.061   0.935 -1.9600  1.2886 -0.8038
   20CHTO   C99 8106   5.657   2.277   0.674 -0.1461  0.7354 -0.2715
   20CHTO  H186 8107   5.760   2.307   0.702 -0.4537  0.4170  1.2635
   20CHTO   N17 8108   5.685   2.174   0.579 -0.0955  0.4455 -0.1734
   20CHTO  H174 8109   5.699   2.225   0.485  4.3475  0.0758  0.1484
   20CHTO  H175 8110   5.779   2.125   0.599 -0.3934 -0.2569 -0.4771
   20CHTO   C97 8111   5.584   2.403   0.616 -0.7203  0.4468 -0.0768
   20CHTO  H184 8112   5.487   2.369   0.576 -0.4907  2.6239 -2.6061
   20CHTO   O64 8113   5.578   2.500   0.723 -0.3685  0.0592  0.4195
   20CHTO  C104 8114   5.503   2.460   0.842  0.1433  0.0583 -1.1516
   20CHTO  H191 8115   5.404   2.432   0.805  0.4505 -1.3804 -0.8844
   20CHTO  C108 8116   5.485   2.574   0.940 -0.4843  0.0802 -0.1268
   20CHTO   O71 8117   5.610   2.624   0.997  0.3417 -0.4431 -0.5956
   20CHTO  H171 8118   5.603   2.715   1.017  1.5425 -0.5933  0.5879
   20CHTO   O62 8119   5.654   2.482   0.516 -0.4150 -0.0076  0.4079
   20CHTO   C91 8120   5.600   2.603   0.466 -0.5793  0.5480 -0.0121
   20CHTO  H178 8121   5.619   2.672   0.548  0.7558 -1.2671  1.2328
   20CHTO   C92 8122   5.447   2.611   0.444 -0.0614  0.1292  0.0277
   20CHTO  H179 8123   5.414   2.527   0.382 -0.7612 -0.9472  1.8178
   20CHTO   O66 8124   5.381   2.596   0.573  0.6679 -0.7246  0.5008
   20CHTO  H166 8125   5.356   2.677   0.614 -4.1304 -1.4643 -0.7001
   20CHTO   C93 8126   5.408   2.755   0.390 -0.1359  0.0994  0.4225
   20CHTO  H180 8127   5.427   2.829   0.469 -2.9951 -0.9869  2.2048
   20CHTO   N16 8128   5.261   2.779   0.363 -0.1452 -0.0038  0.0894
   20CHTO  H172 8129   5.209   2.700   0.416 -0.5462  1.0678  1.3227
   20CHTO  H173 8130   5.224   2.874   0.398 -0.6948 -0.4090  0.6227
   20CHTO   C94 8131   5.496   2.803   0.265 -0.4793 -0.2432 -0.8389
   20CHTO  H181 8132   5.469   2.749   0.175 -3.8413  0.0550 -0.0909
   20CHTO   O61 8133   5.632   2.775   0.288 -0.2490 -0.1322 -0.2896
   20CHTO   C95 8134   5.667   2.644   0.328  0.8009 -0.2255  0.0942
   20CHTO  H182 8135   5.640   2.574   0.249 -0.9579  1.8660 -1.2359
   20CHTO  C106 8136   5.824   2.627   0.329  0.6365  0.3688  0.1048
   20CHTO   O69 8137   5.855   2.492   0.342 -0.0983  0.3413 -0.2622
   20CHTO  H169 8138   5.900   2.478   0.423 -0.2924 -2.2021 -0.5299
   20CHTO   O63 8139   5.496   2.964   0.254  0.5407 -0.3540 -0.3371
   20CHTO   C96 8140   5.452   3.029   0.116 -0.5150  0.3354  0.1898
   20CHTO  H183 8141   5.366   2.978   0.072  0.2096 -0.0128 -0.8332
   20CHTO   C98 8142   5.568   3.041   0.013  0.6865  0.2301  0.5488
   20CHTO  H185 8143   5.662   3.065   0.066  1.1961 -1.7536  0.5790
   20CHTO   O67 8144   5.592   2.914  -0.042 -0.1205  0.2148 -0.9115
   20CHTO  H167 8145   5.586   2.846   0.022 -0.0526  0.7657 -0.3048
   20CHTO  C102 8146   5.547   3.144  -0.101 -0.5688 -0.9626 -0.2516
   20CHTO  H189 8147   5.469   3.101  -0.165 -0.4209 -2.4296  0.5520
   20CHTO   N18 8148   5.672   3.167  -0.182  0.1927  0.9929 -0.1029
   20CHTO  H176 8149   5.760   3.200  -0.129  1.7495 -2.7754 -0.1441
   20CHTO  H177 8150   5.692   3.078  -0.240  1.4029  1.5407 -0.5544
   20CHTO  C105 8151   5.493   3.276  -0.038  0.1811 -0.5963 -0.5989
   20CHTO  H192 8152   5.577   3.329   0.007 -0.7148  0.8488 -0.6096
   20CHTO   O65 8153   5.385   3.256   0.053  1.0077 -0.0817  1.0369
   20CHTO  C100 8154   5.404   3.168   0.168 -0.4859  0.3940  0.0389
   20CHTO  H187 8155   5.478   3.214   0.235 -1.2011  1.2088  0.2783
   20CHTO  C107 8156   5.270   3.166   0.245  0.6640  0.1071 -0.0771
   20CHTO   O70 8157   5.260   3.101   0.376  0.1572 -0.6268  0.1996
   20CHTO  H170 8158   5.177   3.113   0.417  0.0851  0.6827 -0.3183
   20CHTO   O57 8159   5.444   3.360  -0.171  0.1852 -0.7184  0.1462
   20CHTO   C85 8160   5.431   3.500  -0.160 -0.0451  0.4702  0.6067
   20CHTO  H157 8161   5.469   3.526  -0.059  0.0328 -0.6282  0.8681
   20CHTO   C83 8162   5.277   3.529  -0.167 -0.7215  0.1685 -0.4393
   20CHTO  H155 8163   5.226   3.493  -0.078 -0.3328 -0.5234 -0.4950
   20CHTO   O56 8164   5.212   3.470  -0.278 -0.0750  0.4384  0.4471
   20CHTO  H135 8165   5.209   3.527  -0.352  1.1430 -0.2480 -0.1473
   20CHTO   C81 8166   5.258   3.687  -0.170 -0.0936  0.7748  0.2322
   20CHTO  H153 8167   5.298   3.732  -0.079 -1.4380  0.8378  0.8012
   20CHTO   N14 8168   5.119   3.737  -0.161 -0.3539  0.1771  0.4050
   20CHTO  H141 8169   5.074   3.714  -0.256 -1.9486 -0.7077  1.3513
   20CHTO  H142 8170   5.056   3.700  -0.083  1.1143  0.9935  2.0070
   20CHTO   C79 8171   5.336   3.749  -0.292 -0.0333  0.8177  0.6768
   20CHTO  H151 8172   5.323   3.857  -0.279 -2.2464  0.7775 -1.0858
   20CHTO   O52 8173   5.487   3.725  -0.279  0.3212  0.3135 -0.7811
   20CHTO   C86 8174   5.508   3.580  -0.269 -0.2340 -0.0679 -0.2225
   20CHTO  H158 8175   5.489   3.547  -0.374  1.4672 -0.9211 -0.2757
   20CHTO   C90 8176   5.656   3.559  -0.251 -0.3089 -0.4734 -0.2239
   20CHTO   O60 8177   5.748   3.610  -0.353 -0.8212  0.4064  0.4350
   20CHTO  H138 8178   5.703   3.679  -0.397 -1.5268  0.4029  1.1485
   20CHTO   O50 8179   5.290   3.708  -0.426  0.3975  0.2659  0.2421
   20CHTO   C73 8180   5.335   3.736  -0.556  0.4209  0.1863  0.3785
   20CHTO  H145 8181   5.435   3.693  -0.571 -0.6901 -2.1506 -0.5766
   20CHTO   C74 8182   5.328   3.888  -0.577  0.6307  0.0318 -1.0062
   20CHTO  H146 8183   5.385   3.921  -0.489 -2.1573 -2.6022  1.9131
   20CHTO   O54 8184   5.416   3.911  -0.694 -0.1526 -0.0106  0.3443
   20CHTO  H133 8185   5.425   4.002  -0.714  0.6569 -0.4213 -1.2306
   20CHTO   C75 8186   5.187   3.952  -0.587  0.0933  0.0996 -0.0966
   20CHTO  H147 8187   5.148   3.964  -0.484  0.3471 -0.6473  0.0848
   20CHTO   N13 8188   5.185   4.090  -0.645 -0.1744 -0.2500 -0.0880
   20CHTO  H139 8189   5.222   4.082  -0.746 -0.7167  0.3413 -0.3346
   20CHTO  H140 8190   5.085   4.132  -0.648 -0.9670 -1.7504  3.0068
   20CHTO   C76 8191   5.086   3.857  -0.669 -0.5430 -0.2440 -0.5276
   20CHTO  H148 8192   5.096   3.864  -0.777 -1.2349  2.8750 -0.4234
   20CHTO   O49 8193   5.103   3.709  -0.638  0.1003  0.1728 -0.8588
   20CHTO   C77 8194   5.235   3.666  -0.654 -0.6227 -0.0329  0.3008
   20CHTO  H149 8195   5.275   3.671  -0.755  1.4526 -0.6144  1.0621
   20CHTO   C88 8196   5.233   3.513  -0.628 -0.1837 -0.0322 -0.2332
   20CHTO   O58 8197   5.177   3.439  -0.720 -0.2461  0.3024  0.1713
   20CHTO  H136 8198   5.220   3.450  -0.803 -0.8425  3.0985  0.1695
   20CHTO   O51 8199   4.939   3.893  -0.625 -0.0839 -0.2543 -0.2443
   20CHTO   C78 8200   4.896   3.842  -0.491 -0.2435 -0.5127 -0.0849
   20CHTO  H150 8201   4.987   3.804  -0.440  1.3166 -0.2385 -2.5676
   20CHTO   C80 8202   4.798   3.723  -0.516  0.5597 -0.3141 -0.9401
   20CHTO  H152 8203   4.710   3.760  -0.572  0.8179  0.5734 -0.7659
   20CHTO   O55 8204   4.859   3.623  -0.594  0.1478  0.1534 -0.1584
   20CHTO  H134 8205   4.835   3.537  -0.566  1.0393  0.2362  0.9276
   20CHTO   C84 8206   4.736   3.668  -0.381  0.4276 -0.2848  0.1154
   20CHTO  H156 8207   4.812   3.616  -0.322 -0.4382 -0.5906  0.9863
   20CHTO   N15 8208   4.625   3.565  -0.388  0.9662 -0.3074 -0.0545
   20CHTO  H143 8209   4.657   3.471  -0.348  1.6328  0.4554  1.2555
   20CHTO  H144 8210   4.595   3.554  -0.490 -4.0906  0.3719  1.2044
   20CHTO   C87 8211   4.684   3.781  -0.287 -0.3444  0.0197 -0.4355
   20CHTO  H159 8212   4.592   3.831  -0.318  0.5235  2.9521  1.4725
   20CHTO   O53 8213   4.795   3.895  -0.274  0.8738 -0.2015  0.8455
   20CHTO   C82 8214   4.818   3.948  -0.407  0.4181  0.5074 -0.2654
   20CHTO  H154 8215   4.725   3.973  -0.458  0.4626 -2.6713 -2.0651
   20CHTO   C89 8216   4.903   4.078  -0.385 -0.4605  1.3884  0.3685
   20CHTO   O59 8217   4.824   4.175  -0.321  0.4236 -0.0847  0.1867
   20CHTO  H137 8218   4.807   4.160  -0.230  1.6663  0.2345  0.4851
   20CHTO   O45 8219   4.643   3.726  -0.128  0.1194 -0.0209  0.1140
   20CHTO   C67 8220   4.742   3.761  -0.025  0.3138  0.5976  0.2635
   20CHTO  H124 8221   4.842   3.743  -0.065 -0.1197 -1.6593  0.1084
   20CHTO   C65 8222   4.729   3.907   0.032 -0.3287  0.0360 -1.0084
   20CHTO  H122 8223   4.677   3.960  -0.047  0.7263 -0.4219 -2.0251
   20CHTO   O44 8224   4.856   3.975   0.040 -0.1161  0.4812  0.2672
   20CHTO  H102 8225   4.912   3.963  -0.034  2.2087  1.1269  1.8583
   20CHTO   C63 8226   4.639   3.905   0.161  0.5038 -0.6103  0.1510
   20CHTO  H120 8227   4.549   3.848   0.138  0.5982 -0.3081 -0.9668
   20CHTO   N11 8228   4.582   4.042   0.209  0.3616  0.6477  0.8741
   20CHTO  H108 8229   4.495   4.028   0.270  1.1881 -1.9171  1.5369
   20CHTO  H109 8230   4.533   4.078   0.121  0.4590  1.9902  1.3512
   20CHTO   C61 8231   4.718   3.826   0.272  0.5662 -0.4410  0.3613
   20CHTO  H118 8232   4.651   3.799   0.354  2.5649 -0.0150  2.1832
   20CHTO   O40 8233   4.775   3.697   0.216 -0.1570  0.0951  0.4583
   20CHTO   C68 8234   4.718   3.655   0.086 -0.1775 -0.3108  0.2764
   20CHTO  H125 8235   4.610   3.639   0.104 -0.3607  0.9108  0.3071
   20CHTO   C72 8236   4.778   3.516   0.040 -0.0696  0.3424 -0.4543
   20CHTO   O48 8237   4.721   3.462  -0.078  0.7766 -0.0807 -0.0774
   20CHTO  H105 8238   4.731   3.369  -0.079  1.8561  0.0420 -0.7430
   20CHTO   O38 8239   4.817   3.901   0.343  0.1446  0.6451 -0.8559
   20CHTO   C55 8240   4.889   3.830   0.446 -0.2756 -0.3655 -0.7873
   20CHTO  H112 8241   4.869   3.722   0.448  0.1943 -0.4752 -1.9879
   20CHTO   C56 8242   4.869   3.893   0.592  0.6150  0.1210 -0.1350
   20CHTO  H113 8243   4.880   4.001   0.577 -3.5863  0.9778  2.0316
   20CHTO   O42 8244   4.730   3.885   0.629  0.2693  0.7275 -0.2067
   20CHTO  H100 8245   4.727   3.923   0.715 -0.3630  1.6821 -0.6408
   20CHTO   C57 8246   4.963   3.824   0.703  0.5111 -0.5896 -0.0598
   20CHTO  H114 8247   4.923   3.723   0.719 -1.4208  0.2260  0.4527
   20CHTO   N10 8248   4.960   3.892   0.835  0.1873 -0.4325 -0.1703
   20CHTO  H106 8249   4.994   3.819   0.907  1.5893  0.3457 -0.0146
   20CHTO  H107 8250   5.032   3.973   0.839 -0.3807  0.0410  0.4540
   20CHTO   C58 8251   5.105   3.819   0.646  0.8925 -0.0478 -0.0491
   20CHTO  H115 8252   5.148   3.921   0.636 -0.5198  0.4694 -1.0703
   20CHTO   O37 8253   5.108   3.761   0.513 -0.3632 -0.3563 -0.0415
   20CHTO   C59 8254   5.046   3.854   0.421 -0.4491 -0.1681  0.5611
   20CHTO  H116 8255   5.076   3.955   0.447  0.9955 -0.7581  1.2455
   20CHTO   C70 8256   5.092   3.835   0.278 -0.0798  0.0177 -0.2161
   20CHTO   O46 8257   5.092   3.706   0.229 -0.1819  0.0787 -0.2587
   20CHTO  H103 8258   5.118   3.701   0.139  0.4109  0.7772 -0.1308
   20CHTO   O39 8259   5.195   3.722   0.729 -0.1568 -0.4547 -0.3188
   20CHTO   C60 8260   5.163   3.592   0.784  0.2513 -0.7067 -1.0023
   20CHTO  H117 8261   5.088   3.616   0.859  1.5480 -2.8724  1.0419
   20CHTO   C62 8262   5.125   3.505   0.672  0.8294  0.2675 -0.0671
   20CHTO  H119 8263   5.039   3.545   0.614  1.2737  1.1021 -0.1576
   20CHTO   O43 8264   5.242   3.496   0.582 -0.2268  0.0822  0.1892
   20CHTO  H101 8265   5.251   3.561   0.515 -0.6779 -0.3476 -0.2888
   20CHTO   C66 8266   5.070   3.361   0.725 -0.8602 -0.2045 -0.7269
   20CHTO  H123 8267   4.986   3.377   0.792 -1.3793  1.8560 -1.8262
   20CHTO   N12 8268   5.022   3.269   0.621  0.4505  0.1476  0.0281
   20CHTO  H110 8269   5.039   3.304   0.520  0.6688  1.5875  0.5550
   20CHTO  H111 8270   5.048   3.166   0.639 -4.6121 -1.2449  0.1413
   20CHTO   C69 8271   5.179   3.292   0.810  0.0128 -0.5127  0.4667
   20CHTO  H126 8272   5.264   3.268   0.742 -1.2231 -0.6352 -1.0680
   20CHTO   O41 8273   5.225   3.386   0.919  0.1401 -1.0163  0.0451
   20CHTO   C64 8274   5.278   3.529   0.863 -0.6533 -0.1869 -0.0356
   20CHTO  H121 8275   5.370   3.513   0.803 -0.6169  0.4578 -0.1557
   20CHTO   C71 8276   5.322   3.616   0.986 -0.2440  0.2898 -0.0819
   20CHTO   O47 8277   5.214   3.650   1.077  0.3088 -0.0792 -0.3104
   20CHTO  H104 8278   5.254   3.680   1.156 -1.6848  0.7124  0.4433
   20CHTO   O34 8279   5.138   3.166   0.876 -0.3509 -0.6587  0.2519
   20CHTO   C49 8280   5.141   3.039   0.927 -0.9531 -0.3931  0.7513
   20CHTO   H91 8281   5.073   2.986   0.860  0.2028  1.3791 -1.8935
   20CHTO   C47 8282   5.079   3.034   1.071  0.2233  0.4946  0.0759
   20CHTO   H89 8283   4.970   3.044   1.051  0.2066  0.7234  0.2764
   20CHTO   O33 8284   5.124   3.142   1.151  0.2787 -0.5278 -0.1566
   20CHTO   H70 8285   5.072   3.215   1.123  0.4414 -0.7695 -1.0943
   20CHTO   C45 8286   5.113   2.890   1.144  0.1360  0.0582 -0.0725
   20CHTO   H87 8287   5.201   2.912   1.207 -0.5943 -2.6295  1.9995
   20CHTO    N8 8288   5.011   2.846   1.243 -0.4725 -0.7072  0.4085
   20CHTO   H75 8289   4.921   2.905   1.230  1.6216  3.2828  2.9811
   20CHTO   H76 8290   4.998   2.739   1.239 -1.5432 -0.5532 -0.7415
   20CHTO   C43 8291   5.169   2.781   1.033 -0.1130  0.0121  0.1368
   20CHTO   H85 8292   5.193   2.693   1.093 -0.9030 -0.3515 -0.0746
   20CHTO   O29 8293   5.289   2.832   0.971 -0.2106 -0.6614 -0.5374
   20CHTO   C50 8294   5.281   2.969   0.923  0.4921 -0.4348 -0.3349
   20CHTO   H92 8295   5.352   3.025   0.986 -1.5812  0.6779  1.0530
   20CHTO   C54 8296   5.341   2.974   0.781  0.3841 -0.0513 -0.4393
   20CHTO   O36 8297   5.479   2.939   0.780  0.8445 -0.6623  0.1432
   20CHTO   H72 8298   5.525   2.986   0.713  0.7616 -0.9940 -0.1430
   20CHTO   O27 8299   5.067   2.743   0.938  0.4445 -0.3253 -0.2183
   20CHTO   C37 8300   4.987   2.669   0.850  0.0648  0.5823  0.0158
   20CHTO   H79 8301   4.887   2.655   0.892 -0.1414  0.8561 -0.3849
   20CHTO   C38 8302   4.969   2.750   0.725 -0.5934 -0.4226  0.4306
   20CHTO   H80 8303   5.066   2.790   0.691  0.1673  0.2831  3.2702
   20CHTO   O31 8304   4.894   2.870   0.757 -0.5569  1.2764  0.0808
   20CHTO   H68 8305   4.808   2.868   0.720 -0.1402 -1.4713 -0.8427
   20CHTO   C39 8306   4.897   2.663   0.608 -0.3895  0.2358 -0.0052
   20CHTO   H81 8307   4.805   2.624   0.652 -0.2409  0.0489  0.1448
   20CHTO    N7 8308   4.880   2.743   0.478 -0.9035  0.3649 -0.3328
   20CHTO   H73 8309   4.979   2.739   0.436 -0.8906 -2.7936 -0.1482
   20CHTO   H74 8310   4.856   2.845   0.506 -0.0354  1.3886 -3.0891
   20CHTO   C40 8311   4.986   2.533   0.587  0.9326  0.6129  0.5366
   20CHTO   H82 8312   5.088   2.566   0.567  0.4825  0.1589 -2.7242
   20CHTO   O26 8313   4.978   2.464   0.712 -0.2237  0.0308  0.3159
   20CHTO   C41 8314   5.052   2.523   0.822  0.0438 -0.8300  0.4388
   20CHTO   H83 8315   5.158   2.540   0.797  0.0190 -0.9898  0.2220
   20CHTO   C52 8316   5.042   2.442   0.947 -0.5068  0.2693  0.3958
   20CHTO   O35 8317   5.105   2.305   0.915  0.1770 -0.0454  0.2512
   20CHTO   H71 8318   5.087   2.232   0.971 -0.6589 -0.6662 -0.8073
   20CHTO   O28 8319   4.936   2.453   0.474  0.6440 -0.3684 -0.0114
   20CHTO   C42 8320   5.026   2.356   0.409 -0.5119  0.0650 -0.8646
   20CHTO   H84 8321   4.949   2.291   0.366  0.5039 -1.3548 -0.5660
   20CHTO   C44 8322   5.119   2.268   0.491  0.1687  0.3134 -0.0014
   20CHTO   H86 8323   5.184   2.329   0.554 -0.6938 -1.4882  2.7026
   20CHTO   O32 8324   5.032   2.195   0.579  0.1772  0.2221  0.0161
   20CHTO   H69 8325   5.038   2.102   0.566  0.8968  0.2058  0.4486
   20CHTO   C48 8326   5.202   2.167   0.399  0.2592 -0.4078  0.3632
   20CHTO   H90 8327   5.139   2.096   0.346 -0.9888  1.6165 -0.9223
   20CHTO    N9 8328   5.293   2.082   0.490  0.4343  0.2766  0.7033
   20CHTO   H77 8329   5.387   2.130   0.513  1.2041  0.1015 -1.9203
   20CHTO   H78 8330   5.241   2.060   0.582 -0.5071  0.6669  0.2730
   20CHTO   C51 8331   5.279   2.241   0.286 -0.2009  0.4702  0.6542
   20CHTO   H93 8332   5.338   2.308   0.349  0.7924  0.0013  0.2437
   20CHTO   O30 8333   5.182   2.317   0.208  0.3733 -0.4489  0.0720
   20CHTO   C46 8334   5.089   2.426   0.282 -0.2653  0.7027 -0.4343
   20CHTO   H88 8335   5.150   2.513   0.307 -1.4804  1.7484 -1.0392
   20CHTO   C53 8336   4.970   2.465   0.195  0.9253  0.2852  0.1015
   20CHTO   O72 8337   5.020   2.564   0.111  0.0278 -0.0604 -0.2751
   20CHTO  H199 8338   4.958   2.605   0.054 -1.1783 -0.6885  0.5553
   20CHTO   O22 8339   5.356   2.161   0.192 -0.4032  0.1141  0.3028
   20CHTO   C31 8340   5.491   2.191   0.141  0.2373 -0.1329  0.0254
   20CHTO   H59 8341   5.496   2.143   0.041  2.0303  1.5739 -0.7265
   20CHTO   C29 8342   5.538   2.333   0.111 -0.1394  0.1869 -0.1366
   20CHTO   H57 8343   5.558   2.385   0.206  2.8960  2.2975 -1.8356
   20CHTO   O21 8344   5.439   2.400   0.040 -0.4683 -0.2273 -0.2972
   20CHTO   H37 8345   5.459   2.486   0.007 -1.1734 -0.3070 -0.9378
   20CHTO   C27 8346   5.676   2.331   0.037 -0.0531  0.1226 -0.1654
   20CHTO   H55 8347   5.664   2.265  -0.051 -0.0971 -2.0510  1.4416
   20CHTO    N5 8348   5.721   2.467  -0.012  0.0398  0.6214 -0.3925
   20CHTO   H43 8349   5.752   2.460  -0.115 -0.5350  4.3020 -0.8703
   20CHTO   H44 8350   5.784   2.504   0.068  0.9547 -3.1628  0.7477
   20CHTO   C25 8351   5.779   2.256   0.124 -0.1307  0.0197 -0.0660
   20CHTO   H53 8352   5.779   2.304   0.223  1.5554 -0.0714 -0.0105
   20CHTO   O17 8353   5.729   2.120   0.157 -0.4943 -0.3186  0.3876
   20CHTO   C32 8354   5.600   2.118   0.224 -0.4637  0.1781  0.8719
   20CHTO   H60 8355   5.597   2.156   0.326  0.1559  0.3278  0.8359
   20CHTO   C36 8356   5.569   1.969   0.247  0.4574 -0.0883 -0.4120
   20CHTO   O25 8357   5.686   1.930   0.316  0.6120 -0.0892  0.1157
   20CHTO   H40 8358   5.675   1.844   0.352 -0.5081  0.2424  0.5677
   20CHTO   O15 8359   5.916   2.235   0.085 -0.0117  0.2012 -0.6258
   20CHTO   C19 8360   6.030   2.273   0.009 -0.2775  0.3952 -0.5775
   20CHTO   H47 8361   5.988   2.340  -0.068 -0.0469  0.5972 -0.5263
   20CHTO   C20 8362   6.135   2.346   0.090 -0.6508  0.2637  0.0939
   20CHTO   H48 8363   6.170   2.293   0.179 -0.0424 -0.0993 -0.3582
   20CHTO   O19 8364   6.077   2.481   0.119 -0.5188 -0.4164  0.2631
   20CHTO   H35 8365   6.120   2.528   0.187 -1.5956  0.8836  0.0676
   20CHTO   C21 8366   6.272   2.367   0.024 -0.2175  0.8645 -0.3820
   20CHTO   H49 8367   6.256   2.441  -0.054  0.0744  1.8113  0.4504
   20CHTO    N4 8368   6.378   2.428   0.113 -0.0478 -0.0190 -0.2236
   20CHTO   H41 8369   6.479   2.420   0.075  0.5923 -1.1683  1.6229
   20CHTO   H42 8370   6.357   2.532   0.133 -0.0644  0.4212 -2.3939
   20CHTO   C22 8371   6.318   2.234  -0.049  0.3600 -0.3971  0.9240
   20CHTO   H50 8372   6.347   2.158   0.024  1.9283  0.8587  1.6410
   20CHTO   O14 8373   6.219   2.184  -0.139  0.4422  0.1206  0.1804
   20CHTO   C23 8374   6.095   2.155  -0.069  0.6078 -0.8725  0.5886
   20CHTO   H51 8375   6.124   2.072  -0.001  0.5182  0.4583  2.2924
   20CHTO   C34 8376   6.010   2.106  -0.185  1.2105  0.1018 -0.5837
   20CHTO   O23 8377   5.882   2.073  -0.137 -0.3004  0.1537  0.1166
   20CHTO   H38 8378   5.847   2.130  -0.072  1.8994  0.8423  0.7490
   20CHTO   O16 8379   6.435   2.259  -0.128  0.0450 -0.3522 -0.3513
   20CHTO   C24 8380   6.529   2.111  -0.151  0.4024  0.1030 -0.3011
   20CHTO   H52 8381   6.473   2.020  -0.129  0.2382  0.1582 -0.4901
   20CHTO   C26 8382   6.651   2.118  -0.058  0.2579 -0.2512 -0.5991
   20CHTO   H54 8383   6.711   2.208  -0.084 -0.5565  1.2752  2.6410
   20CHTO   O20 8384   6.620   2.130   0.073  0.0966  0.1848 -0.2766
   20CHTO   H36 8385   6.532   2.151   0.095 -0.0236 -1.3081  0.7382
   20CHTO   C30 8386   6.745   1.991  -0.078  0.8062  0.8870 -1.0068
   20CHTO   H58 8387   6.716   1.921   0.001 -0.5016  0.6015 -1.7395
   20CHTO    N6 8388   6.890   2.033  -0.067  0.2521 -0.1544 -0.1815
   20CHTO   H45 8389   6.899   2.123  -0.008  0.4199 -0.2267 -0.0980
   20CHTO   H46 8390   6.948   2.044  -0.157  0.8464 -2.0553 -0.0438
   20CHTO   C33 8391   6.710   1.919  -0.211  0.3090 -0.0279 -0.5172
   20CHTO   H61 8392   6.797   1.858  -0.238 -0.0819 -0.8027 -0.0370
   20CHTO   O18 8393   6.684   2.003  -0.322 -0.0313 -0.4464  0.1794
   20CHTO   C28 8394   6.588   2.109  -0.297  0.5462 -0.0577 -0.1980
   20CHTO   H56 8395   6.630   2.207  -0.318 -0.3513  0.8230  2.0644
   20CHTO   C35 8396   6.468   2.081  -0.380  0.2003 -0.5512  0.0744
   20CHTO   O24 8397   6.386   2.193  -0.413 -0.2506 -0.0263 -0.7742
   20CHTO   H39 8398   6.319   2.162  -0.472 -0.2486  2.8942 -2.3974
   20CHTO    O9 8399   6.606   1.826  -0.195  0.6189  0.1643  0.1338
   20CHTO   C13 8400   6.660   1.680  -0.130 -0.8680 -0.1378 -0.2310
   20CHTO   H26 8401   6.749   1.700  -0.068 -0.0760  0.7083 -1.6085
   20CHTO   C11 8402   6.690   1.579  -0.245  0.1738 -0.1056  0.3659
   20CHTO   H24 8403   6.776   1.621  -0.299 -0.7499  1.4143  0.0282
   20CHTO    O8 8404   6.582   1.587  -0.338  0.1871  0.1239 -0.1490
   20CHTO    H3 8405   6.573   1.666  -0.387  1.1934 -0.3624 -1.1353
   20CHTO    C9 8406   6.712   1.445  -0.168 -0.2904  0.1059  0.2436
   20CHTO   H22 8407   6.781   1.469  -0.085  2.3154  0.0820 -1.8565
   20CHTO    N2 8408   6.788   1.335  -0.248  0.7859 -0.3284 -0.0023
   20CHTO   H10 8409   6.813   1.372  -0.346  1.6577  0.4765  0.5249
   20CHTO   H11 8410   6.721   1.251  -0.255 -0.8255  0.7959  1.5762
   20CHTO    C7 8411   6.573   1.395  -0.112  0.4060 -0.8441 -0.1700
   20CHTO   H20 8412   6.592   1.343  -0.016 -1.7653 -1.0072  0.1891
   20CHTO    O4 8413   6.488   1.505  -0.066  0.0260 -0.0518 -0.0669
   20CHTO   C14 8414   6.552   1.628  -0.025  0.3223  0.1280 -0.7495
   20CHTO   H27 8415   6.594   1.602   0.074  0.2573  0.1979 -0.7037
   20CHTO   C18 8416   6.446   1.741   0.003 -0.2340 -0.0232 -0.3755
   20CHTO   O13 8417   6.380   1.723   0.131  0.1512 -0.4017  0.4310
   20CHTO    H7 8418   6.333   1.643   0.123 -1.6128  0.8453 -3.2904
   20CHTO    O2 8419   6.493   1.294  -0.201  0.0783  0.0118  0.0140
   20CHTO    C1 8420   6.406   1.205  -0.129 -0.4340  0.2056 -0.2203
   20CHTO   H14 8421   6.405   1.225  -0.020 -0.8385 -0.4517 -0.0997
   20CHTO    C2 8422   6.443   1.058  -0.152  0.0690 -0.5230  0.1602
   20CHTO   H15 8423   6.421   1.044  -0.259 -0.2596 -0.3773  0.2079
   20CHTO    O6 8424   6.584   1.044  -0.123 -0.0819  0.0956  0.5471
   20CHTO    H1 8425   6.632   1.124  -0.135  0.2756 -0.1321  0.4313
   20CHTO    C3 8426   6.350   0.956  -0.062  0.0026 -0.6863 -0.4651
   20CHTO   H16 8427   6.351   0.995   0.041  1.2089 -1.5454 -0.1371
   20CHTO    N1 8428   6.393   0.809  -0.072  0.3775 -0.0710  0.1977
   20CHTO    H8 8429   6.323   0.753  -0.131  0.0710 -1.0500  1.4780
   20CHTO    H9 8430   6.401   0.768   0.028  1.2715 -1.2224 -0.3321
   20CHTO    C4 8431   6.201   0.985  -0.110 -0.1091  0.4500  0.1403
   20CHTO   H17 8432   6.196   0.960  -0.216 -0.1310  0.8777  0.0362
   20CHTO    O1 8433   6.166   1.125  -0.103  0.1877 -0.0832 -0.5039
   20CHTO    C5 8434   6.254   1.215  -0.175  0.1959  0.1884 -0.2744
   20CHTO   H18 8435   6.254   1.195  -0.282  1.4539 -0.8100 -0.0935
   20CHTO   C16 8436   6.211   1.362  -0.150  0.4755 -0.2771 -0.2434
   20CHTO   O11 8437   6.266   1.446  -0.243 -0.6820 -0.1307 -0.4943
   20CHTO    H5 8438   6.198   1.510  -0.251 -0.7909 -0.2179 -0.2736
   20CHTO    O3 8439   6.101   0.902  -0.048  0.2553 -0.0036  0.2579
   20CHTO    C6 8440   5.977   0.891  -0.113  0.1278  0.2643 -0.6797
   20CHTO   H19 8441   5.955   0.969  -0.186  1.5884 -0.8112 -2.2936
   20CHTO    C8 8442   5.965   0.743  -0.183  0.0980  0.3041 -0.7460
   20CHTO   H21 8443   5.971   0.668  -0.104  0.2784  0.5137 -0.5574
   20CHTO    O7 8444   6.082   0.732  -0.272 -0.4546  0.5379 -0.3644
   20CHTO    H2 8445   6.158   0.707  -0.224 -1.3588 -4.7698 -1.4144
   20CHTO   C12 8446   5.820   0.733  -0.256 -0.2462  0.5083  0.1876
   20CHTO   H25 8447   5.818   0.820  -0.326  1.2435  0.1115 -0.3573
   20CHTO    N3 8448   5.798   0.604  -0.341  0.3886 -0.2652 -0.1399
   20CHTO   H12 8449   5.851   0.520  -0.299 -0.8048 -0.5057  0.9061
   20CHTO   H13 8450   5.694   0.577  -0.353 -0.3164  1.9970  0.5699
   20CHTO   C15 8451   5.712   0.757  -0.144 -0.3311 -0.0666 -0.4200
   20CHTO   H28 8452   5.705   0.672  -0.076 -0.4168  0.0165 -0.3232
   20CHTO   O10 8453   5.577   0.795  -0.200  0.3869 -0.0485  0.0203
   20CHTO    H4 8454   5.499   0.773  -0.153  0.3722  0.3979  0.2146
   20CHTO    O5 8455   5.742   0.869  -0.064  0.0469 -0.3717 -0.1228
   20CHTO   C10 8456   5.865   0.899  -0.008 -0.1439 -0.1625 -0.6000
   20CHTO   H23 8457   5.876   0.831   0.076  0.6820  1.6546  0.7901
   20CHTO   C17 8458   5.870   1.048   0.049 -0.0279  0.1122 -0.1093
   20CHTO   O12 8459   5.773   1.052   0.157 -0.4416 -0.4946 -0.6504
   20CHTO    H6 8460   5.789   1.127   0.212 -1.1679  0.4148 -1.6708
   21GLOH   H03 8461   3.325   2.150   2.028 -1.1705  1.3922 -0.7374
   21GLOH    O1 8462   3.365   2.216   2.087 -0.0380 -0.1547  0.2187
   21GLOH    C1 8463   3.359   2.167   2.223 -1.1459 -0.5769  0.3913
   21GLOH   H02 8464   3.457   2.179   2.267 -1.6001 -0.4931  1.3967
   21GLOH   H08 8465   3.334   2.061   2.223 -0.1218 -0.8251  1.6448
   21GLOH    C2 8466   3.270   2.258   2.314  0.1108 -0.3538 -1.0817
   21GLOH   H04 8467   3.272   2.221   2.417 -1.0990  0.0413 -0.9103
   21GLOH    O2 8468   3.331   2.386   2.301  0.4538  0.0382 -0.2996
   21GLOH   H05 8469   3.381   2.372   2.219 -0.2395 -0.1140 -0.6998
   21GLOH    C3 8470   3.118   2.248   2.277 -0.1703 -0.3467  0.1592
   21GLOH   H06 8471   3.083   2.328   2.211 -4.1882 -1.0452  1.3244
   21GLOH   H07 8472   3.070   2.270   2.372 -1.5721  1.2452 -0.8960
   21GLOH    O3 8473   3.085   2.114   2.231 -0.1389  0.8737 -0.4989
   21GLOH   H01 8474   3.014   2.128   2.166 -0.7954 -0.8192 -0.1813
   22GLOH   H03 8475   2.908   1.452   1.820 -4.5414  0.3743 -1.0720
   22GLOH    O1 8476   2.895   1.413   1.909 -0.0323  0.1278 -0.3716
   22GLOH    C1 8477   2.800   1.491   1.979 -0.2234 -0.2373 -0.0679
   22GLOH   H02 8478   2.712   1.507   1.918  1.1505  2.5373 -1.4084
   22GLOH   H08 8479   2.839   1.591   2.002 -2.4547  0.6275  0.0904
   22GLOH    C2 8480   2.747   1.425   2.111 -0.2762 -0.6106  0.4431
   22GLOH   H04 8481   2.835   1.421   2.177 -0.3663 -1.6064  0.4987
   22GLOH    O2 8482   2.656   1.519   2.175  0.2020  0.1232  0.3176
   22GLOH   H05 8483   2.630   1.483   2.261  0.7696 -0.7023  0.1458
   22GLOH    C3 8484   2.684   1.284   2.078 -0.3101 -0.1102  0.3872
   22GLOH   H06 8485   2.770   1.232   2.037  1.2192  1.0761  2.0072
   22GLOH   H07 8486   2.610   1.282   1.998  0.7827  1.5710 -0.6909
   22GLOH    O3 8487   2.637   1.218   2.192  0.0619  0.0620  0.0788
   22GLOH   H01 8488   2.659   1.274   2.268  1.3459  0.8740 -0.8716
   23GLOH   H03 8489   4.011   0.933   0.833 -1.4149 -0.3944  3.4987
   23GLOH    O1 8490   3.980   0.845   0.805 -0.2107  0.1117  0.4008
   23GLOH    C1 8491   3.850   0.862   0.736  0.1183 -0.2054  0.6583
   23GLOH   H02 8492   3.856   0.919   0.644  0.5387 -0.1466  0.7241
   23GLOH   H08 8493   3.784   0.907   0.810 -1.0226  0.5175 -0.7819
   23GLOH    C2 8494   3.788   0.727   0.694 -0.0579  0.0629  0.5087
   23GLOH   H04 8495   3.786   0.659   0.782 -1.8058 -0.7522 -0.1253
   23GLOH    O2 8496   3.645   0.739   0.657 -0.4615  0.2219 -1.0167
   23GLOH   H05 8497   3.635   0.682   0.579  1.0648 -0.6817 -0.5870
   23GLOH    C3 8498   3.868   0.676   0.571 -0.0920 -0.1533 -0.3632
   23GLOH   H06 8499   3.855   0.737   0.482 -3.0302 -1.8985 -1.1841
   23GLOH   H07 8500   3.836   0.574   0.551 -0.0823 -0.7826  2.5437
   23GLOH    O3 8501   4.014   0.675   0.595 -0.3700  0.4738 -0.4194
   23GLOH   H01 8502   4.017   0.734   0.672  0.4633  0.0680 -0.1410
   24GLOH   H03 8503   4.362   1.034   0.746 -0.9346  3.4735  0.0681
   24GLOH    O1 8504   4.365   1.029   0.844 -0.2428  0.1353 -0.0719
   24GLOH    C1 8505   4.465   1.122   0.880 -0.0523 -0.3194 -0.3030
   24GLOH   H02 8506   4.497   1.184   0.797 -2.0670  2.5683  1.0139
   24GLOH   H08 8507   4.555   1.079   0.924 -0.6070 -0.4257  0.7387
   24GLOH    C2 8508   4.415   1.222   0.982  0.0127 -0.6678  0.1060
   24GLOH   H04 8509   4.503   1.277   1.019  0.0000 -0.7463  0.2552
   24GLOH    O2 8510   4.326   1.316   0.918  0.1059 -0.2697 -0.1316
   24GLOH   H05 8511   4.310   1.388   0.981  1.0324  0.7768 -1.0619
   24GLOH    C3 8512   4.357   1.142   1.100 -0.6413 -0.8000 -0.1137
   24GLOH   H06 8513   4.316   1.207   1.178  0.1748  0.0945 -0.4234
   24GLOH   H07 8514   4.436   1.084   1.148 -0.6947 -1.0859 -0.3633
   24GLOH    O3 8515   4.262   1.042   1.067 -0.5073  0.6893  0.2477
   24GLOH   H01 8516   4.301   0.992   0.992  0.2282 -1.1146  1.7854
   25GLOH   H03 8517   2.963   4.363   0.092 -0.5458  1.2303 -0.7570
   25GLOH    O1 8518   2.959   4.354   0.189  0.1321 -0.2944 -0.8608
   25GLOH    C1 8519   2.838   4.410   0.241 -0.3097  0.4313 -0.3540
   25GLOH   H02 8520   2.768   4.329   0.260 -0.3240  0.3276 -0.8236
   25GLOH   H08 8521   2.787   4.472   0.167  1.1943  0.8048 -1.1131
   25GLOH    C2 8522   2.833   4.501   0.373 -0.7897  0.0685 -0.1429
   25GLOH   H04 8523   2.895   4.443   0.444  1.3311  2.0404 -0.3223
   25GLOH    O2 8524   2.906   4.626   0.354 -0.0437  0.1748  0.3719
   25GLOH   H05 8525   2.849   4.692   0.312 -0.6903 -0.7662 -0.2420
   25GLOH    C3 8526   2.693   4.511   0.431 -0.1724  0.2750 -0.3465
   25GLOH   H06 8527   2.614   4.557   0.372 -3.2362 -1.2565  2.3517
   25GLOH   H07 8528   2.699   4.578   0.517  0.2611  0.7533 -0.7491
   25GLOH    O3 8529   2.651   4.376   0.465  0.8016  0.7321  0.2229
   25GLOH   H01 8530   2.620   4.327   0.386  0.4545  0.2610  0.6485
   26GLOH   H03 8531   2.866   3.254   1.595  0.9173  0.3190  0.0214
   26GLOH    O1 8532   2.837   3.262   1.687  0.3518  0.3749 -0.1596
   26GLOH    C1 8533   2.922   3.191   1.783  0.2378 -1.2382 -0.2128
   26GLOH   H02 8534   3.027   3.209   1.758 -0.2428 -1.5653 -2.6549
   26GLOH   H08 8535   2.914   3.084   1.768  2.2059 -1.6162  1.2406
   26GLOH    C2 8536   2.891   3.222   1.925  0.4005 -0.7851  0.0999
   26GLOH   H04 8537   2.788   3.192   1.946 -0.6424  3.3040  1.3358
   26GLOH    O2 8538   2.981   3.149   2.007 -0.1555 -0.2006  0.2682
   26GLOH   H05 8539   2.929   3.098   2.072  2.7802 -1.5353  1.7169
   26GLOH    C3 8540   2.911   3.382   1.936 -0.0656  0.2777  0.3198
   26GLOH   H06 8541   3.018   3.400   1.923  0.0342 -0.9579 -0.6049
   26GLOH   H07 8542   2.884   3.429   2.030 -0.4136  0.4108  0.1527
   26GLOH    O3 8543   2.849   3.463   1.836  0.0795  0.0791 -0.2168
   26GLOH   H01 8544   2.829   3.396   1.768  0.9149  0.6261 -1.0057
   27GLOH   H03 8545   2.500   3.287   1.831  0.8068  0.3475  0.2067
   27GLOH    O1 8546   2.489   3.273   1.927 -0.2949 -0.3212  0.0027
   27GLOH    C1 8547   2.545   3.386   1.994 -0.5840  0.0903 -0.0723
   27GLOH   H02 8548   2.493   3.475   1.960 -1.1834  0.5293  1.9225
   27GLOH   H08 8549   2.652   3.397   1.974 -0.6873 -0.1949 -0.8016
   27GLOH    C2 8550   2.522   3.383   2.151 -0.3191  0.8626 -0.4313
   27GLOH   H04 8551   2.597   3.311   2.189 -0.6602  0.3126 -0.7951
   27GLOH    O2 8552   2.526   3.511   2.206  0.0237 -0.2117 -0.6913
   27GLOH   H05 8553   2.612   3.552   2.191 -0.2752  0.9440  0.7465
   27GLOH    C3 8554   2.384   3.319   2.176  0.3032  0.1253  0.1314
   27GLOH   H06 8555   2.322   3.399   2.138 -0.8583  0.0617  1.8296
   27GLOH   H07 8556   2.367   3.321   2.284 -2.0921 -3.3040 -0.0858
   27GLOH    O3 8557   2.366   3.185   2.129  0.1548 -0.3300 -0.1676
   27GLOH   H01 8558   2.415   3.189   2.045  0.4687 -3.0452 -0.1623
   28GLOH   H03 8559   3.313   1.635   0.937  0.8626  0.2763 -1.3389
   28GLOH    O1 8560   3.255   1.706   0.906 -0.2813  0.3609  0.8529
   28GLOH    C1 8561   3.186   1.757   1.014  0.3516  0.1635  0.2402
   28GLOH   H02 8562   3.138   1.851   0.986 -1.3378  0.3560  3.4978
   28GLOH   H08 8563   3.261   1.780   1.090 -0.1072  0.1256  0.7055
   28GLOH    C2 8564   3.067   1.671   1.067 -0.5982 -0.0622  0.5084
   28GLOH   H04 8565   3.093   1.564   1.069 -0.1191  0.0612  0.9178
   28GLOH    O2 8566   3.047   1.701   1.205  0.1221  0.1157 -0.3540
   28GLOH   H05 8567   3.132   1.703   1.252 -0.1163 -1.5809  0.1926
   28GLOH    C3 8568   2.947   1.695   0.979  0.2775  0.2243 -0.0863
   28GLOH   H06 8569   2.934   1.798   0.949 -3.0284 -0.3083 -0.6162
   28GLOH   H07 8570   2.863   1.666   1.042  0.3392 -0.1401 -0.1673
   28GLOH    O3 8571   2.954   1.616   0.853 -0.7130  0.2990 -0.5895
   28GLOH   H01 8572   2.935   1.681   0.783  1.0724  0.3967 -1.0088
   29GLOH   H03 8573   4.207   0.909   2.214  0.2527 -0.5042 -0.0722
   29GLOH    O1 8574   4.213   0.932   2.119 -0.2732 -0.1746 -0.0305
   29GLOH    C1 8575   4.087   0.916   2.051 -0.4088  0.2118 -0.4074
   29GLOH   H02 8576   4.074   0.818   2.004 -2.9306  1.3911 -2.3077
   29GLOH   H08 8577   4.083   0.990   1.970  0.7353  0.1286 -0.5550
   29GLOH    C2 8578   3.957   0.957   2.135 -0.7384  0.5054  0.3787
   29GLOH   H04 8579   3.952   1.066   2.152 -0.2621  0.8983 -1.8978
   29GLOH    O2 8580   3.850   0.903   2.065 -0.0931  0.4585 -0.4406
   29GLOH   H05 8581   3.848   0.943   1.977 -0.0995 -0.9812 -1.1080
   29GLOH    C3 8582   3.970   0.882   2.271  0.0099  0.1950  0.2283
   29GLOH   H06 8583   4.005   0.781   2.252 -0.4420  0.1949 -0.6259
   29GLOH   H07 8584   3.873   0.880   2.321 -0.2704  0.5693 -0.2997
   29GLOH    O3 8585   4.063   0.942   2.358 -0.4904  0.8945 -0.0635
   29GLOH   H01 8586   4.079   0.885   2.435 -0.3285 -2.1807 -2.2873
   30GLOH   H03 8587   4.643   4.998   0.263 -0.9553  2.4365  0.3922
   30GLOH    O1 8588   4.594   4.988   0.179  0.3156 -0.5720 -0.0341
   30GLOH    C1 8589   4.475   4.909   0.219 -1.4611  0.8334 -0.3513
   30GLOH   H02 8590   4.440   4.927   0.321  1.9595  0.9222  0.8660
   30GLOH   H08 8591   4.495   4.802   0.218 -0.2210  1.0480 -0.2503
   30GLOH    C2 8592   4.362   4.927   0.117  0.4560 -0.3777  0.3439
   30GLOH   H04 8593   4.271   4.878   0.154  0.3203  1.3264  2.3479
   30GLOH    O2 8594   4.337   5.073   0.100  0.1343  0.7783  0.6927
   30GLOH   H05 8595   4.426   5.112   0.103  0.3804  0.6549 -2.5851
   30GLOH    C3 8596   4.407   4.852  -0.009 -0.1784 -0.2499 -0.0350
   30GLOH   H06 8597   4.514   4.871  -0.021 -0.2271  0.0312 -0.0351
   30GLOH   H07 8598   4.347   4.893  -0.091  0.7216 -2.6914 -1.9829
   30GLOH    O3 8599   4.394   4.713   0.006  0.6376 -0.2809 -0.7206
   30GLOH   H01 8600   4.418   4.674  -0.080 -0.2818 -1.9356 -0.2354
   31GLOH   H03 8601   2.819   3.623   1.444 -0.9726 -0.3685  0.5203
   31GLOH    O1 8602   2.833   3.531   1.414 -0.2335 -0.0535 -0.1285
   31GLOH    C1 8603   2.968   3.498   1.440 -0.0315 -0.4664 -0.0176
   31GLOH   H02 8604   2.980   3.459   1.541  1.6811  2.1320  0.8471
   31GLOH   H08 8605   3.030   3.588   1.429  1.1775 -1.5868 -2.8448
   31GLOH    C2 8606   3.033   3.398   1.350 -0.0594  0.3433 -0.3560
   31GLOH   H04 8607   3.042   3.434   1.246 -0.2384  0.8992 -0.1832
   31GLOH    O2 8608   3.173   3.369   1.380 -0.0051  0.6639  0.6454
   31GLOH   H05 8609   3.203   3.317   1.303  1.3541  0.6017  1.2098
   31GLOH    C3 8610   2.948   3.266   1.344 -0.1228 -0.1824 -0.5637
   31GLOH   H06 8611   3.000   3.200   1.276  0.9807 -1.5453  1.5573
   31GLOH   H07 8612   2.850   3.284   1.299 -0.5218 -2.0658 -0.4834
   31GLOH    O3 8613   2.937   3.207   1.469 -0.1840 -0.4576 -0.0413
   31GLOH   H01 8614   2.890   3.125   1.447  0.2468 -0.9777  0.9590
   32GLOH   H03 8615   4.430   1.845   0.628  1.7636 -0.6712  0.4661
   32GLOH    O1 8616   4.365   1.772   0.626  0.2148  0.6824  0.3745
   32GLOH    C1 8617   4.346   1.734   0.765 -0.2697 -0.2406  0.4340
   32GLOH   H02 8618   4.413   1.794   0.826 -0.5174 -0.8840  1.3557
   32GLOH   H08 8619   4.366   1.628   0.780 -2.3755 -0.8170 -0.6497
   32GLOH    C2 8620   4.205   1.763   0.818  0.2654 -0.0129  0.1510
   32GLOH   H04 8621   4.209   1.721   0.920 -1.2697 -0.0188  0.2187
   32GLOH    O2 8622   4.169   1.905   0.829  0.0761  0.5255  0.1318
   32GLOH   H05 8623   4.190   1.951   0.746 -3.8022 -0.0447 -1.2814
   32GLOH    C3 8624   4.101   1.687   0.727  0.2508  0.8670 -0.0786
   32GLOH   H06 8625   4.137   1.677   0.624  2.4299  0.3760  0.6931
   32GLOH   H07 8626   4.005   1.737   0.722 -0.3291 -0.1775  0.4974
   32GLOH    O3 8627   4.088   1.547   0.775  0.5225  0.2041  0.3911
   32GLOH   H01 8628   4.143   1.488   0.719 -1.4992 -1.0158 -0.3813
   33GLOH   H03 8629   3.934   9.479   1.085 -1.6439  1.8454 -1.7095
   33GLOH    O1 8630   3.955   9.554   1.143  0.2988 -0.1610  0.2441
   33GLOH    C1 8631   4.021   9.643   1.050 -0.2356  0.5604  0.0355
   33GLOH   H02 8632   3.962   9.655   0.960  0.8566 -0.4575 -0.8229
   33GLOH   H08 8633   4.114   9.594   1.022  0.2424  1.8332 -0.6021
   33GLOH    C2 8634   4.052   9.781   1.106 -0.1262 -0.5758  0.4252
   33GLOH   H04 8635   4.124   9.760   1.186  0.3619 -1.3648 -0.2030
   33GLOH    O2 8636   4.118   9.857   1.006 -0.1598  0.9934  0.2563
   33GLOH   H05 8637   4.151   9.943   1.037  1.1256  1.0969 -1.3395
   33GLOH    C3 8638   3.931   9.846   1.167  0.5484 -1.1533  1.6088
   33GLOH   H06 8639   3.857   9.862   1.089  2.6294  1.3593  0.0330
   33GLOH   H07 8640   3.956   9.945   1.207  1.0471 -1.8384  3.0047
   33GLOH    O3 8641   3.877   9.765   1.265 -0.2017  0.5108 -0.0700
   33GLOH   H01 8642   3.896   9.672   1.242 -1.7753 -0.6153  2.8494
   34GLOH   H03 8643   2.933   3.010   0.995 -0.5691  0.3990 -0.4082
   34GLOH    O1 8644   2.857   2.998   1.054 -0.0126 -0.5616  0.1187
   34GLOH    C1 8645   2.733   2.987   0.986 -0.3026  0.7673  0.9054
   34GLOH   H02 8646   2.721   2.911   0.909 -0.7210  1.0534  0.6849
   34GLOH   H08 8647   2.719   3.085   0.939 -1.1232 -0.3635 -1.2723
   34GLOH    C2 8648   2.628   2.977   1.097  0.1730 -0.0176  0.5231
   34GLOH   H04 8649   2.652   3.051   1.174  1.2242  0.1855  0.0140
   34GLOH    O2 8650   2.492   2.992   1.056  0.0738  0.2298 -0.0759
   34GLOH   H05 8651   2.471   3.084   1.033  1.1560  0.3193 -0.7400
   34GLOH    C3 8652   2.645   2.840   1.168  0.2198 -0.0911  0.4581
   34GLOH   H06 8653   2.579   2.839   1.255  0.1418  0.9344  0.4159
   34GLOH   H07 8654   2.748   2.838   1.205  0.2392  2.4860  0.6356
   34GLOH    O3 8655   2.616   2.724   1.090 -0.0798 -0.6110 -0.4128
   34GLOH   H01 8656   2.568   2.749   1.009 -1.4525  0.5715  0.7455
   35GLOH   H03 8657   3.103   4.393   2.398 -2.4897  1.1036 -0.9637
   35GLOH    O1 8658   3.097   4.449   2.477  0.3908  0.1426  0.0195
   35GLOH    C1 8659   3.221   4.431   2.536 -0.7387 -0.2677 -0.1846
   35GLOH   H02 8660   3.230   4.324   2.557 -1.6005 -0.0304  1.4735
   35GLOH   H08 8661   3.222   4.471   2.637  0.8021  1.1715 -0.7506
   35GLOH    C2 8662   3.327   4.479   2.442 -0.1783  0.1531 -0.4709
   35GLOH   H04 8663   3.425   4.460   2.488  0.5759  1.7987 -1.3481
   35GLOH    O2 8664   3.311   4.412   2.316  0.0314  0.2961  0.3561
   35GLOH   H05 8665   3.350   4.477   2.255 -1.5531  2.1646  1.2637
   35GLOH    C3 8666   3.311   4.633   2.423  0.0736 -0.3437  0.5427
   35GLOH   H06 8667   3.211   4.672   2.406  0.4056  0.4066  0.2745
   35GLOH   H07 8668   3.363   4.662   2.331 -0.0239  1.4121  1.0314
   35GLOH    O3 8669   3.371   4.698   2.534  0.5147  0.3243  0.0684
   35GLOH   H01 8670   3.362   4.795   2.531  0.0971  0.2527 -1.8684
   36GLOH   H03 8671   4.132   2.178   0.726  1.3051  1.4529  1.5969
   36GLOH    O1 8672   4.073   2.242   0.770 -0.6668  0.9522 -0.2346
   36GLOH    C1 8673   4.088   2.205   0.905  0.5100  0.1505 -0.2374
   36GLOH   H02 8674   4.175   2.146   0.933  0.3043 -1.0955 -2.1598
   36GLOH   H08 8675   4.006   2.140   0.937  0.9708 -0.6103 -0.5821
   36GLOH    C2 8676   4.085   2.322   1.005 -0.4429 -0.5771 -0.4026
   36GLOH   H04 8677   3.984   2.365   1.002  0.8814  2.5554 -2.0382
   36GLOH    O2 8678   4.124   2.277   1.138 -0.3540 -0.0385  0.0491
   36GLOH   H05 8679   4.168   2.346   1.190  0.5178  0.2984 -1.1137
   36GLOH    C3 8680   4.179   2.437   0.958  0.2928  0.3317  0.3366
   36GLOH   H06 8681   4.273   2.395   0.923 -0.0300  0.3777 -0.6008
   36GLOH   H07 8682   4.199   2.505   1.041  2.7887 -0.0423  0.0732
   36GLOH    O3 8683   4.122   2.494   0.835  0.1600  0.1383  0.1681
   36GLOH   H01 8684   4.087   2.420   0.782  0.8043 -1.1161  1.4649
   37GLOH   H03 8685   3.617   4.797   2.078  0.0020 -1.2552  1.7080
   37GLOH    O1 8686   3.579   4.716   2.039  0.4022 -0.6690  0.0461
   37GLOH    C1 8687   3.466   4.763   1.962  0.3858  0.0000  0.2700
   37GLOH   H02 8688   3.488   4.852   1.903 -0.8380 -0.5177 -1.0101
   37GLOH   H08 8689   3.391   4.799   2.033 -0.5406  2.0946 -1.7063
   37GLOH    C2 8690   3.403   4.647   1.875 -0.4473 -0.4557 -0.4496
   37GLOH   H04 8691   3.407   4.548   1.923 -3.9465 -0.2921  0.2757
   37GLOH    O2 8692   3.271   4.678   1.844  0.2871  0.0469 -0.5291
   37GLOH   H05 8693   3.221   4.596   1.834  2.7271 -1.8734  2.3575
   37GLOH    C3 8694   3.482   4.644   1.746  0.4550 -0.7182 -0.5444
   37GLOH   H06 8695   3.493   4.738   1.692 -0.6242 -0.8044 -0.9230
   37GLOH   H07 8696   3.418   4.585   1.681  0.9642 -0.1690 -1.5526
   37GLOH    O3 8697   3.615   4.593   1.772 -0.2843  0.5564 -0.2569
   37GLOH   H01 8698   3.657   4.635   1.849 -2.9579  1.5196  0.7384
   38GLOH   H03 8699   4.144   3.878   0.162  2.0016  0.0968 -0.4056
   38GLOH    O1 8700   4.140   3.856   0.257  0.2338  0.4245 -0.3881
   38GLOH    C1 8701   4.269   3.883   0.322  0.1454 -0.8636  0.4908
   38GLOH   H02 8702   4.285   3.988   0.297  3.1516 -1.0173  1.6030
   38GLOH   H08 8703   4.344   3.822   0.271 -1.3935 -3.8421  1.6469
   38GLOH    C2 8704   4.268   3.843   0.471 -0.0056 -0.4770 -0.1614
   38GLOH   H04 8705   4.184   3.900   0.513  0.2732 -0.8206  0.8860
   38GLOH    O2 8706   4.235   3.706   0.491 -0.2156  1.0159 -0.1173
   38GLOH   H05 8707   4.298   3.650   0.444  0.1935  2.1164 -0.8894
   38GLOH    C3 8708   4.398   3.874   0.545  0.8661  0.1889  0.9724
   38GLOH   H06 8709   4.483   3.821   0.502 -0.2574 -0.3494 -0.6275
   38GLOH   H07 8710   4.383   3.838   0.647 -1.6974 -0.4110  0.4105
   38GLOH    O3 8711   4.431   4.016   0.544 -0.0946  0.0564 -0.3676
   38GLOH   H01 8712   4.348   4.067   0.539 -0.6345 -0.6251  1.5363
   39GLOH   H03 8713   4.308   4.349   1.939  0.8413 -1.6602  2.3553
   39GLOH    O1 8714   4.231   4.383   1.989  0.0093 -0.1471  0.1312
   39GLOH    C1 8715   4.228   4.524   1.988 -0.3498 -0.1616 -0.3834
   39GLOH   H02 8716   4.254   4.568   1.892 -2.0519  1.6393 -0.0433
   39GLOH   H08 8717   4.310   4.556   2.053  0.4732 -1.5958 -0.6897
   39GLOH    C2 8718   4.089   4.575   2.031  0.3878  0.4208  0.4696
   39GLOH   H04 8719   4.090   4.569   2.141  3.4177 -2.1148  0.3693
   39GLOH    O2 8720   4.085   4.712   1.989 -0.0877  0.0813  0.1099
   39GLOH   H05 8721   4.007   4.723   1.932 -0.9786 -1.8399  0.8927
   39GLOH    C3 8722   3.978   4.481   1.967 -0.3717 -0.1750 -0.0406
   39GLOH   H06 8723   3.995   4.380   2.003  2.4591  1.0793  2.3034
   39GLOH   H07 8724   4.003   4.487   1.861 -0.7765  0.1089 -0.1237
   39GLOH    O3 8725   3.839   4.524   1.998 -0.2727  0.1642  0.0502
   39GLOH   H01 8726   3.832   4.614   1.962  0.2888  0.4944  0.7600
   40GLOH   H03 8727   4.090   1.429  -0.027  1.0768  0.5242  1.0324
   40GLOH    O1 8728   4.126   1.345   0.008  0.4280 -0.2372 -0.1183
   40GLOH    C1 8729   4.026   1.240   0.011  0.5903 -0.2278 -0.5442
   40GLOH   H02 8730   3.940   1.246  -0.056  0.6429  0.1658 -0.5759
   40GLOH   H08 8731   3.992   1.232   0.114  1.6889  0.1626 -0.1379
   40GLOH    C2 8732   4.098   1.109  -0.027  0.1804  0.0172  0.1800
   40GLOH   H04 8733   4.175   1.079   0.046  0.9866 -0.4952 -0.8631
   40GLOH    O2 8734   4.002   1.001  -0.021 -0.1846 -0.0888 -0.5357
   40GLOH   H05 8735   3.937   1.022   0.049  1.2736  1.7573  0.2949
   40GLOH    C3 8736   4.160   1.118  -0.166 -0.1920 -0.0544  0.2730
   40GLOH   H06 8737   4.200   1.018  -0.186 -0.6957 -0.0615 -0.7336
   40GLOH   H07 8738   4.250   1.178  -0.153 -0.5314  0.5308 -0.0742
   40GLOH    O3 8739   4.071   1.154  -0.273  0.6656 -0.3802 -0.0110
   40GLOH   H01 8740   4.066   1.073  -0.327 -1.4740 -0.2541 -0.0464
   41GLOH   H03 8741   3.758   1.624   1.690 -0.8198 -0.3961  0.1900
   41GLOH    O1 8742   3.756   1.527   1.699  0.7487 -0.4683 -0.2060
   41GLOH    C1 8743   3.862   1.482   1.779 -0.0603 -0.0497 -0.0342
   41GLOH   H02 8744   3.839   1.499   1.884  0.4728  1.2345 -0.1285
   41GLOH   H08 8745   3.948   1.540   1.749 -1.0830  0.8926 -1.1753
   41GLOH    C2 8746   3.892   1.330   1.766 -0.2468  0.1633  0.0654
   41GLOH   H04 8747   3.964   1.305   1.846  0.9277  1.6687 -0.4899
   41GLOH    O2 8748   3.777   1.247   1.808  0.2677  0.2388 -0.3308
   41GLOH   H05 8749   3.743   1.288   1.889 -0.6478 -1.1435  0.0038
   41GLOH    C3 8750   3.955   1.296   1.636  0.1249  0.5052  0.1781
   41GLOH   H06 8751   3.885   1.317   1.554 -1.0514  0.6131  1.1925
   41GLOH   H07 8752   3.982   1.191   1.634  1.2225  0.7816  0.2529
   41GLOH    O3 8753   4.079   1.365   1.618 -0.3500  0.1050  0.5365
   41GLOH   H01 8754   4.146   1.362   1.689  0.7344 -1.8630 -0.5257
   42GLOH   H03 8755   4.169   3.794   1.836  0.6525  0.3588 -0.3162
   42GLOH    O1 8756   4.118   3.827   1.911 -0.0016 -0.7312 -0.2647
   42GLOH    C1 8757   4.199   3.915   1.992  0.2779 -0.1898 -0.0673
   42GLOH   H02 8758   4.301   3.934   1.959  0.2305 -0.4492 -0.3617
   42GLOH   H08 8759   4.202   3.871   2.092 -2.9722  0.1844  0.2361
   42GLOH    C2 8760   4.135   4.052   1.993  0.6943 -0.1015 -0.0348
   42GLOH   H04 8761   4.030   4.044   2.025  1.3964  0.9657  2.6210
   42GLOH    O2 8762   4.194   4.140   2.093  0.2147  0.3321  0.3805
   42GLOH   H05 8763   4.184   4.231   2.059  3.2518  0.2104 -1.0205
   42GLOH    C3 8764   4.140   4.115   1.857  0.2774  0.1822 -0.0476
   42GLOH   H06 8765   4.242   4.109   1.821 -0.1236 -0.7553 -1.0221
   42GLOH   H07 8766   4.109   4.220   1.862  1.9697  0.6234  2.2419
   42GLOH    O3 8767   4.066   4.031   1.765 -0.2063  0.2313  0.2033
   42GLOH   H01 8768   4.059   3.942   1.804 -0.5868 -0.6770 -1.9005
   43GLOH   H03 8769   2.584   3.216   0.259  1.2525 -0.7770 -1.1692
   43GLOH    O1 8770   2.625   3.214   0.347 -0.0899 -0.3391 -0.5215
   43GLOH    C1 8771   2.530   3.130   0.426  0.3555  0.2319  0.0615
   43GLOH   H02 8772   2.535   3.029   0.387 -2.0214 -1.0537  2.8992
   43GLOH   H08 8773   2.426   3.157   0.409  0.8239  2.7230  0.9712
   43GLOH    C2 8774   2.560   3.125   0.575 -0.0793 -0.3953  0.0655
   43GLOH   H04 8775   2.660   3.096   0.612  0.0784  2.3925  2.0482
   43GLOH    O2 8776   2.529   3.255   0.625 -0.0361 -0.3689  0.3904
   43GLOH   H05 8777   2.537   3.312   0.547  0.7486 -0.3255  0.5043
   43GLOH    C3 8778   2.464   3.025   0.643 -0.0339 -0.2144  0.7425
   43GLOH   H06 8779   2.361   3.059   0.654  0.2351  0.4298  1.2707
   43GLOH   H07 8780   2.508   3.005   0.741 -0.1222 -1.1151  0.5998
   43GLOH    O3 8781   2.456   2.896   0.570 -0.0728 -0.2133 -0.2903
   43GLOH   H01 8782   2.543   2.865   0.538  1.9217  2.5457  2.1109
   44GLOH   H03 8783   3.817   5.400   1.294  0.9008  0.5262  0.4781
   44GLOH    O1 8784   3.887   5.364   1.351  0.4611 -0.3700  0.4738
   44GLOH    C1 8785   4.017   5.375   1.291  0.1043  0.0045 -0.2534
   44GLOH   H02 8786   4.098   5.376   1.363  1.1832  0.2588 -1.4658
   44GLOH   H08 8787   4.031   5.467   1.235 -1.8287 -1.1755 -2.7530
   44GLOH    C2 8788   4.030   5.260   1.186  0.1807  1.6038  0.7651
   44GLOH   H04 8789   3.932   5.256   1.138  0.7394 -0.8412 -0.2385
   44GLOH    O2 8790   4.126   5.290   1.085 -0.1663  0.1230  0.0789
   44GLOH   H05 8791   4.134   5.211   1.030  3.4373  0.1194  0.5042
   44GLOH    C3 8792   4.078   5.125   1.247  0.2983 -0.7097  0.3682
   44GLOH   H06 8793   4.032   5.124   1.346  1.9828  2.7095  1.2448
   44GLOH   H07 8794   4.186   5.130   1.254  0.3796 -1.6344 -0.1194
   44GLOH    O3 8795   4.042   5.001   1.180 -0.0300  0.5272 -0.4064
   44GLOH   H01 8796   4.074   4.924   1.231 -1.7528  0.0290 -0.0445
   45GLOH   H03 8797   4.537   1.965   1.601  1.3508  0.8899 -0.8777
   45GLOH    O1 8798   4.528   1.902   1.527  0.3474  0.1273 -0.1244
   45GLOH    C1 8799   4.399   1.832   1.542  0.7007  0.4993  0.0297
   45GLOH   H02 8800   4.314   1.899   1.547  1.5490  1.4050  3.3021
   45GLOH   H08 8801   4.392   1.778   1.637  0.7107  2.6913  1.3023
   45GLOH    C2 8802   4.367   1.719   1.437 -0.3299  0.8226 -0.1003
   45GLOH   H04 8803   4.432   1.636   1.471 -2.5132 -1.1822 -0.7083
   45GLOH    O2 8804   4.227   1.673   1.446 -0.2402 -0.5887  0.0734
   45GLOH   H05 8805   4.185   1.699   1.530  0.4782  1.0664 -0.0519
   45GLOH    C3 8806   4.397   1.763   1.289  0.2637 -0.3183  0.0100
   45GLOH   H06 8807   4.316   1.830   1.259 -0.3961 -0.7578  0.7714
   45GLOH   H07 8808   4.406   1.676   1.224  3.0951  0.2284 -0.3540
   45GLOH    O3 8809   4.528   1.824   1.281  0.3693  0.2081 -0.0831
   45GLOH   H01 8810   4.538   1.888   1.354  1.6012 -3.3793  3.0063
   46GLOH   H03 8811   3.638   1.534   1.776  0.4301 -0.3473  0.2614
   46GLOH    O1 8812   3.562   1.556   1.833 -0.2638 -0.9913 -0.4047
   46GLOH    C1 8813   3.438   1.550   1.763  0.7085 -0.3972  0.2384
   46GLOH   H02 8814   3.398   1.449   1.754  1.2438 -0.8282  2.3097
   46GLOH   H08 8815   3.461   1.586   1.663 -0.9252  2.1308  0.7162
   46GLOH    C2 8816   3.325   1.638   1.817 -0.2200  0.0945 -0.2602
   46GLOH   H04 8817   3.233   1.612   1.764 -0.4736 -0.3238  0.3877
   46GLOH    O2 8818   3.312   1.614   1.956 -0.0188 -0.0921 -0.4508
   46GLOH   H05 8819   3.334   1.520   1.965  2.8691  0.4966 -0.9732
   46GLOH    C3 8820   3.345   1.788   1.775 -0.0816  0.2194 -0.3679
   46GLOH   H06 8821   3.445   1.815   1.810 -0.5741 -0.3709  1.5244
   46GLOH   H07 8822   3.269   1.847   1.825 -0.6101  0.0978 -1.0260
   46GLOH    O3 8823   3.335   1.794   1.631  0.0873 -0.0373  0.6883
   46GLOH   H01 8824   3.383   1.873   1.600  0.4958 -0.5266  0.0473
   47GLOH   H03 8825   3.561   9.625   0.811  0.9967  2.4767  0.1781
   47GLOH    O1 8826   3.543   9.624   0.907  0.0743  0.3749  0.0184
   47GLOH    C1 8827   3.589   9.749   0.961  0.7025  0.0811 -0.1127
   47GLOH   H02 8828   3.678   9.739   1.023 -0.9662 -1.2514  2.1310
   47GLOH   H08 8829   3.517   9.794   1.029  2.1228  0.2537  1.2900
   47GLOH    C2 8830   3.626   9.854   0.852  0.2614  0.3488 -0.1275
   47GLOH   H04 8831   3.540   9.898   0.799  0.1528 -0.9035 -1.0229
   47GLOH    O2 8832   3.701   9.959   0.912  0.0730  0.0952 -0.1050
   47GLOH   H05 8833   3.789   9.960   0.870  0.3815  1.4676  0.5467
   47GLOH    C3 8834   3.708   9.786   0.737  0.2741 -0.0400  0.2960
   47GLOH   H06 8835   3.805   9.752   0.775 -0.8237 -1.2147  2.1440
   47GLOH   H07 8836   3.730   9.853   0.654  0.3355 -0.8691 -0.3596
   47GLOH    O3 8837   3.640   9.668   0.688  0.3818 -0.9296  1.1280
   47GLOH   H01 8838   3.685   9.654   0.602 -1.1127  1.3797 -0.0751
   48GLOH   H03 8839   3.386   0.706   0.125 -3.4719 -3.0389  0.0772
   48GLOH    O1 8840   3.378   0.728   0.220 -0.0694  0.2101 -0.2753
   48GLOH    C1 8841   3.437   0.631   0.303  0.6306  0.5581 -0.1563
   48GLOH   H02 8842   3.452   0.534   0.256 -0.6533  0.1567  0.2387
   48GLOH   H08 8843   3.370   0.617   0.388  1.0346 -3.2070 -0.3895
   48GLOH    C2 8844   3.573   0.675   0.351  0.0636 -0.0624  0.8789
   48GLOH   H04 8845   3.574   0.780   0.383 -1.9700 -0.1556  1.3052
   48GLOH    O2 8846   3.615   0.594   0.460  0.0862 -0.2209  0.3408
   48GLOH   H05 8847   3.625   0.501   0.432 -2.8989 -0.1401 -1.1840
   48GLOH    C3 8848   3.677   0.668   0.241  0.0146 -0.0199  0.7966
   48GLOH   H06 8849   3.773   0.698   0.284 -0.1248  1.2096  0.2673
   48GLOH   H07 8850   3.658   0.744   0.165 -1.7261 -0.3045  0.9289
   48GLOH    O3 8851   3.690   0.539   0.180 -0.3207 -0.7417 -0.7234
   48GLOH   H01 8852   3.630   0.473   0.219 -1.4047 -0.4373 -1.8368
   49GLOH   H03 8853   4.444   2.209   0.126 -0.2909  0.6191  0.3986
   49GLOH    O1 8854   4.475   2.176   0.212  0.6238  0.3597 -0.0183
   49GLOH    C1 8855   4.619   2.159   0.207  0.3639  0.1797  0.2033
   49GLOH   H02 8856   4.665   2.250   0.168 -2.1475  1.6812  0.5957
   49GLOH   H08 8857   4.644   2.082   0.135 -2.1537 -2.2591  1.8287
   49GLOH    C2 8858   4.676   2.135   0.349 -0.4450  0.5049 -0.1609
   49GLOH   H04 8859   4.636   2.048   0.404 -1.8482  0.2960 -1.4844
   49GLOH    O2 8860   4.813   2.095   0.338 -0.2285  0.0269 -0.0849
   49GLOH   H05 8861   4.838   2.057   0.424 -0.2403 -0.3843 -0.2618
   49GLOH    C3 8862   4.659   2.258   0.432  0.2246  0.0926 -0.3951
   49GLOH   H06 8863   4.738   2.330   0.407  0.6883 -0.0313  0.7111
   49GLOH   H07 8864   4.672   2.239   0.538  1.4205 -0.4205 -0.6218
   49GLOH    O3 8865   4.530   2.318   0.418  0.5866  0.4623  0.1441
   49GLOH   H01 8866   4.483   2.267   0.349  2.1355 -2.1346  0.9410
   50GLOH   H03 8867   2.323   4.225   0.463 -0.0001 -0.2160 -0.6587
   50GLOH    O1 8868   2.257   4.158   0.439  0.0626 -0.4288 -0.2308
   50GLOH    C1 8869   2.281   4.127   0.303 -0.3879 -0.1882  0.6743
   50GLOH   H02 8870   2.295   4.227   0.261  0.2730  0.7739  3.0808
   50GLOH   H08 8871   2.190   4.087   0.258  0.6740  0.6403 -2.2905
   50GLOH    C2 8872   2.402   4.037   0.274 -0.7057 -0.1293  0.5210
   50GLOH   H04 8873   2.384   3.946   0.333 -0.9829  0.9601  2.1381
   50GLOH    O2 8874   2.408   4.008   0.133  0.1971  0.8100 -0.8043
   50GLOH   H05 8875   2.473   3.943   0.104 -0.2951  0.2224 -0.5923
   50GLOH    C3 8876   2.531   4.104   0.328  0.2949  0.0508 -0.4333
   50GLOH   H06 8877   2.617   4.046   0.293  0.4205  0.8488 -1.4587
   50GLOH   H07 8878   2.546   4.103   0.436 -0.9435  2.2256 -0.2213
   50GLOH    O3 8879   2.544   4.242   0.288 -0.1003 -0.0544  0.7989
   50GLOH   H01 8880   2.546   4.246   0.191  1.5430 -0.0623  0.8282
   51GLOH   H03 8881   4.233   1.429   1.864  1.3759 -1.3424  1.3613
   51GLOH    O1 8882   4.261   1.377   1.786  0.6881  0.3256 -0.0365
   51GLOH    C1 8883   4.328   1.262   1.841  0.0472 -0.4076  1.0947
   51GLOH   H02 8884   4.427   1.296   1.872 -0.4943  0.4550  1.8665
   51GLOH   H08 8885   4.328   1.184   1.765  0.5231  0.4403  0.2157
   51GLOH    C2 8886   4.275   1.207   1.974 -0.1725  0.0600  0.2043
   51GLOH   H04 8887   4.175   1.172   1.945 -0.6406  0.0307  1.8248
   51GLOH    O2 8888   4.362   1.105   2.009 -0.5177  0.7691 -0.4218
   51GLOH   H05 8889   4.303   1.042   2.054  0.3040 -0.3133 -0.8506
   51GLOH    C3 8890   4.252   1.312   2.084  0.2056 -0.4786  0.3010
   51GLOH   H06 8891   4.347   1.357   2.113 -0.8919  1.4437  1.0026
   51GLOH   H07 8892   4.207   1.261   2.169 -0.9708  0.6368  0.3547
   51GLOH    O3 8893   4.155   1.409   2.031 -0.1971  0.3408 -1.3060
   51GLOH   H01 8894   4.069   1.370   2.052  0.3653  0.2830  1.0949
   52GLOH   H03 8895   4.562   2.760   0.422  0.1261 -0.1667  1.3519
   52GLOH    O1 8896   4.528   2.669   0.410  0.5758 -0.1783  0.0097
   52GLOH    C1 8897   4.520   2.649   0.268  0.1436 -0.1196  0.2325
   52GLOH   H02 8898   4.589   2.571   0.236  1.1980  1.0698 -0.4356
   52GLOH   H08 8899   4.550   2.734   0.206 -0.1555 -0.3817 -0.2781
   52GLOH    C2 8900   4.380   2.628   0.211  0.2060  0.0288  0.3972
   52GLOH   H04 8901   4.310   2.709   0.234  0.9214  0.0147  2.7619
   52GLOH    O2 8902   4.383   2.602   0.065 -0.0350  0.1216 -0.2364
   52GLOH   H05 8903   4.369   2.691   0.029  1.7605  0.3232 -0.5221
   52GLOH    C3 8904   4.317   2.506   0.287 -0.0995 -0.4014  0.1962
   52GLOH   H06 8905   4.373   2.415   0.265 -0.2134 -0.3208 -0.4325
   52GLOH   H07 8906   4.214   2.501   0.254 -0.5984  0.7126  1.5241
   52GLOH    O3 8907   4.317   2.527   0.431 -0.0268 -1.0148 -0.6033
   52GLOH   H01 8908   4.385   2.595   0.445 -0.7738 -0.1635 -1.0487
   53GLOH   H03 8909   3.627   3.186   1.369 -1.5989 -0.9939  0.2284
   53GLOH    O1 8910   3.663   3.116   1.426  0.0548  0.1589  0.6398
   53GLOH    C1 8911   3.614   2.990   1.373  0.3925 -0.8455  0.2232
   53GLOH   H02 8912   3.524   3.013   1.316  0.6785 -2.3925 -0.8837
   53GLOH   H08 8913   3.592   2.910   1.443  0.9116 -1.4810 -0.3385
   53GLOH    C2 8914   3.718   2.934   1.267 -0.4193  0.2153 -0.5837
   53GLOH   H04 8915   3.809   2.933   1.328  0.2434  3.5846 -1.4047
   53GLOH    O2 8916   3.696   2.806   1.222  0.4816 -0.0140 -0.1260
   53GLOH   H05 8917   3.733   2.743   1.286  1.7412 -2.3129 -3.0033
   53GLOH    C3 8918   3.749   3.033   1.148 -0.1785  0.7105  0.1617
   53GLOH   H06 8919   3.803   2.974   1.074 -0.8298  0.1005  0.1581
   53GLOH   H07 8920   3.819   3.111   1.178  1.5528 -1.1589  1.1188
   53GLOH    O3 8921   3.627   3.088   1.082  0.0928  1.0456 -0.3967
   53GLOH   H01 8922   3.584   3.027   1.019 -3.9508  3.0111  0.3334
   54GLOH   H03 8923   3.278   2.594   1.472  1.4090 -0.0516 -0.4806
   54GLOH    O1 8924   3.267   2.654   1.548 -0.5060 -0.9447 -0.0349
   54GLOH    C1 8925   3.156   2.741   1.530  0.0093 -0.6169  0.1463
   54GLOH   H02 8926   3.075   2.716   1.598 -1.9804  1.4935 -1.3720
   54GLOH   H08 8927   3.109   2.732   1.432 -1.0998  2.5066  0.3503
   54GLOH    C2 8928   3.184   2.889   1.552  0.1573 -1.0305 -0.5576
   54GLOH   H04 8929   3.091   2.946   1.539  1.5979  1.0851 -1.9979
   54GLOH    O2 8930   3.231   2.901   1.690  0.1960  0.6594 -0.4552
   54GLOH   H05 8931   3.315   2.852   1.695 -0.6317 -0.8399 -0.9480
   54GLOH    C3 8932   3.286   2.935   1.447  0.1292  0.2120  0.0234
   54GLOH   H06 8933   3.369   2.868   1.466 -0.9541 -1.0461  0.3793
   54GLOH   H07 8934   3.317   3.037   1.471  1.4000 -0.2818  0.5580
   54GLOH    O3 8935   3.257   2.923   1.306 -0.3907 -0.3122  0.1743
   54GLOH   H01 8936   3.321   2.862   1.266  0.7754  0.9156  0.1153
   55GLOH   H03 8937   3.016   1.365   1.168  0.3187  1.6518  0.7845
   55GLOH    O1 8938   3.110   1.340   1.158 -0.1630  0.1242 -0.0779
   55GLOH    C1 8939   3.119   1.200   1.187 -0.2047  0.3413  0.4735
   55GLOH   H02 8940   3.069   1.141   1.110 -0.3777 -0.4272  1.1806
   55GLOH   H08 8941   3.066   1.189   1.281 -0.3076  2.9350  0.7716
   55GLOH    C2 8942   3.267   1.161   1.200  0.0849  0.2309 -0.4290
   55GLOH   H04 8943   3.323   1.240   1.253  1.1081  0.2205 -1.4622
   55GLOH    O2 8944   3.277   1.034   1.263 -0.0951  0.2508  0.2878
   55GLOH   H05 8945   3.200   0.978   1.282  0.9571 -1.2794  0.1738
   55GLOH    C3 8946   3.344   1.151   1.068 -0.3577  0.3409  0.3331
   55GLOH   H06 8947   3.337   1.063   1.004  2.6481  1.0724 -1.0912
   55GLOH   H07 8948   3.451   1.155   1.089  0.1512 -2.4929 -1.4700
   55GLOH    O3 8949   3.308   1.267   0.985  0.3746 -0.0288  0.1529
   55GLOH   H01 8950   3.245   1.314   1.044  0.6474 -2.0386  2.1289
   56GLOH   H03 8951   3.260   1.472   2.542 -1.3982  1.3837  0.8462
   56GLOH    O1 8952   3.332   1.515   2.591  0.1774  0.3630 -0.5121
   56GLOH    C1 8953   3.288   1.628   2.666  0.5056  0.2221 -0.2295
   56GLOH   H02 8954   3.357   1.653   2.746 -0.4903 -0.8451  0.9599
   56GLOH   H08 8955   3.192   1.608   2.713  0.9535 -0.6184  0.3156
   56GLOH    C2 8956   3.269   1.752   2.576 -0.2963  0.8249 -0.5325
   56GLOH   H04 8957   3.184   1.732   2.508  0.4412 -2.6480 -0.5049
   56GLOH    O2 8958   3.217   1.866   2.659  0.5130  0.4610  0.3464
   56GLOH   H05 8959   3.171   1.929   2.602 -0.0979  0.1087  0.4491
   56GLOH    C3 8960   3.390   1.780   2.495 -0.0796 -0.2572  0.0204
   56GLOH   H06 8961   3.426   1.697   2.433  1.4714  0.3730  0.0475
   56GLOH   H07 8962   3.476   1.800   2.559 -0.4380  1.3826  0.0146
   56GLOH    O3 8963   3.379   1.893   2.406 -0.1318 -0.2395 -0.2428
   56GLOH   H01 8964   3.422   1.964   2.457 -0.2219 -0.3798  0.0349
   57GLOH   H03 8965   2.781   5.084   0.494  1.5143 -0.1051 -2.6591
   57GLOH    O1 8966   2.832   5.167   0.506 -0.0453  0.5184 -0.0103
   57GLOH    C1 8967   2.962   5.130   0.558  0.4033 -0.3944 -0.4201
   57GLOH   H02 8968   3.011   5.063   0.488 -2.1018 -0.2592 -2.3867
   57GLOH   H08 8969   2.958   5.064   0.645 -1.2052 -0.9122 -0.8728
   57GLOH    C2 8970   3.048   5.252   0.594  0.0444  0.1412 -0.3758
   57GLOH   H04 8971   2.983   5.305   0.666  1.7775 -1.6284  2.6114
   57GLOH    O2 8972   3.170   5.224   0.660 -0.2001  0.1355 -0.6067
   57GLOH   H05 8973   3.144   5.194   0.749  2.4385 -1.7380 -0.3956
   57GLOH    C3 8974   3.087   5.332   0.469  0.3714 -0.2496  0.2102
   57GLOH   H06 8975   3.140   5.264   0.403  1.1740  1.4235 -0.9140
   57GLOH   H07 8976   3.158   5.408   0.501 -1.0737  0.1288  2.5929
   57GLOH    O3 8977   2.967   5.387   0.407 -0.4838 -1.0428 -0.0920
   57GLOH   H01 8978   2.893   5.349   0.458  0.0555 -0.7298  0.9457
   58GLOH   H03 8979   4.653   2.552   1.378  0.6309 -0.6846 -0.9826
   58GLOH    O1 8980   4.600   2.617   1.329 -0.4523 -0.5440  0.3470
   58GLOH    C1 8981   4.645   2.640   1.197  0.0107 -0.1536 -0.6049
   58GLOH   H02 8982   4.634   2.548   1.139 -1.3359 -0.5038  0.1966
   58GLOH   H08 8983   4.754   2.647   1.196  0.0436 -0.2468  1.0048
   58GLOH    C2 8984   4.576   2.756   1.126 -0.3347  0.6111 -0.5700
   58GLOH   H04 8985   4.594   2.848   1.183  1.8980 -0.4164  0.4489
   58GLOH    O2 8986   4.629   2.775   0.996  0.4354 -0.7341  0.2972
   58GLOH   H05 8987   4.632   2.688   0.953  0.2664 -0.3823 -0.4310
   58GLOH    C3 8988   4.422   2.719   1.129 -0.5450 -0.3461  0.5337
   58GLOH   H06 8989   4.410   2.633   1.063 -1.0526  0.5373 -0.5240
   58GLOH   H07 8990   4.362   2.794   1.077 -0.0286 -1.1289 -1.2155
   58GLOH    O3 8991   4.363   2.694   1.252  0.2203  0.1655  0.1951
   58GLOH   H01 8992   4.429   2.653   1.311 -0.4913 -2.3970 -0.7005
   59GLOH   H03 8993   4.224   4.741   1.085 -0.1086  0.0880  0.5385
   59GLOH    O1 8994   4.244   4.666   1.144 -0.7753 -0.4354  0.1010
   59GLOH    C1 8995   4.125   4.582   1.157 -0.0946  0.5893 -0.2763
   59GLOH   H02 8996   4.146   4.498   1.222  0.3386 -0.3559 -1.6172
   59GLOH   H08 8997   4.107   4.541   1.058 -1.8674 -1.4240  0.8473
   59GLOH    C2 8998   4.005   4.659   1.205 -0.1647  0.0899 -0.0314
   59GLOH   H04 8999   3.991   4.740   1.132  0.1755  1.0331  0.9352
   59GLOH    O2 9000   3.882   4.582   1.217  0.6002  0.5182  0.3926
   59GLOH   H05 9001   3.844   4.560   1.130 -0.3528 -1.5980  1.3010
   59GLOH    C3 9002   4.035   4.734   1.338  0.3369  0.2557  0.0612
   59GLOH   H06 9003   4.056   4.654   1.409 -1.1971 -1.3609 -1.3016
   59GLOH   H07 9004   3.939   4.778   1.364  0.9887  0.6534  1.9475
   59GLOH    O3 9005   4.139   4.831   1.341 -0.5271 -0.0610 -0.2612
   59GLOH   H01 9006   4.222   4.784   1.362 -2.0748 -2.0126  1.7300
   60GLOH   H03 9007   3.677   2.472  -0.069  1.2118 -0.6478  0.5876
   60GLOH    O1 9008   3.599   2.427  -0.031  0.1919  0.2197 -0.4571
   60GLOH    C1 9009   3.464   2.460  -0.085 -0.1679  0.4690  0.2362
   60GLOH   H02 9010   3.397   2.374  -0.085  0.3852  0.0322  0.2735
   60GLOH   H08 9011   3.464   2.495  -0.188 -0.3731  1.9238  0.7248
   60GLOH    C2 9012   3.398   2.572  -0.005 -0.8762 -0.2725  0.3813
   60GLOH   H04 9013   3.470   2.655  -0.002  0.9757 -1.7839 -0.2404
   60GLOH    O2 9014   3.270   2.605  -0.061 -0.1848  0.5361  0.1463
   60GLOH   H05 9015   3.279   2.671  -0.131  0.3126  1.2033  0.8366
   60GLOH    C3 9016   3.369   2.531   0.142 -0.3949  0.5461 -0.1113
   60GLOH   H06 9017   3.271   2.485   0.157 -0.5924  0.8432 -0.4670
   60GLOH   H07 9018   3.369   2.625   0.197 -0.6088  0.1226  0.6191
   60GLOH    O3 9019   3.469   2.446   0.201 -0.0025  0.0230 -0.4052
   60GLOH   H01 9020   3.524   2.420   0.125 -1.5692  0.6475 -1.8036
   61GLOH   H03 9021   2.501   1.864   1.543  0.4904  0.9842  0.7116
   61GLOH    O1 9022   2.550   1.875   1.459 -0.7060  0.2483 -0.1003
   61GLOH    C1 9023   2.635   1.761   1.448 -0.5233  0.8361 -0.0272
   61GLOH   H02 9024   2.629   1.717   1.348  1.2469  1.9817 -0.6703
   61GLOH   H08 9025   2.610   1.674   1.509  1.1696 -0.4853 -1.1836
   61GLOH    C2 9026   2.783   1.801   1.458  0.3773  0.5990  0.1366
   61GLOH   H04 9027   2.821   1.835   1.555 -0.1783 -0.6393  0.8000
   61GLOH    O2 9028   2.863   1.677   1.441 -0.3635  0.1635 -0.2056
   61GLOH   H05 9029   2.957   1.697   1.456 -0.2367  0.9130 -1.9415
   61GLOH    C3 9030   2.819   1.904   1.354 -0.0960  0.2804  0.2260
   61GLOH   H06 9031   2.921   1.937   1.378  0.2556  0.7835 -1.8861
   61GLOH   H07 9032   2.755   1.992   1.352 -0.2710  0.1509  0.1704
   61GLOH    O3 9033   2.834   1.856   1.221 -0.0264  0.4091  0.7192
   61GLOH   H01 9034   2.897   1.782   1.222  0.6066  0.8522 -2.3040
   62GLOH   H03 9035   4.356   1.831   2.295 -0.9987  2.2871  0.9339
   62GLOH    O1 9036   4.305   1.853   2.215 -0.4179 -0.5064 -0.2843
   62GLOH    C1 9037   4.260   1.729   2.150  0.8005  0.3172  0.3326
   62GLOH   H02 9038   4.216   1.662   2.224 -0.2483  0.9093  0.2468
   62GLOH   H08 9039   4.350   1.677   2.117  0.0995 -0.5475 -0.2237
   62GLOH    C2 9040   4.162   1.746   2.030  0.2917  0.4029 -0.5309
   62GLOH   H04 9041   4.217   1.817   1.967 -0.6537  1.7185  0.1096
   62GLOH    O2 9042   4.112   1.634   1.954 -0.3945  0.2524  0.3550
   62GLOH   H05 9043   4.125   1.548   1.998 -0.0685 -0.5040 -1.1877
   62GLOH    C3 9044   4.042   1.826   2.072  0.4337 -0.5244  0.2281
   62GLOH   H06 9045   3.993   1.778   2.157  0.7745  1.2789  1.4883
   62GLOH   H07 9046   3.971   1.841   1.991  1.4236 -0.9100 -0.7277
   62GLOH    O3 9047   4.087   1.955   2.124  0.4157 -0.0456 -0.1396
   62GLOH   H01 9048   4.168   1.934   2.172  0.1034  0.2540  0.5222
   63GLOH   H03 9049   4.039   3.609   0.895  1.1642  1.6127  0.9576
   63GLOH    O1 9050   4.034   3.554   0.975 -0.1776  0.1165 -0.1160
   63GLOH    C1 9051   3.974   3.432   0.936  0.4948 -0.5006  0.2221
   63GLOH   H02 9052   4.054   3.370   0.895 -1.4327 -1.6602 -1.8396
   63GLOH   H08 9053   3.900   3.447   0.859 -0.4642  0.7170  1.3600
   63GLOH    C2 9054   3.903   3.355   1.055  0.2023  0.2043 -0.8576
   63GLOH   H04 9055   3.846   3.269   1.017  0.6274 -0.4459 -0.0321
   63GLOH    O2 9056   4.000   3.296   1.142  0.1830  0.1644 -0.2037
   63GLOH   H05 9057   3.951   3.266   1.220  0.5622 -2.1212 -0.7938
   63GLOH    C3 9058   3.795   3.437   1.136 -0.8772 -0.0843  0.3859
   63GLOH   H06 9059   3.842   3.531   1.168 -0.7380 -0.1517  0.3787
   63GLOH   H07 9060   3.759   3.388   1.227 -2.1634 -0.3755 -0.2745
   63GLOH    O3 9061   3.682   3.473   1.050  0.1839 -0.0538 -1.2543
   63GLOH   H01 9062   3.647   3.556   1.087 -0.2013 -1.2820  1.2016
   64GLOH   H03 9063   4.431   4.673   1.159 -0.7120  3.3937  0.8971
   64GLOH    O1 9064   4.508   4.662   1.217  0.1087 -0.2065 -0.7096
   64GLOH    C1 9065   4.578   4.790   1.236 -1.0250 -0.1438 -0.5106
   64GLOH   H02 9066   4.684   4.771   1.218 -0.4114  1.2234  1.4973
   64GLOH   H08 9067   4.566   4.821   1.340  2.8970  1.3737 -0.4146
   64GLOH    C2 9068   4.537   4.902   1.136  0.1655 -0.1479 -0.6630
   64GLOH   H04 9069   4.432   4.929   1.157  0.2814 -1.0874  1.2792
   64GLOH    O2 9070   4.615   5.019   1.177  0.0430 -0.2593  0.4108
   64GLOH   H05 9071   4.556   5.096   1.186  0.3985  0.1250 -0.4553
   64GLOH    C3 9072   4.560   4.865   0.983  0.1674 -0.2122 -0.2210
   64GLOH   H06 9073   4.663   4.848   0.955  0.0473  0.4046 -1.0682
   64GLOH   H07 9074   4.536   4.952   0.923 -0.2374 -0.9109 -1.0841
   64GLOH    O3 9075   4.472   4.761   0.940 -0.1811 -0.0697 -0.2972
   64GLOH   H01 9076   4.527   4.691   0.901  0.0167 -0.4346  0.6098
   65GLOH   H03 9077   3.708   1.313   0.258 -0.6223 -0.4886 -1.3552
   65GLOH    O1 9078   3.804   1.325   0.255 -0.5136 -0.7357  0.3824
   65GLOH    C1 9079   3.852   1.457   0.293 -0.0778 -0.2649  1.0411
   65GLOH   H02 9080   3.961   1.459   0.285 -0.1149 -1.9688 -0.5338
   65GLOH   H08 9081   3.819   1.484   0.393 -1.0151 -0.8020  0.8772
   65GLOH    C2 9082   3.814   1.560   0.185  0.4445 -0.0522  0.4192
   65GLOH   H04 9083   3.842   1.520   0.087 -1.5504  0.6111 -0.4425
   65GLOH    O2 9084   3.674   1.588   0.167  0.0501 -0.1943 -0.5522
   65GLOH   H05 9085   3.640   1.535   0.093  1.7287 -1.5193 -0.4078
   65GLOH    C3 9086   3.901   1.684   0.208  0.5142  0.5043  0.3370
   65GLOH   H06 9087   3.867   1.764   0.142  3.3849  1.5112  0.0019
   65GLOH   H07 9088   4.004   1.662   0.183  0.4815  1.3218 -0.5305
   65GLOH    O3 9089   3.885   1.719   0.342  0.0206 -0.0977  0.5759
   65GLOH   H01 9090   3.803   1.767   0.367  1.0361  0.2879  3.3848
   66GLOH   H03 9091   2.725   1.316   0.523  0.6694  0.4767  0.4615
   66GLOH    O1 9092   2.687   1.371   0.594 -0.1913  0.3277  0.1243
   66GLOH    C1 9093   2.773   1.356   0.714 -0.1272  0.9220 -0.6220
   66GLOH   H02 9094   2.716   1.361   0.807 -0.6056 -1.5228 -0.7542
   66GLOH   H08 9095   2.843   1.439   0.713 -0.8219  1.5301  0.5103
   66GLOH    C2 9096   2.836   1.213   0.722 -0.1081 -0.9701  0.1744
   66GLOH   H04 9097   2.901   1.210   0.634  0.4609  0.2055  0.5334
   66GLOH    O2 9098   2.915   1.199   0.843  0.4075 -0.2274 -0.5773
   66GLOH   H05 9099   2.978   1.273   0.842 -2.0516  1.9147 -2.3004
   66GLOH    C3 9100   2.727   1.101   0.715  0.2765  0.1661  0.5475
   66GLOH   H06 9101   2.781   1.007   0.728 -0.8287 -0.7763 -1.5418
   66GLOH   H07 9102   2.698   1.100   0.610  2.3406  2.8864 -0.1040
   66GLOH    O3 9103   2.618   1.111   0.804 -0.2619  0.1585  0.0562
   66GLOH   H01 9104   2.547   1.169   0.773 -0.4599 -0.9066 -1.5871
   67GLOH   H03 9105   3.841   2.499   2.013  0.5027  0.0647 -0.4681
   67GLOH    O1 9106   3.815   2.438   1.942  0.0484 -0.1259 -0.1453
   67GLOH    C1 9107   3.825   2.514   1.824  0.3324  0.0971 -0.1581
   67GLOH   H02 9108   3.801   2.438   1.749 -1.9468 -0.1392  0.7963
   67GLOH   H08 9109   3.928   2.547   1.805  0.4104  0.4015  0.7762
   67GLOH    C2 9110   3.727   2.635   1.803  0.1559 -0.4550  0.4525
   67GLOH   H04 9111   3.761   2.679   1.707 -1.8661 -1.2007 -0.6427
   67GLOH    O2 9112   3.594   2.587   1.801  0.3601 -0.1282  0.1256
   67GLOH   H05 9113   3.589   2.498   1.762  0.7492  0.4707 -1.3452
   67GLOH    C3 9114   3.742   2.731   1.917 -0.7407 -0.2483 -0.1678
   67GLOH   H06 9115   3.698   2.700   2.011 -0.9773  0.7270  0.0512
   67GLOH   H07 9116   3.683   2.819   1.889  1.1141  1.0833 -0.0383
   67GLOH    O3 9117   3.881   2.764   1.932  0.6802  0.7765 -0.9135
   67GLOH   H01 9118   3.908   2.720   2.015 -0.5606  0.8301 -0.4627
   68GLOH   H03 9119   4.371   1.080   0.485 -1.1018  0.0414  0.0614
   68GLOH    O1 9120   4.352   1.043   0.573 -0.0306 -0.3199  0.1522
   68GLOH    C1 9121   4.231   0.970   0.563  0.3396 -0.7753 -1.1543
   68GLOH   H02 9122   4.148   1.040   0.576  0.2700 -1.0629 -0.0058
   68GLOH   H08 9123   4.236   0.894   0.641  0.2773  0.4347  0.0571
   68GLOH    C2 9124   4.200   0.905   0.426 -0.7289  0.3252 -0.1181
   68GLOH   H04 9125   4.277   0.828   0.412  0.0106  0.9540  0.4086
   68GLOH    O2 9126   4.077   0.831   0.417  0.3918 -0.1985  0.4743
   68GLOH   H05 9127   4.077   0.760   0.484 -0.2396 -0.3972  0.2651
   68GLOH    C3 9128   4.207   1.018   0.320  0.1800 -0.0470  0.3851
   68GLOH   H06 9129   4.119   1.081   0.334  0.8239  1.1812 -0.9535
   68GLOH   H07 9130   4.189   0.979   0.220 -3.2194 -0.2663  1.0125
   68GLOH    O3 9131   4.330   1.104   0.332  0.0808 -0.2755 -0.8639
   68GLOH   H01 9132   4.313   1.191   0.291 -2.0026 -0.2063  0.1030
   69GLOH   H03 9133   3.678   5.478   1.125  0.0076  0.7159 -0.1240
   69GLOH    O1 9134   3.721   5.505   1.208 -0.2422 -0.1361  0.2864
   69GLOH    C1 9135   3.766   5.642   1.190 -0.6820  0.6350 -0.8470
   69GLOH   H02 9136   3.680   5.700   1.158 -1.3719  0.0394 -0.1022
   69GLOH   H08 9137   3.838   5.650   1.108  0.1126  1.4836 -0.0781
   69GLOH    C2 9138   3.826   5.694   1.318 -0.1214  0.2259 -0.4268
   69GLOH   H04 9139   3.888   5.611   1.355  0.1430  1.0377  1.0032
   69GLOH    O2 9140   3.917   5.809   1.300 -0.4099  0.2170  0.4441
   69GLOH   H05 9141   3.953   5.831   1.388  2.2888  0.9931 -0.7990
   69GLOH    C3 9142   3.721   5.719   1.433  0.4544  0.5123  0.3312
   69GLOH   H06 9143   3.690   5.823   1.431 -0.3584  0.2741 -2.6702
   69GLOH   H07 9144   3.768   5.705   1.530  0.2396  0.3784  0.4161
   69GLOH    O3 9145   3.602   5.631   1.414 -0.8752 -0.3454 -0.0825
   69GLOH   H01 9146   3.621   5.573   1.338 -1.1825 -1.9930  1.0539
   70GLOH   H03 9147   4.065  10.182   1.122  0.3441 -0.0597  0.7760
   70GLOH    O1 9148   4.107  10.107   1.077  0.3692  0.2927  0.2092
   70GLOH    C1 9149   4.129  10.138   0.937  0.2906  0.6682  0.1334
   70GLOH   H02 9150   4.210  10.076   0.899 -0.0951  0.3542 -0.1840
   70GLOH   H08 9151   4.165  10.240   0.924 -1.9047  1.3183 -1.1619
   70GLOH    C2 9152   4.010  10.111   0.834 -0.1654  0.4899 -0.5757
   70GLOH   H04 9153   4.041  10.132   0.730  1.3549  0.6502 -0.1024
   70GLOH    O2 9154   3.955   9.974   0.847  0.1006 -0.5302  0.3761
   70GLOH   H05 9155   4.021   9.913   0.883 -0.8150 -2.2106 -0.7302
   70GLOH    C3 9156   3.890  10.207   0.874 -0.3593 -0.2909 -0.3644
   70GLOH   H06 9157   3.857  10.175   0.972 -1.1049  0.7296 -0.2793
   70GLOH   H07 9158   3.801  10.190   0.813 -0.4930  1.8938 -0.8267
   70GLOH    O3 9159   3.929  10.346   0.879  0.1932 -0.4248 -0.4809
   70GLOH   H01 9160   3.952  10.374   0.789  2.7950  0.1566  0.3187
   71GLOH   H03 9161   3.227   4.387   1.861  3.3505 -1.3878 -1.5432
   71GLOH    O1 9162   3.201   4.442   1.784  0.1967 -0.3675  0.1778
   71GLOH    C1 9163   3.065   4.446   1.741 -0.1298  0.1616 -0.0274
   71GLOH   H02 9164   3.064   4.464   1.634  0.9657  0.1745 -0.0409
   71GLOH   H08 9165   3.018   4.538   1.778 -1.4728 -0.2066 -0.8158
   71GLOH    C2 9166   2.992   4.329   1.797  0.5760  0.9442 -0.2064
   71GLOH   H04 9167   2.988   4.341   1.906 -0.0918  2.0644 -0.3479
   71GLOH    O2 9168   2.858   4.313   1.740  0.2702  0.1303 -0.3038
   71GLOH   H05 9169   2.812   4.245   1.792 -1.6962  1.3569 -0.4030
   71GLOH    C3 9170   3.062   4.195   1.780  0.1541 -0.1648  0.1282
   71GLOH   H06 9171   2.996   4.108   1.772 -2.4081  1.7319 -0.0798
   71GLOH   H07 9172   3.124   4.170   1.867  0.2340  2.4767  0.8632
   71GLOH    O3 9173   3.145   4.193   1.665 -0.2955 -0.0560 -0.6513
   71GLOH   H01 9174   3.150   4.099   1.640 -0.2624  0.3439 -2.1802
   72GLOH   H03 9175   3.412  10.439   2.539 -0.3902 -0.8638 -1.0858
   72GLOH    O1 9176   3.346  10.396   2.598 -0.1195 -0.0844 -0.2099
   72GLOH    C1 9177   3.288  10.282   2.540 -0.0899  0.2381  0.0799
   72GLOH   H02 9178   3.186  10.312   2.517  0.3596  2.8181  1.2369
   72GLOH   H08 9179   3.279  10.193   2.601  1.7068 -0.0259 -0.0123
   72GLOH    C2 9180   3.356  10.239   2.409 -0.3060  0.5654  0.6301
   72GLOH   H04 9181   3.461  10.216   2.433  0.9794  2.7473 -2.6080
   72GLOH    O2 9182   3.294  10.119   2.363  0.1672  0.0198  0.9623
   72GLOH   H05 9183   3.276  10.117   2.267  0.8150  1.2055  0.8133
   72GLOH    C3 9184   3.360  10.353   2.302  0.7290  0.1007 -0.2233
   72GLOH   H06 9185   3.380  10.455   2.337 -2.4764 -0.1386  2.6837
   72GLOH   H07 9186   3.264  10.356   2.250 -0.1698 -2.3840  1.1966
   72GLOH    O3 9187   3.453  10.318   2.197  0.0206  0.0795  0.0245
   72GLOH   H01 9188   3.499  10.401   2.174 -0.2198  0.6058  1.4371
   73GLOH   H03 9189   3.657   9.841   1.588  0.4325 -0.1402 -0.0872
   73GLOH    O1 9190   3.647   9.874   1.679  0.1073  0.0606 -0.1920
   73GLOH    C1 9191   3.574   9.998   1.672 -0.2401  0.0011 -0.1548
   73GLOH   H02 9192   3.484   9.979   1.613 -0.0935  0.6050 -0.5791
   73GLOH   H08 9193   3.632  10.071   1.616 -3.7455  2.0416 -1.2703
   73GLOH    C2 9194   3.545  10.064   1.807  0.9020 -0.1346  0.3535
   73GLOH   H04 9195   3.484  10.150   1.776 -2.4732 -2.0000  1.6268
   73GLOH    O2 9196   3.462   9.992   1.905 -0.9620 -0.1576 -0.0614
   73GLOH   H05 9197   3.476   9.896   1.900  0.6653  0.0466  0.3482
   73GLOH    C3 9198   3.664  10.129   1.880 -0.4963  0.0515 -0.2073
   73GLOH   H06 9199   3.728  10.043   1.900  0.7850  0.8764 -0.6894
   73GLOH   H07 9200   3.637  10.166   1.979  2.8970  0.6245  0.5806
   73GLOH    O3 9201   3.733  10.238   1.817 -0.3853  0.0142  0.0602
   73GLOH   H01 9202   3.773  10.299   1.882 -0.4613 -0.6851  0.7772
   74GLOH   H03 9203   3.860   2.583   2.204  0.1916  1.0118 -0.6605
   74GLOH    O1 9204   3.936   2.591   2.143  0.2013 -0.0166 -0.7843
   74GLOH    C1 9205   4.053   2.635   2.220 -0.3574 -0.1266  1.0614
   74GLOH   H02 9206   4.128   2.675   2.152 -0.8415  0.1618  0.6970
   74GLOH   H08 9207   4.102   2.550   2.269  0.1989  0.9968  2.4768
   74GLOH    C2 9208   4.016   2.747   2.319 -0.4680  0.0744  0.1831
   74GLOH   H04 9209   3.957   2.700   2.398 -0.0718 -0.1409  0.3510
   74GLOH    O2 9210   4.140   2.790   2.372 -0.6294 -0.4338 -0.5422
   74GLOH   H05 9211   4.172   2.722   2.433 -3.6463 -0.1361  1.4954
   74GLOH    C3 9212   3.940   2.866   2.249 -0.0407  0.8770  0.9642
   74GLOH   H06 9213   3.866   2.830   2.177  0.1468  0.8419  0.7879
   74GLOH   H07 9214   4.009   2.920   2.185 -0.7823  0.8587  0.1304
   74GLOH    O3 9215   3.883   2.956   2.343 -0.3336  0.2701 -0.3776
   74GLOH   H01 9216   3.867   3.035   2.289  0.4528  1.8581  1.6730
   75GLOH   H03 9217   3.539   3.058   0.840 -1.1291  0.6595  3.7481
   75GLOH    O1 9218   3.528   3.150   0.809  0.4267 -0.5891 -0.7849
   75GLOH    C1 9219   3.660   3.203   0.782  0.1602 -0.4681  0.2767
   75GLOH   H02 9220   3.740   3.130   0.795 -0.8205 -1.9445 -1.6954
   75GLOH   H08 9221   3.667   3.277   0.862  0.1410  0.0397 -0.1895
   75GLOH    C2 9222   3.675   3.281   0.655  0.4088 -0.1298 -0.7821
   75GLOH   H04 9223   3.611   3.370   0.659  0.7399  0.0897 -0.3630
   75GLOH    O2 9224   3.811   3.322   0.637  0.4400  0.2857 -0.0744
   75GLOH   H05 9225   3.809   3.419   0.644 -1.7611  0.2810 -0.4391
   75GLOH    C3 9226   3.623   3.203   0.535  0.2838  0.0872  0.2480
   75GLOH   H06 9227   3.674   3.108   0.514 -0.0061  0.3501 -1.7770
   75GLOH   H07 9228   3.649   3.266   0.449  0.2671  0.4771  0.5292
   75GLOH    O3 9229   3.477   3.193   0.555  0.0073 -0.5786 -0.3605
   75GLOH   H01 9230   3.457   3.155   0.642  0.2193  2.6995  1.2019
   76GLOH   H03 9231   4.948   4.692   0.417  0.4112 -0.4911  0.8314
   76GLOH    O1 9232   4.942   4.748   0.497  0.1923  0.6190  0.0531
   76GLOH    C1 9233   4.865   4.674   0.591  0.6461 -0.3491 -0.2480
   76GLOH   H02 9234   4.761   4.707   0.585  0.3129 -0.6518  3.1027
   76GLOH   H08 9235   4.893   4.697   0.694 -0.5166 -0.9591  0.2089
   76GLOH    C2 9236   4.887   4.527   0.568 -0.1025 -0.2684 -0.0400
   76GLOH   H04 9237   4.994   4.515   0.590  0.2156  0.2854 -1.2375
   76GLOH    O2 9238   4.805   4.450   0.662 -0.1964 -0.5826 -0.1467
   76GLOH   H05 9239   4.837   4.358   0.661  0.2939 -0.4139 -0.3444
   76GLOH    C3 9240   4.845   4.486   0.426 -0.5973 -0.4556  0.1873
   76GLOH   H06 9241   4.739   4.502   0.406 -0.7510 -0.4117  0.9988
   76GLOH   H07 9242   4.860   4.379   0.407 -2.2470 -0.4597 -1.1942
   76GLOH    O3 9243   4.920   4.551   0.326 -0.4937 -1.2481  0.4389
   76GLOH   H01 9244   4.857   4.556   0.252  0.1790  0.4942 -0.0512
   77GLOH   H03 9245   3.516  10.329   0.296  0.7321 -1.0883 -0.0825
   77GLOH    O1 9246   3.591  10.362   0.350  0.4281 -0.1800 -0.2019
   77GLOH    C1 9247   3.614  10.265   0.453  0.0286 -0.6170 -0.0516
   77GLOH   H02 9248   3.639  10.310   0.549 -0.3078  0.8735 -0.6388
   77GLOH   H08 9249   3.707  10.216   0.425 -0.0844  0.7586 -3.0781
   77GLOH    C2 9250   3.491  10.171   0.472  0.3369  0.4830 -0.4277
   77GLOH   H04 9251   3.470  10.123   0.376  0.3766  0.3288 -0.3601
   77GLOH    O2 9252   3.528  10.074   0.575  0.3153 -0.3535  0.7034
   77GLOH   H05 9253   3.508  10.100   0.666  0.8749  0.8702  0.4871
   77GLOH    C3 9254   3.375  10.253   0.530  0.1842  0.3858  0.8531
   77GLOH   H06 9255   3.411  10.312   0.615  0.9596  1.8986 -0.4938
   77GLOH   H07 9256   3.296  10.180   0.547 -1.0439  1.5575  0.2643
   77GLOH    O3 9257   3.319  10.353   0.443 -0.0009 -0.3381 -0.2437
   77GLOH   H01 9258   3.261  10.307   0.380  1.2950  0.5651 -2.1541
   78GLOH   H03 9259   3.942   3.248  -0.071  3.2255 -1.1668  1.8315
   78GLOH    O1 9260   4.009   3.268  -0.139  0.6866 -0.2259 -0.4899
   78GLOH    C1 9261   3.945   3.309  -0.259  0.5443 -0.7133  0.5837
   78GLOH   H02 9262   3.871   3.233  -0.284 -0.0223 -0.0950  0.3607
   78GLOH   H08 9263   4.016   3.304  -0.342 -1.8318 -2.4494 -1.4260
   78GLOH    C2 9264   3.883   3.454  -0.274  0.1036  0.4957  0.1237
   78GLOH   H04 9265   3.820   3.470  -0.185 -0.0030 -0.4046  0.2200
   78GLOH    O2 9266   3.972   3.564  -0.269 -0.1340  0.0040  0.4344
   78GLOH   H05 9267   3.940   3.613  -0.192  1.2139  1.1305  0.3017
   78GLOH    C3 9268   3.788   3.460  -0.394  0.2424  0.6222  0.4669
   78GLOH   H06 9269   3.720   3.375  -0.392  0.0364  0.7278 -1.3470
   78GLOH   H07 9270   3.835   3.449  -0.492  0.1565  2.1187  0.2360
   78GLOH    O3 9271   3.713   3.579  -0.403 -0.0779 -0.3583 -0.2472
   78GLOH   H01 9272   3.776   3.652  -0.393  0.1666 -0.2826 -2.0754
   79GLOH   H03 9273   2.501   3.822   2.296 -1.7724 -1.0187 -0.5195
   79GLOH    O1 9274   2.501   3.885   2.221 -0.0565 -0.1904  0.1373
   79GLOH    C1 9275   2.372   3.850   2.158  0.4691  0.3595 -0.1247
   79GLOH   H02 9276   2.374   3.746   2.128  0.7496  0.6864 -1.2489
   79GLOH   H08 9277   2.349   3.907   2.068  0.3960  0.2073 -0.2022
   79GLOH    C2 9278   2.247   3.872   2.241  0.8360  0.1388 -0.3866
   79GLOH   H04 9279   2.238   3.976   2.277  1.4460 -0.2700  0.9662
   79GLOH    O2 9280   2.125   3.841   2.171 -0.0104 -0.2223 -0.1379
   79GLOH   H05 9281   2.090   3.916   2.119 -1.2307 -0.0819  0.8546
   79GLOH    C3 9282   2.248   3.786   2.369 -0.5777 -0.0598  0.0013
   79GLOH   H06 9283   2.234   3.682   2.339 -0.2096 -0.0530 -0.2058
   79GLOH   H07 9284   2.155   3.811   2.420  0.3324  1.7646  0.8464
   79GLOH    O3 9285   2.370   3.789   2.445 -0.9827  0.5211 -0.5552
   79GLOH   H01 9286   2.351   3.722   2.513 -0.0040 -1.0612 -1.8108
   80GLOH   H03 9287   3.698  10.271   1.417 -0.2876 -2.4995  0.7068
   80GLOH    O1 9288   3.686  10.268   1.320  0.2175  0.5031  0.5286
   80GLOH    C1 9289   3.650  10.393   1.256 -0.0178  0.0291  0.1255
   80GLOH   H02 9290   3.722  10.473   1.275  0.9273 -0.6705 -0.4468
   80GLOH   H08 9291   3.556  10.431   1.294 -1.0375 -1.9618 -0.3784
   80GLOH    C2 9292   3.630  10.383   1.106  0.2163  0.5303 -0.2338
   80GLOH   H04 9293   3.687  10.296   1.073 -0.0191 -0.4407  1.8663
   80GLOH    O2 9294   3.490  10.377   1.075 -0.8011 -0.2788  0.1561
   80GLOH   H05 9295   3.449  10.303   1.122  1.3315 -0.7188  1.3823
   80GLOH    C3 9296   3.691  10.504   1.030 -0.2928  0.1010  0.2936
   80GLOH   H06 9297   3.644  10.600   1.052  0.6876  0.6011  0.2496
   80GLOH   H07 9298   3.671  10.478   0.926 -0.9214 -3.0991  1.1589
   80GLOH    O3 9299   3.832  10.506   1.050  0.5784  0.1788  0.1111
   80GLOH   H01 9300   3.879  10.454   0.983  1.0747  1.1746 -0.3209
   81GLOH   H03 9301   4.921   4.114   1.806  0.8303  0.7305  1.3813
   81GLOH    O1 9302   4.999   4.120   1.748 -0.0401  0.1409  0.1291
   81GLOH    C1 9303   4.941   4.052   1.638  0.0230  0.0507  0.5390
   81GLOH   H02 9304   4.877   3.974   1.679  0.3575 -1.2929 -1.4183
   81GLOH   H08 9305   5.022   4.001   1.586  1.2034  1.4994  0.9230
   81GLOH    C2 9306   4.858   4.138   1.537 -0.0181 -0.8132 -0.4095
   81GLOH   H04 9307   4.902   4.238   1.539 -0.6950 -0.5229  0.0871
   81GLOH    O2 9308   4.843   4.069   1.410 -0.0313 -0.1793  0.2678
   81GLOH   H05 9309   4.799   4.128   1.346  0.8050 -0.6959 -0.7992
   81GLOH    C3 9310   4.717   4.168   1.589  0.0175 -0.6470 -0.0081
   81GLOH   H06 9311   4.735   4.221   1.683  1.9762 -0.9251 -0.2067
   81GLOH   H07 9312   4.667   4.074   1.609  1.1026 -0.6354  2.9572
   81GLOH    O3 9313   4.641   4.249   1.501 -0.4713 -0.0457  0.4664
   81GLOH   H01 9314   4.645   4.233   1.405 -0.2110  2.0110  0.1271
   82GLOH   H03 9315   3.532   1.280   0.345  2.2763  1.4466  0.3187
   82GLOH    O1 9316   3.543   1.263   0.250  0.1580  0.1867  0.2668
   82GLOH    C1 9317   3.482   1.136   0.215 -0.5827 -0.1908  0.0343
   82GLOH   H02 9318   3.391   1.124   0.274  0.4856 -0.3228  1.6739
   82GLOH   H08 9319   3.546   1.054   0.247 -0.3508  0.0382  0.1593
   82GLOH    C2 9320   3.458   1.118   0.064 -0.0140  0.0335 -0.7771
   82GLOH   H04 9321   3.390   1.034   0.047  0.9046 -1.4229  2.3323
   82GLOH    O2 9322   3.394   1.238   0.012  0.1263 -0.2415  0.0388
   82GLOH   H05 9323   3.464   1.305   0.009  1.2759 -1.2927  1.8476
   82GLOH    C3 9324   3.591   1.097  -0.006  0.2933  0.1501  0.5186
   82GLOH   H06 9325   3.638   1.195  -0.009  0.3925  0.0744 -1.1923
   82GLOH   H07 9326   3.555   1.075  -0.107 -1.3811  1.3170  0.8488
   82GLOH    O3 9327   3.670   0.987   0.046 -0.1624 -0.6850  0.1725
   82GLOH   H01 9328   3.719   1.026   0.120 -1.3130  2.6175 -0.7156
   83GLOH   H03 9329   2.869   4.012   2.593 -0.4924 -1.2230  2.2614
   83GLOH    O1 9330   2.894   3.926   2.556  0.2312 -0.0521 -0.1129
   83GLOH    C1 9331   2.973   3.935   2.438 -0.3273 -0.0769 -0.5416
   83GLOH   H02 9332   2.919   3.984   2.357  1.0088 -1.5194 -2.3375
   83GLOH   H08 9333   2.985   3.834   2.399 -1.0514  0.3290 -1.8553
   83GLOH    C2 9334   3.106   4.020   2.454  0.2731 -0.5607  0.1535
   83GLOH   H04 9335   3.151   4.030   2.354  2.0313  0.6397  1.0484
   83GLOH    O2 9336   3.073   4.155   2.492 -0.0432 -0.2963  0.6843
   83GLOH   H05 9337   3.023   4.189   2.416 -0.0274 -0.8823  0.4101
   83GLOH    C3 9338   3.214   3.955   2.540 -0.3547  0.0279 -0.0431
   83GLOH   H06 9339   3.159   3.943   2.634 -0.9478  0.7738 -0.2880
   83GLOH   H07 9340   3.297   4.025   2.553 -0.4058 -0.0709  0.8935
   83GLOH    O3 9341   3.257   3.830   2.490  0.4300 -0.5657  0.2095
   83GLOH   H01 9342   3.291   3.832   2.399 -0.3629 -0.1965 -0.0784
   84GLOH   H03 9343   4.142   3.038   2.591  0.8407 -0.5046  0.9053
   84GLOH    O1 9344   4.135   2.982   2.670  0.6442 -0.2492  1.0693
   84GLOH    C1 9345   4.006   2.928   2.657  0.2455  0.1687 -0.4637
   84GLOH   H02 9346   4.017   2.853   2.578  0.8083  0.2889 -0.5043
   84GLOH   H08 9347   3.934   3.002   2.624  0.1614  0.6435  0.7697
   84GLOH    C2 9348   3.942   2.868   2.789  0.7135  0.1757 -0.0309
   84GLOH   H04 9349   3.913   2.959   2.844  0.9739 -1.5419  3.0806
   84GLOH    O2 9350   3.824   2.799   2.752 -0.1589  0.4150  0.2895
   84GLOH   H05 9351   3.789   2.753   2.830  1.7064 -1.7646 -0.0959
   84GLOH    C3 9352   4.044   2.798   2.878  0.1790 -0.6257 -0.1112
   84GLOH   H06 9353   4.122   2.874   2.888 -1.0421  0.5577  0.5902
   84GLOH   H07 9354   4.095   2.720   2.821  1.4676  0.5033 -0.5431
   84GLOH    O3 9355   3.999   2.761   3.008 -0.1564  0.0982 -0.3783
   84GLOH   H01 9356   3.927   2.816   3.044  1.7508  1.4684  1.4639
   85GLOH   H03 9357   4.688   2.428   1.860  0.2967  0.2127 -0.8670
   85GLOH    O1 9358   4.709   2.337   1.833  0.2114 -0.2024  0.4273
   85GLOH    C1 9359   4.842   2.327   1.785 -0.1885 -0.2329  0.9197
   85GLOH   H02 9360   4.850   2.235   1.727 -0.7938  0.3738 -0.1445
   85GLOH   H08 9361   4.916   2.320   1.864  1.6200 -1.0675 -0.8260
   85GLOH    C2 9362   4.868   2.441   1.683 -0.6368 -0.3304 -0.2382
   85GLOH   H04 9363   4.849   2.536   1.735 -0.2756 -2.0468  3.1918
   85GLOH    O2 9364   5.010   2.430   1.654 -0.1254 -0.0970 -0.1028
   85GLOH   H05 9365   5.037   2.490   1.583 -0.3788  1.2088  0.8794
   85GLOH    C3 9366   4.767   2.421   1.564 -0.3849  0.4496  0.7258
   85GLOH   H06 9367   4.672   2.441   1.612  0.6261  1.1210  2.4963
   85GLOH   H07 9368   4.780   2.319   1.527 -2.5170 -0.4931  2.4840
   85GLOH    O3 9369   4.801   2.509   1.455  0.9675  0.4263 -0.5293
   85GLOH   H01 9370   4.891   2.542   1.470  0.4979  0.6656  2.0181
   86GLOH   H03 9371   3.434   5.329   0.096 -0.7239  1.2886  2.5006
   86GLOH    O1 9372   3.426   5.242   0.139  0.5600 -0.1017  0.0228
   86GLOH    C1 9373   3.430   5.270   0.281 -0.8085  0.1974 -0.4094
   86GLOH   H02 9374   3.337   5.306   0.326  0.4567  3.3323 -0.1870
   86GLOH   H08 9375   3.504   5.349   0.292  2.4812 -2.8109  0.0047
   86GLOH    C2 9376   3.487   5.154   0.366  0.8850  0.0803 -0.2777
   86GLOH   H04 9377   3.589   5.143   0.326  1.3484  1.7570  0.4077
   86GLOH    O2 9378   3.507   5.197   0.499  0.4032 -0.3167 -0.0041
   86GLOH   H05 9379   3.470   5.127   0.557  0.4853  1.6416  2.5230
   86GLOH    C3 9380   3.394   5.033   0.348  0.0718 -0.4737  1.1127
   86GLOH   H06 9381   3.455   4.953   0.391 -0.8807 -1.1633  1.1917
   86GLOH   H07 9382   3.389   5.018   0.240  0.4247  2.0589  0.7122
   86GLOH    O3 9383   3.268   5.031   0.408  0.5712 -0.2031 -0.2595
   86GLOH   H01 9384   3.276   5.081   0.491 -0.6888  2.2917 -1.5753
   87GLOH   H03 9385   3.611   5.319   2.367 -1.4831 -0.8114  1.1622
   87GLOH    O1 9386   3.548   5.383   2.330  0.1429  0.2003  0.0828
   87GLOH    C1 9387   3.519   5.319   2.204  1.0253  0.7504  0.5756
   87GLOH   H02 9388   3.427   5.356   2.160  0.4449 -1.3786 -0.0705
   87GLOH   H08 9389   3.498   5.212   2.214  3.1958  0.2889  0.5522
   87GLOH    C2 9390   3.629   5.347   2.108  0.0011  0.7252  0.7131
   87GLOH   H04 9391   3.722   5.295   2.135 -1.1688 -1.4375  0.6826
   87GLOH    O2 9392   3.591   5.296   1.979  0.1174  0.3922 -0.3015
   87GLOH   H05 9393   3.509   5.339   1.951 -0.7255 -0.2942  1.0231
   87GLOH    C3 9394   3.672   5.493   2.092 -0.0318 -0.1079 -0.6259
   87GLOH   H06 9395   3.734   5.520   2.006  0.7676 -3.1747 -1.0435
   87GLOH   H07 9396   3.727   5.521   2.182 -2.4153  1.3016  0.4262
   87GLOH    O3 9397   3.555   5.577   2.075  0.1254 -0.3794 -0.4116
   87GLOH   H01 9398   3.522   5.602   2.163  1.4437 -0.8530  0.2201
   88GLOH   H03 9399   4.136   3.114   1.905  0.0119  0.1881  0.1355
   88GLOH    O1 9400   4.199   3.166   1.850  0.2682 -0.1150  0.1414
   88GLOH    C1 9401   4.169   3.308   1.838 -0.4874  0.9815 -0.7583
   88GLOH   H02 9402   4.244   3.359   1.899  0.2630  2.2676 -2.7053
   88GLOH   H08 9403   4.075   3.318   1.891  0.5556 -0.0282  1.3470
   88GLOH    C2 9404   4.164   3.361   1.693  0.6832 -0.0440 -0.1353
   88GLOH   H04 9405   4.083   3.309   1.640 -0.0050  0.4175  0.4558
   88GLOH    O2 9406   4.134   3.509   1.696  0.1267  0.6057  0.3978
   88GLOH   H05 9407   4.067   3.521   1.765  0.3503  1.3674  0.4769
   88GLOH    C3 9408   4.300   3.342   1.616 -0.2725  0.1579 -0.1114
   88GLOH   H06 9409   4.358   3.271   1.673 -2.6848 -2.7575 -1.1529
   88GLOH   H07 9410   4.354   3.437   1.606  0.2752 -0.0866  0.5227
   88GLOH    O3 9411   4.281   3.301   1.478 -0.2418  0.0885 -0.5325
   88GLOH   H01 9412   4.235   3.378   1.440 -0.2776  0.2548 -0.1476
   89GLOH   H03 9413   3.379   1.213   1.544  1.2028  0.5872  0.8863
   89GLOH    O1 9414   3.303   1.214   1.604  0.1714 -0.0537 -0.3896
   89GLOH    C1 9415   3.176   1.166   1.557  0.1525 -0.4350 -0.4367
   89GLOH   H02 9416   3.147   1.096   1.636 -0.8606  0.8557  0.3634
   89GLOH   H08 9417   3.184   1.113   1.463  1.9012  0.3703 -0.7509
   89GLOH    C2 9418   3.069   1.281   1.538  0.1447  0.4423  0.0748
   89GLOH   H04 9419   3.118   1.347   1.465  2.5528 -1.7356 -0.3627
   89GLOH    O2 9420   2.950   1.223   1.486 -0.1386 -0.4012 -0.0048
   89GLOH   H05 9421   2.886   1.296   1.481  1.0373  0.7727  1.8107
   89GLOH    C3 9422   3.045   1.354   1.673 -0.3381 -0.0542 -0.9533
   89GLOH   H06 9423   3.139   1.347   1.728 -0.2730 -2.5677 -1.2985
   89GLOH   H07 9424   2.971   1.293   1.725  0.2085  0.8188  0.8783
   89GLOH    O3 9425   3.004   1.492   1.663 -0.3282 -0.3907  0.1382
   89GLOH   H01 9426   3.051   1.542   1.594 -0.3981 -2.2438 -1.2959
   90GLOH   H03 9427   3.539   9.973   2.562  0.7716 -0.1388 -0.7011
   90GLOH    O1 9428   3.601  10.002   2.631  0.2139  0.0740 -0.2899
   90GLOH    C1 9429   3.637   9.892   2.714  0.3264  0.0899  0.0552
   90GLOH   H02 9430   3.735   9.853   2.689  1.2577  1.5387  1.3337
   90GLOH   H08 9431   3.557   9.820   2.695 -0.5425  1.1586 -0.4083
   90GLOH    C2 9432   3.629   9.932   2.865  0.3369  0.4041 -0.7703
   90GLOH   H04 9433   3.523   9.953   2.888  1.0471  0.8083  2.4095
   90GLOH    O2 9434   3.699   9.836   2.950  0.5219  0.6199  0.1407
   90GLOH   H05 9435   3.676   9.867   3.039 -1.7611 -0.2437 -0.0962
   90GLOH    C3 9436   3.697  10.068   2.894  0.0059 -0.3144  0.2267
   90GLOH   H06 9437   3.805  10.055   2.882 -0.2496 -2.3269 -0.0545
   90GLOH   H07 9438   3.693  10.102   2.997 -1.2076 -0.3339  0.1859
   90GLOH    O3 9439   3.654  10.177   2.820  0.3963 -0.0321  0.0542
   90GLOH   H01 9440   3.600  10.137   2.749 -0.4275  2.6303 -0.8515
   91GLOH   H03 9441   3.830   2.724   1.475 -2.5153  2.6410  1.5574
   91GLOH    O1 9442   3.908   2.762   1.518 -0.2887 -0.1564  0.1750
   91GLOH    C1 9443   4.020   2.689   1.468 -0.3781  0.3635  0.2736
   91GLOH   H02 9444   4.052   2.612   1.537  2.5962  0.9972 -0.3325
   91GLOH   H08 9445   4.102   2.759   1.451 -1.0388  0.7818 -1.3178
   91GLOH    C2 9446   3.998   2.631   1.329 -0.4518 -0.2778 -0.3820
   91GLOH   H04 9447   3.967   2.711   1.261 -0.9499  0.9267  1.2211
   91GLOH    O2 9448   4.124   2.577   1.281 -0.5149  0.3165  0.0852
   91GLOH   H05 9449   4.188   2.648   1.265 -1.1098  1.0645  0.9506
   91GLOH    C3 9450   3.879   2.532   1.322 -0.1555  0.2257 -0.8210
   91GLOH   H06 9451   3.899   2.445   1.384  1.5628  0.2802 -1.2782
   91GLOH   H07 9452   3.872   2.505   1.217 -0.1150 -0.7726 -0.5688
   91GLOH    O3 9453   3.759   2.594   1.371  0.0846  0.1758  0.4267
   91GLOH   H01 9454   3.692   2.530   1.341  2.0700 -0.8639 -1.8924
   92GLOH   H03 9455   2.690   2.490   1.678  0.5371  0.9149  0.4308
   92GLOH    O1 9456   2.698   2.526   1.588 -0.6635  0.1249 -0.0073
   92GLOH    C1 9457   2.621   2.649   1.585 -0.1974  0.4002  0.1866
   92GLOH   H02 9458   2.529   2.626   1.638  0.3780  2.1540  2.0076
   92GLOH   H08 9459   2.606   2.679   1.482  1.4881  1.6923  0.2988
   92GLOH    C2 9460   2.674   2.772   1.668 -1.1530  0.0676 -0.5819
   92GLOH   H04 9461   2.661   2.740   1.773  2.2311  0.5544  0.0384
   92GLOH    O2 9462   2.816   2.799   1.632 -0.5285 -0.2703 -0.4557
   92GLOH   H05 9463   2.865   2.810   1.715  1.1509  1.1835 -1.5960
   92GLOH    C3 9464   2.585   2.898   1.661  0.2260 -0.1728  0.1178
   92GLOH   H06 9465   2.504   2.849   1.714  0.7624  1.1023  2.1577
   92GLOH   H07 9466   2.561   2.926   1.558 -0.9705  0.5783  0.5994
   92GLOH    O3 9467   2.627   3.010   1.743 -0.0962 -0.2690 -0.2695
   92GLOH   H01 9468   2.666   2.976   1.825 -0.7011  0.6772  0.4142
   93GLOH   H03 9469   3.282   5.383   1.321  0.9105 -0.0972 -0.3500
   93GLOH    O1 9470   3.341   5.414   1.392  0.5795 -0.4553  0.0900
   93GLOH    C1 9471   3.467   5.336   1.374  0.2192 -0.0400 -0.5365
   93GLOH   H02 9472   3.548   5.397   1.416  0.1549  0.8647 -1.6731
   93GLOH   H08 9473   3.495   5.319   1.270 -1.5906  1.2926 -1.2664
   93GLOH    C2 9474   3.470   5.198   1.443  0.2997 -0.2629 -0.6004
   93GLOH   H04 9475   3.370   5.154   1.435 -0.0783  0.1437  1.7978
   93GLOH    O2 9476   3.568   5.116   1.381  0.1762 -0.3655 -0.3499
   93GLOH   H05 9477   3.648   5.130   1.435  0.2366  0.2090 -0.5837
   93GLOH    C3 9478   3.501   5.212   1.595 -0.0548 -0.2813  0.2482
   93GLOH   H06 9479   3.407   5.253   1.635 -0.2314  0.4089 -0.8640
   93GLOH   H07 9480   3.579   5.285   1.613  0.9091 -1.3088  0.2789
   93GLOH    O3 9481   3.535   5.092   1.668  0.3255 -0.2447 -0.1267
   93GLOH   H01 9482   3.494   5.015   1.626 -1.8749  0.9525 -0.2123
   94GLOH   H03 9483   2.494   3.005   2.550  2.5034  0.6304  0.0826
   94GLOH    O1 9484   2.544   2.921   2.558  0.5452 -0.5525  0.3094
   94GLOH    C1 9485   2.679   2.947   2.532  0.3438 -0.2063  0.3952
   94GLOH   H02 9486   2.725   3.021   2.597 -0.3346  1.0113 -0.5104
   94GLOH   H08 9487   2.692   2.984   2.431 -0.7574 -1.7451 -0.3380
   94GLOH    C2 9488   2.764   2.825   2.565  0.2561  0.3137  0.2648
   94GLOH   H04 9489   2.738   2.738   2.503  0.3259 -0.1511  0.8756
   94GLOH    O2 9490   2.901   2.857   2.536 -0.0021  0.3935  0.0541
   94GLOH   H05 9491   2.934   2.786   2.478  0.3168  0.2161  0.4501
   94GLOH    C3 9492   2.744   2.775   2.703 -0.2082  0.0156 -0.0184
   94GLOH   H06 9493   2.792   2.836   2.779 -0.0114 -1.3218  0.9570
   94GLOH   H07 9494   2.793   2.677   2.711  0.4749 -0.0949 -4.5376
   94GLOH    O3 9495   2.606   2.751   2.736 -0.4422  0.1425  0.3047
   94GLOH   H01 9496   2.563   2.817   2.678 -1.8656 -0.3442  0.7966
   95GLOH   H03 9497   3.881   4.501   2.387 -1.3263 -1.2592 -0.8580
   95GLOH    O1 9498   3.807   4.564   2.380 -0.0558  0.3104 -0.3648
   95GLOH    C1 9499   3.687   4.511   2.442 -0.7523 -0.2532 -0.1068
   95GLOH   H02 9500   3.643   4.431   2.383 -3.5250  1.4183 -0.4021
   95GLOH   H08 9501   3.617   4.592   2.465 -0.3342  0.4069 -1.1156
   95GLOH    C2 9502   3.713   4.450   2.575 -0.4144 -0.0407 -0.2702
   95GLOH   H04 9503   3.616   4.425   2.621 -1.3775  0.2424 -2.0915
   95GLOH    O2 9504   3.791   4.331   2.563 -0.2879  0.0752 -0.2212
   95GLOH   H05 9505   3.776   4.286   2.478  1.0506  1.3698 -1.1581
   95GLOH    C3 9506   3.780   4.549   2.671 -0.8329 -0.0175  0.2962
   95GLOH   H06 9507   3.878   4.576   2.634 -2.0354  1.4378 -1.9257
   95GLOH   H07 9508   3.781   4.496   2.766 -0.5232 -0.2948  0.1370
   95GLOH    O3 9509   3.711   4.673   2.690 -0.4839 -0.3114 -0.1697
   95GLOH   H01 9510   3.731   4.727   2.611 -0.2299  0.8234  0.6616
   96GLOH   H03 9511   2.683   1.381   1.588  0.3797 -2.1175 -0.8842
   96GLOH    O1 9512   2.636   1.338   1.662 -0.0331 -0.0440  0.0964
   96GLOH    C1 9513   2.698   1.213   1.695  0.0573 -0.6667 -0.2302
   96GLOH   H02 9514   2.745   1.204   1.793  0.2282 -1.6925 -0.4090
   96GLOH   H08 9515   2.774   1.188   1.622 -0.4674  2.2831 -1.8714
   96GLOH    C2 9516   2.600   1.089   1.697  0.0680 -0.2458  0.3219
   96GLOH   H04 9517   2.558   1.074   1.597  1.4138 -1.2439 -0.0978
   96GLOH    O2 9518   2.679   0.975   1.723  0.7479  0.0790  0.0468
   96GLOH   H05 9519   2.623   0.898   1.706  0.6270  0.3545 -0.8104
   96GLOH    C3 9520   2.486   1.113   1.796  0.1564  0.5080  0.3441
   96GLOH   H06 9521   2.528   1.120   1.896  0.8981  1.1974 -0.0122
   96GLOH   H07 9522   2.424   1.023   1.795 -0.1760  0.6886 -3.4464
   96GLOH    O3 9523   2.414   1.232   1.762 -0.0913  0.5324  0.1665
   96GLOH   H01 9524   2.479   1.295   1.725  1.2203 -1.7765 -1.5815
   97GLOH   H03 9525   3.017   5.006  -0.139 -1.0560  0.0991 -1.6615
   97GLOH    O1 9526   3.081   4.982  -0.208 -0.1518 -0.2444 -0.7280
   97GLOH    C1 9527   3.041   5.015  -0.344 -0.1758  0.2575  0.4054
   97GLOH   H02 9528   3.036   5.122  -0.366 -0.0643  0.2528  0.3544
   97GLOH   H08 9529   2.951   4.960  -0.370 -0.9361  1.5181  0.3027
   97GLOH    C2 9530   3.136   4.949  -0.444 -0.3291  0.1131  0.3602
   97GLOH   H04 9531   3.115   4.842  -0.461  1.9013 -0.7825  2.7875
   97GLOH    O2 9532   3.104   5.010  -0.570 -0.1943 -0.5195 -0.2839
   97GLOH   H05 9533   3.139   4.952  -0.639 -0.7907 -0.2207 -0.8487
   97GLOH    C3 9534   3.286   4.985  -0.419 -0.3491 -0.2115 -0.1646
   97GLOH   H06 9535   3.297   5.091  -0.440  1.7960 -0.7536 -1.9220
   97GLOH   H07 9536   3.349   4.931  -0.489 -2.1726 -1.2279 -1.0801
   97GLOH    O3 9537   3.341   4.955  -0.283  0.4788 -0.1140 -0.1346
   97GLOH   H01 9538   3.297   4.999  -0.208 -0.3756  0.0719 -0.7354
   98GLOH   H03 9539   2.756   4.605   1.899 -1.6109  1.5785  0.5109
   98GLOH    O1 9540   2.800   4.611   1.985 -0.2186  0.6533 -0.1134
   98GLOH    C1 9541   2.914   4.699   1.997 -0.0963 -0.4839  0.3751
   98GLOH   H02 9542   2.880   4.784   2.056  2.8384 -0.5911  2.3107
   98GLOH   H08 9543   2.940   4.730   1.896  1.0513 -0.2725  0.7298
   98GLOH    C2 9544   3.034   4.629   2.062  0.5149  0.2495  0.1841
   98GLOH   H04 9545   3.058   4.539   2.003 -0.1178  0.2622 -0.0947
   98GLOH    O2 9546   3.148   4.717   2.064 -0.2631 -0.1098  0.0563
   98GLOH   H05 9547   3.209   4.702   1.990 -0.2356 -1.6188  0.3842
   98GLOH    C3 9548   3.004   4.592   2.204  0.2541  0.7349  0.2060
   98GLOH   H06 9549   2.997   4.683   2.263 -1.2460  0.3639  0.6173
   98GLOH   H07 9550   3.087   4.525   2.231 -0.4451 -0.5598 -0.8053
   98GLOH    O3 9551   2.885   4.515   2.197  0.4808  0.0637 -0.0616
   98GLOH   H01 9552   2.839   4.550   2.119  0.8936  1.6346  0.3773
   99GLOH   H03 9553   3.654   2.477   0.837 -1.6869 -0.9241 -1.9695
   99GLOH    O1 9554   3.581   2.469   0.900 -0.0288 -0.0943  0.1462
   99GLOH    C1 9555   3.478   2.543   0.836 -0.4645  0.1482 -0.0335
   99GLOH   H02 9556   3.496   2.550   0.729 -0.4332 -0.1329 -0.0461
   99GLOH   H08 9557   3.474   2.644   0.877 -0.7744 -0.8851  2.5811
   99GLOH    C2 9558   3.335   2.486   0.862 -0.1936  0.2213  0.3979
   99GLOH   H04 9559   3.335   2.465   0.970 -2.2444  1.3729  0.6298
   99GLOH    O2 9560   3.228   2.574   0.828  0.5368 -0.0182 -0.1674
   99GLOH   H05 9561   3.145   2.532   0.855  1.5357 -1.5436  0.5565
   99GLOH    C3 9562   3.320   2.339   0.805  0.4118 -0.0707 -0.3288
   99GLOH   H06 9563   3.406   2.288   0.849 -0.5263 -1.0035  0.4519
   99GLOH   H07 9564   3.337   2.343   0.697  0.8946  1.7121 -0.2083
   99GLOH    O3 9565   3.202   2.265   0.841  0.3477 -0.5921 -0.3573
   99GLOH   H01 9566   3.123   2.294   0.792  0.9843 -0.9732 -1.6627
  100GLOH   H03 9567   3.875  10.358   2.418 -0.4301  0.8824  0.1356
  100GLOH    O1 9568   3.878  10.435   2.358 -0.5729  0.3146 -0.5980
  100GLOH    C1 9569   3.943  10.412   2.228  0.7404  0.2689  0.2529
  100GLOH   H02 9570   4.035  10.358   2.250  1.8673  2.6565  1.5066
  100GLOH   H08 9571   3.974  10.505   2.180  0.4777  0.3222  0.1844
  100GLOH    C2 9572   3.849  10.330   2.134  0.0950  0.1007  0.4383
  100GLOH   H04 9573   3.748  10.343   2.176  0.2808  0.4181  0.7915
  100GLOH    O2 9574   3.832  10.382   2.000 -0.4986 -0.2781  0.4031
  100GLOH   H05 9575   3.815  10.477   1.992  1.8341  0.0712 -0.4608
  100GLOH    C3 9576   3.894  10.183   2.146 -0.0076 -0.2716 -0.1713
  100GLOH   H06 9577   4.003  10.179   2.146  0.0654  0.4579  3.2120
  100GLOH   H07 9578   3.872  10.139   2.049  1.4737 -0.7547 -0.2930
  100GLOH    O3 9579   3.844  10.113   2.259  0.1581  0.2869 -0.0079
  100GLOH   H01 9580   3.749  10.098   2.244 -0.0326  0.1212  1.3476
  101GLOH   H03 9581   2.960   4.088   1.114 -1.7852 -0.3640 -2.0079
  101GLOH    O1 9582   2.902   4.136   1.176  0.2715  0.0167 -0.3387
  101GLOH    C1 9583   2.904   4.090   1.310 -0.5830  0.0152 -0.4515
  101GLOH   H02 9584   3.002   4.048   1.333 -1.1021 -1.7251 -1.3373
  101GLOH   H08 9585   2.828   4.013   1.322 -0.5970 -0.1202 -1.3941
  101GLOH    C2 9586   2.881   4.203   1.411  0.6479  0.7701 -0.1734
  101GLOH   H04 9587   2.779   4.238   1.392 -0.5654 -1.6569  1.5207
  101GLOH    O2 9588   2.882   4.144   1.542  1.0033 -0.4948  0.1713
  101GLOH   H05 9589   2.859   4.221   1.596  0.5903  0.3054 -1.1218
  101GLOH    C3 9590   2.970   4.324   1.403 -0.5782  0.2112 -0.1346
  101GLOH   H06 9591   2.942   4.400   1.477 -1.8490  1.3357 -1.7426
  101GLOH   H07 9592   2.959   4.371   1.306 -0.0155 -0.2654 -0.4300
  101GLOH    O3 9593   3.109   4.287   1.431 -0.0568  0.0887  0.2128
  101GLOH   H01 9594   3.102   4.241   1.517  0.1504  2.2113  1.4117
  102GLOH   H03 9595   2.546   4.345   2.055  1.2208  0.5801 -0.2175
  102GLOH    O1 9596   2.549   4.257   2.013  0.1618  0.4612 -0.0553
  102GLOH    C1 9597   2.452   4.182   2.085  0.5690  0.4298 -0.9224
  102GLOH   H02 9598   2.485   4.132   2.176  0.4957 -0.6919 -1.5041
  102GLOH   H08 9599   2.420   4.099   2.023 -3.6507 -1.2005  3.0969
  102GLOH    C2 9600   2.338   4.275   2.116 -0.4707 -0.8030 -0.1949
  102GLOH   H04 9601   2.301   4.327   2.027 -0.2442  0.0682  0.2186
  102GLOH    O2 9602   2.232   4.198   2.179 -0.4168 -0.2394 -0.4743
  102GLOH   H05 9603   2.183   4.140   2.119 -1.2493 -1.3326  1.2409
  102GLOH    C3 9604   2.397   4.374   2.220 -0.1649  0.4063 -0.2663
  102GLOH   H06 9605   2.443   4.333   2.311  0.8249 -2.1277 -1.8405
  102GLOH   H07 9606   2.320   4.444   2.252 -0.7738 -0.5642  0.4539
  102GLOH    O3 9607   2.506   4.452   2.172 -0.2830  0.1639 -0.3544
  102GLOH   H01 9608   2.521   4.530   2.229 -1.2121  0.4286 -0.4571
  103GLOH   H03 9609   3.281   3.573   1.178  0.2006 -0.1404  0.2107
  103GLOH    O1 9610   3.310   3.643   1.238 -0.3528  0.2382  0.0401
  103GLOH    C1 9611   3.272   3.767   1.179  0.2336 -0.1387 -0.2575
  103GLOH   H02 9612   3.336   3.807   1.100  0.1027 -1.7875 -1.2367
  103GLOH   H08 9613   3.276   3.841   1.258  0.7695  1.1176 -1.4480
  103GLOH    C2 9614   3.128   3.751   1.121  0.2534  0.7263 -0.7018
  103GLOH   H04 9615   3.060   3.703   1.193  1.1441 -0.3559 -0.5803
  103GLOH    O2 9616   3.076   3.880   1.091 -0.7480  0.0962 -0.3450
  103GLOH   H05 9617   3.153   3.937   1.078 -1.1027  0.8321  0.7314
  103GLOH    C3 9618   3.146   3.652   1.003  0.3786 -0.7196  0.0745
  103GLOH   H06 9619   3.216   3.690   0.928 -0.0632 -0.1133 -0.0322
  103GLOH   H07 9620   3.051   3.635   0.954  0.6880  0.3897 -0.9472
  103GLOH    O3 9621   3.185   3.519   1.039  0.4002 -0.5930  0.4259
  103GLOH   H01 9622   3.248   3.485   0.972  1.0973  1.8081 -0.1983
  104GLOH   H03 9623   4.329   4.807   0.956  0.4092  0.7658 -0.2554
  104GLOH    O1 9624   4.238   4.839   0.966  0.1025 -0.1519 -0.0464
  104GLOH    C1 9625   4.155   4.814   0.851 -0.2228  0.2993 -0.4190
  104GLOH   H02 9626   4.048   4.801   0.870 -0.0815  1.2101  1.1594
  104GLOH   H08 9627   4.191   4.727   0.798  1.0159  0.4340  0.1952
  104GLOH    C2 9628   4.172   4.932   0.752 -0.4314 -0.6007 -0.7085
  104GLOH   H04 9629   4.279   4.948   0.734 -0.7777  2.2375 -0.4477
  104GLOH    O2 9630   4.110   4.913   0.627  0.1313  0.3558  0.2672
  104GLOH   H05 9631   4.017   4.894   0.647  0.3101  1.6904  2.5180
  104GLOH    C3 9632   4.114   5.060   0.822  0.4862  0.1556  0.3609
  104GLOH   H06 9633   4.007   5.045   0.837  0.5749 -0.6263  0.2577
  104GLOH   H07 9634   4.129   5.150   0.762 -2.2623  1.5170  1.6478
  104GLOH    O3 9635   4.176   5.079   0.952 -0.6958 -0.2716  0.0831
  104GLOH   H01 9636   4.193   4.997   1.002  0.7105  0.8355  1.4678
  105GLOH   H03 9637   4.049   4.429   1.657  0.9041  0.7161 -1.1737
  105GLOH    O1 9638   3.971   4.397   1.609  0.0465  0.2888  0.5005
  105GLOH    C1 9639   3.862   4.493   1.601 -0.0034  0.7042 -0.3181
  105GLOH   H02 9640   3.896   4.587   1.557 -0.0443  0.5852 -0.6068
  105GLOH   H08 9641   3.819   4.516   1.699 -0.0510 -0.1713 -0.1282
  105GLOH    C2 9642   3.748   4.445   1.505 -0.4836 -0.2049 -0.2549
  105GLOH   H04 9643   3.672   4.523   1.498 -1.3202 -0.6343  3.0502
  105GLOH    O2 9644   3.798   4.410   1.373 -0.2723  0.1744 -0.3036
  105GLOH   H05 9645   3.829   4.489   1.325 -0.6463  0.2925 -0.3591
  105GLOH    C3 9646   3.672   4.323   1.569  0.2909 -0.0462  0.1117
  105GLOH   H06 9647   3.755   4.259   1.601 -0.9071 -1.6836  0.0131
  105GLOH   H07 9648   3.614   4.272   1.492 -0.2906  2.2737 -1.0257
  105GLOH    O3 9649   3.583   4.360   1.671 -0.3852  0.0092  0.1599
  105GLOH   H01 9650   3.601   4.453   1.696 -3.2856  0.3976  1.0227
  106GLOH   H03 9651   3.282   2.616   1.720 -1.6495  0.6530 -1.4913
  106GLOH    O1 9652   3.229   2.577   1.792 -0.0266  0.3831 -0.3863
  106GLOH    C1 9653   3.213   2.430   1.763 -0.4343  0.2674  0.0898
  106GLOH   H02 9654   3.286   2.373   1.820 -0.0783  0.8377  0.2056
  106GLOH   H08 9655   3.216   2.413   1.655  0.7079 -0.5490  0.2393
  106GLOH    C2 9656   3.078   2.375   1.813  0.1843  0.2950  0.1400
  106GLOH   H04 9657   3.069   2.269   1.782  0.6905  1.2459 -3.4629
  106GLOH    O2 9658   3.062   2.391   1.951  0.3965 -0.3279  0.1922
  106GLOH   H05 9659   3.024   2.309   1.987 -1.3853  0.3369 -0.1118
  106GLOH    C3 9660   2.956   2.442   1.752  0.1799 -0.6883 -0.6764
  106GLOH   H06 9661   2.974   2.543   1.787 -0.9156 -1.4977  2.3607
  106GLOH   H07 9662   2.862   2.407   1.792  2.0106 -3.7703  1.1041
  106GLOH    O3 9663   2.941   2.422   1.613 -0.2048  0.0608 -0.1985
  106GLOH   H01 9664   2.867   2.471   1.573  0.7169  0.5826 -1.3331
  107GLOH   H03 9665   2.740   3.453   0.281  0.4633  1.1347  0.0680
  107GLOH    O1 9666   2.810   3.496   0.334  0.3734  1.0431  0.2600
  107GLOH    C1 9667   2.902   3.388   0.372 -0.2179  0.0804  0.3674
  107GLOH   H02 9668   2.876   3.322   0.454 -0.6059  0.8950  0.9095
  107GLOH   H08 9669   2.990   3.438   0.411 -0.5323 -0.1964  1.4493
  107GLOH    C2 9670   2.948   3.299   0.252  0.1384  0.0721 -0.4768
  107GLOH   H04 9671   3.014   3.217   0.283  0.5607  0.8910  0.8242
  107GLOH    O2 9672   2.835   3.239   0.195  0.4016 -0.2697 -0.4130
  107GLOH   H05 9673   2.802   3.176   0.261  1.5959 -0.2502  0.2299
  107GLOH    C3 9674   3.032   3.372   0.153  0.6330 -0.2437 -0.2949
  107GLOH   H06 9675   2.966   3.438   0.096  0.0309 -0.5376  0.0557
  107GLOH   H07 9676   3.059   3.298   0.077  1.6372 -0.5651  0.3681
  107GLOH    O3 9677   3.141   3.446   0.210 -0.3564 -0.4619 -0.4580
  107GLOH   H01 9678   3.198   3.386   0.262  0.4520  0.3749 -0.3494
  108GLOH   H03 9679   4.457   2.651   2.180  0.5591  0.0550  0.1432
  108GLOH    O1 9680   4.438   2.557   2.163 -0.0724  0.1849  0.1293
  108GLOH    C1 9681   4.528   2.502   2.068 -0.8113 -0.1082  0.4749
  108GLOH   H02 9682   4.526   2.394   2.063  1.2517 -0.1929  0.8666
  108GLOH   H08 9683   4.624   2.533   2.109 -1.0434 -1.3375  1.9929
  108GLOH    C2 9684   4.510   2.572   1.931 -0.1495  0.3549  0.1471
  108GLOH   H04 9685   4.490   2.679   1.949  0.6988  0.4656  0.4671
  108GLOH    O2 9686   4.631   2.582   1.859 -0.8026  0.0791 -0.0932
  108GLOH   H05 9687   4.626   2.652   1.791  0.4416 -1.0899 -1.4325
  108GLOH    C3 9688   4.394   2.503   1.859 -0.4230  0.3855  0.2497
  108GLOH   H06 9689   4.419   2.399   1.837  0.7157  1.2379 -2.6330
  108GLOH   H07 9690   4.383   2.549   1.761  1.9619 -1.4380 -0.9386
  108GLOH    O3 9691   4.268   2.498   1.929  0.3966  0.4691  0.5167
  108GLOH   H01 9692   4.278   2.448   2.012  1.7745  0.1264  0.1492
  109GLOH   H03 9693   3.843   2.049   1.791 -0.5296  0.6843 -0.2074
  109GLOH    O1 9694   3.838   1.979   1.723 -0.0686  0.1579  0.2946
  109GLOH    C1 9695   3.744   2.034   1.631 -0.3784 -0.2189  0.3854
  109GLOH   H02 9696   3.787   2.072   1.538 -2.2964 -0.9224 -0.8086
  109GLOH   H08 9697   3.705   2.124   1.677 -0.4408 -0.0804  0.0593
  109GLOH    C2 9698   3.631   1.935   1.611 -0.9620  0.2602  0.1514
  109GLOH   H04 9699   3.595   1.904   1.710 -0.3328 -0.8551  0.0314
  109GLOH    O2 9700   3.516   1.986   1.532  0.5539  0.0492 -0.0181
  109GLOH   H05 9701   3.538   2.062   1.474 -1.4557 -0.4405 -1.4540
  109GLOH    C3 9702   3.697   1.811   1.546 -0.0279  0.1023  0.2682
  109GLOH   H06 9703   3.745   1.839   1.452 -0.7056 -2.4416 -0.8870
  109GLOH   H07 9704   3.615   1.744   1.521 -0.1076  0.5304 -0.6465
  109GLOH    O3 9705   3.798   1.754   1.627  0.0457 -0.3636  0.1334
  109GLOH   H01 9706   3.834   1.831   1.676  0.0132  0.5517 -1.2540
  110GLOH   H03 9707   2.713   1.136   0.328  1.3999 -0.6324 -0.7402
  110GLOH    O1 9708   2.746   1.222   0.359  0.3224 -0.7400  0.7209
  110GLOH    C1 9709   2.677   1.314   0.261 -0.3526  0.2249 -0.1273
  110GLOH   H02 9710   2.691   1.277   0.159  0.0340 -0.7886  0.2794
  110GLOH   H08 9711   2.733   1.407   0.251  0.9785 -0.2437  2.5580
  110GLOH    C2 9712   2.531   1.334   0.296  0.1669  0.2890 -0.3706
  110GLOH   H04 9713   2.509   1.382   0.393 -0.4937 -2.4416  0.8805
  110GLOH    O2 9714   2.474   1.411   0.190 -0.0178  0.1047  0.3923
  110GLOH   H05 9715   2.410   1.478   0.218 -0.8736 -0.5837  0.0868
  110GLOH    C3 9716   2.459   1.197   0.299 -0.1534  0.1439  0.0498
  110GLOH   H06 9717   2.467   1.153   0.199  0.1132  1.4360 -0.5136
  110GLOH   H07 9718   2.354   1.221   0.317  0.6095  2.5387  1.4874
  110GLOH    O3 9719   2.505   1.106   0.399  0.1114  0.0261 -0.9650
  110GLOH   H01 9720   2.550   1.029   0.359 -2.2519 -2.1327  0.3688
  111GLOH   H03 9721   4.044   2.345   0.103  3.4540  0.9670  1.1279
  111GLOH    O1 9722   4.076   2.269   0.050  0.2652  0.0464  0.4035
  111GLOH    C1 9723   4.004   2.270  -0.076 -0.6468 -0.2948  0.4570
  111GLOH   H02 9724   3.903   2.307  -0.057  0.0695  1.4368  1.0097
  111GLOH   H08 9725   4.000   2.170  -0.120  3.3494  0.3905 -1.7491
  111GLOH    C2 9726   4.069   2.362  -0.184  0.3787 -0.1038 -0.6715
  111GLOH   H04 9727   4.156   2.302  -0.216  0.4617 -0.4511  0.1634
  111GLOH    O2 9728   3.972   2.374  -0.285  0.0426  0.1044 -0.5961
  111GLOH   H05 9729   3.973   2.305  -0.353 -1.2945 -0.8927  0.3603
  111GLOH    C3 9730   4.121   2.500  -0.140 -0.4802  0.8994  0.4150
  111GLOH   H06 9731   4.196   2.483  -0.063 -0.2247  2.0776  0.4359
  111GLOH   H07 9732   4.034   2.555  -0.103 -1.0295  0.6969 -0.5662
  111GLOH    O3 9733   4.177   2.570  -0.252 -0.2291  0.3100 -0.4522
  111GLOH   H01 9734   4.254   2.528  -0.296 -0.3786 -0.3419 -0.0944
  112GLOH   H03 9735   2.355   2.353   1.246  0.8282 -2.3197  2.5734
  112GLOH    O1 9736   2.337   2.408   1.325 -0.6432  0.8929  0.1121
  112GLOH    C1 9737   2.311   2.539   1.276  0.3329 -0.3733  0.2902
  112GLOH   H02 9738   2.210   2.544   1.233 -0.4321  1.0126  2.1970
  112GLOH   H08 9739   2.372   2.560   1.188 -0.1783  0.2776  0.0798
  112GLOH    C2 9740   2.320   2.651   1.383 -0.1700 -0.5213 -0.2053
  112GLOH   H04 9741   2.425   2.684   1.392 -0.2856  0.3116 -1.5979
  112GLOH    O2 9742   2.257   2.776   1.335  0.4319  0.5129 -0.1354
  112GLOH   H05 9743   2.249   2.786   1.238  0.3933  1.4000 -0.0491
  112GLOH    C3 9744   2.244   2.614   1.510  0.1619 -0.4790  0.0083
  112GLOH   H06 9745   2.138   2.604   1.485 -0.1436  0.5705  0.8606
  112GLOH   H07 9746   2.255   2.687   1.590  1.6958 -1.1255  0.4166
  112GLOH    O3 9747   2.297   2.485   1.555  0.3700 -0.2777  0.1078
  112GLOH   H01 9748   2.312   2.423   1.481  1.2087  0.5325 -0.4113
  113GLOH   H03 9749   3.711   3.980  -0.162 -0.7431 -0.4203  0.8309
  113GLOH    O1 9750   3.658   4.061  -0.170 -0.1292 -0.1511 -0.6854
  113GLOH    C1 9751   3.572   4.062  -0.285 -0.1042  0.2086  0.7047
  113GLOH   H02 9752   3.536   4.164  -0.298 -2.0300 -0.5117  0.2814
  113GLOH   H08 9753   3.482   4.005  -0.265 -0.1226  1.0339  3.0432
  113GLOH    C2 9754   3.634   4.021  -0.412  0.2183 -0.1164 -0.4353
  113GLOH   H04 9755   3.653   3.913  -0.402 -0.9565 -0.6119 -2.9467
  113GLOH    O2 9756   3.552   4.041  -0.524  0.3276 -0.2238  0.4988
  113GLOH   H05 9757   3.497   3.961  -0.522 -0.9007  0.5903  0.2442
  113GLOH    C3 9758   3.768   4.086  -0.438 -0.0664 -0.1439  0.2272
  113GLOH   H06 9759   3.803   4.043  -0.532 -1.0592  0.2223 -0.3113
  113GLOH   H07 9760   3.841   4.058  -0.362 -0.1959  0.5930  0.6324
  113GLOH    O3 9761   3.773   4.231  -0.456 -0.2867  0.4964 -0.5540
  113GLOH   H01 9762   3.736   4.259  -0.541 -2.2929  1.1999  0.5058
  114GLOH   H03 9763   3.722   1.648   2.245 -0.1239 -0.2457  0.7350
  114GLOH    O1 9764   3.747   1.649   2.340  0.4755 -0.1597  0.5777
  114GLOH    C1 9765   3.716   1.524   2.403  0.1143  0.4762  0.3148
  114GLOH   H02 9766   3.705   1.454   2.321  0.0453  2.0802 -1.0784
  114GLOH   H08 9767   3.618   1.534   2.451 -0.8461 -0.3164 -1.4683
  114GLOH    C2 9768   3.807   1.472   2.512 -1.4381 -0.0999 -0.0219
  114GLOH   H04 9769   3.834   1.546   2.589  1.7683 -0.8550 -0.3757
  114GLOH    O2 9770   3.744   1.358   2.573  0.3441  0.2582  0.3099
  114GLOH   H05 9771   3.765   1.269   2.542 -1.2718 -0.5468  1.4681
  114GLOH    C3 9772   3.940   1.429   2.453 -0.0522  0.0564 -0.0021
  114GLOH   H06 9773   4.006   1.403   2.536  2.0727  0.5268 -1.5071
  114GLOH   H07 9774   3.994   1.515   2.414  2.5120  0.3784  3.8972
  114GLOH    O3 9775   3.942   1.318   2.358 -0.4018 -0.1319  0.6549
  114GLOH   H01 9776   4.009   1.263   2.401 -0.4240  0.9472  2.1178
  115GLOH   H03 9777   4.264   4.396   1.658  0.8241 -0.5511  3.2415
  115GLOH    O1 9778   4.194   4.461   1.679  0.2319  0.0178 -0.2632
  115GLOH    C1 9779   4.229   4.583   1.618 -0.0709 -0.3643  0.5337
  115GLOH   H02 9780   4.290   4.639   1.689  2.9754 -1.1932 -1.3331
  115GLOH   H08 9781   4.143   4.647   1.597  0.6036  1.1363  2.1750
  115GLOH    C2 9782   4.314   4.567   1.487 -0.2462 -0.1786 -0.3470
  115GLOH   H04 9783   4.246   4.502   1.430 -1.2488  0.4609  0.1019
  115GLOH    O2 9784   4.348   4.691   1.412 -0.5095  0.9363  0.2644
  115GLOH   H05 9785   4.429   4.667   1.364  0.3180  2.1487  1.0564
  115GLOH    C3 9786   4.440   4.490   1.539 -0.2184  0.1282 -0.1514
  115GLOH   H06 9787   4.490   4.543   1.620 -0.0083 -0.3139  0.0126
  115GLOH   H07 9788   4.510   4.493   1.456  0.8230  0.6188  0.7333
  115GLOH    O3 9789   4.420   4.351   1.578 -0.3270 -0.1039  0.4664
  115GLOH   H01 9790   4.509   4.314   1.560 -0.4940 -0.8094  1.0914
  116GLOH   H03 9791   4.031   2.041   1.983 -1.0919 -2.2478 -1.1875
  116GLOH    O1 9792   4.039   2.071   1.890 -0.5265  0.0349 -0.4475
  116GLOH    C1 9793   4.087   2.201   1.868 -0.1209 -0.2250  0.2631
  116GLOH   H02 9794   4.190   2.194   1.903  0.4910 -4.5463 -2.1026
  116GLOH   H08 9795   4.037   2.277   1.928 -0.0130 -0.1990  0.3214
  116GLOH    C2 9796   4.081   2.248   1.724 -0.0200  0.6584  0.8654
  116GLOH   H04 9797   3.976   2.254   1.692  0.3314 -0.7394 -0.6100
  116GLOH    O2 9798   4.147   2.379   1.711 -0.4405  0.5779  0.4807
  116GLOH   H05 9799   4.153   2.417   1.801  1.8459 -0.4988  0.8162
  116GLOH    C3 9800   4.155   2.146   1.634 -0.6680  0.0314 -0.0505
  116GLOH   H06 9801   4.259   2.147   1.667 -0.1802  0.2833 -1.5081
  116GLOH   H07 9802   4.139   2.179   1.531  1.2500 -0.8771 -0.6645
  116GLOH    O3 9803   4.103   2.015   1.650  0.4596 -0.5589  0.7967
  116GLOH   H01 9804   4.032   2.028   1.715  1.2438  2.2696  1.1653
  117GLOH   H03 9805   2.890   2.574   0.307  2.1768 -1.8578  2.5733
  117GLOH    O1 9806   2.815   2.538   0.357 -0.2465 -0.0665  0.3676
  117GLOH    C1 9807   2.876   2.490   0.478 -0.2477  0.1712 -0.2650
  117GLOH   H02 9808   2.799   2.443   0.538  0.6018  1.3399  1.7941
  117GLOH   H08 9809   2.903   2.573   0.542  1.3153 -0.4201 -0.1342
  117GLOH    C2 9810   3.003   2.405   0.453 -0.5035  0.6479 -0.5319
  117GLOH   H04 9811   2.986   2.351   0.359 -1.5531  1.3186 -0.7441
  117GLOH    O2 9812   3.108   2.502   0.442  0.3805 -0.9471  0.0519
  117GLOH   H05 9813   3.091   2.550   0.360  0.1928 -0.8895  0.1250
  117GLOH    C3 9814   3.020   2.300   0.560  0.5251  0.2074 -0.2178
  117GLOH   H06 9815   3.119   2.268   0.529  0.0897 -2.0941  0.6266
  117GLOH   H07 9816   2.949   2.219   0.544  0.5469  0.0685  0.3896
  117GLOH    O3 9817   3.021   2.361   0.690  0.7696 -0.4525  0.5736
  117GLOH   H01 9818   2.947   2.419   0.716  0.9254  0.6125 -1.3570
  118GLOH   H03 9819   4.315   1.351   0.717  0.9079 -0.2189 -0.5588
  118GLOH    O1 9820   4.308   1.421   0.649  0.3839  0.1463 -0.1344
  118GLOH    C1 9821   4.335   1.372   0.516  0.1545  0.9715  0.1031
  118GLOH   H02 9822   4.281   1.280   0.491  1.3812  0.3109 -0.1870
  118GLOH   H08 9823   4.442   1.358   0.497  0.0255  1.4261 -0.9820
  118GLOH    C2 9824   4.296   1.481   0.415 -0.3811 -0.2089  0.7943
  118GLOH   H04 9825   4.191   1.511   0.421 -1.0291 -2.3532  0.7483
  118GLOH    O2 9826   4.378   1.600   0.436 -0.5430 -0.0845  0.0853
  118GLOH   H05 9827   4.360   1.640   0.522  1.2614 -2.3501  1.5968
  118GLOH    C3 9828   4.311   1.417   0.271  0.2539 -0.2345 -0.5636
  118GLOH   H06 9829   4.410   1.373   0.255  0.3829 -0.1117 -0.1336
  118GLOH   H07 9830   4.307   1.499   0.199  1.7523  1.6471  1.4044
  118GLOH    O3 9831   4.220   1.317   0.243  0.6632  0.2192  0.0234
  118GLOH   H01 9832   4.205   1.326   0.147 -0.5430 -0.0542  0.1731
  119GLOH   H03 9833   4.526   1.590   0.354 -0.6500 -0.3173 -0.2998
  119GLOH    O1 9834   4.602   1.582   0.294 -0.3558  0.2842 -0.0167
  119GLOH    C1 9835   4.699   1.679   0.336 -0.3110 -0.0211  0.6081
  119GLOH   H02 9836   4.795   1.628   0.347 -0.0710  0.8404  2.6531
  119GLOH   H08 9837   4.662   1.735   0.422  1.2299  0.8108  0.7425
  119GLOH    C2 9838   4.716   1.791   0.231 -0.2530 -0.3268 -0.0704
  119GLOH   H04 9839   4.647   1.875   0.247  1.1124  0.7977 -0.0228
  119GLOH    O2 9840   4.844   1.845   0.239 -0.0967  0.0641  0.2368
  119GLOH   H05 9841   4.846   1.942   0.249  1.3051  0.0039  0.6015
  119GLOH    C3 9842   4.710   1.730   0.089 -0.6399 -0.1095 -0.0441
  119GLOH   H06 9843   4.781   1.648   0.074 -1.4927 -0.7912 -0.4022
  119GLOH   H07 9844   4.727   1.811   0.018 -2.1932 -1.3546 -1.8648
  119GLOH    O3 9845   4.583   1.672   0.067  0.1161 -0.0706  0.2746
  119GLOH   H01 9846   4.559   1.632   0.153  0.2247  2.4691  1.5478
  120GLOH   H03 9847   4.601   3.891   1.867  0.7173  0.8792  0.5322
  120GLOH    O1 9848   4.544   3.925   1.938 -0.1341  0.6036 -0.0047
  120GLOH    C1 9849   4.572   4.062   1.969  0.1782 -0.0887  0.1224
  120GLOH   H02 9850   4.502   4.104   2.041  0.8997 -0.4269  1.0320
  120GLOH   H08 9851   4.554   4.126   1.882 -0.9566  2.0416  1.8950
  120GLOH    C2 9852   4.720   4.097   2.010 -0.3379  0.1952 -0.3487
  120GLOH   H04 9853   4.736   4.051   2.109 -0.6776  0.0942 -0.3391
  120GLOH    O2 9854   4.821   4.044   1.922  0.0865 -0.0469 -0.0010
  120GLOH   H05 9855   4.841   3.960   1.967 -0.4377 -0.4968 -0.5926
  120GLOH    C3 9856   4.746   4.246   2.036 -0.4569 -0.1072  0.3569
  120GLOH   H06 9857   4.853   4.267   2.037 -0.7446  1.4846  2.6082
  120GLOH   H07 9858   4.698   4.287   2.126 -0.4160  0.2439  0.2198
  120GLOH    O3 9859   4.696   4.329   1.927  0.4865  0.2604 -0.4213
  120GLOH   H01 9860   4.772   4.356   1.873  1.4859  3.3221  2.3541
  121ACOH    H4 9861   4.142   2.136   0.143  0.0163 -0.0712 -1.7235
  121ACOH    O2 9862   4.192   2.053   0.155  0.1140  0.2246  0.0486
  121ACOH    C2 9863   4.163   2.012   0.278 -0.5271  0.2038  0.7884
  121ACOH    O1 9864   4.087   2.068   0.354  0.4897  0.1291 -0.4408
  121ACOH    C1 9865   4.218   1.872   0.298 -0.9237  0.0644 -0.3692
  121ACOH    H1 9866   4.176   1.807   0.222 -0.3501  1.4513 -1.8897
  121ACOH    H2 9867   4.193   1.832   0.396 -0.8684  0.2958 -0.2593
  121ACOH    H3 9868   4.327   1.874   0.293 -0.8260  1.0840  1.6047
  122ACOH    H4 9869   2.148   2.515   0.625 -1.3799 -0.2404 -0.6136
  122ACOH    O2 9870   2.123   2.609   0.620  0.4356  0.2852 -0.2759
  122ACOH    C2 9871   2.079   2.622   0.496  0.0459 -0.0189  0.1735
  122ACOH    O1 9872   2.095   2.544   0.409 -0.2350  0.0159  0.0909
  122ACOH    C1 9873   2.012   2.750   0.477  0.1084 -0.0325  0.2223
  122ACOH    H1 9874   2.031   2.810   0.567 -0.4259 -2.1994  1.8362
  122ACOH    H2 9875   1.905   2.739   0.462  0.0193  0.9276  0.1395
  122ACOH    H3 9876   2.065   2.794   0.393 -0.6657 -1.4876 -1.0383
  123ACOH    H4 9877   5.156   4.141   1.769  0.1238 -1.8207  2.2597
  123ACOH    O2 9878   5.251   4.158   1.767 -0.2089  0.1001 -0.4179
  123ACOH    C2 9879   5.265   4.287   1.803 -0.5763 -0.1098 -0.1194
  123ACOH    O1 9880   5.183   4.355   1.857  0.2134 -0.2216 -0.0221
  123ACOH    C1 9881   5.406   4.328   1.797  0.3089 -0.2786 -0.3608
  123ACOH    H1 9882   5.424   4.424   1.846  1.6482  0.5178 -2.3464
  123ACOH    H2 9883   5.435   4.336   1.692  1.1836 -0.4039 -0.1336
  123ACOH    H3 9884   5.457   4.242   1.840  0.9564 -0.6924 -1.9240
  124ACOH    H4 9885   6.040   9.929   2.391  0.5392  1.2430 -0.6355
  124ACOH    O2 9886   5.992   9.921   2.307 -0.0263 -0.2062 -0.2019
  124ACOH    C2 9887   6.080   9.959   2.216 -0.2660  0.4149  0.3187
  124ACOH    O1 9888   6.184  10.017   2.241  0.5267  0.1408 -0.0899
  124ACOH    C1 9889   6.008   9.975   2.087 -0.3959  0.3179  0.2059
  124ACOH    H1 9890   6.083   9.999   2.011 -1.5019 -1.2830 -1.4207
  124ACOH    H2 9891   5.937  10.057   2.076 -0.4100  0.3182  0.2937
  124ACOH    H3 9892   5.965   9.881   2.054 -1.3960  1.0226 -0.4894
  125ACOH    H4 9893   4.649   2.211   1.890  2.2648 -0.9668  0.6240
  125ACOH    O2 9894   4.596   2.149   1.942  0.0415  0.3543  0.0016
  125ACOH    C2 9895   4.512   2.077   1.854 -0.2116  0.4088 -1.2000
  125ACOH    O1 9896   4.525   2.068   1.733 -0.2161 -0.3252  0.0319
  125ACOH    C1 9897   4.408   2.006   1.937 -0.5901 -0.3519 -0.8650
  125ACOH    H1 9898   4.451   1.924   1.994 -1.2800  1.5543  2.5798
  125ACOH    H2 9899   4.324   1.981   1.873  0.2873  0.7599 -2.4855
  125ACOH    H3 9900   4.376   2.080   2.010  2.3809  2.2275 -2.0788
  126ACOH    H4 9901   3.714   9.776   1.776  0.2720  1.1262  1.3967
  126ACOH    O2 9902   3.759   9.711   1.833 -0.0534 -0.1113  0.2912
  126ACOH    C2 9903   3.681   9.706   1.942 -0.0992  0.4428  0.6528
  126ACOH    O1 9904   3.559   9.695   1.938  0.1225 -0.5698 -0.0825
  126ACOH    C1 9905   3.756   9.684   2.066 -0.4654 -0.6209  0.1203
  126ACOH    H1 9906   3.822   9.770   2.081  0.0801 -0.2653 -3.6886
  126ACOH    H2 9907   3.821   9.599   2.046  0.6739  0.3615 -0.4289
  126ACOH    H3 9908   3.688   9.659   2.147 -1.0028 -0.1258 -0.1769
  127ACOH    H4 9909   4.757   5.202   0.864 -0.4579 -0.7710 -0.0016
  127ACOH    O2 9910   4.847   5.205   0.829 -0.5595  0.4275 -0.1525
  127ACOH    C2 9911   4.866   5.084   0.763 -0.6715 -0.1676 -0.2985
  127ACOH    O1 9912   4.778   5.018   0.708 -0.2387 -0.1325 -0.0846
  127ACOH    C1 9913   5.009   5.037   0.765 -0.0768 -0.1485  0.3392
  127ACOH    H1 9914   5.080   5.111   0.728  1.2466  0.3945  3.8084
  127ACOH    H2 9915   5.018   4.947   0.704 -0.8224 -1.6764  2.4119
  127ACOH    H3 9916   5.039   5.009   0.866  0.5781 -0.1447  0.1470
  128ACOH    H4 9917   5.019   3.492   1.731 -0.3175 -0.7461  1.0052
  128ACOH    O2 9918   5.091   3.553   1.754 -0.5398 -0.0958  0.0210
  128ACOH    C2 9919   5.048   3.677   1.766 -0.1732 -0.0788 -1.1925
  128ACOH    O1 9920   4.932   3.717   1.779 -0.4081 -0.4254  0.0040
  128ACOH    C1 9921   5.161   3.771   1.746  0.2212  0.2811  0.0042
  128ACOH    H1 9922   5.240   3.763   1.820 -0.7990 -0.6661  1.0124
  128ACOH    H2 9923   5.126   3.873   1.734  0.0178  0.6285  3.1463
  128ACOH    H3 9924   5.206   3.743   1.650 -0.6521 -1.1282 -0.0072
  129ACOH    H4 9925   4.199   2.461   1.347 -1.6539 -1.0976  0.6462
  129ACOH    O2 9926   4.239   2.375   1.365  0.1723 -0.4195 -0.0398
  129ACOH    C2 9927   4.333   2.406   1.457  0.4355  0.6460  0.1359
  129ACOH    O1 9928   4.362   2.514   1.506  0.1912  0.5497 -0.1921
  129ACOH    C1 9929   4.427   2.301   1.486  0.1504  0.2286  0.3471
  129ACOH    H1 9930   4.437   2.293   1.594 -1.7609 -1.7686  0.4170
  129ACOH    H2 9931   4.527   2.324   1.449  0.2872 -0.0784  0.5283
  129ACOH    H3 9932   4.397   2.210   1.435  1.2928  0.1321 -0.1832
  130ACOH    H4 9933   3.006   5.571   0.410 -4.7267  0.3592 -0.0942
  130ACOH    O2 9934   3.020   5.666   0.423  0.0581 -0.2179 -0.2095
  130ACOH    C2 9935   3.137   5.701   0.370 -0.4836 -0.0376 -0.7213
  130ACOH    O1 9936   3.192   5.634   0.280 -0.6266 -0.7648  0.0142
  130ACOH    C1 9937   3.166   5.843   0.378 -0.0275 -0.3879  0.0889
  130ACOH    H1 9938   3.086   5.880   0.442  1.4744 -0.5889  2.1276
  130ACOH    H2 9939   3.164   5.896   0.283  1.3373 -0.1927  0.1607
  130ACOH    H3 9940   3.262   5.860   0.427 -1.0632  0.3078  1.9144
  131ACOH    H4 9941   2.830   3.609   1.902 -2.1839  2.0874 -1.8124
  131ACOH    O2 9942   2.867   3.681   1.955  0.0470 -0.0724 -0.3029
  131ACOH    C2 9943   2.920   3.768   1.871  0.4634  0.4669  0.7978
  131ACOH    O1 9944   2.964   3.880   1.892  0.2660 -0.1585  0.2386
  131ACOH    C1 9945   2.915   3.721   1.728  0.0668 -0.6323  0.0567
  131ACOH    H1 9946   2.896   3.810   1.667  1.1328  0.5358  1.3965
  131ACOH    H2 9947   2.839   3.644   1.713  0.4486 -1.5283  2.6123
  131ACOH    H3 9948   3.018   3.695   1.705  0.2594  0.3439 -0.2247
  132ACOH    H4 9949   2.267   3.981   0.048  1.1084 -0.7528 -1.3872
  132ACOH    O2 9950   2.205   3.926  -0.003 -0.5843  0.1543 -0.3334
  132ACOH    C2 9951   2.085   3.999  -0.010  0.4159  0.1035 -0.4773
  132ACOH    O1 9952   2.051   4.096   0.060  0.4271 -0.1810  0.5804
  132ACOH    C1 9953   1.986   3.945  -0.106 -0.6071 -0.4610 -0.0441
  132ACOH    H1 9954   2.026   3.851  -0.145 -2.7469 -0.6413 -1.9197
  132ACOH    H2 9955   1.978   4.026  -0.179  1.4174 -0.6827 -0.5464
  132ACOH    H3 9956   1.889   3.927  -0.060 -0.1531  1.4078  1.6911
  133ACOH    H4 9957   4.745   4.651   0.029  1.0812 -0.1217 -0.5432
  133ACOH    O2 9958   4.724   4.580  -0.033  0.0093 -0.4020  0.1355
  133ACOH    C2 9959   4.708   4.463   0.024  1.0780 -1.0654 -0.2292
  133ACOH    O1 9960   4.704   4.436   0.144 -0.1016 -0.0154 -0.0677
  133ACOH    C1 9961   4.664   4.359  -0.069 -0.4367 -0.0012 -0.3039
  133ACOH    H1 9962   4.656   4.393  -0.173 -1.7060  0.4319 -0.0797
  133ACOH    H2 9963   4.568   4.319  -0.037  0.0673 -0.2504  0.9002
  133ACOH    H3 9964   4.742   4.283  -0.071  1.9026  2.3487  0.0166
  134ACOH    H4 9965   3.627   1.061   0.497 -1.0865  1.0614 -1.0358
  134ACOH    O2 9966   3.704   1.114   0.471  0.2408  0.1154  0.8284
  134ACOH    C2 9967   3.759   1.147   0.582 -0.3850 -0.3566 -0.2763
  134ACOH    O1 9968   3.706   1.155   0.690  0.4511 -0.3314  0.1940
  134ACOH    C1 9969   3.898   1.207   0.567  0.1093 -0.3865  0.2483
  134ACOH    H1 9970   3.899   1.301   0.621  1.5837 -1.4795  2.1717
  134ACOH    H2 9971   3.917   1.227   0.462  2.4308 -0.8590  0.5594
  134ACOH    H3 9972   3.979   1.151   0.614  0.4693 -0.4336 -0.4231
  135ACOH    H4 9973   3.610   2.273  -0.013 -2.0219  0.5598  1.2526
  135ACOH    O2 9974   3.621   2.177   0.001 -0.5747  0.5606  0.1665
  135ACOH    C2 9975   3.713   2.171   0.106 -0.3659 -0.8936 -0.0070
  135ACOH    O1 9976   3.748   2.271   0.172  0.1270  0.0183 -0.2741
  135ACOH    C1 9977   3.761   2.027   0.118  0.0467 -0.3052 -0.0903
  135ACOH    H1 9978   3.743   1.986   0.217  0.2075  0.6027  0.3134
  135ACOH    H2 9979   3.869   2.017   0.108  0.3537 -0.1687  2.6947
  135ACOH    H3 9980   3.711   1.963   0.045  0.6223 -0.8933  0.0248
  136ACOH    H4 9981   3.628   9.320   0.962 -0.5510  1.1771 -0.8828
  136ACOH    O2 9982   3.659   9.293   0.874 -0.3080 -0.3689 -0.3370
  136ACOH    C2 9983   3.786   9.335   0.867 -0.9607  0.4748  0.3720
  136ACOH    O1 9984   3.858   9.374   0.953 -0.4031 -0.4723 -0.1658
  136ACOH    C1 9985   3.826   9.333   0.726  0.1394  0.1290  0.6533
  136ACOH    H1 9986   3.755   9.395   0.670  1.4091 -0.2588 -1.4761
  136ACOH    H2 9987   3.818   9.229   0.694 -1.1840 -0.3538  2.5161
  136ACOH    H3 9988   3.925   9.377   0.713  0.0284 -0.1620 -1.4597
  137ACOH    H4 9989   4.871   3.695   1.269 -0.6865  1.1429 -1.9954
  137ACOH    O2 9990   4.919   3.621   1.228  0.0321  0.3397  0.2053
  137ACOH    C2 9991   4.831   3.528   1.199 -0.3685  0.4627 -0.0457
  137ACOH    O1 9992   4.714   3.530   1.225  0.2165 -0.2431 -0.1806
  137ACOH    C1 9993   4.892   3.415   1.120 -0.4074  0.4785 -0.1143
  137ACOH    H1 9994   4.967   3.355   1.171 -0.6232  0.7179  0.4958
  137ACOH    H2 9995   4.946   3.458   1.035 -1.8063 -0.3286 -1.4378
  137ACOH    H3 9996   4.815   3.348   1.082 -0.5859  1.5574 -1.7072
  138ACOH    H4 9997   4.222   4.541   2.393 -1.9821 -0.8057 -1.5891
  138ACOH    O2 9998   4.292   4.488   2.351 -0.2412 -0.0077  0.2276
  138ACOH    C2 9999   4.404   4.535   2.410 -0.4900  0.0931 -0.1187
  138ACOH    O110000   4.411   4.605   2.511 -0.5406 -0.7576 -0.1133
  138ACOH    C110001   4.517   4.501   2.323 -0.1348  0.3243  0.2933
  138ACOH    H110002   4.602   4.468   2.383 -1.8434 -1.0622  2.0037
  138ACOH    H210003   4.544   4.592   2.270  0.1000 -0.0825 -0.2886
  138ACOH    H310004   4.484   4.422   2.256 -0.6064  0.7267  0.0525
  139ACOH    H410005   3.294  10.573   2.044 -0.3951 -0.0832  1.0322
  139ACOH    O210006   3.243  10.505   1.997 -0.3235  0.4570  0.1457
  139ACOH    C210007   3.306  10.458   1.887 -0.1242 -0.3010  0.3856
  139ACOH    O110008   3.424  10.471   1.857 -0.2264  0.1774 -0.1183
  139ACOH    C110009   3.222  10.353   1.827  0.3097 -0.3846  0.1044
  139ACOH    H110010   3.223  10.356   1.718 -1.0661  0.8295  0.0944
  139ACOH    H210011   3.120  10.361   1.865  0.7788  0.0653  1.2811
  139ACOH    H310012   3.261  10.262   1.872  0.9180  1.5607  3.6771
  140ACOH    H410013   3.626   4.118  -0.039  1.9099 -0.1741 -0.3474
  140ACOH    O210014   3.644   4.177   0.036 -0.0591  0.0530 -0.0267
  140ACOH    C210015   3.551   4.271   0.038  0.3053 -0.2039 -0.0084
  140ACOH    O110016   3.443   4.248  -0.022 -0.1023 -0.3221  0.0620
  140ACOH    C110017   3.560   4.352   0.162 -0.8464 -0.3305  0.3869
  140ACOH    H110018   3.613   4.306   0.245 -0.1018  1.3278  0.8541
  140ACOH    H210019   3.459   4.376   0.195  0.4043  1.0484  3.3761
  140ACOH    H310020   3.607   4.450   0.150 -1.7953 -0.0520 -1.2941
  141ACOH    H410021   2.232   3.281   0.288 -0.7957  0.0359 -2.0953
  141ACOH    O210022   2.205   3.360   0.339  0.2394 -0.6643 -0.4231
  141ACOH    C210023   2.175   3.468   0.265  0.1067  0.3264  0.0665
  141ACOH    O110024   2.202   3.484   0.149  0.2900 -0.4850  0.0901
  141ACOH    C110025   2.100   3.569   0.351  0.4878 -0.2354  0.3292
  141ACOH    H110026   2.014   3.517   0.394 -0.5596  0.0892 -1.3095
  141ACOH    H210027   2.079   3.658   0.292 -1.2259 -0.1198  1.0907
  141ACOH    H310028   2.159   3.586   0.440  1.2172  0.0380 -0.2052
  142ACOH    H410029   3.532   5.762   0.246 -0.3469 -2.5954  1.8687
  142ACOH    O210030   3.596   5.807   0.304 -0.4962  0.1449  0.0095
  142ACOH    C210031   3.658   5.700   0.372  0.3998  0.2260  0.3447
  142ACOH    O110032   3.604   5.597   0.401  0.1377 -0.2632 -0.8863
  142ACOH    C110033   3.787   5.733   0.429  0.2468  0.4438 -0.5679
  142ACOH    H110034   3.869   5.735   0.357 -1.4117  0.4502 -2.4771
  142ACOH    H210035   3.822   5.677   0.516  0.4874  0.4020 -0.6896
  142ACOH    H310036   3.775   5.837   0.459  4.2124  0.9185 -0.3917
  143ACOH    H410037   4.764   5.041   1.155 -0.0524  0.0264 -0.0939
  143ACOH    O210038   4.850   5.054   1.112 -0.4045  0.4068 -0.6825
  143ACOH    C210039   4.885   5.179   1.133 -0.1589 -0.2153  0.0194
  143ACOH    O110040   4.810   5.269   1.165 -0.6198  0.5837 -0.1601
  143ACOH    C110041   5.011   5.210   1.086 -0.4900  0.0981  0.8955
  143ACOH    H110042   5.065   5.272   1.157 -1.1619  1.1330  0.5148
  143ACOH    H210043   4.995   5.277   1.001  1.2118  1.5136  1.6676
  143ACOH    H310044   5.076   5.126   1.061  0.1125  0.9420 -0.4390
  144ACOH    H410045   3.845   5.327   0.384 -2.7177  0.5130 -1.3979
  144ACOH    O210046   3.889   5.359   0.303 -0.1248  0.4362 -0.0559
  144ACOH    C210047   3.995   5.270   0.277 -0.1406  0.2335 -0.0152
  144ACOH    O110048   4.010   5.158   0.317 -0.1418 -0.3180 -0.6122
  144ACOH    C110049   4.082   5.326   0.170  0.1520 -0.5656 -0.0748
  144ACOH    H110050   4.147   5.249   0.129  1.2143 -0.1225  0.7510
  144ACOH    H210051   4.139   5.414   0.200 -0.2771 -0.3837  0.2188
  144ACOH    H310052   4.018   5.366   0.091  1.3532 -0.5524 -1.0502
  145ACOH    H410053   3.489   5.494   2.421  1.8516  1.1106 -0.4261
  145ACOH    O210054   3.481   5.554   2.497  0.3233 -0.3027  0.5669
  145ACOH    C210055   3.434   5.662   2.434  0.0414 -0.2966 -0.5372
  145ACOH    O110056   3.446   5.679   2.313  0.4969  0.1499 -0.3298
  145ACOH    C110057   3.410   5.773   2.528  0.2480 -0.2640 -0.1821
  145ACOH    H110058   3.489   5.848   2.526 -0.8609  0.9040 -0.7251
  145ACOH    H210059   3.413   5.734   2.630  0.1784  2.3589  0.8470
  145ACOH    H310060   3.316   5.826   2.518 -1.5594 -3.2321  0.3508
  146ACOH    H410061   3.577   1.918   0.750 -0.1866  1.1010 -1.2940
  146ACOH    O210062   3.673   1.928   0.743 -0.0071  0.3774 -0.0050
  146ACOH    C210063   3.691   2.049   0.677 -0.5268  0.5702  0.6174
  146ACOH    O110064   3.607   2.141   0.672 -0.0381 -0.5557  0.0584
  146ACOH    C110065   3.833   2.073   0.639  0.2771 -0.5868  0.1719
  146ACOH    H110066   3.876   2.134   0.718 -0.8820  0.1765  0.2187
  146ACOH    H210067   3.844   2.123   0.544 -0.0538 -1.9728 -0.6145
  146ACOH    H310068   3.880   1.975   0.626  0.5461 -0.2264 -1.6083
  147ACOH    H410069   4.685   3.058   0.085 -0.4466  0.0198  1.6051
  147ACOH    O210070   4.757   2.994   0.096 -0.1551  0.0462 -0.0481
  147ACOH    C210071   4.859   3.058   0.159 -0.3889 -0.5999  0.3155
  147ACOH    O110072   4.839   3.163   0.225  0.6782 -0.5547 -0.0298
  147ACOH    C110073   4.978   2.972   0.184  0.0862  0.7762 -0.0081
  147ACOH    H110074   4.953   2.872   0.146  0.1236  1.1707 -1.1018
  147ACOH    H210075   5.004   2.964   0.289  1.4150  0.0470 -0.3819
  147ACOH    H310076   5.063   3.007   0.126  0.6152 -0.6341 -0.1068
  148ACOH    H410077   4.225   4.135   2.257  0.4884 -0.4364 -0.2131
  148ACOH    O210078   4.221   4.140   2.354  0.0543 -0.4455 -0.2315
  148ACOH    C210079   4.353   4.153   2.393 -0.1412  0.0775 -0.4863
  148ACOH    O110080   4.450   4.151   2.319  0.3282  0.2598  0.1189
  148ACOH    C110081   4.375   4.117   2.541  1.0640 -0.7772 -0.1466
  148ACOH    H110082   4.482   4.114   2.563  1.0919  0.9413 -0.0009
  148ACOH    H210083   4.330   4.018   2.552  0.0173 -0.0185  2.6647
  148ACOH    H310084   4.331   4.190   2.609 -3.0274 -1.7982 -1.5425
  149ACOH    H410085   2.625   4.476   2.550 -0.7508  0.9813 -0.2372
  149ACOH    O210086   2.576   4.472   2.634 -0.2765 -0.3461 -0.0141
  149ACOH    C210087   2.540   4.602   2.676 -0.5090 -0.1870 -0.2097
  149ACOH    O110088   2.541   4.702   2.609  0.3950 -0.9323 -0.2485
  149ACOH    C110089   2.465   4.597   2.811  0.6498  0.8934 -0.1880
  149ACOH    H110090   2.472   4.699   2.849 -3.4606  0.6795  1.3893
  149ACOH    H210091   2.507   4.518   2.874  0.4769 -1.2639 -2.6765
  149ACOH    H310092   2.360   4.576   2.791  0.8913 -0.1663 -0.3788
  150ACOH    H410093   4.848   2.376   1.372 -0.0334 -1.3912  1.3362
  150ACOH    O210094   4.886   2.315   1.307 -0.1345  0.1474 -0.1995
  150ACOH    C210095   4.785   2.264   1.231  0.1412 -0.1557 -0.5564
  150ACOH    O110096   4.662   2.288   1.236 -0.4192 -0.1376  0.1018
  150ACOH    C110097   4.837   2.160   1.136 -0.4216 -0.2639 -0.2977
  150ACOH    H110098   4.822   2.060   1.178  1.9827 -0.0539  1.1849
  150ACOH    H210099   4.945   2.176   1.129 -0.6253  0.0562 -3.0230
  150ACOH    H310100   4.797   2.163   1.035  0.9947  0.7059 -0.8438
  151ACOH    H410101   3.804   2.273   1.958 -0.0907  0.8543 -0.2897
  151ACOH    O210102   3.764   2.186   1.942 -0.1546  0.8989 -0.3704
  151ACOH    C210103   3.758   2.123   2.056  0.9892  0.7725  0.7225
  151ACOH    O110104   3.849   2.134   2.140  0.4787 -0.0773  0.2383
  151ACOH    C110105   3.664   2.004   2.046 -0.2218 -0.9348  0.9884
  151ACOH    H110106   3.578   2.023   2.109 -1.1945 -0.1322 -0.5463
  151ACOH    H210107   3.717   1.913   2.073  1.4376  0.1394  1.4739
  151ACOH    H310108   3.628   2.002   1.943  0.6592  0.4605  0.6308
  152ACOH    H410109   4.251   5.372   1.135  0.2004  0.2547 -0.7946
  152ACOH    O210110   4.312   5.435   1.176  0.2684  0.0509 -0.5759
  152ACOH    C210111   4.431   5.370   1.188  0.9161 -0.6015 -0.4613
  152ACOH    O110112   4.452   5.252   1.176  0.3874 -0.5871  0.0027
  152ACOH    C110113   4.543   5.456   1.223 -0.0593 -0.1270  1.1566
  152ACOH    H110114   4.514   5.561   1.235 -0.2294  0.2350 -1.9166
  152ACOH    H210115   4.616   5.460   1.142 -0.1562  1.7465  1.1405
  152ACOH    H310116   4.585   5.422   1.317  0.9612  1.6289  1.3729
  153ACOH    H410117   2.797   5.095   2.203  3.0499 -1.3824  1.1122
  153ACOH    O210118   2.765   5.115   2.292  0.0238  0.1428 -0.2462
  153ACOH    C210119   2.672   5.025   2.320 -0.5975  0.3210  0.1681
  153ACOH    O110120   2.637   4.935   2.244 -0.0680 -0.2745  0.0252
  153ACOH    C110121   2.640   5.012   2.464 -0.4296 -0.0292 -0.1030
  153ACOH    H110122   2.542   5.054   2.483 -0.4755  0.1977 -0.8221
  153ACOH    H210123   2.714   5.063   2.526 -1.6960  0.4434  1.0361
  153ACOH    H310124   2.636   4.908   2.495 -1.0126  1.0892  3.8282
  154ACOH    H410125   2.570   0.730   0.939  0.0602  0.3351  1.4866
  154ACOH    O210126   2.616   0.644   0.943  0.2949  0.3840  0.0753
  154ACOH    C210127   2.711   0.654   0.849 -0.4188 -0.2918 -0.5563
  154ACOH    O110128   2.721   0.741   0.768  0.0842 -0.1377 -0.1591
  154ACOH    C110129   2.816   0.557   0.884 -0.0502  0.1120 -0.2578
  154ACOH    H110130   2.878   0.536   0.797  1.9335  0.0122  1.1417
  154ACOH    H210131   2.767   0.467   0.922 -1.5273  1.2422  0.5516
  154ACOH    H310132   2.883   0.602   0.957 -2.2594  1.6358  0.8956
  155SOL     OW10133   2.227   2.708   2.594  0.1448  0.3005 -0.3716
  155SOL    HW110134   2.206   2.745   2.684  2.0374  1.1121 -0.2444
  155SOL    HW210135   2.188   2.768   2.523 -0.7575  0.0241 -0.1172
  156SOL     OW10136   2.749   3.667   0.571  0.3971  0.4308 -0.2472
  156SOL    HW110137   2.832   3.661   0.626  0.0536 -0.0721  0.2326
  156SOL    HW210138   2.711   3.575   0.558 -0.3900  0.7087  0.0341
  157SOL     OW10139   3.589   3.685   1.157  0.5623  0.0500 -0.1218
  157SOL    HW110140   3.609   3.766   1.102  0.3441 -0.0414 -0.3381
  157SOL    HW210141   3.499   3.695   1.200 -0.1862 -0.7595 -1.4390
  158SOL     OW10142   2.618   3.494   1.025  0.0265  0.3679 -0.2126
  158SOL    HW110143   2.647   3.424   0.960 -1.0759  0.7117 -1.0822
  158SOL    HW210144   2.617   3.455   1.117  0.4837 -0.4516 -0.5480
  159SOL     OW10145   3.478   3.325   2.099  0.0065  0.0016  0.1722
  159SOL    HW110146   3.490   3.293   2.005  2.3906 -0.2956  0.5621
  159SOL    HW210147   3.488   3.424   2.102  0.9709 -0.1019  0.2834
  160SOL     OW10148   3.128   3.140   0.524 -0.2129 -0.1129 -0.2476
  160SOL    HW110149   3.182   3.056   0.535  1.1222  0.7348 -0.2546
  160SOL    HW210150   3.182   3.219   0.552 -1.7658  0.6846  0.5922
  161SOL     OW10151   3.478   3.930   0.126 -0.1343  0.0355  0.4939
  161SOL    HW110152   3.577   3.945   0.127 -0.1287 -0.0042  0.6427
  161SOL    HW210153   3.453   3.875   0.046 -0.3175  1.8644 -0.7293
  162SOL     OW10154   4.351   2.956   0.750 -0.4546 -0.5452  0.4712
  162SOL    HW110155   4.366   3.002   0.662  0.1354 -0.5929  0.5465
  162SOL    HW210156   4.273   2.998   0.796 -0.5931 -0.3317  0.0540
  163SOL     OW10157   4.756   2.857   2.090  0.0528 -0.1366  0.5416
  163SOL    HW110158   4.847   2.860   2.130  0.4563  1.1180 -0.4569
  163SOL    HW210159   4.754   2.910   2.006 -1.7099  0.2144  0.7803
  164SOL     OW10160   2.796   2.180   2.304 -0.2242 -0.0005 -0.1533
  164SOL    HW110161   2.723   2.112   2.304  0.3478 -0.6707 -2.6491
  164SOL    HW210162   2.760   2.268   2.333 -1.0864 -1.2233  2.6314
  165SOL     OW10163   3.450   1.280   0.771  0.6543  0.1933  0.1038
  165SOL    HW110164   3.541   1.295   0.807  1.6344  0.1165 -2.2420
  165SOL    HW210165   3.403   1.210   0.824  2.0424  0.0718  1.1638
  166SOL     OW10166   3.410   1.533   1.022 -0.6524 -0.1927 -0.3383
  166SOL    HW110167   3.458   1.550   1.109  0.2293  1.3482 -1.0942
  166SOL    HW210168   3.392   1.436   1.013 -0.4145 -0.4280  1.4046
  167SOL     OW10169   4.802   3.811   1.351 -0.6003  0.2356  0.6142
  167SOL    HW110170   4.824   3.904   1.380  0.6041 -0.4119  1.8611
  167SOL    HW210171   4.732   3.772   1.411  0.0421 -0.2084  1.0853
  168SOL     OW10172   3.692   3.043   1.679  0.0389  0.0532  0.0246
  168SOL    HW110173   3.783   3.013   1.709 -0.2636 -0.9968 -0.0848
  168SOL    HW210174   3.699   3.085   1.589  0.1556 -1.7013 -0.8053
  169SOL     OW10175   3.166   2.165  -0.032  0.2375 -0.4004  0.0910
  169SOL    HW110176   3.107   2.245  -0.022 -0.0065 -0.2783 -2.0081
  169SOL    HW210177   3.130   2.106  -0.105  1.0394 -1.8576  0.8493
  170SOL     OW10178   3.402   4.440   1.464 -0.2081  0.4542  0.0426
  170SOL    HW110179   3.434   4.373   1.396 -2.4014  1.0898 -1.6703
  170SOL    HW210180   3.418   4.404   1.556  0.2146 -1.6800 -0.8221
  171SOL     OW10181   2.632   4.912   0.077  0.0973 -0.4060  0.3780
  171SOL    HW110182   2.635   5.010   0.057  1.8669 -0.4847  0.2462
  171SOL    HW210183   2.624   4.860  -0.008  0.6301 -0.4367  0.3457
  172SOL     OW10184   3.148   1.794   2.292 -0.3662  0.1113  0.1492
  172SOL    HW110185   3.216   1.852   2.338 -2.0684  1.1855  1.3535
  172SOL    HW210186   3.141   1.821   2.196 -0.2517  1.0741  0.4011
  173SOL     OW10187   4.286   4.156   1.424  0.9069  0.5683  0.1692
  173SOL    HW110188   4.330   4.220   1.487 -0.4331  0.5023  1.1895
  173SOL    HW210189   4.187   4.170   1.427  0.5777 -1.8037  0.6732
  174SOL     OW10190   3.012   1.992   1.799  0.0701 -0.3845 -0.5018
  174SOL    HW110191   2.989   1.914   1.857 -0.5340  0.4592  0.4140
  174SOL    HW210192   2.931   2.050   1.787  0.5560  0.2055 -1.0098
  175SOL     OW10193   4.289   2.350   2.143 -0.4881 -0.4113  0.0416
  175SOL    HW110194   4.323   2.272   2.194 -2.2049 -0.6603  0.8405
  175SOL    HW210195   4.322   2.435   2.184 -1.5517 -0.6211  1.3653
  176SOL     OW10196   2.712   4.168   2.340  0.0113  0.2255 -0.2604
  176SOL    HW110197   2.798   4.184   2.390  1.2648 -0.0105 -2.2677
  176SOL    HW210198   2.733   4.143   2.245 -2.2069 -3.0204  0.0411
  177SOL     OW10199   2.870   3.939   0.931  0.3330 -0.8085 -0.3114
  177SOL    HW110200   2.946   3.934   0.996 -0.7380  0.0797  1.0469
  177SOL    HW210201   2.824   3.851   0.927 -0.2620 -0.5701  0.9842
  178SOL     OW10202   1.842   3.655   1.971 -0.9696  0.3988  0.8498
  178SOL    HW110203   1.783   3.641   1.891 -1.0007 -0.1767  0.9687
  178SOL    HW210204   1.785   3.657   2.053 -0.5786 -2.9722  1.2486
  179SOL     OW10205   2.632   1.394   2.406 -0.1356  0.2609  0.3846
  179SOL    HW110206   2.691   1.406   2.486 -1.1102 -0.4653  1.2339
  179SOL    HW210207   2.548   1.447   2.418  0.0423  0.7509 -0.5083
  180SOL     OW10208   2.351   3.062   1.711  0.4792  0.5067  0.0690
  180SOL    HW110209   2.444   3.085   1.742  1.0352 -1.0345 -0.4063
  180SOL    HW210210   2.347   3.071   1.611  0.6331 -1.1449 -0.0970
  181SOL     OW10211   3.146   2.867  -0.111 -0.2963 -0.6444 -0.2535
  181SOL    HW110212   3.047   2.868  -0.129 -0.0869 -1.6289 -1.5542
  181SOL    HW210213   3.184   2.957  -0.132 -0.8770 -0.3148  0.0681
  182SOL     OW10214   2.786   1.097   1.285 -0.3966  0.2386 -0.1080
  182SOL    HW110215   2.842   1.111   1.366 -2.1619 -0.9115  1.3533
  182SOL    HW210216   2.694   1.067   1.312 -1.5367  1.4320 -2.4528
  183SOL     OW10217   4.041   5.023  -0.007  0.7171 -0.0761 -0.3309
  183SOL    HW110218   4.014   4.988   0.083  0.0811 -2.3762 -1.3833
  183SOL    HW210219   4.141   5.033  -0.010  0.7690 -0.2725  0.5306
  184SOL     OW10220   3.694   2.561   2.231  0.3947 -0.7614 -0.0018
  184SOL    HW110221   3.633   2.504   2.175 -0.4994 -1.3372  1.5477
  184SOL    HW210222   3.641   2.635   2.273  1.5763  1.3511 -2.1209
  185SOL     OW10223   4.485   3.592   0.382  0.0220  0.3548 -0.2608
  185SOL    HW110224   4.406   3.563   0.328 -0.1852  0.9925 -0.2956
  185SOL    HW210225   4.561   3.530   0.364 -0.3803 -0.0973 -0.4405
  186SOL     OW10226   2.883   2.195   2.050  0.2905  0.3811 -0.0819
  186SOL    HW110227   2.807   2.186   1.986  0.4216 -1.4360 -0.0099
  186SOL    HW210228   2.848   2.199   2.143  0.1562  2.1075 -0.1835
  187SOL     OW10229   2.596   2.626   0.202 -0.0655  0.7131 -0.1227
  187SOL    HW110230   2.616   2.670   0.114  0.2524 -0.0107 -0.4168
  187SOL    HW210231   2.682   2.599   0.246 -0.3265 -1.7213 -1.0287
  188SOL     OW10232   3.583   2.071   0.400  0.0680  0.1496 -0.1649
  188SOL    HW110233   3.519   2.121   0.342 -3.4044 -1.7306  1.9150
  188SOL    HW210234   3.590   2.116   0.489  0.2759 -0.6464  0.2247
  189SOL     OW10235   4.178   3.530   1.360 -0.1580  0.0210  0.3541
  189SOL    HW110236   4.275   3.539   1.380 -0.1926  0.1142  0.4732
  189SOL    HW210237   4.160   3.563   1.267 -0.0851  0.0523  0.3512
  190SOL     OW10238   2.427   2.824   2.340  0.1307  0.4074  0.3951
  190SOL    HW110239   2.477   2.885   2.278  2.6342 -0.3333  1.6175
  190SOL    HW210240   2.447   2.850   2.435  0.3079 -1.5672  0.9216
  191SOL     OW10241   2.694   4.431   2.420 -0.0793  0.0268 -0.7071
  191SOL    HW110242   2.677   4.496   2.346  0.0311 -1.0430 -1.6910
  191SOL    HW210243   2.688   4.338   2.384 -0.2214 -0.5083  0.6788
  192SOL     OW10244   3.502   4.448   0.455  0.0740 -0.0021  0.0133
  192SOL    HW110245   3.446   4.475   0.534 -0.4769 -1.0837  0.0066
  192SOL    HW210246   3.555   4.527   0.424  0.3406  0.4286  1.4945
  193SOL     OW10247   3.127  10.211   0.293 -0.0319 -0.1427 -0.6366
  193SOL    HW110248   3.124  10.255   0.203  0.5634 -0.6156 -0.8866
  193SOL    HW210249   3.035  10.211   0.332 -0.1710  0.6896 -0.9370
  194SOL     OW10250   2.166   2.681   0.122 -0.0048  0.4975 -0.3680
  194SOL    HW110251   2.213   2.677   0.210 -1.1481 -2.0493  0.1777
  194SOL    HW210252   2.159   2.589   0.083 -2.8848  1.0380 -1.3039
  195SOL     OW10253   2.678   1.653   0.519 -0.0943  0.7412  0.2695
  195SOL    HW110254   2.674   1.559   0.552  0.0053  0.4958 -0.4036
  195SOL    HW210255   2.736   1.658   0.438 -1.7239  1.0207 -0.8998
  196SOL     OW10256   3.406  10.296   0.176  0.2273  0.4709  0.0335
  196SOL    HW110257   3.329  10.356   0.153 -0.8397 -0.4311  1.1848
  196SOL    HW210258   3.439  10.252   0.093 -1.8679 -0.7354 -0.1938
  197SOL     OW10259   4.520   2.819   2.223  0.0280 -0.1249 -0.1542
  197SOL    HW110260   4.606   2.830   2.174  0.0958  2.0224  0.4255
  197SOL    HW210261   4.445   2.857   2.169 -0.4662 -1.3341 -0.3387
  198SOL     OW10262   2.844   4.665   0.021  0.3709  0.1372  0.0147
  198SOL    HW110263   2.820   4.738   0.085  1.7227  1.0199 -0.4732
  198SOL    HW210264   2.896   4.703  -0.055  0.1919 -1.1777 -0.7824
  199SOL     OW10265   3.776   5.273   0.522 -0.0892 -0.2195 -0.0156
  199SOL    HW110266   3.687   5.229   0.507  0.2307 -0.8059 -0.1952
  199SOL    HW210267   3.762   5.359   0.571 -0.9150  0.4850 -1.4346
  200SOL     OW10268   3.919   3.220   1.380 -0.2776  0.3319 -0.3718
  200SOL    HW110269   3.831   3.176   1.399 -0.8258  1.3824 -0.4170
  200SOL    HW210270   3.991   3.174   1.432 -0.7259 -1.0266 -0.9327
  201SOL     OW10271   3.346   3.277   1.773 -0.4410 -0.5733  0.4636
  201SOL    HW110272   3.292   3.212   1.827  2.1014 -1.6626  1.7709
  201SOL    HW210273   3.442   3.268   1.797  0.1120  2.8627 -0.2494
  202SOL     OW10274   3.172   5.273   1.870 -0.2255 -0.0262  0.1291
  202SOL    HW110275   3.096   5.321   1.914  0.0990 -2.4732  3.4563
  202SOL    HW210276   3.254   5.331   1.874 -0.4357  0.1660  1.8817
  203SOL     OW10277   2.632   1.768   0.815  0.0114 -0.2237  0.1485
  203SOL    HW110278   2.673   1.740   0.728 -0.5750 -2.0440  0.4435
  203SOL    HW210279   2.611   1.687   0.869 -0.1051  0.8830  1.7799
  204SOL     OW10280   3.753   3.930   0.141  0.0741 -0.3488 -0.1533
  204SOL    HW110281   3.773   3.944   0.238 -0.2894 -0.8373 -0.0079
  204SOL    HW210282   3.768   4.016   0.092 -1.0649  0.2711  0.5657
  205SOL     OW10283   3.029   0.846   1.000  0.4677  0.2572  0.2517
  205SOL    HW110284   3.049   0.830   1.097  0.3665  2.0008  0.5839
  205SOL    HW210285   2.948   0.904   0.992  0.7971  0.5739 -0.8705
  206SOL     OW10286   2.660   2.386   2.431 -0.1558  0.2813 -0.0763
  206SOL    HW110287   2.626   2.433   2.350 -1.5598 -0.9239 -0.1987
  206SOL    HW210288   2.591   2.389   2.503  0.5082  0.0855  0.5726
  207SOL     OW10289   3.274   4.789   0.549  0.7339  0.3219 -0.0214
  207SOL    HW110290   3.253   4.871   0.497  1.3004  0.7728  0.4569
  207SOL    HW210291   3.373   4.776   0.553  0.6733 -0.0034  0.4970
  208SOL     OW10292   3.789   0.934   1.326  0.1261  0.3683 -0.1271
  208SOL    HW110293   3.882   0.939   1.290  0.0130 -0.3981 -0.5265
  208SOL    HW210294   3.727   0.983   1.265  0.0232 -0.4469 -0.6800
  209SOL     OW10295   2.580   2.423  -0.074  0.1020 -0.2365  0.2170
  209SOL    HW110296   2.658   2.387  -0.022  0.3856  1.2810  0.8779
  209SOL    HW210297   2.569   2.520  -0.054 -0.3876  0.1529 -1.8372
  210SOL     OW10298   3.337   2.329   0.404 -0.1780  0.5756  0.5431
  210SOL    HW110299   3.261   2.390   0.427 -0.6345 -0.3065  1.4380
  210SOL    HW210300   3.411   2.382   0.363 -1.0646  1.5287  0.1563
  211SOL     OW10301   3.023   0.685   1.642 -0.0371 -0.0656 -0.0542
  211SOL    HW110302   3.045   0.729   1.729 -2.7961  0.3518  0.4605
  211SOL    HW210303   2.979   0.751   1.581  0.9535 -0.6293 -1.4360
  212SOL     OW10304   3.323   3.240   0.006  0.2451 -0.2665 -0.3968
  212SOL    HW110305   3.292   3.189  -0.074  0.4723  0.2294 -0.8001
  212SOL    HW210306   3.305   3.186   0.089 -1.2249 -0.2163 -0.6701
  213SOL     OW10307   3.634   3.102   0.243  0.1952 -0.0417 -0.3316
  213SOL    HW110308   3.575   3.173   0.203 -0.1013 -0.6293 -0.9751
  213SOL    HW210309   3.577   3.023   0.266  0.5762 -0.2009  0.0405
  214SOL     OW10310   3.469   4.617   0.009 -0.8169  0.2057 -0.0865
  214SOL    HW110311   3.568   4.623  -0.001 -0.7113 -0.2116  0.6823
  214SOL    HW210312   3.426   4.622  -0.081 -0.0577 -0.2812 -0.4841
  215SOL     OW10313   2.632   2.814   2.002 -0.2562  0.0402  0.1172
  215SOL    HW110314   2.600   2.894   2.052  1.4546  0.9402 -0.1697
  215SOL    HW210315   2.554   2.764   1.965 -1.3541  1.4797  0.4498
  216SOL     OW10316   3.807   5.173   1.525 -0.1780  0.8061  0.3054
  216SOL    HW110317   3.816   5.190   1.624  2.7195 -0.1252  0.2525
  216SOL    HW210318   3.848   5.249   1.475  1.2174 -0.1902 -0.1061
  217SOL     OW10319   3.176  10.422   0.083 -0.2946  0.4899  0.2579
  217SOL    HW110320   3.226  10.464   0.007  0.2819 -1.3462 -0.4143
  217SOL    HW210321   3.100  10.481   0.110 -0.2522  1.3698 -1.4658
  218SOL     OW10322   3.425   4.156   1.697 -0.5036  0.4518  0.4767
  218SOL    HW110323   3.332   4.190   1.680  0.1670  2.2240  0.2465
  218SOL    HW210324   3.491   4.227   1.674  1.0159 -1.3422 -0.8940
  219SOL     OW10325   3.117   1.169   1.984  0.2191  0.2120  0.2926
  219SOL    HW110326   3.044   1.122   1.934 -0.3303  0.7586  0.5611
  219SOL    HW210327   3.206   1.142   1.948 -0.1469  0.0908 -0.5300
  220SOL     OW10328   2.595   1.501  -0.014  0.0762  0.2975  0.0654
  220SOL    HW110329   2.548   1.447   0.055 -1.1897  0.6203 -0.5363
  220SOL    HW210330   2.690   1.515   0.014  0.2896 -1.7978  0.4783
  221SOL     OW10331   4.694   3.397   0.326  0.1832 -0.1714  0.1016
  221SOL    HW110332   4.713   3.298   0.327  2.0864  0.1875  1.5249
  221SOL    HW210333   4.736   3.438   0.245 -1.6561 -0.6880 -1.1609
  222SOL     OW10334   2.636   3.851   1.158 -0.2721 -0.0973  0.1850
  222SOL    HW110335   2.663   3.803   1.075  1.6713  0.1647  0.6246
  222SOL    HW210336   2.564   3.916   1.137  0.1752 -0.0546 -1.3005
  223SOL     OW10337   2.822  10.605   0.175  0.1707 -0.4347 -0.2613
  223SOL    HW110338   2.778  10.575   0.259  2.2153 -2.5381  0.0975
  223SOL    HW210339   2.903  10.660   0.198 -0.0769  0.1991 -0.8783
  224SOL     OW10340   3.261   3.098   2.549  0.5099 -0.1403 -0.3712
  224SOL    HW110341   3.230   3.134   2.461  1.4568 -0.8966 -1.0255
  224SOL    HW210342   3.357   3.070   2.542  0.6782  0.0596  0.9822
  225SOL     OW10343   3.896   2.159   1.352  0.6064  0.2706 -0.5927
  225SOL    HW110344   3.953   2.078   1.358  0.1492 -0.2862 -2.9507
  225SOL    HW210345   3.912   2.204   1.264 -0.2587  1.8729  0.0463
  226SOL     OW10346   4.297   2.762   1.615 -0.1902 -0.5893 -0.0102
  226SOL    HW110347   4.215   2.768   1.672 -0.4982 -1.3563 -0.3746
  226SOL    HW210348   4.335   2.670   1.621 -0.2472 -0.6792 -1.0806
  227SOL     OW10349   3.235  10.544   0.602 -0.0848  0.2730  0.0869
  227SOL    HW110350   3.261  10.484   0.526 -1.8905 -0.7612  0.2506
  227SOL    HW210351   3.301  10.534   0.676  1.0185  0.3831 -0.8736
  228SOL     OW10352   2.360   2.421   1.794 -0.0919  0.4870  0.3348
  228SOL    HW110353   2.455   2.392   1.802 -0.1170  0.4846  0.6407
  228SOL    HW210354   2.344   2.461   1.704  0.3150  0.8897  0.4399
  229SOL     OW10355   3.152   4.205  -0.011 -0.0455 -0.8349 -0.1958
  229SOL    HW110356   3.096   4.221  -0.092 -1.4327  2.2358  1.2855
  229SOL    HW210357   3.239   4.253  -0.021  0.0315 -0.9636 -0.1382
  230SOL     OW10358   2.236   1.800   2.028  0.3451 -0.1094 -0.1696
  230SOL    HW110359   2.268   1.707   2.014 -0.2851 -0.4360  0.5309
  230SOL    HW210360   2.210   1.813   2.124 -2.2947 -0.0731 -0.8582
  231SOL     OW10361   4.360   2.853  -0.020  0.4720  0.5173  0.7012
  231SOL    HW110362   4.281   2.908  -0.047 -0.4730 -0.4062  1.5545
  231SOL    HW210363   4.418   2.836  -0.100 -1.2909 -0.5809 -0.3677
  232SOL     OW10364   3.884   3.807   2.336 -0.2668  0.0823 -0.8520
  232SOL    HW110365   3.874   3.811   2.237  1.3413  0.9121 -1.0012
  232SOL    HW210366   3.979   3.785   2.358 -0.4969  0.4269  0.5126
  233SOL     OW10367   2.485   1.992   0.446 -0.1537 -0.8632  0.2918
  233SOL    HW110368   2.428   1.913   0.424 -1.6380  0.9822 -2.8493
  233SOL    HW210369   2.559   1.998   0.379 -0.2864  0.6047  0.2714
  234SOL     OW10370   2.563   0.737   1.669  0.4624  0.2095 -0.2286
  234SOL    HW110371   2.618   0.673   1.616 -0.3521  0.7999 -1.8206
  234SOL    HW210372   2.475   0.695   1.692 -0.0391  0.7199 -1.2026
  235SOL     OW10373   4.177   3.064   2.423 -0.2154 -0.6265 -0.2858
  235SOL    HW110374   4.155   3.119   2.343  0.7965 -0.1317 -0.2348
  235SOL    HW210375   4.170   2.967   2.400  0.1083 -0.4838 -0.9767
  236SOL     OW10376   3.475   4.523   0.967 -0.1401  0.2982 -0.0477
  236SOL    HW110377   3.433   4.610   0.939 -1.9466 -0.7755 -0.7916
  236SOL    HW210378   3.449   4.452   0.902 -0.9007 -1.3659  2.0463
  237SOL     OW10379   4.336   3.508   0.646  0.6154  0.9473  0.2678
  237SOL    HW110380   4.256   3.548   0.601 -0.9033 -2.9106 -0.6665
  237SOL    HW210381   4.409   3.494   0.579  0.1904 -0.1590  0.0186
  238SOL     OW10382   2.165   3.396   1.441 -0.0817 -0.1590  0.2374
  238SOL    HW110383   2.180   3.433   1.532  1.5684 -1.6540  0.6174
  238SOL    HW210384   2.211   3.453   1.373 -0.4457  0.3914  0.4596
  239SOL     OW10385   4.139   2.711   1.842  0.1683 -0.1747  0.7468
  239SOL    HW110386   4.064   2.751   1.895 -0.3790 -1.1081  0.6700
  239SOL    HW210387   4.186   2.642   1.896  2.4006  1.9288  1.6300
  240SOL     OW10388   3.673   4.252   0.531 -0.1743 -0.2292 -0.6013
  240SOL    HW110389   3.635   4.191   0.602 -1.0815 -0.3197 -1.1502
  240SOL    HW210390   3.601   4.314   0.500  0.6720  0.9252 -0.2655
  241SOL     OW10391   3.791   4.959   1.114  0.1325 -0.3614 -0.1736
  241SOL    HW110392   3.744   4.909   1.187 -0.2686 -1.0122 -0.8713
  241SOL    HW210393   3.889   4.964   1.135  0.2728 -2.0061 -0.4191
  242SOL     OW10394   3.388   3.757  -0.054  0.1812 -0.0874 -0.2860
  242SOL    HW110395   3.364   3.794  -0.143 -2.2876  0.8219  0.6958
  242SOL    HW210396   3.325   3.682  -0.031  0.1897  0.2889  1.0486
  243SOL     OW10397   2.930  10.399   1.523  0.1147  0.5902  0.0508
  243SOL    HW110398   2.986  10.436   1.597 -0.7230 -0.5908  1.3006
  243SOL    HW210399   2.957  10.304   1.505 -0.8956  0.2876  0.0844
  244SOL     OW10400   4.006   1.597   1.163 -0.0799 -0.1009 -0.1334
  244SOL    HW110401   3.948   1.567   1.087  0.2134  0.1898 -0.4692
  244SOL    HW210402   3.954   1.589   1.249 -0.5026 -0.1699 -0.3927
  245SOL     OW10403   4.581   2.917   0.438 -0.1579  0.6810 -0.2880
  245SOL    HW110404   4.528   2.952   0.361 -0.1452  0.6730 -0.3002
  245SOL    HW210405   4.584   2.986   0.510 -1.9511 -0.1039  0.5553
  246SOL     OW10406   2.401   2.167   0.616  0.2206 -0.1531  0.5719
  246SOL    HW110407   2.423   2.125   0.527 -1.2069  0.2327  0.0213
  246SOL    HW210408   2.454   2.122   0.688  1.7383 -0.1701 -0.5256
  247SOL     OW10409   3.084   4.482   0.693  0.1740  0.1533 -0.1508
  247SOL    HW110410   3.054   4.572   0.662  0.4860  0.9973  1.9320
  247SOL    HW210411   3.005   4.423   0.706 -0.4049  1.4140  2.3536
  248SOL     OW10412   3.217   2.286   1.120  0.6284  0.0921 -0.3037
  248SOL    HW110413   3.133   2.234   1.136  1.5066 -0.6401  2.1746
  248SOL    HW210414   3.238   2.285   1.022 -1.3133 -1.1509 -0.7511
  249SOL     OW10415   2.597   2.374   0.918 -0.8222 -0.0182 -0.0739
  249SOL    HW110416   2.579   2.416   0.829 -0.4811  0.2560 -0.0158
  249SOL    HW210417   2.510   2.345   0.959 -1.0193  0.2120 -0.3196
  250SOL     OW10418   3.972   2.487   0.151  0.1007  0.3499  0.2870
  250SOL    HW110419   3.874   2.481   0.168  0.3001 -1.8507  0.9084
  250SOL    HW210420   4.011   2.564   0.201 -1.1936  0.7514  0.6675
  251SOL     OW10421   2.487   3.461   0.440  0.3115 -0.3990 -0.0920
  251SOL    HW110422   2.486   3.557   0.412  0.5239 -0.6620 -1.0295
  251SOL    HW210423   2.474   3.403   0.360  0.5016 -1.1647  0.4248
  252SOL     OW10424   3.097   4.952   0.213  0.1602 -0.3608  0.3531
  252SOL    HW110425   3.178   4.981   0.266  0.8497 -0.6711 -0.5260
  252SOL    HW210426   3.095   4.852   0.209  0.7447 -0.3235 -1.1665
  253SOL     OW10427   2.495   2.298   0.348  0.0176 -0.3391 -0.3130
  253SOL    HW110428   2.593   2.285   0.362 -0.1778 -1.5430 -0.0125
  253SOL    HW210429   2.470   2.392   0.371  0.9305 -0.3018  0.5580
  254SOL     OW10430   3.517  10.168   0.829 -0.0617 -0.3387 -0.1296
  254SOL    HW110431   3.458  10.183   0.908 -1.3192 -3.1236 -0.4616
  254SOL    HW210432   3.592  10.107   0.855 -0.4478 -1.2238 -1.0353
  255SOL     OW10433   2.493   0.889   0.928 -0.5141 -0.0848 -0.1930
  255SOL    HW110434   2.530   0.965   0.874  2.1497 -0.1956  1.3886
  255SOL    HW210435   2.422   0.923   0.990  0.2358  1.0291  0.0686
  256SOL     OW10436   3.503   3.761   0.856 -0.0561  0.6868  0.0519
  256SOL    HW110437   3.554   3.824   0.915 -0.6903 -0.4434  1.8403
  256SOL    HW210438   3.464   3.812   0.779 -0.0147  2.3626  1.1090
  257SOL     OW10439   3.603   1.594   0.858  0.7074  0.3603  0.1123
  257SOL    HW110440   3.515   1.556   0.887  1.0531 -0.3070  0.2983
  257SOL    HW210441   3.602   1.608   0.759  0.7141 -0.5184 -0.0175
  258SOL     OW10442   4.121   2.962   0.974 -0.0878  0.0080 -0.9127
  258SOL    HW110443   4.062   3.022   0.920 -0.2888 -0.5851 -1.3529
  258SOL    HW210444   4.088   2.868   0.968  0.6944 -0.2735 -0.8730
  259SOL     OW10445   3.589   3.954   1.051 -0.3324  0.0840 -0.5075
  259SOL    HW110446   3.614   4.031   0.991  0.0198  0.5849  0.2776
  259SOL    HW210447   3.581   3.987   1.145 -1.2120 -0.6372 -0.3301
  260SOL     OW10448   3.762   2.700   0.979 -0.7513 -0.1991  0.2057
  260SOL    HW110449   3.733   2.794   0.999 -2.9330 -1.0881  1.4549
  260SOL    HW210450   3.682   2.646   0.954  0.3757 -1.9166  0.2712
  261SOL     OW10451   4.529   4.360   0.631  0.1283  0.6117  0.0796
  261SOL    HW110452   4.562   4.410   0.711 -1.0547  1.5603  0.0014
  261SOL    HW210453   4.532   4.262   0.649 -0.2120  0.8179  1.3276
  262SOL     OW10454   3.633   9.880   0.434  0.3743 -0.3669  0.3875
  262SOL    HW110455   3.592   9.951   0.491  0.8715 -0.4416  0.8432
  262SOL    HW210456   3.619   9.791   0.476 -0.6064 -0.5867 -0.3925
  263SOL     OW10457   2.684   4.555   1.748 -0.2829 -0.3435 -0.2389
  263SOL    HW110458   2.738   4.474   1.723  0.7162  0.5728 -1.1048
  263SOL    HW210459   2.588   4.539   1.725  0.0419 -0.9494 -1.2159
  264SOL     OW10460   3.534   4.045   1.304  0.7040 -0.3583  0.3673
  264SOL    HW110461   3.482   3.984   1.364  0.3892 -0.2866  0.1666
  264SOL    HW210462   3.485   4.132   1.294  0.8286 -0.3165  0.1202
  265SOL     OW10463   2.348   3.226   1.036 -0.4886  0.0348 -0.2790
  265SOL    HW110464   2.335   3.320   1.002 -2.0221  0.1684  0.6399
  265SOL    HW210465   2.292   3.212   1.117  0.0930 -1.5547 -0.1395
  266SOL     OW10466   2.160   2.903   2.394  0.1094  0.3673  0.3236
  266SOL    HW110467   2.241   2.865   2.350 -0.8933 -0.9245 -0.4493
  266SOL    HW210468   2.134   2.988   2.349  0.5927  0.3922  0.0874
  267SOL     OW10469   2.257   2.852   1.095  0.3987  0.1293  0.0043
  267SOL    HW110470   2.295   2.803   1.016 -1.3853  1.4644 -1.7421
  267SOL    HW210471   2.316   2.930   1.118 -0.3419  1.1985 -1.6179
  268SOL     OW10472   3.075   2.040   2.479  0.4535  0.2952  0.1043
  268SOL    HW110473   2.983   2.063   2.509 -0.5471 -3.3620  0.0921
  268SOL    HW210474   3.080   2.046   2.379 -0.0760 -0.4985  0.0283
  269SOL     OW10475   3.334   5.373   1.043  0.0877 -0.4312  0.3774
  269SOL    HW110476   3.374   5.289   1.079  1.5187 -0.0980 -0.4360
  269SOL    HW210477   3.404   5.427   0.996 -1.4486 -0.1916 -1.6966
  270SOL     OW10478   3.583   1.294   1.547  0.0749  0.2058 -0.1868
  270SOL    HW110479   3.641   1.302   1.466  0.3206  1.4807  0.0999
  270SOL    HW210480   3.573   1.384   1.590 -0.7442 -0.3060  0.7191
  271SOL     OW10481   3.530   1.791   1.259  0.6955  0.4488  0.5603
  271SOL    HW110482   3.548   1.880   1.301  0.6007  1.3373 -1.2480
  271SOL    HW210483   3.593   1.776   1.183 -0.3078 -0.3394 -0.1355
  272SOL     OW10484   2.856   3.544   2.468 -0.1384  0.6544  0.3026
  272SOL    HW110485   2.955   3.546   2.482  0.1673 -1.8536 -1.0940
  272SOL    HW210486   2.810   3.532   2.556  0.8878  0.4853  0.8258
  273SOL     OW10487   1.960   2.155  -0.104  0.1740 -0.3637 -0.0803
  273SOL    HW110488   1.864   2.136  -0.081  0.2163  0.9176  1.2330
  273SOL    HW210489   1.971   2.253  -0.122  1.1226 -0.6072 -0.8241
  274SOL     OW10490   2.804   4.809   1.694 -0.0228  0.1618 -0.3291
  274SOL    HW110491   2.757   4.722   1.714 -1.3098  1.0957  0.8128
  274SOL    HW210492   2.767   4.881   1.752  1.7124  1.2940 -0.5831
  275SOL     OW10493   3.673   4.870   1.342  0.1413 -0.2055  0.1187
  275SOL    HW110494   3.622   4.954   1.361  0.5191 -0.5124  2.6650
  275SOL    HW210495   3.611   4.802   1.303 -0.6136  0.5938 -0.0986
  276SOL     OW10496   3.708   4.298   2.066  0.2648  0.1781 -0.2001
  276SOL    HW110497   3.754   4.386   2.055  1.9469 -0.5908  0.4315
  276SOL    HW210498   3.727   4.240   1.986  0.7815 -0.3009  0.2617
  277SOL     OW10499   2.898   4.044   0.158  0.4951 -0.2079 -0.5348
  277SOL    HW110500   2.826   4.042   0.227 -0.1826 -2.3771 -1.2424
  277SOL    HW210501   2.977   3.992   0.190  0.8391  0.2243 -0.6851
  278SOL     OW10502   4.631   2.525   0.883  0.0477  0.3271 -0.1152
  278SOL    HW110503   4.604   2.551   0.790  1.0219  1.0634 -0.2008
  278SOL    HW210504   4.632   2.426   0.890 -0.1829  0.2650 -0.8513
  279SOL     OW10505   4.669   2.918   1.836  0.0783  0.2250 -0.2073
  279SOL    HW110506   4.675   2.988   1.765 -2.7924  1.5759  0.7949
  279SOL    HW210507   4.600   2.850   1.811  0.8401 -0.6912  0.1452
  280SOL     OW10508   2.636   2.399   1.811 -0.0714  0.2343 -0.6153
  280SOL    HW110509   2.660   2.302   1.818  1.1521  0.4812 -1.2369
  280SOL    HW210510   2.676   2.448   1.888  1.3957  0.6375 -1.6171
  281SOL     OW10511   3.134   5.022   1.899  0.2651  0.2505 -0.1181
  281SOL    HW110512   3.137   5.120   1.880 -0.6010 -0.2826 -3.4180
  281SOL    HW210513   3.227   4.985   1.897  0.3456  0.4973 -2.1424
  282SOL     OW10514   3.422   2.742   1.190  0.0850  0.2682 -0.3586
  282SOL    HW110515   3.406   2.648   1.219 -1.7850  0.6558 -0.0687
  282SOL    HW210516   3.515   2.770   1.216 -0.0881 -0.7835  1.4807
  283SOL     OW10517   3.335  10.603   1.258  0.3228 -0.2291  0.6286
  283SOL    HW110518   3.412  10.557   1.214  1.9397  0.9663  2.1292
  283SOL    HW210519   3.336  10.700   1.235 -0.5274 -0.1427  0.9355
  284SOL     OW10520   2.525   2.447   0.663  0.6776  0.1519 -0.5666
  284SOL    HW110521   2.511   2.524   0.600 -2.1521  0.3441  0.2210
  284SOL    HW210522   2.485   2.364   0.624 -0.7007  0.1774  0.7454
  285SOL     OW10523   2.584   4.206   0.032  0.2638 -0.1980 -0.1853
  285SOL    HW110524   2.677   4.205  -0.007  0.1529 -2.9057 -0.4914
  285SOL    HW210525   2.523   4.152  -0.026 -0.9006 -0.6502  1.4146
  286SOL     OW10526   4.886   3.409   1.709  0.0385  0.2614 -0.1434
  286SOL    HW110527   4.836   3.413   1.795 -1.6888 -1.9227 -1.0238
  286SOL    HW210528   4.824   3.426   1.633  0.8187 -1.3920 -1.1837
  287SOL     OW10529   2.483   2.898   0.135 -0.3680  0.8690 -0.4551
  287SOL    HW110530   2.416   2.874   0.206  0.5003 -0.0024  0.0791
  287SOL    HW210531   2.516   2.814   0.091  0.6141  1.2726 -0.4919
  288SOL     OW10532   3.559   9.412   1.081 -0.1351  0.5108 -0.2125
  288SOL    HW110533   3.546   9.493   1.024  0.2959  0.8285  0.1415
  288SOL    HW210534   3.519   9.428   1.172  0.6429  0.6202  0.1161
  289SOL     OW10535   2.559   4.659   2.310  0.5661 -0.1229  0.5050
  289SOL    HW110536   2.530   4.679   2.404  0.2533 -2.1862  0.8676
  289SOL    HW210537   2.601   4.741   2.270 -0.1921  1.0730  2.0920
  290SOL     OW10538   3.593  10.548   2.252  0.3933  0.2532 -0.2859
  290SOL    HW110539   3.659  10.571   2.181 -1.9632 -0.0573 -2.6555
  290SOL    HW210540   3.550  10.632   2.286 -0.3742  0.1924 -1.1123
  291SOL     OW10541   2.446   4.164   1.752  0.5031 -0.3110  0.6448
  291SOL    HW110542   2.472   4.172   1.848  0.3421 -0.5182  0.7078
  291SOL    HW210543   2.431   4.254   1.713 -0.6005 -0.2648  1.1423
  292SOL     OW10544   3.370   0.669  -0.064  0.2314 -0.2045  0.3548
  292SOL    HW110545   3.404   0.586  -0.108 -0.0740 -0.4110  0.5035
  292SOL    HW210546   3.390   0.748  -0.121  2.4664 -0.1183  1.2123
  293SOL     OW10547   3.147   0.823  -0.018 -0.4412  0.1645  0.0663
  293SOL    HW110548   3.165   0.915  -0.052  0.5625 -0.0225  0.0854
  293SOL    HW210549   3.225   0.764  -0.038 -0.8268 -0.5335  0.5946
  294SOL     OW10550   3.796   2.902   0.331 -0.3623 -0.2220 -0.0529
  294SOL    HW110551   3.745   2.975   0.284  1.3843  1.5565  0.7225
  294SOL    HW210552   3.789   2.915   0.430 -1.4789 -2.1519  0.1278
  295SOL     OW10553   4.531   1.988   0.621 -0.0271 -0.2796  0.7677
  295SOL    HW110554   4.619   1.969   0.578  0.2759  1.0295  0.7821
  295SOL    HW210555   4.544   2.052   0.697 -1.1594  1.0184 -0.1071
  296SOL     OW10556   3.735   4.000   0.404  0.1888  0.7298 -0.1308
  296SOL    HW110557   3.789   3.937   0.460 -0.5487  0.0510 -0.1765
  296SOL    HW210558   3.747   4.094   0.438  1.5383  0.6066 -0.2578
  297SOL     OW10559   3.011  10.642   2.160  0.2822  0.1084 -0.3367
  297SOL    HW110560   3.025  10.604   2.252 -2.0241 -0.8281 -0.3527
  297SOL    HW210561   3.021  10.569   2.092  0.1935  0.4306 -0.6963
  298SOL     OW10562   4.596   3.393   1.815  0.0423  0.6837  0.1819
  298SOL    HW110563   4.595   3.406   1.716  3.2973  0.0880 -0.0107
  298SOL    HW210564   4.537   3.460   1.859 -1.0844  1.2489 -2.1355
  299SOL     OW10565   3.927   1.345   2.102 -0.0521  0.0336 -0.0402
  299SOL    HW110566   3.833   1.348   2.067 -0.1424 -1.6000  0.0225
  299SOL    HW210567   3.926   1.344   2.202  0.1367  2.4669  0.0235
  300SOL     OW10568   3.732   5.352   0.051 -0.7235  0.0003  0.7937
  300SOL    HW110569   3.776   5.352   0.141 -0.3848 -0.2411  0.6277
  300SOL    HW210570   3.749   5.265   0.005  0.6059  0.7847 -0.2282
  301SOL     OW10571   3.101   1.373   0.792  0.1548  0.2533  0.2046
  301SOL    HW110572   3.086   1.471   0.809 -0.5709  0.2089 -0.1766
  301SOL    HW210573   3.187   1.345   0.836  1.9399  1.7566 -2.1843
  302SOL     OW10574   2.601   4.742   0.749 -0.2740 -0.0691 -0.2682
  302SOL    HW110575   2.557   4.685   0.680  1.2446 -0.2683 -1.0810
  302SOL    HW210576   2.596   4.696   0.838 -0.6039 -0.6654 -0.5913
  303SOL     OW10577   3.538   2.772   2.305 -0.1009  0.2290  0.1077
  303SOL    HW110578   3.595   2.809   2.378 -0.5158  0.4446  0.3245
  303SOL    HW210579   3.511   2.845   2.243 -2.2569  0.6130  1.4362
  304SOL     OW10580   3.786   5.136  -0.085 -0.3370  0.1505 -0.0006
  304SOL    HW110581   3.871   5.086  -0.101  0.1132  1.3251 -1.4561
  304SOL    HW210582   3.714   5.072  -0.058  0.2136 -1.3096 -1.8230
  305SOL     OW10583   4.438   3.578   0.906 -0.7812  0.3122 -0.2500
  305SOL    HW110584   4.465   3.495   0.954  1.9610  0.5140 -1.3830
  305SOL    HW210585   4.411   3.555   0.812 -0.9202  0.6001 -0.2835
  306SOL     OW10586   3.457   4.298   1.209 -0.5259  0.0575  0.2972
  306SOL    HW110587   3.507   4.292   1.123 -1.3818 -1.9252 -0.0973
  306SOL    HW210588   3.374   4.352   1.196 -0.7127 -0.3380 -0.1699
  307SOL     OW10589   3.454   2.895   0.308  0.0127  0.0714  0.3016
  307SOL    HW110590   3.448   2.855   0.216  0.2139 -0.2123  0.4111
  307SOL    HW210591   3.474   2.823   0.375 -2.9193 -0.1677  0.9635
  308SOL     OW10592   3.266   3.089   0.240 -0.1236  0.1378  0.3859
  308SOL    HW110593   3.348   3.032   0.244 -0.7432 -0.6866  2.0507
  308SOL    HW210594   3.282   3.175   0.287  0.3562  0.7471 -0.8782
  309SOL     OW10595   4.449   2.689   0.693 -0.0358 -0.3446  0.4182
  309SOL    HW110596   4.477   2.682   0.598 -1.6851 -3.0770  0.0901
  309SOL    HW210597   4.416   2.782   0.711  2.5716  0.9016 -0.9808
  310SOL     OW10598   3.417   3.766   0.370  0.0734  0.2547 -0.5339
  310SOL    HW110599   3.422   3.813   0.282 -0.0622  0.2168 -0.5628
  310SOL    HW210600   3.507   3.730   0.394 -0.2692 -1.3333 -1.5467
  311SOL     OW10601   2.966   1.784   0.610 -0.3623  0.0974  0.5083
  311SOL    HW110602   2.886   1.838   0.584 -1.3748 -1.3860  0.4773
  311SOL    HW210603   3.039   1.799   0.543 -0.6497  1.3525  0.4542
  312SOL     OW10604   2.972   2.077   0.810 -0.4529 -0.1412  0.0837
  312SOL    HW110605   2.944   1.982   0.821  3.2036 -1.0549  2.3127
  312SOL    HW210606   3.061   2.081   0.766 -1.3351  2.3700 -1.5814
  313SOL     OW10607   2.934   5.380   1.965 -0.2318  0.3899  0.4323
  313SOL    HW110608   2.869   5.411   1.895  1.5107  2.7528 -0.2011
  313SOL    HW210609   2.912   5.424   2.052  1.5483  2.6316 -0.2014
  314SOL     OW10610   3.159   1.497   2.398  0.0300  0.1714  0.8578
  314SOL    HW110611   3.164   1.584   2.348 -1.5909 -0.0427  0.3020
  314SOL    HW210612   3.134   1.424   2.335 -1.3891 -0.2146  1.8497
  315SOL     OW10613   3.626   3.274   1.822 -0.2708  0.3655  0.2415
  315SOL    HW110614   3.650   3.187   1.778  0.1744  0.0341  1.1248
  315SOL    HW210615   3.635   3.348   1.756  1.0138 -0.0440 -0.0530
  316SOL     OW10616   4.591   1.946   1.047 -0.0151 -0.1768  0.1248
  316SOL    HW110617   4.557   1.890   1.123  0.0818  0.0937  0.3678
  316SOL    HW210618   4.540   2.032   1.044  1.0296  0.4751  0.8424
  317SOL     OW10619   2.350   3.058   1.434  0.0673  0.2921  0.4470
  317SOL    HW110620   2.340   2.960   1.448 -0.3707  0.5276  1.9236
  317SOL    HW210621   2.282   3.090   1.367  1.5751 -0.7307 -1.6126
  318SOL     OW10622   2.039   3.813   1.884 -0.4482  0.1510 -0.7292
  318SOL    HW110623   1.953   3.785   1.925 -0.5343  0.9455 -0.3490
  318SOL    HW210624   2.080   3.736   1.835  0.0444 -1.0481  1.4832
  319SOL     OW10625   2.744   2.185   0.375 -0.2167  0.3880 -0.8475
  319SOL    HW110626   2.723   2.115   0.443 -1.5190  0.0085 -1.6207
  319SOL    HW210627   2.835   2.168   0.336 -0.6409 -1.0459 -1.2411
  320SOL     OW10628   3.973   3.186   0.347  0.7156  0.6872 -0.0522
  320SOL    HW110629   3.961   3.101   0.398  1.7344  0.3806 -0.3006
  320SOL    HW210630   3.907   3.254   0.379  0.4250  0.0594  0.7034
  321SOL     OW10631   3.013   4.732   0.591  0.0502  0.4253 -0.5777
  321SOL    HW110632   3.111   4.752   0.596  0.5038 -2.0017  1.2777
  321SOL    HW210633   2.994   4.688   0.503  0.6930  0.5593 -0.7935
  322SOL     OW10634   4.051   0.937   1.199  0.1000  0.0307 -0.2780
  322SOL    HW110635   4.060   0.843   1.167  0.5545 -0.2594  0.6630
  322SOL    HW210636   4.123   0.993   1.159 -0.0995 -0.0478 -0.7487
  323SOL     OW10637   2.844   2.158   2.597 -0.1382  0.4771  0.1627
  323SOL    HW110638   2.821   2.200   2.686 -1.4018  2.0601 -0.8766
  323SOL    HW210639   2.795   2.206   2.525  0.3241 -1.2680 -1.3381
  324SOL     OW10640   2.062   3.420   2.232  0.7462  0.2855  0.1253
  324SOL    HW110641   2.115   3.484   2.175 -0.9596  1.5285 -0.1002
  324SOL    HW210642   1.984   3.386   2.180 -0.8945  1.5197  1.7154
  325SOL     OW10643   1.927   3.661   2.278 -0.0205  0.2177 -1.0960
  325SOL    HW110644   1.985   3.738   2.250 -0.2639  0.5978 -0.5443
  325SOL    HW210645   1.979   3.576   2.268 -0.3209  0.2776 -3.3619
  326SOL     OW10646   4.382   2.343   0.003  0.1074 -0.3314 -0.7889
  326SOL    HW110647   4.282   2.343  -0.002  0.0599  0.1065  0.0749
  326SOL    HW210648   4.413   2.436   0.023  0.7049 -0.4195 -1.2956
  327SOL     OW10649   3.489   0.973   0.518 -0.0729  0.1719 -0.5605
  327SOL    HW110650   3.508   0.880   0.547  0.7477  0.4910 -0.0599
  327SOL    HW210651   3.392   0.981   0.492  0.1687 -1.1334 -1.8679
  328SOL     OW10652   3.594   3.296  -0.038 -0.0314 -0.2795  0.0849
  328SOL    HW110653   3.606   3.388  -0.076  0.8519 -0.5335 -0.2724
  328SOL    HW210654   3.496   3.278  -0.026 -0.1972  0.9076  0.6724
  329SOL     OW10655   2.908   1.674   2.471  0.0996  0.0155  1.1265
  329SOL    HW110656   2.817   1.706   2.443  0.0028 -0.7927  0.5065
  329SOL    HW210657   2.976   1.745   2.452 -0.3827  0.5838  1.4976
  330SOL     OW10658   3.398   2.325   1.457  0.3574 -0.1809  0.4199
  330SOL    HW110659   3.468   2.259   1.429  0.9059 -0.1808  1.7841
  330SOL    HW210660   3.309   2.296   1.422  0.8787 -0.6910 -0.5097
  331SOL     OW10661   3.386   0.791   0.776  0.2244 -0.0785  0.5042
  331SOL    HW110662   3.444   0.744   0.710 -1.6938 -1.3851 -0.2925
  331SOL    HW210663   3.355   0.725   0.846  1.0532  0.9693  1.8870
  332SOL     OW10664   2.778   2.975   1.434 -0.2140 -0.4538  0.3200
  332SOL    HW110665   2.767   2.897   1.494  1.2123 -0.3223  0.7596
  332SOL    HW210666   2.843   2.953   1.362 -0.5388  0.0070 -0.1217
  333SOL     OW10667   4.358   1.741  -0.036 -0.3158 -0.0784  0.2863
  333SOL    HW110668   4.342   1.839  -0.024  0.2202  0.0198  0.1970
  333SOL    HW210669   4.446   1.716   0.005 -0.1947 -0.4219 -0.1837
  334SOL     OW10670   4.430   3.091   1.348  0.2440  0.4355  0.2616
  334SOL    HW110671   4.405   3.176   1.395  1.9883  0.6591  0.7987
  334SOL    HW210672   4.361   3.071   1.278  0.2828  2.7774 -0.4840
  335SOL     OW10673   2.585   4.595   0.971 -0.1240  0.5567 -0.0230
  335SOL    HW110674   2.504   4.539   0.986 -0.0460 -0.0964 -1.9123
  335SOL    HW210675   2.666   4.536   0.961 -0.1844  0.8984 -2.9500
  336SOL     OW10676   3.254   2.046   1.941  0.1251 -0.0597 -0.2045
  336SOL    HW110677   3.293   1.971   1.994 -0.5813  0.1927  0.6945
  336SOL    HW210678   3.170   2.015   1.896 -1.1083  0.6230  1.5420
  337SOL     OW10679   4.578   4.110   0.747 -0.0844 -0.7738  0.4461
  337SOL    HW110680   4.533   4.065   0.670 -0.7583  1.4123 -0.4974
  337SOL    HW210681   4.516   4.115   0.825 -0.5736 -0.0892  0.0185
  338SOL     OW10682   2.274   2.858   1.888  0.9329  0.2112 -0.6214
  338SOL    HW110683   2.206   2.870   1.960  1.0426 -1.3882 -0.2322
  338SOL    HW210684   2.277   2.940   1.831  1.7500  2.0164  1.9245
  339SOL     OW10685   4.435   2.175   1.075 -0.2095 -0.1980  0.1696
  339SOL    HW110686   4.473   2.244   1.137  0.4460  0.3314 -0.8089
  339SOL    HW210687   4.351   2.137   1.114 -0.3956  0.9197  0.8698
  340SOL     OW10688   3.113   1.006   0.791  0.2726 -0.0933 -0.0673
  340SOL    HW110689   3.109   0.937   0.863  3.2838 -0.1498  0.1476
  340SOL    HW210690   3.037   1.070   0.801 -0.5262 -1.3100  1.8816
  341SOL     OW10691   3.515   4.484   2.159  0.0795 -0.5061 -0.3397
  341SOL    HW110692   3.570   4.410   2.120  1.0583  0.3684 -0.6457
  341SOL    HW210693   3.532   4.569   2.108 -0.8205  0.0008  0.1809
  342SOL     OW10694   4.307   2.947   2.098  0.2717 -0.4924  0.3106
  342SOL    HW110695   4.308   3.019   2.168  2.5591  0.9025 -1.1151
  342SOL    HW210696   4.213   2.920   2.080 -0.3732 -0.9275  3.9643
  343SOL     OW10697   4.606   3.765   1.023 -0.5390 -0.0484 -0.2967
  343SOL    HW110698   4.699   3.767   0.986  0.2701 -1.2264  1.5568
  343SOL    HW210699   4.559   3.683   0.989 -0.0757 -0.6980  0.5984
  344SOL     OW10700   4.056   4.166   0.724  0.4073  0.6827 -0.6464
  344SOL    HW110701   3.998   4.131   0.650 -0.6017  0.0313  0.4418
  344SOL    HW210702   4.012   4.245   0.766  0.1920  0.0447  0.3371
  345SOL     OW10703   3.364   3.895   0.646 -0.1710  0.4186  0.1782
  345SOL    HW110704   3.353   3.834   0.568 -0.5820 -1.0993  1.3968
  345SOL    HW210705   3.325   3.985   0.625 -4.4982 -1.3379  0.2577
  346SOL     OW10706   2.880   1.418   2.551 -0.0624 -0.3326  0.0166
  346SOL    HW110707   2.902   1.341   2.492 -2.2356 -1.2134  0.3152
  346SOL    HW210708   2.887   1.503   2.499  2.1763 -0.7109 -0.3553
  347SOL     OW10709   3.251   1.904   1.305 -0.1078  0.5245 -0.2803
  347SOL    HW110710   3.332   1.858   1.341 -0.2446  1.4818  1.2768
  347SOL    HW210711   3.192   1.932   1.380 -0.9226  1.6279 -1.3072
  348SOL     OW10712   3.472   2.672   0.446  0.3757  0.0766  0.2965
  348SOL    HW110713   3.525   2.590   0.425 -0.1240 -0.5585  1.4561
  348SOL    HW210714   3.383   2.646   0.483  0.2369  1.1400  0.7348
  349SOL     OW10715   3.652   1.811   0.415  0.1333 -0.4936 -0.6059
  349SOL    HW110716   3.649   1.910   0.420  0.3940 -0.5114 -0.0984
  349SOL    HW210717   3.593   1.780   0.340 -0.0391  0.0340 -0.6914
  350SOL     OW10718   2.378   1.707   1.063 -0.3570 -0.2906  0.4171
  350SOL    HW110719   2.378   1.781   1.131  0.1740  0.9533 -0.9044
  350SOL    HW210720   2.471   1.672   1.052 -0.5027 -0.7337  0.5728
  351SOL     OW10721   3.878   3.763   1.725  0.2209 -0.0941 -0.1460
  351SOL    HW110722   3.835   3.679   1.759  0.1367 -0.0386 -0.1143
  351SOL    HW210723   3.928   3.743   1.640 -0.1093 -0.1015 -0.3406
  352SOL     OW10724   3.100  10.594   2.414  0.2902 -0.4270 -0.1163
  352SOL    HW110725   3.056  10.583   2.503  0.8303 -0.3796  0.1581
  352SOL    HW210726   3.133  10.688   2.405  2.5904 -1.1160  0.7253
  353SOL     OW10727   2.762   1.438   1.452  0.2519  0.1341  0.2862
  353SOL    HW110728   2.674   1.465   1.413  0.7000  0.4402 -0.5242
  353SOL    HW210729   2.826   1.515   1.446  0.7980 -0.3270  0.1723
  354SOL     OW10730   2.917   0.964   0.094  0.6796 -0.0555  0.2436
  354SOL    HW110731   3.008   0.932   0.122  1.4377  1.1117 -0.8514
  354SOL    HW210732   2.923   1.059   0.065 -1.1584  0.4392  1.4164
  355SOL     OW10733   2.514   2.729   0.840  0.9251  0.0253 -0.4149
  355SOL    HW110734   2.593   2.694   0.791  0.7308  0.3640 -0.9848
  355SOL    HW210735   2.459   2.786   0.778 -0.2014 -0.8799 -0.2705
  356SOL     OW10736   3.915   4.383   0.841  0.2274  0.1208 -0.3492
  356SOL    HW110737   3.878   4.440   0.767 -3.6203 -2.1181 -0.2463
  356SOL    HW210738   3.870   4.406   0.927  1.6652 -0.2074  0.5050
  357SOL     OW10739   2.943   4.414  -0.080  0.3539 -0.0450  0.1873
  357SOL    HW110740   2.901   4.495  -0.041  1.0302 -0.0131  0.8797
  357SOL    HW210741   2.980   4.435  -0.170 -0.2086  0.1915  0.0119
  358SOL     OW10742   2.363   4.670   1.656 -0.1041 -0.2929  0.2086
  358SOL    HW110743   2.427   4.733   1.611 -0.2917 -0.7700 -0.7417
  358SOL    HW210744   2.271   4.709   1.655  0.0675  0.1326  1.0535
  359SOL     OW10745   3.831   3.172   2.201  0.2400 -0.3543  0.2076
  359SOL    HW110746   3.839   3.263   2.160  0.0368  0.5048  2.0223
  359SOL    HW210747   3.735   3.152   2.221  0.5044  0.0481  1.9914
  360SOL     OW10748   3.637   1.677   2.112  0.0050 -0.1051  0.7530
  360SOL    HW110749   3.653   1.650   2.017 -0.0054  1.1538  0.3878
  360SOL    HW210750   3.560   1.625   2.149  2.1150 -3.0938  1.1745
  361SOL     OW10751   2.125   1.939  -0.112 -0.3841 -0.0133 -0.7044
  361SOL    HW110752   2.111   2.032  -0.145  0.2280  0.7868  1.2159
  361SOL    HW210753   2.039   1.902  -0.075  0.0338  0.9514  1.3244
  362SOL     OW10754   2.968   1.232   0.074  0.7106 -0.3284  0.7633
  362SOL    HW110755   3.046   1.274   0.120  0.9458 -0.0325  0.1038
  362SOL    HW210756   2.891   1.295   0.075  0.3497 -0.7865  1.7826
  363SOL     OW10757   3.712   0.836   2.554  0.3100  0.4560 -0.4037
  363SOL    HW110758   3.752   0.745   2.565 -2.7817 -0.9704 -0.1780
  363SOL    HW210759   3.692   0.875   2.645 -1.7033 -0.2680 -0.4976
  364SOL     OW10760   4.253   1.482   1.123 -0.2303 -0.5801  0.4026
  364SOL    HW110761   4.173   1.542   1.125 -0.4728 -0.8552 -0.4142
  364SOL    HW210762   4.280   1.457   1.216  0.9086  2.1415  0.8367
  365SOL     OW10763   3.108  10.167   1.444  0.4476 -0.1780 -0.0405
  365SOL    HW110764   3.095  10.069   1.434 -0.0925 -0.1616  0.4794
  365SOL    HW210765   3.192  10.185   1.495  1.8618 -0.3117 -2.2626
  366SOL     OW10766   3.239   3.387   0.668 -0.5247  0.2120  0.9180
  366SOL    HW110767   3.318   3.410   0.724  0.1324 -0.3128  0.2292
  366SOL    HW210768   3.215   3.466   0.611  0.8788 -0.3128 -0.4556
  367SOL     OW10769   4.088   1.083   0.835  0.2046  0.3104 -0.6620
  367SOL    HW110770   4.181   1.087   0.873  0.0686  0.7702 -0.3757
  367SOL    HW210771   4.028   1.142   0.889 -0.4013 -0.5077 -0.4237
  368SOL     OW10772   3.118   1.968   1.529 -0.6771 -0.1054  0.1031
  368SOL    HW110773   3.110   2.066   1.511  0.4760  0.0920  0.6166
  368SOL    HW210774   3.063   1.944   1.609 -0.6065  0.1997  0.2439
  369SOL     OW10775   3.112   4.666   0.178  0.2437 -0.1041 -0.2746
  369SOL    HW110776   3.041   4.648   0.245  0.8132 -1.4886 -0.0294
  369SOL    HW210777   3.086   4.626   0.090  0.4667 -0.1280 -0.3298
  370SOL     OW10778   3.554   3.485   1.513  0.4759 -0.1592 -0.1052
  370SOL    HW110779   3.553   3.429   1.430  0.6922 -0.5395  0.1500
  370SOL    HW210780   3.463   3.484   1.555  0.4869 -0.3407 -0.0858
  371SOL     OW10781   3.604   4.040   0.722  0.4498 -0.4520  0.1837
  371SOL    HW110782   3.691   3.993   0.710 -0.2794 -1.7134 -0.2088
  371SOL    HW210783   3.531   3.990   0.675 -0.4891  0.5957  0.4870
  372SOL     OW10784   2.987   2.813   1.830  0.1292 -0.1939 -0.2606
  372SOL    HW110785   3.047   2.877   1.782 -0.0142  1.4780  1.7282
  372SOL    HW210786   3.022   2.720   1.820  0.7021  0.2426 -2.6390
  373SOL     OW10787   4.230   3.577   0.230 -0.0639  0.2640  0.6761
  373SOL    HW110788   4.155   3.515   0.205  1.1918 -0.8514 -0.3773
  373SOL    HW210789   4.192   3.667   0.252 -1.5595  0.3463 -1.9775
  374SOL     OW10790   3.796  10.173   2.523 -0.3654  0.2526 -0.0235
  374SOL    HW110791   3.741  10.099   2.562  0.7471  0.2805  1.6419
  374SOL    HW210792   3.817  10.151   2.428  0.2489 -1.7773  0.5438
  375SOL     OW10793   2.305   3.854   0.935 -0.2978  0.0364  0.0577
  375SOL    HW110794   2.293   3.773   0.992  0.4875  1.8155  2.9030
  375SOL    HW210795   2.238   3.853   0.861 -1.9426 -1.9925  1.5076
  376SOL     OW10796   4.029   3.651   0.731  0.9024  0.2322  0.6983
  376SOL    HW110797   4.024   3.659   0.631  0.2588  0.3838  0.7422
  376SOL    HW210798   4.062   3.737   0.770 -0.2864  0.6825  0.7250
  377SOL     OW10799   3.401   4.079   1.978  0.1834  0.2254 -0.6375
  377SOL    HW110800   3.436   4.059   1.887 -1.2503  1.0429 -1.3745
  377SOL    HW210801   3.478   4.100   2.039  1.3998 -3.3671 -0.8397
  378SOL     OW10802   2.653   3.982   1.563  0.1964 -0.3107 -0.1408
  378SOL    HW110803   2.732   4.043   1.560 -0.0142 -0.0791 -1.3901
  378SOL    HW210804   2.570   4.035   1.578 -0.0337 -0.2109 -1.6130
  379SOL     OW10805   4.096   4.202   1.124  0.2504 -0.9803 -0.4352
  379SOL    HW110806   4.083   4.230   1.219  1.4630 -0.2746 -0.4681
  379SOL    HW210807   4.190   4.169   1.111 -0.2378 -2.1125 -1.1371
  380SOL     OW10808   3.590   4.969  -0.007  0.2349  0.4502  0.0563
  380SOL    HW110809   3.603   4.877  -0.043 -0.9440  0.2516  0.1236
  380SOL    HW210810   3.495   4.997  -0.021  0.0805  0.8642  1.8567
  381SOL     OW10811   2.541   2.142   0.117  0.6582  0.8917  0.6774
  381SOL    HW110812   2.472   2.072   0.096 -1.4297  3.2521 -0.5635
  381SOL    HW210813   2.506   2.203   0.187  0.9731  2.8404 -0.8238
  382SOL     OW10814   3.597   1.128   2.307  0.6342  0.2636  0.2375
  382SOL    HW110815   3.503   1.130   2.341  0.2496 -2.3670 -0.5026
  382SOL    HW210816   3.661   1.128   2.385 -0.1649 -3.0749  1.0074
  383SOL     OW10817   3.904  10.593   2.555  0.1463  0.9287 -0.1182
  383SOL    HW110818   3.881  10.544   2.639 -0.6089  1.3465 -0.0728
  383SOL    HW210819   3.872  10.541   2.476 -0.3356  1.1705 -0.0853
  384SOL     OW10820   4.241   3.240   1.041  0.5143 -0.2155  0.5577
  384SOL    HW110821   4.236   3.141   1.023  0.4312 -0.1376  0.1421
  384SOL    HW210822   4.162   3.268   1.094  0.1176 -0.2297 -0.0205
  385SOL     OW10823   3.449   5.682   0.145 -0.2872  0.1021 -0.3507
  385SOL    HW110824   3.474   5.602   0.091  1.5290  0.7314 -0.4938
  385SOL    HW210825   3.355   5.672   0.178 -0.6841 -1.2704 -1.8118
  386SOL     OW10826   3.852   1.067   0.222 -0.3175 -0.3271 -0.3049
  386SOL    HW110827   3.848   1.166   0.236  2.5694 -0.0697 -1.1169
  386SOL    HW210828   3.843   1.020   0.310  1.1065  0.7646  0.4416
  387SOL     OW10829   2.575   3.206   1.483  0.0994 -0.0942 -0.3426
  387SOL    HW110830   2.490   3.155   1.467  0.6179 -0.9463 -0.4496
  387SOL    HW210831   2.648   3.141   1.504  0.6320  0.6630  0.1556
  388SOL     OW10832   3.371   3.826   2.257  0.3520  0.1589 -0.2058
  388SOL    HW110833   3.291   3.833   2.198  0.4128 -1.2096 -0.4708
  388SOL    HW210834   3.437   3.762   2.216  0.5574 -0.5157  1.1617
  389SOL     OW10835   2.353   1.953   0.068 -0.1324 -0.0096 -0.0373
  389SOL    HW110836   2.269   1.956   0.014 -1.0572 -1.6303  1.2366
  389SOL    HW210837   2.414   1.884   0.030  0.6802  1.2467 -1.0290
  390SOL     OW10838   2.714   3.735   0.882 -0.8762 -0.5004  0.3534
  390SOL    HW110839   2.694   3.642   0.913 -0.1426 -0.5405  0.6917
  390SOL    HW210840   2.648   3.760   0.810 -0.9717 -1.3392  0.1376
  391SOL     OW10841   3.637   2.318   2.401 -0.1456  0.2045  0.4922
  391SOL    HW110842   3.605   2.408   2.433  0.9501  0.0064  2.2046
  391SOL    HW210843   3.705   2.331   2.329  1.7086  0.8543  2.3015
  392SOL     OW10844   3.039   4.115   2.092  0.3414 -0.3091  0.0484
  392SOL    HW110845   2.973   4.061   2.039  1.5700 -1.3244 -0.4778
  392SOL    HW210846   3.131   4.083   2.072  0.9745  0.8421  1.0768
  393SOL     OW10847   2.828   4.337   0.672  0.0404  0.2847  0.8741
  393SOL    HW110848   2.785   4.264   0.725  0.0365 -0.6768 -0.4090
  393SOL    HW210849   2.768   4.364   0.597  0.9644  0.0592  0.0329
  394SOL     OW10850   3.003   2.595   1.230 -0.0262  0.0443  0.4157
  394SOL    HW110851   2.996   2.685   1.273 -1.8577  0.3723 -0.5043
  394SOL    HW210852   2.913   2.567   1.198  0.5980 -1.9892  0.4056
  395SOL     OW10853   3.701   1.111   1.127  0.5160 -0.0650  0.2241
  395SOL    HW110854   3.774   1.146   1.069 -0.2829 -0.2175 -0.8926
  395SOL    HW210855   3.645   1.046   1.075  0.6742 -1.3337  1.6170
  396SOL     OW10856   4.002   3.563   1.940  0.0747  0.1036 -0.4090
  396SOL    HW110857   3.979   3.659   1.954 -0.3432  0.0137 -0.4812
  396SOL    HW210858   4.073   3.535   2.006  0.0984  0.4215 -0.3018
  397SOL     OW10859   3.628  10.315   1.591 -0.2790 -0.3072  0.0867
  397SOL    HW110860   3.602  10.411   1.589  0.3989 -0.1115  0.3568
  397SOL    HW210861   3.676  10.296   1.677  1.1022 -0.4745 -0.6999
  398SOL     OW10862   4.449   3.557   1.315  0.6785 -0.4296  0.2347
  398SOL    HW110863   4.399   3.568   1.230 -1.0953  0.8326  1.4052
  398SOL    HW210864   4.545   3.539   1.295  0.0677 -1.3154 -2.0292
  399SOL     OW10865   3.155   4.204   0.303  0.3784 -0.0656 -0.0086
  399SOL    HW110866   3.088   4.260   0.254 -0.3376  0.3036  1.3857
  399SOL    HW210867   3.211   4.154   0.236  0.5408  1.7237 -1.2737
  400SOL     OW10868   3.108   5.406   1.259 -0.4880  0.2203  0.1828
  400SOL    HW110869   3.145   5.445   1.175  0.5810 -0.4891  0.3132
  400SOL    HW210870   3.014   5.374   1.243 -0.3970  0.3718 -0.6462
  401SOL     OW10871   3.343   3.328   0.324  0.6075 -0.1884 -0.6328
  401SOL    HW110872   3.388   3.331   0.414  0.5615  0.3372 -0.6274
  401SOL    HW210873   3.406   3.360   0.254 -0.7241  3.5619 -0.2278
  402SOL     OW10874   4.022   4.247   1.383 -0.5192 -0.1065 -0.6379
  402SOL    HW110875   3.976   4.159   1.374 -0.1355 -0.3302 -0.4167
  402SOL    HW210876   3.967   4.308   1.439 -1.1191  0.0269 -1.3715
  403SOL     OW10877   3.893   5.036   1.975  0.0945 -0.6416 -0.7871
  403SOL    HW110878   3.848   5.100   1.913  0.4324  2.0790  1.7230
  403SOL    HW210879   3.992   5.041   1.962  0.2284  0.7444  0.7368
  404SOL     OW10880   3.070   2.442   0.020 -0.1524  0.5338  0.1650
  404SOL    HW110881   3.008   2.436  -0.058 -1.0880  1.7597  0.7881
  404SOL    HW210882   3.152   2.493  -0.006  0.6336 -1.1563 -0.6846
  405SOL     OW10883   3.212   1.718   0.382  0.1374 -0.4661  0.1486
  405SOL    HW110884   3.289   1.710   0.319 -0.1732 -1.2344 -0.1442
  405SOL    HW210885   3.238   1.680   0.471  0.0246 -0.9482 -0.0208
  406SOL     OW10886   3.997   4.905   0.237 -0.0461  0.3542 -0.0322
  406SOL    HW110887   4.005   4.839   0.312  1.9702 -0.4853 -0.9294
  406SOL    HW210888   4.031   4.994   0.268  0.7377  0.0233  0.0977
  407SOL     OW10889   2.882   1.821   2.197  0.2862  0.7477  0.4321
  407SOL    HW110890   2.866   1.825   2.098  1.4908 -0.1865  0.2006
  407SOL    HW210891   2.980   1.827   2.216  0.0404  1.3073  1.6038
  408SOL     OW10892   4.624   5.190   0.924 -0.2859 -0.2017  0.2661
  408SOL    HW110893   4.580   5.177   1.013  0.1403 -1.5736  0.2869
  408SOL    HW210894   4.556   5.185   0.852 -0.4251 -0.5192  0.4181
  409SOL     OW10895   2.770   3.965   2.123 -0.0047 -0.1723  0.0017
  409SOL    HW110896   2.832   3.887   2.124 -0.5826 -0.6309 -0.0996
  409SOL    HW210897   2.684   3.940   2.166  0.4122  0.9163  1.5055
  410SOL     OW10898   3.370   2.049   1.101 -0.2492 -0.2425  0.2705
  410SOL    HW110899   3.345   2.143   1.123  0.8836 -0.4541  2.6524
  410SOL    HW210900   3.310   1.986   1.151  0.1239 -0.7649  0.0610
  411SOL     OW10901   3.467   4.667   1.275 -0.0220 -0.4301 -0.4041
  411SOL    HW110902   3.439   4.626   1.188 -1.0885 -0.6632  0.0451
  411SOL    HW210903   3.440   4.608   1.350  0.0679  0.2196  0.1441
  412SOL     OW10904   3.274   2.526   1.274  0.6402  0.0095 -0.1272
  412SOL    HW110905   3.292   2.430   1.250  0.7673 -0.5449  2.1109
  412SOL    HW210906   3.176   2.545   1.263  0.8274  0.0148 -1.8862
  413SOL     OW10907   4.480   2.762   2.489  0.1442 -0.1471  0.0990
  413SOL    HW110908   4.493   2.797   2.396  1.3535  0.5888  0.5328
  413SOL    HW210909   4.548   2.692   2.509  0.4756  0.3371  0.7249
  414SOL     OW10910   3.301   4.926   1.261 -0.5953  0.0288  0.1126
  414SOL    HW110911   3.203   4.908   1.269 -0.8356  0.6145 -1.3601
  414SOL    HW210912   3.349   4.840   1.247 -0.6639 -0.4876  2.8120
  415SOL     OW10913   3.210   1.092  -0.136 -0.2650  0.2634 -0.5654
  415SOL    HW110914   3.290   1.145  -0.109  0.3763 -0.8174 -0.3445
  415SOL    HW210915   3.127   1.141  -0.109  0.3325 -0.6675  3.1786
  416SOL     OW10916   4.377   2.991   1.742  0.4193  0.2217 -1.2553
  416SOL    HW110917   4.336   2.934   1.671  0.7842 -1.1620 -0.3806
  416SOL    HW210918   4.304   3.028   1.800  0.3340 -1.7247 -0.0809
  417SOL     OW10919   4.850   2.800   1.559 -0.4264  0.2040 -0.0394
  417SOL    HW110920   4.758   2.804   1.598 -1.1495  1.6485 -1.8319
  417SOL    HW210921   4.897   2.886   1.577 -0.2321  0.3087 -1.0299
  418SOL     OW10922   3.065   2.562   2.147  0.4472 -0.1248  0.0423
  418SOL    HW110923   3.144   2.622   2.132  1.0486 -1.5389 -2.7821
  418SOL    HW210924   3.072   2.482   2.087 -2.3899 -1.0309  0.8427
  419SOL     OW10925   3.261   4.673   1.508  0.0120 -0.6142  0.2022
  419SOL    HW110926   3.202   4.693   1.586  0.1387 -3.2575  1.0001
  419SOL    HW210927   3.288   4.577   1.510  2.1514 -0.0791 -1.6627
  420SOL     OW10928   3.268   3.178   1.193 -0.2713 -0.0232 -0.1481
  420SOL    HW110929   3.255   3.088   1.235 -0.4574  0.5187  0.9839
  420SOL    HW210930   3.250   3.172   1.095 -0.1648 -1.2442 -0.1015
  421SOL     OW10931   2.995   1.083   0.359  0.9157 -0.5027 -0.0687
  421SOL    HW110932   2.938   1.164   0.367  2.6636  0.9655 -1.9975
  421SOL    HW210933   2.952   1.018   0.296  0.2050 -0.4385  0.3562
  422SOL     OW10934   3.753   4.827   2.499  0.0334  0.0110 -0.3163
  422SOL    HW110935   3.743   4.913   2.449  2.3760 -0.2158 -1.2309
  422SOL    HW210936   3.773   4.753   2.435  2.7158 -0.3601  0.8817
  423SOL     OW10937   3.080   4.396   0.982 -0.4414 -0.0378 -0.5422
  423SOL    HW110938   3.102   4.448   0.898 -1.5354  2.0497  0.4194
  423SOL    HW210939   2.982   4.399   0.998 -0.1306  0.5510  1.4062
  424SOL     OW10940   4.230   1.404   1.406  0.5958  0.3122  0.5975
  424SOL    HW110941   4.200   1.366   1.494 -1.2252  0.8644  0.2396
  424SOL    HW210942   4.220   1.504   1.409 -2.0996  0.1490 -1.1468
  425SOL     OW10943   2.682   2.052   1.114  0.0469 -0.0726  0.3385
  425SOL    HW110944   2.741   1.977   1.145  0.6941  1.0663  1.9848
  425SOL    HW210945   2.736   2.115   1.058 -0.3464 -0.5282 -0.5551
  426SOL     OW10946   4.146   4.665  -0.017 -0.0928 -0.0645 -0.0596
  426SOL    HW110947   4.099   4.729   0.043 -0.6785 -0.3180 -0.2419
  426SOL    HW210948   4.244   4.685  -0.018 -0.0551 -0.1774  1.1208
  427SOL     OW10949   4.401   5.191   0.761 -0.5399 -0.0600 -0.4158
  427SOL    HW110950   4.363   5.197   0.669 -1.2378 -1.1675 -0.2107
  427SOL    HW210951   4.327   5.190   0.828 -0.1072 -0.7837  0.0675
  428SOL     OW10952   3.453   9.777   2.216 -0.0156 -0.1880 -0.5779
  428SOL    HW110953   3.359   9.807   2.199 -0.8175 -1.0945  2.0868
  428SOL    HW210954   3.484   9.723   2.138 -2.0965 -0.7804 -1.0516
  429SOL     OW10955   3.389   4.763   0.880 -0.1141 -0.7692  0.3649
  429SOL    HW110956   3.346   4.850   0.904 -0.1424 -0.8139  0.4748
  429SOL    HW210957   3.364   4.738   0.787  1.5492  0.3587 -0.4057
  430SOL     OW10958   3.067   4.183   0.556 -0.5383  0.7630  0.0320
  430SOL    HW110959   2.974   4.212   0.577 -0.4429  3.0523 -2.4540
  430SOL    HW210960   3.085   4.197   0.459  1.8262 -1.3484  0.1131
  431SOL     OW10961   3.773   3.657   0.111 -0.2237 -0.2797  0.1347
  431SOL    HW110962   3.751   3.748   0.146  1.0048 -0.4376  1.3663
  431SOL    HW210963   3.849   3.664   0.047 -0.6599 -0.3493 -0.3986
  432SOL     OW10964   3.067   2.252   1.444  0.1687  0.0718 -0.3559
  432SOL    HW110965   3.004   2.248   1.367  0.4208  1.7231 -0.6735
  432SOL    HW210966   3.028   2.310   1.516  0.9351  0.3833 -0.1891
  433SOL     OW10967   2.623   1.765   2.329  0.4450  0.0315  0.2184
  433SOL    HW110968   2.701   1.811   2.288 -0.1465  2.8369  2.0592
  433SOL    HW210969   2.578   1.708   2.261  2.6902  0.2226 -1.4819
  434SOL     OW10970   3.368  10.187   1.223  0.2178  0.1598  0.1550
  434SOL    HW110971   3.398  10.092   1.227  0.2155  0.1866  0.9923
  434SOL    HW210972   3.374  10.228   1.315 -1.1716  0.5368  0.0889
  435SOL     OW10973   2.785   4.414   0.996 -0.1622 -0.4448  0.1458
  435SOL    HW110974   2.753   4.372   1.081 -1.1898 -0.0892 -0.0604
  435SOL    HW210975   2.771   4.352   0.920  0.0368 -0.4532  0.1145
  436SOL     OW10976   3.449   3.498   0.907 -0.1215 -0.3984 -0.4180
  436SOL    HW110977   3.529   3.459   0.953 -0.1928 -1.1756 -0.9382
  436SOL    HW210978   3.460   3.597   0.899 -0.5796 -0.1011  2.1804
  437SOL     OW10979   2.952  10.638  -0.099  0.0836  0.3776 -0.0639
  437SOL    HW110980   3.002  10.719  -0.069  0.8601  0.0524 -0.4677
  437SOL    HW210981   2.883  10.614  -0.030  0.6150  0.7221  0.5938
  438SOL     OW10982   3.157   5.325  -0.009 -0.4868 -0.8929 -0.4204
  438SOL    HW110983   3.197   5.273  -0.084 -0.1849 -0.5791 -0.4823
  438SOL    HW210984   3.229   5.377   0.037 -0.8554 -0.1067 -0.7067
  439SOL     OW10985   2.339   3.962   1.595 -0.4542 -0.7368 -0.6012
  439SOL    HW110986   2.242   3.954   1.572 -0.8489  1.1979  0.3273
  439SOL    HW210987   2.352   4.035   1.662  1.7970 -0.1778 -1.6087
  440SOL     OW10988   5.039   2.647   1.492  0.7160 -0.0773  0.2778
  440SOL    HW110989   4.971   2.719   1.507  1.2159  0.3570  0.4948
  440SOL    HW210990   5.116   2.685   1.440  0.4595 -0.7525 -0.5942
  441SOL     OW10991   2.432   1.219   0.639 -0.5100 -0.1601 -0.5753
  441SOL    HW110992   2.419   1.315   0.613 -1.4206  0.4020  1.8458
  441SOL    HW210993   2.466   1.168   0.560  1.6277  2.4741 -1.4480
  442SOL     OW10994   4.244   2.058   0.626 -0.1107  0.3533 -0.1336
  442SOL    HW110995   4.341   2.085   0.626 -0.2253  0.7755 -0.4163
  442SOL    HW210996   4.217   2.029   0.534 -0.0560 -0.4994  0.1147
  443SOL     OW10997   3.820   4.855   1.612 -0.4560 -0.6394  0.0794
  443SOL    HW110998   3.826   4.952   1.634 -1.8013 -0.6435  0.5077
  443SOL    HW210999   3.772   4.844   1.525 -1.0248 -0.9581  0.4321
  444SOL     OW11000   3.897   2.702   0.569 -0.1646 -0.7820  0.9867
  444SOL    HW111001   3.984   2.653   0.568 -0.1318 -0.7117 -0.8253
  444SOL    HW211002   3.914   2.800   0.566 -0.2859 -0.7338  1.8096
  445SOL     OW11003   3.375  10.495   0.848  0.2139  0.1939  0.0432
  445SOL    HW111004   3.280  10.516   0.873 -0.2304  0.2236 -1.5922
  445SOL    HW211005   3.420  10.447   0.923 -1.3614 -0.5894  0.4983
  446SOL     OW11006   3.590   2.782   0.667  0.7442 -0.0215 -0.4628
  446SOL    HW111007   3.565   2.747   0.577  1.2436 -1.1681 -0.1601
  446SOL    HW211008   3.685   2.758   0.687  0.1840 -1.0791  0.9922
  447SOL     OW11009   4.006   3.181   0.738  0.1747 -0.4108 -0.1700
  447SOL    HW111010   4.091   3.233   0.724  0.3636 -0.8500 -0.6829
  447SOL    HW211011   3.929   3.235   0.705  0.3341 -0.2985 -0.3640
  448SOL     OW11012   2.523   3.884   0.632  0.5430 -0.3593  0.0490
  448SOL    HW111013   2.602   3.902   0.573  0.5992 -0.9994 -0.0739
  448SOL    HW211014   2.493   3.789   0.620 -0.1870 -0.1488  0.1608
  449SOL     OW11015   3.672   2.474   0.411 -0.1645  0.8776  0.0482
  449SOL    HW111016   3.757   2.461   0.461  0.4252  1.3114 -0.8368
  449SOL    HW211017   3.653   2.393   0.355 -0.3583  0.7672  0.2699
  450SOL     OW11018   3.678   3.631   0.459 -0.5270  0.0794 -0.2919
  450SOL    HW111019   3.771   3.656   0.432 -0.8083  0.6643 -0.7306
  450SOL    HW211020   3.678   3.602   0.555  0.1646 -0.2675 -0.3904
  451SOL     OW11021   4.086   1.921   1.377  0.3447 -0.3047  0.7737
  451SOL    HW111022   4.106   1.826   1.398  1.0135  0.1922  2.4930
  451SOL    HW211023   4.101   1.977   1.459  0.4421  1.3427 -0.3453
  452SOL     OW11024   4.405   2.459   2.419  0.0984 -0.0634 -0.4571
  452SOL    HW111025   4.448   2.371   2.435 -0.9838 -0.1371  2.3889
  452SOL    HW211026   4.454   2.509   2.347  0.2771 -3.2464 -2.6327
  453SOL     OW11027   4.099   4.706   0.404  0.4537  0.1926  0.5259
  453SOL    HW111028   4.145   4.645   0.340  1.7785  0.2122  1.4351
  453SOL    HW211029   4.157   4.720   0.484 -0.0942  2.1632  0.6063
  454SOL     OW11030   3.373   4.711   0.250 -0.3558  0.1168  0.2529
  454SOL    HW111031   3.276   4.689   0.243 -0.8121  1.4684  2.0310
  454SOL    HW211032   3.415   4.703   0.159 -2.6469  1.8595 -1.0273
  455SOL     OW11033   3.515   4.210   0.911 -0.0308  0.5092  0.1057
  455SOL    HW111034   3.563   4.162   0.837 -0.1476  0.3264  0.1496
  455SOL    HW211035   3.423   4.234   0.881 -0.4770 -0.5716  0.5901
  456SOL     OW11036   3.503   2.850   1.670  0.4233 -0.0086 -0.5030
  456SOL    HW111037   3.565   2.929   1.673 -0.1508  0.3999  1.0138
  456SOL    HW211038   3.545   2.773   1.719 -0.6830  0.5991  1.4640
  457SOL     OW11039   3.732   3.604   0.730  0.0107 -0.3030 -0.1243
  457SOL    HW111040   3.658   3.658   0.769  0.1239  0.0718 -0.4278
  457SOL    HW211041   3.820   3.636   0.767  0.0395 -0.6409  0.1128
  458SOL     OW11042   3.483   1.362   0.500 -0.2018 -0.3659 -0.1205
  458SOL    HW111043   3.390   1.351   0.465 -0.2182  1.1381 -0.5825
  458SOL    HW211044   3.488   1.328   0.594 -1.5601  0.8471  0.3994
  459SOL     OW11045   4.235   3.808  -0.060 -0.2354  0.0316 -0.2292
  459SOL    HW111046   4.283   3.822  -0.147  0.9049  0.8930  0.5141
  459SOL    HW211047   4.204   3.897  -0.024 -1.6923 -0.4343 -0.2964
  460SOL     OW11048   3.292   3.473   1.602 -0.2169  0.1595 -0.1013
  460SOL    HW111049   3.292   3.403   1.673 -1.8506  2.5416  2.3844
  460SOL    HW211050   3.232   3.445   1.527 -0.8984 -1.0878  0.8974
  461SOL     OW11051   3.460   2.134   1.789 -0.0864  0.2630 -0.0890
  461SOL    HW111052   3.485   2.052   1.736  2.2358  0.6244  0.3944
  461SOL    HW211053   3.380   2.114   1.846 -1.4473 -0.7074 -2.3004
  462SOL     OW11054   3.393   2.901   0.041 -0.2701 -0.0412  0.2604
  462SOL    HW111055   3.431   2.967  -0.024 -0.0527 -0.3285  0.0939
  462SOL    HW211056   3.326   2.843  -0.007 -0.2555 -0.1243  0.3418
  463SOL     OW11057   2.194   1.788   0.572 -0.0613 -0.1837 -0.2006
  463SOL    HW111058   2.220   1.812   0.666 -0.1986 -0.4516 -0.0917
  463SOL    HW211059   2.276   1.775   0.517  0.0389 -0.9004  0.1078
  464SOL     OW11060   4.733   4.754   0.144 -0.0246  0.7888  0.0348
  464SOL    HW111061   4.769   4.799   0.225  1.3329 -0.8038  0.3466
  464SOL    HW211062   4.677   4.819   0.092  0.5337  2.3327  1.3090
  465SOL     OW11063   2.074   3.149   2.360  0.7224 -0.1097 -0.0558
  465SOL    HW111064   2.035   3.123   2.448  1.9684  0.0267  0.5421
  465SOL    HW211065   2.091   3.247   2.359 -1.1630  0.2231 -1.2022
  466SOL     OW11066   3.553   0.946   1.816  0.0721 -0.6414  0.1829
  466SOL    HW111067   3.535   0.849   1.830 -0.9700 -0.4741  0.0463
  466SOL    HW211068   3.571   0.963   1.719 -0.0143 -0.6532  0.1651
  467SOL     OW11069   2.457   4.416   1.619 -0.1141  0.8010  0.6976
  467SOL    HW111070   2.480   4.414   1.522  1.2283 -1.0818  1.0296
  467SOL    HW211071   2.398   4.494   1.638  0.2447  1.6234 -1.4905
  468SOL     OW11072   3.185   1.339   0.193 -0.4639  0.2996 -0.8519
  468SOL    HW111073   3.258   1.322   0.126  0.1592  0.3360 -0.1973
  468SOL    HW211074   3.201   1.283   0.274 -0.7670  0.8385 -0.4164
  469SOL     OW11075   3.168   1.313   0.475 -0.6030 -0.1835  0.1540
  469SOL    HW111076   3.161   1.264   0.562 -2.6089 -2.1743 -1.0527
  469SOL    HW211077   3.087   1.369   0.462  1.2388  2.7778  1.0677
  470SOL     OW11078   4.440   4.361   1.882  0.2420 -0.4498 -0.0114
  470SOL    HW111079   4.428   4.339   1.785  0.7421 -2.4068  0.3534
  470SOL    HW211080   4.538   4.365   1.903  0.1378  0.5701  0.2831
  471SOL     OW11081   2.161   2.358   0.660 -0.2468  0.6216  0.3723
  471SOL    HW111082   2.253   2.333   0.630 -0.1038  1.4187  0.1392
  471SOL    HW211083   2.126   2.288   0.721  0.8952  0.7901  1.2269
  472SOL     OW11084   2.722   1.949   0.577  0.1284 -0.2602  0.0562
  472SOL    HW111085   2.704   2.012   0.652 -1.1554 -0.3824 -0.1465
  472SOL    HW211086   2.636   1.914   0.540  0.8052 -1.9115 -0.0263
  473SOL     OW11087   3.530  10.564   1.527  0.1988 -0.3094  0.5001
  473SOL    HW111088   3.599  10.604   1.467  0.1789 -0.5353  0.3234
  473SOL    HW211089   3.439  10.588   1.493  0.1905  0.3871  1.0070
  474SOL     OW11090   3.839   3.780   0.940  0.1724  0.3705  0.5864
  474SOL    HW111091   3.885   3.715   1.001 -1.3622  0.4394  1.8503
  474SOL    HW211092   3.858   3.873   0.971  0.0349  0.4337  0.4795
  475SOL     OW11093   4.037   1.242   1.266 -1.0859  0.0433 -0.3497
  475SOL    HW111094   4.034   1.147   1.298 -0.3218 -0.1752 -0.9081
  475SOL    HW211095   4.094   1.295   1.329  0.5405 -0.4193 -1.4130
  476SOL     OW11096   3.934   4.188   0.002  0.3950 -0.0436  0.3810
  476SOL    HW111097   3.847   4.205  -0.044  0.1433 -2.9605 -0.3569
  476SOL    HW211098   4.005   4.245  -0.039 -0.7544  0.8528 -0.4054
  477SOL     OW11099   3.422   5.560   1.609 -0.2535 -0.3467  0.3658
  477SOL    HW111100   3.508   5.602   1.582 -0.8806  0.9835  0.4238
  477SOL    HW211101   3.380   5.516   1.529  0.7971 -1.5779  0.4853
  478SOL     OW11102   2.672  10.498   1.529 -0.1577 -0.3081  0.3813
  478SOL    HW111103   2.760  10.457   1.551  1.3376  1.6582 -1.6899
  478SOL    HW211104   2.668  10.518   1.431 -3.2507 -1.1049  0.2925
  479SOL     OW11105   3.287   4.046   1.051  0.2965  0.2671  0.3333
  479SOL    HW111106   3.257   4.099   0.971  1.2374 -1.1962 -1.0133
  479SOL    HW211107   3.382   4.018   1.039  0.0215 -1.1461  1.3314
  480SOL     OW11108   3.046   0.733   0.543 -0.1270  0.4289  0.2010
  480SOL    HW111109   3.112   0.664   0.572  0.5498  2.2290  3.2302
  480SOL    HW211110   3.092   0.822   0.538 -1.7999  1.2878 -0.0413
  481SOL     OW11111   4.572   2.204   0.821 -0.2904 -0.2530  0.1047
  481SOL    HW111112   4.521   2.198   0.907 -0.6885 -1.3958 -0.1979
  481SOL    HW211113   4.520   2.258   0.755  0.5282  1.5843  0.9269
  482SOL     OW11114   4.149   3.901   0.801 -0.3153  0.2587 -0.5862
  482SOL    HW111115   4.208   3.899   0.882 -1.1587  0.4826  0.0465
  482SOL    HW211116   4.140   3.995   0.770  1.0502  0.0319 -1.7356
  483SOL     OW11117   2.842   2.244   0.968  0.2734 -0.0124 -0.1175
  483SOL    HW111118   2.895   2.191   0.901  1.0778  0.3286  0.2449
  483SOL    HW211119   2.762   2.283   0.923  0.0042 -1.0134 -0.5380
  484SOL     OW11120   2.191   2.122   0.877  0.3935 -0.6343  0.9161
  484SOL    HW111121   2.260   2.107   0.806  0.3111 -0.0453  0.7113
  484SOL    HW211122   2.145   2.036   0.897  0.9009 -0.9449  0.7564
  485SOL     OW11123   3.138  10.613   0.922  0.0024  0.1808  0.6462
  485SOL    HW111124   3.099  10.702   0.944  0.2392  0.3592  0.3532
  485SOL    HW211125   3.120  10.591   0.826  1.3447  0.6501  0.2713
  486SOL     OW11126   3.556   0.932   2.106  0.1149  0.8197  0.1425
  486SOL    HW111127   3.607   1.010   2.143 -0.7085  2.2332 -1.6474
  486SOL    HW211128   3.583   0.917   2.011  0.1255 -0.9725  0.4210
  487SOL     OW11129   4.053   3.940   1.506  0.0702  0.1402  0.3641
  487SOL    HW111130   3.966   3.965   1.463  0.1218  1.0092  0.7502
  487SOL    HW211131   4.048   3.960   1.604  0.6402  0.0351  0.4127
  488SOL     OW11132   1.670   3.671   2.194  0.5581 -0.2191 -0.6086
  488SOL    HW111133   1.758   3.661   2.241  0.7245  2.5775 -0.2439
  488SOL    HW211134   1.596   3.676   2.262  0.2963 -0.8027 -0.8462
  489SOL     OW11135   3.346   2.935   2.077  0.6905  0.7881 -0.0929
  489SOL    HW111136   3.332   2.838   2.059  1.5099  0.4585  1.0214
  489SOL    HW211137   3.314   2.988   1.999 -1.9000 -0.2448  0.2122
  490SOL     OW11138   3.404   5.087   1.923 -0.2313 -0.6391 -0.0703
  490SOL    HW111139   3.375   5.178   1.952 -0.0438 -0.9021  0.9505
  490SOL    HW211140   3.453   5.094   1.836  1.5383  0.4957  0.9933
  491SOL     OW11141   3.989   3.083   1.982 -0.3059  0.7521 -0.1683
  491SOL    HW111142   3.908   3.102   2.038  0.0648  1.7896  0.0362
  491SOL    HW211143   3.963   3.026   1.904 -0.5264 -2.1096  1.9377
  492SOL     OW11144   4.489   3.020   0.988  0.2060 -0.3071  0.3006
  492SOL    HW111145   4.542   2.936   0.996  0.3255 -0.5969 -2.8197
  492SOL    HW211146   4.447   3.024   0.898 -2.4523  1.4743  1.5600
  493SOL     OW11147   2.295   2.849   0.327  0.9721 -0.2495 -0.3971
  493SOL    HW111148   2.340   2.869   0.414 -0.2828 -2.3931  0.7901
  493SOL    HW211149   2.238   2.927   0.301  2.2635  0.8862  0.0755
  494SOL     OW11150   2.676   4.798   0.315 -0.7874 -0.0646 -0.2286
  494SOL    HW111151   2.634   4.837   0.233  0.1324  1.2909 -0.0713
  494SOL    HW211152   2.702   4.872   0.378 -1.5723 -1.0844  1.3408
  495SOL     OW11153   3.668   6.064   1.446 -0.4770 -0.0041 -0.4098
  495SOL    HW111154   3.639   6.041   1.354 -1.0850  1.5821 -0.6192
  495SOL    HW211155   3.633   6.154   1.472  1.3092  0.4351  0.6327
  496SOL     OW11156   2.679   2.113   1.584 -0.2308 -0.1368 -1.1964
  496SOL    HW111157   2.688   2.191   1.522 -0.8505  0.1448 -0.9334
  496SOL    HW211158   2.625   2.041   1.539 -0.3051 -0.1109 -1.1482
  497SOL     OW11159   4.595   3.134   1.681 -0.2408  0.2908  0.1331
  497SOL    HW111160   4.627   3.201   1.748  0.5601 -1.1881  1.2822
  497SOL    HW211161   4.506   3.098   1.709 -0.7382  0.9730 -0.5586
  498SOL     OW11162   2.278   1.567   0.218 -0.1213  0.5410  0.1634
  498SOL    HW111163   2.268   1.540   0.122 -1.4437 -0.2101  0.4953
  498SOL    HW211164   2.191   1.601   0.252  0.3028  0.6623  1.1435
  499SOL     OW11165   2.597   4.920   0.974 -0.4712  0.0117 -0.9678
  499SOL    HW111166   2.592   4.942   0.877 -0.2604  0.0010 -0.9806
  499SOL    HW211167   2.597   4.820   0.985 -1.6257  0.0110 -0.8994
  500SOL     OW11168   3.584   2.452   1.274 -0.1421 -0.6843 -0.1648
  500SOL    HW111169   3.570   2.401   1.189  0.0885 -1.0881  0.0356
  500SOL    HW211170   3.506   2.438   1.335 -0.3922 -0.2470 -0.3805
  501SOL     OW11171   2.693   0.962   0.282  0.0772 -0.2696 -0.3187
  501SOL    HW111172   2.713   0.921   0.193  1.9069  1.2175 -0.6411
  501SOL    HW211173   2.739   0.910   0.354  1.6472  0.6168 -0.6401
  502SOL     OW11174   3.461   3.879   1.704 -0.2406  0.1283 -0.3035
  502SOL    HW111175   3.433   3.975   1.706 -0.6694 -0.0003  0.0317
  502SOL    HW211176   3.419   3.833   1.626 -0.5718  0.0540 -0.0823
  503SOL     OW11177   3.713   1.701   1.074  0.4150  0.4764  0.1639
  503SOL    HW111178   3.665   1.652   1.002  0.3492 -0.6615  0.9533
  503SOL    HW211179   3.799   1.738   1.038  1.5698 -2.1639  0.0697
  504SOL     OW11180   3.732   4.532   0.997  0.2156  0.3583  0.2840
  504SOL    HW111181   3.740   4.441   1.037  1.9279  1.1154  1.7624
  504SOL    HW211182   3.636   4.560   0.995 -0.0180 -0.1086  3.0051
  505SOL     OW11183   2.917  10.564   1.278  0.1041 -0.0559  0.3239
  505SOL    HW111184   2.975  10.512   1.215  0.3875 -0.6166  1.0309
  505SOL    HW211185   2.895  10.507   1.357  1.2921  1.2177  1.6277
  506SOL     OW11186   2.610   3.398   1.272  0.2486 -0.5159 -0.5153
  506SOL    HW111187   2.605   3.310   1.320  0.5699 -0.3300 -0.1311
  506SOL    HW211188   2.670   3.460   1.323 -0.9370  0.3380 -0.1294
  507SOL     OW11189   4.104   3.086   1.522 -0.2481 -0.1346  0.8777
  507SOL    HW111190   4.188   3.141   1.521  0.1804 -0.7854 -0.4942
  507SOL    HW211191   4.126   2.992   1.499 -1.4356 -0.1742 -0.1653
  508SOL     OW11192   2.022   1.643   0.272  0.2128  0.6712 -0.0162
  508SOL    HW111193   1.972   1.622   0.356  0.0495 -2.3657 -0.8385
  508SOL    HW211194   2.040   1.742   0.268 -2.1869  1.2471  2.2247
  509SOL     OW11195   2.502   3.448   2.454 -0.2816 -0.1328  0.0940
  509SOL    HW111196   2.530   3.464   2.359  1.1002 -1.4289  0.2681
  509SOL    HW211197   2.559   3.504   2.515  0.1664 -0.7723  0.2736
  510SOL     OW11198   3.823   3.366   1.979 -0.1310 -0.1287  0.0176
  510SOL    HW111199   3.751   3.364   1.910 -1.2013  1.1913  1.0808
  510SOL    HW211200   3.905   3.409   1.941 -0.7201  0.6060 -0.4226
  511SOL     OW11201   3.529   2.908   0.904 -0.9357  0.0345  0.0551
  511SOL    HW111202   3.489   2.854   0.977 -0.8110  0.0087  0.1035
  511SOL    HW211203   3.516   2.861   0.816 -0.6337 -0.1768  0.1242
  512SOL     OW11204   3.854   4.762   1.875 -0.1133 -0.0003  0.1199
  512SOL    HW111205   3.860   4.856   1.907 -1.3717  0.4867 -1.0276
  512SOL    HW211206   3.846   4.761   1.775  0.8960 -1.3630  0.0363
  513SOL     OW11207   2.730   2.128   1.851 -0.3794  0.2280 -0.1765
  513SOL    HW111208   2.671   2.065   1.902 -0.4258  0.8593  0.5557
  513SOL    HW211209   2.713   2.118   1.753 -1.6904  0.3899  0.0324
  514SOL     OW11210   4.142   1.959   2.463 -0.3081  0.2565 -0.5031
  514SOL    HW111211   4.069   1.891   2.458 -2.4800  2.2840  2.2639
  514SOL    HW211212   4.117   2.040   2.409  0.2260  0.6712 -0.1424
  515SOL     OW11213   3.806   4.061   1.411  0.5455 -0.4423 -0.3785
  515SOL    HW111214   3.756   4.089   1.493  1.4962  0.8675 -0.2234
  515SOL    HW211215   3.744   4.059   1.333  0.4910  2.4447 -0.4486
  516SOL     OW11216   2.394   4.401   1.026  0.3443  0.4009  0.2290
  516SOL    HW111217   2.454   4.335   1.071 -1.3458 -0.8455  0.7011
  516SOL    HW211218   2.303   4.362   1.015 -0.6230  2.5374  0.2488
  517SOL     OW11219   2.945   3.359   0.738  0.3294 -0.3431 -0.1508
  517SOL    HW111220   3.002   3.283   0.707 -1.0864 -0.9863 -1.2684
  517SOL    HW211221   2.980   3.445   0.701  0.2491 -0.7947 -1.2871
  518SOL     OW11222   3.625   4.701   0.366  0.1225 -0.9018  0.3539
  518SOL    HW111223   3.533   4.707   0.327  0.8321  0.4070 -1.1852
  518SOL    HW211224   3.683   4.771   0.325  1.8316 -1.7526  1.2638
  519SOL     OW11225   3.433   1.535   2.212  0.2332  0.1341 -0.5660
  519SOL    HW111226   3.394   1.535   2.304  0.5718  0.1533 -0.4195
  519SOL    HW211227   3.381   1.474   2.153  0.2118 -0.1266 -0.2769
  520SOL     OW11228   3.579   1.620   0.589  0.0173  0.8411 -0.1752
  520SOL    HW111229   3.629   1.682   0.529 -1.0026  1.5927 -0.2780
  520SOL    HW211230   3.550   1.539   0.538  0.8054  0.5795 -0.2057
  521SOL     OW11231   3.573  10.477   2.494 -0.2882  0.5261 -0.3356
  521SOL    HW111232   3.594  10.482   2.396 -0.2136 -1.5387 -0.4459
  521SOL    HW211233   3.653  10.442   2.543 -1.0221 -0.3934  0.1998
  522SOL     OW11234   4.058   2.173   2.302  0.3034 -0.7749 -0.1962
  522SOL    HW111235   4.015   2.125   2.226  0.3405  0.5204 -1.0622
  522SOL    HW211236   4.127   2.237   2.266 -1.1254  1.3512  0.7454
  523SOL     OW11237   3.573   9.995   1.251 -0.1834 -1.2082  0.4748
  523SOL    HW111238   3.610   9.930   1.318  2.8512 -0.8851 -0.8172
  523SOL    HW211239   3.625  10.080   1.255 -1.4111 -0.3688 -0.7784
  524SOL     OW11240   3.545   3.756   1.451  0.1496 -0.1330 -0.2857
  524SOL    HW111241   3.555   3.658   1.467  0.9998  0.1879  1.2417
  524SOL    HW211242   3.632   3.792   1.417  0.8063  0.6459  2.1634
  525SOL     OW11243   2.945   1.060   2.361  0.8903  0.6773  0.0375
  525SOL    HW111244   2.931   1.049   2.460 -0.1137  3.1584  0.2126
  525SOL    HW211245   2.870   1.016   2.312  1.8955 -1.4249  0.2883
  526SOL     OW11246   3.308   1.072   2.308 -0.8802  0.8693  0.2479
  526SOL    HW111247   3.258   1.158   2.309 -0.6013  1.0266  0.5788
  526SOL    HW211248   3.247   0.998   2.279 -0.9771  1.2628 -0.5651
  527SOL     OW11249   3.882   4.834   0.679  0.1103 -0.4548 -0.7123
  527SOL    HW111250   3.831   4.876   0.603 -2.0047  0.8607  1.3901
  527SOL    HW211251   3.822   4.825   0.758  1.3941 -4.7307 -0.1386
  528SOL     OW11252   2.635   3.578  -0.083  0.3755  0.4038 -0.3076
  528SOL    HW111253   2.711   3.588  -0.019  0.3124 -1.5994  0.1153
  528SOL    HW211254   2.565   3.647  -0.064  1.0081  0.7379  0.8320
  529SOL     OW11255   3.935   2.378   0.508 -0.9063 -0.3639  0.7153
  529SOL    HW111256   4.011   2.439   0.530 -2.5554  1.6897  0.9867
  529SOL    HW211257   3.965   2.308   0.444  1.1556  0.4995  0.7057
  530SOL     OW11258   3.259   3.514  -0.013  0.5032 -0.0286 -0.0345
  530SOL    HW111259   3.300   3.424  -0.030  1.3266  0.0519  1.3818
  530SOL    HW211260   3.214   3.513   0.076  1.0621  1.1350  0.2729
  531SOL     OW11261   3.753  10.435  -0.061  0.0312 -0.1757 -0.0153
  531SOL    HW111262   3.743  10.337  -0.049  0.4373 -0.3869 -1.3418
  531SOL    HW211263   3.750  10.480   0.028  1.5750 -1.5451  0.7540
  532SOL     OW11264   2.394   1.812   1.670  0.4759  0.6352 -0.0693
  532SOL    HW111265   2.368   1.812   1.767 -0.2901  0.4246 -0.2730
  532SOL    HW211266   2.355   1.893   1.626  2.8258  2.0541  0.3177
  533SOL     OW11267   3.438   5.018   0.678  0.1408 -0.6708  0.7046
  533SOL    HW111268   3.371   5.021   0.752 -0.5495 -1.9730  0.1572
  533SOL    HW211269   3.488   4.931   0.682 -0.7522 -1.2902 -1.0682
  534SOL     OW11270   3.445   5.130   1.134 -0.6168  0.7747 -0.5167
  534SOL    HW111271   3.541   5.127   1.163 -0.4835  3.4630 -0.6091
  534SOL    HW211272   3.390   5.073   1.194  0.3137  2.9125  2.4423
  535SOL     OW11273   4.293   3.260   0.773 -0.9539 -0.0666 -0.1841
  535SOL    HW111274   4.313   3.346   0.726  0.8685 -0.3688  0.0130
  535SOL    HW211275   4.292   3.275   0.872  0.2120 -0.4367 -0.1125
  536SOL     OW11276   2.277   2.042   1.612  0.0934  0.6329 -0.3089
  536SOL    HW111277   2.262   2.088   1.524 -0.9174  0.3505 -0.2940
  536SOL    HW211278   2.214   2.079   1.680 -0.7555 -0.7735 -0.3033
  537SOL     OW11279   4.348   4.147   1.147 -0.4082  0.5839 -0.2998
  537SOL    HW111280   4.337   4.152   1.246 -0.4827  1.1286 -0.3341
  537SOL    HW211281   4.334   4.053   1.116  1.9355 -0.0723  0.4864
  538SOL     OW11282   2.771   3.795   1.420  0.0957 -0.2425  0.3654
  538SOL    HW111283   2.748   3.824   1.327  1.2402 -0.0411  0.1414
  538SOL    HW211284   2.721   3.851   1.486 -0.6813 -0.3492 -0.1176
  539SOL     OW11285   2.380   3.541   1.332 -0.4419  0.6976 -0.4804
  539SOL    HW111286   2.412   3.634   1.351 -0.9495  0.5955  0.9301
  539SOL    HW211287   2.458   3.479   1.332  0.0860  1.2963 -2.7581
  540SOL     OW11288   3.234   2.805   1.001 -0.3653  0.5947 -0.3084
  540SOL    HW111289   3.281   2.777   1.085 -1.9930  0.5257  0.5783
  540SOL    HW211290   3.220   2.724   0.943 -1.6194  0.2038  0.5385
  541SOL     OW11291   2.288   3.357  -0.117  0.5129 -0.6124  0.4431
  541SOL    HW111292   2.337   3.425  -0.171  0.0261  0.0297  0.8055
  541SOL    HW211293   2.258   3.398  -0.031 -0.4825 -1.0563  0.3109
  542SOL     OW11294   2.128   4.057   1.988  0.2080  0.5616 -0.0635
  542SOL    HW111295   2.109   3.968   1.947 -0.9637  1.0461 -0.6135
  542SOL    HW211296   2.087   4.129   1.931 -1.4483  1.2644  1.9558
  543SOL     OW11297   3.464   1.716   0.241  0.0786 -0.6574  0.2879
  543SOL    HW111298   3.445   1.781   0.168  0.9272  0.2632  0.8733
  543SOL    HW211299   3.542   1.659   0.216 -1.1947 -2.0460 -0.5926
  544SOL     OW11300   4.762   1.985   0.843 -0.1186 -0.2582  0.7131
  544SOL    HW111301   4.713   1.961   0.927  0.6204  1.7400  1.7365
  544SOL    HW211302   4.738   2.078   0.815 -0.0691 -0.7728 -1.0910
  545SOL     OW11303   2.882   5.132   2.038 -0.7342 -0.0886  0.3848
  545SOL    HW111304   2.905   5.227   2.015  0.0851 -0.5519 -0.7699
  545SOL    HW211305   2.959   5.073   2.016 -0.8075 -0.8896  2.2114
  546SOL     OW11306   4.104   4.384  -0.074 -0.5744 -0.2131  0.4362
  546SOL    HW111307   4.081   4.398  -0.171  0.7309  0.4710  0.2037
  546SOL    HW211308   4.110   4.473  -0.029 -0.7096 -0.5104  1.0418
  547SOL     OW11309   2.719   5.005   1.873  0.7255 -0.6047 -0.1972
  547SOL    HW111310   2.782   5.056   1.931  0.6570 -0.9039  0.1410
  547SOL    HW211311   2.635   4.985   1.924  1.0420 -1.6873 -0.0823
  548SOL     OW11312   4.302   3.283   0.338  0.0808  0.0003 -0.3223
  548SOL    HW111313   4.336   3.339   0.263 -0.5040  0.7909 -0.0038
  548SOL    HW211314   4.237   3.215   0.303  0.1491  0.0732 -0.5898
  549SOL     OW11315   3.900   1.541   1.440  0.3935 -0.1094 -0.2603
  549SOL    HW111316   3.848   1.551   1.525 -0.4753  1.4110 -0.9454
  549SOL    HW211317   3.993   1.510   1.461  1.1848  3.2136  1.5488
  550SOL     OW11318   4.671   3.810   1.738 -0.0563 -0.4154  0.2066
  550SOL    HW111319   4.653   3.762   1.652 -2.2093 -0.1082  0.4640
  550SOL    HW211320   4.744   3.762   1.788  0.2059 -1.4233 -1.1101
  551SOL     OW11321   3.690   4.814   0.875 -0.1438  0.0460  0.5044
  551SOL    HW111322   3.590   4.808   0.873 -0.2285  0.3114  2.4488
  551SOL    HW211323   3.719   4.860   0.959  1.6709 -1.4531  0.7347
  552SOL     OW11324   4.580   2.721   1.637  0.1596  0.3135  0.2396
  552SOL    HW111325   4.583   2.684   1.544 -0.9981  0.1324  0.2674
  552SOL    HW211326   4.496   2.774   1.649  0.4189  0.5407  1.1103
  553SOL     OW11327   3.173   3.978   0.123 -0.4631 -0.0654  0.5781
  553SOL    HW111328   3.155   4.055   0.063 -2.4893 -0.3693  0.7672
  553SOL    HW211329   3.267   3.946   0.109  0.5888  2.7637  0.9175
  554SOL     OW11330   2.904   0.989   1.875  0.1576  0.4904 -0.3894
  554SOL    HW111331   2.816   0.971   1.829 -0.1318  0.3509  0.2147
  554SOL    HW211332   2.901   0.951   1.967  0.2079  2.0602  0.2655
  555SOL     OW11333   3.528   1.502   1.337  0.4299  0.0185 -0.0388
  555SOL    HW111334   3.537   1.601   1.338  1.6272 -0.0683 -0.9270
  555SOL    HW211335   3.616   1.460   1.315 -0.0647 -1.2450  0.2940
  556SOL     OW11336   4.162   2.938   0.423 -0.3731 -0.3227 -0.1502
  556SOL    HW111337   4.235   2.968   0.484 -0.7591  0.2353  0.0396
  556SOL    HW211338   4.200   2.914   0.334 -0.1843  1.7619 -0.6628
  557SOL     OW11339   2.955   1.498   0.457  0.0489 -0.4207  0.3277
  557SOL    HW111340   2.948   1.576   0.520 -1.2091 -0.9405  0.8374
  557SOL    HW211341   2.925   1.526   0.366 -0.6969 -0.3943  0.5803
  558SOL     OW11342   3.004   1.841   0.047  0.6573  0.0738 -0.5234
  558SOL    HW111343   3.021   1.756   0.097  1.5313  1.1032  0.9726
  558SOL    HW211344   3.088   1.872   0.002  0.5561  0.5762 -0.3755
  559SOL     OW11345   3.093   0.675   0.211  0.2832  0.6887 -0.2726
  559SOL    HW111346   3.113   0.731   0.131  2.5891 -1.4102 -1.2053
  559SOL    HW211347   3.160   0.693   0.283  0.4511 -0.1496 -0.2113
  560SOL     OW11348   2.271   1.706  -0.157  0.4481  0.3295 -0.4781
  560SOL    HW111349   2.211   1.785  -0.143 -1.5363 -1.2351  0.2048
  560SOL    HW211350   2.353   1.715  -0.101  0.3688  2.0068 -0.6121
  561SOL     OW11351   2.887   5.274   1.258  0.3179 -0.1129  0.0478
  561SOL    HW111352   2.817   5.301   1.324 -0.1010 -0.1645 -0.3780
  561SOL    HW211353   2.860   5.189   1.213  1.8482 -1.5531  1.7231
  562SOL     OW11354   3.001   5.272   1.633  0.1845 -0.2218 -0.4386
  562SOL    HW111355   3.090   5.249   1.672  0.3610 -0.5353 -1.0159
  562SOL    HW211356   3.005   5.363   1.591  0.0117  0.0887  0.2102
  563SOL     OW11357   2.520   1.761  -0.046  0.6998 -0.3137  0.0393
  563SOL    HW111358   2.608   1.807  -0.048  1.7370 -2.2622 -0.4665
  563SOL    HW211359   2.534   1.662  -0.054 -1.3636 -0.8481  2.3388
  564SOL     OW11360   3.801   2.033   2.490  0.0540  0.0551 -0.3342
  564SOL    HW111361   3.701   2.035   2.493 -0.0050 -2.9214  1.4957
  564SOL    HW211362   3.833   2.099   2.422 -3.0005  2.8983  0.8288
  565SOL     OW11363   4.292   2.000  -0.085  0.6655 -0.0395  0.3573
  565SOL    HW111364   4.235   1.996  -0.167  0.8686 -0.3380  0.2295
  565SOL    HW211365   4.234   2.013  -0.005  0.4652  0.2414  0.1677
  566SOL     OW11366   3.739   3.523   1.698  0.2505 -0.4964  0.1581
  566SOL    HW111367   3.824   3.527   1.645  1.1621  1.3617  1.6782
  566SOL    HW211368   3.661   3.513   1.635  1.3044  1.5035 -1.5590
  567SOL     OW11369   2.885   0.900   2.574  0.2237 -0.4982 -0.4483
  567SOL    HW111370   2.897   0.896   2.673 -1.4995 -1.3730 -0.2558
  567SOL    HW211371   2.877   0.808   2.537 -1.2741 -0.1245 -1.1139
  568SOL     OW11372   3.862   4.049   0.975  0.1369 -0.4757  0.5778
  568SOL    HW111373   3.870   4.087   0.883 -2.2399 -0.2834  0.4134
  568SOL    HW211374   3.867   4.123   1.042 -0.4661 -0.3382  0.4728
  569SOL     OW11375   4.127   3.209   0.121  0.0945  0.1119 -0.4978
  569SOL    HW111376   4.067   3.183   0.197  0.1765  0.2060 -0.3993
  569SOL    HW211377   4.120   3.142   0.048 -3.3071  2.2543 -2.2742
  570SOL     OW11378   3.559   0.961   0.911 -0.7049 -0.1060 -0.1791
  570SOL    HW111379   3.631   0.999   0.854 -0.7322  0.0832 -0.0872
  570SOL    HW211380   3.498   0.905   0.855 -1.1537  0.6694 -0.4692
  571SOL     OW11381   3.140   0.778   1.893  0.4858  0.1461 -0.7427
  571SOL    HW111382   3.099   0.845   1.956  1.3359  0.5402 -0.5836
  571SOL    HW211383   3.226   0.745   1.933  0.7468 -0.0236 -1.4386
  572SOL     OW11384   4.462   2.189   2.516  0.0494  0.3700  0.2156
  572SOL    HW111385   4.468   2.266   2.579 -0.0821 -0.2164  0.9454
  572SOL    HW211386   4.418   2.112   2.561  4.2544 -1.7208  0.9717
  573SOL     OW11387   3.392   4.902   1.532 -0.2692  0.1561  0.3866
  573SOL    HW111388   3.379   4.944   1.442 -0.5246  0.1140  0.4034
  573SOL    HW211389   3.346   4.813   1.533  2.1154 -1.1343 -0.3909
  574SOL     OW11390   3.750   5.196   1.801 -0.0047 -0.3662 -0.0076
  574SOL    HW111391   3.675   5.160   1.745 -0.6118 -0.5596  0.9346
  574SOL    HW211392   3.713   5.251   1.875  0.7898 -0.4595  0.4615
  575SOL     OW11393   2.876   0.891   1.522 -0.7270 -0.1427 -0.0970
  575SOL    HW111394   2.777   0.881   1.513 -0.9168  0.4465  1.3044
  575SOL    HW211395   2.897   0.938   1.607  0.7644 -0.2460 -0.4046
  576SOL     OW11396   2.827   1.295   1.073  0.7160  0.4492  0.8293
  576SOL    HW111397   2.817   1.232   1.150 -1.4145  1.8670  1.7624
  576SOL    HW211398   2.853   1.244   0.991  1.1165 -1.3430  2.0463
  577SOL     OW11399   3.514   3.283   1.277 -0.0602 -0.0166  0.5128
  577SOL    HW111400   3.575   3.262   1.200  0.0898 -0.3084  0.7099
  577SOL    HW211401   3.421   3.252   1.254 -0.5963  2.3447 -0.6574
  578SOL     OW11402   2.188   3.491   1.794  0.2497  0.0069  0.1562
  578SOL    HW111403   2.236   3.407   1.768  1.5803  0.6263  0.5556
  578SOL    HW211404   2.248   3.570   1.777  0.4796  0.5891  3.3077
  579SOL     OW11405   4.027   3.446   0.116 -0.2979 -0.1373 -0.1242
  579SOL    HW111406   4.068   3.358   0.094 -1.2561 -0.4077 -0.8682
  579SOL    HW211407   3.930   3.434   0.135 -0.3177  0.6777  0.3248
  580SOL     OW11408   4.375   3.115   0.546  0.1110  0.0531  0.4733
  580SOL    HW111409   4.348   3.181   0.616 -1.4565  0.7730 -0.7848
  580SOL    HW211410   4.378   3.160   0.457  2.7764 -0.6836  0.1351
  581SOL     OW11411   4.639   3.983   1.206  0.1704  0.5897 -0.1594
  581SOL    HW111412   4.598   3.928   1.133 -1.8913  0.9370  0.6970
  581SOL    HW211413   4.704   3.928   1.257  1.2749  0.2037 -1.9513
  582SOL     OW11414   2.422   1.715   0.436 -0.9173 -0.4295 -0.7810
  582SOL    HW111415   2.511   1.676   0.460 -0.3442  1.7851  0.9093
  582SOL    HW211416   2.391   1.678   0.349  1.4617 -1.5620 -1.1727
  583SOL     OW11417   2.837   4.165  -0.074  0.0528 -0.3534  0.3268
  583SOL    HW111418   2.876   4.118   0.005 -0.1980 -0.0757  0.6164
  583SOL    HW211419   2.875   4.257  -0.081 -1.0302  0.1500  0.9870
  584SOL     OW11420   2.692   2.803   0.468 -0.0874  0.3839  0.0416
  584SOL    HW111421   2.713   2.707   0.454  1.3899  0.6729  0.1283
  584SOL    HW211422   2.770   2.859   0.438 -0.8479  1.5335  0.1666
  585SOL     OW11423   4.259   4.223   0.195 -0.5801  0.1311  0.5182
  585SOL    HW111424   4.349   4.227   0.239 -1.3361  0.0106  2.0981
  585SOL    HW211425   4.223   4.315   0.183 -0.2316  0.1821 -0.1537
  586SOL     OW11426   3.208   2.699   0.591 -0.3209 -0.3597 -0.3840
  586SOL    HW111427   3.224   2.655   0.680 -0.2371  1.4440  0.5147
  586SOL    HW211428   3.174   2.631   0.526 -0.6805 -1.6393  1.1129
  587SOL     OW11429   4.567   5.031   0.530  0.0214  0.3465 -0.1221
  587SOL    HW111430   4.483   5.079   0.553  0.9582  1.7923  0.3249
  587SOL    HW211431   4.634   5.042   0.604  1.2521  0.7485 -1.2678
  588SOL     OW11432   3.037   4.866   1.351 -0.3669  0.2677  0.0355
  588SOL    HW111433   3.072   4.858   1.444  1.7291 -1.9100 -0.9031
  588SOL    HW211434   2.971   4.942   1.347 -2.7728 -1.4683  3.9246
  589SOL     OW11435   3.816   1.092   2.500  0.2635  0.2055  0.1803
  589SOL    HW111436   3.911   1.119   2.518  0.6686 -1.2890  0.3794
  589SOL    HW211437   3.807   0.993   2.511 -1.1420  0.2241 -0.6588
  590SOL     OW11438   3.665   9.800   1.414 -0.6124 -0.0940  0.0328
  590SOL    HW111439   3.641   9.705   1.436  2.2412 -0.8376  0.0878
  590SOL    HW211440   3.753   9.802   1.368  0.1802  2.6895  1.5946
  591SOL     OW11441   3.936   2.975   0.569 -0.0380 -0.1436  0.4306
  591SOL    HW111442   4.022   2.949   0.524 -0.3907  0.1575 -0.4288
  591SOL    HW211443   3.955   3.043   0.639  0.3501  0.4312 -0.2166
  592SOL     OW11444   2.467   1.934   1.213 -0.4546  0.2082  0.2296
  592SOL    HW111445   2.490   1.938   1.310  0.0330 -0.8245  0.1674
  592SOL    HW211446   2.544   1.968   1.159  0.2233 -1.4916  0.1040
  593SOL     OW11447   2.259   2.124   0.258  0.5485  0.2845 -0.3200
  593SOL    HW111448   2.341   2.152   0.308 -0.3455  0.6117  0.9926
  593SOL    HW211449   2.284   2.060   0.186  1.5565 -2.2367  2.2081
  594SOL     OW11450   2.690   1.930   0.242  0.0838  0.0505 -0.8125
  594SOL    HW111451   2.786   1.911   0.221 -0.3564 -2.2160 -0.8258
  594SOL    HW211452   2.660   2.007   0.186  2.2168  1.6047  0.0856
  595SOL     OW11453   2.370   3.628   1.062 -0.5179  0.2578  0.0920
  595SOL    HW111454   2.370   3.579   1.149  0.0677  1.4805  0.7814
  595SOL    HW211455   2.455   3.609   1.013 -1.1633 -1.0209 -0.5629
  596SOL     OW11456   3.408   5.430   1.882 -0.4014 -0.0798  0.1653
  596SOL    HW111457   3.439   5.501   1.946  0.6431 -0.3209 -0.0559
  596SOL    HW211458   3.428   5.459   1.788 -0.1297 -0.5779  0.0647
  597SOL     OW11459   3.351   0.730   2.074 -0.2417  0.1561  0.0985
  597SOL    HW111460   3.277   0.767   2.130 -0.5433  0.3062 -0.3926
  597SOL    HW211461   3.432   0.788   2.084 -0.6481  0.8434 -0.5029
  598SOL     OW11462   2.694   2.331   1.406 -0.7144  0.0090 -0.9004
  598SOL    HW111463   2.633   2.333   1.327 -0.5119 -0.6430 -1.0804
  598SOL    HW211464   2.675   2.409   1.465 -1.5376 -0.0366 -1.0944
  599SOL     OW11465   3.328   4.386   0.737  0.0536  0.1797 -1.0159
  599SOL    HW111466   3.244   4.437   0.722  0.8214  1.2784 -1.6351
  599SOL    HW211467   3.334   4.311   0.672 -1.0820 -0.7367 -0.0985
  600SOL     OW11468   4.308   4.496   0.790  0.1036  0.6461  0.3640
  600SOL    HW111469   4.223   4.522   0.745  0.6859  1.0053 -0.5442
  600SOL    HW211470   4.384   4.505   0.725  0.6780 -0.7593  0.8229
  601SOL     OW11471   2.875   1.773   1.840 -0.0988 -0.2527  0.4665
  601SOL    HW111472   2.779   1.787   1.867  0.3703 -0.2918  2.2255
  601SOL    HW211473   2.879   1.726   1.752 -1.7118  2.4486 -1.1348
  602SOL     OW11474   3.072   3.570   2.229  0.6805  0.0825 -0.4894
  602SOL    HW111475   3.130   3.504   2.180 -0.4261 -0.5764 -0.9373
  602SOL    HW211476   3.069   3.545   2.326 -1.1278 -1.6023 -0.9379
  603SOL     OW11477   3.974   4.333   0.225  0.3442  0.2147  0.5542
  603SOL    HW111478   3.924   4.419   0.212  0.7747  0.4503  0.4620
  603SOL    HW211479   3.937   4.264   0.163 -0.2072  0.2468  0.8443
  604SOL     OW11480   3.316   2.951   0.544  0.3375  0.1983  0.4160
  604SOL    HW111481   3.385   2.943   0.473  1.4234  0.5913  1.3960
  604SOL    HW211482   3.273   2.862   0.560  0.3449  0.0355 -0.4719
  605SOL     OW11483   3.913   1.780   2.521  0.3835 -0.1905  0.2752
  605SOL    HW111484   3.875   1.869   2.548 -0.4359 -0.5460  0.3130
  605SOL    HW211485   3.848   1.734   2.461  0.4942 -1.0602  0.8175
  606SOL     OW11486   2.378   2.256   1.100  0.0149 -0.0594  0.0833
  606SOL    HW111487   2.413   2.164   1.118  1.5246  0.5103  0.1335
  606SOL    HW211488   2.319   2.254   1.020  0.8233 -0.9122 -0.5076
  607SOL     OW11489   4.126   2.582   0.583 -0.1834 -0.3448 -0.0756
  607SOL    HW111490   4.173   2.590   0.671  0.4482  1.5510 -0.5569
  607SOL    HW211491   4.192   2.568   0.510 -0.2862  2.3475 -0.7557
  608SOL     OW11492   3.238   5.770   1.537 -0.2063  0.3846  0.6441
  608SOL    HW111493   3.246   5.857   1.587 -1.8136  1.1118 -0.3119
  608SOL    HW211494   3.291   5.700   1.584 -1.2680  1.1664  3.0845
  609SOL     OW11495   3.831   3.209   0.052  0.1944 -0.3281 -0.2059
  609SOL    HW111496   3.815   3.189   0.149  0.5198  0.6343  0.0604
  609SOL    HW211497   3.745   3.235   0.008 -0.1938 -2.1123 -0.5139
  610SOL     OW11498   3.537   3.042   2.240  0.1651  0.0651  0.4704
  610SOL    HW111499   3.512   3.114   2.304 -1.4099 -0.0813  0.0405
  610SOL    HW211500   3.459   3.022   2.181  2.0121  1.1894 -2.4421
  611SOL     OW11501   3.414   9.892   2.465  0.1661  0.4053 -0.3646
  611SOL    HW111502   3.431   9.807   2.416 -0.5228  0.9982 -1.6479
  611SOL    HW211503   3.373   9.959   2.403 -1.2573  0.9758  1.1469
  612SOL     OW11504   3.705   5.195   0.934  0.0449  0.2374  0.4719
  612SOL    HW111505   3.642   5.148   0.872  0.2667  1.7401 -0.9470
  612SOL    HW211506   3.745   5.129   0.998 -0.6113 -1.2613 -0.6338
  613SOL     OW11507   2.332   2.179   2.469  0.4214 -0.2013  0.7373
  613SOL    HW111508   2.323   2.254   2.535 -0.2190 -1.2250  1.8225
  613SOL    HW211509   2.278   2.200   2.387 -1.0567 -0.1918  1.6928
  614SOL     OW11510   2.722   4.162   0.854  0.4426 -0.1055  0.1375
  614SOL    HW111511   2.775   4.086   0.892  0.4064 -0.1956  0.0082
  614SOL    HW211512   2.636   4.126   0.817  0.0459  0.1100  0.8332
  615SOL     OW11513   2.296   1.843   0.833 -0.3968  0.2352 -0.9070
  615SOL    HW111514   2.299   1.782   0.912 -0.0421  0.6791 -0.5712
  615SOL    HW211515   2.381   1.894   0.827 -0.8541  1.0086 -0.9282
  616SOL     OW11516   2.523   3.157   0.109 -0.0226 -0.5259  0.7156
  616SOL    HW111517   2.539   3.059   0.112  1.4764 -0.3319 -0.2314
  616SOL    HW211518   2.522   3.188   0.013 -0.5418  0.3766  0.9999
  617SOL     OW11519   3.166   4.170   0.831 -0.4283 -0.3469 -0.1833
  617SOL    HW111520   3.133   4.185   0.738 -0.1123 -1.5113 -0.4898
  617SOL    HW211521   3.173   4.258   0.879  0.4447  0.3703 -1.5992
  618SOL     OW11522   3.622   2.154   1.340  0.6206  0.0641 -0.3168
  618SOL    HW111523   3.603   2.171   1.244  0.5073  0.2875 -0.2560
  618SOL    HW211524   3.720   2.160   1.357  0.6670 -0.2511 -0.4714
  619SOL     OW11525   2.850   0.875   2.126  0.0592  0.2585  0.4766
  619SOL    HW111526   2.873   0.779   2.141 -0.7673 -0.4008 -2.2138
  619SOL    HW211527   2.752   0.889   2.140 -0.2779  0.1415 -1.5463
  620SOL     OW11528   4.116   4.685   2.459  0.0802  0.2208  0.0630
  620SOL    HW111529   4.062   4.768   2.453  1.2325  0.8784 -1.6464
  620SOL    HW211530   4.122   4.655   2.555 -1.0546  1.6049  0.5761
  621SOL     OW11531   2.741   1.658   0.263 -0.5997  0.0982 -0.1468
  621SOL    HW111532   2.746   1.596   0.184 -0.0399  1.3661 -1.1232
  621SOL    HW211533   2.695   1.743   0.236 -1.6254 -0.0000  1.2604
  622SOL     OW11534   3.526   3.046   2.591  0.6140 -0.5283  0.6094
  622SOL    HW111535   3.571   3.131   2.616 -1.7132  0.9846 -0.1628
  622SOL    HW211536   3.589   2.989   2.538  1.8895  1.1359  0.2980
  623SOL     OW11537   4.464   3.371   1.076  0.2928  0.0405 -0.4540
  623SOL    HW111538   4.535   3.334   1.136  0.2384 -1.9696 -1.6140
  623SOL    HW211539   4.382   3.315   1.082 -0.1634  0.5983 -1.4372
  624SOL     OW11540   3.720   3.973   1.676 -0.1012 -0.0200 -0.1083
  624SOL    HW111541   3.623   3.946   1.674 -0.2491  0.2790  1.8100
  624SOL    HW211542   3.776   3.895   1.701  0.3432 -0.5873 -2.7367
  625SOL     OW11543   3.864   1.478   0.894  0.4770 -0.3707 -0.5208
  625SOL    HW111544   3.772   1.508   0.867  0.3467 -2.5582 -2.6623
  625SOL    HW211545   3.932   1.515   0.831  0.7946 -0.8253 -0.4488
  626SOL     OW11546   3.428   1.908   0.060  0.1558 -0.2353  0.0035
  626SOL    HW111547   3.353   1.903  -0.006  0.8317 -0.0262 -0.7788
  626SOL    HW211548   3.434   2.001   0.096 -0.4390 -0.4321  0.6426
  627SOL     OW11549   2.546   4.019   2.531 -0.4971 -0.2492 -0.0391
  627SOL    HW111550   2.618   4.065   2.479 -1.6303  1.6125 -0.0185
  627SOL    HW211551   2.487   3.967   2.468 -0.4275  0.0118 -0.3204
  628SOL     OW11552   3.604   5.453   0.657 -0.4252  0.1833  0.1602
  628SOL    HW111553   3.576   5.510   0.580 -0.5898 -1.6410 -1.1660
  628SOL    HW211554   3.557   5.364   0.651 -0.6700  0.1291  2.5259
  629SOL     OW11555   2.903   2.847   0.728 -0.2094 -0.3727  0.1013
  629SOL    HW111556   2.842   2.901   0.670  0.1325 -0.7022 -0.5609
  629SOL    HW211557   2.975   2.907   0.765 -0.7918 -0.0328  0.6957
  630SOL     OW11558   2.596   2.044   2.113  0.4257 -0.1326  0.1333
  630SOL    HW111559   2.508   2.083   2.084  1.1976  1.0912 -0.5808
  630SOL    HW211560   2.594   2.028   2.212  0.3371  2.3267  0.5409
  631SOL     OW11561   3.953  10.292   1.175  0.4803 -0.6406 -0.0705
  631SOL    HW111562   3.959  10.391   1.159 -0.2726 -0.2126  2.0819
  631SOL    HW211563   3.869  10.271   1.224  0.8055 -2.3262 -0.1967
  632SOL     OW11564   2.567   2.567   2.227 -0.3578 -0.3092 -0.8240
  632SOL    HW111565   2.533   2.632   2.295  1.6111 -0.5928  0.4801
  632SOL    HW211566   2.521   2.583   2.139 -2.5250  0.4249  0.4171
  633SOL     OW11567   3.024   3.624   0.642 -0.2172 -0.1523 -0.5115
  633SOL    HW111568   3.074   3.617   0.556 -0.4119  0.9800 -0.7237
  633SOL    HW211569   3.034   3.716   0.679 -0.1999 -0.6116  0.6411
  634SOL     OW11570   3.086   1.590   0.172  0.0834 -0.1964 -0.0141
  634SOL    HW111571   3.132   1.502   0.169 -0.6428 -0.5595 -0.7527
  634SOL    HW211572   3.127   1.647   0.244  0.3787 -1.2210  0.6386
  635SOL     OW11573   3.556   2.358   1.694  0.3008  0.2249  0.4550
  635SOL    HW111574   3.538   2.270   1.740  0.3145  1.1045  2.1727
  635SOL    HW211575   3.496   2.366   1.614 -1.7599 -0.1119  1.9201
  636SOL     OW11576   3.107   1.976   0.417  0.1127 -0.0674  0.3483
  636SOL    HW111577   3.159   1.894   0.395 -0.0447 -0.4193  1.2728
  636SOL    HW211578   3.148   2.022   0.495  0.2379  0.7763 -0.2041
  637SOL     OW11579   2.567   3.000   2.176  0.1851 -0.0114 -0.3074
  637SOL    HW111580   2.663   3.015   2.200  0.7702 -1.0672 -1.9133
  637SOL    HW211581   2.520   3.088   2.170  0.6661  0.4290  1.9582
  638SOL     OW11582   4.075   0.799   2.559 -0.4104 -0.3579  0.2477
  638SOL    HW111583   4.065   0.855   2.642  0.8222 -1.6005  1.2681
  638SOL    HW211584   4.018   0.718   2.568 -1.3594  0.1896 -0.7564
  639SOL     OW11585   3.201   3.602   0.442  0.3630  0.6312 -0.3684
  639SOL    HW111586   3.140   3.570   0.370 -1.1127  0.6129  0.8459
  639SOL    HW211587   3.270   3.663   0.404 -0.5751  0.8589 -1.7417
  640SOL     OW11588   3.183   0.968   0.524  0.0454 -0.5043  0.5114
  640SOL    HW111589   3.123   1.013   0.458  0.0742 -0.9967  0.1373
  640SOL    HW211590   3.151   0.984   0.617 -0.7212 -0.8460  0.3077
  641SOL     OW11591   2.643   1.824   1.961 -0.5410  0.2510  0.2528
  641SOL    HW111592   2.554   1.779   1.961 -1.7574  2.5772  1.0052
  641SOL    HW211593   2.646   1.891   2.035  1.2084  1.4413 -0.8662
  642SOL     OW11594   2.886   3.167   2.493  0.4859 -0.5114  0.1325
  642SOL    HW111595   2.856   3.237   2.557  2.0954  0.4377 -0.1189
  642SOL    HW211596   2.891   3.079   2.540  2.2303  0.2769  1.5060
  643SOL     OW11597   3.107   5.214   0.935 -0.2940 -0.7531  0.3175
  643SOL    HW111598   3.184   5.268   0.970  0.2585  0.8556 -3.2583
  643SOL    HW211599   3.034   5.214   1.003  0.9778  1.7341  1.7599
  644SOL     OW11600   2.454   3.622   0.692 -0.3551  0.2710  0.1527
  644SOL    HW111601   2.456   3.548   0.624 -0.8718 -0.0422  0.4725
  644SOL    HW211602   2.391   3.597   0.766  1.0774  0.1072  1.3327
  645SOL     OW11603   2.563   2.021   2.382  0.4826 -0.1602  0.0079
  645SOL    HW111604   2.564   1.924   2.408  1.2697  0.0679  0.8580
  645SOL    HW211605   2.479   2.063   2.416  0.5220 -0.3612  0.3657
  646SOL     OW11606   4.640   3.184   1.207  0.2115 -0.0132  0.2537
  646SOL    HW111607   4.583   3.164   1.287 -1.5994  1.1425 -0.7247
  646SOL    HW211608   4.592   3.157   1.124  1.2409  0.6495 -0.5637
  647SOL     OW11609   3.239   2.057   0.710 -0.1489 -0.2989 -0.1614
  647SOL    HW111610   3.306   1.985   0.728 -0.3007 -0.6538 -0.9733
  647SOL    HW211611   3.260   2.137   0.766  2.0579  0.2601 -1.7261
  648SOL     OW11612   2.754   4.146   1.915 -0.6754  0.2798 -0.3863
  648SOL    HW111613   2.781   4.069   1.973 -0.1316  0.3065 -0.5977
  648SOL    HW211614   2.672   4.190   1.953 -2.2982 -1.7526 -1.4694
  649SOL     OW11615   2.764   1.909  -0.065  0.4132  1.3023  0.0141
  649SOL    HW111616   2.779   1.990  -0.121  1.5816 -0.5567 -2.4677
  649SOL    HW211617   2.853   1.875  -0.031 -0.1972  1.8855  2.2881
  650SOL     OW11618   2.531   3.401   1.681  0.3472  0.4001  0.1780
  650SOL    HW111619   2.586   3.485   1.677 -1.0908  1.4037  0.8694
  650SOL    HW211620   2.560   3.338   1.610  0.4898  2.0837 -1.2737
  651SOL     OW11621   3.723   4.933   0.230 -0.1683  0.2398  0.0472
  651SOL    HW111622   3.664   4.927   0.149 -0.6218  1.7651  0.2639
  651SOL    HW211623   3.819   4.936   0.200 -0.2590 -0.6671 -0.3649
  652SOL     OW11624   4.910   4.416   1.806  0.3953  0.4421  0.4820
  652SOL    HW111625   4.903   4.493   1.742  1.5693  1.5488  1.6692
  652SOL    HW211626   5.005   4.403   1.833  0.3762 -2.0723 -0.4597
  653SOL     OW11627   3.325   5.056  -0.029  0.0222  0.8085  0.0255
  653SOL    HW111628   3.241   5.008  -0.004  0.3206  0.4087  0.2595
  653SOL    HW211629   3.350   5.120   0.043  0.2509  0.4900  0.2284
  654SOL     OW11630   4.672   3.333   1.510 -0.2946  0.1256 -0.3517
  654SOL    HW111631   4.715   3.308   1.423 -2.5604 -1.3796 -1.0883
  654SOL    HW211632   4.630   3.252   1.551 -0.1639  1.0394  1.6268
  655SOL     OW11633   3.949   2.953   1.710  0.2161 -0.1867 -0.6891
  655SOL    HW111634   3.930   2.861   1.677  1.2545 -0.7442  0.2530
  655SOL    HW211635   3.999   3.004   1.639  2.0053 -1.2218 -0.2176
  656SOL     OW11636   4.209   3.494   2.115  0.1008  0.8720 -0.2652
  656SOL    HW111637   4.288   3.524   2.061  0.6681 -0.5434 -0.2476
  656SOL    HW211638   4.224   3.518   2.211  0.7626  0.1274 -0.1778
  657SOL     OW11639   2.989   2.891   1.278 -0.0560  0.2606  0.2359
  657SOL    HW111640   3.085   2.921   1.275  0.1718 -0.5115 -0.4711
  657SOL    HW211641   2.942   2.919   1.194 -0.3140  0.1999  0.3603
  658SOL     OW11642   2.501   1.372   0.885  0.6828 -0.4123 -0.3798
  658SOL    HW111643   2.452   1.418   0.811 -0.9111  1.9257  1.9897
  658SOL    HW211644   2.463   1.280   0.899 -3.1062  1.2445  1.2554
  659SOL     OW11645   3.515   2.446   2.035 -1.2828 -0.4109  0.1105
  659SOL    HW111646   3.521   2.502   1.953  1.2356 -0.3129  0.3461
  659SOL    HW211647   3.455   2.367   2.017  0.5278 -1.2791 -2.3485
  660SOL     OW11648   4.388   1.747   2.430  0.2183 -0.5354 -0.3068
  660SOL    HW111649   4.441   1.674   2.474 -0.2521 -0.7488 -0.0941
  660SOL    HW211650   4.330   1.792   2.498  0.1306 -0.2972 -0.5387
  661SOL     OW11651   4.476   3.880   2.189 -0.3169 -0.2371 -0.0932
  661SOL    HW111652   4.494   3.891   2.092  1.8831  0.1538  0.3509
  661SOL    HW211653   4.450   3.968   2.228 -1.0214 -0.3596 -0.2664
  662SOL     OW11654   4.638   4.574   0.816  0.1296 -0.1627 -0.4673
  662SOL    HW111655   4.696   4.545   0.740 -0.4771  0.8573 -1.3340
  662SOL    HW211656   4.667   4.528   0.900  0.7686 -1.3420 -1.3223
  663SOL     OW11657   4.277   3.736   1.722 -0.2833 -0.1933  0.2743
  663SOL    HW111658   4.327   3.787   1.652 -0.1661  0.2335  0.6672
  663SOL    HW211659   4.218   3.669   1.678  0.0997 -0.2117 -0.2194
  664SOL     OW11660   3.741   1.321   1.310 -0.3295  0.2212  0.5044
  664SOL    HW111661   3.712   1.249   1.247  0.4192 -1.3834  1.9500
  664SOL    HW211662   3.838   1.340   1.297 -0.3771  0.5128  0.5668
  665SOL     OW11663   3.843   4.758   2.204  0.0312  0.5746 -0.1805
  665SOL    HW111664   3.818   4.675   2.255  1.5382  0.3734  0.2300
  665SOL    HW211665   3.924   4.740   2.149  0.6819  1.9600  0.3293
  666SOL     OW11666   3.590   3.566  -0.139 -0.3605 -0.4030  0.2327
  666SOL    HW111667   3.596   3.602  -0.233 -2.4251 -0.3399  0.1109
  666SOL    HW211668   3.562   3.640  -0.078  2.4510 -0.0489  1.2048
  667SOL     OW11669   4.020   4.386   2.353 -0.3419 -0.5037  0.0388
  667SOL    HW111670   4.104   4.332   2.343  0.1420  0.1931  0.2905
  667SOL    HW211671   3.941   4.325   2.345  0.1988 -1.3551  0.9254
  668SOL     OW11672   2.524   2.027   0.845 -0.2657  0.1749  0.0242
  668SOL    HW111673   2.523   2.039   0.944  0.3245 -0.7699  0.1551
  668SOL    HW211674   2.576   1.944   0.822  0.3683  0.8739 -1.1278
  669SOL     OW11675   3.853   3.786   2.030 -0.1456  0.5746  0.1245
  669SOL    HW111676   3.899   3.855   1.974  1.0505  0.7165  1.2539
  669SOL    HW211677   3.758   3.778   2.002  0.2230  1.2455 -1.3599
  670SOL     OW11678   3.329   4.172   0.571  0.1128 -0.7545  0.0432
  670SOL    HW111679   3.380   4.170   0.485 -1.3566 -0.9370 -0.8441
  670SOL    HW211680   3.231   4.171   0.552 -0.2475  0.5630  1.6992
  671SOL     OW11681   3.595   2.274   1.070  0.8146  0.2782  0.3806
  671SOL    HW111682   3.601   2.186   1.022  0.3770  0.3630  0.1670
  671SOL    HW211683   3.603   2.349   1.004 -3.2732  0.4297 -0.1141
  672SOL     OW11684   3.322   0.852   2.515  0.4625  0.1092  0.2713
  672SOL    HW111685   3.385   0.846   2.438  0.4983 -0.0693  0.3140
  672SOL    HW211686   3.283   0.944   2.519  1.1209  0.3748  0.5629
  673SOL     OW11687   4.482   3.963   1.413 -0.4083  0.1913 -0.2163
  673SOL    HW111688   4.531   3.982   1.327 -0.6803  2.1019  0.0291
  673SOL    HW211689   4.392   4.006   1.410 -1.0908 -1.1587  0.3743
  674SOL     OW11690   3.985  10.399   0.643 -0.7129  0.2361 -0.1801
  674SOL    HW111691   4.020  10.485   0.607 -1.8920  1.6261  1.8420
  674SOL    HW211692   3.975  10.333   0.569  1.1973  1.4951 -1.5931
  675SOL     OW11693   4.034   2.722   0.957  0.5291  0.2866 -0.0271
  675SOL    HW111694   4.080   2.655   0.899  1.3581  0.4439  0.4354
  675SOL    HW211695   3.936   2.702   0.960  0.8643 -1.3200  0.6602
  676SOL     OW11696   2.310   2.432   2.597 -0.5361  0.4640 -0.3080
  676SOL    HW111697   2.403   2.412   2.628 -0.6269 -1.3452 -1.1180
  676SOL    HW211698   2.294   2.530   2.599  0.5406  0.6145  2.2337
  677SOL     OW11699   4.636   4.438   1.074 -0.2469 -0.2851  0.3971
  677SOL    HW111700   4.578   4.517   1.094 -0.7707 -1.0566  2.0250
  677SOL    HW211701   4.582   4.369   1.026 -0.3832 -0.5250  0.8855
  678SOL     OW11702   2.600   3.881   0.030  0.3171 -0.1513  0.4708
  678SOL    HW111703   2.697   3.877   0.053  0.9840  0.8174 -2.0551
  678SOL    HW211704   2.587   3.935  -0.052 -2.5599  1.1277  1.6976
  679SOL     OW11705   3.808   3.738   1.330 -0.4177  0.5771 -0.1342
  679SOL    HW111706   3.743   3.732   1.254  0.1608 -0.4187 -0.5586
  679SOL    HW211707   3.894   3.775   1.297 -0.3299  0.6268  0.1514
  680SOL     OW11708   2.533   1.452   1.325  0.0330 -0.3072 -0.5983
  680SOL    HW111709   2.434   1.445   1.310 -0.1582  0.0362  0.4857
  680SOL    HW211710   2.578   1.478   1.239 -0.6111 -2.3091 -1.5494
  681SOL     OW11711   3.826   4.155   1.850  0.3662  0.4820 -1.0088
  681SOL    HW111712   3.753   4.098   1.812 -0.7262  1.3634 -0.2546
  681SOL    HW211713   3.910   4.101   1.855 -0.6494 -1.0852 -0.2650
  682SOL     OW11714   4.404   2.986   0.236 -0.5903  0.4092  0.2535
  682SOL    HW111715   4.362   2.920   0.174  0.0837  1.1570 -1.0225
  682SOL    HW211716   4.446   3.060   0.183  1.2436  0.3259  1.5315
  683SOL     OW11717   4.146   4.033   0.037 -0.1829 -0.1604 -0.1124
  683SOL    HW111718   4.060   4.081   0.020 -0.2629 -0.7866 -1.5543
  683SOL    HW211719   4.203   4.086   0.099 -0.8182  1.1493 -0.6486
  684SOL     OW11720   3.674   1.343   2.030 -0.4840  0.2273  0.0808
  684SOL    HW111721   3.627   1.405   1.968 -0.6764  0.8213  0.8245
  684SOL    HW211722   3.612   1.314   2.102 -0.1128 -0.0796  0.2802
  685SOL     OW11723   3.320   1.354   1.997 -0.2492  0.1159  0.2499
  685SOL    HW111724   3.361   1.268   1.966 -0.8282 -0.8828  2.1352
  685SOL    HW211725   3.221   1.350   1.985 -0.2984  0.4320  0.5376
  686SOL     OW11726   3.603   5.016   2.377  0.0719  0.4690 -0.2012
  686SOL    HW111727   3.620   4.996   2.280 -2.0260  1.1825 -0.7392
  686SOL    HW211728   3.531   4.955   2.411  1.7266 -0.6733  1.2805
  687SOL     OW11729   3.430   1.910   0.856  0.1394  0.2071 -0.5123
  687SOL    HW111730   3.437   1.964   0.940 -0.3817 -0.0109 -0.3245
  687SOL    HW211731   3.360   1.840   0.868  0.3147 -0.0534 -1.0066
  688SOL     OW11732   3.760   2.404   0.728 -0.4407  0.8714  0.0571
  688SOL    HW111733   3.738   2.307   0.729  0.8160  0.5764  0.4418
  688SOL    HW211734   3.835   2.421   0.663  0.3073  1.3391  1.0163
  689SOL     OW11735   2.164   2.230   1.864 -0.4234 -0.6110 -0.2251
  689SOL    HW111736   2.231   2.302   1.849  0.6623 -1.9235 -1.8780
  689SOL    HW211737   2.084   2.267   1.912  1.1533  1.1240  1.0842
  690SOL     OW11738   4.307   4.554   0.228  0.2514 -0.2146  0.0487
  690SOL    HW111739   4.379   4.497   0.269  0.7164 -0.5657 -1.2296
  690SOL    HW211740   4.345   4.605   0.151 -0.4641  0.9073  0.4314
  691SOL     OW11741   4.455   4.306   0.944  0.1450  0.6647  0.0420
  691SOL    HW111742   4.381   4.361   0.906  1.1553  0.9782 -1.5458
  691SOL    HW211743   4.420   4.248   1.017 -1.5000  1.3660 -0.1781
  692SOL     OW11744   3.852   3.908   0.692  0.3425  0.7651  0.1539
  692SOL    HW111745   3.851   3.847   0.771 -1.6350  0.9565  0.2849
  692SOL    HW211746   3.947   3.937   0.675  1.3843 -2.5970 -0.1694
  693SOL     OW11747   3.536   3.607   2.153  0.5497  0.8512 -0.7975
  693SOL    HW111748   3.586   3.650   2.078  0.7568  0.4745 -0.8749
  693SOL    HW211749   3.600   3.566   2.217  0.3401  0.2178 -0.9842
  694SOL     OW11750   4.020   3.893   1.170  0.1881 -0.3293  0.1120
  694SOL    HW111751   4.023   3.972   1.110  0.7019 -0.3127  0.1596
  694SOL    HW211752   4.108   3.882   1.217 -0.4671  0.1487  1.4940
  695SOL     OW11753   2.640   1.508   1.077  0.6416  0.4982 -0.6168
  695SOL    HW111754   2.573   1.475   1.010  1.3278  0.3027 -1.2212
  695SOL    HW211755   2.722   1.452   1.072 -0.0419 -0.7861  1.8022
  696SOL     OW11756   3.216   4.438   1.228  0.4066  0.2210  0.2547
  696SOL    HW111757   3.192   4.375   1.302  0.5011  0.8899  0.8601
  696SOL    HW211758   3.166   4.413   1.145 -1.8287  1.1596  1.2997
  697SOL     OW11759   2.562   0.960   2.152  0.2598  0.2357 -0.6445
  697SOL    HW111760   2.570   1.058   2.168 -0.8876 -0.0814  2.2160
  697SOL    HW211761   2.467   0.937   2.130 -0.0628 -0.5676  1.4890
  698SOL     OW11762   3.748   4.994   0.502 -0.3580  0.0087 -0.0129
  698SOL    HW111763   3.795   5.080   0.522  0.2460 -0.5920  1.2268
  698SOL    HW211764   3.746   4.979   0.403  1.0650  0.6068 -0.1469
  699SOL     OW11765   2.890   2.233   1.261 -0.4962  0.3980  0.1167
  699SOL    HW111766   2.822   2.275   1.320 -0.1573 -1.2599  1.7307
  699SOL    HW211767   2.871   2.258   1.166 -2.2605  1.4311  0.7102
  700SOL     OW11768   3.304   1.655   0.623  0.2366  0.0618 -0.2288
  700SOL    HW111769   3.255   1.665   0.710 -0.0663  0.1498 -0.4085
  700SOL    HW211770   3.402   1.647   0.641  0.5846  3.7100 -0.0476
  701SOL     OW11771   2.446   4.115   0.745 -0.3685  0.2850 -0.3956
  701SOL    HW111772   2.347   4.129   0.741 -0.5295 -0.6668  0.0995
  701SOL    HW211773   2.468   4.022   0.715  0.1343 -0.3645  1.8521
  702SOL     OW11774   4.842   4.214   0.676 -0.1121 -0.3222 -0.3869
  702SOL    HW111775   4.897   4.135   0.650  0.2178 -0.6788  1.3689
  702SOL    HW211776   4.756   4.183   0.717  0.0267  0.2311  0.3317
  703SOL     OW11777   4.761   4.902   0.379 -0.3222  0.2861 -0.2334
  703SOL    HW111778   4.836   4.886   0.443  1.6120  0.8371 -2.2995
  703SOL    HW211779   4.678   4.927   0.430  0.2574 -2.4875  2.2328
  704SOL     OW11780   3.070   4.845   1.647 -0.0965 -0.0171  0.3559
  704SOL    HW111781   2.981   4.822   1.684  0.4291 -1.0839  0.9825
  704SOL    HW211782   3.112   4.918   1.702  0.3851 -1.1103  1.4686
  705SOL     OW11783   4.267   4.211   0.539  0.6108  0.1814  0.0541
  705SOL    HW111784   4.303   4.304   0.535  0.8937  0.0102 -2.7970
  705SOL    HW211785   4.172   4.213   0.571  0.2851  1.5686 -0.9465
  706SOL     OW11786   3.482   5.460  -0.015 -0.3233  0.2206  0.3645
  706SOL    HW111787   3.574   5.421  -0.005 -0.2168  0.7916  1.7271
  706SOL    HW211788   3.464   5.479  -0.112  0.9677  0.0371  0.0806
  707SOL     OW11789   2.430   2.644   1.942 -0.0544 -0.0616 -0.6596
  707SOL    HW111790   2.404   2.556   1.902 -1.0066 -0.5434  1.0006
  707SOL    HW211791   2.355   2.708   1.933 -1.1719 -0.8614  2.3555
  708SOL     OW11792   3.055   5.527   1.531  0.1956  0.1663  0.0825
  708SOL    HW111793   3.084   5.498   1.440 -0.7252 -0.0437 -0.1550
  708SOL    HW211794   3.101   5.612   1.556  1.6893 -0.6443  0.1026
  709SOL     OW11795   3.466   4.093   0.356 -0.0722  0.6688 -0.2070
  709SOL    HW111796   3.449   4.047   0.268 -2.8104 -1.9307  1.5760
  709SOL    HW211797   3.564   4.088   0.377  0.1565 -1.7101 -1.5655
  710SOL     OW11798   4.007   3.680  -0.028 -0.3252 -0.1530 -0.0272
  710SOL    HW111799   4.028   3.593   0.016 -1.7618 -1.0118 -1.0405
  710SOL    HW211800   4.093   3.725  -0.054  0.4175 -1.3772  0.2561
  711SOL     OW11801   3.608  10.068   2.214  0.1231 -0.2065 -0.3253
  711SOL    HW111802   3.559   9.987   2.246 -0.9901  1.0484  1.2531
  711SOL    HW211803   3.542  10.139   2.188  1.0562  1.5361  1.8728
  712SOL     OW11804   2.786   3.682   0.146  0.0070  0.2277 -0.0677
  712SOL    HW111805   2.870   3.703   0.095 -0.3391 -1.1473 -1.2376
  712SOL    HW211806   2.808   3.625   0.225  0.4254  1.5649  0.7899
  713SOL     OW11807   2.775   3.630   2.225 -0.2229  0.5184 -0.1565
  713SOL    HW111808   2.794   3.597   2.317 -0.8091  2.7441  0.7842
  713SOL    HW211809   2.860   3.642   2.175  0.0320 -1.9631 -0.3971
  714SOL     OW11810   2.981   4.288   2.297  0.3342  0.2239 -0.5485
  714SOL    HW111811   2.934   4.376   2.287 -1.1610 -0.5176 -0.1192
  714SOL    HW211812   2.974   4.236   2.212 -1.1631 -0.6226  0.0732
  715SOL     OW11813   2.894   5.317   0.110 -0.0424  0.3455 -0.4653
  715SOL    HW111814   2.918   5.358   0.198 -0.6454 -0.6179  0.1529
  715SOL    HW211815   2.976   5.279   0.067  0.1841  0.4784 -0.1529
  716SOL     OW11816   3.355   2.133   0.194  0.2645 -0.1778  0.4003
  716SOL    HW111817   3.277   2.139   0.132 -0.1828 -1.7446  0.7903
  716SOL    HW211818   3.337   2.188   0.276 -0.5076 -0.6763  0.5672
  717SOL     OW11819   2.474   3.181  -0.164 -0.5463  0.2239  0.0407
  717SOL    HW111820   2.392   3.238  -0.161 -0.1743  0.9115 -1.8073
  717SOL    HW211821   2.550   3.234  -0.203  0.5029 -0.7293  0.7470
  718SOL     OW11822   2.728   4.805   1.411  0.1567 -0.2488  0.1138
  718SOL    HW111823   2.816   4.812   1.457  0.4160  0.0526 -0.4265
  718SOL    HW211824   2.720   4.716   1.367 -0.1432 -0.5856  0.8420
  719SOL     OW11825   3.082   3.020   0.941 -0.0319 -0.2576 -0.3407
  719SOL    HW111826   3.121   2.932   0.966  1.1794  0.4306  0.2480
  719SOL    HW211827   3.155   3.084   0.921 -0.8857  0.7942 -0.1566
  720SOL     OW11828   3.120   0.886   2.232  0.1679 -0.3165 -0.2004
  720SOL    HW111829   3.074   0.922   2.313  0.4602  2.0910 -1.0577
  720SOL    HW211830   3.070   0.806   2.197 -1.4118  0.1919  0.8545
  721SOL     OW11831   3.701   2.830   2.509  0.1853 -0.2625 -0.7245
  721SOL    HW111832   3.728   2.822   2.605 -0.0740  1.8711 -0.4314
  721SOL    HW211833   3.778   2.865   2.455 -0.3736  0.8025 -0.8494
  722SOL     OW11834   3.921   1.249   1.015 -0.3146 -0.5669 -0.1464
  722SOL    HW111835   3.903   1.339   0.974 -1.9927 -1.2794 -0.9744
  722SOL    HW211836   3.993   1.259   1.084  1.4126  0.9454 -2.0650
  723SOL     OW11837   2.956   2.129   0.222  0.2303 -0.2633 -0.0733
  723SOL    HW111838   2.955   2.090   0.129  0.5841 -2.4593  0.8226
  723SOL    HW211839   3.008   2.069   0.283 -1.4922  0.2298  1.9449
  724SOL     OW11840   2.767   4.889   0.574  0.3324  0.2134  0.3370
  724SOL    HW111841   2.844   4.828   0.555 -1.5698 -2.0844 -0.2515
  724SOL    HW211842   2.705   4.845   0.639 -2.5154  0.2667 -2.2237
  725SOL     OW11843   3.373   1.867   2.100  0.0458  0.1165 -0.1593
  725SOL    HW111844   3.352   1.780   2.055 -1.3405  0.1756  0.3237
  725SOL    HW211845   3.383   1.852   2.198  0.9455  0.3248 -0.2187
  726SOL     OW11846   2.754   5.170   1.637 -0.2306  0.2333  0.2484
  726SOL    HW111847   2.738   5.093   1.698 -0.5952  0.7197  0.7725
  726SOL    HW211848   2.852   5.193   1.637 -0.0759 -0.4264 -0.1512
  727SOL     OW11849   2.363   3.700   1.731 -0.0645  0.5672  0.2482
  727SOL    HW111850   2.333   3.758   1.655  0.1692 -0.6438 -0.7745
  727SOL    HW211851   2.446   3.739   1.771  0.7381  0.3258 -1.1648
  728SOL     OW11852   5.053   1.822   0.412  0.1612  0.1489 -0.3348
  728SOL    HW111853   4.965   1.811   0.366 -0.6948  1.4701  0.9745
  728SOL    HW211854   5.127   1.801   0.347 -1.0945 -1.0605 -1.4076
  729SOL     OW11855   4.456   2.398   0.674 -0.0623  0.2744  0.3021
  729SOL    HW111856   4.481   2.387   0.578  0.6874 -1.9538  0.7045
  729SOL    HW211857   4.429   2.492   0.692 -0.1252  0.7193 -2.0692
  730SOL     OW11858   2.332   2.055   2.020  0.2631 -0.2445 -0.3238
  730SOL    HW111859   2.316   1.957   2.013  0.8143 -0.3430 -0.2534
  730SOL    HW211860   2.257   2.105   1.977  1.0065 -0.7362 -2.2613
  731SOL     OW11861   3.097   2.873   0.176  0.2496  0.0912  0.1081
  731SOL    HW111862   3.131   2.857   0.083  2.4568 -0.7346  1.0218
  731SOL    HW211863   3.145   2.951   0.216  0.9183 -0.9340  1.3349
  732SOL     OW11864   4.846   1.949   0.571  0.4230  0.0975  0.8954
  732SOL    HW111865   4.824   1.927   0.666  0.7211  1.2866  1.2378
  732SOL    HW211866   4.942   1.928   0.553 -0.3333 -2.9072  0.0304
  733SOL     OW11867   3.275   4.329   1.984  0.1762 -0.4731  0.2566
  733SOL    HW111868   3.286   4.364   2.077  0.8754  0.2656 -0.0955
  733SOL    HW211869   3.327   4.245   1.974  0.3419 -0.3931  0.4454
  734SOL     OW11870   2.862   1.493   0.038 -0.4549  0.3524  0.1725
  734SOL    HW111871   2.939   1.548   0.071  1.9549 -3.0682  0.4192
  734SOL    HW211872   2.865   1.490  -0.062  0.3628 -0.6297  0.2209
  735SOL     OW11873   2.590   0.933   1.336 -0.0926 -0.0319  0.1714
  735SOL    HW111874   2.626   0.844   1.309  0.1862  0.6323 -1.7049
  735SOL    HW211875   2.510   0.921   1.394  0.5432 -1.4961  0.7708
  736SOL     OW11876   2.125   3.094  -0.121 -0.1470 -0.5405 -0.0460
  736SOL    HW111877   2.147   3.032  -0.196 -2.2933 -0.4421 -0.7954
  736SOL    HW211878   2.207   3.112  -0.067  1.1842 -1.4695 -1.7266
  737SOL     OW11879   3.898  10.345   0.375  0.4535 -0.1352 -0.3745
  737SOL    HW111880   3.812  10.324   0.328 -0.1633 -0.4313  0.8714
  737SOL    HW211881   3.970  10.360   0.307 -0.4528 -0.4280 -1.4159
  738SOL     OW11882   4.276   3.252  -0.163 -0.4192  0.3263  0.1765
  738SOL    HW111883   4.178   3.257  -0.143 -0.2698 -0.0990  1.0396
  738SOL    HW211884   4.293   3.176  -0.226 -0.6871  0.6308 -0.2657
  739SOL     OW11885   3.842   3.869  -0.162 -0.2016  0.3240 -0.3897
  739SOL    HW111886   3.879   3.867  -0.254 -0.8094 -1.6603 -0.6033
  739SOL    HW211887   3.898   3.812  -0.102 -0.3121  0.9055  0.2744
  740SOL     OW11888   2.824   3.034   2.215 -0.4229  0.3597  0.2735
  740SOL    HW111889   2.865   2.943   2.209  0.1651  0.6308  0.1733
  740SOL    HW211890   2.837   3.071   2.307  4.1565  2.5933 -1.1606
  741SOL     OW11891   3.921   4.356   0.508  0.0651  0.2696 -0.2014
  741SOL    HW111892   3.835   4.316   0.538 -0.0098  1.7756  1.6808
  741SOL    HW211893   3.925   4.357   0.408 -2.1389  0.2597 -0.3006
  742SOL     OW11894   3.253   3.711   1.491  0.2460  0.0015  0.6613
  742SOL    HW111895   3.268   3.714   1.392  0.5366  1.2374  0.7387
  742SOL    HW211896   3.290   3.626   1.527  0.8995 -0.0787 -0.1699
  743SOL     OW11897   2.661   0.700   1.228  0.3643 -0.0636  1.1177
  743SOL    HW111898   2.637   0.677   1.134 -3.1289  0.3474  1.8255
  743SOL    HW211899   2.731   0.637   1.261  0.5203 -1.1787 -1.2176
  744SOL     OW11900   4.570   3.172   0.043  0.2559  0.0061  0.2238
  744SOL    HW111901   4.520   3.242   0.094  0.8418 -0.4351  1.4040
  744SOL    HW211902   4.554   3.186  -0.055  0.3844  1.8105  0.4351
  745SOL     OW11903   3.638   9.515   1.400  0.0745  0.2013  0.4246
  745SOL    HW111904   3.694   9.463   1.465  1.2290  1.6810  0.6475
  745SOL    HW211905   3.652   9.480   1.308  2.0688  1.0953  0.3542
  746SOL     OW11906   2.947   5.043   0.004  0.0592 -0.1812 -0.0706
  746SOL    HW111907   2.862   5.091   0.026  1.3219  2.3873 -0.5298
  746SOL    HW211908   2.997   5.021   0.088  0.7639  1.8169  0.0552
  747SOL     OW11909   3.614   3.740   1.916 -0.3763  0.5346 -0.1989
  747SOL    HW111910   3.575   3.817   1.866 -3.3212 -0.4887  0.4095
  747SOL    HW211911   3.645   3.670   1.852  1.4939  1.8340 -0.7232
  748SOL     OW11912   4.194   3.579   2.377  0.9938  0.2177  0.1089
  748SOL    HW111913   4.253   3.527   2.438 -0.7246 -1.0382  0.7280
  748SOL    HW211914   4.100   3.576   2.411  0.6076  2.4415 -0.6881
  749SOL     OW11915   2.888   2.453   2.560  0.2817 -0.2783  0.5135
  749SOL    HW111916   2.915   2.530   2.502 -0.6400  0.7782  1.4490
  749SOL    HW211917   2.793   2.429   2.542  0.2641 -0.5399  0.9395
  750SOL     OW11918   3.585   0.674   1.786 -0.4935 -0.3374  0.0357
  750SOL    HW111919   3.538   0.594   1.823 -0.9135  0.3670  1.0249
  750SOL    HW211920   3.595   0.663   1.687 -1.0809 -1.3377  0.0750
  751SOL     OW11921   4.694   4.235   1.249 -0.0655 -0.3813  0.1931
  751SOL    HW111922   4.717   4.301   1.178  1.3267  0.9137  1.8060
  751SOL    HW211923   4.694   4.143   1.210  0.6133  0.3150 -1.4895
  752SOL     OW11924   4.875   3.117   1.364  0.6852  0.0002 -0.4003
  752SOL    HW111925   4.912   3.028   1.336  1.6993 -0.2294  1.6372
  752SOL    HW211926   4.809   3.148   1.295  0.7355 -2.0580 -1.4140
  753SOL     OW11927   3.527   2.085   2.519  0.3447 -0.0570 -0.5609
  753SOL    HW111928   3.543   2.100   2.616  2.7516 -1.3166 -0.7164
  753SOL    HW211929   3.544   2.171   2.469  0.7359  0.1736 -0.0385
  754SOL     OW11930   2.383   1.504   0.656 -0.7112 -0.0582 -0.4959
  754SOL    HW111931   2.312   1.507   0.725  0.2939  0.0126  0.5443
  754SOL    HW211932   2.367   1.577   0.589 -3.1015 -1.7159 -1.7834
  755SOL     OW11933   3.032   3.903   0.680  0.1410 -0.3135  0.6001
  755SOL    HW111934   3.014   3.942   0.770 -2.0509  0.3115 -0.0944
  755SOL    HW211935   3.085   3.968   0.625 -1.3589  0.6985  0.3136
  756SOL     OW11936   3.297   3.238   0.916  0.4617  0.6006 -0.1848
  756SOL    HW111937   3.245   3.293   0.851  0.9245 -1.3931 -2.2874
  756SOL    HW211938   3.389   3.223   0.881 -0.0649 -2.6519 -0.3407
  757SOL     OW11939   3.433   0.850   1.158 -0.1185 -0.3872  0.8452
  757SOL    HW111940   3.394   0.929   1.204  1.6138  0.7843  0.3609
  757SOL    HW211941   3.470   0.878   1.069  0.9344 -1.6306  0.8771
  758SOL     OW11942   3.853   0.982   1.804 -0.3756  0.3455  0.1527
  758SOL    HW111943   3.786   0.929   1.752  0.5901 -0.5691 -0.1780
  758SOL    HW211944   3.835   1.079   1.792 -2.0094  0.1120  0.5541
  759SOL     OW11945   3.867   4.581   0.229 -0.5109 -0.5172 -0.0945
  759SOL    HW111946   3.932   4.647   0.269 -0.3588 -0.9342  0.3497
  759SOL    HW211947   3.775   4.603   0.260 -0.5570 -0.0550 -0.5537
  760SOL     OW11948   3.248   1.532   1.318  0.3521 -0.1767 -0.7088
  760SOL    HW111949   3.212   1.465   1.253  1.8630 -2.0418  0.3376
  760SOL    HW211950   3.338   1.502   1.351 -0.1865  0.9526  1.8971
  761SOL     OW11951   3.071  10.422   1.094 -0.3817  0.0681 -0.3806
  761SOL    HW111952   3.155  10.431   1.148 -0.5550  0.7212 -0.2138
  761SOL    HW211953   3.082  10.469   1.007  0.0486 -1.3510 -1.1051
  762SOL     OW11954   2.600   3.828   1.825  0.2787  0.0009 -0.9524
  762SOL    HW111955   2.581   3.912   1.775 -0.6821  1.2146  1.3832
  762SOL    HW211956   2.662   3.847   1.902 -1.3140 -1.0583  0.6426
  763SOL     OW11957   2.712   4.573   1.239  0.4223  0.2621 -0.2666
  763SOL    HW111958   2.807   4.577   1.207  0.4426  2.0043 -0.0491
  763SOL    HW211959   2.652   4.609   1.168 -0.0064 -0.1326 -0.1079
  764SOL     OW11960   3.034   2.624   0.228  0.1825 -0.2746  0.4810
  764SOL    HW111961   3.072   2.715   0.213  1.5013 -0.7777  0.6817
  764SOL    HW211962   3.027   2.576   0.140  0.2950 -0.2820  0.4755
  765SOL     OW11963   3.120   3.586   2.516 -0.0053 -0.1983  0.3110
  765SOL    HW111964   3.177   3.660   2.481 -1.0632  0.0406 -0.9299
  765SOL    HW211965   3.151   3.561   2.608  2.2059 -0.1988 -0.4082
  766SOL     OW11966   2.443   1.585   2.404 -0.3273 -0.5033 -0.1528
  766SOL    HW111967   2.503   1.665   2.399  1.0956 -1.4380  1.2525
  766SOL    HW211968   2.381   1.595   2.482  1.1238 -1.5811  1.1744
  767SOL     OW11969   3.929   3.567   1.493  0.1780  0.3409 -0.1673
  767SOL    HW111970   3.891   3.611   1.412  1.2508 -0.6036 -1.1955
  767SOL    HW211971   4.007   3.510   1.467  0.8055  0.3674  1.5844
  768SOL     OW11972   3.083   1.256   2.232  0.2347 -0.1129  0.0732
  768SOL    HW111973   3.039   1.181   2.281  1.1038 -0.1930  0.7655
  768SOL    HW211974   3.072   1.243   2.134 -0.5361 -0.5780  0.2156
  769SOL     OW11975   2.746   2.497   1.149 -0.1550  0.4664 -0.1933
  769SOL    HW111976   2.690   2.577   1.130 -1.6823 -0.4104  0.5675
  769SOL    HW211977   2.741   2.434   1.071 -1.1320 -0.1183  0.3350
  770SOL     OW11978   3.625   5.448   0.969  0.1376 -0.4181 -0.0920
  770SOL    HW111979   3.657   5.360   0.934 -0.2155 -0.7274  0.3637
  770SOL    HW211980   3.646   5.520   0.902  4.2444 -0.1708  1.3714
  771SOL     OW11981   4.038   4.080   0.401  0.1493  0.3928 -0.2737
  771SOL    HW111982   4.059   3.991   0.360 -1.3603  0.2343 -0.7408
  771SOL    HW211983   4.085   4.152   0.350 -1.5917  0.1819 -2.2838
  772SOL     OW11984   2.389   1.537   1.615  0.1571  0.0580  0.3639
  772SOL    HW111985   2.451   1.526   1.537 -2.0726 -1.1268 -1.2876
  772SOL    HW211986   2.367   1.634   1.627  3.4114  0.6982  1.9050
  773SOL     OW11987   4.418   3.609   1.909 -0.1921 -0.2836 -0.0741
  773SOL    HW111988   4.367   3.653   1.835  0.9862 -0.0177 -0.7427
  773SOL    HW211989   4.469   3.678   1.960 -1.4919 -0.3873  1.3957
  774SOL     OW11990   4.095   1.615  -0.095 -0.2023  0.1300  0.1980
  774SOL    HW111991   4.181   1.662  -0.077  0.2659  0.0203 -1.6200
  774SOL    HW211992   4.034   1.676  -0.146 -0.3100 -0.5918 -0.5410
  775SOL     OW11993   3.290   2.669   2.038 -0.1195 -0.0431  0.1210
  775SOL    HW111994   3.253   2.662   1.946 -0.0431  1.9361 -0.0689
  775SOL    HW211995   3.334   2.582   2.062 -2.8061 -1.6756 -0.5122
  776SOL     OW11996   3.555   4.711   0.631  0.0168 -0.4640  0.4749
  776SOL    HW111997   3.622   4.729   0.560  0.8266 -2.1484  0.7961
  776SOL    HW211998   3.595   4.654   0.702 -1.6326 -1.1820  0.8645
  777SOL     OW11999   2.777   4.998   1.204  0.0438 -0.4569 -0.7769
  777SOL    HW112000   2.748   4.942   1.281  1.4721  0.1584  0.2241
  777SOL    HW212001   2.715   4.983   1.127 -1.1196 -1.4249  0.3284
  778SOL     OW12002   3.137   3.949   1.591  0.6158  0.9057  0.0628
  778SOL    HW112003   3.065   3.925   1.656  2.1697  1.6123  2.1026
  778SOL    HW212004   3.181   3.866   1.557 -0.0298  0.5451  0.1153
  779SOL     OW12005   4.171   3.197   2.182 -0.2266 -0.1399 -0.2106
  779SOL    HW112006   4.102   3.166   2.116 -0.8504  0.1455  0.3035
  779SOL    HW212007   4.207   3.285   2.152  0.6322 -0.7463 -0.9994
  780SOL     OW12008   2.406   2.572   0.414  0.3704  0.1907 -0.4883
  780SOL    HW112009   2.310   2.596   0.401  0.0258 -0.4516  0.7892
  780SOL    HW212010   2.461   2.612   0.340 -0.6293  2.0055 -0.2747
  781SOL     OW12011   3.804   2.554  -0.140 -0.1129  0.3445 -0.0574
  781SOL    HW112012   3.828   2.643  -0.102 -0.0882  0.4431 -0.3034
  781SOL    HW212013   3.884   2.515  -0.187 -0.1345  0.2091  0.0161
  782SOL     OW12014   2.767   2.279   0.054  0.5174 -0.2860  0.1707
  782SOL    HW112015   2.680   2.231   0.067  0.8360 -1.4131 -1.7202
  782SOL    HW212016   2.818   2.279   0.140 -0.7271 -0.8898  0.9179
  783SOL     OW12017   2.651   5.224   0.092 -0.1837  0.0007  0.2269
  783SOL    HW112018   2.573   5.287   0.095 -1.2063 -1.2603  0.7625
  783SOL    HW212019   2.735   5.274   0.113 -0.9712  1.1986  0.5842
  784SOL     OW12020   3.349   1.122   1.857 -0.0027  0.4791 -0.4256
  784SOL    HW112021   3.407   1.041   1.863 -2.2142 -1.1641 -1.0367
  784SOL    HW212022   3.349   1.156   1.763  2.2863  2.2753  0.1519
  785SOL     OW12023   3.207   3.072   1.890 -0.2535  0.3960 -0.5984
  785SOL    HW112024   3.190   2.998   1.824 -0.7744  1.5880 -1.8146
  785SOL    HW212025   3.120   3.104   1.927  0.0422 -0.3117  0.7319
  786SOL     OW12026   3.313   5.013   0.944 -0.1863 -0.0329  0.0836
  786SOL    HW112027   3.381   5.049   1.008 -0.8772  1.0475  0.2155
  786SOL    HW212028   3.231   5.070   0.946 -1.4093 -1.7789  0.4877
  787SOL     OW12029   2.896   2.792   2.145 -0.0024  0.0796  0.5709
  787SOL    HW112030   2.824   2.823   2.083  2.6534  0.9068 -2.2468
  787SOL    HW212031   2.928   2.702   2.117  1.8791  0.8683  0.0860
  788SOL     OW12032   2.792   0.802   0.475 -0.0418  0.2666 -0.0379
  788SOL    HW112033   2.730   0.790   0.552  0.4823  0.6272  0.4395
  788SOL    HW212034   2.885   0.777   0.502  0.2815  1.1396 -0.3177
  789SOL     OW12035   4.179   2.910   1.272  0.0562 -0.6108 -0.0551
  789SOL    HW112036   4.152   2.902   1.176  1.1958  0.2491 -0.4518
  789SOL    HW212037   4.271   2.873   1.284 -0.5571 -1.8779  0.9617
  790SOL     OW12038   2.738   3.304  -0.073 -0.4063 -0.0246  0.3032
  790SOL    HW112039   2.741   3.278   0.024 -0.3450 -1.2951 -0.0359
  790SOL    HW212040   2.683   3.387  -0.083 -0.6061 -0.0131  1.3940
  791SOL     OW12041   3.948   1.835   1.003 -0.3137 -0.4206 -0.1451
  791SOL    HW112042   3.988   1.775   1.073 -0.5730 -1.5760 -0.9701
  791SOL    HW212043   4.021   1.885   0.957  0.0939 -1.4593 -0.6666
  792SOL     OW12044   3.542   1.444  -0.040  0.0950  0.8189  0.1553
  792SOL    HW112045   3.472   1.474  -0.106 -0.0482 -0.2410 -0.1917
  792SOL    HW212046   3.628   1.427  -0.089  0.0843  0.3670  0.2890
  793SOL     OW12047   4.522   4.369   0.330  0.2172  0.2061  0.0153
  793SOL    HW112048   4.531   4.388   0.428  0.3672  0.7682 -0.1092
  793SOL    HW212049   4.603   4.402   0.282  0.1201 -0.0264 -0.3089
  794SOL     OW12050   1.916   3.364   1.973  0.5637  0.2631 -0.0270
  794SOL    HW112051   1.978   3.325   1.904 -1.0480  1.1335 -2.0302
  794SOL    HW212052   1.922   3.464   1.969 -1.0733  0.3496 -0.3432
  795SOL     OW12053   3.760  10.626   1.988 -0.8192 -0.0105  0.2947
  795SOL    HW112054   3.689  10.648   1.920 -0.8830  0.4792  0.5193
  795SOL    HW212055   3.798  10.710   2.024 -0.5589 -0.2763  0.6385
  796SOL     OW12056   2.500   4.439   1.359  0.0679 -0.1239  0.1704
  796SOL    HW112057   2.585   4.487   1.339 -1.4118  2.4112 -0.2678
  796SOL    HW212058   2.494   4.356   1.304  1.4640  0.5710 -1.0551
  797SOL     OW12059   2.932   2.958   0.412 -0.4052  0.4256 -0.6023
  797SOL    HW112060   2.969   3.037   0.459 -1.3804 -0.6122  1.9939
  797SOL    HW212061   2.999   2.922   0.347  1.3213  1.3225  0.6751
  798SOL     OW12062   3.721   9.592   0.443 -0.2983 -0.4953  0.1057
  798SOL    HW112063   3.697   9.504   0.402 -1.5723  0.1633 -0.6206
  798SOL    HW212064   3.746   9.656   0.370 -0.0194 -0.0703  0.5747
  799SOL     OW12065   4.323   3.816   2.394  0.1881 -0.3063 -0.3298
  799SOL    HW112066   4.387   3.823   2.318 -0.2553 -0.3536 -0.7120
  799SOL    HW212067   4.265   3.735   2.381 -0.4715  0.1768 -0.3867
  800SOL     OW12068   4.135   1.741   1.692 -0.1868 -0.0632  0.1690
  800SOL    HW112069   4.124   1.705   1.785  0.4104  1.3575  0.8068
  800SOL    HW212070   4.119   1.839   1.692 -1.4650 -0.2629 -1.4961
  801SOL     OW12071   2.332   3.655  -0.050  0.2765  0.0460 -0.1111
  801SOL    HW112072   2.308   3.751  -0.042  2.2414  0.5689 -0.2774
  801SOL    HW212073   2.275   3.601   0.012 -0.0777  1.4268  0.7728
  802SOL     OW12074   3.945   3.709   0.391  0.0753 -0.2588 -0.3873
  802SOL    HW112075   4.032   3.752   0.417 -1.1707  3.0815 -1.4333
  802SOL    HW212076   3.937   3.710   0.291 -1.0227 -0.8612 -0.3049
  803SOL     OW12077   4.054   4.550   0.635  0.2071 -0.2684  0.2623
  803SOL    HW112078   4.010   4.482   0.576  0.6438  0.4439 -0.8935
  803SOL    HW212079   4.010   4.638   0.621  0.5129 -0.0348  0.7864
  804SOL     OW12080   2.204   3.189   1.271 -0.7462 -0.3861  0.3456
  804SOL    HW112081   2.215   3.263   1.338 -1.3817 -0.6544  0.7489
  804SOL    HW212082   2.107   3.175   1.253 -0.5184  0.9984 -2.1115
  805SOL     OW12083   4.947   3.119   1.634  0.1801 -0.2215  0.3246
  805SOL    HW112084   4.914   3.134   1.541  1.3621  0.2982 -0.0238
  805SOL    HW212085   4.957   3.207   1.680  1.2342 -0.3557  0.3642
  806SOL     OW12086   4.302   3.887   1.018 -0.8489 -0.5057 -0.4500
  806SOL    HW112087   4.381   3.841   0.977 -0.7404  0.3513 -1.2256
  806SOL    HW212088   4.264   3.830   1.091  2.3324  0.3909  2.0245
  807SOL     OW12089   2.691   3.308   0.826 -0.0708 -0.1524 -0.4965
  807SOL    HW112090   2.638   3.280   0.746  1.3378 -0.7106 -1.2653
  807SOL    HW212091   2.788   3.316   0.800  0.6088 -1.6243  1.4515
  808SOL     OW12092   3.032   2.453   0.968 -0.3912  0.2835  0.4795
  808SOL    HW112093   3.080   2.486   1.049  1.6987 -0.4397 -0.4220
  808SOL    HW212094   3.006   2.357   0.981 -1.6413  0.6880  0.9845
  809SOL     OW12095   3.124   3.828   2.137  0.3528 -0.3493 -0.5640
  809SOL    HW112096   3.104   3.735   2.169 -1.7007  0.0392 -0.6146
  809SOL    HW212097   3.091   3.838   2.043 -0.7247  0.8210 -0.0798
  810SOL     OW12098   3.524   0.807   2.351  0.1260 -0.2440 -0.0961
  810SOL    HW112099   3.603   0.799   2.412  0.7726 -2.0791 -1.1216
  810SOL    HW212100   3.541   0.879   2.284  0.1552  0.5853  0.7880
  811SOL     OW12101   3.621   0.717   1.327 -0.1569  0.7940 -0.0570
  811SOL    HW112102   3.703   0.774   1.336  0.9223 -0.8922  1.0845
  811SOL    HW212103   3.553   0.765   1.273  1.0589  2.8085  0.1528
  812SOL     OW12104   4.343   2.135   2.282  0.3124  0.0914  0.1673
  812SOL    HW112105   4.346   2.038   2.255  2.2880  0.4245 -0.8974
  812SOL    HW212106   4.400   2.148   2.363 -0.5978  0.2345  0.7928
  813SOL     OW12107   2.140   3.026   2.114 -0.1071 -0.4408  0.7648
  813SOL    HW112108   2.210   3.094   2.132  0.0781 -0.5366  0.4140
  813SOL    HW212109   2.051   3.060   2.145  0.0587 -0.2315  1.0081
  814SOL     OW12110   2.999   2.662   2.393  0.0013  0.3368  0.4724
  814SOL    HW112111   3.098   2.663   2.410  0.2753  1.2937 -1.0470
  814SOL    HW212112   2.981   2.614   2.307 -0.8100  0.5263  0.5384
  815SOL     OW12113   2.794   0.972   1.005  0.4261 -0.1929  0.8377
  815SOL    HW112114   2.746   1.016   0.928  2.2936  0.3801 -0.0453
  815SOL    HW212115   2.734   0.969   1.085 -0.8301  1.1097 -0.0319
  816SOL     OW12116   4.237   3.622   1.107  0.1877  0.1657  0.6464
  816SOL    HW112117   4.310   3.582   1.052 -0.9191  0.8727 -1.4302
  816SOL    HW212118   4.149   3.587   1.074 -0.6325  2.3051  0.4871
  817SOL     OW12119   3.734   5.256   2.437 -0.3180 -0.1037  0.0022
  817SOL    HW112120   3.687   5.169   2.424 -0.0539  0.0966 -2.6209
  817SOL    HW212121   3.757   5.268   2.534 -2.2410 -1.9449  0.7178
  818SOL     OW12122   2.174   2.396   0.126 -0.1069 -0.0674 -0.4119
  818SOL    HW112123   2.121   2.418   0.208  0.7210  2.3845 -0.4859
  818SOL    HW212124   2.207   2.302   0.132 -0.8052 -0.2019  1.6569
  819SOL     OW12125   1.989   2.418  -0.135 -0.3701 -0.0891  0.1165
  819SOL    HW112126   2.018   2.432  -0.040 -2.0484  0.0025  0.6283
  819SOL    HW212127   2.066   2.439  -0.196  1.2750 -1.8272  1.4999
  820SOL     OW12128   2.741   3.871   0.387 -0.1431 -0.3993  0.4907
  820SOL    HW112129   2.759   3.807   0.461 -0.6956 -0.0590  0.9230
  820SOL    HW212130   2.764   3.828   0.300  1.0234 -0.6156  0.8892
  821SOL     OW12131   2.459   1.619   2.043  0.0767 -0.0280  0.1376
  821SOL    HW112132   2.540   1.589   2.094 -0.0303  1.1461  1.0420
  821SOL    HW212133   2.429   1.547   1.981  0.4642 -1.3161  1.4421
  822SOL     OW12134   2.276   3.145   0.211  0.3249  0.1280 -0.3336
  822SOL    HW112135   2.367   3.121   0.176  0.3327  0.4272 -0.5219
  822SOL    HW212136   2.208   3.086   0.169  0.2931  0.7237 -1.1378
  823SOL     OW12137   4.243   3.855   1.310 -0.5311  0.2452 -0.0475
  823SOL    HW112138   4.342   3.866   1.319 -0.7245  1.6548  0.3956
  823SOL    HW212139   4.202   3.853   1.401 -0.8084 -1.5061 -0.1837
  824SOL     OW12140   2.993   3.784   0.003  0.1110  0.4146 -0.4324
  824SOL    HW112141   3.052   3.850   0.049 -1.2412  1.6439 -0.4120
  824SOL    HW212142   2.963   3.822  -0.085 -0.6084 -0.2044 -0.4559
  825SOL     OW12143   3.127   1.666   1.520 -0.0517 -0.3901  0.2801
  825SOL    HW112144   3.196   1.706   1.580 -0.9073  0.7467  0.5257
  825SOL    HW212145   3.167   1.652   1.429 -0.4770  3.5858 -0.5984
  826SOL     OW12146   3.122   3.223   2.326 -0.1519 -0.1727 -0.3184
  826SOL    HW112147   3.048   3.221   2.394  0.9396 -0.8424  0.8846
  826SOL    HW212148   3.084   3.243   2.236 -1.3577  2.9935  0.8238
  827SOL     OW12149   3.561   3.451   0.211  0.4783  0.2232 -0.0798
  827SOL    HW112150   3.604   3.467   0.300 -1.0142  0.5978  0.5906
  827SOL    HW212151   3.591   3.523   0.147 -0.6733  1.6367  0.9381
  828SOL     OW12152   3.118   1.757   2.012 -0.2137  0.4463  0.2295
  828SOL    HW112153   3.037   1.718   1.968  0.0385  0.9711 -0.7180
  828SOL    HW212154   3.198   1.700   1.991 -0.1592  0.4876  0.3251
  829SOL     OW12155   2.466   4.034   1.038  0.1542  0.2064 -0.1579
  829SOL    HW112156   2.402   3.969   0.998 -1.5878  1.5642  0.3734
  829SOL    HW212157   2.472   4.116   0.980  1.1806  0.2224 -0.0448
  830SOL     OW12158   2.105   2.943   0.126 -0.1591  0.1073 -0.3692
  830SOL    HW112159   2.054   2.959   0.042 -1.3436 -0.4391  0.2307
  830SOL    HW212160   2.133   2.847   0.130  0.5939  0.3175 -0.5163
  831SOL     OW12161   2.317   1.457   1.881 -0.4148 -0.6424  0.5923
  831SOL    HW112162   2.335   1.361   1.861  2.0732 -0.1631  0.2911
  831SOL    HW212163   2.298   1.506   1.796 -1.4028 -0.7976  0.7163
  832SOL     OW12164   2.860   2.567   0.776  0.3446 -0.0738 -0.8730
  832SOL    HW112165   2.907   2.529   0.856  2.2493  0.3676 -1.7421
  832SOL    HW212166   2.865   2.667   0.778 -1.0795 -0.0084 -0.6732
  833SOL     OW12167   2.155   3.586   2.040  0.6570  0.1975  0.3906
  833SOL    HW112168   2.154   3.554   1.945 -0.6407 -1.1472  0.8557
  833SOL    HW212169   2.178   3.684   2.041  0.9536  0.1640 -1.2834
  834SOL     OW12170   3.713   2.665   0.200 -0.5187  0.3540 -0.3472
  834SOL    HW112171   3.733   2.745   0.256  1.7010  0.3842 -1.1479
  834SOL    HW212172   3.673   2.594   0.258 -0.1549  1.1302  0.8826
  835SOL     OW12173   2.105   1.906   0.340 -0.4519  0.0297 -0.4087
  835SOL    HW112174   2.154   1.987   0.309 -3.0838  1.8717  0.0080
  835SOL    HW212175   2.134   1.882   0.433  0.6646  0.2124 -0.7127
  836SOL     OW12176   3.822   4.287   1.123  0.1883  0.1844  0.1310
  836SOL    HW112177   3.783   4.294   1.215 -0.2491  1.2498 -0.1369
  836SOL    HW212178   3.921   4.275   1.130 -0.1359 -2.5049  0.8191
  837SOL     OW12179   4.399   3.408   0.103 -0.6505 -0.0530  0.1991
  837SOL    HW112180   4.361   3.492   0.141 -1.3772 -0.3361  0.1263
  837SOL    HW212181   4.333   3.369   0.037 -0.4296 -0.7993  0.4136
  838SOL     OW12182   2.771   2.585   2.016 -0.6450 -0.8047 -0.1577
  838SOL    HW112183   2.723   2.667   1.985 -0.4878 -0.9113 -0.6836
  838SOL    HW212184   2.749   2.567   2.112  2.5679  2.2342  1.2559
  839SOL     OW12185   3.013   4.636   1.196 -0.2648  0.4351 -0.2858
  839SOL    HW112186   3.092   4.577   1.179 -1.4834 -1.4915  0.6498
  839SOL    HW212187   3.036   4.702   1.267  0.3541 -0.4346  0.3350
  840SOL     OW12188   3.629   1.004   1.566  0.2153 -0.0815  0.2804
  840SOL    HW112189   3.664   0.981   1.475  0.1512  1.3153 -0.1011
  840SOL    HW212190   3.643   1.101   1.584  0.2930 -0.3537  1.7989
  841SOL     OW12191   2.532   4.914   1.596 -0.0777  0.3758  0.2057
  841SOL    HW112192   2.611   4.865   1.558 -0.0521  0.5552  0.0280
  841SOL    HW212193   2.512   4.994   1.539  0.1522  0.8196  0.7458
  842SOL     OW12194   3.288  10.129   2.099  0.1387 -0.1533  0.1216
  842SOL    HW112195   3.338  10.082   2.026  0.4332 -0.9814  0.8529
  842SOL    HW212196   3.326  10.221   2.111  0.7858 -0.3962 -0.0532
  843SOL     OW12197   2.710   5.387   1.781 -0.0446  0.4931 -0.2662
  843SOL    HW112198   2.729   5.302   1.731  0.3455  0.1498  0.4674
  843SOL    HW212199   2.623   5.424   1.750 -1.3980 -1.4457  1.0994
  844SOL     OW12200   3.360  10.265   1.501  0.1434 -0.4390  0.0012
  844SOL    HW112201   3.305  10.349   1.503  0.8798  0.0383  1.4624
  844SOL    HW212202   3.455  10.288   1.521  0.6990 -1.3995 -1.4614
  845SOL     OW12203   2.508   3.707   0.257  0.0054 -0.4508  0.3480
  845SOL    HW112204   2.598   3.719   0.215 -0.0433 -2.2145 -0.3152
  845SOL    HW212205   2.443   3.770   0.215  1.0971  1.4477  1.4332
  846SOL     OW12206   3.265   2.641   2.421 -0.1832 -0.2545  0.1805
  846SOL    HW112207   3.308   2.718   2.373 -0.8748  0.0952  0.1009
  846SOL    HW212208   3.306   2.555   2.391 -0.8080 -0.0633 -1.2751
  847SOL     OW12209   3.043   4.696   2.586  0.2447  0.5198 -0.0734
  847SOL    HW112210   3.097   4.769   2.545 -0.7169  0.5317 -1.3779
  847SOL    HW212211   3.076   4.608   2.552 -0.6985  0.5413 -1.0923
  848SOL     OW12212   3.050   0.846   1.315  0.1780  0.2204  0.3791
  848SOL    HW112213   3.025   0.751   1.333 -0.1937  0.3642  0.6305
  848SOL    HW212214   3.003   0.905   1.380  2.1219  0.4037  1.6746
  849SOL     OW12215   3.749   2.047   0.996 -0.3973 -0.3798  0.4771
  849SOL    HW112216   3.828   2.010   1.046  0.2235 -1.6255 -1.3624
  849SOL    HW212217   3.711   1.976   0.938  1.1165  1.9271 -3.5512
  850SOL     OW12218   3.243  10.525   1.497 -0.0103  0.3457  0.2465
  850SOL    HW112219   3.170  10.581   1.534  2.2848  3.0368  0.8937
  850SOL    HW212220   3.262  10.552   1.402  0.0820 -0.3900  0.0512
  851SOL     OW12221   3.407   3.247   2.351 -0.6078 -0.5965 -0.2706
  851SOL    HW112222   3.309   3.264   2.357 -0.4152  0.0434  1.2298
  851SOL    HW212223   3.439   3.268   2.258 -1.7966 -0.3350 -0.6286
  852SOL     OW12224   2.467   3.787   1.406 -0.5076 -0.2069 -0.2858
  852SOL    HW112225   2.432   3.870   1.449 -0.5990  0.3755 -1.4770
  852SOL    HW212226   2.555   3.806   1.362 -0.8762 -0.5635 -1.1854
  853SOL     OW12227   4.301   5.120   0.513  0.2006 -0.9273 -0.3363
  853SOL    HW112228   4.233   5.049   0.535 -0.8667 -0.0279 -0.7148
  853SOL    HW212229   4.305   5.132   0.414 -1.9902  1.8164 -0.1391
  854SOL     OW12230   2.639   4.227   1.153 -0.3018  0.5958  0.1599
  854SOL    HW112231   2.736   4.207   1.152 -0.2464  0.9286 -1.2466
  854SOL    HW212232   2.588   4.150   1.116 -0.7420 -0.3455  2.6003
  855SOL     OW12233   3.674   4.930   2.122  0.4869  0.7690 -0.3445
  855SOL    HW112234   3.753   4.889   2.167  0.2141 -0.2854 -0.8304
  855SOL    HW212235   3.704   5.009   2.068  1.0349  1.0838  0.4080
  856SOL     OW12236   4.606   3.715   1.506 -0.3678  0.7830  0.0297
  856SOL    HW112237   4.561   3.800   1.477  0.4027  0.5999 -1.7693
  856SOL    HW212238   4.562   3.637   1.463 -1.2775  0.2223  1.9349
  10.00000  10.00000   2.87000
