chitosan Film  in water:acetic acid 2%
32655
    1CHTO  H203    1   6.099   6.319   3.003 -1.8692  0.6525  1.2541
    1CHTO   O82    2   6.133   6.334   3.089 -0.1130 -0.7997  0.8317
    1CHTO  C123    3   6.238   6.240   3.123 -0.1514  0.2295  0.9637
    1CHTO  H227    4   6.305   6.291   3.194  0.2255  1.4454 -0.2472
    1CHTO   O77    5   6.169   6.133   3.186  0.4090  0.3167 -0.2234
    1CHTO  C118    6   6.257   6.058   3.276 -0.1647  0.3060 -0.0452
    1CHTO  H222    7   6.312   6.126   3.343  0.4952  0.1194 -0.3919
    1CHTO  C125    8   6.165   5.956   3.358  0.7415  0.0551 -0.0025
    1CHTO   O84    9   6.231   5.838   3.405 -0.1249 -0.3304 -0.0458
    1CHTO  H205   10   6.230   5.761   3.352  0.1433 -0.3697  0.0010
    1CHTO  C114   11   6.369   5.990   3.190 -0.3498  0.5296 -1.0112
    1CHTO  H218   12   6.326   5.909   3.131  0.0575  0.5538 -1.3437
    1CHTO  C116   13   6.441   6.094   3.092  0.1224 -0.0966 -0.3814
    1CHTO  H220   14   6.502   6.164   3.153 -0.3742 -0.2041  0.2484
    1CHTO   O79   15   6.541   6.027   3.007  0.2200 -0.5190 -0.2579
    1CHTO  H201   16   6.618   6.014   3.059 -0.8164 -1.8048  0.9622
    1CHTO  C120   17   6.334   6.174   3.010  0.6144 -0.4521 -0.2454
    1CHTO  H224   18   6.274   6.101   2.952  0.5913 -0.7928  0.2057
    1CHTO   N21   19   6.387   6.270   2.911  0.1926 -0.5545  0.3990
    1CHTO  H211   20   6.319   6.289   2.830  1.9692 -0.2715 -1.0673
    1CHTO  H212   21   6.411   6.367   2.953  0.4022 -0.5034  0.1621
    1CHTO   O75   22   6.463   5.938   3.289 -0.2761  0.1808  0.2818
    1CHTO  C112   23   6.543   5.808   3.255  1.1716  0.1975 -0.1104
    1CHTO  H216   24   6.564   5.796   3.148  1.1748  2.4213 -0.3769
    1CHTO   O73   25   6.458   5.703   3.304 -0.2262 -0.0523  0.0009
    1CHTO  C113   26   6.510   5.575   3.275  0.1110 -0.2523 -0.6996
    1CHTO  H217   27   6.516   5.566   3.165 -1.7228  1.0292 -0.9156
    1CHTO  C124   28   6.415   5.468   3.321  0.0415  0.2119  0.0237
    1CHTO   O83   29   6.366   5.486   3.452 -0.2619 -0.2100 -0.0561
    1CHTO  H204   30   6.289   5.539   3.466  0.3606  0.1432  2.1818
    1CHTO  C109   31   6.646   5.557   3.348  0.7247  0.3644  0.6327
    1CHTO  H213   32   6.625   5.557   3.456 -0.0987 -2.0602  0.5074
    1CHTO  C110   33   6.745   5.671   3.313 -0.7093  0.6640 -0.2195
    1CHTO  H214   34   6.775   5.653   3.210  2.9122  0.1565  0.8712
    1CHTO   O78   35   6.870   5.665   3.387  0.3380  0.0346 -0.1559
    1CHTO  H200   36   6.915   5.591   3.351 -1.0965 -0.6174 -0.6399
    1CHTO  C111   37   6.678   5.807   3.331 -0.0336 -0.6837  0.3104
    1CHTO  H215   38   6.662   5.823   3.439 -1.0328 -3.2704  0.5688
    1CHTO   N19   39   6.766   5.920   3.288 -0.4008  0.0192 -0.9338
    1CHTO  H207   40   6.861   5.902   3.337 -0.5341 -0.2007 -0.7583
    1CHTO  H208   41   6.720   6.010   3.326  0.2634  0.0427 -0.1694
    1CHTO   O74   42   6.689   5.429   3.305 -0.0381 -0.6544 -0.5110
    1CHTO  C115   43   6.800   5.362   3.397 -0.2712  0.0766  0.4370
    1CHTO  H219   44   6.830   5.428   3.478 -0.3650  0.2999  0.2895
    1CHTO   O76   45   6.750   5.239   3.476  0.4111  0.6683 -0.0727
    1CHTO  C122   46   6.688   5.145   3.387  0.5444  0.2660 -0.0617
    1CHTO  H226   47   6.600   5.199   3.353  2.1227  2.4931 -0.7403
    1CHTO  C126   48   6.639   5.025   3.464 -0.5155  0.3962  0.1527
    1CHTO   O85   49   6.538   5.057   3.553 -0.2539 -0.0407  0.1122
    1CHTO  H206   50   6.456   5.045   3.510 -0.5114  0.5407  0.4380
    1CHTO  C121   51   6.779   5.107   3.265 -0.3757  0.4015  0.1684
    1CHTO  H225   52   6.792   4.998   3.249 -1.2902  0.2185  0.6299
    1CHTO   O81   53   6.716   5.146   3.142  0.1448 -0.8742 -0.0397
    1CHTO  H202   54   6.700   5.238   3.135 -0.2057 -0.7740  1.8449
    1CHTO  C119   55   6.922   5.166   3.283  0.1938 -0.6352  0.7538
    1CHTO  H223   56   6.961   5.112   3.369 -2.6901  0.1059  2.6169
    1CHTO  C117   57   6.923   5.321   3.311 -0.2513  0.1664 -0.1959
    1CHTO  H221   58   6.913   5.387   3.224  0.1408 -0.3078 -0.6092
    1CHTO   N20   59   7.043   5.371   3.384  0.5679 -0.2983  0.4512
    1CHTO  H209   60   7.122   5.384   3.312  1.8663 -1.4016  1.6559
    1CHTO  H210   61   7.083   5.300   3.455 -0.5647 -0.6318  0.7675
    1CHTO   O80   62   7.016   5.123   3.158 -0.4173  0.1812  0.2434
    1CHTO  C103   63   7.037   4.959   3.137 -0.0033  0.1813  0.6346
    1CHTO  H190   64   7.008   4.902   3.226  3.4228 -0.3012  1.5034
    1CHTO  C101   65   6.979   4.895   3.008 -0.3643 -0.7069  0.2746
    1CHTO  H188   66   7.020   4.951   2.924 -1.1108  1.5068  1.3449
    1CHTO   O68   67   6.814   4.885   3.003  0.7470 -0.1493 -0.2716
    1CHTO  H168   68   6.786   4.831   3.075  0.3231 -0.5489 -0.7346
    1CHTO   C99   69   7.040   4.752   2.974  0.7698  0.7259 -0.1117
    1CHTO  H186   70   7.013   4.676   3.051 -1.6342  0.4686 -1.1713
    1CHTO   N17   71   7.001   4.688   2.844  0.6286 -0.1412 -0.4633
    1CHTO  H174   72   7.047   4.591   2.833  1.3091  0.1303 -0.0140
    1CHTO  H175   73   6.893   4.686   2.838  0.5860  2.0712 -0.9497
    1CHTO   C97   74   7.197   4.767   2.980  0.0625 -0.9287  0.3165
    1CHTO  H184   75   7.224   4.837   2.899 -0.6225  0.5177  1.3313
    1CHTO   O64   76   7.227   4.818   3.112  0.1215  0.6312 -0.1735
    1CHTO  C104   77   7.185   4.950   3.132 -0.1256  0.5031  0.3159
    1CHTO  H191   78   7.220   5.023   3.058 -2.3091  1.2808  0.0305
    1CHTO  C108   79   7.259   4.993   3.263  0.2726  0.3227  0.5045
    1CHTO   O71   80   7.401   4.994   3.241 -0.0331  0.2507 -0.1890
    1CHTO  H171   81   7.429   4.907   3.219 -1.1502 -0.1661  0.0106
    1CHTO   O62   82   7.275   4.645   2.962 -0.1324 -0.2282  0.1351
    1CHTO   C91   83   7.406   4.661   2.906  0.1834  0.6258  0.4704
    1CHTO  H178   84   7.424   4.768   2.913  0.2015  0.7199 -1.0462
    1CHTO   C92   85   7.407   4.613   2.753  0.1778 -0.0464  0.8736
    1CHTO  H179   86   7.321   4.657   2.701 -0.0776 -0.5938  0.8354
    1CHTO   O66   87   7.525   4.662   2.688  0.3930  0.2479 -0.0586
    1CHTO  H166   88   7.606   4.620   2.711  0.5945  0.3162 -0.6223
    1CHTO   C93   89   7.415   4.456   2.739 -0.4346 -0.1704  0.3193
    1CHTO  H180   90   7.438   4.441   2.633 -2.0732 -1.5535  0.1293
    1CHTO   N16   91   7.284   4.383   2.753  0.0083  0.2311 -0.4333
    1CHTO  H172   92   7.226   4.399   2.663  1.7022  1.2515 -1.3737
    1CHTO  H173   93   7.238   4.407   2.848  0.7110 -2.2136  0.5717
    1CHTO   C94   94   7.534   4.402   2.831  0.1952  0.0961  0.2353
    1CHTO  H181   95   7.495   4.328   2.900  0.7155 -0.7522 -0.3705
    1CHTO   O61   96   7.599   4.505   2.909  0.0325 -0.2283  0.3120
    1CHTO   C95   97   7.517   4.588   2.984 -0.4070  0.1653  0.1034
    1CHTO  H182   98   7.462   4.525   3.054  2.2868 -0.7574  1.4547
    1CHTO  C106   99   7.616   4.687   3.067 -0.5870  0.7489 -0.7007
    1CHTO   O69  100   7.542   4.776   3.150  0.2283 -0.1705 -0.1056
    1CHTO  H169  101   7.481   4.817   3.092  0.0214  0.0671  0.2782
    1CHTO   O63  102   7.645   4.338   2.728  0.1645 -0.4280 -0.0151
    1CHTO   C96  103   7.767   4.292   2.790 -0.2680  0.0293  0.4070
    1CHTO  H183  104   7.755   4.271   2.896 -1.9594 -0.0294  0.2148
    1CHTO   C98  105   7.886   4.389   2.788  0.3738  0.6429 -0.5395
    1CHTO  H185  106   7.847   4.489   2.813 -0.5296  0.5697 -1.5998
    1CHTO   O67  107   7.978   4.359   2.898  0.4089 -0.0278 -0.0811
    1CHTO  H167  108   8.006   4.270   2.898  0.7286  0.0715 -0.7889
    1CHTO  C102  109   7.955   4.389   2.649  0.0726 -0.4125 -0.4780
    1CHTO  H189  110   8.046   4.448   2.663  0.0273 -0.0282 -1.7520
    1CHTO   N18  111   7.877   4.453   2.540 -0.4464  0.0844  0.8167
    1CHTO  H176  112   7.949   4.509   2.482 -1.0878  0.0613 -0.0113
    1CHTO  H177  113   7.818   4.387   2.478 -1.1842  0.4624  1.1037
    1CHTO  C105  114   8.004   4.248   2.608 -0.2001  0.1387 -0.3171
    1CHTO  H192  115   8.033   4.256   2.503  1.0573 -2.0002 -0.1708
    1CHTO   O65  116   7.896   4.149   2.612  0.1576  0.3030 -0.1122
    1CHTO  C100  117   7.808   4.146   2.728  0.0426  0.1632 -0.7335
    1CHTO  H187  118   7.713   4.101   2.697 -0.2204  1.0293 -1.1926
    1CHTO  C107  119   7.880   4.066   2.842  0.4456 -0.6742  0.3590
    1CHTO   O70  120   7.896   3.931   2.826  0.7454  0.0758  0.1858
    1CHTO  H170  121   7.824   3.885   2.865  3.6333 -3.3129  1.6744
    1CHTO   O57  122   8.141   4.213   2.703  0.8517  0.2058 -0.3465
    1CHTO   C85  123   8.264   4.164   2.643  0.1624  0.1128 -0.8734
    1CHTO  H157  124   8.283   4.228   2.555 -3.4834 -0.3270 -2.0493
    1CHTO   C83  125   8.228   4.014   2.598 -0.4838  0.0833  0.0961
    1CHTO  H155  126   8.166   4.025   2.508  1.2077 -0.7147 -1.2001
    1CHTO   O56  127   8.156   3.950   2.703  0.2352  0.2932 -0.4048
    1CHTO  H135  128   8.204   3.948   2.784  0.9631 -0.7112 -0.8487
    1CHTO   C81  129   8.358   3.933   2.567  0.6098 -0.2966 -0.5596
    1CHTO  H153  130   8.411   3.988   2.489 -1.4220  1.0578 -1.0201
    1CHTO   N14  131   8.345   3.802   2.499 -0.0621 -0.1260 -0.6964
    1CHTO  H141  132   8.443   3.770   2.471  0.3640  1.0262 -0.5404
    1CHTO  H142  133   8.295   3.723   2.550 -1.9164  0.6929 -1.2141
    1CHTO   C79  134   8.454   3.929   2.695 -0.5517 -0.8572 -0.3564
    1CHTO  H151  135   8.548   3.883   2.664  0.2252  0.8839 -0.6119
    1CHTO   O52  136   8.483   4.070   2.713 -0.3672 -0.0134  0.4160
    1CHTO   C86  137   8.380   4.165   2.748 -0.5909 -0.2016 -0.4756
    1CHTO  H158  138   8.353   4.131   2.850 -0.0396  1.6857  0.3191
    1CHTO   C90  139   8.445   4.305   2.769 -0.4422  0.2073 -0.3438
    1CHTO   O60  140   8.508   4.383   2.665 -0.2571 -0.3506 -0.0547
    1CHTO  H138  141   8.582   4.425   2.704 -1.3163  1.8362 -0.3300
    1CHTO   O50  142   8.412   3.877   2.813 -0.0045  0.6846 -0.0519
    1CHTO   C73  143   8.448   3.804   2.932  0.5531  0.1571 -0.7387
    1CHTO  H145  144   8.546   3.757   2.916  1.6783  2.5681 -1.0449
    1CHTO   C74  145   8.350   3.691   2.972  0.1544 -0.0623  0.0908
    1CHTO  H146  146   8.347   3.626   2.884  3.0565  0.9540 -0.8220
    1CHTO   O54  147   8.414   3.602   3.075  0.5468 -0.5825  0.3683
    1CHTO  H133  148   8.493   3.566   3.039 -0.1175 -2.4116  0.6844
    1CHTO   C75  149   8.209   3.761   3.003  1.5385 -0.6802  0.7106
    1CHTO  H147  150   8.175   3.810   2.910  1.8560 -0.0644  0.9136
    1CHTO   N13  151   8.101   3.666   3.028 -0.0200  0.0691 -1.0105
    1CHTO  H139  152   8.013   3.718   3.059  0.6122  0.6200 -0.1132
    1CHTO  H140  153   8.141   3.612   3.113 -0.8338 -0.1399 -0.7591
    1CHTO   C76  154   8.241   3.874   3.115 -0.9545 -0.3492  0.3951
    1CHTO  H148  155   8.267   3.824   3.208 -2.8675 -1.0832  0.5533
    1CHTO   O49  156   8.345   3.969   3.076  0.4523 -0.3139 -0.3439
    1CHTO   C77  157   8.469   3.899   3.048  0.1554  0.3382  0.0199
    1CHTO  H149  158   8.494   3.848   3.141  0.7570  0.3733 -0.1247
    1CHTO   C88  159   8.573   4.006   3.020  0.1179 -0.0919 -0.2928
    1CHTO   O58  160   8.701   3.962   3.030  0.0798  0.3027  0.1260
    1CHTO  H136  161   8.717   3.936   3.119 -1.7014  0.4128  0.5125
    1CHTO   O51  162   8.124   3.959   3.131  0.0272 -0.5638 -0.0545
    1CHTO   C78  163   8.135   4.056   3.281  1.3923 -0.0207  0.3151
    1CHTO  H150  164   8.236   4.067   3.324  0.8668  0.7613  1.3672
    1CHTO   C80  165   8.040   4.003   3.389 -0.0974  0.4334  0.2921
    1CHTO  H152  166   7.940   3.980   3.346  0.3709  1.7908 -1.5657
    1CHTO   O55  167   8.084   3.876   3.433 -0.7744  0.1530  0.3001
    1CHTO  H134  168   8.028   3.841   3.500  0.5752  0.3673  1.5537
    1CHTO   C84  169   8.005   4.106   3.505  0.0311 -0.6199 -0.4369
    1CHTO  H156  170   8.099   4.122   3.559 -0.7540  0.9003  0.5134
    1CHTO   N15  171   7.898   4.066   3.603 -0.5637  0.0795 -0.1105
    1CHTO  H143  172   7.876   4.122   3.692  1.5678  1.6007 -0.4870
    1CHTO  H144  173   7.921   3.966   3.633 -1.0156  0.3445  1.1562
    1CHTO   C87  174   7.970   4.239   3.431 -0.3087 -0.2404  0.1171
    1CHTO  H159  175   7.881   4.222   3.370  0.7016 -2.7480 -0.7419
    1CHTO   O53  176   8.087   4.282   3.334 -0.2067 -0.2252 -0.5343
    1CHTO   C82  177   8.093   4.197   3.227 -0.5899 -0.2679 -0.1407
    1CHTO  H154  178   7.994   4.191   3.181 -0.3665 -0.0033 -0.6604
    1CHTO   C89  179   8.189   4.249   3.121  0.1479 -0.2198  0.7048
    1CHTO   O59  180   8.330   4.247   3.155 -0.0222 -0.0302  0.3587
    1CHTO  H137  181   8.367   4.161   3.168  1.9202  0.6381 -0.6320
    1CHTO   O45  182   7.952   4.358   3.534  0.1342  0.3849  0.2500
    1CHTO   C67  183   7.886   4.476   3.494  0.9184 -0.7835 -0.7169
    1CHTO  H124  184   7.918   4.490   3.390 -0.6573 -1.5252 -1.3208
    1CHTO   C65  185   7.735   4.470   3.502  0.1142  0.0986  0.1009
    1CHTO  H122  186   7.710   4.367   3.528 -0.1167 -0.0507 -0.7010
    1CHTO   O44  187   7.669   4.496   3.374  0.0379  0.2002  0.1850
    1CHTO  H102  188   7.700   4.446   3.301 -0.4516 -2.3932  1.6952
    1CHTO   C63  189   7.677   4.568   3.610  0.3692 -0.2901  0.0586
    1CHTO  H120  190   7.720   4.534   3.704 -0.7723 -0.9135  0.3688
    1CHTO   N11  191   7.532   4.569   3.631 -0.3558  0.1279  0.2308
    1CHTO  H108  192   7.506   4.668   3.663  0.2498  0.1228  0.7248
    1CHTO  H109  193   7.505   4.494   3.702  2.5459 -0.7369  0.4587
    1CHTO   C61  194   7.742   4.718   3.581 -0.8633  0.2727 -0.5313
    1CHTO  H118  195   7.742   4.763   3.682  0.3648 -0.1343 -0.3326
    1CHTO   O40  196   7.879   4.719   3.536 -0.8409  0.5354  0.5428
    1CHTO   C68  197   7.946   4.600   3.570 -0.5031  0.3874 -0.1065
    1CHTO  H125  198   7.943   4.585   3.680  0.6622  1.3120  0.0572
    1CHTO   C72  199   8.092   4.621   3.527  0.1373 -0.0729 -0.1678
    1CHTO   O48  200   8.145   4.734   3.597  0.4331 -0.2680 -0.0240
    1CHTO  H105  201   8.230   4.747   3.560  1.1785 -2.5556  0.7853
    1CHTO   O38  202   7.687   4.805   3.479 -0.0166 -0.3500 -0.7571
    1CHTO   C55  203   7.673   4.943   3.516 -0.1975  0.2434 -0.2686
    1CHTO  H112  204   7.745   4.969   3.595  1.3286 -0.6505 -1.3315
    1CHTO   C56  205   7.523   4.983   3.554  0.6100  1.0712  0.0493
    1CHTO  H113  206   7.463   4.953   3.467  0.8052  0.7216  0.0341
    1CHTO   O42  207   7.486   4.902   3.672  0.1995 -0.0060  0.7778
    1CHTO  H100  208   7.420   4.943   3.724 -0.3588  0.8248 -0.5471
    1CHTO   C57  209   7.502   5.138   3.574 -0.2703  0.2873 -0.6929
    1CHTO  H114  210   7.552   5.162   3.669  0.1707 -0.8861 -0.6195
    1CHTO   N10  211   7.361   5.166   3.585 -0.1413 -0.2065  0.2271
    1CHTO  H106  212   7.350   5.252   3.649  0.1451 -0.5673  0.7667
    1CHTO  H107  213   7.305   5.087   3.633  0.1349  0.7221  2.1500
    1CHTO   C58  214   7.576   5.211   3.458 -0.6013 -0.3217  0.3601
    1CHTO  H115  215   7.517   5.207   3.364 -1.1326 -1.6317  0.7429
    1CHTO   O37  216   7.708   5.171   3.442 -0.3848  0.7552  0.5621
    1CHTO   C59  217   7.716   5.034   3.398 -0.0340  0.1922 -0.3740
    1CHTO  H116  218   7.653   5.012   3.313 -2.3875  1.8208  0.8821
    1CHTO   C70  219   7.865   5.012   3.357 -1.0323 -0.4109 -0.5753
    1CHTO   O46  220   7.859   4.950   3.231 -0.1100  0.6004 -0.1544
    1CHTO  H103  221   7.883   5.004   3.158  0.0347  0.3358 -0.3057
    1CHTO   O39  222   7.598   5.377   3.497 -0.2377  0.0213 -0.2400
    1CHTO   C60  223   7.539   5.474   3.411 -0.1339 -0.0559  0.0113
    1CHTO  H117  224   7.533   5.429   3.312  1.4559  1.6495 -0.8998
    1CHTO   C62  225   7.395   5.514   3.452 -1.1003 -0.4158 -0.7672
    1CHTO  H119  226   7.334   5.421   3.445 -1.1426 -0.5341  0.9957
    1CHTO   O43  227   7.394   5.547   3.595  0.3946 -0.4351  0.3468
    1CHTO  H101  228   7.450   5.618   3.619  0.6590 -0.6773  0.4621
    1CHTO   C66  229   7.344   5.641   3.361  0.3879  0.1745  0.0596
    1CHTO  H123  230   7.323   5.600   3.262 -1.6362  2.7617 -0.6177
    1CHTO   N12  231   7.221   5.700   3.415 -0.0691  0.2309 -0.3763
    1CHTO  H110  232   7.138   5.649   3.368  1.1833 -2.3673  0.1521
    1CHTO  H111  233   7.220   5.807   3.397 -0.7496  0.8507  3.1496
    1CHTO   C69  234   7.457   5.749   3.349 -1.0573 -0.7800 -0.0519
    1CHTO  H126  235   7.469   5.785   3.454 -1.2053 -0.6923 -0.0648
    1CHTO   O41  236   7.566   5.695   3.309  0.0062  0.0180 -0.1921
    1CHTO   C64  237   7.634   5.590   3.402  0.0919  0.2883 -0.1640
    1CHTO  H121  238   7.649   5.632   3.504 -0.4179  0.1506 -0.0339
    1CHTO   C71  239   7.772   5.547   3.348 -0.8098 -0.6213  0.2203
    1CHTO   O47  240   7.871   5.652   3.342  0.6417 -0.6321  0.0892
    1CHTO  H104  241   7.846   5.726   3.395  0.3003 -0.2589 -0.5781
    1CHTO   O34  242   7.426   5.861   3.260  0.0481  0.2283 -1.1012
    1CHTO   C49  243   7.451   6.002   3.215 -0.5034  0.4618 -0.5280
    1CHTO   H91  244   7.514   5.990   3.127 -2.6396  2.7344 -2.4568
    1CHTO   C47  245   7.523   6.082   3.326  0.3258  0.6028 -0.3172
    1CHTO   H89  246   7.551   6.179   3.280 -0.0996  0.7650 -0.2347
    1CHTO   O33  247   7.649   6.015   3.363 -0.2167 -0.2008 -0.0471
    1CHTO   H70  248   7.677   6.056   3.443  0.4535 -0.3642 -0.1916
    1CHTO   C45  249   7.424   6.087   3.446 -0.2004 -0.1172 -0.0823
    1CHTO   H87  250   7.391   5.987   3.477 -2.9178  1.6886  3.1940
    1CHTO    N8  251   7.481   6.151   3.567  1.1553 -0.4561 -0.8157
    1CHTO   H75  252   7.484   6.257   3.543 -0.3539 -0.3489 -0.5594
    1CHTO   H76  253   7.571   6.108   3.609  1.9108  3.1590  1.5679
    1CHTO   C43  254   7.291   6.160   3.399 -0.8939  0.5195 -0.8621
    1CHTO   H85  255   7.229   6.141   3.486 -1.2040  1.7274 -0.8085
    1CHTO   O29  256   7.233   6.112   3.277 -0.6507  0.4270 -0.8351
    1CHTO   C50  257   7.322   6.070   3.172 -0.0501  0.6347 -0.3569
    1CHTO   H92  258   7.264   5.994   3.117 -0.8280  0.3314  0.8619
    1CHTO   C54  259   7.333   6.188   3.076  0.0349 -0.5421 -0.6490
    1CHTO   O36  260   7.228   6.198   2.978 -0.8908  0.0044  0.5941
    1CHTO   H72  261   7.151   6.181   3.028  1.4224  0.8511  4.7303
    1CHTO   O27  262   7.312   6.301   3.389 -0.7298  0.0524  0.4529
    1CHTO   C37  263   7.260   6.427   3.338 -0.2601  0.6395  0.2480
    1CHTO   H79  264   7.298   6.445   3.236 -0.0400 -1.9482 -0.1574
    1CHTO   C38  265   7.100   6.429   3.311 -0.8154  0.0402 -0.3480
    1CHTO   H80  266   7.049   6.409   3.406  0.5297  3.1848  1.1380
    1CHTO   O31  267   7.064   6.331   3.214 -0.3271 -0.3020 -0.3765
    1CHTO   H68  268   7.018   6.372   3.143  1.7840  2.2581 -0.3782
    1CHTO   C39  269   7.063   6.578   3.259 -0.9651  0.1077 -0.4234
    1CHTO   H81  270   7.105   6.590   3.159  0.0223 -0.0356 -0.0383
    1CHTO    N7  271   6.918   6.605   3.250  0.0171 -0.5090 -0.1671
    1CHTO   H73  272   6.875   6.595   3.152 -1.5643 -0.4587  0.5001
    1CHTO   H74  273   6.854   6.540   3.308 -1.9011  0.7879 -0.7945
    1CHTO   C40  274   7.128   6.694   3.350  0.1421  0.3396  0.2726
    1CHTO   H82  275   7.066   6.705   3.439 -1.5283  2.7347 -1.1290
    1CHTO   O26  276   7.266   6.674   3.384 -0.3410 -0.1181 -0.3153
    1CHTO   C41  277   7.309   6.546   3.433 -0.2333  0.3430 -0.2034
    1CHTO   H83  278   7.275   6.528   3.536 -1.4026  1.9117 -0.2996
    1CHTO   C52  279   7.458   6.564   3.430 -0.6206  0.2190 -0.7006
    1CHTO   O35  280   7.524   6.552   3.555  0.5673  0.1727 -0.3114
    1CHTO   H71  281   7.599   6.500   3.531  0.7574  1.8164 -3.5089
    1CHTO   O28  282   7.120   6.825   3.289  0.3315  0.0557 -0.2498
    1CHTO   C42  283   7.220   6.886   3.203 -0.0357 -0.4564  0.1000
    1CHTO   H84  284   7.280   6.800   3.172 -0.9433 -0.3434 -2.0118
    1CHTO   C44  285   7.320   6.982   3.277 -0.1810 -0.4033 -0.1384
    1CHTO   H86  286   7.266   7.062   3.327 -0.3004 -1.0200  0.7349
    1CHTO   O32  287   7.377   6.926   3.389 -0.9445  0.0089 -0.4793
    1CHTO   H69  288   7.430   6.992   3.429 -1.5748 -0.4312  1.1116
    1CHTO   C48  289   7.418   7.042   3.174 -0.3349  0.3925 -0.9462
    1CHTO   H90  290   7.492   6.970   3.140 -1.0948  0.4602 -2.7793
    1CHTO    N9  291   7.502   7.150   3.235 -0.5799 -0.3126 -0.2114
    1CHTO   H77  292   7.443   7.238   3.255 -1.2230 -0.1814 -2.5754
    1CHTO   H78  293   7.556   7.101   3.315 -0.4773 -0.2850 -0.2639
    1CHTO   C51  294   7.346   7.097   3.040 -0.1053 -0.6989 -0.6046
    1CHTO   H93  295   7.285   7.184   3.065  0.2604 -0.4734 -0.4921
    1CHTO   O30  296   7.265   6.995   2.988  0.1165 -0.5037  0.1086
    1CHTO   C46  297   7.155   6.942   3.081  0.0780 -0.2524  0.3460
    1CHTO   H88  298   7.087   7.022   3.110 -1.6302 -1.2822 -0.7243
    1CHTO   C53  299   7.077   6.836   2.999 -0.2737 -0.5721 -0.1676
    1CHTO   O72  300   6.986   6.901   2.910  0.1436  0.4113 -0.7900
    1CHTO  H199  301   7.025   6.898   2.825 -0.9787 -0.0556 -1.3112
    1CHTO   O22  302   7.447   7.144   2.944 -0.3585  0.0236 -0.0587
    1CHTO   C31  303   7.456   7.100   2.801  0.5997 -0.5859  0.3579
    1CHTO   H59  304   7.367   7.035   2.783 -0.9265  1.5070  0.1783
    1CHTO   C29  305   7.446   7.213   2.694  0.3626  0.3012  0.1694
    1CHTO   H57  306   7.525   7.286   2.713  0.6217 -0.7855  3.4717
    1CHTO   O21  307   7.317   7.278   2.704  0.4865 -0.0491  0.6158
    1CHTO   H37  308   7.244   7.219   2.715  0.3565 -0.2027 -0.9445
    1CHTO   C27  309   7.455   7.160   2.543  0.0439  0.5654 -0.0315
    1CHTO   H55  310   7.360   7.111   2.518 -0.7679  1.6450  0.8843
    1CHTO    N5  311   7.467   7.274   2.444  0.0275  1.1789 -0.2494
    1CHTO   H43  312   7.387   7.273   2.372 -0.5545  0.5541  0.3996
    1CHTO   H44  313   7.503   7.371   2.478 -1.4932  2.0670 -1.1163
    1CHTO   C25  314   7.563   7.048   2.533 -0.6384 -0.2019  0.2219
    1CHTO   H53  315   7.664   7.089   2.518 -0.1541 -1.9904 -1.5858
    1CHTO   O17  316   7.565   6.948   2.635  0.0314 -0.1247 -0.1564
    1CHTO   C32  317   7.575   7.007   2.771  0.7163 -0.6168 -0.3082
    1CHTO   H60  318   7.666   7.066   2.779  0.2071  0.0390  0.7916
    1CHTO   C36  319   7.575   6.890   2.871  0.2348  0.6148 -0.2274
    1CHTO   O25  320   7.457   6.817   2.864  0.3746  0.0460 -1.2552
    1CHTO   H40  321   7.407   6.807   2.943  1.4044 -0.5779 -0.6752
    1CHTO   O15  322   7.538   6.970   2.404  0.4056  0.6138  0.3894
    1CHTO   C19  323   7.559   6.914   2.274 -0.3042  0.8062  0.3290
    1CHTO   H47  324   7.592   6.997   2.210  0.7052 -1.7547 -2.6265
    1CHTO   C20  325   7.679   6.816   2.262 -0.4189  0.0128  0.1069
    1CHTO   H48  326   7.668   6.727   2.326  2.4745 -0.8574 -0.5294
    1CHTO   O19  327   7.795   6.892   2.304  0.0046  0.5121  0.8794
    1CHTO   H35  328   7.873   6.840   2.303 -0.8824 -0.8247  0.1555
    1CHTO   C21  329   7.699   6.752   2.117 -0.2259 -0.2534 -0.1358
    1CHTO   H49  330   7.747   6.828   2.055  0.4666  0.2381  0.9841
    1CHTO    N4  331   7.798   6.642   2.108 -0.0746  0.2012  0.3961
    1CHTO   H41  332   7.773   6.559   2.171  0.4141 -0.3690 -0.1591
    1CHTO   H42  333   7.809   6.615   2.004 -2.1167 -1.9733  0.7084
    1CHTO   C22  334   7.557   6.720   2.058 -0.0842 -0.2615  0.2769
    1CHTO   H50  335   7.511   6.641   2.118 -1.3013  1.5759  1.8327
    1CHTO   O14  336   7.459   6.823   2.073 -0.0868 -0.2141 -0.6785
    1CHTO   C23  337   7.433   6.854   2.213 -0.0772  0.6303  0.1078
    1CHTO   H51  338   7.399   6.767   2.271  2.1013 -1.7675 -2.0768
    1CHTO   C34  339   7.327   6.965   2.211  0.4449  0.3078  0.4107
    1CHTO   O23  340   7.205   6.913   2.145 -0.0053  0.1352  0.2945
    1CHTO   H38  341   7.137   6.977   2.132 -1.4031 -1.2546  0.6308
    1CHTO   O16  342   7.556   6.704   1.916 -0.3836  0.9874 -0.1689
    1CHTO   C24  343   7.496   6.574   1.863 -0.0486  0.2904 -1.3834
    1CHTO   H52  344   7.460   6.510   1.944 -0.6428 -0.8665 -2.5387
    1CHTO   C26  345   7.594   6.484   1.782 -0.2797 -0.9205  0.6981
    1CHTO   H54  346   7.637   6.545   1.700 -0.3723 -2.8950 -0.8543
    1CHTO   O20  347   7.712   6.443   1.856 -0.6745  0.0823 -0.1655
    1CHTO   H36  348   7.675   6.423   1.940 -0.8957 -0.9296 -0.4960
    1CHTO   C30  349   7.523   6.360   1.721  0.6559 -0.6181 -0.5089
    1CHTO   H58  350   7.489   6.291   1.800  0.5171 -0.4819 -0.4502
    1CHTO    N6  351   7.612   6.278   1.633  0.0718 -0.4194 -0.1893
    1CHTO   H45  352   7.714   6.300   1.659 -0.3848 -0.2671  1.4984
    1CHTO   H46  353   7.600   6.280   1.525  0.7068 -1.0518 -0.2742
    1CHTO   C33  354   7.390   6.400   1.656  0.0234  0.5095 -0.2421
    1CHTO   H61  355   7.411   6.458   1.565  2.2469  0.2053  0.0543
    1CHTO   O18  356   7.308   6.483   1.742  0.2894 -0.2469  0.3860
    1CHTO   C28  357   7.367   6.610   1.776 -0.4206  1.0308  0.2979
    1CHTO   H56  358   7.403   6.664   1.688  2.1663  3.1314  2.5633
    1CHTO   C35  359   7.268   6.690   1.854 -0.3419 -0.1465 -0.1152
    1CHTO   O24  360   7.166   6.750   1.771 -0.5095  0.4828  0.5170
    1CHTO   H39  361   7.106   6.688   1.733  0.8129 -0.4875 -0.0303
    1CHTO    O9  362   7.317   6.281   1.611  0.1117  0.0768 -0.4712
    1CHTO   C13  363   7.179   6.320   1.509  0.3280  0.3084 -0.3376
    1CHTO   H26  364   7.183   6.429   1.488 -3.5258  1.1635  2.7774
    1CHTO   C11  365   7.043   6.281   1.569  0.6930  0.3370  0.6345
    1CHTO   H24  366   6.994   6.373   1.605  0.1484  0.3490 -0.1123
    1CHTO    O8  367   7.064   6.190   1.680 -0.7704 -0.2248  0.3521
    1CHTO    H3  368   7.003   6.206   1.749  1.7163  2.6550  2.0010
    1CHTO    C9  369   6.940   6.222   1.468  0.8753  0.8682 -0.2710
    1CHTO   H22  370   6.910   6.306   1.404 -0.9859  0.8866  0.6071
    1CHTO    N2  371   6.805   6.196   1.525  0.5961 -0.5156 -0.6351
    1CHTO   H10  372   6.799   6.111   1.591 -2.0246  0.0579 -0.0992
    1CHTO   H11  373   6.736   6.187   1.443 -1.6882  0.2460  1.1399
    1CHTO    C7  374   7.001   6.110   1.383  0.0621 -0.3585  0.3058
    1CHTO   H20  375   6.953   6.122   1.284 -1.0053 -1.1035  0.7246
    1CHTO    O4  376   7.145   6.125   1.359  0.0310  0.0699 -0.0810
    1CHTO   C14  377   7.195   6.256   1.363  1.0395  1.0697  0.2281
    1CHTO   H27  378   7.146   6.318   1.284 -1.5481  1.3061  1.9564
    1CHTO   C18  379   7.342   6.253   1.335  0.0163 -0.6604  0.2025
    1CHTO   O13  380   7.374   6.220   1.197  0.2272  0.4554 -0.1027
    1CHTO    H7  381   7.463   6.237   1.172 -0.4578  2.6807 -1.1056
    1CHTO    O2  382   6.975   5.960   1.457  0.3492 -0.1989 -0.1351
    1CHTO    C1  383   7.028   5.854   1.375 -0.0861  0.1089  0.5641
    1CHTO   H14  384   7.112   5.889   1.311 -0.1523 -1.9494 -0.7118
    1CHTO    C2  385   6.921   5.763   1.290 -0.1058  0.2377 -0.7292
    1CHTO   H15  386   6.836   5.733   1.353 -1.4738 -0.2147 -2.7187
    1CHTO    O6  387   6.863   5.845   1.189  1.0494 -0.4998 -0.6198
    1CHTO    H1  388   6.808   5.793   1.134  1.3431  1.0841 -2.4284
    1CHTO    C3  389   6.985   5.624   1.230 -0.1982 -0.1218  0.1312
    1CHTO   H16  390   7.038   5.653   1.138 -1.1197  0.9729 -0.0521
    1CHTO    N1  391   6.886   5.521   1.178 -0.1303 -0.6179 -0.0861
    1CHTO    H8  392   6.854   5.458   1.260  1.6390 -0.7954  0.5017
    1CHTO    H9  393   6.798   5.579   1.155  0.1717  0.4625  1.4517
    1CHTO    C4  394   7.090   5.558   1.330  0.0304 -0.2391  0.2831
    1CHTO   H17  395   7.037   5.499   1.404 -0.9553  0.1430 -0.1115
    1CHTO    O1  396   7.177   5.654   1.399  0.3301 -0.3026 -0.1338
    1CHTO    C5  397   7.114   5.764   1.473 -0.1230 -0.0815 -0.1070
    1CHTO   H18  398   7.050   5.739   1.558  0.0304 -0.1330 -0.0063
    1CHTO   C16  399   7.234   5.850   1.538  0.2635 -0.7941  0.0305
    1CHTO   O11  400   7.191   5.952   1.630 -0.3528  0.3398 -0.5566
    1CHTO    H5  401   7.206   6.029   1.579  2.0006 -0.6565 -1.4131
    1CHTO    O3  402   7.187   5.470   1.265 -0.2173 -0.5119  0.4353
    1CHTO    C6  403   7.232   5.351   1.341  0.6268  0.3906 -0.0965
    1CHTO   H19  404   7.249   5.383   1.444  2.3459 -0.7893 -0.0029
    1CHTO    C8  405   7.127   5.236   1.324 -0.4127 -0.2552  0.6096
    1CHTO   H21  406   7.112   5.217   1.218 -0.1605  1.4818  0.2466
    1CHTO    O7  407   7.006   5.271   1.392  0.3001  0.5860  0.5728
    1CHTO    H2  408   6.975   5.358   1.375 -0.3113  0.2076 -0.3227
    1CHTO   C12  409   7.187   5.106   1.398  0.0102 -0.0904  0.1758
    1CHTO   H25  410   7.194   5.139   1.504 -0.8532  1.2525 -0.1671
    1CHTO    N3  411   7.104   4.982   1.384  0.8429  0.7405 -0.5007
    1CHTO   H12  412   7.072   4.967   1.486  2.3798 -0.3527 -0.1498
    1CHTO   H13  413   7.027   4.996   1.311  1.5207  0.7655 -1.2217
    1CHTO   C15  414   7.331   5.073   1.353  0.4984 -0.4122  0.0370
    1CHTO   H28  415   7.334   5.043   1.248  0.5460  0.3752 -0.1895
    1CHTO   O10  416   7.398   4.962   1.440  0.1050 -0.4114  0.2865
    1CHTO    H4  417   7.414   4.989   1.528  2.4245 -1.7838  0.3175
    1CHTO    O5  418   7.413   5.190   1.377  0.3052 -0.0279 -0.5256
    1CHTO   C10  419   7.368   5.298   1.288 -0.5174  0.7070  0.8187
    1CHTO   H23  420   7.360   5.259   1.187 -1.3045  1.4704  0.5862
    1CHTO   C17  421   7.478   5.401   1.286  0.5450  0.0999 -0.3636
    1CHTO   O12  422   7.585   5.372   1.200  0.1490  0.2383  0.0516
    1CHTO    H6  423   7.631   5.296   1.230 -2.6624 -1.2377  0.8216
    2CHTO  H203  424   6.191   3.889   0.565 -0.0063 -1.0823  1.1156
    2CHTO   O82  425   6.135   3.826   0.525  0.0883 -0.4657 -0.0033
    2CHTO  C123  426   6.117   3.845   0.385 -0.2632 -0.1678 -0.3310
    2CHTO  H227  427   6.198   3.788   0.338 -1.1377 -0.3616 -1.6439
    2CHTO   O77  428   5.985   3.776   0.379  0.0986 -0.4153  0.1544
    2CHTO  C118  429   5.934   3.769   0.243  0.5153  0.6107  0.2367
    2CHTO  H222  430   6.004   3.718   0.175  0.1630 -1.8450  1.6620
    2CHTO  C125  431   5.810   3.678   0.257  0.0275 -0.1824 -0.2918
    2CHTO   O84  432   5.761   3.619   0.127  0.2622  0.5536 -0.3047
    2CHTO  H205  433   5.788   3.672   0.055  0.2175  1.1356  0.1031
    2CHTO  C114  434   5.909   3.911   0.195 -0.2901  0.2654  0.0894
    2CHTO  H218  435   5.846   3.959   0.271 -0.5612  0.7550 -0.4403
    2CHTO  C116  436   6.050   3.986   0.194 -0.0903 -0.0584  0.8195
    2CHTO  H220  437   6.128   3.938   0.131 -1.0092  0.4086 -0.6994
    2CHTO   O79  438   6.025   4.120   0.138  0.4143  0.0023 -0.1790
    2CHTO  H201  439   5.971   4.170   0.196 -0.7887  0.6159 -1.8047
    2CHTO  C120  440   6.106   3.989   0.338  0.1857  0.1416 -0.1100
    2CHTO  H224  441   6.025   4.033   0.401 -3.0830  0.0167 -4.0236
    2CHTO   N21  442   6.240   4.059   0.350 -0.3458  0.2240  0.2374
    2CHTO  H211  443   6.246   4.140   0.278  0.3745  0.5245  0.6353
    2CHTO  H212  444   6.229   4.105   0.447  2.2073  0.9148  0.2321
    2CHTO   O75  445   5.842   3.904   0.067 -0.3853 -0.4077  0.4537
    2CHTO  C112  446   5.746   3.997   0.035  0.1062 -0.3813  0.5882
    2CHTO  H216  447   5.763   4.087   0.096  2.8251 -1.1500  1.0368
    2CHTO   O73  448   5.619   3.933   0.061 -0.4038  0.2655 -0.5699
    2CHTO  C113  449   5.500   4.008   0.038  0.0289  0.1761  0.0982
    2CHTO  H217  450   5.495   4.085   0.117  2.3000  0.3868  0.0717
    2CHTO  C124  451   5.387   3.907   0.087 -0.1185  0.0519  0.4042
    2CHTO   O83  452   5.394   3.774   0.032 -0.3984 -0.0916 -0.1998
    2CHTO  H204  453   5.316   3.723   0.043  0.9185 -1.8352  1.2475
    2CHTO  C109  454   5.482   4.061  -0.111 -0.3255 -0.1259  0.2831
    2CHTO  H213  455   5.451   3.976  -0.174 -4.0280  0.5827  1.0017
    2CHTO  C110  456   5.618   4.115  -0.160  0.1725  0.2144 -0.1051
    2CHTO  H214  457   5.622   4.218  -0.123 -2.6008 -0.8536  3.4663
    2CHTO   O78  458   5.611   4.134  -0.301 -0.4180  0.0721 -0.4534
    2CHTO  H200  459   5.578   4.218  -0.325 -1.7604 -0.2272  0.3031
    2CHTO  C111  460   5.744   4.036  -0.120  0.5009  0.2485  0.1238
    2CHTO  H215  461   5.740   3.938  -0.171 -1.9913  0.7493 -0.6714
    2CHTO   N19  462   5.869   4.098  -0.163  0.1061  0.0040  0.6104
    2CHTO  H207  463   5.941   4.032  -0.208  0.4463 -0.4142  1.7519
    2CHTO  H208  464   5.911   4.163  -0.087  0.9811  0.8223 -0.5461
    2CHTO   O74  465   5.370   4.158  -0.110  0.4511 -0.1892 -0.4564
    2CHTO  C115  466   5.309   4.197  -0.243  0.2227  0.3080  0.0296
    2CHTO  H219  467   5.384   4.240  -0.309 -0.2981  0.8139 -0.2364
    2CHTO   O76  468   5.262   4.066  -0.327 -0.3532  0.6117 -0.1393
    2CHTO  C122  469   5.166   3.988  -0.253  0.5995  0.5920 -0.5538
    2CHTO  H226  470   5.226   3.942  -0.175 -0.4629  0.6400  0.3102
    2CHTO  C126  471   5.100   3.872  -0.354 -0.6775 -0.4677 -0.4521
    2CHTO   O85  472   5.192   3.822  -0.447 -0.5185  0.1111  0.4808
    2CHTO  H206  473   5.170   3.736  -0.476  0.2053  0.8257 -2.3171
    2CHTO  C121  474   5.051   4.071  -0.187  0.5852 -0.4917  0.1425
    2CHTO  H225  475   4.951   4.028  -0.206 -0.6540  2.8192 -1.2337
    2CHTO   O81  476   5.071   4.070  -0.041 -0.3220 -0.0502  0.0568
    2CHTO  H202  477   5.160   4.083  -0.015 -0.6135  2.6926 -0.1949
    2CHTO  C119  478   5.051   4.216  -0.234  0.0559 -0.3294 -0.3478
    2CHTO  H223  479   5.029   4.209  -0.341  2.9488 -1.2629 -0.9097
    2CHTO  C117  480   5.186   4.292  -0.206  0.0333  0.1844  0.0632
    2CHTO  H221  481   5.206   4.324  -0.104  2.7384 -1.8956  0.2423
    2CHTO   N20  482   5.199   4.414  -0.295 -0.3034  0.2231 -0.5734
    2CHTO  H209  483   5.296   4.462  -0.288  0.0159 -0.6542  1.6008
    2CHTO  H210  484   5.113   4.476  -0.275  0.9636  1.1267  2.3604
    2CHTO   O80  485   4.917   4.290  -0.163 -0.1411  0.6669 -0.5104
    2CHTO  C103  486   4.845   4.409  -0.248 -0.2159 -0.2703 -0.4138
    2CHTO  H190  487   4.924   4.473  -0.289  0.6711 -0.5929  0.7620
    2CHTO  C101  488   4.741   4.367  -0.357  0.6080  0.4467  0.4140
    2CHTO  H188  489   4.662   4.309  -0.307  0.9781 -0.6719 -0.2919
    2CHTO   O68  490   4.801   4.290  -0.443 -0.3362 -0.0171  0.6280
    2CHTO  H168  491   4.752   4.274  -0.522  0.1866  1.0487  0.0750
    2CHTO   C99  492   4.658   4.498  -0.412 -0.3987  0.0470  0.4432
    2CHTO  H186  493   4.731   4.559  -0.468  0.2483  0.3196  1.5741
    2CHTO   N17  494   4.539   4.454  -0.497  0.2983  0.3977 -0.0209
    2CHTO  H174  495   4.506   4.534  -0.561  1.2903  1.0269  0.2385
    2CHTO  H175  496   4.556   4.359  -0.547  0.7644 -0.3208  1.4695
    2CHTO   C97  497   4.609   4.594  -0.297 -0.7499  0.0521 -0.1917
    2CHTO  H184  498   4.523   4.541  -0.254 -1.0384 -0.6099 -1.5509
    2CHTO   O64  499   4.717   4.616  -0.200  0.3451 -0.1474  0.8647
    2CHTO  C104  500   4.766   4.493  -0.142 -0.4439  0.0421 -1.1168
    2CHTO  H191  501   4.679   4.435  -0.110 -0.5863  1.1186  0.5257
    2CHTO  C108  502   4.853   4.504  -0.012  0.1000 -0.8826 -0.0307
    2CHTO   O71  503   4.787   4.582   0.084 -0.4388 -0.4771 -0.4012
    2CHTO  H171  504   4.737   4.531   0.144 -1.5001 -0.1575 -1.0023
    2CHTO   O62  505   4.575   4.718  -0.343  0.0693 -0.1123 -0.2434
    2CHTO   C91  506   4.529   4.833  -0.262  0.0686 -0.0784  0.1125
    2CHTO  H178  507   4.529   4.793  -0.161  1.5317 -0.5344 -0.0643
    2CHTO   C92  508   4.376   4.865  -0.295  0.9941  0.5205 -0.3524
    2CHTO  H179  509   4.324   4.769  -0.310  2.3585 -0.1059 -1.2519
    2CHTO   O66  510   4.321   4.930  -0.182 -0.2443  0.0702 -0.1431
    2CHTO  H166  511   4.295   4.866  -0.119  3.0332 -1.8162 -0.6277
    2CHTO   C93  512   4.356   4.957  -0.413 -0.2268 -0.0736  0.1762
    2CHTO  H180  513   4.259   5.008  -0.398  0.6153  1.8021 -0.5835
    2CHTO   N16  514   4.338   4.889  -0.548  0.4622 -0.4020  0.2195
    2CHTO  H172  515   4.248   4.829  -0.556  0.7571 -0.5267 -3.1358
    2CHTO  H173  516   4.356   4.956  -0.631 -0.4789 -1.5318 -0.9286
    2CHTO   C94  517   4.459   5.075  -0.426  0.0457 -0.6024 -0.5325
    2CHTO  H181  518   4.535   5.056  -0.502  0.3469 -0.1153 -0.3589
    2CHTO   O61  519   4.537   5.084  -0.302 -0.0924 -0.5228  0.1629
    2CHTO   C95  520   4.616   4.968  -0.274  0.5647  0.3829  0.3308
    2CHTO  H182  521   4.690   4.958  -0.353  1.5849  0.1536  1.2905
    2CHTO  C106  522   4.689   5.010  -0.151 -0.5142  0.4512 -0.8115
    2CHTO   O69  523   4.779   5.111  -0.174  0.2156  0.0053  0.3259
    2CHTO  H169  524   4.744   5.190  -0.211  0.4454  0.6379  1.4304
    2CHTO   O63  525   4.385   5.222  -0.461  0.4798 -0.3694  0.1493
    2CHTO   C96  526   4.471   5.359  -0.446 -0.5292  0.2272 -0.7992
    2CHTO  H183  527   4.576   5.332  -0.441 -0.5858  0.1965  0.5391
    2CHTO   C98  528   4.437   5.454  -0.325 -0.6324  0.6645 -0.0487
    2CHTO  H185  529   4.329   5.444  -0.313 -0.7848  0.6989 -1.3164
    2CHTO   O67  530   4.494   5.398  -0.209 -0.3068 -0.0573 -0.1192
    2CHTO  H167  531   4.585   5.415  -0.193 -0.5646  0.1924  1.1552
    2CHTO  C102  532   4.479   5.608  -0.342  0.0374 -0.1754 -0.0692
    2CHTO  H189  533   4.589   5.611  -0.341  0.0866 -2.1400  1.0089
    2CHTO   N18  534   4.434   5.701  -0.230 -0.7225 -0.0468  0.4593
    2CHTO  H176  535   4.327   5.718  -0.236 -0.4362  1.3670 -0.7142
    2CHTO  H177  536   4.474   5.799  -0.248  0.5447 -0.5375  0.5821
    2CHTO  C105  537   4.446   5.653  -0.485 -0.2363  0.4540 -0.0558
    2CHTO  H192  538   4.338   5.648  -0.499 -0.2360 -0.5189  0.2839
    2CHTO   O65  539   4.507   5.577  -0.584  0.6702 -0.2282 -0.1093
    2CHTO  C100  540   4.461   5.437  -0.581 -0.2634 -0.3445  0.0694
    2CHTO  H187  541   4.356   5.429  -0.613 -0.4634  1.4626  0.2147
    2CHTO  C107  542   4.545   5.367  -0.687  0.5285 -0.7668 -0.0769
    2CHTO   O70  543   4.478   5.245  -0.731 -0.0248  0.0467  0.0355
    2CHTO  H170  544   4.491   5.177  -0.668 -2.2571  0.6403  1.1837
    2CHTO   O57  545   4.507   5.809  -0.508  0.4778  0.4493 -0.0283
    2CHTO   C85  546   4.457   5.913  -0.587  0.3370 -0.0655  0.0802
    2CHTO  H157  547   4.358   5.945  -0.549  0.2736  0.3256 -0.3940
    2CHTO   C83  548   4.417   5.862  -0.728  0.6880  0.2304 -0.3322
    2CHTO  H155  549   4.336   5.791  -0.714 -0.1967  1.2789 -0.1181
    2CHTO   O56  550   4.519   5.789  -0.796 -0.5097 -0.8199  0.2879
    2CHTO  H135  551   4.604   5.828  -0.789 -1.3162  1.0510 -0.2215
    2CHTO   C81  552   4.360   5.986  -0.805 -0.4798 -0.1000  0.5445
    2CHTO  H153  553   4.274   6.024  -0.750  0.3726  1.5120  0.8068
    2CHTO   N14  554   4.301   5.951  -0.937  0.6874 -0.6308  0.1704
    2CHTO  H141  555   4.237   6.028  -0.973  3.2126  0.7498 -1.5517
    2CHTO  H142  556   4.379   5.939  -1.010  1.9955  0.0939  1.4172
    2CHTO   C79  557   4.466   6.106  -0.809 -0.0251  0.5316 -0.0212
    2CHTO  H151  558   4.422   6.188  -0.866  2.0154  0.1930 -2.1706
    2CHTO   O52  559   4.498   6.145  -0.675 -0.0517  0.1725 -0.9744
    2CHTO   C86  560   4.555   6.033  -0.594 -0.2958  0.0434  0.3734
    2CHTO  H158  561   4.648   6.014  -0.651  1.8548  2.6628  2.8330
    2CHTO   C90  562   4.599   6.093  -0.454  0.1069  0.0389 -0.0073
    2CHTO   O60  563   4.675   6.000  -0.378  0.1153  0.1252 -0.4910
    2CHTO  H138  564   4.744   6.047  -0.336  0.4678 -0.3157 -0.5751
    2CHTO   O50  565   4.580   6.067  -0.883 -0.1645  0.1714  0.4801
    2CHTO   C73  566   4.665   6.121  -0.985 -0.0475  0.2260  0.4165
    2CHTO  H145  567   4.628   6.220  -1.017 -1.1621  0.0743  1.2327
    2CHTO   C74  568   4.669   6.031  -1.116  0.5153  0.3076  0.1711
    2CHTO  H146  569   4.567   6.004  -1.149  1.2200 -1.3777 -0.7213
    2CHTO   O54  570   4.726   6.106  -1.222 -0.1449 -0.3294 -0.3936
    2CHTO  H133  571   4.709   6.057  -1.300 -2.7529 -3.0969  1.7699
    2CHTO   C75  572   4.753   5.900  -1.088  0.2222  0.1176  0.1800
    2CHTO  H147  573   4.697   5.839  -1.016 -0.4779  0.9992  0.3897
    2CHTO   N13  574   4.781   5.816  -1.203 -0.2423 -0.2486  0.2373
    2CHTO  H139  575   4.846   5.734  -1.175  1.2397  1.6858  2.6667
    2CHTO  H140  576   4.705   5.772  -1.266  0.0517  0.2503 -0.4728
    2CHTO   C76  577   4.894   5.932  -1.010  0.1089 -0.2542  0.5553
    2CHTO  H148  578   4.964   5.989  -1.071 -0.2468 -1.5691 -1.1242
    2CHTO   O49  579   4.868   6.018  -0.894  0.3360 -0.4091  0.3960
    2CHTO   C77  580   4.812   6.142  -0.942 -0.7210  0.6889 -0.4840
    2CHTO  H149  581   4.868   6.178  -1.028  0.0832 -0.5148 -0.4891
    2CHTO   C88  582   4.828   6.240  -0.823  0.2091  0.4723 -0.0220
    2CHTO   O58  583   4.973   6.255  -0.789  0.1484  0.2538  0.4748
    2CHTO  H136  584   5.025   6.270  -0.866 -0.0673 -1.4753 -0.0443
    2CHTO   O51  585   4.954   5.797  -0.953  0.1405 -0.3113 -0.4675
    2CHTO   C78  586   5.036   5.814  -0.815 -0.5853  0.0354 -1.1573
    2CHTO  H150  587   5.042   5.920  -0.783 -0.4101 -0.4951  0.6494
    2CHTO   C80  588   5.182   5.756  -0.835  0.1624 -0.4347  0.0181
    2CHTO  H152  589   5.175   5.647  -0.856  1.0433 -0.8209  1.6498
    2CHTO   O55  590   5.247   5.826  -0.948  0.0672  0.7912 -0.1020
    2CHTO  H134  591   5.221   5.789  -1.030 -1.3972 -0.6617  0.9757
    2CHTO   C84  592   5.267   5.764  -0.701  0.5113 -0.4701 -0.8744
    2CHTO  H156  593   5.274   5.871  -0.685  1.9151 -0.3110 -2.4554
    2CHTO   N15  594   5.402   5.711  -0.726 -0.3487  0.5212  0.6470
    2CHTO  H143  595   5.439   5.762  -0.813 -0.5737 -0.9214 -0.3192
    2CHTO  H144  596   5.408   5.606  -0.744  0.7396  0.4526  1.3207
    2CHTO   C87  597   5.187   5.679  -0.601 -0.6262  0.2041 -0.1365
    2CHTO  H159  598   5.175   5.578  -0.638 -0.5065  0.4741 -0.9109
    2CHTO   O53  599   5.062   5.743  -0.581 -0.2689  0.4647 -0.3850
    2CHTO   C82  600   4.974   5.736  -0.699  0.4106 -0.0731 -0.6723
    2CHTO  H154  601   4.960   5.631  -0.727 -1.8832  0.2862 -0.9360
    2CHTO   C89  602   4.831   5.800  -0.669  0.0253  0.2438  1.0348
    2CHTO   O59  603   4.770   5.716  -0.566  0.0534 -0.3594  0.3044
    2CHTO  H137  604   4.809   5.713  -0.481  1.8064 -1.8959 -0.5016
    2CHTO   O45  605   5.252   5.671  -0.449 -0.1974  0.3080  0.6322
    2CHTO   C67  606   5.160   5.627  -0.348  1.1170 -0.8630 -0.4072
    2CHTO  H124  607   5.073   5.693  -0.348  1.1296 -0.8083  2.2007
    2CHTO   C65  608   5.106   5.487  -0.362  0.1259  1.4553 -0.1745
    2CHTO  H122  609   5.166   5.441  -0.440 -1.6057 -0.7769 -0.2630
    2CHTO   O44  610   4.960   5.490  -0.402 -0.2106 -0.0179  0.3237
    2CHTO  H102  611   4.944   5.406  -0.440  0.5089 -0.5505  1.1787
    2CHTO   C63  612   5.137   5.393  -0.235 -0.4919 -0.8001 -0.3701
    2CHTO  H120  613   5.245   5.385  -0.217 -0.5623 -0.4990  0.2168
    2CHTO   N11  614   5.097   5.246  -0.248 -0.3861 -0.3911  0.5011
    2CHTO  H108  615   5.172   5.183  -0.205  1.8080 -0.8199 -3.6706
    2CHTO  H109  616   5.073   5.218  -0.349 -0.4382  3.3942 -0.6250
    2CHTO   C61  617   5.083   5.468  -0.108  0.3945  0.5322  0.1691
    2CHTO  H118  618   5.104   5.410  -0.017 -2.7601  0.1489  0.7337
    2CHTO   O40  619   5.150   5.594  -0.094 -0.0959  0.0677  0.2785
    2CHTO   C68  620   5.233   5.645  -0.205 -0.5132 -0.4724 -0.4650
    2CHTO  H125  621   5.326   5.586  -0.196 -0.8162 -1.1809 -1.8857
    2CHTO   C72  622   5.263   5.791  -0.182  0.1008  0.0245 -0.1190
    2CHTO   O48  623   5.145   5.869  -0.190  0.4528 -0.5726 -0.5156
    2CHTO  H105  624   5.157   5.952  -0.233  2.4985 -1.6889 -2.1812
    2CHTO   O38  625   4.943   5.504  -0.117  1.0168 -0.1382  0.1217
    2CHTO   C55  626   4.875   5.526   0.013 -0.3091  0.1379 -0.0773
    2CHTO  H112  627   4.935   5.546   0.103 -1.4578  0.4139  0.6423
    2CHTO   C56  628   4.779   5.400   0.034 -0.3727 -0.1918  0.2678
    2CHTO  H113  629   4.730   5.392  -0.064 -0.7122  0.7582  0.3618
    2CHTO   O42  630   4.869   5.292   0.045  0.5350 -0.1544  0.3117
    2CHTO  H100  631   4.873   5.248  -0.038 -0.2530 -0.1028  0.2472
    2CHTO   C57  632   4.685   5.410   0.163 -0.0700 -1.0443 -0.0070
    2CHTO  H114  633   4.751   5.414   0.250  1.9914 -0.7184 -1.5614
    2CHTO   N10  634   4.594   5.300   0.187  0.3208 -0.5437  0.5460
    2CHTO  H106  635   4.505   5.317   0.128 -1.1892 -2.4353  2.2198
    2CHTO  H107  636   4.566   5.293   0.291  0.6595  1.7752  0.8195
    2CHTO   C58  637   4.610   5.544   0.159  0.5232 -0.1593  0.1402
    2CHTO  H115  638   4.531   5.546   0.081  0.5016  0.1144  0.1698
    2CHTO   O37  639   4.697   5.653   0.136 -0.5813 -0.1363 -0.3189
    2CHTO   C59  640   4.778   5.651   0.015  0.1782 -0.3697 -0.1388
    2CHTO  H116  641   4.710   5.654  -0.070 -0.6488  0.4627  0.5437
    2CHTO   C70  642   4.869   5.775   0.013  0.2830  0.0359 -0.1091
    2CHTO   O46  643   4.803   5.900   0.041  0.0953 -0.5117 -0.4313
    2CHTO  H103  644   4.739   5.923  -0.024 -0.6940  0.5979  0.7156
    2CHTO   O39  645   4.548   5.582   0.302 -0.3781  0.5944 -0.5507
    2CHTO   C60  646   4.416   5.632   0.321  0.1116 -0.3156 -0.4901
    2CHTO  H117  647   4.369   5.660   0.227  0.5530 -2.2006 -1.2801
    2CHTO   C62  648   4.325   5.526   0.397 -0.8126  0.3632  0.2820
    2CHTO  H119  649   4.328   5.435   0.334  0.7705 -0.4716  1.5020
    2CHTO   O43  650   4.392   5.496   0.522 -0.1804 -0.4391  0.0432
    2CHTO  H101  651   4.459   5.432   0.507 -0.7436 -0.7269 -1.4004
    2CHTO   C66  652   4.178   5.585   0.416  0.0742 -0.2756  0.2483
    2CHTO  H123  653   4.140   5.605   0.316  1.1075  3.1369  0.4854
    2CHTO   N12  654   4.088   5.474   0.467  1.0647  0.7241 -0.1395
    2CHTO  H110  655   4.106   5.445   0.569  1.0180  2.3700  0.3559
    2CHTO  H111  656   4.085   5.380   0.414  0.0163 -0.1141  1.3977
    2CHTO   C69  657   4.169   5.716   0.497  0.4584 -0.1506 -0.7245
    2CHTO  H126  658   4.192   5.687   0.602  0.3024 -0.1999 -0.7044
    2CHTO   O41  659   4.280   5.814   0.434 -0.4394 -0.2409 -0.3650
    2CHTO   C64  660   4.422   5.757   0.407  0.0756 -0.5942  0.9159
    2CHTO  H121  661   4.468   5.735   0.505 -0.7074  1.0755  1.6751
    2CHTO   C71  662   4.514   5.867   0.344 -0.1015  1.4834  0.9182
    2CHTO   O47  663   4.433   5.943   0.262 -0.5336 -0.9041 -0.0862
    2CHTO  H104  664   4.438   6.030   0.297 -0.1319 -0.6890 -0.6764
    2CHTO   O34  665   4.031   5.788   0.493 -0.0617  0.0823  0.5387
    2CHTO   C49  666   3.945   5.871   0.398 -0.3102  0.0909 -0.9901
    2CHTO   H91  667   3.849   5.871   0.450 -0.4046 -2.4555 -1.1024
    2CHTO   C47  668   3.933   5.816   0.250  0.2610 -0.2719 -0.1022
    2CHTO   H89  669   3.866   5.881   0.190  1.6759  0.3282 -1.0599
    2CHTO   O33  670   3.895   5.675   0.245  0.6160  0.0408  0.1318
    2CHTO   H70  671   3.808   5.678   0.280  1.7712  3.6703  3.0330
    2CHTO   C45  672   4.072   5.838   0.176 -0.4941  0.2527  0.0848
    2CHTO   H87  673   4.145   5.779   0.233 -0.3947 -0.9786 -1.2784
    2CHTO    N8  674   4.077   5.793   0.032  0.7656  0.0457 -0.2723
    2CHTO   H75  675   4.178   5.803  -0.003  0.5354 -1.7939 -1.5379
    2CHTO   H76  676   4.043   5.690   0.024  1.1891 -0.0827 -0.4481
    2CHTO   C43  677   4.120   5.998   0.186 -0.0306  0.4180 -0.9308
    2CHTO   H85  678   4.220   6.008   0.144 -0.2461 -2.8305 -2.3423
    2CHTO   O29  679   4.112   6.045   0.323  0.1179  0.1986 -0.5981
    2CHTO   C50  680   3.997   6.017   0.404 -0.1905 -0.3852 -0.4691
    2CHTO   H92  681   4.028   6.025   0.509 -1.9077 -3.8253  0.3403
    2CHTO   C54  682   3.878   6.109   0.385  0.4252  0.5118  0.1316
    2CHTO   O36  683   3.909   6.243   0.419 -0.0989 -0.4883 -0.5278
    2CHTO   H72  684   3.847   6.308   0.394  0.0195  0.9992  2.7854
    2CHTO   O27  685   4.037   6.088   0.117 -0.2949  0.1089  0.1463
    2CHTO   C37  686   4.022   6.210   0.042  0.4680  0.3812  0.1914
    2CHTO   H79  687   4.031   6.188  -0.066  0.1859  0.1135  0.2209
    2CHTO   C38  688   3.881   6.263   0.043 -0.1109  0.0051  0.0892
    2CHTO   H80  689   3.848   6.277   0.147 -4.2605 -1.8947 -0.8510
    2CHTO   O31  690   3.792   6.166  -0.022  0.0227 -0.3783 -0.0038
    2CHTO   H68  691   3.735   6.213  -0.080 -2.0821 -2.2458  0.4590
    2CHTO   C39  692   3.868   6.404  -0.022 -0.7002 -0.1382  0.0077
    2CHTO   H81  693   3.875   6.392  -0.130  1.9946  2.9025 -0.2410
    2CHTO    N7  694   3.731   6.463   0.009 -0.2642  0.6903 -0.4583
    2CHTO   H73  695   3.698   6.444   0.110  1.2786  1.3411  0.1775
    2CHTO   H74  696   3.649   6.441  -0.058 -0.2761  1.6003 -0.7490
    2CHTO   C40  697   3.982   6.501   0.030 -0.4826  0.6580 -0.4468
    2CHTO   H82  698   3.966   6.511   0.137  1.1509 -3.0090  0.2051
    2CHTO   O26  699   4.113   6.437   0.003 -0.3740 -0.4234  0.3472
    2CHTO   C41  700   4.131   6.323   0.085  1.2597  0.0923  0.2314
    2CHTO   H83  701   4.099   6.345   0.188  2.4467 -0.1385  0.6556
    2CHTO   C52  702   4.282   6.286   0.079  1.0288 -0.1941 -0.7423
    2CHTO   O35  703   4.325   6.234  -0.044  0.1817  0.3025 -0.4568
    2CHTO   H71  704   4.323   6.305  -0.105  1.0278  0.2452 -0.5560
    2CHTO   O28  705   3.991   6.629  -0.036 -0.1483  0.2509  0.2872
    2CHTO   C42  706   4.059   6.746   0.021  0.0489  0.2724 -0.2784
    2CHTO   H84  707   4.096   6.802  -0.065 -0.9530  1.2378 -0.0938
    2CHTO   C44  708   4.191   6.714   0.103  0.0109  0.6015  0.0960
    2CHTO   H86  709   4.172   6.633   0.173  1.3613 -0.1465 -0.3613
    2CHTO   O32  710   4.284   6.658   0.006 -0.3507  0.0865  0.0126
    2CHTO   H69  711   4.329   6.725  -0.043  3.7000 -0.9659  2.0955
    2CHTO   C48  712   4.247   6.836   0.189  0.2811 -0.0160 -0.9195
    2CHTO   H90  713   4.291   6.902   0.115  3.1787  0.6649  1.3267
    2CHTO    N9  714   4.361   6.795   0.270 -0.1494  0.4840 -0.0700
    2CHTO   H77  715   4.362   6.843   0.367  1.0982 -0.7291  0.5195
    2CHTO   H78  716   4.454   6.825   0.224  1.4407  0.6434  3.0887
    2CHTO   C51  717   4.135   6.912   0.259  0.0033  0.0193  0.2068
    2CHTO   H93  718   4.094   6.857   0.343  3.2384  0.2067  2.0226
    2CHTO   O30  719   4.036   6.955   0.157  0.1347  0.4244 -0.2687
    2CHTO   C46  720   3.964   6.842   0.100 -0.1213 -0.4780  0.1615
    2CHTO   H88  721   3.916   6.780   0.175 -0.5922  0.7883  0.9251
    2CHTO   C53  722   3.858   6.900   0.002  0.2620  0.1471 -0.0916
    2CHTO   O72  723   3.774   6.790  -0.047  0.5752 -0.3743  0.0355
    2CHTO  H199  724   3.826   6.737  -0.104 -0.2961 -0.3685 -0.7733
    2CHTO   O22  725   4.183   7.039   0.314  0.2675 -0.1606 -0.1588
    2CHTO   C31  726   4.124   7.092   0.439 -0.0423 -0.3686  0.4890
    2CHTO   H59  727   4.169   7.194   0.447  2.2863 -1.2445 -0.9001
    2CHTO   C29  728   3.970   7.107   0.438  0.1935  0.0865 -0.6127
    2CHTO   H57  729   3.941   7.010   0.394 -1.5382  1.0081 -1.5268
    2CHTO   O21  730   3.942   7.201   0.332 -0.2467 -0.1471  0.4937
    2CHTO   H37  731   3.916   7.286   0.362  3.2668  0.1382  3.0585
    2CHTO   C27  732   3.906   7.136   0.581  0.3702 -0.1872 -0.0151
    2CHTO   H55  733   3.955   7.230   0.612 -0.0974  1.0320 -2.8531
    2CHTO    N5  734   3.760   7.156   0.575  0.1580 -0.2256 -0.1970
    2CHTO   H43  735   3.739   7.232   0.501 -2.5148 -0.8044 -0.0711
    2CHTO   H44  736   3.729   7.194   0.671 -1.1499 -1.3863 -0.1519
    2CHTO   C25  737   3.958   7.024   0.677 -0.2643 -0.1356  0.7066
    2CHTO   H53  738   3.936   6.923   0.639  1.2023 -0.3232  0.2943
    2CHTO   O17  739   4.105   7.035   0.683 -0.2538  0.5703 -0.2868
    2CHTO   C32  740   4.180   7.014   0.564 -0.0380  0.3739  0.5289
    2CHTO   H60  741   4.161   6.908   0.550 -0.5497  0.8406 -2.6740
    2CHTO   C36  742   4.334   7.039   0.597 -0.9086  0.3456  0.2439
    2CHTO   O25  743   4.371   6.961   0.710 -0.2348 -0.2179 -0.1690
    2CHTO   H40  744   4.375   6.871   0.685 -0.7358 -0.2581 -0.1002
    2CHTO   O15  745   3.907   7.023   0.806  0.0514 -0.1446 -0.3307
    2CHTO   C19  746   3.817   6.959   0.902 -0.3920 -0.1169 -0.4749
    2CHTO   H47  747   3.723   7.015   0.892 -0.7198 -0.5674  0.0322
    2CHTO   C20  748   3.778   6.801   0.877  0.6870 -0.2905 -1.0815
    2CHTO   H48  749   3.866   6.735   0.881 -0.3684 -1.7146 -0.7575
    2CHTO   O19  750   3.727   6.795   0.740  0.3212 -0.1505  0.8225
    2CHTO   H35  751   3.727   6.707   0.707  1.8903  0.3883 -0.6706
    2CHTO   C21  752   3.678   6.750   0.988  0.6845 -0.6276 -0.1362
    2CHTO   H49  753   3.585   6.805   0.973  0.8226 -0.1014  0.8945
    2CHTO    N4  754   3.634   6.609   0.986 -0.2837 -0.6283 -0.0361
    2CHTO   H41  755   3.652   6.555   1.078  2.6174 -1.9439 -1.2951
    2CHTO   H42  756   3.539   6.593   0.936  0.1183  0.4088 -1.1500
    2CHTO   C22  757   3.728   6.794   1.131 -0.5285  0.0065  0.4367
    2CHTO   H50  758   3.823   6.743   1.141  0.3352  0.7828 -3.0869
    2CHTO   O14  759   3.752   6.936   1.127 -0.2753 -0.0877 -0.4042
    2CHTO   C23  760   3.859   6.976   1.043  0.2444  0.1248 -0.1821
    2CHTO   H51  761   3.954   6.926   1.064  2.1204  2.6675 -2.2438
    2CHTO   C34  762   3.882   7.122   1.072 -0.2978  0.1908 -0.1151
    2CHTO   O23  763   3.942   7.140   1.199  0.8422 -0.3805  0.1641
    2CHTO   H38  764   4.034   7.157   1.200  0.5386  1.4712 -0.1956
    2CHTO   O16  765   3.636   6.759   1.234 -0.6404 -0.4001  0.3499
    2CHTO   C24  766   3.710   6.732   1.373  0.8434  0.0095 -0.1608
    2CHTO   H52  767   3.818   6.745   1.368  1.0212 -1.1291  0.5340
    2CHTO   C26  768   3.680   6.583   1.410 -0.3786 -0.1759  0.4167
    2CHTO   H54  769   3.570   6.568   1.403 -0.4175 -0.7412  1.9146
    2CHTO   O20  770   3.745   6.498   1.315  0.1662 -0.0093  0.1635
    2CHTO   H36  771   3.701   6.416   1.321  0.2584  0.0987  2.5779
    2CHTO   C30  772   3.736   6.545   1.555 -0.0340  0.1862  0.5729
    2CHTO   H58  773   3.845   6.532   1.550  0.0273  0.4334  1.2919
    2CHTO    N6  774   3.676   6.414   1.596 -0.9211 -0.4378  0.2213
    2CHTO   H45  775   3.736   6.325   1.610  1.2520  1.0347  0.5854
    2CHTO   H46  776   3.586   6.389   1.542 -0.1881 -1.2166 -0.6544
    2CHTO   C33  777   3.704   6.655   1.662  0.1663 -0.2421  0.3883
    2CHTO   H61  778   3.598   6.641   1.687  0.8351 -0.8872  2.9448
    2CHTO   O18  779   3.725   6.790   1.614 -0.0135  0.3875 -0.7402
    2CHTO   C28  780   3.655   6.819   1.490 -0.7311 -0.3462 -0.4796
    2CHTO   H56  781   3.550   6.792   1.503 -0.3801 -1.9442 -0.8670
    2CHTO   C35  782   3.682   6.973   1.454 -0.3428 -0.1094 -0.5519
    2CHTO   O24  783   3.625   7.053   1.562  0.2168  0.0920  0.0499
    2CHTO   H39  784   3.679   7.130   1.566 -1.0256  1.0658 -1.3409
    2CHTO    O9  785   3.781   6.638   1.785  0.3501  0.1305  0.0418
    2CHTO   C13  786   3.701   6.666   1.929  0.2594  0.0911  1.0532
    2CHTO   H26  787   3.594   6.640   1.924 -0.4446  2.8259  1.1352
    2CHTO   C11  788   3.721   6.815   1.964 -0.1471 -0.0630 -0.1205
    2CHTO   H24  789   3.660   6.872   1.893  0.5567 -0.0648 -0.7350
    2CHTO    O8  790   3.861   6.851   1.950  0.1674 -0.3212 -0.2487
    2CHTO    H3  791   3.866   6.943   1.930  0.6349 -0.5738 -1.3105
    2CHTO    C9  792   3.657   6.842   2.101  0.4094 -1.1167 -0.0131
    2CHTO   H22  793   3.551   6.812   2.094  0.4910 -1.2108 -0.8020
    2CHTO    N2  794   3.649   6.983   2.130 -0.0043 -0.3358  0.1193
    2CHTO   H10  795   3.593   6.992   2.222 -2.4943 -0.7782 -1.3012
    2CHTO   H11  796   3.745   7.029   2.144 -0.4414  0.1458  1.6630
    2CHTO    C7  797   3.729   6.756   2.210 -0.1278  0.1335  0.0724
    2CHTO   H20  798   3.667   6.756   2.303 -1.4324 -1.7690 -0.7726
    2CHTO    O4  799   3.728   6.616   2.180  0.5294 -0.7679 -0.1356
    2CHTO   C14  800   3.763   6.573   2.047 -0.5481  0.3887 -0.1213
    2CHTO   H27  801   3.715   6.474   2.032  1.4707 -1.2397  3.3542
    2CHTO   C18  802   3.921   6.551   2.033 -0.3235  0.1742 -0.1699
    2CHTO   O13  803   3.967   6.451   1.937 -1.0619 -0.0731 -0.3873
    2CHTO    H7  804   3.959   6.476   1.847 -3.9845 -1.5389 -0.5887
    2CHTO    O2  805   3.889   6.797   2.256 -0.0527  0.4832  0.9729
    2CHTO    C1  806   3.927   6.846   2.384 -0.4392  0.2836  0.8539
    2CHTO   H14  807   3.833   6.855   2.441 -0.0132  0.1156  1.5965
    2CHTO    C2  808   4.002   6.980   2.378 -0.3773  0.4061 -0.4082
    2CHTO   H15  809   4.093   6.968   2.318  0.2345 -0.6786  0.7211
    2CHTO    O6  810   3.916   7.072   2.315  0.3302 -0.1562  1.0006
    2CHTO    H1  811   3.939   7.161   2.329 -2.6013  0.7874  0.2026
    2CHTO    C3  812   4.053   7.041   2.519 -0.1433  0.6483  0.4131
    2CHTO   H16  813   3.974   7.067   2.590 -0.0014  0.0812  0.7867
    2CHTO    N1  814   4.136   7.168   2.496  0.2337 -0.2833  0.0179
    2CHTO    H8  815   4.235   7.154   2.454 -1.1751  0.0348 -3.6771
    2CHTO    H9  816   4.128   7.227   2.586  1.4430  1.2500 -0.8430
    2CHTO    C4  817   4.129   6.934   2.591 -0.4263  0.0207  0.5334
    2CHTO   H17  818   4.226   6.921   2.542 -0.8287  0.2308 -0.3194
    2CHTO    O1  819   4.048   6.813   2.593 -0.1430 -0.3165  0.0090
    2CHTO    C5  820   4.024   6.754   2.465 -0.5409 -0.2612 -0.3402
    2CHTO   H18  821   4.118   6.744   2.410 -0.1841  0.5770  0.1220
    2CHTO   C16  822   3.957   6.614   2.494 -0.2554  0.1258 -0.3122
    2CHTO   O11  823   3.942   6.524   2.387 -0.3943  0.9501  0.3441
    2CHTO    H5  824   4.025   6.502   2.350 -0.2532  0.4717  0.9295
    2CHTO    O3  825   4.155   6.953   2.731  0.2437 -0.0984 -0.0523
    2CHTO    C6  826   4.253   6.860   2.788 -0.0046  0.3851  0.4181
    2CHTO   H19  827   4.279   6.785   2.713 -0.0873  1.3316 -0.5724
    2CHTO    C8  828   4.380   6.939   2.834 -0.2088  0.2121 -0.6784
    2CHTO   H21  829   4.345   7.012   2.907  0.5382  0.0864 -0.1849
    2CHTO    O7  830   4.441   7.009   2.724  0.3951  0.0279 -0.2505
    2CHTO    H2  831   4.473   6.942   2.666  0.0909 -0.8473  0.5884
    2CHTO   C12  832   4.486   6.842   2.905 -0.0545  0.2867 -0.2497
    2CHTO   H25  833   4.526   6.772   2.829  0.8039 -0.2863  0.7091
    2CHTO    N3  834   4.614   6.911   2.943 -0.0692  0.1404  0.1203
    2CHTO   H12  835   4.613   7.014   2.911  0.3473 -0.7851 -3.1233
    2CHTO   H13  836   4.693   6.869   2.881 -0.1382  2.9398 -1.9177
    2CHTO   C15  837   4.414   6.762   3.021 -0.3042 -0.5104  0.8228
    2CHTO   H28  838   4.383   6.832   3.099  1.4087  1.0550  0.0961
    2CHTO   O10  839   4.492   6.643   3.071  0.0987 -0.2067  0.4088
    2CHTO    H4  840   4.584   6.661   3.071  0.1368 -0.4025 -1.0450
    2CHTO    O5  841   4.296   6.694   2.970 -0.2714  0.3089  0.5404
    2CHTO   C10  842   4.199   6.785   2.911  0.5109  0.0483  0.2282
    2CHTO   H23  843   4.179   6.851   2.996  3.5226 -2.6082  3.1296
    2CHTO   C17  844   4.072   6.700   2.883 -0.5699  0.5034 -0.2562
    2CHTO   O12  845   4.094   6.575   2.816 -0.2345 -0.5439 -0.0232
    2CHTO    H6  846   4.069   6.502   2.870  1.0987  1.7244  3.8514
    3CHTO  H203  847   6.985   1.182   2.339  0.2788 -0.6630 -2.3394
    3CHTO   O82  848   6.903   1.215   2.307 -0.1169  0.4933 -0.1514
    3CHTO  C123  849   6.937   1.309   2.201  0.3167  0.4269  0.4623
    3CHTO  H227  850   6.986   1.250   2.122  0.4689 -0.3502  1.1344
    3CHTO   O77  851   6.806   1.354   2.164 -0.9194 -0.2888 -0.0208
    3CHTO  C118  852   6.811   1.459   2.068  1.1186  0.1024 -0.5511
    3CHTO  H222  853   6.853   1.408   1.980 -2.0707 -0.2131 -1.9630
    3CHTO  C125  854   6.662   1.496   2.036  0.1453 -0.0064  0.1243
    3CHTO   O84  855   6.585   1.387   1.999  0.5369 -0.2070 -0.0916
    3CHTO  H205  856   6.492   1.398   2.011  0.7463  0.2586  1.2727
    3CHTO  C114  857   6.903   1.582   2.109 -0.0066 -0.8379  0.2053
    3CHTO  H218  858   6.862   1.633   2.197 -1.8473 -0.4454 -0.8393
    3CHTO  C116  859   7.048   1.534   2.145 -0.7053 -0.0736  0.4079
    3CHTO  H220  860   7.099   1.482   2.061  0.6685 -0.6392  1.5700
    3CHTO   O79  861   7.124   1.650   2.183  1.0988  0.5239  0.1264
    3CHTO  H201  862   7.213   1.649   2.153  1.1961 -0.6508  0.4166
    3CHTO  C120  863   7.027   1.425   2.260  0.7294  0.9274  0.1936
    3CHTO  H224  864   6.982   1.471   2.351  2.4172  1.8239  0.5981
    3CHTO   N21  865   7.155   1.366   2.311  0.1176  0.1572 -0.2255
    3CHTO  H211  866   7.218   1.355   2.223 -0.1921 -2.6050 -0.1370
    3CHTO  H212  867   7.200   1.430   2.386  1.7479 -0.0179 -1.0263
    3CHTO   O75  868   6.879   1.672   1.996 -0.5001  0.0605 -0.6176
    3CHTO  C112  869   6.956   1.618   1.842 -0.4211 -0.5594 -0.2561
    3CHTO  H216  870   6.926   1.513   1.829 -1.2820 -0.6598  2.2809
    3CHTO   O73  871   7.098   1.633   1.859 -0.0429  0.0744  0.2957
    3CHTO  C113  872   7.183   1.606   1.749 -0.3472  0.5742  1.0259
    3CHTO  H217  873   7.239   1.515   1.780  0.6826  0.4129 -1.2161
    3CHTO  C124  874   7.265   1.737   1.742 -0.4384  0.2238  0.5077
    3CHTO   O83  875   7.345   1.750   1.861  0.5871 -0.1448 -0.2287
    3CHTO  H204  876   7.315   1.821   1.915 -1.1953 -0.6183 -0.5602
    3CHTO  C109  877   7.117   1.566   1.618  0.2368  0.5022  0.0661
    3CHTO  H213  878   7.201   1.565   1.546  0.3551 -3.0763  0.1655
    3CHTO  C110  879   6.995   1.663   1.589 -0.2567  0.2379  0.5797
    3CHTO  H214  880   6.937   1.612   1.512  0.3281  2.3705 -1.3386
    3CHTO   O78  881   7.039   1.775   1.511 -0.4400  0.0302  0.2505
    3CHTO  H200  882   6.973   1.839   1.490  0.1819  0.3612 -0.7347
    3CHTO  C111  883   6.913   1.705   1.710  0.1210  0.0509 -0.2086
    3CHTO  H215  884   6.938   1.807   1.744  0.1724 -0.4514  1.2587
    3CHTO   N19  885   6.763   1.699   1.690  0.1264  0.1816  0.2997
    3CHTO  H207  886   6.729   1.650   1.600  0.2698 -2.0714  1.4574
    3CHTO  H208  887   6.721   1.799   1.699 -1.9670 -0.5759 -0.7379
    3CHTO   O74  888   7.068   1.433   1.634 -0.5632  0.1212 -0.1817
    3CHTO  C115  889   7.176   1.306   1.604 -0.4369 -0.4459  0.6246
    3CHTO  H219  890   7.244   1.330   1.522 -1.5701 -0.3439 -0.2977
    3CHTO   O76  891   7.259   1.282   1.720 -0.5576 -0.1406  0.2653
    3CHTO  C122  892   7.188   1.244   1.841  0.2200  0.1329  0.2659
    3CHTO  H226  893   7.167   1.333   1.900  1.0439  0.7255 -0.3030
    3CHTO  C126  894   7.294   1.160   1.920 -0.3573  0.3337 -0.2832
    3CHTO   O85  895   7.403   1.247   1.959  0.2096 -0.7282 -0.4937
    3CHTO  H206  896   7.483   1.202   1.980  1.0034  0.9954  0.2891
    3CHTO  C121  897   7.050   1.163   1.819 -0.2266 -0.6389 -0.5207
    3CHTO  H225  898   7.034   1.091   1.902  0.0814 -0.7710 -0.5745
    3CHTO   O81  899   6.946   1.265   1.831 -0.4081  0.0455  0.4680
    3CHTO  H202  900   6.928   1.318   1.756 -0.5685  2.1013  1.9396
    3CHTO  C119  901   7.041   1.092   1.687 -0.2281 -0.0238  0.3695
    3CHTO  H223  902   7.110   1.009   1.701 -0.9438 -0.4233  1.6409
    3CHTO  C117  903   7.091   1.177   1.560  0.0223  0.0780  0.0252
    3CHTO  H221  904   7.012   1.222   1.501  1.9531 -0.0409 -2.7381
    3CHTO   N20  905   7.164   1.089   1.458  0.7008 -0.1089 -0.6677
    3CHTO  H209  906   7.181   0.992   1.501 -1.3138  0.2538  0.9962
    3CHTO  H210  907   7.120   1.089   1.359 -1.4601 -1.2285  0.2780
    3CHTO   O80  908   6.891   1.015   1.670 -0.2617 -0.1058  0.1695
    3CHTO  C103  909   6.843   0.921   1.784 -0.3183  0.6697  1.0083
    3CHTO  H190  910   6.934   0.899   1.839  0.8623 -0.4704 -1.3278
    3CHTO  C101  911   6.728   0.962   1.889  0.7241  0.4486 -0.4924
    3CHTO  H188  912   6.640   1.009   1.845  0.2340  0.9147  0.9688
    3CHTO   O68  913   6.790   1.065   1.979 -0.3243 -0.1443 -0.0499
    3CHTO  H168  914   6.819   1.148   1.947 -0.0408 -0.1506  0.1819
    3CHTO   C99  915   6.676   0.833   1.969  0.5629  0.7526  0.2364
    3CHTO  H186  916   6.754   0.786   2.032 -0.2147  0.9934  1.4082
    3CHTO   N17  917   6.565   0.865   2.070  0.2802  0.7770  0.3305
    3CHTO  H174  918   6.552   0.784   2.140 -1.2316 -0.2192 -1.0625
    3CHTO  H175  919   6.609   0.946   2.127  0.6269  1.6546 -1.1372
    3CHTO   C97  920   6.640   0.721   1.865 -0.0692 -0.0906 -0.0776
    3CHTO  H184  921   6.571   0.772   1.796 -0.4116  0.5199  0.7165
    3CHTO   O64  922   6.769   0.689   1.801  0.2035 -0.1685 -0.1518
    3CHTO  C104  923   6.811   0.793   1.709  0.2702  0.4259 -0.8110
    3CHTO  H191  924   6.735   0.806   1.633  1.0728 -1.8230 -2.0438
    3CHTO  C108  925   6.930   0.742   1.629  0.0066  0.4440  0.0636
    3CHTO   O71  926   6.886   0.634   1.543  0.0905 -0.1313 -0.0073
    3CHTO  H171  927   6.932   0.555   1.562  1.0887  0.3814 -0.2395
    3CHTO   O62  928   6.594   0.597   1.928 -0.4430  0.2652  0.5003
    3CHTO   C91  929   6.520   0.524   1.836 -0.8352  0.3505 -0.2628
    3CHTO  H178  930   6.547   0.553   1.735  0.0361  2.4305  0.5299
    3CHTO   C92  931   6.360   0.537   1.853  0.2388  0.1790 -0.6097
    3CHTO  H179  932   6.343   0.521   1.961 -0.4428  0.6026 -0.6491
    3CHTO   O66  933   6.328   0.675   1.830 -0.1472  0.7173  0.2011
    3CHTO  H166  934   6.252   0.697   1.879 -0.5314 -2.1970  0.9970
    3CHTO   C93  935   6.279   0.440   1.763  0.2879  0.6122  0.1667
    3CHTO  H180  936   6.280   0.488   1.665  2.3708  0.6064  0.1710
    3CHTO   N16  937   6.141   0.426   1.799 -0.2980 -0.1691 -0.1377
    3CHTO  H172  938   6.137   0.381   1.897  3.2465  0.0300  0.1767
    3CHTO  H173  939   6.096   0.360   1.727 -0.6587  1.3296 -1.3113
    3CHTO   C94  940   6.339   0.296   1.760 -0.1134  0.3944  0.2287
    3CHTO  H181  941   6.318   0.236   1.849 -2.0468 -0.7316 -0.9528
    3CHTO   O61  942   6.481   0.295   1.746 -0.0014  0.2469 -0.5328
    3CHTO   C95  943   6.550   0.369   1.851 -0.1270 -0.5562 -0.0429
    3CHTO  H182  944   6.523   0.328   1.948 -2.3953 -0.0642 -0.4457
    3CHTO  C106  945   6.703   0.336   1.820 -0.1840 -0.5784 -0.4008
    3CHTO   O69  946   6.755   0.397   1.698 -0.0635  1.0096 -0.2920
    3CHTO  H169  947   6.847   0.378   1.690 -0.5031 -0.8367 -1.2952
    3CHTO   O63  948   6.287   0.224   1.607 -0.1183  0.5659 -0.5449
    3CHTO   C96  949   6.287   0.066   1.624 -0.5622  0.3686  0.6476
    3CHTO  H183  950   6.298   0.047   1.731 -4.4110  2.0808  1.4203
    3CHTO   C98  951   6.399  -0.007   1.548 -0.8616  0.4539  0.1322
    3CHTO  H185  952   6.382   0.017   1.441 -1.4923  1.9655  0.5574
    3CHTO   O67  953   6.521   0.053   1.583 -0.2674  0.4156 -0.0786
    3CHTO  H167  954   6.552   0.101   1.509  1.3517 -0.7046 -0.1741
    3CHTO  C102  955   6.391  -0.163   1.570 -0.1360 -0.3497 -0.7965
    3CHTO  H189  956   6.430  -0.182   1.671 -1.7933  1.6124  0.2525
    3CHTO   N18  957   6.479  -0.248   1.482 -0.1207  0.5535 -0.4126
    3CHTO  H176  958   6.444  -0.349   1.498 -1.8161  0.6367 -3.3259
    3CHTO  H177  959   6.457  -0.224   1.379  2.5362 -2.3349 -1.7437
    3CHTO  C105  960   6.241  -0.211   1.573  0.5672  0.0462  0.0598
    3CHTO  H192  961   6.224  -0.292   1.502 -1.7325  0.7462 -0.2443
    3CHTO   O65  962   6.132  -0.122   1.533 -0.2210 -0.0596  0.1962
    3CHTO  C100  963   6.143   0.011   1.578  0.2069  0.2434 -0.2060
    3CHTO  H187  964   6.120   0.065   1.485 -0.5873 -0.1050 -0.2155
    3CHTO  C107  965   6.032   0.055   1.675 -1.1164  0.4550 -0.0604
    3CHTO   O70  966   6.056  -0.010   1.803 -0.7866 -0.1906 -0.6225
    3CHTO  H170  967   6.081   0.046   1.874  0.6449  0.1509 -1.3837
    3CHTO   O57  968   6.212  -0.259   1.715  0.3789  0.6666 -0.2291
    3CHTO   C85  969   6.173  -0.391   1.748  0.0073 -0.1177  0.1887
    3CHTO  H157  970   6.249  -0.454   1.695  1.1635  1.8889 -0.5838
    3CHTO   C83  971   6.030  -0.439   1.689 -0.0796  0.1109  0.6680
    3CHTO  H155  972   6.036  -0.458   1.582  1.4529 -0.2641  0.8125
    3CHTO   O56  973   5.930  -0.335   1.708 -0.0275  0.2284 -0.5853
    3CHTO  H135  974   5.850  -0.374   1.738  0.7415  0.1244  1.4201
    3CHTO   C81  975   5.984  -0.577   1.743  0.2476 -0.3200  0.5579
    3CHTO  H153  976   6.049  -0.656   1.705 -0.9417 -1.0488  0.0436
    3CHTO   N14  977   5.850  -0.620   1.691 -0.2674 -0.1140  0.2430
    3CHTO  H141  978   5.845  -0.721   1.725  1.8172 -0.0475  0.8071
    3CHTO  H142  979   5.852  -0.625   1.584  1.6341 -0.1522  0.2725
    3CHTO   C79  980   5.994  -0.580   1.899 -0.5429  0.0257  0.0027
    3CHTO  H151  981   5.972  -0.685   1.923  1.2664 -0.6639 -1.2398
    3CHTO   O52  982   6.133  -0.558   1.939 -0.2450  0.4425 -0.1169
    3CHTO   C86  983   6.169  -0.419   1.897 -0.2120 -0.0738  0.6249
    3CHTO  H158  984   6.093  -0.360   1.952 -0.7011 -1.4218  1.4203
    3CHTO   C90  985   6.302  -0.396   1.964 -0.3356  0.2303  0.1094
    3CHTO   O60  986   6.286  -0.372   2.103 -0.3838  0.2269  0.5898
    3CHTO  H138  987   6.343  -0.422   2.158 -1.4296 -0.6160  0.9158
    3CHTO   O50  988   5.891  -0.504   1.964 -0.1567 -0.4609  0.1839
    3CHTO   C73  989   5.803  -0.495   2.077 -0.3774  0.2569  0.1739
    3CHTO  H145  990   5.762  -0.595   2.097 -4.3188  1.0121 -3.5301
    3CHTO   C74  991   5.684  -0.411   2.040  0.2067 -0.7145  0.5535
    3CHTO  H146  992   5.637  -0.448   1.948 -0.5488 -0.2993  0.7672
    3CHTO   O54  993   5.584  -0.430   2.139  0.1796 -0.0445  0.0638
    3CHTO  H133  994   5.501  -0.421   2.097  1.0726 -1.7273 -2.1651
    3CHTO   C75  995   5.744  -0.257   2.022  0.3962 -0.1161 -0.6612
    3CHTO  H147  996   5.822  -0.255   1.944  0.7785  3.3394 -0.2412
    3CHTO   N13  997   5.644  -0.168   1.960 -0.6975  0.1791 -0.5501
    3CHTO  H139  998   5.558  -0.153   2.024 -0.5114 -1.2864  0.0643
    3CHTO  H140  999   5.604  -0.215   1.871  0.3093 -3.4995  0.8069
    3CHTO   C76 1000   5.817  -0.205   2.146  0.0469 -0.1980  0.1572
    3CHTO  H148 1001   5.744  -0.187   2.225 -1.6846 -1.4663 -1.1048
    3CHTO   O49 1002   5.920  -0.305   2.178  0.4242 -0.2235 -0.1794
    3CHTO   C77 1003   5.872  -0.433   2.200  0.5639 -0.1224  0.2421
    3CHTO  H149 1004   5.801  -0.426   2.282  0.0657  2.4825 -0.3752
    3CHTO   C88 1005   5.998  -0.515   2.239  0.6012  0.3783  0.4490
    3CHTO   O58 1006   6.031  -0.527   2.369  0.1283 -0.2669 -0.2510
    3CHTO  H136 1007   6.021  -0.441   2.405 -0.3462 -0.0692 -0.8483
    3CHTO   O51 1008   5.894  -0.067   2.097  0.5134  0.0120 -0.1948
    3CHTO   C78 1009   5.939   0.033   2.205  0.0651  0.2257  0.4354
    3CHTO  H150 1010   5.940  -0.024   2.300  2.5018 -1.2921 -0.4686
    3CHTO   C80 1011   5.835   0.148   2.217 -0.4338 -0.2216 -0.5847
    3CHTO  H152 1012   5.814   0.181   2.113 -0.3546 -2.5587 -1.3802
    3CHTO   O55 1013   5.715   0.087   2.271  0.3815 -0.3446  0.2385
    3CHTO  H134 1014   5.718   0.093   2.365  0.3597 -2.2329  0.3822
    3CHTO   C84 1015   5.892   0.272   2.302 -0.4460  0.0477  0.0528
    3CHTO  H156 1016   5.902   0.236   2.404  2.2470  1.6324  0.3987
    3CHTO   N15 1017   5.798   0.386   2.293 -0.6297 -0.1648  0.1115
    3CHTO  H143 1018   5.778   0.431   2.388 -2.6989  0.0262 -0.4028
    3CHTO  H144 1019   5.828   0.461   2.222 -1.4860  0.2715  0.2017
    3CHTO   C87 1020   6.033   0.306   2.255  0.4508 -0.1694  0.2471
    3CHTO  H159 1021   6.028   0.335   2.150 -3.0068  0.0473  0.4114
    3CHTO   O53 1022   6.125   0.181   2.278  0.2487  0.5733 -0.3368
    3CHTO   C82 1023   6.084   0.084   2.180 -0.0665 -1.0753 -0.1815
    3CHTO  H154 1024   6.090   0.129   2.081  1.0270  0.1343  0.4151
    3CHTO   C89 1025   6.188  -0.027   2.176 -0.5986  0.6535 -0.1398
    3CHTO   O59 1026   6.321   0.018   2.141 -0.1144 -0.1044  0.0733
    3CHTO  H137 1027   6.367   0.036   2.221  0.8553  0.5190 -0.6137
    3CHTO   O45 1028   6.104   0.431   2.361 -0.3192 -0.0163 -0.1639
    3CHTO   C67 1029   6.205   0.501   2.281  0.0141 -0.4653 -0.1630
    3CHTO  H124 1030   6.191   0.480   2.175  0.0163  0.6465 -0.3911
    3CHTO   C65 1031   6.201   0.652   2.311 -0.6415  0.5150  0.0568
    3CHTO  H122 1032   6.095   0.672   2.292 -0.8600 -0.1582  0.5320
    3CHTO   O44 1033   6.281   0.727   2.218  0.7449 -0.1194 -0.4371
    3CHTO  H102 1034   6.371   0.736   2.243  0.8104 -2.6308  0.4326
    3CHTO   C63 1035   6.222   0.669   2.467 -0.3229 -0.3442 -0.3523
    3CHTO  H120 1036   6.157   0.602   2.523 -2.3861  2.8377  1.2319
    3CHTO   N11 1037   6.182   0.804   2.514 -0.2637 -0.2137 -0.3948
    3CHTO  H108 1038   6.249   0.874   2.470 -0.6520 -0.4352 -1.3585
    3CHTO  H109 1039   6.193   0.796   2.621 -1.5054 -0.0656 -0.2419
    3CHTO   C61 1040   6.369   0.627   2.497  0.5217  0.1569  0.3197
    3CHTO  H118 1041   6.377   0.616   2.606 -0.4786 -0.2730  0.3630
    3CHTO   O40 1042   6.403   0.496   2.441  0.2252 -0.4745 -0.4196
    3CHTO   C68 1043   6.342   0.445   2.320  0.2333 -0.1668 -0.4813
    3CHTO  H125 1044   6.323   0.336   2.328  0.6663 -0.2912 -1.1039
    3CHTO   C72 1045   6.446   0.462   2.213 -0.5123  0.1872  0.2875
    3CHTO   O48 1046   6.566   0.388   2.234 -0.1193  0.3712 -0.5682
    3CHTO  H105 1047   6.568   0.312   2.289  0.7509 -1.0795 -2.5159
    3CHTO   O38 1048   6.477   0.714   2.449  0.2724 -0.3003 -0.0724
    3CHTO   C55 1049   6.597   0.741   2.528  0.2700  0.1362  0.3134
    3CHTO  H112 1050   6.615   0.650   2.588  1.0995 -0.7833 -1.3113
    3CHTO   C56 1051   6.572   0.867   2.624 -0.1699 -0.3532  0.2506
    3CHTO  H113 1052   6.547   0.948   2.554 -0.8999 -3.0880 -2.7908
    3CHTO   O42 1053   6.456   0.862   2.711 -0.0353  0.2700 -0.3386
    3CHTO  H100 1054   6.387   0.808   2.678 -0.7604  1.2573 -0.4593
    3CHTO   C57 1055   6.697   0.900   2.711 -0.4479  0.4556  0.1917
    3CHTO  H114 1056   6.699   0.816   2.780  2.0329  1.0691  0.9310
    3CHTO   N10 1057   6.696   1.031   2.785  0.0457  0.2300  0.1143
    3CHTO  H106 1058   6.661   1.033   2.887 -1.5466 -0.0305 -0.4037
    3CHTO  H107 1059   6.636   1.099   2.727  0.8630  2.4575  1.8137
    3CHTO   C58 1060   6.827   0.889   2.623  0.8234  0.9634 -0.0695
    3CHTO  H115 1061   6.836   0.981   2.563  0.7403  0.4445 -0.8919
    3CHTO   O37 1062   6.824   0.768   2.543 -0.2065  0.0019  0.2363
    3CHTO   C59 1063   6.720   0.772   2.444  0.5215  0.2718 -0.2082
    3CHTO  H116 1064   6.710   0.870   2.398  0.2498  0.9054  1.1966
    3CHTO   C70 1065   6.741   0.665   2.340  0.1704 -0.2793  0.2056
    3CHTO   O46 1066   6.871   0.671   2.279 -0.1437  0.4402  0.3146
    3CHTO  H103 1067   6.880   0.603   2.215  0.3284 -0.8278  1.6989
    3CHTO   O39 1068   6.952   0.866   2.728  0.6823 -0.3469 -0.1696
    3CHTO   C60 1069   7.073   0.891   2.656  0.3803 -0.8319  0.3228
    3CHTO  H117 1070   7.050   0.883   2.550  0.6711 -0.3623  0.2243
    3CHTO   C62 1071   7.120   1.034   2.682  0.1720 -0.7044 -0.2303
    3CHTO  H119 1072   7.030   1.093   2.657  0.7775  0.8805  1.2193
    3CHTO   O43 1073   7.157   1.028   2.820  0.5226 -0.2746 -0.2111
    3CHTO  H101 1074   7.247   1.004   2.827  0.0868 -1.6975  0.5870
    3CHTO   C66 1075   7.237   1.067   2.579  1.1703  0.7222 -0.7300
    3CHTO  H123 1076   7.195   1.067   2.479  0.4008 -1.2183 -0.4307
    3CHTO   N12 1077   7.306   1.199   2.594  0.4636  0.2582  0.6726
    3CHTO  H110 1078   7.295   1.247   2.690 -0.0356 -0.7601  1.1328
    3CHTO  H111 1079   7.284   1.261   2.509 -2.2160 -1.2500  0.2081
    3CHTO   C69 1080   7.341   0.956   2.583 -0.1105  0.3049  0.2847
    3CHTO  H126 1081   7.395   0.976   2.678 -0.4989  0.3205  0.5041
    3CHTO   O41 1082   7.273   0.803   2.588 -0.3684  0.0006 -0.1900
    3CHTO   C64 1083   7.182   0.787   2.690  0.2879 -0.0662 -0.1573
    3CHTO  H121 1084   7.228   0.811   2.788 -0.9784  0.7240  0.2457
    3CHTO   C71 1085   7.121   0.645   2.703 -0.7584 -0.4172  0.0236
    3CHTO   O47 1086   7.056   0.585   2.584 -0.0636  0.4229  0.4461
    3CHTO  H104 1087   6.997   0.519   2.615  0.6926 -0.1456  0.6819
    3CHTO   O34 1088   7.436   0.969   2.473  0.6423 -0.3128  0.0139
    3CHTO   C49 1089   7.449   0.896   2.323  0.7794 -0.3140 -0.0631
    3CHTO   H91 1090   7.548   0.912   2.280  0.7684  1.9626  0.6802
    3CHTO   C47 1091   7.342   0.953   2.228 -0.0875  0.3974  0.1183
    3CHTO   H89 1092   7.372   0.927   2.124 -1.4807 -2.1249  0.3043
    3CHTO   O33 1093   7.329   1.101   2.236  0.5417 -0.1120 -0.2106
    3CHTO   H70 1094   7.262   1.137   2.181  1.7755  0.3770 -1.4308
    3CHTO   C45 1095   7.200   0.871   2.254 -1.3144 -0.1304 -0.3921
    3CHTO   H87 1096   7.182   0.880   2.362 -1.5076  3.1196 -0.6281
    3CHTO    N8 1097   7.088   0.935   2.179  0.1028  0.1677 -0.1333
    3CHTO   H75 1098   7.111   1.038   2.153  1.0806  0.6077  2.2882
    3CHTO   H76 1099   6.996   0.941   2.234 -1.5484 -0.0719 -2.7876
    3CHTO   C43 1100   7.225   0.719   2.231 -0.3634  1.0699 -0.0583
    3CHTO   H85 1101   7.129   0.667   2.241  1.5971 -2.4726  1.1055
    3CHTO   O29 1102   7.315   0.673   2.333  0.1708 -0.3676  0.0684
    3CHTO   C50 1103   7.444   0.742   2.344 -0.6241  0.1198 -0.0748
    3CHTO   H92 1104   7.475   0.725   2.448  0.6823 -0.3577 -0.5303
    3CHTO   C54 1105   7.547   0.667   2.252 -0.5268 -0.3781  0.6568
    3CHTO   O36 1106   7.558   0.534   2.272 -0.8879  0.4071 -0.3577
    3CHTO   H72 1107   7.614   0.501   2.204 -1.9723 -2.3506  0.0259
    3CHTO   O27 1108   7.273   0.684   2.100 -0.1262  0.1237 -0.1336
    3CHTO   C37 1109   7.297   0.574   2.023  0.3063  0.2361  0.2517
    3CHTO   H79 1110   7.397   0.535   2.047  0.4823 -0.0315 -0.8649
    3CHTO   C38 1111   7.197   0.457   2.054  0.1328 -0.5667  0.6649
    3CHTO   H80 1112   7.098   0.505   2.045 -0.2668 -1.5932 -0.5501
    3CHTO   O31 1113   7.224   0.407   2.191 -0.4571 -0.2528  0.6877
    3CHTO   H68 1114   7.314   0.378   2.188 -0.3777 -0.0905  1.3094
    3CHTO   C39 1115   7.207   0.341   1.949  0.3332 -1.0205 -0.4964
    3CHTO   H81 1116   7.290   0.273   1.966 -0.9469 -2.1758  1.3980
    3CHTO    N7 1117   7.097   0.243   1.962  0.0152 -0.3500  0.8203
    3CHTO   H73 1118   7.092   0.199   2.061 -0.9258 -1.9772  0.0589
    3CHTO   H74 1119   7.008   0.261   1.904  0.8652  0.8065 -0.1790
    3CHTO   C40 1120   7.221   0.399   1.802  0.0426  0.1820  0.6973
    3CHTO   H82 1121   7.129   0.438   1.758  1.2422  1.1428 -0.9591
    3CHTO   O26 1122   7.332   0.495   1.796  0.5418 -0.1497  0.2067
    3CHTO   C41 1123   7.296   0.610   1.876  0.4598 -0.1373 -0.1538
    3CHTO   H83 1124   7.199   0.646   1.839  1.1997  0.2633 -1.7779
    3CHTO   C52 1125   7.390   0.729   1.836 -0.0550 -0.1546  0.5950
    3CHTO   O35 1126   7.377   0.760   1.692 -0.4657 -0.3831  0.7011
    3CHTO   H71 1127   7.453   0.803   1.658 -0.1442 -1.3181  0.2241
    3CHTO   O28 1128   7.250   0.298   1.698  0.1407 -0.0418 -0.4970
    3CHTO   C42 1129   7.196   0.301   1.555 -0.7798  0.3583 -0.5096
    3CHTO   H84 1130   7.258   0.236   1.493 -0.3364 -0.8578  1.1706
    3CHTO   C44 1131   7.212   0.438   1.487  1.1233 -0.0197 -0.2117
    3CHTO   H86 1132   7.163   0.517   1.545 -0.3319  0.5713 -2.2267
    3CHTO   O32 1133   7.357   0.470   1.492 -0.1449 -0.0428  0.3335
    3CHTO   H69 1134   7.380   0.527   1.563 -1.9080  1.1880 -0.0409
    3CHTO   C48 1135   7.161   0.421   1.332 -0.3015 -0.1840 -0.3285
    3CHTO   H90 1136   7.236   0.360   1.282  0.9880  1.6622 -0.7071
    3CHTO    N9 1137   7.165   0.563   1.264  0.1546 -0.0076  0.7450
    3CHTO   H77 1138   7.070   0.608   1.239  0.5662 -0.7451 -2.3195
    3CHTO   H78 1139   7.216   0.554   1.170 -0.1251  0.7359  0.5203
    3CHTO   C51 1140   7.013   0.363   1.329  0.0194  0.1838  0.2834
    3CHTO   H93 1141   6.954   0.435   1.386 -0.8677 -1.9251  2.1025
    3CHTO   O30 1142   7.012   0.231   1.397  0.4331 -0.5880 -0.1497
    3CHTO   C46 1143   7.058   0.243   1.538 -0.1592 -0.2260 -1.0740
    3CHTO   H88 1144   6.983   0.308   1.584  0.1615  0.6799 -1.8121
    3CHTO   C53 1145   7.050   0.094   1.605  0.4404  0.2352 -0.3607
    3CHTO   O72 1146   6.915   0.056   1.605 -0.2502 -0.3486  0.1136
    3CHTO  H199 1147   6.909  -0.038   1.606 -1.1451 -0.2954  0.3032
    3CHTO   O22 1148   6.955   0.344   1.200 -0.3679 -0.4278 -0.4217
    3CHTO   C31 1149   6.811   0.361   1.168 -0.0450 -0.0343 -0.2222
    3CHTO   H59 1150   6.794   0.291   1.083  0.5977  0.7412 -1.0001
    3CHTO   C29 1151   6.720   0.316   1.288 -0.3734  0.2811  0.2317
    3CHTO   H57 1152   6.767   0.363   1.376  0.0020  1.6161 -0.6690
    3CHTO   O21 1153   6.731   0.175   1.316  0.2925  0.7486  0.0676
    3CHTO   H37 1154   6.783   0.163   1.393 -0.0287 -2.0711 -0.0916
    3CHTO   C27 1155   6.568   0.359   1.270  0.5320  0.2711 -0.1108
    3CHTO   H55 1156   6.517   0.279   1.215  0.2069  0.9395 -0.7857
    3CHTO    N5 1157   6.498   0.373   1.400 -0.8377 -0.3600 -0.6307
    3CHTO   H43 1158   6.397   0.333   1.395 -1.6193  1.6774 -1.9517
    3CHTO   H44 1159   6.484   0.474   1.434 -0.2046  0.1361 -1.8167
    3CHTO   C25 1160   6.547   0.494   1.191 -0.1794  0.0535 -0.0218
    3CHTO   H53 1161   6.574   0.582   1.251  2.4178  0.4845 -1.7756
    3CHTO   O17 1162   6.640   0.505   1.081  0.5155 -0.3056 -0.6071
    3CHTO   C32 1163   6.780   0.505   1.110 -0.1503  0.1069 -0.0698
    3CHTO   H60 1164   6.819   0.578   1.181 -0.3690  0.2121 -0.0580
    3CHTO   C36 1165   6.854   0.523   0.974  0.5552  0.5071  0.1491
    3CHTO   O25 1166   6.821   0.644   0.904 -0.1005 -0.1697 -0.1189
    3CHTO   H40 1167   6.892   0.704   0.894 -1.4604  1.4522 -0.3506
    3CHTO   O15 1168   6.406   0.505   1.139 -0.5064  0.1482 -0.1725
    3CHTO   C19 1169   6.286   0.590   1.143  0.0575 -0.0039 -0.1128
    3CHTO   H47 1170   6.225   0.547   1.062 -2.4864  1.0310  1.1754
    3CHTO   C20 1171   6.199   0.591   1.275  0.0622 -0.2007  0.2909
    3CHTO   H48 1172   6.259   0.622   1.362  1.3223 -1.5348 -0.0869
    3CHTO   O19 1173   6.159   0.454   1.286  0.3419  0.3375 -0.3616
    3CHTO   H35 1174   6.115   0.445   1.368  1.4546  3.0326  0.5649
    3CHTO   C21 1175   6.076   0.690   1.260 -1.0893  0.8751 -0.4815
    3CHTO   H49 1176   6.009   0.650   1.184 -1.0828 -0.3266  0.1304
    3CHTO    N4 1177   6.009   0.705   1.392 -0.1809 -0.2155  1.4640
    3CHTO   H41 1178   6.041   0.797   1.436  0.9213 -0.0547  0.3624
    3CHTO   H42 1179   5.901   0.697   1.389 -0.2148  0.0357  1.9588
    3CHTO   C22 1180   6.127   0.829   1.218 -0.0671  0.1779 -0.0073
    3CHTO   H50 1181   6.195   0.856   1.298 -0.9295  0.0890  0.7608
    3CHTO   O14 1182   6.199   0.817   1.093 -0.2197 -0.6905 -0.0555
    3CHTO   C23 1183   6.315   0.737   1.098  0.7079 -0.0653  0.4218
    3CHTO   H51 1184   6.377   0.792   1.170  2.6069  0.1166 -1.3115
    3CHTO   C34 1185   6.388   0.745   0.961  0.0198 -0.0192  0.3828
    3CHTO   O23 1186   6.428   0.878   0.918  0.3742  0.1516 -0.2641
    3CHTO   H38 1187   6.449   0.868   0.827  1.1905  0.9797 -0.1769
    3CHTO   O16 1188   6.033   0.931   1.193 -0.5203 -0.3432  0.4707
    3CHTO   C24 1189   6.128   1.073   1.187  0.0116 -0.1880 -0.1816
    3CHTO   H52 1190   6.234   1.053   1.171 -0.6297 -2.4527 -1.8841
    3CHTO   C26 1191   6.099   1.155   1.312  0.7394 -0.0788 -0.9702
    3CHTO   H54 1192   5.990   1.176   1.308  1.0019  1.3478 -1.0082
    3CHTO   O20 1193   6.110   1.078   1.431  0.0070  0.4802  0.2045
    3CHTO   H36 1194   6.107   1.138   1.503  3.9795  0.7118  0.2658
    3CHTO   C30 1195   6.179   1.286   1.308 -0.4662  0.6629  0.1621
    3CHTO   H58 1196   6.288   1.270   1.313 -0.3581  1.2552 -0.2968
    3CHTO    N6 1197   6.145   1.377   1.426  0.1700 -0.1622 -0.0646
    3CHTO   H45 1198   6.098   1.470   1.396 -0.4721 -0.1189  1.0711
    3CHTO   H46 1199   6.085   1.328   1.501 -1.1064  0.9281 -0.3434
    3CHTO   C33 1200   6.149   1.365   1.176  0.1970  0.1683 -0.3692
    3CHTO   H61 1201   6.056   1.423   1.188 -0.9152 -1.5405 -0.4858
    3CHTO   O18 1202   6.137   1.288   1.055  0.2369 -0.1366 -0.2795
    3CHTO   C28 1203   6.075   1.157   1.065  0.0589  0.0373 -0.3589
    3CHTO   H56 1204   5.967   1.167   1.076 -0.1392 -3.1344  1.2420
    3CHTO   C35 1205   6.084   1.084   0.927 -0.1844 -0.0771 -0.5040
    3CHTO   O24 1206   6.212   1.054   0.882  0.0198  0.4432 -0.4651
    3CHTO   H39 1207   6.209   0.995   0.809  0.3386  0.2073 -0.2898
    3CHTO    O9 1208   6.248   1.470   1.164  0.2116 -0.2993  0.3706
    3CHTO   C13 1209   6.185   1.608   1.113  0.3272 -0.8782 -0.6249
    3CHTO   H26 1210   6.085   1.623   1.158  0.7339  1.7465 -0.5339
    3CHTO   C11 1211   6.172   1.591   0.958 -0.2948 -0.0601 -0.3786
    3CHTO   H24 1212   6.086   1.527   0.936  0.4134 -0.8593 -0.8614
    3CHTO    O8 1213   6.289   1.522   0.899 -0.1524  0.4358 -0.4038
    3CHTO    H3 1214   6.367   1.562   0.931  0.0681 -1.9556  2.2487
    3CHTO    C9 1215   6.143   1.726   0.897  0.2662 -0.1682  0.6158
    3CHTO   H22 1216   6.052   1.762   0.946  0.6680  0.9157  0.5992
    3CHTO    N2 1217   6.100   1.730   0.753 -0.6711 -0.3529 -0.5778
    3CHTO   H10 1218   6.016   1.664   0.736 -0.2754 -1.1049  0.2860
    3CHTO   H11 1219   6.184   1.691   0.697 -1.4035 -2.5536 -0.2162
    3CHTO    C7 1220   6.258   1.824   0.929 -0.3048  0.0628 -0.3626
    3CHTO   H20 1221   6.233   1.925   0.890 -0.4988 -0.5583 -1.8300
    3CHTO    O4 1222   6.274   1.842   1.071 -0.0599  0.7104  0.0286
    3CHTO   C14 1223   6.270   1.729   1.161 -0.1602 -0.3059 -0.5745
    3CHTO   H27 1224   6.216   1.757   1.254  0.2488 -0.6029 -0.2508
    3CHTO   C18 1225   6.411   1.691   1.196  0.4185 -0.1348 -0.6003
    3CHTO   O13 1226   6.478   1.789   1.280  0.3784  0.2501  0.1639
    3CHTO    H7 1227   6.449   1.787   1.369 -0.3679 -1.1225 -0.0961
    3CHTO    O2 1228   6.400   1.765   0.866  0.6736 -0.0751 -0.4206
    3CHTO    C1 1229   6.486   1.874   0.814  0.1269  0.1675 -0.3538
    3CHTO   H14 1230   6.492   1.960   0.884  1.9002  1.0958 -1.6230
    3CHTO    C2 1231   6.462   1.934   0.668  0.7779  0.7661 -0.1623
    3CHTO   H15 1232   6.446   1.848   0.602 -1.9541  1.8688 -0.9835
    3CHTO    O6 1233   6.341   2.008   0.672 -0.2306 -0.0474 -0.2555
    3CHTO    H1 1234   6.271   1.950   0.698 -0.9777  1.9305  2.4277
    3CHTO    C3 1235   6.578   2.021   0.606  0.0498 -0.3571  0.2904
    3CHTO   H16 1236   6.579   2.121   0.651  0.0109  0.2524 -1.0208
    3CHTO    N1 1237   6.554   2.048   0.456  0.1006  0.4248  0.2081
    3CHTO    H8 1238   6.621   1.986   0.398 -0.5052 -0.4759  0.4657
    3CHTO    H9 1239   6.452   2.056   0.422  0.2187 -2.4058 -0.9028
    3CHTO    C4 1240   6.716   1.957   0.637 -0.5379 -0.3117  0.7495
    3CHTO   H17 1241   6.732   1.871   0.571  1.8425  0.4377  0.2890
    3CHTO    O1 1242   6.728   1.908   0.772  0.3252 -0.1549  0.5455
    3CHTO    C5 1243   6.629   1.815   0.818 -0.3238 -0.0202 -0.3891
    3CHTO   H18 1244   6.633   1.737   0.741  1.1657  0.2998 -0.6561
    3CHTO   C16 1245   6.660   1.745   0.959  0.3745 -0.1390 -0.0504
    3CHTO   O11 1246   6.673   1.839   1.070 -0.3617  1.0225  0.2123
    3CHTO    H5 1247   6.596   1.891   1.083  0.9969  2.8479  1.2543
    3CHTO    O3 1248   6.830   2.043   0.612  0.0974 -0.1812 -0.3674
    3CHTO    C6 1249   6.960   1.969   0.600  0.0811  0.1677  0.3867
    3CHTO   H19 1250   6.959   1.871   0.646  2.9691 -1.0051 -1.9181
    3CHTO    C8 1251   7.003   1.951   0.454 -0.4968 -0.1234 -0.1357
    3CHTO   H21 1252   7.018   2.051   0.413 -4.7420  0.1842 -1.1259
    3CHTO    O7 1253   6.901   1.887   0.386 -0.5046  0.3986 -0.2239
    3CHTO    H2 1254   6.843   1.950   0.348 -0.7220  0.4125  0.1336
    3CHTO   C12 1255   7.129   1.863   0.452 -0.0671 -0.0957 -0.2534
    3CHTO   H25 1256   7.094   1.764   0.489  3.8037 -0.5844  2.3588
    3CHTO    N3 1257   7.181   1.842   0.310  0.9712 -0.6698  0.1152
    3CHTO   H12 1258   7.221   1.742   0.297  0.5978 -0.7653 -0.3094
    3CHTO   H13 1259   7.106   1.870   0.237  0.6614 -0.0612  0.6648
    3CHTO   C15 1260   7.239   1.918   0.550 -0.3105  0.2685 -0.0649
    3CHTO   H28 1261   7.298   1.997   0.504 -0.6748  0.7752  0.3332
    3CHTO   O10 1262   7.343   1.795   0.590  0.3293 -0.4268  0.1403
    3CHTO    H4 1263   7.405   1.779   0.521  0.6144 -0.4507  0.4028
    3CHTO    O5 1264   7.189   1.972   0.676 -0.4022 -0.1643  0.1472
    3CHTO   C10 1265   7.061   2.051   0.673  0.5240 -0.2334  0.4514
    3CHTO   H23 1266   7.077   2.144   0.619  0.2704 -1.7349 -2.2737
    3CHTO   C17 1267   7.029   2.092   0.814  0.2996 -0.3337 -0.9080
    3CHTO   O12 1268   7.127   2.164   0.871  0.3542 -0.1376  0.7892
    3CHTO    H6 1269   7.179   2.108   0.927 -0.9651  0.0452  2.2353
    4CHTO  H203 1270   6.529   7.118   2.426 -0.7589 -0.9597 -0.1899
    4CHTO   O82 1271   6.521   7.138   2.517  1.1336 -0.1448 -0.1874
    4CHTO  C123 1272   6.633   7.221   2.560 -0.0687 -0.0923  0.0444
    4CHTO  H227 1273   6.636   7.216   2.670 -0.7772  2.6919  0.2107
    4CHTO   O77 1274   6.756   7.155   2.510  0.0739 -0.0373  0.6378
    4CHTO  C118 1275   6.883   7.214   2.542 -0.0756  0.9369  0.1601
    4CHTO  H222 1276   6.902   7.214   2.651  0.8176  1.2397  0.0105
    4CHTO  C125 1277   6.996   7.113   2.480  0.1052 -0.4328  0.1134
    4CHTO   O84 1278   7.118   7.149   2.543  0.2561  0.2610 -0.0580
    4CHTO  H205 1279   7.180   7.146   2.473  0.4784 -0.0116  0.1504
    4CHTO  C114 1280   6.890   7.356   2.485  0.1196 -1.2005  0.4898
    4CHTO  H218 1281   6.868   7.354   2.378  0.6758 -2.2728  0.3919
    4CHTO  C116 1282   6.772   7.440   2.550  0.7654 -0.0860 -0.4158
    4CHTO  H220 1283   6.777   7.439   2.661 -0.1163  1.8745 -0.3269
    4CHTO   O79 1284   6.779   7.583   2.509 -0.1323 -0.3304 -0.5202
    4CHTO  H201 1285   6.734   7.613   2.432 -0.8996 -1.0673 -0.3698
    4CHTO  C120 1286   6.634   7.369   2.513  0.4120 -0.4446  0.7793
    4CHTO  H224 1287   6.624   7.372   2.402  0.0567 -1.8954  0.7652
    4CHTO   N21 1288   6.515   7.437   2.571 -0.4702  0.4004 -1.2586
    4CHTO  H211 1289   6.433   7.367   2.569  0.2424 -0.5102  0.6819
    4CHTO  H212 1290   6.553   7.465   2.668 -0.3133  1.0668 -1.5067
    4CHTO   O75 1291   7.022   7.401   2.517  0.4754 -0.4626 -1.1295
    4CHTO  C112 1292   7.086   7.492   2.401 -0.3001 -0.0776 -0.0175
    4CHTO  H216 1293   7.011   7.564   2.364 -1.3163 -1.0378  0.1402
    4CHTO   O73 1294   7.124   7.400   2.300 -0.4836 -0.2719 -0.3890
    4CHTO  C113 1295   7.187   7.467   2.185  0.7524 -0.3286  0.0862
    4CHTO  H217 1296   7.125   7.550   2.144  1.8104  0.8865  0.8907
    4CHTO  C124 1297   7.190   7.364   2.076 -0.0640 -0.0785  0.8659
    4CHTO   O83 1298   7.066   7.335   2.021 -0.1375  0.3264 -0.3186
    4CHTO  H204 1299   7.029   7.269   2.076  0.2385  0.3584 -0.0235
    4CHTO  C109 1300   7.319   7.525   2.222 -0.4846 -0.3120 -1.0269
    4CHTO  H213 1301   7.376   7.451   2.280 -0.0161 -0.2460 -1.4012
    4CHTO  C110 1302   7.289   7.633   2.338  0.1159 -0.2518 -0.2450
    4CHTO  H214 1303   7.240   7.718   2.290 -0.7435 -0.6588 -0.0830
    4CHTO   O78 1304   7.412   7.682   2.392 -0.1796 -0.6994  0.0529
    4CHTO  H200 1305   7.390   7.745   2.458  1.4121 -0.0148 -0.0329
    4CHTO  C111 1306   7.206   7.572   2.457  0.1125  0.2579  0.5398
    4CHTO  H215 1307   7.274   7.502   2.507  1.0959  2.3143  2.1579
    4CHTO   N19 1308   7.160   7.665   2.558  0.1509 -0.4174 -0.1441
    4CHTO  H207 1309   7.237   7.741   2.553 -1.0943  0.8304 -0.8005
    4CHTO  H208 1310   7.142   7.605   2.645 -2.4954  1.0701  0.3747
    4CHTO   O74 1311   7.396   7.579   2.111  0.0539 -0.6267  0.0384
    4CHTO  C115 1312   7.552   7.549   2.134  0.8824 -0.0684  0.0895
    4CHTO  H219 1313   7.590   7.592   2.227 -0.2593 -0.1031  0.5734
    4CHTO   O76 1314   7.589   7.400   2.135  0.3117 -0.0358  0.3176
    4CHTO  C122 1315   7.553   7.325   2.026  0.1518  0.2522  0.2052
    4CHTO  H226 1316   7.451   7.287   2.038  0.3043 -0.2764 -0.1329
    4CHTO  C126 1317   7.648   7.196   2.015  0.4141  0.7088  0.3227
    4CHTO   O85 1318   7.579   7.089   1.961 -0.2123 -0.1229  0.0729
    4CHTO  H206 1319   7.643   7.023   1.943 -0.7541  0.1596 -3.1222
    4CHTO  C121 1320   7.555   7.405   1.882  1.1910 -0.1107 -0.3371
    4CHTO  H225 1321   7.592   7.335   1.804  2.5568 -0.4661  0.6013
    4CHTO   O81 1322   7.433   7.471   1.857  0.4243  0.2399 -0.0964
    4CHTO  H202 1323   7.367   7.404   1.854  0.5318  0.1630 -0.8355
    4CHTO  C119 1324   7.661   7.513   1.897  0.1876  0.4010  0.0371
    4CHTO  H223 1325   7.750   7.453   1.916 -1.1382 -0.8498  2.5751
    4CHTO  C117 1326   7.626   7.618   2.010 -0.2739 -0.3519 -0.1440
    4CHTO  H221 1327   7.558   7.700   1.987 -1.3779 -0.6656  1.8894
    4CHTO   N20 1328   7.750   7.682   2.056  0.0221 -0.2053 -0.0804
    4CHTO  H209 1329   7.766   7.773   2.000 -0.9473  0.7769  1.2283
    4CHTO  H210 1330   7.745   7.696   2.163 -0.4524 -2.2286  0.1838
    4CHTO   O80 1331   7.694   7.582   1.759  0.3977  1.0409  0.3753
    4CHTO  C103 1332   7.820   7.542   1.679 -0.2594  1.0958 -0.4675
    4CHTO  H190 1333   7.910   7.541   1.741  0.3839 -0.4916 -1.3974
    4CHTO  C101 1334   7.815   7.402   1.607  0.0847 -0.0523  0.6099
    4CHTO  H188 1335   7.721   7.391   1.553 -0.6041 -1.2045  1.9901
    4CHTO   O68 1336   7.818   7.296   1.716  0.6957  0.3264 -0.5409
    4CHTO  H168 1337   7.736   7.312   1.759  1.4290  0.6301  0.7649
    4CHTO   C99 1338   7.940   7.378   1.507  0.2352  0.4899  0.9586
    4CHTO  H186 1339   8.038   7.395   1.557  0.8190 -0.2887  0.0688
    4CHTO   N17 1340   7.946   7.235   1.445 -0.0653 -0.4634  0.2942
    4CHTO  H174 1341   7.949   7.163   1.525 -0.9378  0.3264  1.0638
    4CHTO  H175 1342   8.036   7.222   1.387  0.7199  3.1592  0.6001
    4CHTO   C97 1343   7.933   7.492   1.399 -0.1524 -0.3460 -0.0719
    4CHTO  H184 1344   7.835   7.493   1.349 -0.4079 -0.2220  0.4232
    4CHTO   O64 1345   7.953   7.616   1.474 -0.1764 -0.1947 -0.2351
    4CHTO  C104 1346   7.851   7.653   1.567 -0.3683  0.3155 -0.3627
    4CHTO  H191 1347   7.756   7.677   1.518 -0.6900  0.2013  0.1939
    4CHTO  C108 1348   7.905   7.777   1.637  1.1018 -0.1089  0.3652
    4CHTO   O71 1349   7.887   7.890   1.546  0.6505  1.0738  0.5728
    4CHTO  H171 1350   7.966   7.907   1.499 -0.6612  0.7098 -1.8238
    4CHTO   O62 1351   8.045   7.500   1.317 -0.7322  0.2234 -0.2225
    4CHTO   C91 1352   8.027   7.541   1.179 -0.8434 -0.5703 -0.1098
    4CHTO  H178 1353   7.920   7.532   1.159 -0.8333  1.4203 -1.2353
    4CHTO   C92 1354   8.108   7.447   1.098 -0.2867  1.1625 -0.0643
    4CHTO  H179 1355   8.208   7.446   1.143  0.6684  3.0739 -2.0271
    4CHTO   O66 1356   8.060   7.313   1.116  0.0380  0.1010  0.5693
    4CHTO  H166 1357   7.971   7.308   1.087  1.0043 -2.6670 -2.1516
    4CHTO   C93 1358   8.109   7.486   0.943  0.1475 -0.3277 -0.1612
    4CHTO  H180 1359   8.008   7.466   0.905 -0.8814 -0.7394  2.6972
    4CHTO   N16 1360   8.200   7.398   0.863  0.1320  0.0933  0.3801
    4CHTO  H172 1361   8.168   7.417   0.762 -1.4722  1.3485  1.1048
    4CHTO  H173 1362   8.171   7.299   0.895 -1.0921  0.6971  1.1945
    4CHTO   C94 1363   8.150   7.636   0.918 -0.1729 -0.2460  0.4343
    4CHTO  H181 1364   8.253   7.656   0.950 -0.4244  0.5823  0.7179
    4CHTO   O61 1365   8.066   7.717   1.005 -0.2434 -0.0010 -0.3755
    4CHTO   C95 1366   8.076   7.692   1.151  0.3722  0.3569 -0.7102
    4CHTO  H182 1367   8.176   7.708   1.191  0.8096  0.7829 -1.9394
    4CHTO  C106 1368   7.988   7.804   1.227  0.2645  0.3546  0.4319
    4CHTO   O69 1369   7.846   7.788   1.216 -0.1341  0.4598  0.2513
    4CHTO  H169 1370   7.796   7.850   1.264 -1.2694 -1.6239  1.8203
    4CHTO   O63 1371   8.133   7.687   0.769 -0.0238  0.2147 -0.1448
    4CHTO   C96 1372   7.987   7.708   0.709  0.7044 -0.1557  0.6255
    4CHTO  H183 1373   7.921   7.664   0.784 -0.9634  0.9771 -0.1529
    4CHTO   C98 1374   7.963   7.627   0.586 -0.1536  0.3836  0.7237
    4CHTO  H185 1375   8.039   7.667   0.518 -0.7518  1.3451  0.6061
    4CHTO   O67 1376   8.004   7.487   0.617 -0.0951 -0.2931  0.0338
    4CHTO  H167 1377   8.081   7.494   0.670 -0.1170  1.1854 -0.1215
    4CHTO  C102 1378   7.809   7.644   0.539  0.0197 -0.8326 -0.2761
    4CHTO  H189 1379   7.745   7.597   0.616  1.3692 -0.6681  0.9873
    4CHTO   N18 1380   7.779   7.568   0.419 -0.2118 -0.4039  0.0208
    4CHTO  H176 1381   7.770   7.629   0.330  0.1541  0.6569  0.6975
    4CHTO  H177 1382   7.697   7.500   0.435 -0.3679 -0.0602  0.7336
    4CHTO  C105 1383   7.765   7.794   0.535 -0.3422  0.3447 -0.0396
    4CHTO  H192 1384   7.800   7.842   0.443 -1.3061  2.6474  0.7652
    4CHTO   O65 1385   7.817   7.874   0.641  0.6521 -0.0793 -0.0377
    4CHTO  C100 1386   7.959   7.858   0.675  0.4256  0.1322  0.5533
    4CHTO  H187 1387   8.026   7.880   0.590  1.5480  0.5895  1.5318
    4CHTO  C107 1388   7.986   7.974   0.778  0.4521  0.2939  0.1228
    4CHTO   O70 1389   7.895   7.982   0.888 -0.5416  0.1429 -0.2173
    4CHTO  H170 1390   7.947   8.014   0.960 -0.6473 -0.6542  0.2143
    4CHTO   O57 1391   7.598   7.797   0.562 -0.3518 -0.3496 -0.5833
    4CHTO   C85 1392   7.505   7.842   0.460  0.1004  0.2719  0.0295
    4CHTO  H157 1393   7.528   7.791   0.364 -0.3635  0.7100 -0.3214
    4CHTO   C83 1394   7.517   8.001   0.442  0.6624 -0.2979 -0.3193
    4CHTO  H155 1395   7.611   8.017   0.390  0.7434  1.3059  0.2931
    4CHTO   O56 1396   7.525   8.055   0.576  0.0934 -0.2227 -0.7213
    4CHTO  H135 1397   7.454   8.110   0.604  2.0691  2.4896 -0.7710
    4CHTO   C81 1398   7.401   8.060   0.361 -0.0636  0.0866 -0.3072
    4CHTO  H153 1399   7.399   8.009   0.264 -0.5098 -0.6491  0.0848
    4CHTO   N14 1400   7.421   8.205   0.331  0.0331  0.0566 -0.3319
    4CHTO  H141 1401   7.519   8.207   0.289  0.7136  2.0641  1.2653
    4CHTO  H142 1402   7.422   8.268   0.418  0.6551  0.7472 -0.8370
    4CHTO   C79 1403   7.263   8.032   0.426  0.4473 -0.2202  0.5676
    4CHTO  H151 1404   7.189   8.059   0.351  0.7557  0.2809  0.4411
    4CHTO   O52 1405   7.247   7.891   0.442 -0.1644 -0.7750 -0.1298
    4CHTO   C86 1406   7.353   7.822   0.510  0.3365 -0.0631  0.4433
    4CHTO  H158 1407   7.340   7.856   0.615 -1.3290 -1.7049  0.7973
    4CHTO   C90 1408   7.322   7.672   0.514 -0.5387 -0.1729  0.0628
    4CHTO   O60 1409   7.213   7.636   0.592  0.2203 -0.6254 -0.1968
    4CHTO  H138 1410   7.238   7.627   0.682 -1.0561 -0.2955  0.2056
    4CHTO   O50 1411   7.238   8.111   0.549 -0.1262 -0.4451  0.3098
    4CHTO   C73 1412   7.152   8.199   0.608  0.4747 -0.2815  0.5467
    4CHTO  H145 1413   7.101   8.271   0.542 -0.1377 -1.3368 -0.1375
    4CHTO   C74 1414   7.237   8.288   0.702 -0.4193 -0.0052  0.6290
    4CHTO  H146 1415   7.317   8.332   0.642  0.5224  0.0250  1.8889
    4CHTO   O54 1416   7.150   8.394   0.753 -0.6524  0.4573 -0.0139
    4CHTO  H133 1417   7.096   8.353   0.817 -0.9454  2.0445  0.7721
    4CHTO   C75 1418   7.303   8.198   0.818  0.0490  0.6660 -0.2633
    4CHTO  H147 1419   7.361   8.117   0.771 -1.2342  0.5591 -1.6989
    4CHTO   N13 1420   7.388   8.272   0.912  0.1609 -0.4184  0.6949
    4CHTO  H139 1421   7.417   8.220   1.002  0.7110 -3.5208 -1.2068
    4CHTO  H140 1422   7.338   8.363   0.939  0.4128 -0.2701  0.6674
    4CHTO   C76 1423   7.184   8.128   0.896 -0.2073 -0.5209 -0.0458
    4CHTO  H148 1424   7.132   8.212   0.943  0.0905 -0.7511  0.6945
    4CHTO   O49 1425   7.096   8.053   0.802  0.1701 -0.0258  0.6303
    4CHTO   C77 1426   7.041   8.129   0.693 -0.3248 -0.7702 -0.2378
    4CHTO  H149 1427   6.971   8.203   0.732  1.6405 -0.2768  2.5304
    4CHTO   C88 1428   6.957   8.044   0.600 -0.0411  0.0015  0.2952
    4CHTO   O58 1429   6.835   7.991   0.671 -0.1963  0.0249 -0.1981
    4CHTO  H136 1430   6.842   7.899   0.686  0.4937  0.2947  1.3026
    4CHTO   O51 1431   7.253   8.013   1.013  0.2351 -0.0307  0.2917
    4CHTO   C78 1432   7.263   7.844   0.941 -0.1658  0.8717 -0.0328
    4CHTO  H150 1433   7.220   7.844   0.839  0.5751 -2.0506 -0.4126
    4CHTO   C80 1434   7.181   7.739   1.022 -0.0241 -0.3222 -0.1263
    4CHTO  H152 1435   7.232   7.720   1.119 -1.4860 -0.1741  0.6819
    4CHTO   O55 1436   7.043   7.786   1.036 -0.5281  0.7516 -0.3681
    4CHTO  H134 1437   7.026   7.846   1.106  2.6300  1.9688 -0.5868
    4CHTO   C84 1438   7.186   7.599   0.950 -0.4230  0.2390 -0.0255
    4CHTO  H156 1439   7.142   7.607   0.851 -3.4003  0.6655  1.2795
    4CHTO   N15 1440   7.118   7.490   1.032  0.4351 -0.2919  0.0627
    4CHTO  H143 1441   7.102   7.523   1.132  2.2206  1.8586 -0.3297
    4CHTO  H144 1442   7.025   7.458   0.988 -0.1284  0.5392  0.6299
    4CHTO   C87 1443   7.333   7.562   0.907 -0.4348 -0.0935 -0.1976
    4CHTO  H159 1444   7.391   7.527   0.992  0.7602  0.6614 -0.6951
    4CHTO   O53 1445   7.414   7.677   0.852  0.0196  0.4360 -0.6533
    4CHTO   C82 1446   7.410   7.792   0.941  0.8890 -0.0323  0.3566
    4CHTO  H154 1447   7.442   7.773   1.043 -0.1603  0.5058  0.7983
    4CHTO   C89 1448   7.504   7.903   0.889 -0.4476 -0.2260 -0.0988
    4CHTO   O59 1449   7.641   7.858   0.892  0.6161  0.7314 -0.5575
    4CHTO  H137 1450   7.668   7.812   0.969  2.4068 -0.3896 -1.8176
    4CHTO   O45 1451   7.335   7.444   0.784 -0.4059 -0.4899  0.1845
    4CHTO   C67 1452   7.462   7.421   0.719  0.0800  0.1414  0.3294
    4CHTO  H124 1453   7.490   7.505   0.655  0.8099 -0.3353  0.0097
    4CHTO   C65 1454   7.579   7.398   0.823 -0.2184  0.2904 -0.0031
    4CHTO  H122 1455   7.579   7.492   0.878 -0.3431  0.3448 -0.0951
    4CHTO   O44 1456   7.707   7.386   0.764 -0.1637  0.0378  0.3692
    4CHTO  H102 1457   7.769   7.448   0.796  1.4794 -0.6752 -1.3767
    4CHTO   C63 1458   7.532   7.284   0.912 -0.0268  0.1874 -0.1591
    4CHTO  H120 1459   7.435   7.305   0.959  0.0035 -0.7520  0.3548
    4CHTO   N11 1460   7.620   7.268   1.038 -0.1230  0.3070 -0.1229
    4CHTO  H108 1461   7.707   7.205   1.034  0.7213  1.4247  0.4448
    4CHTO  H109 1462   7.556   7.246   1.121  0.0625 -0.5688 -0.1978
    4CHTO   C61 1463   7.507   7.155   0.826  0.1243  0.1636  0.3528
    4CHTO  H118 1464   7.452   7.086   0.892 -1.1358  1.3947  0.6116
    4CHTO   O40 1465   7.420   7.180   0.713  0.6747  0.4173  0.4213
    4CHTO   C68 1466   7.436   7.292   0.624 -0.2990  0.1875 -0.9067
    4CHTO  H125 1467   7.334   7.303   0.581 -0.5419  2.6732  0.2433
    4CHTO   C72 1468   7.534   7.273   0.505 -0.1410 -0.1640 -0.3371
    4CHTO   O48 1469   7.478   7.182   0.410 -0.2534 -0.3626  0.4448
    4CHTO  H105 1470   7.546   7.162   0.349 -0.5551 -0.7232  0.2258
    4CHTO   O38 1471   7.627   7.094   0.778 -0.2826 -0.2600 -0.0763
    4CHTO   C55 1472   7.635   6.949   0.801 -0.2144 -0.5201 -0.4025
    4CHTO  H112 1473   7.532   6.909   0.810  0.3928 -1.9034  0.5689
    4CHTO   C56 1474   7.723   6.920   0.928  0.7081  0.5421 -0.3406
    4CHTO  H113 1475   7.816   6.976   0.912 -0.1795  2.2613  0.3667
    4CHTO   O42 1476   7.659   6.973   1.048  0.4210  0.2762 -0.0013
    4CHTO  H100 1477   7.642   7.065   1.040 -1.5814 -0.0314  0.5269
    4CHTO   C57 1478   7.747   6.761   0.937 -0.3431  0.2956 -1.1410
    4CHTO  H114 1479   7.660   6.708   0.975 -0.3648  0.5011 -0.9001
    4CHTO   N10 1480   7.847   6.734   1.047 -0.3250  0.0886  0.6258
    4CHTO  H106 1481   7.912   6.820   1.052  0.6760 -0.5777 -0.6225
    4CHTO  H107 1482   7.910   6.652   1.016  1.3876  1.9605 -1.0435
    4CHTO   C58 1483   7.783   6.696   0.801 -0.0055 -0.2677  0.3312
    4CHTO  H115 1484   7.888   6.726   0.780 -0.4155 -0.4526 -2.1020
    4CHTO   O37 1485   7.704   6.745   0.694  0.2584 -1.1040  0.0917
    4CHTO   C59 1486   7.697   6.885   0.674 -0.4547  0.1269  0.4775
    4CHTO  H116 1487   7.793   6.932   0.655  0.1135 -1.2643 -0.1490
    4CHTO   C70 1488   7.601   6.910   0.559  0.5348 -0.2399 -0.0383
    4CHTO   O46 1489   7.646   6.858   0.437 -0.0524 -0.2452 -0.1201
    4CHTO  H103 1490   7.644   6.765   0.443  0.0513 -0.2950 -0.8018
    4CHTO   O39 1491   7.780   6.524   0.825  0.7673  0.4365  0.0799
    4CHTO   C60 1492   7.681   6.460   0.737  0.5612 -0.2277  0.8886
    4CHTO  H117 1493   7.591   6.519   0.720  1.2352  0.9311  1.3352
    4CHTO   C62 1494   7.751   6.416   0.602  0.2596 -0.9247  0.3338
    4CHTO  H119 1495   7.765   6.510   0.544  1.0285 -0.3739  1.3925
    4CHTO   O43 1496   7.873   6.349   0.631 -0.2002  0.2189 -0.0737
    4CHTO  H101 1497   7.930   6.392   0.691 -0.1775  2.3108 -1.5340
    4CHTO   C66 1498   7.655   6.323   0.525 -1.0267  0.0767 -1.1101
    4CHTO  H123 1499   7.559   6.369   0.505 -0.4654  1.0545 -1.6062
    4CHTO   N12 1500   7.703   6.288   0.384 -0.1440 -0.1210 -1.0120
    4CHTO  H110 1501   7.698   6.183   0.361 -2.5030 -0.1374 -0.5662
    4CHTO  H111 1502   7.634   6.340   0.320 -0.6683 -4.0355 -3.8079
    4CHTO   C69 1503   7.627   6.194   0.608  0.7168  0.0838 -0.5906
    4CHTO  H126 1504   7.726   6.152   0.635  0.5385 -1.5681 -2.4141
    4CHTO   O41 1505   7.555   6.225   0.721  0.0066  0.7006 -0.3787
    4CHTO   C64 1506   7.630   6.325   0.817 -0.3573 -0.0584  0.2870
    4CHTO  H121 1507   7.709   6.257   0.855  1.7328  0.9480 -2.0931
    4CHTO   C71 1508   7.518   6.363   0.914  0.2987 -0.1246 -0.2987
    4CHTO   O47 1509   7.571   6.420   1.032  0.0038 -0.1671  0.1449
    4CHTO  H104 1510   7.634   6.487   1.013  1.4389 -1.3672  0.6210
    4CHTO   O34 1511   7.532   6.089   0.528  0.4060 -0.4545  0.1181
    4CHTO   C49 1512   7.467   5.953   0.542 -0.6797  0.1695 -0.8811
    4CHTO   H91 1513   7.382   5.951   0.609  1.8206 -0.5379  2.4208
    4CHTO   C47 1514   7.568   5.859   0.615 -0.4724  0.5541  0.2441
    4CHTO   H89 1515   7.520   5.760   0.632 -1.6353  1.1859  0.7279
    4CHTO   O33 1516   7.604   5.923   0.741 -0.3274  0.1509 -0.2017
    4CHTO   H70 1517   7.676   5.979   0.719  0.4199 -1.7547 -2.8889
    4CHTO   C45 1518   7.698   5.835   0.516 -0.7503 -0.6767 -0.0393
    4CHTO   H87 1519   7.742   5.934   0.496 -2.7007  0.1101 -0.4805
    4CHTO    N8 1520   7.803   5.750   0.594  0.7390  0.6945 -0.1791
    4CHTO   H75 1521   7.768   5.647   0.594 -0.3065  1.0458 -0.8638
    4CHTO   H76 1522   7.823   5.794   0.691  1.8836 -0.4472  0.1272
    4CHTO   C43 1523   7.656   5.770   0.379  0.3404 -0.6853 -0.2963
    4CHTO   H85 1524   7.744   5.772   0.315  1.1759  0.8628  0.8756
    4CHTO   O29 1525   7.544   5.844   0.323  0.6697 -0.4638 -0.4506
    4CHTO   C50 1526   7.435   5.890   0.408 -0.0312 -0.0998 -0.3500
    4CHTO   H92 1527   7.398   5.973   0.347  1.3557 -0.4875 -1.7457
    4CHTO   C54 1528   7.315   5.793   0.401  0.5115 -0.0906 -0.5294
    4CHTO   O36 1529   7.213   5.831   0.482  0.0943 -0.4358 -0.6308
    4CHTO   H72 1530   7.143   5.773   0.457  0.7467 -1.6406  0.3067
    4CHTO   O27 1531   7.615   5.630   0.396 -0.2425  0.0372 -0.2352
    4CHTO   C37 1532   7.647   5.493   0.365 -0.0313  0.7126  0.0382
    4CHTO   H79 1533   7.600   5.467   0.269 -2.6393  3.6212  0.4566
    4CHTO   C38 1534   7.802   5.471   0.336 -0.5010  0.9529 -0.1422
    4CHTO   H80 1535   7.858   5.504   0.425 -0.4346 -0.3088  0.2822
    4CHTO   O31 1536   7.847   5.547   0.222  0.0540  0.1235  0.2109
    4CHTO   H68 1537   7.927   5.519   0.181  0.3139  0.3468  0.5612
    4CHTO   C39 1538   7.836   5.310   0.313 -0.4063 -1.1191  0.5023
    4CHTO   H81 1539   7.795   5.282   0.216  1.2134  1.8483 -1.1184
    4CHTO    N7 1540   7.981   5.287   0.310  0.2457  0.0385  0.4228
    4CHTO   H73 1541   8.036   5.336   0.389 -0.7197  0.9705  0.5258
    4CHTO   H74 1542   8.019   5.314   0.212  2.3190 -1.3466  0.8188
    4CHTO   C40 1543   7.762   5.230   0.426  0.1193  0.7490  0.4211
    4CHTO   H82 1544   7.817   5.233   0.521 -1.1540 -0.3965  1.2156
    4CHTO   O26 1545   7.624   5.261   0.441 -0.0277 -0.1252  0.2136
    4CHTO   C41 1546   7.601   5.399   0.482  0.8380 -0.2408 -0.2528
    4CHTO   H83 1547   7.660   5.429   0.570  2.0472 -0.2796 -1.0321
    4CHTO   C52 1548   7.446   5.411   0.501  0.9965  0.5978  0.6916
    4CHTO   O35 1549   7.390   5.535   0.562  0.2733  0.3232  0.1819
    4CHTO   H71 1550   7.397   5.604   0.499 -0.0523  1.1428  1.0164
    4CHTO   O28 1551   7.746   5.095   0.387  0.1604 -0.1426 -0.1413
    4CHTO   C42 1552   7.726   4.985   0.488 -0.0748 -0.2370 -0.3522
    4CHTO   H84 1553   7.703   4.905   0.418 -0.3106 -0.6849  0.2285
    4CHTO   C44 1554   7.602   5.002   0.579  0.0194  0.3906  0.0053
    4CHTO   H86 1555   7.613   5.096   0.633  0.3035  1.2176 -1.4555
    4CHTO   O32 1556   7.477   4.996   0.494 -0.1443 -0.5015 -0.5563
    4CHTO   H69 1557   7.491   4.924   0.434 -2.7575 -1.4439 -0.0953
    4CHTO   C48 1558   7.597   4.887   0.689 -0.1377  0.2284 -1.0062
    4CHTO   H90 1559   7.586   4.798   0.627 -1.5675 -1.7641  1.9749
    4CHTO    N9 1560   7.474   4.899   0.777  0.4426  0.0208  0.4371
    4CHTO   H77 1561   7.447   4.798   0.803  0.5888 -0.3854 -0.9044
    4CHTO   H78 1562   7.505   4.967   0.855  1.6234  0.7357 -0.6278
    4CHTO   C51 1563   7.727   4.885   0.765 -1.4967 -0.0763  0.2145
    4CHTO   H93 1564   7.738   4.991   0.789  0.5120  0.4939 -2.8580
    4CHTO   O30 1565   7.836   4.842   0.679 -0.0733  0.3746 -0.1302
    4CHTO   C46 1566   7.863   4.942   0.557 -0.3091  0.7354 -0.5605
    4CHTO   H88 1567   7.902   5.035   0.598 -2.8575  1.5972 -0.0057
    4CHTO   C53 1568   7.954   4.874   0.469  0.4649 -0.7272 -0.3892
    4CHTO   O72 1569   8.087   4.883   0.521 -0.5607  0.0944  0.3740
    4CHTO  H199 1570   8.106   4.974   0.535  1.0325 -0.9574  6.3437
    4CHTO   O22 1571   7.725   4.805   0.885  0.2422  0.1351  0.4045
    4CHTO   C31 1572   7.809   4.830   1.003 -0.2483  0.2397 -1.0158
    4CHTO   H59 1573   7.764   4.761   1.077  0.2226  0.2052 -0.7601
    4CHTO   C29 1574   7.960   4.790   0.990  0.0548 -0.4912 -0.5873
    4CHTO   H57 1575   8.010   4.843   0.908 -3.0258  2.3505 -0.7085
    4CHTO   O21 1576   7.956   4.649   0.960  0.2991 -0.4464  0.1337
    4CHTO   H37 1577   8.022   4.629   0.896 -0.4898  0.6557 -1.0600
    4CHTO   C27 1578   8.046   4.815   1.121  0.8981 -0.3238 -0.2321
    4CHTO   H55 1579   8.005   4.754   1.203 -0.9768 -1.1960 -1.7923
    4CHTO    N5 1580   8.189   4.780   1.110 -0.2714 -0.1623 -0.1214
    4CHTO   H43 1581   8.182   4.677   1.078  2.3055 -0.7005  0.9192
    4CHTO   H44 1582   8.231   4.844   1.034  0.8016 -1.1591 -0.3708
    4CHTO   C25 1583   8.022   4.959   1.175 -0.9981 -0.4646 -0.5403
    4CHTO   H53 1584   8.062   5.039   1.111  0.5773  0.7579  1.8965
    4CHTO   O17 1585   7.878   4.988   1.185  0.1573 -0.4247 -0.4225
    4CHTO   C32 1586   7.792   4.973   1.064  0.2936 -0.4494 -0.0100
    4CHTO   H60 1587   7.821   5.045   0.988 -0.9571 -2.0343 -2.0246
    4CHTO   C36 1588   7.661   5.019   1.129  0.2649  0.8828  0.6426
    4CHTO   O25 1589   7.546   5.032   1.046 -0.0553 -0.2841  0.1680
    4CHTO   H40 1590   7.569   5.071   0.964  0.2790  0.0016  0.3962
    4CHTO   O15 1591   8.078   4.978   1.317 -0.1301 -0.5187 -0.1411
    4CHTO   C19 1592   8.086   5.023   1.453  0.6676  0.2797  0.0339
    4CHTO   H47 1593   8.105   4.929   1.507  2.3586 -0.1025 -1.1627
    4CHTO   C20 1594   8.200   5.122   1.478  0.1030  0.2205 -0.2845
    4CHTO   H48 1595   8.190   5.210   1.412  1.1161  1.8593  1.6919
    4CHTO   O19 1596   8.324   5.048   1.444  0.7815  0.0511 -0.3660
    4CHTO   H35 1597   8.341   4.980   1.506 -1.6998  0.8267  1.2382
    4CHTO   C21 1598   8.207   5.170   1.627 -0.1466 -0.1862 -0.2887
    4CHTO   H49 1599   8.247   5.089   1.688  1.3988 -0.1484 -1.2205
    4CHTO    N4 1600   8.307   5.276   1.644  0.0298 -0.5501  0.2347
    4CHTO   H41 1601   8.400   5.249   1.596 -0.5268  2.0088 -2.4592
    4CHTO   H42 1602   8.323   5.294   1.749 -2.5026 -0.3889  0.6144
    4CHTO   C22 1603   8.068   5.205   1.677 -0.5770  0.5221  0.7615
    4CHTO   H50 1604   8.045   5.301   1.631 -1.5229 -0.5397 -1.0200
    4CHTO   O14 1605   7.960   5.115   1.641 -0.0259  1.1256 -0.0107
    4CHTO   C23 1606   7.949   5.084   1.502  0.0133  1.2484 -0.4599
    4CHTO   H51 1607   7.917   5.170   1.442 -0.1739  1.6934  0.2836
    4CHTO   C34 1608   7.831   4.986   1.494  0.0573 -0.0801  0.2622
    4CHTO   O23 1609   7.709   5.044   1.543 -0.2917  0.0568 -0.4497
    4CHTO   H38 1610   7.684   5.008   1.626 -0.4576  1.3939  0.1061
    4CHTO   O16 1611   8.067   5.200   1.821 -0.1112 -0.3956 -0.3910
    4CHTO   C24 1612   7.955   5.303   1.880 -0.3970  0.0427  1.6256
    4CHTO   H52 1613   7.891   5.340   1.800  0.4043  0.0006  0.9577
    4CHTO   C26 1614   8.030   5.419   1.953 -0.7197  0.1454 -0.2875
    4CHTO   H54 1615   8.126   5.379   1.990 -0.8229  2.0712  2.1508
    4CHTO   O20 1616   8.052   5.519   1.852 -0.2639 -0.1216 -0.7558
    4CHTO   H36 1617   7.974   5.532   1.802 -1.3838 -1.2736  0.6776
    4CHTO   C30 1618   7.949   5.475   2.073 -0.0783 -0.9638  0.3885
    4CHTO   H58 1619   7.865   5.539   2.043  0.5100 -0.9995 -1.3729
    4CHTO    N6 1620   8.049   5.561   2.145 -0.2203 -0.2331  0.0071
    4CHTO   H45 1621   8.084   5.507   2.233 -3.1552 -1.2921  0.5811
    4CHTO   H46 1622   7.988   5.642   2.182  0.4868 -1.1409  3.3762
    4CHTO   C33 1623   7.885   5.367   2.165  0.4517  0.5607  0.8329
    4CHTO   H61 1624   7.966   5.304   2.206 -0.0122 -1.8204 -1.7764
    4CHTO   O18 1625   7.804   5.297   2.077 -0.4888  0.2155 -0.1046
    4CHTO   C28 1626   7.865   5.217   1.980  0.4368  0.1892  0.1201
    4CHTO   H56 1627   7.930   5.150   2.036 -0.4509 -0.6617  0.1567
    4CHTO   C35 1628   7.755   5.153   1.900  0.2845  0.1101 -0.3717
    4CHTO   O24 1629   7.680   5.048   1.964 -0.1163 -0.2184  0.0278
    4CHTO   H39 1630   7.659   4.988   1.895 -1.0094  0.4065 -0.2604
    4CHTO    O9 1631   7.809   5.417   2.274 -0.5161 -0.0803  0.0809
    4CHTO   C13 1632   7.761   5.300   2.381 -0.8372  0.3484 -0.0810
    4CHTO   H26 1633   7.805   5.203   2.349 -0.3198  0.0799  1.4080
    4CHTO   C11 1634   7.596   5.285   2.399  0.0040  0.4839  0.3013
    4CHTO   H24 1635   7.581   5.176   2.409  2.1465 -0.0306 -1.5815
    4CHTO    O8 1636   7.548   5.321   2.269  0.5506 -0.1264 -0.3769
    4CHTO    H3 1637   7.576   5.409   2.255  1.2155 -0.1448  0.7716
    4CHTO    C9 1638   7.542   5.366   2.523  0.1370 -0.1805 -0.3842
    4CHTO   H22 1639   7.556   5.292   2.603 -0.9877 -0.7944 -0.7439
    4CHTO    N2 1640   7.398   5.381   2.531 -0.2112 -0.6556  0.5536
    4CHTO   H10 1641   7.369   5.364   2.633  1.3181 -1.7903  0.8116
    4CHTO   H11 1642   7.349   5.301   2.476  0.2509 -1.5675  1.4715
    4CHTO    C7 1643   7.627   5.497   2.548  0.3852 -0.1597  0.4746
    4CHTO   H20 1644   7.592   5.539   2.644 -0.2282 -0.0093  0.1880
    4CHTO    O4 1645   7.772   5.467   2.565  0.6920  0.0611  0.4692
    4CHTO   C14 1646   7.830   5.344   2.517  0.0383  0.2573  0.6534
    4CHTO   H27 1647   7.813   5.262   2.591  1.0733 -3.0740 -2.6739
    4CHTO   C18 1648   7.981   5.369   2.514  0.0038 -0.0259  0.0115
    4CHTO   O13 1649   8.043   5.242   2.473  0.3346  0.3017 -0.3253
    4CHTO    H7 1650   8.098   5.217   2.544 -2.5332  1.0871  2.3125
    4CHTO    O2 1651   7.598   5.603   2.422  0.1053  0.0661  0.1822
    4CHTO    C1 1652   7.627   5.742   2.448 -0.0483 -0.0886  0.0146
    4CHTO   H14 1653   7.623   5.793   2.350 -0.7312 -1.5606 -0.7334
    4CHTO    C2 1654   7.773   5.768   2.508  0.4810  0.6272 -0.2535
    4CHTO   H15 1655   7.786   5.701   2.594 -2.9489  1.6550  1.1711
    4CHTO    O6 1656   7.868   5.735   2.406  0.0395 -0.1692 -0.0131
    4CHTO    H1 1657   7.952   5.722   2.444 -0.4145 -1.7452  0.4932
    4CHTO    C3 1658   7.793   5.918   2.545  0.3763  0.3672  1.1872
    4CHTO   H16 1659   7.788   5.976   2.452 -0.1554 -3.0155 -0.9592
    4CHTO    N1 1660   7.918   5.951   2.603 -0.0164  0.6432  0.1232
    4CHTO    H8 1661   7.928   5.908   2.701  1.9756  2.2395  0.6577
    4CHTO    H9 1662   8.005   5.935   2.540  1.1570 -0.3892  1.9743
    4CHTO    C4 1663   7.672   5.970   2.629  0.4097 -0.4142 -0.1319
    4CHTO   H17 1664   7.682   5.938   2.733 -0.1424 -0.2719 -0.0378
    4CHTO    O1 1665   7.546   5.935   2.568 -0.0571  0.1343 -1.2319
    4CHTO    C5 1666   7.523   5.803   2.541 -0.4425  0.0984 -0.2205
    4CHTO   H18 1667   7.523   5.744   2.633 -1.2563 -0.5935 -0.6600
    4CHTO   C16 1668   7.389   5.786   2.465  0.1258  0.3970  0.3525
    4CHTO   O11 1669   7.280   5.823   2.544  0.4696  0.2593 -0.3768
    4CHTO    H5 1670   7.290   5.912   2.571  0.8101 -0.1832  0.9955
    4CHTO    O3 1671   7.671   6.113   2.625  0.0979  0.0475  0.5010
    4CHTO    C6 1672   7.609   6.175   2.747 -0.4344 -1.0667 -0.3546
    4CHTO   H19 1673   7.558   6.104   2.811  1.0969 -0.8309  1.1485
    4CHTO    C8 1674   7.732   6.234   2.829  0.2010 -0.8369  0.2085
    4CHTO   H21 1675   7.803   6.281   2.761 -1.3572  0.2664 -0.7116
    4CHTO    O7 1676   7.799   6.131   2.897  0.0255 -0.1753 -0.3799
    4CHTO    H2 1677   7.851   6.160   2.969  0.7860 -4.0991  0.7871
    4CHTO   C12 1678   7.677   6.342   2.933  0.1622  0.0604 -0.5794
    4CHTO   H25 1679   7.624   6.286   3.013 -0.5739 -0.0743 -1.1686
    4CHTO    N3 1680   7.788   6.416   3.003  0.8589 -0.1173  0.3940
    4CHTO   H12 1681   7.810   6.375   3.100  1.2645  0.3352  0.4938
    4CHTO   H13 1682   7.873   6.416   2.937 -0.3674 -2.3072 -1.2535
    4CHTO   C15 1683   7.578   6.444   2.865 -0.0252 -0.0399  0.3918
    4CHTO   H28 1684   7.620   6.510   2.789  2.2280  1.2990  2.6907
    4CHTO   O10 1685   7.504   6.543   2.969 -0.4188 -0.0341 -0.4786
    4CHTO    H4 1686   7.420   6.566   2.936 -0.8781 -0.4790  0.3585
    4CHTO    O5 1687   7.475   6.363   2.806  0.8805 -0.0590  0.0725
    4CHTO   C10 1688   7.509   6.280   2.696 -0.4034 -0.5661 -0.3710
    4CHTO   H23 1689   7.561   6.346   2.627 -1.7095  1.2013  0.3232
    4CHTO   C17 1690   7.393   6.219   2.619  0.1894  0.4231 -0.1510
    4CHTO   O12 1691   7.317   6.139   2.707 -0.1265 -0.2342  0.7073
    4CHTO    H6 1692   7.284   6.194   2.776 -1.7895 -0.5398  0.1763
    5CHTO  H203 1693   8.105   3.135   1.933 -0.4158  1.1809  0.6533
    5CHTO   O82 1694   8.032   3.077   1.931  0.6605 -0.1554 -0.2228
    5CHTO  C123 1695   8.020   3.008   2.060  0.7395  1.1689  1.0416
    5CHTO  H227 1696   8.115   2.967   2.095  1.3072  0.6509 -1.0516
    5CHTO   O77 1697   7.978   3.106   2.156  0.4988  0.1718 -0.4311
    5CHTO  C118 1698   7.976   3.062   2.289  0.1142 -0.2292 -0.0821
    5CHTO  H222 1699   8.067   3.004   2.308 -0.1413 -0.4199  0.5827
    5CHTO  C125 1700   7.968   3.186   2.385  0.3062  0.9433  0.3376
    5CHTO   O84 1701   7.854   3.260   2.349  0.4537 -0.1920  0.2475
    5CHTO  H205 1702   7.773   3.220   2.375 -0.7700 -0.4687 -3.6298
    5CHTO  C114 1703   7.852   2.960   2.292 -0.6069  0.3961  0.0763
    5CHTO  H218 1704   7.762   3.010   2.255 -0.8993 -1.2868 -1.5191
    5CHTO  C116 1705   7.874   2.840   2.198 -0.3313 -0.3823  0.0835
    5CHTO  H220 1706   7.963   2.791   2.244 -0.1202  0.2285  0.3359
    5CHTO   O79 1707   7.757   2.758   2.210  0.1887 -0.4265 -1.0066
    5CHTO  H201 1708   7.759   2.685   2.152 -0.1090  1.1247 -3.0586
    5CHTO  C120 1709   7.914   2.890   2.056  0.4892  0.2712  0.3916
    5CHTO  H224 1710   7.817   2.924   2.014  0.6309 -0.4770 -0.5640
    5CHTO   N21 1711   7.952   2.784   1.960  0.6648 -0.3306 -0.1569
    5CHTO  H211 1712   8.060   2.777   1.958  0.7168  0.5962 -1.1171
    5CHTO  H212 1713   7.906   2.757   1.866  2.7648  1.7368 -1.8536
    5CHTO   O75 1714   7.839   2.926   2.430  0.2082  0.3111 -0.1253
    5CHTO  C112 1715   7.682   2.944   2.486 -0.1279  0.2157  0.3745
    5CHTO  H216 1716   7.614   2.882   2.425 -1.2834  1.6791  0.1309
    5CHTO   O73 1717   7.649   3.081   2.475  0.4145  0.0994  0.5138
    5CHTO  C113 1718   7.517   3.114   2.518  0.1017  0.4175 -0.2398
    5CHTO  H217 1719   7.440   3.060   2.458  1.6074  0.2596 -2.0837
    5CHTO  C124 1720   7.503   3.262   2.485  0.3909 -0.0765  0.2217
    5CHTO   O83 1721   7.368   3.314   2.498 -0.6222  0.3538 -0.4446
    5CHTO  H204 1722   7.331   3.305   2.583  1.4396 -0.2837  0.4060
    5CHTO  C109 1723   7.494   3.075   2.674 -0.3517  0.8122 -0.1630
    5CHTO  H213 1724   7.550   3.148   2.734 -0.8357  0.9567  0.1125
    5CHTO  C110 1725   7.542   2.934   2.704 -0.3019 -0.5160 -0.0919
    5CHTO  H214 1726   7.460   2.867   2.678 -0.7287  0.4712 -1.2777
    5CHTO   O78 1727   7.559   2.924   2.847 -0.3116 -0.6404 -0.4080
    5CHTO  H200 1728   7.527   2.843   2.882  0.6809 -0.9171 -0.1294
    5CHTO  C111 1729   7.677   2.892   2.634 -0.1713 -0.0194  0.1289
    5CHTO  H215 1730   7.754   2.944   2.694 -1.1541  0.7987  0.7064
    5CHTO   N19 1731   7.716   2.745   2.636 -0.6985 -0.2533 -0.1928
    5CHTO  H207 1732   7.627   2.694   2.670 -1.1543 -0.3510 -1.5273
    5CHTO  H208 1733   7.784   2.742   2.720 -0.1327  2.3069 -0.5347
    5CHTO   O74 1734   7.352   3.096   2.699  0.2452 -0.1269 -0.3389
    5CHTO  C115 1735   7.332   3.131   2.842  0.3715 -0.2589 -0.1838
    5CHTO  H219 1736   7.399   3.077   2.909  0.0154 -1.8848 -1.0988
    5CHTO   O76 1737   7.350   3.291   2.872 -0.4417  0.1387  0.2333
    5CHTO  C122 1738   7.251   3.384   2.824 -0.0460  0.6838  0.5294
    5CHTO  H226 1739   7.281   3.413   2.724  1.7088 -1.5472  0.3754
    5CHTO  C126 1740   7.262   3.513   2.907  0.0763 -0.0642  0.3287
    5CHTO   O85 1741   7.394   3.562   2.908 -0.1476  0.4549  0.4856
    5CHTO  H206 1742   7.387   3.655   2.915  0.0262  0.6410 -1.5047
    5CHTO  C121 1743   7.114   3.324   2.838 -0.5922 -0.6783  0.3150
    5CHTO  H225 1744   7.041   3.398   2.876 -0.5750 -1.2125  1.4205
    5CHTO   O81 1745   7.059   3.296   2.706  0.3809 -0.6014  0.1432
    5CHTO  H202 1746   7.102   3.232   2.652  2.4463  1.0857 -0.3111
    5CHTO  C119 1747   7.096   3.196   2.930  0.4455  0.5590 -0.1725
    5CHTO  H223 1748   7.142   3.227   3.025  2.7603  2.3167 -1.8030
    5CHTO  C117 1749   7.182   3.078   2.864 -0.1693 -0.4972 -0.2724
    5CHTO  H221 1750   7.152   3.035   2.768  3.0763 -0.2514 -1.4290
    5CHTO   N20 1751   7.179   2.954   2.949  0.1653 -0.0923 -0.5049
    5CHTO  H209 1752   7.279   2.916   2.961  1.2473  2.7899  0.0482
    5CHTO  H210 1753   7.114   2.876   2.913  0.4490 -0.4811 -0.1777
    5CHTO   O80 1754   6.952   3.162   2.974 -0.2276 -0.3289  0.4435
    5CHTO  C103 1755   6.833   3.162   2.876  0.0919 -0.1504  0.3770
    5CHTO  H190 1756   6.842   3.253   2.816 -0.4438 -0.9482 -0.9306
    5CHTO  C101 1757   6.810   3.043   2.772  0.4062 -0.2094  1.2616
    5CHTO  H188 1758   6.789   2.952   2.829  1.3768  1.1054  3.8207
    5CHTO   O68 1759   6.941   3.028   2.662 -0.3932  0.0361  0.0565
    5CHTO  H168 1760   6.924   3.067   2.579  4.1557 -1.0222 -1.5324
    5CHTO   C99 1761   6.681   3.081   2.688 -0.1941 -0.1463  0.7961
    5CHTO  H186 1762   6.696   3.175   2.631  0.3825  0.2448  1.5764
    5CHTO   N17 1763   6.641   2.981   2.587  0.5661  0.1121  0.3158
    5CHTO  H174 1764   6.630   2.882   2.629  0.3739  0.0281  0.0707
    5CHTO  H175 1765   6.714   2.972   2.508  1.4953 -0.4584  1.2239
    5CHTO   C97 1766   6.553   3.101   2.777  0.1830 -0.2997  0.2592
    5CHTO  H184 1767   6.527   3.002   2.817 -0.5308 -0.1500  0.1673
    5CHTO   O64 1768   6.588   3.191   2.884 -0.2380  0.0692 -0.0345
    5CHTO  C104 1769   6.707   3.179   2.969 -0.3065  0.4642  0.5491
    5CHTO  H191 1770   6.697   3.093   3.035  0.3509 -1.9260 -2.3653
    5CHTO  C108 1771   6.713   3.307   3.057 -0.5907 -0.2573  0.5443
    5CHTO   O71 1772   6.602   3.300   3.146 -0.5249 -0.0371 -0.0105
    5CHTO  H171 1773   6.585   3.389   3.172 -0.7451  0.3616 -1.4998
    5CHTO   O62 1774   6.434   3.156   2.720 -0.3018  0.4010  0.0029
    5CHTO   C91 1775   6.318   3.099   2.773  0.6937 -0.4468  0.4262
    5CHTO  H178 1776   6.334   3.072   2.877  2.0433 -1.8263 -0.0980
    5CHTO   C92 1777   6.280   2.962   2.696  0.7377  0.1805 -0.1906
    5CHTO  H179 1778   6.370   2.919   2.651  0.5826  1.2339 -1.5417
    5CHTO   O66 1779   6.219   2.864   2.796 -0.6070 -0.4036 -0.1896
    5CHTO  H166 1780   6.140   2.892   2.839 -0.9323  0.1433 -1.1250
    5CHTO   C93 1781   6.170   2.987   2.584 -0.2245  0.0404  0.0743
    5CHTO  H180 1782   6.139   2.885   2.555 -0.3189 -0.1211  0.7424
    5CHTO   N16 1783   6.230   3.047   2.461 -0.2222 -0.3510  0.2812
    5CHTO  H172 1784   6.323   2.996   2.443  0.7748  1.5173  0.0527
    5CHTO  H173 1785   6.252   3.152   2.478 -0.9576 -0.4448  1.9636
    5CHTO   C94 1786   6.046   3.063   2.639  0.2578  0.8853 -0.0785
    5CHTO  H181 1787   6.004   3.131   2.565  0.4674  0.4356 -0.6060
    5CHTO   O61 1788   6.069   3.133   2.763 -0.2781  0.1093  0.0636
    5CHTO   C95 1789   6.200   3.197   2.770  0.6473 -0.4315  0.6224
    5CHTO  H182 1790   6.214   3.252   2.676  0.8751 -3.2828 -1.0601
    5CHTO  C106 1791   6.208   3.289   2.889  0.1720 -0.0884  0.0849
    5CHTO   O69 1792   6.103   3.386   2.896  0.8606  0.0042 -0.2577
    5CHTO  H169 1793   6.022   3.349   2.925  3.1335 -3.2026  2.5043
    5CHTO   O63 1794   5.939   2.957   2.667 -0.0387 -0.5314 -0.5655
    5CHTO   C96 1795   5.855   2.909   2.555  0.2115 -0.8093  0.3250
    5CHTO  H183 1796   5.916   2.926   2.466  1.8641  0.0867  1.5792
    5CHTO   C98 1797   5.717   2.981   2.529  0.2361  0.0298  0.0035
    5CHTO  H185 1798   5.658   2.960   2.619 -1.4683  2.4219 -0.4816
    5CHTO   O67 1799   5.723   3.127   2.513  0.1663 -0.1711 -0.3619
    5CHTO  H167 1800   5.654   3.169   2.560 -0.9091 -2.9642  0.6995
    5CHTO  C102 1801   5.627   2.918   2.405  0.7441  0.9396  0.2830
    5CHTO  H189 1802   5.683   2.939   2.313  1.7433  3.1319  1.3500
    5CHTO   N18 1803   5.495   2.975   2.394 -0.4316  0.6366 -0.5344
    5CHTO  H176 1804   5.424   2.936   2.466  0.2090  3.4066  1.6416
    5CHTO  H177 1805   5.512   3.079   2.415 -0.2154  0.5387 -0.2183
    5CHTO  C105 1806   5.627   2.762   2.417  0.2721  0.2697  0.6381
    5CHTO  H192 1807   5.557   2.738   2.497  0.1611  2.8648  1.3621
    5CHTO   O65 1808   5.753   2.701   2.453 -0.1029  0.2952 -0.4835
    5CHTO  C100 1809   5.814   2.762   2.574  0.2533 -0.2243  0.8111
    5CHTO  H187 1810   5.739   2.765   2.654 -0.7375  1.1656 -0.1527
    5CHTO  C107 1811   5.931   2.674   2.629 -0.0046 -0.3373  0.0296
    5CHTO   O70 1812   5.890   2.541   2.651  0.1579 -0.3134  0.0845
    5CHTO  H170 1813   5.894   2.488   2.573  0.4875 -2.8596  1.7828
    5CHTO   O57 1814   5.563   2.699   2.277  0.4109  0.0620  0.1011
    5CHTO   C85 1815   5.504   2.563   2.258  0.4212 -0.5610  0.1020
    5CHTO  H157 1816   5.404   2.574   2.307  0.2418  1.0037 -0.5851
    5CHTO   C83 1817   5.590   2.447   2.320  0.0837  0.5444  0.5692
    5CHTO  H155 1818   5.601   2.461   2.428 -1.1560 -0.5793  0.8682
    5CHTO   O56 1819   5.720   2.463   2.264  0.0581 -0.8710  0.1339
    5CHTO  H135 1820   5.786   2.451   2.329  0.6232 -3.4743 -0.8618
    5CHTO   C81 1821   5.527   2.309   2.304  0.3883 -0.6036  0.2248
    5CHTO  H153 1822   5.427   2.309   2.349  1.0373 -0.5853  1.6811
    5CHTO   N14 1823   5.600   2.209   2.379  0.0269  0.5880 -0.7271
    5CHTO  H141 1824   5.605   2.233   2.483 -1.6750 -0.2134 -0.4392
    5CHTO  H142 1825   5.697   2.191   2.339  0.3468  0.8516 -0.0771
    5CHTO   C79 1826   5.508   2.277   2.150  0.2577  0.0680  0.2315
    5CHTO  H151 1827   5.460   2.179   2.150  0.1435  0.1239  0.2874
    5CHTO   O52 1828   5.429   2.388   2.094  0.2749  0.0894  0.0895
    5CHTO   C86 1829   5.484   2.524   2.107 -0.4397  0.3324  0.3760
    5CHTO  H158 1830   5.582   2.521   2.054 -0.7753 -0.7791 -0.2009
    5CHTO   C90 1831   5.403   2.629   2.027 -0.1510 -0.2256 -0.1065
    5CHTO   O60 1832   5.490   2.727   1.978  0.2443 -0.6397  0.7249
    5CHTO  H138 1833   5.465   2.806   2.022 -1.7018 -1.1240  0.5598
    5CHTO   O50 1834   5.635   2.239   2.089  0.4791  0.3013  0.1712
    5CHTO   C73 1835   5.686   2.168   1.973  0.2406 -1.0192  0.2848
    5CHTO  H145 1836   5.610   2.196   1.898 -0.3078  0.2231  1.2797
    5CHTO   C74 1837   5.692   2.018   1.983 -0.3852 -0.4537  0.0760
    5CHTO  H146 1838   5.591   1.995   2.020 -0.6679  0.1557 -0.2914
    5CHTO   O54 1839   5.705   1.954   1.853  0.2355 -0.1269  0.5146
    5CHTO  H133 1840   5.784   1.989   1.816  0.1589 -0.3090  0.1760
    5CHTO   C75 1841   5.802   1.982   2.093 -0.2482 -0.1775 -0.0014
    5CHTO  H147 1842   5.772   2.021   2.191 -1.7309 -2.1001  0.3484
    5CHTO   N13 1843   5.825   1.834   2.118  0.6359 -0.4052  0.2781
    5CHTO  H139 1844   5.856   1.800   2.021 -0.1372  0.1576 -0.1717
    5CHTO  H140 1845   5.726   1.794   2.135  1.2602 -1.2418  2.1081
    5CHTO   C76 1846   5.940   2.059   2.066  0.1058 -0.7583 -0.1990
    5CHTO  H148 1847   5.992   2.019   1.979  0.0212  0.1964 -0.7010
    5CHTO   O49 1848   5.916   2.197   2.028 -0.4218 -0.3104 -0.7429
    5CHTO   C77 1849   5.817   2.219   1.929 -0.1071 -0.0712 -0.4217
    5CHTO  H149 1850   5.843   2.163   1.840  0.9141 -1.1098  0.5221
    5CHTO   C88 1851   5.812   2.371   1.899 -0.5157 -0.3897  0.1849
    5CHTO   O58 1852   5.720   2.415   1.802  0.0958  0.3743 -0.0145
    5CHTO  H136 1853   5.663   2.470   1.852  1.3588  1.1757  0.5712
    5CHTO   O51 1854   6.025   2.054   2.186 -0.0976 -0.4649  0.5373
    5CHTO   C78 1855   6.161   2.161   2.171 -0.0876 -0.1482  0.0898
    5CHTO  H150 1856   6.149   2.241   2.095  2.8004  1.0710  0.8373
    5CHTO   C80 1857   6.292   2.081   2.150 -0.0400 -0.1413 -0.2827
    5CHTO  H152 1858   6.296   2.004   2.230  1.1994 -0.8814 -1.0397
    5CHTO   O55 1859   6.291   1.997   2.033  0.3778  0.0769  0.1648
    5CHTO  H134 1860   6.288   2.061   1.964  1.1562 -0.2774 -0.1953
    5CHTO   C84 1861   6.427   2.174   2.156 -0.5407 -0.0662  0.4285
    5CHTO  H156 1862   6.426   2.235   2.066 -0.3178 -0.5812  0.0779
    5CHTO   N15 1863   6.560   2.099   2.157  0.8389 -0.2883 -0.3704
    5CHTO  H143 1864   6.627   2.144   2.086 -1.9227 -0.9921 -3.5364
    5CHTO  H144 1865   6.598   2.114   2.256 -1.3619 -2.5064  0.8667
    5CHTO   C87 1866   6.415   2.261   2.282 -0.4932  0.3313  0.0656
    5CHTO  H159 1867   6.423   2.196   2.370  1.2073 -0.6694 -0.7909
    5CHTO   O53 1868   6.283   2.340   2.277 -0.2437  0.4428  0.3252
    5CHTO   C82 1869   6.175   2.246   2.293 -0.0554 -0.8225 -0.6350
    5CHTO  H154 1870   6.188   2.178   2.377  1.0528  0.3709  0.1610
    5CHTO   C89 1871   6.037   2.317   2.318 -0.3680  0.7610  0.1879
    5CHTO   O59 1872   6.035   2.386   2.441 -0.0942  0.4290 -0.0417
    5CHTO  H137 1873   5.956   2.436   2.445 -1.9651 -2.4930  1.2578
    5CHTO   O45 1874   6.525   2.368   2.282  0.2529 -0.1154 -0.3245
    5CHTO   C67 1875   6.566   2.413   2.413 -0.5077  0.3462 -0.0329
    5CHTO  H124 1876   6.476   2.423   2.475 -1.1408 -2.0818 -0.5157
    5CHTO   C65 1877   6.671   2.317   2.479  0.2743  0.1229  0.3632
    5CHTO  H122 1878   6.728   2.270   2.399 -0.9536  1.0614 -1.0761
    5CHTO   O44 1879   6.596   2.218   2.548 -0.5502 -0.3336  0.1738
    5CHTO  H102 1880   6.563   2.154   2.488  1.5876 -1.6806  0.3745
    5CHTO   C63 1881   6.786   2.385   2.567  0.2534  0.2494  0.3390
    5CHTO  H120 1882   6.858   2.426   2.496  0.2080 -0.1482  0.0591
    5CHTO   N11 1883   6.879   2.308   2.649  0.1123 -0.2015 -0.2043
    5CHTO  H108 1884   6.909   2.219   2.596 -1.4708 -0.1519 -1.2114
    5CHTO  H109 1885   6.969   2.358   2.678 -0.9375  1.2490  0.5936
    5CHTO   C61 1886   6.724   2.509   2.637  0.6010  0.7316 -1.1915
    5CHTO  H118 1887   6.804   2.561   2.692  0.2693 -0.9259  0.8944
    5CHTO   O40 1888   6.669   2.604   2.548  0.0532 -0.2833  0.2933
    5CHTO   C68 1889   6.628   2.563   2.410 -0.0913 -0.3255 -0.9581
    5CHTO  H125 1890   6.718   2.570   2.346 -0.5448 -1.6168 -1.7587
    5CHTO   C72 1891   6.527   2.670   2.360 -0.2577 -0.7554  0.0338
    5CHTO   O48 1892   6.406   2.677   2.430  0.2328  0.0241  0.9364
    5CHTO  H105 1893   6.403   2.645   2.518  1.9039 -1.1231  0.5835
    5CHTO   O38 1894   6.615   2.484   2.728 -0.4196 -0.4803 -0.1508
    5CHTO   C55 1895   6.531   2.580   2.793 -0.2328 -0.9560 -0.0381
    5CHTO  H112 1896   6.500   2.651   2.714  1.1394 -0.7289 -0.3927
    5CHTO   C56 1897   6.588   2.660   2.911 -0.4088  0.0893 -0.0145
    5CHTO  H113 1898   6.633   2.579   2.970  0.3488  1.6757  1.6172
    5CHTO   O42 1899   6.690   2.740   2.862  1.0978  0.1359  0.5490
    5CHTO  H100 1900   6.747   2.761   2.933  1.2623 -1.9888  1.0664
    5CHTO   C57 1901   6.489   2.736   3.010 -0.4248 -0.0074  0.0257
    5CHTO  H114 1902   6.451   2.824   2.958 -2.3249  0.5593  2.3066
    5CHTO   N10 1903   6.560   2.784   3.134  0.0005  0.2656 -0.5298
    5CHTO  H106 1904   6.566   2.708   3.210  0.1567 -0.0264 -0.8313
    5CHTO  H107 1905   6.508   2.870   3.174 -1.8718 -0.7900 -0.6159
    5CHTO   C58 1906   6.370   2.641   3.039 -0.4155  0.0184  0.1082
    5CHTO  H115 1907   6.420   2.546   3.069 -1.3355 -1.0370 -1.6394
    5CHTO   O37 1908   6.314   2.612   2.912 -0.1740  0.1896  0.8688
    5CHTO   C59 1909   6.392   2.522   2.832 -0.2822  0.1613  0.2032
    5CHTO  H116 1910   6.405   2.429   2.886 -1.0610 -0.5488 -0.8056
    5CHTO   C70 1911   6.323   2.483   2.703  0.2528 -0.2664 -0.3556
    5CHTO   O46 1912   6.187   2.424   2.727  0.4821  0.1148 -0.3243
    5CHTO  H103 1913   6.139   2.413   2.647 -0.6283 -0.3743  0.4013
    5CHTO   O39 1914   6.261   2.702   3.154 -0.6704  0.6960  0.3072
    5CHTO   C60 1915   6.130   2.726   3.102 -0.1506  0.0305  0.2710
    5CHTO  H117 1916   6.137   2.761   2.999 -0.1725 -0.2814  0.1621
    5CHTO   C62 1917   6.051   2.594   3.084 -0.1281  0.5593  0.1737
    5CHTO  H119 1918   6.111   2.517   3.030  0.6781  1.6559 -0.5104
    5CHTO   O43 1919   6.028   2.545   3.221 -0.1502  0.2214  0.0597
    5CHTO  H101 1920   6.061   2.460   3.246  1.7597  0.1937 -2.3834
    5CHTO   C66 1921   5.914   2.624   3.004 -0.6559  0.2424 -0.2895
    5CHTO  H123 1922   5.932   2.685   2.915 -1.5012  0.7411 -0.1273
    5CHTO   N12 1923   5.844   2.510   2.960 -0.2870  0.0146  0.1413
    5CHTO  H110 1924   5.830   2.433   3.035  1.8895 -0.5116  0.0222
    5CHTO  H111 1925   5.890   2.469   2.871  0.2251 -0.3295  0.5630
    5CHTO   C69 1926   5.830   2.713   3.102 -0.1216 -0.3465 -0.0190
    5CHTO  H126 1927   5.823   2.667   3.202  1.5482  0.0654  0.3027
    5CHTO   O41 1928   5.902   2.850   3.109 -1.0256 -0.0843 -0.1925
    5CHTO   C64 1929   6.051   2.834   3.175 -0.3086 -0.4478  0.5124
    5CHTO  H121 1930   6.042   2.802   3.281  1.8591 -1.6975  0.3345
    5CHTO   C71 1931   6.127   2.974   3.166 -0.1365 -0.6248 -0.5531
    5CHTO   O47 1932   6.252   2.992   3.229  0.3677  0.8786 -0.2066
    5CHTO  H104 1933   6.332   2.965   3.187  0.4672 -0.4433  0.7798
    5CHTO   O34 1934   5.657   2.723   3.046 -0.6048 -0.0336 -0.0427
    5CHTO   C49 1935   5.563   2.853   3.034  0.0399 -0.4309  0.2667
    5CHTO   H91 1936   5.465   2.809   3.052 -0.3346  0.3154  0.0668
    5CHTO   C47 1937   5.579   2.904   2.888  0.3207 -0.2253 -0.8151
    5CHTO   H89 1938   5.548   2.818   2.825 -0.3536 -2.2139  2.1156
    5CHTO   O33 1939   5.715   2.936   2.862 -0.1817  0.8451  0.4698
    5CHTO   H70 1940   5.766   2.866   2.826  1.5303  2.7140 -0.8620
    5CHTO   C45 1941   5.493   3.039   2.857  0.1836  0.8527 -0.2770
    5CHTO   H87 1942   5.565   3.112   2.818 -1.6404  2.4946 -0.6404
    5CHTO    N8 1943   5.388   3.017   2.747 -0.4504  0.4211  0.3140
    5CHTO   H75 1944   5.394   3.107   2.686  3.8328  0.6947  0.9654
    5CHTO   H76 1945   5.421   2.929   2.694  0.8925 -0.6280  2.8467
    5CHTO   C43 1946   5.426   3.101   2.993 -0.3053  0.0126  0.1676
    5CHTO   H85 1947   5.383   3.200   2.980 -1.2106 -0.2211  1.3322
    5CHTO   O29 1948   5.514   3.096   3.108 -0.7986  0.0699 -0.3368
    5CHTO   C50 1949   5.585   2.971   3.134  0.2168  0.2743  0.0896
    5CHTO   H92 1950   5.693   2.992   3.124  0.4931 -0.7273  0.9601
    5CHTO   C54 1951   5.573   2.911   3.277  0.4493  0.0548  0.2079
    5CHTO   O36 1952   5.630   3.003   3.370 -0.8696 -0.4654 -0.2067
    5CHTO   H72 1953   5.648   2.962   3.453  0.8428  1.3718  0.3866
    5CHTO   O27 1954   5.310   3.021   3.035  0.4422 -0.5795  0.0344
    5CHTO   C37 1955   5.175   3.033   3.075 -0.1364 -0.1431  0.5144
    5CHTO   H79 1956   5.165   3.108   3.154 -0.1863 -1.4017  1.7316
    5CHTO   C38 1957   5.087   3.078   2.954 -0.0704 -0.3030 -1.0441
    5CHTO   H80 1958   5.098   3.004   2.874  4.3442 -1.2459  0.3023
    5CHTO   O31 1959   5.123   3.208   2.908  0.1762 -0.5757 -0.0290
    5CHTO   H68 1960   5.215   3.218   2.924  0.2840 -0.3489 -0.7597
    5CHTO   C39 1961   4.933   3.072   2.999 -0.4207  0.5123 -0.6600
    5CHTO   H81 1962   4.921   3.152   3.072 -1.7298 -1.5180  1.4402
    5CHTO    N7 1963   4.839   3.092   2.881 -0.2174  0.1383 -0.5714
    5CHTO   H73 1964   4.748   3.125   2.928  1.1369  2.3115  0.5908
    5CHTO   H74 1965   4.821   2.997   2.832  0.3712 -0.1375 -0.2602
    5CHTO   C40 1966   4.889   2.941   3.070  0.8270  0.5454 -0.9681
    5CHTO   H82 1967   4.879   2.858   3.000 -0.6272 -1.8942  2.0368
    5CHTO   O26 1968   4.989   2.909   3.172 -0.5117  0.6271 -0.1260
    5CHTO   C41 1969   5.125   2.904   3.145 -0.2545  0.1515 -0.0479
    5CHTO   H83 1970   5.156   2.810   3.097 -0.8901 -0.2066  0.2386
    5CHTO   C52 1971   5.197   2.897   3.277  0.0569 -0.3562 -0.3277
    5CHTO   O35 1972   5.165   2.800   3.362  0.1891  0.2227  0.2880
    5CHTO   H71 1973   5.224   2.777   3.431 -0.0056 -0.5171  0.2081
    5CHTO   O28 1974   4.759   2.946   3.136  0.0182  0.0748  0.4076
    5CHTO   C42 1975   4.726   2.921   3.275  0.4088 -0.2429 -0.1132
    5CHTO   H84 1976   4.618   2.906   3.273  0.5805 -1.3243 -2.8223
    5CHTO   C44 1977   4.751   3.052   3.365 -0.0283  0.7452 -0.4066
    5CHTO   H86 1978   4.856   3.083   3.361  0.9749 -2.4026  0.2068
    5CHTO   O32 1979   4.676   3.160   3.310 -0.2391 -0.3451  0.1283
    5CHTO   H69 1980   4.649   3.218   3.378  0.1932 -0.2504  0.2197
    5CHTO   C48 1981   4.718   3.024   3.522 -0.0839 -0.6392 -0.5909
    5CHTO   H90 1982   4.609   3.018   3.530 -0.0483 -2.4070 -1.0706
    5CHTO    N9 1983   4.762   3.144   3.601  0.0108  0.0758  0.0192
    5CHTO   H77 1984   4.690   3.175   3.675 -1.6845  0.7388 -1.8492
    5CHTO   H78 1985   4.867   3.144   3.625  0.2145 -5.1285 -0.3679
    5CHTO   C51 1986   4.798   2.900   3.567  0.1212  0.0038  1.2246
    5CHTO   H93 1987   4.903   2.920   3.543 -0.7313  1.6440 -1.3311
    5CHTO   O30 1988   4.743   2.787   3.494  0.0590  0.4782  1.0214
    5CHTO   C46 1989   4.784   2.795   3.348  0.5694  0.3917  0.9650
    5CHTO   H88 1990   4.893   2.793   3.350  0.5956 -0.3827 -0.3419
    5CHTO   C53 1991   4.730   2.664   3.288  0.2926  0.0116  0.0674
    5CHTO   O72 1992   4.785   2.629   3.157  0.1826 -0.1795 -0.2981
    5CHTO  H199 1993   4.875   2.606   3.172  0.6752  1.7476 -0.1635
    5CHTO   O22 1994   4.780   2.854   3.705  0.2872  0.4103 -0.0637
    5CHTO   C31 1995   4.868   2.747   3.771  0.4632 -0.2761 -0.2907
    5CHTO   H59 1996   4.813   2.722   3.864 -0.6391  2.4194 -0.1539
    5CHTO   C29 1997   4.893   2.619   3.688 -0.0193  0.2157  0.1824
    5CHTO   H57 1998   4.911   2.654   3.586 -0.8633 -0.1979 -0.1196
    5CHTO   O21 1999   4.771   2.537   3.675 -0.0677  0.1418 -0.0396
    5CHTO   H37 2000   4.767   2.469   3.739  0.5295 -0.6693 -0.8486
    5CHTO   C27 2001   5.021   2.529   3.730 -0.5110  0.0316  0.1736
    5CHTO   H55 2002   4.991   2.457   3.807 -0.3155 -0.7970 -0.5103
    5CHTO    N5 2003   5.066   2.448   3.611  0.1222 -0.5433 -0.0405
    5CHTO   H43 2004   5.111   2.358   3.650 -0.2989 -0.7593 -0.0501
    5CHTO   H44 2005   5.118   2.504   3.535 -0.4732 -0.8641 -0.6932
    5CHTO   C25 2006   5.137   2.628   3.771  0.0583  0.3543  0.0267
    5CHTO   H53 2007   5.173   2.686   3.685  0.7787 -0.6653 -0.3787
    5CHTO   O17 2008   5.092   2.710   3.884 -0.4220 -0.2084  0.0043
    5CHTO   C32 2009   5.009   2.807   3.821 -0.5736  0.3049 -0.0768
    5CHTO   H60 2010   5.057   2.855   3.735 -1.4462 -1.4494 -1.5649
    5CHTO   C36 2011   4.981   2.912   3.932 -0.1956 -0.8521  0.7450
    5CHTO   O25 2012   4.950   3.024   3.851  0.3329 -0.0426  0.2029
    5CHTO   H40 2013   4.881   3.079   3.883  3.3923  3.5071  1.0984
    5CHTO   O15 2014   5.249   2.546   3.826  0.7755 -0.6530 -0.0297
    5CHTO   C19 2015   5.393   2.583   3.832 -0.3181 -0.0998  0.1576
    5CHTO   H47 2016   5.388   2.693   3.830 -1.8658 -0.1555  0.3435
    5CHTO   C20 2017   5.471   2.536   3.972 -0.0773  0.2888 -0.1370
    5CHTO   H48 2018   5.458   2.429   3.989 -1.0920  0.2493 -1.1421
    5CHTO   O19 2019   5.404   2.607   4.079 -0.4229 -0.0230 -0.1417
    5CHTO   H35 2020   5.439   2.595   4.165  1.5510 -0.6656 -0.9957
    5CHTO   C21 2021   5.620   2.574   3.972 -0.1986  0.6693  0.1494
    5CHTO   H49 2022   5.629   2.682   3.981  1.2636  0.6390 -0.8873
    5CHTO    N4 2023   5.698   2.511   4.079 -0.1879  0.1987 -0.7095
    5CHTO   H41 2024   5.655   2.519   4.178 -3.2330 -3.7751 -1.6202
    5CHTO   H42 2025   5.799   2.549   4.081  0.1516 -0.6675 -1.0723
    5CHTO   C22 2026   5.684   2.541   3.837  0.6130  0.1409  0.2898
    5CHTO   H50 2027   5.688   2.432   3.831 -2.0690 -0.0678  1.5807
    5CHTO   O14 2028   5.609   2.596   3.731  0.7890 -0.4779  0.0659
    5CHTO   C23 2029   5.481   2.542   3.707 -0.1860  0.1044 -0.8319
    5CHTO   H51 2030   5.498   2.434   3.704 -1.7681 -0.1695 -0.2674
    5CHTO   C34 2031   5.433   2.600   3.577  0.3366  0.0676  0.3455
    5CHTO   O23 2032   5.396   2.738   3.564  0.5821 -0.1715  0.2132
    5CHTO   H38 2033   5.307   2.742   3.593 -0.2229 -2.3576 -1.8411
    5CHTO   O16 2034   5.817   2.597   3.813  0.1535  0.0448 -0.6732
    5CHTO   C24 2035   5.925   2.493   3.706  1.6486  0.1371 -0.1780
    5CHTO   H52 2036   5.865   2.448   3.627  1.0566 -0.7023  0.7242
    5CHTO   C26 2037   5.985   2.371   3.773 -0.3645 -0.2119  0.4999
    5CHTO   H54 2038   6.021   2.403   3.873  0.5675  2.1815 -0.5471
    5CHTO   O20 2039   5.881   2.273   3.807 -0.2218  0.4887 -0.0941
    5CHTO   H36 2040   5.838   2.245   3.729  2.1855 -0.1073 -1.2584
    5CHTO   C30 2041   6.107   2.296   3.700  0.0044 -0.1791  0.6596
    5CHTO   H58 2042   6.068   2.230   3.621  0.8557 -0.4390  0.4542
    5CHTO    N6 2043   6.182   2.213   3.793  0.5552 -0.2522  0.3346
    5CHTO   H45 2044   6.237   2.280   3.858  2.0272 -0.7324 -0.4039
    5CHTO   H46 2045   6.253   2.145   3.749 -0.9192 -0.5174 -1.6865
    5CHTO   C33 2046   6.198   2.410   3.634 -0.1179 -0.0780  0.7165
    5CHTO   H61 2047   6.252   2.471   3.708 -0.7252  2.3533 -0.7658
    5CHTO   O18 2048   6.119   2.496   3.554 -0.0906 -0.0453 -0.5132
    5CHTO   C28 2049   6.032   2.583   3.630  0.0840 -0.8434  0.0729
    5CHTO   H56 2050   6.088   2.642   3.703  0.6146 -1.4001  0.1170
    5CHTO   C35 2051   5.966   2.685   3.532 -0.3505  0.1757 -0.0421
    5CHTO   O24 2052   5.890   2.783   3.595  0.0995 -0.4347  0.2206
    5CHTO   H39 2053   5.882   2.851   3.532 -3.2522  0.0041  1.0159
    5CHTO    O9 2054   6.295   2.343   3.558  0.1475  0.0608  0.3631
    5CHTO   C13 2055   6.398   2.420   3.482  0.1043 -0.1755  0.2666
    5CHTO   H26 2056   6.359   2.517   3.447 -1.3574 -0.4679  1.0446
    5CHTO   C11 2057   6.447   2.324   3.360 -0.2850 -0.2871  0.4252
    5CHTO   H24 2058   6.358   2.315   3.296  0.8667 -1.9377 -0.9864
    5CHTO    O8 2059   6.479   2.193   3.405  0.0668 -0.3910 -0.1233
    5CHTO    H3 2060   6.412   2.169   3.465 -1.1340  2.7443 -0.1037
    5CHTO    C9 2061   6.566   2.400   3.294  0.0594 -0.1943 -0.0089
    5CHTO   H22 2062   6.521   2.487   3.245 -1.0194 -1.2516 -0.9286
    5CHTO    N2 2063   6.608   2.325   3.172  0.1075 -0.4475 -0.4200
    5CHTO   H10 2064   6.643   2.398   3.100  1.6112  0.1745  0.8931
    5CHTO   H11 2065   6.678   2.247   3.197  0.2938  0.3837  1.7819
    5CHTO    C7 2066   6.678   2.463   3.389  0.1254 -0.0843  0.5723
    5CHTO   H20 2067   6.660   2.572   3.378 -3.5697 -0.8524 -1.8702
    5CHTO    O4 2068   6.652   2.422   3.523 -0.6184  0.0360 -0.2297
    5CHTO   C14 2069   6.521   2.451   3.577 -0.1674  0.3350  0.9632
    5CHTO   H27 2070   6.530   2.560   3.598 -0.1660  0.5847 -0.2591
    5CHTO   C18 2071   6.524   2.379   3.714  0.4013  0.2574 -0.2658
    5CHTO   O13 2072   6.623   2.423   3.808  0.4434  0.1869  0.0787
    5CHTO    H7 2073   6.619   2.516   3.823  0.8596  0.1596  0.3842
    5CHTO    O2 2074   6.822   2.436   3.364 -0.8880  0.3077 -0.4885
    5CHTO    C1 2075   6.905   2.537   3.294 -0.5950 -0.5469 -1.1847
    5CHTO   H14 2076   6.841   2.623   3.268 -1.7267 -1.4041 -1.2538
    5CHTO    C2 2077   6.958   2.475   3.157 -0.3146  0.4937  0.2666
    5CHTO   H15 2078   6.977   2.369   3.178  1.0616  0.7172  0.2317
    5CHTO    O6 2079   6.851   2.481   3.059  0.7295  0.1718  0.0535
    5CHTO    H1 2080   6.830   2.565   3.024  0.2889  1.5851  3.5228
    5CHTO    C3 2081   7.089   2.548   3.096  0.2017  0.1600  0.2671
    5CHTO   H16 2082   7.053   2.637   3.041  1.7214  0.4663 -0.2439
    5CHTO    N1 2083   7.150   2.469   2.987  0.3268 -0.5574  0.6384
    5CHTO    H8 2084   7.133   2.509   2.888  0.2645  0.1815  0.9392
    5CHTO    H9 2085   7.133   2.363   2.993 -0.9657 -0.4910 -1.1927
    5CHTO    C4 2086   7.186   2.591   3.213 -0.4283 -0.1593 -0.2214
    5CHTO   H17 2087   7.238   2.502   3.250 -0.7983  1.1684  3.6802
    5CHTO    O1 2088   7.109   2.655   3.322 -0.7134 -0.1352  0.7972
    5CHTO    C5 2089   7.017   2.575   3.392 -0.8025 -0.6594  0.6468
    5CHTO   H18 2090   7.060   2.487   3.440  1.8796  1.0999  1.5655
    5CHTO   C16 2091   6.961   2.672   3.502 -0.5905 -0.3521  0.2880
    5CHTO   O11 2092   7.069   2.714   3.584  0.0532  0.1270 -0.4465
    5CHTO    H5 2093   7.074   2.673   3.669 -0.5232 -0.5378 -0.7243
    5CHTO    O3 2094   7.281   2.690   3.166  0.2615 -0.0771  0.1021
    5CHTO    C6 2095   7.421   2.670   3.214  0.2890 -0.1035 -0.5002
    5CHTO   H19 2096   7.422   2.587   3.285  0.0518  1.3458  1.2478
    5CHTO    C8 2097   7.516   2.639   3.085 -0.0522 -0.3951 -0.0812
    5CHTO   H21 2098   7.524   2.728   3.022  0.4274 -0.3665  0.0140
    5CHTO    O7 2099   7.472   2.521   3.021  0.2555  0.4617  0.3903
    5CHTO    H2 2100   7.452   2.548   2.933 -0.3470 -0.5476  0.1994
    5CHTO   C12 2101   7.667   2.627   3.129  0.4531  0.4516  0.2223
    5CHTO   H25 2102   7.679   2.539   3.197 -0.4744 -0.5550 -0.8925
    5CHTO    N3 2103   7.754   2.590   3.008 -0.1491 -0.4271 -0.4440
    5CHTO   H12 2104   7.722   2.494   2.971  1.1236 -0.6854 -0.8985
    5CHTO   H13 2105   7.756   2.668   2.933 -0.5305  0.9293  0.9352
    5CHTO   C15 2106   7.702   2.753   3.211  0.3605 -0.2634 -0.1808
    5CHTO   H28 2107   7.705   2.834   3.138 -2.0164 -0.8433 -0.9700
    5CHTO   O10 2108   7.842   2.756   3.261  0.0444  0.1432 -0.4638
    5CHTO    H4 2109   7.864   2.846   3.272 -0.8165  0.1931  0.9878
    5CHTO    O5 2110   7.621   2.781   3.326  0.6456  0.7167 -0.1451
    5CHTO   C10 2111   7.475   2.800   3.296  0.5354 -0.3277 -0.2215
    5CHTO   H23 2112   7.458   2.878   3.221  1.3837  0.5246  0.4555
    5CHTO   C17 2113   7.416   2.840   3.434  0.4029  0.0277 -0.3393
    5CHTO   O12 2114   7.371   2.731   3.510  0.2289 -0.1388  0.1235
    5CHTO    H6 2115   7.315   2.762   3.579 -2.3833 -0.4526 -1.7453
    6CHTO  H203 2116   7.042   4.002   0.701  1.7201 -0.1957  1.2838
    6CHTO   O82 2117   7.013   4.028   0.786 -0.9040  0.0132  0.3672
    6CHTO  C123 2118   6.937   4.150   0.759  0.1551 -0.2394 -0.3236
    6CHTO  H227 2119   7.005   4.220   0.709 -0.6680 -0.9660 -2.4841
    6CHTO   O77 2120   6.831   4.100   0.677 -0.2234  0.6950  0.1964
    6CHTO  C118 2121   6.736   4.201   0.633 -0.6645  0.3175  0.0575
    6CHTO  H222 2122   6.805   4.276   0.592  1.5344 -1.9467 -0.5789
    6CHTO  C125 2123   6.652   4.145   0.521 -0.2333  0.4680  0.6756
    6CHTO   O84 2124   6.698   4.197   0.398 -0.4324  0.6895  0.7291
    6CHTO  H205 2125   6.622   4.210   0.345  0.0452 -0.3198 -0.2325
    6CHTO  C114 2126   6.653   4.244   0.752 -0.4032  0.2214 -0.3566
    6CHTO  H218 2127   6.610   4.155   0.797 -0.5192  1.2603  1.6361
    6CHTO  C116 2128   6.754   4.314   0.854 -0.1781  0.4455  0.0141
    6CHTO  H220 2129   6.788   4.412   0.816 -1.0271 -0.4303 -3.1064
    6CHTO   O79 2130   6.677   4.348   0.973 -0.3668  0.0778 -0.1514
    6CHTO  H201 2131   6.689   4.434   1.010 -0.8035 -1.4036  3.6961
    6CHTO  C120 2132   6.878   4.219   0.889 -0.3748  0.0573  0.7289
    6CHTO  H224 2133   6.828   4.140   0.949  0.7122 -2.2050 -1.2483
    6CHTO   N21 2134   6.976   4.282   0.978 -0.3601 -0.3516  0.1255
    6CHTO  H211 2135   7.063   4.329   0.935 -1.5935  0.2301 -1.7995
    6CHTO  H212 2136   7.001   4.209   1.054 -1.0337 -0.2572  0.4389
    6CHTO   O75 2137   6.560   4.344   0.701 -0.5355  0.4586  0.2967
    6CHTO  C112 2138   6.420   4.350   0.787  0.2394 -1.1318  0.4283
    6CHTO  H216 2139   6.438   4.344   0.895 -0.7868 -0.2372  0.6544
    6CHTO   O73 2140   6.335   4.238   0.741  0.7648 -0.0903 -0.3561
    6CHTO  C113 2141   6.208   4.229   0.817 -0.4965  0.4561 -0.3832
    6CHTO  H217 2142   6.235   4.222   0.925 -1.4669  3.0562  0.0771
    6CHTO  C124 2143   6.140   4.099   0.767 -0.1914 -0.6177  0.1087
    6CHTO   O83 2144   6.027   4.058   0.844  0.2451 -0.3922  0.1950
    6CHTO  H204 2145   5.979   3.997   0.792 -0.3349  0.4312 -0.2565
    6CHTO  C109 2146   6.123   4.360   0.798  0.1716 -0.0184  0.3884
    6CHTO  H213 2147   6.105   4.372   0.690  0.8936  2.2752  0.5016
    6CHTO  C110 2148   6.209   4.480   0.842 -0.5160  0.5819  0.2520
    6CHTO  H214 2149   6.233   4.468   0.947  1.1548 -3.8565 -0.5459
    6CHTO   O78 2150   6.128   4.600   0.836 -0.1053 -0.4364  0.0101
    6CHTO  H200 2151   6.076   4.605   0.758 -1.9257 -2.7127  1.0358
    6CHTO  C111 2152   6.341   4.482   0.758 -0.1763 -0.1460  0.1689
    6CHTO  H215 2153   6.312   4.490   0.653 -2.3669  0.6552  0.8096
    6CHTO   N19 2154   6.424   4.601   0.790 -0.0376 -0.0429  0.0021
    6CHTO  H207 2155   6.495   4.617   0.710 -0.7246  0.9729 -0.4081
    6CHTO  H208 2156   6.349   4.677   0.778  0.5082  0.2426 -1.7871
    6CHTO   O74 2157   5.995   4.347   0.871  0.6006  0.3699 -0.1104
    6CHTO  C115 2158   6.001   4.373   1.031  0.2917  0.0792  0.0768
    6CHTO  H219 2159   6.098   4.345   1.073  0.0842 -1.3315 -0.3539
    6CHTO   O76 2160   5.979   4.523   1.070  0.8097  0.4285 -0.1689
    6CHTO  C122 2161   5.858   4.571   1.015  0.6658  0.1068 -0.2451
    6CHTO  H226 2162   5.865   4.561   0.907  1.5091  0.0232 -0.1814
    6CHTO  C126 2163   5.843   4.727   1.052 -0.2011 -0.0647  0.4025
    6CHTO   O85 2164   5.727   4.790   0.999 -0.3073  0.7098  0.3079
    6CHTO  H206 2165   5.649   4.747   1.029 -0.0206  0.5788  0.8803
    6CHTO  C121 2166   5.739   4.483   1.075 -1.1553 -0.2047  0.1080
    6CHTO  H225 2167   5.672   4.550   1.133 -1.9337  0.6043 -1.7136
    6CHTO   O81 2168   5.657   4.437   0.963 -0.0211  0.6700  0.3792
    6CHTO  H202 2169   5.690   4.354   0.937 -0.4067 -0.2816  2.8170
    6CHTO  C119 2170   5.793   4.367   1.168  0.3577 -0.1723 -0.0163
    6CHTO  H223 2171   5.855   4.413   1.245 -0.2841 -0.2207  0.5314
    6CHTO  C117 2172   5.898   4.278   1.097  0.1937  0.2892  0.4780
    6CHTO  H221 2173   5.875   4.220   1.008  1.7892 -0.1803  0.3627
    6CHTO   N20 2174   5.957   4.174   1.180 -0.6239  0.1037  0.3772
    6CHTO  H209 2175   5.902   4.083   1.199  0.7296 -0.5314  1.3545
    6CHTO  H210 2176   6.053   4.149   1.138 -0.5122 -0.2937  0.8606
    6CHTO   O80 2177   5.665   4.285   1.257 -0.1963 -0.0069  0.0934
    6CHTO  C103 2178   5.622   4.337   1.401  0.2395 -0.6385  0.6571
    6CHTO  H190 2179   5.694   4.306   1.476  0.5913  0.3712  0.7465
    6CHTO  C101 2180   5.594   4.492   1.413  0.1483 -0.3705 -0.3771
    6CHTO  H188 2181   5.542   4.531   1.325 -0.6427  0.5050  0.4552
    6CHTO   O68 2182   5.740   4.565   1.436 -0.5667  0.0414 -0.3423
    6CHTO  H168 2183   5.739   4.655   1.412  0.4002 -0.5762 -2.9246
    6CHTO   C99 2184   5.502   4.524   1.541  0.6383 -0.2909 -0.2621
    6CHTO  H186 2185   5.570   4.508   1.627  1.0663  1.3403 -0.2767
    6CHTO   N17 2186   5.460   4.668   1.540 -0.0395 -0.1437  0.8805
    6CHTO  H174 2187   5.354   4.684   1.544 -0.0872  0.0218 -0.7313
    6CHTO  H175 2188   5.506   4.711   1.452  3.2202 -0.4802  2.3219
    6CHTO   C97 2189   5.384   4.428   1.554  0.1449 -0.0721 -0.4359
    6CHTO  H184 2190   5.317   4.448   1.470 -0.1557  1.0778  0.0754
    6CHTO   O64 2191   5.431   4.292   1.556  0.0972 -0.0251  0.1325
    6CHTO  C104 2192   5.490   4.256   1.430  0.3517  0.3778 -0.3698
    6CHTO  H191 2193   5.419   4.275   1.349  0.3734 -0.2078 -0.5356
    6CHTO  C108 2194   5.520   4.102   1.439  0.2355  0.2337  0.6380
    6CHTO   O71 2195   5.506   4.041   1.309 -0.0486  0.1816  0.2372
    6CHTO  H171 2196   5.566   3.969   1.302 -1.3954 -0.7877 -1.7527
    6CHTO   O62 2197   5.303   4.452   1.676 -0.1138 -0.3589  0.4535
    6CHTO   C91 2198   5.168   4.405   1.676 -0.0667 -0.4790 -0.1531
    6CHTO  H178 2199   5.112   4.498   1.672  2.0659  0.8680  0.4985
    6CHTO   C92 2200   5.157   4.327   1.819 -0.6415  0.5646  0.2814
    6CHTO  H179 2201   5.206   4.383   1.899 -3.1196 -0.2684  2.4736
    6CHTO   O66 2202   5.027   4.325   1.859 -0.2416  0.1599 -0.0256
    6CHTO  H166 2203   4.962   4.293   1.799 -0.2455  1.3024 -0.6507
    6CHTO   C93 2204   5.213   4.184   1.821  0.3315 -0.4844  0.3334
    6CHTO  H180 2205   5.163   4.134   1.906  0.1638 -0.3221  0.3306
    6CHTO   N16 2206   5.358   4.182   1.853  0.1823  0.5585  0.3363
    6CHTO  H172 2207   5.384   4.232   1.945 -0.1902  1.2145  0.0877
    6CHTO  H173 2208   5.397   4.081   1.852  3.8077  1.8531  2.1543
    6CHTO   C94 2209   5.187   4.103   1.686  0.2054  0.1815  0.6140
    6CHTO  H181 2210   5.277   4.101   1.625  0.7899 -1.3029  1.5053
    6CHTO   O61 2211   5.083   4.170   1.605 -0.1778 -0.4492 -0.5619
    6CHTO   C95 2212   5.107   4.309   1.563  0.6403  0.5869  0.1091
    6CHTO  H182 2213   5.170   4.312   1.475 -0.5334 -1.6039 -0.8663
    6CHTO  C106 2214   4.969   4.363   1.516 -0.5779 -0.1766  0.0009
    6CHTO   O69 2215   4.907   4.291   1.406  0.2312  0.6961  0.7100
    6CHTO  H169 2216   4.821   4.322   1.387 -0.2571 -0.8219  0.3447
    6CHTO   O63 2217   5.134   3.958   1.727 -0.1211  0.1376 -0.2421
    6CHTO   C96 2218   5.197   3.842   1.611 -0.6995 -0.2560 -0.1096
    6CHTO  H183 2219   5.303   3.866   1.597 -0.7338 -0.1617 -0.2108
    6CHTO   C98 2220   5.140   3.842   1.468 -0.0780 -0.1067 -0.0561
    6CHTO  H185 2221   5.031   3.823   1.469 -0.2439  0.8657  1.7992
    6CHTO   O67 2222   5.161   3.969   1.414 -0.1054 -0.2362 -0.2113
    6CHTO  H167 2223   5.114   3.986   1.335 -1.9535  0.5629  1.0368
    6CHTO  C102 2224   5.204   3.719   1.372  0.5508  0.1707  0.2286
    6CHTO  H189 2225   5.283   3.771   1.315 -0.1042  0.5844 -0.3081
    6CHTO   N18 2226   5.113   3.666   1.270  0.4066 -0.0950 -0.3668
    6CHTO  H176 2227   5.045   3.738   1.226 -1.2192 -1.6970 -0.5357
    6CHTO  H177 2228   5.164   3.620   1.187 -0.2945  0.6570 -1.2279
    6CHTO  C105 2229   5.265   3.604   1.461  0.3933 -0.2570  0.0710
    6CHTO  H192 2230   5.255   3.508   1.410  1.1989 -1.5886  2.3468
    6CHTO   O65 2231   5.199   3.593   1.586  0.3661  0.4455 -0.4757
    6CHTO  C100 2232   5.171   3.703   1.672  0.8871 -0.4172  0.0266
    6CHTO  H187 2233   5.067   3.714   1.704  1.3654  1.1407  1.0657
    6CHTO  C107 2234   5.250   3.683   1.796 -0.0721  0.8642  0.4303
    6CHTO   O70 2235   5.240   3.777   1.906 -0.0744  0.4103  0.0023
    6CHTO  H170 2236   5.167   3.766   1.963  0.8979 -0.1958  1.1582
    6CHTO   O57 2237   5.419   3.644   1.485 -0.2145  0.3642  0.8095
    6CHTO   C85 2238   5.520   3.541   1.480  0.1058 -0.9795  0.7547
    6CHTO  H157 2239   5.501   3.481   1.388  2.4418  0.3288 -0.6184
    6CHTO   C83 2240   5.507   3.449   1.602  0.1742 -0.0353 -0.8974
    6CHTO  H155 2241   5.408   3.404   1.593 -0.4418  0.6178  2.2283
    6CHTO   O56 2242   5.498   3.518   1.725 -0.5264  0.0586 -0.0256
    6CHTO  H135 2243   5.412   3.555   1.733 -0.8509  0.2609 -3.4952
    6CHTO   C81 2244   5.613   3.337   1.603 -0.9635 -0.4283  0.9286
    6CHTO  H153 2245   5.604   3.286   1.507 -0.4713 -1.2340  1.3053
    6CHTO   N14 2246   5.595   3.231   1.707 -0.4936 -0.7327 -0.0393
    6CHTO  H141 2247   5.600   3.131   1.669 -1.3235 -1.3416  1.4353
    6CHTO  H142 2248   5.504   3.245   1.762 -0.8072 -1.7940 -0.2775
    6CHTO   C79 2249   5.749   3.402   1.608 -0.7064 -0.5798 -0.0496
    6CHTO  H151 2250   5.822   3.323   1.595 -1.6793 -1.2326 -1.7294
    6CHTO   O52 2251   5.772   3.503   1.504  0.7828  0.4189  0.0871
    6CHTO   C86 2252   5.664   3.598   1.476  0.2509  0.0977  0.2766
    6CHTO  H158 2253   5.678   3.674   1.556 -1.7239  2.2436 -1.3194
    6CHTO   C90 2254   5.695   3.675   1.339  0.0217 -0.1614 -0.8646
    6CHTO   O60 2255   5.822   3.742   1.330 -0.4984 -0.0772  0.0130
    6CHTO  H138 2256   5.811   3.794   1.252 -0.8132  0.4342  0.3902
    6CHTO   O50 2257   5.774   3.458   1.738  0.3410  0.1576 -0.2771
    6CHTO   C73 2258   5.848   3.505   1.849  0.4368 -0.0280 -0.2816
    6CHTO  H145 2259   5.888   3.428   1.916  2.1404  0.0779 -1.1475
    6CHTO   C74 2260   5.760   3.597   1.938 -0.2347 -0.9239 -0.0744
    6CHTO  H146 2261   5.672   3.535   1.962 -0.1280 -1.0492 -0.0073
    6CHTO   O54 2262   5.829   3.627   2.061 -0.2823 -0.3043 -0.0160
    6CHTO  H133 2263   5.810   3.564   2.128 -0.3508 -1.0920 -0.7715
    6CHTO   C75 2264   5.719   3.732   1.867  0.1945 -0.2277 -0.1885
    6CHTO  H147 2265   5.661   3.710   1.776  0.4371  3.5079 -1.3138
    6CHTO   N13 2266   5.644   3.833   1.950 -0.4104 -0.4037 -0.2122
    6CHTO  H139 2267   5.631   3.790   2.049 -1.8501  0.7634  0.1180
    6CHTO  H140 2268   5.546   3.863   1.916  0.1019 -1.1950 -2.4330
    6CHTO   C76 2269   5.853   3.799   1.800 -0.2944 -0.4629 -0.2546
    6CHTO  H148 2270   5.917   3.848   1.873 -2.0283 -0.6887  1.4670
    6CHTO   O49 2271   5.923   3.704   1.723  0.5784  0.7936 -0.3664
    6CHTO   C77 2272   5.971   3.588   1.794 -0.0448  0.4125 -0.1073
    6CHTO  H149 2273   6.031   3.618   1.880 -1.1394  0.2696  0.7094
    6CHTO   C88 2274   6.057   3.496   1.705 -0.0632  0.1970 -0.8561
    6CHTO   O58 2275   6.158   3.567   1.652 -0.5201 -0.1608  0.4706
    6CHTO  H136 2276   6.126   3.611   1.575  0.5434  1.1560  0.7645
    6CHTO   O51 2277   5.806   3.903   1.691  0.1734  0.0353  0.1189
    6CHTO   C78 2278   5.918   4.036   1.681  0.3431 -0.0656 -0.2883
    6CHTO  H150 2279   6.010   4.017   1.741  1.8266  2.4065 -1.7089
    6CHTO   C80 2280   5.848   4.151   1.748 -0.6491  0.6543 -0.7062
    6CHTO  H152 2281   5.747   4.161   1.703 -1.0220  0.2424  0.0429
    6CHTO   O55 2282   5.827   4.118   1.889 -0.2618  0.0435  0.3103
    6CHTO  H134 2283   5.796   4.193   1.934  0.9903  0.6244  0.2199
    6CHTO   C84 2284   5.920   4.286   1.725  0.5452 -0.0605  0.7200
    6CHTO  H156 2285   6.010   4.281   1.786  1.1830 -0.3506 -0.2231
    6CHTO   N15 2286   5.836   4.401   1.763 -1.3757  0.5106 -0.0728
    6CHTO  H143 2287   5.821   4.406   1.869  1.9100 -0.3086  0.5012
    6CHTO  H144 2288   5.879   4.493   1.729  0.1179  0.3812  1.3786
    6CHTO   C87 2289   5.972   4.311   1.586  0.1722 -0.1964 -0.1010
    6CHTO  H159 2290   5.898   4.340   1.511 -1.2144 -0.9160  0.9663
    6CHTO   O53 2291   6.043   4.177   1.528  0.1195 -0.0219 -0.7417
    6CHTO   C82 2292   5.955   4.061   1.536 -0.2218 -0.3740 -0.0784
    6CHTO  H154 2293   5.870   4.070   1.469  0.6139 -0.2408 -1.1432
    6CHTO   C89 2294   6.040   3.940   1.489  0.3034  0.3700 -0.5851
    6CHTO   O59 2295   6.066   3.948   1.349  0.1634 -0.4507  0.7374
    6CHTO  H137 2296   6.123   4.018   1.325  0.5417 -0.9341  0.2115
    6CHTO   O45 2297   6.074   4.433   1.580 -0.0098  0.2516  0.4392
    6CHTO   C67 2298   6.212   4.402   1.538 -0.1008  0.0957  0.4978
    6CHTO  H124 2299   6.240   4.304   1.576 -1.7368 -0.5166  0.1648
    6CHTO   C65 2300   6.221   4.389   1.381  0.2760  0.2107  0.0272
    6CHTO  H122 2301   6.126   4.428   1.343  1.2745 -0.2399 -3.0655
    6CHTO   O44 2302   6.247   4.256   1.328 -0.0571 -0.1829 -0.0322
    6CHTO  H102 2303   6.261   4.210   1.409 -0.1339  0.4829  0.3727
    6CHTO   C63 2304   6.319   4.501   1.330  0.6703  0.3096  0.4518
    6CHTO  H120 2305   6.273   4.598   1.347  0.9635  0.4530  0.4283
    6CHTO   N11 2306   6.347   4.509   1.183 -0.3189 -0.3049  0.5481
    6CHTO  H108 2307   6.409   4.425   1.157 -0.4075  0.0813 -0.9846
    6CHTO  H109 2308   6.394   4.603   1.162  0.1374 -0.9002 -1.2386
    6CHTO   C61 2309   6.456   4.503   1.419 -0.1732 -0.4863  0.4143
    6CHTO  H118 2310   6.485   4.606   1.394 -0.7305 -0.9036 -2.1076
    6CHTO   O40 2311   6.435   4.496   1.563 -0.5498  0.0681 -0.0822
    6CHTO   C68 2312   6.299   4.513   1.609  0.0840 -0.2933 -0.2509
    6CHTO  H125 2313   6.259   4.614   1.584  0.6446 -0.0237 -0.0744
    6CHTO   C72 2314   6.303   4.505   1.759 -0.0730  1.1082 -0.3872
    6CHTO   O48 2315   6.391   4.600   1.821  0.3931  0.0831 -0.0256
    6CHTO  H105 2316   6.382   4.603   1.914  0.6003 -0.1836  0.0037
    6CHTO   O38 2317   6.555   4.402   1.379  0.1178  0.9997  0.4040
    6CHTO   C55 2318   6.681   4.406   1.451 -0.1512 -0.0225  0.1008
    6CHTO  H112 2319   6.674   4.443   1.554  1.9266 -0.8086  0.5603
    6CHTO   C56 2320   6.791   4.487   1.363  0.0805  0.3004  1.2111
    6CHTO  H113 2321   6.794   4.446   1.261  1.7288  0.5388  1.1377
    6CHTO   O42 2322   6.763   4.628   1.355 -0.2781  0.0626  0.1687
    6CHTO  H100 2323   6.750   4.670   1.438 -1.9331 -2.7238  1.3472
    6CHTO   C57 2324   6.935   4.456   1.425 -0.4258  0.0277  0.4253
    6CHTO  H114 2325   6.920   4.521   1.512  0.3675  1.6582 -0.6379
    6CHTO   N10 2326   7.046   4.507   1.340  0.6863 -0.0749 -1.0320
    6CHTO  H106 2327   7.019   4.511   1.235 -3.4175  0.3517 -0.0147
    6CHTO  H107 2328   7.069   4.609   1.368 -0.1110  0.3456 -1.8679
    6CHTO   C58 2329   6.965   4.309   1.465 -0.4451  0.2565 -0.3414
    6CHTO  H115 2330   6.991   4.250   1.375 -0.8032  1.3684 -1.1829
    6CHTO   O37 2331   6.852   4.250   1.530 -0.0224  0.6657 -0.1156
    6CHTO   C59 2332   6.728   4.260   1.466 -0.3658  0.3831  0.0972
    6CHTO  H116 2333   6.724   4.218   1.365 -0.8160  4.5692 -1.7472
    6CHTO   C70 2334   6.632   4.195   1.567  0.2063  0.3381  0.1520
    6CHTO   O46 2335   6.496   4.154   1.532  0.4888  0.6809  0.0876
    6CHTO  H103 2336   6.474   4.161   1.441  1.3269 -1.0685 -0.2656
    6CHTO   O39 2337   7.109   4.320   1.554 -0.7326 -0.1937  0.3271
    6CHTO   C60 2338   7.185   4.193   1.553  0.1862  0.0288  1.2639
    6CHTO  H117 2339   7.110   4.118   1.580 -1.4973  0.9813 -0.6963
    6CHTO   C62 2340   7.239   4.162   1.409 -0.5307 -0.1249  0.1834
    6CHTO  H119 2341   7.151   4.146   1.343 -1.0050 -0.8618  0.9869
    6CHTO   O43 2342   7.314   4.278   1.383  0.0396 -0.0794  0.1107
    6CHTO  H101 2343   7.289   4.314   1.300 -2.4952  1.7872  1.6137
    6CHTO   C66 2344   7.331   4.035   1.393  0.1374  0.2885  0.0181
    6CHTO  H123 2345   7.266   3.949   1.410 -0.7812  0.7539 -1.0776
    6CHTO   N12 2346   7.388   4.019   1.255 -0.2066  0.1785  0.4786
    6CHTO  H110 2347   7.465   4.090   1.230  0.3517 -0.7479 -0.5173
    6CHTO  H111 2348   7.303   4.030   1.190 -1.2628  2.0242  2.0975
    6CHTO   C69 2349   7.432   4.028   1.516 -0.3298 -0.5062 -0.3687
    6CHTO  H126 2350   7.513   4.103   1.504 -0.6267 -0.2797 -0.9524
    6CHTO   O41 2351   7.361   4.049   1.651 -0.2776 -0.3246  0.3619
    6CHTO   C64 2352   7.301   4.188   1.664  0.1044  0.1259  0.1853
    6CHTO  H121 2353   7.378   4.265   1.642  0.1770 -0.1754 -0.6371
    6CHTO   C71 2354   7.251   4.210   1.810 -0.7044  0.7212  0.0123
    6CHTO   O47 2355   7.168   4.104   1.863 -0.2542 -0.1495 -0.0803
    6CHTO  H104 2356   7.225   4.030   1.869  1.5055  1.0595 -1.4015
    6CHTO   O34 2357   7.479   3.883   1.526  0.1427  0.1050  0.4878
    6CHTO   C49 2358   7.566   3.792   1.473 -0.0864  0.2930 -0.5124
    6CHTO   H91 2359   7.506   3.742   1.397 -0.1964 -1.0033  0.4128
    6CHTO   C47 2360   7.637   3.699   1.577 -0.2428 -0.4484  0.1918
    6CHTO   H89 2361   7.690   3.620   1.520 -1.4467 -1.3998  0.3716
    6CHTO   O33 2362   7.533   3.624   1.645 -0.0581  0.2829 -0.3053
    6CHTO   H70 2363   7.570   3.545   1.680  0.8242  0.9674  0.3412
    6CHTO   C45 2364   7.730   3.780   1.679 -0.1035 -0.3520  0.2013
    6CHTO   H87 2365   7.674   3.808   1.769 -1.7615 -1.7370 -0.3770
    6CHTO    N8 2366   7.837   3.690   1.713  0.0233 -0.0923 -0.4477
    6CHTO   H75 2367   7.876   3.730   1.805  0.8862  1.5911 -1.5295
    6CHTO   H76 2368   7.919   3.691   1.643  0.6829  0.2505  0.3313
    6CHTO   C43 2369   7.764   3.921   1.616  0.4834 -0.0075 -0.1918
    6CHTO   H85 2370   7.678   3.986   1.635  0.3541  0.0341 -0.9003
    6CHTO   O29 2371   7.789   3.905   1.479  0.0924  0.0776 -0.1225
    6CHTO   C50 2372   7.678   3.859   1.402  0.1403 -0.3436  0.0042
    6CHTO   H92 2373   7.648   3.950   1.348  0.6318 -0.3693 -0.3260
    6CHTO   C54 2374   7.725   3.764   1.287 -0.3167  0.3619 -0.1478
    6CHTO   O36 2375   7.810   3.663   1.334  0.5195  1.1567  0.0271
    6CHTO   H72 2376   7.758   3.590   1.360 -0.7622  2.3383  0.7922
    6CHTO   O27 2377   7.870   3.984   1.684 -0.5397  0.6973 -0.4706
    6CHTO   C37 2378   7.939   4.115   1.659 -0.5757  0.8947 -0.2327
    6CHTO   H79 2379   7.992   4.122   1.563  0.2346  0.7861  0.2009
    6CHTO   C38 2380   7.830   4.229   1.659  0.5996 -0.4505 -0.1513
    6CHTO   H80 2381   7.775   4.219   1.754  0.1534 -1.7978 -0.5402
    6CHTO   O31 2382   7.735   4.212   1.551 -0.2719  0.2108  0.0045
    6CHTO   H68 2383   7.686   4.132   1.550 -0.2033  0.1218  2.0451
    6CHTO   C39 2384   7.899   4.370   1.667 -0.0857  0.3275 -0.3993
    6CHTO   H81 2385   7.958   4.386   1.577 -0.1066  0.0071 -0.4709
    6CHTO    N7 2386   7.791   4.479   1.700  0.5029 -0.0730  0.0006
    6CHTO   H73 2387   7.848   4.571   1.697 -0.2820  0.4443  0.7694
    6CHTO   H74 2388   7.750   4.460   1.798  1.9617  0.1818  0.6702
    6CHTO   C40 2389   7.999   4.370   1.789 -0.3323 -0.2550  0.7929
    6CHTO   H82 2390   7.939   4.358   1.880 -2.8789  0.0288 -0.7988
    6CHTO   O26 2391   8.098   4.270   1.777 -0.2709 -0.4970 -0.5364
    6CHTO   C41 2392   8.044   4.139   1.772 -0.3411 -0.2206 -0.6759
    6CHTO   H83 2393   7.997   4.118   1.869 -0.3112  0.2456 -0.5593
    6CHTO   C52 2394   8.162   4.050   1.751  0.1689 -0.1164 -0.3095
    6CHTO   O35 2395   8.241   4.032   1.862 -0.1237 -0.0812  0.3537
    6CHTO   H71 2396   8.271   4.116   1.891 -0.3099 -0.1174  0.6531
    6CHTO   O28 2397   8.078   4.489   1.796 -0.1458  0.1638 -0.0042
    6CHTO   C42 2398   8.123   4.548   1.927  0.3397  1.4882 -0.5609
    6CHTO   H84 2399   8.219   4.586   1.893  0.1829  1.1453 -1.4221
    6CHTO   C44 2400   8.156   4.451   2.043 -0.0934 -0.0775  0.0877
    6CHTO   H86 2401   8.065   4.396   2.069  0.0159  0.2044  1.0890
    6CHTO   O32 2402   8.257   4.363   1.988 -0.1547  0.1160  0.4704
    6CHTO   H69 2403   8.331   4.366   2.046 -0.0589 -0.3024  0.3691
    6CHTO   C48 2404   8.199   4.517   2.182  0.0149  0.4940  0.4289
    6CHTO   H90 2405   8.303   4.548   2.186  0.0577  0.7549 -2.1655
    6CHTO    N9 2406   8.195   4.420   2.303  0.1459  0.2504  0.1443
    6CHTO   H77 2407   8.090   4.409   2.326 -0.3262  0.6793 -1.6809
    6CHTO   H78 2408   8.245   4.442   2.396  0.5208  2.8259 -0.6148
    6CHTO   C51 2409   8.114   4.647   2.207 -0.1795 -0.6482  0.0132
    6CHTO   H93 2410   8.012   4.620   2.235 -0.7055  0.4634 -0.8054
    6CHTO   O30 2411   8.117   4.732   2.088  0.3138  0.8442 -0.5267
    6CHTO   C46 2412   8.039   4.671   1.976  0.1854  0.2278  0.3135
    6CHTO   H88 2413   7.942   4.635   2.009 -0.3889  0.6492 -0.8632
    6CHTO   C53 2414   8.023   4.770   1.855  0.2452  0.2960  0.0758
    6CHTO   O72 2415   8.146   4.836   1.818  0.0855 -0.5816 -0.3653
    6CHTO  H199 2416   8.128   4.902   1.754  0.3481 -0.6295 -0.4876
    6CHTO   O22 2417   8.171   4.735   2.300 -0.0309  0.2376  0.2555
    6CHTO   C31 2418   8.093   4.813   2.402 -0.8295 -0.0093 -0.4144
    6CHTO   H59 2419   8.144   4.912   2.400  2.7480 -1.7088  1.4832
    6CHTO   C29 2420   7.941   4.838   2.377  0.1203  0.3546  0.0083
    6CHTO   H57 2421   7.901   4.741   2.345  2.1659 -0.3903 -0.3813
    6CHTO   O21 2422   7.930   4.925   2.265  0.7448  0.5772  0.0682
    6CHTO   H37 2423   7.967   5.011   2.274 -0.2708  1.1742 -1.2550
    6CHTO   C27 2424   7.860   4.889   2.498  0.5083  0.1489  0.5036
    6CHTO   H55 2425   7.876   4.998   2.506 -3.1617  0.6486  1.9992
    6CHTO    N5 2426   7.711   4.867   2.482 -0.1622 -0.2873  0.0334
    6CHTO   H43 2427   7.690   4.907   2.384  0.9336  0.5321  0.1197
    6CHTO   H44 2428   7.668   4.923   2.564 -2.1970 -2.5866  0.5781
    6CHTO   C25 2429   7.910   4.830   2.635 -1.2213  0.1888 -0.5706
    6CHTO   H53 2430   7.890   4.722   2.636  2.5954 -0.6391 -2.7414
    6CHTO   O17 2431   8.058   4.841   2.643  0.3181 -0.0950  0.2671
    6CHTO   C32 2432   8.114   4.763   2.542 -0.1779  0.4583 -0.0418
    6CHTO   H60 2433   8.082   4.659   2.551 -0.8293  0.6112 -0.5944
    6CHTO   C36 2434   8.274   4.759   2.576 -0.4833 -0.6840  0.6275
    6CHTO   O25 2435   8.338   4.655   2.501 -0.6779  0.0525  0.4979
    6CHTO   H40 2436   8.350   4.579   2.555 -0.7390  0.5170  1.1734
    6CHTO   O15 2437   7.839   4.908   2.769 -0.3874 -0.2944 -0.3745
    6CHTO   C19 2438   7.786   5.016   2.849 -0.5029  0.7991 -0.2699
    6CHTO   H47 2439   7.757   4.981   2.950 -0.9632  0.0696 -0.6486
    6CHTO   C20 2440   7.897   5.120   2.880 -0.8875  0.0495  0.3161
    6CHTO   H48 2441   7.937   5.170   2.790 -1.0161  3.6359  2.1762
    6CHTO   O19 2442   8.005   5.041   2.936 -0.3198 -0.1278 -0.4166
    6CHTO   H35 2443   8.068   5.081   2.992 -2.2982  0.3590  1.5138
    6CHTO   C21 2444   7.838   5.238   2.975 -0.3460 -0.1636  0.2495
    6CHTO   H49 2445   7.812   5.195   3.072 -0.8086  0.1692  0.2736
    6CHTO    N4 2446   7.944   5.338   3.009  0.1048  0.2128 -0.0406
    6CHTO   H41 2447   8.004   5.312   3.095 -0.4030 -0.2698  0.1647
    6CHTO   H42 2448   7.895   5.433   3.024 -1.3475 -0.8726  2.4003
    6CHTO   C22 2449   7.713   5.295   2.908  0.1044  0.4512 -0.1593
    6CHTO   H50 2450   7.742   5.348   2.818  0.0765  1.6791  0.5452
    6CHTO   O14 2451   7.613   5.184   2.892  0.3015  0.4447  0.6581
    6CHTO   C23 2452   7.654   5.087   2.801  0.3795  0.3719  0.1858
    6CHTO   H51 2453   7.669   5.140   2.706 -0.2155  0.1161 -0.0549
    6CHTO   C34 2454   7.531   5.000   2.779 -0.9662  0.2172 -0.2631
    6CHTO   O23 2455   7.405   5.071   2.751  0.2210 -0.3174 -0.7691
    6CHTO   H38 2456   7.382   5.139   2.811  0.9548 -1.0726  0.3921
    6CHTO   O16 2457   7.635   5.388   2.992 -0.1265  0.1932  0.5687
    6CHTO   C24 2458   7.504   5.465   2.925 -0.4846 -0.7154 -0.5764
    6CHTO   H52 2459   7.474   5.427   2.827 -1.4189  0.5320 -0.7818
    6CHTO   C26 2460   7.535   5.619   2.924  0.1825  0.2086 -0.1760
    6CHTO   H54 2461   7.550   5.651   3.029 -1.0911  0.7717 -0.1535
    6CHTO   O20 2462   7.656   5.644   2.854  0.3142  0.2991 -0.0661
    6CHTO   H36 2463   7.728   5.604   2.898  0.1864 -1.0861 -1.0626
    6CHTO   C30 2464   7.412   5.706   2.885 -0.2927 -0.0945 -0.0590
    6CHTO   H58 2465   7.389   5.670   2.783  0.4062  0.2415 -0.3401
    6CHTO    N6 2466   7.438   5.854   2.893  0.2125 -0.0033 -0.3129
    6CHTO   H45 2467   7.448   5.898   2.991  1.6807  0.0835 -0.4843
    6CHTO   H46 2468   7.526   5.873   2.834 -1.1069 -1.7145 -2.9460
    6CHTO   C33 2469   7.286   5.675   2.966  0.3026 -0.2595 -0.2003
    6CHTO   H61 2470   7.294   5.718   3.067 -0.1167  1.5608 -0.9157
    6CHTO   O18 2471   7.269   5.526   2.976 -0.0686 -0.4866 -0.6340
    6CHTO   C28 2472   7.383   5.451   3.019 -0.0966 -0.4420  0.5372
    6CHTO   H56 2473   7.413   5.493   3.115  0.9703 -0.9678  0.4431
    6CHTO   C35 2474   7.333   5.301   3.044 -0.0880 -0.5722  0.6162
    6CHTO   O24 2475   7.241   5.252   2.945 -0.1863 -0.2426 -0.5139
    6CHTO   H39 2476   7.283   5.181   2.900  0.6195  0.3857 -0.7666
    6CHTO    O9 2477   7.162   5.734   2.912  0.0537 -0.4155 -0.1086
    6CHTO   C13 2478   7.012   5.677   2.967 -0.3741  0.6111 -0.2984
    6CHTO   H26 2479   7.012   5.666   3.077  0.3645  1.7144 -0.1840
    6CHTO   C11 2480   6.980   5.533   2.891  0.1603 -0.4856 -1.1159
    6CHTO   H24 2481   7.052   5.456   2.924  0.2699 -0.5315 -1.4644
    6CHTO    O8 2482   7.011   5.548   2.753 -0.2444 -0.5459  0.0257
    6CHTO    H3 2483   6.990   5.633   2.719 -0.0554 -0.8488 -0.8652
    6CHTO    C9 2484   6.833   5.489   2.928 -0.0497  0.4792  0.1245
    6CHTO   H22 2485   6.830   5.488   3.038  0.1029 -1.1908  0.1237
    6CHTO    N2 2486   6.802   5.344   2.889 -0.7318 -0.6972 -0.2972
    6CHTO   H10 2487   6.717   5.351   2.824 -0.8547  1.7077  0.0575
    6CHTO   H11 2488   6.776   5.288   2.978  2.0580  0.6310  1.4382
    6CHTO    C7 2489   6.738   5.599   2.880  0.3782  0.3739  0.0219
    6CHTO   H20 2490   6.673   5.611   2.970  0.2421 -1.0134  0.1185
    6CHTO    O4 2491   6.803   5.723   2.846 -0.6880 -0.3066  0.0709
    6CHTO   C14 2492   6.892   5.777   2.943 -1.0503  0.9217 -0.0954
    6CHTO   H27 2493   6.835   5.801   3.034  0.6599  3.5589  0.3275
    6CHTO   C18 2494   6.937   5.914   2.887 -0.0866  0.1126  0.4288
    6CHTO   O13 2495   6.825   6.004   2.889  1.0479 -0.1688 -0.2352
    6CHTO    H7 2496   6.790   6.031   2.972  1.6329  1.4321 -0.4964
    6CHTO    O2 2497   6.638   5.562   2.759  0.3849  0.3378 -0.7508
    6CHTO    C1 2498   6.501   5.586   2.769  0.6026  0.3608 -0.4632
    6CHTO   H14 2499   6.465   5.545   2.672  3.1040  0.0326 -1.2893
    6CHTO    C2 2500   6.448   5.739   2.791  0.7753  0.2948 -0.1105
    6CHTO   H15 2501   6.484   5.767   2.891  1.9967  1.0940 -0.7667
    6CHTO    O6 2502   6.510   5.820   2.697  0.6067 -0.1134  0.1810
    6CHTO    H1 2503   6.596   5.840   2.727  0.1413  1.3536  0.5842
    6CHTO    C3 2504   6.282   5.744   2.782 -0.3974 -0.0811 -1.1479
    6CHTO   H16 2505   6.264   5.708   2.679  1.9262  1.4332 -2.1344
    6CHTO    N1 2506   6.215   5.879   2.795  0.4040  0.4385  0.0160
    6CHTO    H8 2507   6.227   5.912   2.897  0.6633 -0.9717  0.4595
    6CHTO    H9 2508   6.110   5.866   2.777  0.4856  0.9555 -0.8775
    6CHTO    C4 2509   6.227   5.642   2.883  0.4652  0.4128 -0.0015
    6CHTO   H17 2510   6.244   5.683   2.982 -0.3676 -1.3500  0.9044
    6CHTO    O1 2511   6.288   5.508   2.861 -0.3990 -0.1191  0.6525
    6CHTO    C5 2512   6.430   5.485   2.873  0.0076 -0.5719  0.1660
    6CHTO   H18 2513   6.471   5.499   2.973  0.8112 -1.2286 -0.0641
    6CHTO   C16 2514   6.443   5.336   2.841 -0.1021 -0.4388  0.0284
    6CHTO   O11 2515   6.386   5.254   2.940 -0.2518 -0.3041 -0.2403
    6CHTO    H5 2516   6.412   5.165   2.923  0.9644 -0.0528  0.2383
    6CHTO    O3 2517   6.080   5.630   2.873  0.6337 -0.6339 -0.1391
    6CHTO    C6 2518   6.018   5.568   2.988 -0.0222 -0.2074 -0.0167
    6CHTO   H19 2519   6.091   5.518   3.052  1.1646  0.2731 -0.9697
    6CHTO    C8 2520   5.956   5.671   3.075  0.1737  0.4489  0.4742
    6CHTO   H21 2521   5.883   5.734   3.025  1.8543  0.6428 -1.8150
    6CHTO    O7 2522   6.054   5.752   3.136 -0.2113 -0.0517  0.0048
    6CHTO    H2 2523   6.090   5.741   3.222  0.6959 -0.8120 -0.4605
    6CHTO   C12 2524   5.869   5.599   3.186  0.3477  0.2360  0.2507
    6CHTO   H25 2525   5.944   5.552   3.253  0.9790 -1.6594 -1.7242
    6CHTO    N3 2526   5.788   5.701   3.266  0.6800 -0.2133  0.1654
    6CHTO   H12 2527   5.851   5.764   3.327  0.0837 -0.6794  1.2755
    6CHTO   H13 2528   5.715   5.758   3.212  0.2503 -0.8983  0.0167
    6CHTO   C15 2529   5.776   5.484   3.126  0.6025 -0.8155 -0.5280
    6CHTO   H28 2530   5.698   5.526   3.062 -0.5311 -1.7882  0.1769
    6CHTO   O10 2531   5.715   5.395   3.241 -0.6155 -0.8331 -0.0736
    6CHTO    H4 2532   5.677   5.442   3.313  1.0770  1.1801 -0.4566
    6CHTO    O5 2533   5.855   5.394   3.046  0.2617 -0.4783  0.4855
    6CHTO   C10 2534   5.919   5.465   2.940  1.0263 -0.3937  0.1735
    6CHTO   H23 2535   5.842   5.515   2.882  2.7637 -0.7501 -2.5272
    6CHTO   C17 2536   5.991   5.364   2.853 -0.0571  0.1377 -0.4916
    6CHTO   O12 2537   6.090   5.292   2.924 -0.1443  0.2476  0.1270
    6CHTO    H6 2538   6.050   5.244   2.993  1.0112 -0.6003  0.2132
    7CHTO  H203 2539   4.967   1.484   3.051  0.7350 -0.3140 -0.9243
    7CHTO   O82 2540   5.029   1.552   3.068 -0.3172  0.3907  0.1284
    7CHTO  C123 2541   5.114   1.572   2.952 -0.2371 -0.3512  0.3753
    7CHTO  H227 2542   5.068   1.533   2.860  2.1208  0.9087 -1.4088
    7CHTO   O77 2543   5.103   1.719   2.936  0.7045 -0.2442  0.3229
    7CHTO  C118 2544   5.177   1.771   2.826 -0.3565 -0.6965 -0.3919
    7CHTO  H222 2545   5.138   1.734   2.730 -2.6087 -0.0002  0.2402
    7CHTO  C125 2546   5.146   1.926   2.837 -0.1080 -0.1354  0.6537
    7CHTO   O84 2547   5.193   1.997   2.723  0.2674  0.6426  0.3813
    7CHTO  H205 2548   5.149   1.973   2.643 -0.1698  1.1112  0.4767
    7CHTO  C114 2549   5.329   1.738   2.836 -1.0866 -0.0505 -0.2043
    7CHTO  H218 2550   5.366   1.790   2.924  0.2563 -1.2483 -0.0551
    7CHTO  C116 2551   5.346   1.584   2.845 -0.3402 -0.4040  0.2019
    7CHTO  H220 2552   5.330   1.532   2.748  0.9094 -1.8145  0.7269
    7CHTO   O79 2553   5.487   1.555   2.873  0.3358  0.2574  0.1584
    7CHTO  H201 2554   5.505   1.479   2.925 -3.1043 -0.3579  0.5920
    7CHTO  C120 2555   5.267   1.526   2.963  0.2873 -0.5574  0.1460
    7CHTO  H224 2556   5.315   1.571   3.052  0.4000  0.3114 -0.3529
    7CHTO   N21 2557   5.274   1.377   2.974  0.5588 -0.3582 -0.2395
    7CHTO  H211 2558   5.252   1.326   2.882  0.3464 -0.8287  0.0721
    7CHTO  H212 2559   5.237   1.332   3.064  2.1610  1.7484  1.5355
    7CHTO   O75 2560   5.388   1.812   2.727  0.3996 -0.6258 -0.5368
    7CHTO  C112 2561   5.557   1.844   2.735  0.2209 -0.0477 -0.5406
    7CHTO  H216 2562   5.602   1.755   2.781 -2.1938 -0.3031  1.4035
    7CHTO   O73 2563   5.568   1.960   2.822 -0.1822 -0.0951 -0.0841
    7CHTO  C113 2564   5.704   1.976   2.867 -0.3228  0.2586 -0.2172
    7CHTO  H217 2565   5.739   1.886   2.922  0.9027  0.1581 -1.1485
    7CHTO  C124 2566   5.712   2.095   2.960  0.0296  0.3976 -0.0408
    7CHTO   O83 2567   5.671   2.062   3.089  0.5890 -0.1736  0.2075
    7CHTO  H204 2568   5.737   2.084   3.152  2.4289  1.7857 -2.3148
    7CHTO  C109 2569   5.806   1.989   2.752  0.1383  0.3513  0.3620
    7CHTO  H213 2570   5.798   2.093   2.717  0.5534 -0.6435 -2.8249
    7CHTO  C110 2571   5.777   1.910   2.619 -0.2238 -0.3263 -0.0770
    7CHTO  H214 2572   5.825   1.812   2.631 -2.2585 -1.2589  0.7109
    7CHTO   O78 2573   5.844   1.975   2.508 -0.3762  0.1301 -0.2891
    7CHTO  H200 2574   5.818   1.945   2.423  0.9630 -1.9638  0.0174
    7CHTO  C111 2575   5.624   1.883   2.594 -0.0283  0.7805 -0.1694
    7CHTO  H215 2576   5.576   1.977   2.563 -0.7936 -0.0353 -1.4869
    7CHTO   N19 2577   5.584   1.786   2.491 -0.4278 -0.1403  0.3704
    7CHTO  H207 2578   5.481   1.809   2.468 -0.2617  3.8296  3.1768
    7CHTO  H208 2579   5.647   1.800   2.405  2.2371  0.4555  2.3577
    7CHTO   O74 2580   5.940   1.970   2.810 -0.5644  0.1750  0.7479
    7CHTO  C115 2581   6.049   2.066   2.774 -1.0250 -0.0644  0.5330
    7CHTO  H219 2582   6.021   2.128   2.689 -1.2166  0.2121  0.8002
    7CHTO   O76 2583   6.082   2.170   2.901  0.2951  0.0334 -0.0422
    7CHTO  C122 2584   6.134   2.098   3.017  0.7053 -0.5723  0.3641
    7CHTO  H226 2585   6.065   2.016   3.035 -1.1512  0.6309 -1.0558
    7CHTO  C126 2586   6.134   2.188   3.152 -0.0484 -0.1335  0.3334
    7CHTO   O85 2587   5.995   2.221   3.179  0.0679  0.1775 -0.0287
    7CHTO  H206 2588   5.973   2.297   3.130  3.6250  1.5550  0.3687
    7CHTO  C121 2589   6.274   2.038   2.980 -0.1367 -0.3218 -0.2165
    7CHTO  H225 2590   6.349   2.112   2.947 -0.9835 -0.0539 -1.6013
    7CHTO   O81 2591   6.330   1.961   3.086 -0.1394  0.2078 -0.1098
    7CHTO  H202 2592   6.269   1.907   3.134  1.3642 -0.2253  1.3573
    7CHTO  C119 2593   6.245   1.935   2.865  0.3421  0.0150  0.2511
    7CHTO  H223 2594   6.344   1.894   2.844  0.4150 -0.3121  1.2091
    7CHTO  C117 2595   6.181   1.996   2.732  0.4894  0.8428 -0.5250
    7CHTO  H221 2596   6.157   1.920   2.659 -0.7172  1.4601 -0.7778
    7CHTO   N20 2597   6.285   2.091   2.674  0.1770 -0.0955  0.1334
    7CHTO  H209 2598   6.379   2.044   2.649 -1.1936 -2.2072 -1.2799
    7CHTO  H210 2599   6.244   2.126   2.580 -0.1343 -1.0101 -0.0770
    7CHTO   O80 2600   6.171   1.810   2.908  0.4828 -0.2947 -1.0465
    7CHTO  C103 2601   6.214   1.666   2.857 -0.0090  0.0666  0.1242
    7CHTO  H190 2602   6.227   1.669   2.749 -0.4051  1.5765  0.1132
    7CHTO  C101 2603   6.336   1.600   2.924  0.7858  0.1882 -0.1733
    7CHTO  H188 2604   6.324   1.590   3.031 -0.3791  2.1247 -0.0962
    7CHTO   O68 2605   6.478   1.685   2.899 -0.1779  0.3488  0.3761
    7CHTO  H168 2606   6.541   1.621   2.875 -0.4512 -1.0604  3.1678
    7CHTO   C99 2607   6.342   1.447   2.874 -0.3701 -0.0212 -0.0374
    7CHTO  H186 2608   6.343   1.450   2.763  2.4031  2.6499 -0.0395
    7CHTO   N17 2609   6.463   1.374   2.919 -0.1164 -0.4530  0.0783
    7CHTO  H174 2610   6.440   1.288   2.980 -2.0695  1.0753  1.5698
    7CHTO  H175 2611   6.517   1.451   2.972  1.0188 -0.0124 -1.6753
    7CHTO   C97 2612   6.214   1.372   2.914  0.2514  0.0383 -0.1153
    7CHTO  H184 2613   6.202   1.374   3.024  2.9044  2.5012  0.1700
    7CHTO   O64 2614   6.104   1.433   2.853 -0.4347 -0.2008 -0.4163
    7CHTO  C104 2615   6.088   1.576   2.885  0.6487 -0.4654 -0.7189
    7CHTO  H191 2616   6.054   1.594   2.987 -1.5031 -1.4250 -1.2296
    7CHTO  C108 2617   5.978   1.631   2.797 -0.0132 -0.5897 -0.6093
    7CHTO   O71 2618   5.856   1.575   2.837  0.6275  0.2364 -0.1197
    7CHTO  H171 2619   5.798   1.634   2.883 -0.6015  0.4845 -1.9126
    7CHTO   O62 2620   6.202   1.243   2.855  1.1469  0.0054  0.4339
    7CHTO   C91 2621   6.115   1.147   2.929 -0.5710 -0.0428  0.1727
    7CHTO  H178 2622   6.117   1.063   2.859  1.4225 -0.4580  0.6786
    7CHTO   C92 2623   5.968   1.189   2.946  0.0821 -1.1068  0.2726
    7CHTO  H179 2624   5.964   1.290   2.988  0.1687 -0.4961 -1.1795
    7CHTO   O66 2625   5.931   1.216   2.810 -0.6495  0.0415  0.4732
    7CHTO  H166 2626   5.946   1.305   2.784  1.2241  0.0180  1.4051
    7CHTO   C93 2627   5.880   1.082   3.016 -0.0963 -0.1658 -0.2293
    7CHTO  H180 2628   5.864   1.004   2.940  0.3180 -0.9139  0.4507
    7CHTO   N16 2629   5.742   1.131   3.054 -0.0985 -0.3154  0.2119
    7CHTO  H172 2630   5.675   1.046   3.057  0.2186 -0.5157  3.0076
    7CHTO  H173 2631   5.704   1.219   3.005  0.5825 -0.4384 -0.5475
    7CHTO   C94 2632   5.952   1.017   3.140  0.3366 -0.1531 -0.1545
    7CHTO  H181 2633   5.974   1.091   3.218  0.3154  0.7513 -1.0005
    7CHTO   O61 2634   6.083   0.974   3.101  0.1796  0.3377  0.0894
    7CHTO   C95 2635   6.169   1.085   3.063 -0.2328 -0.5862  0.3392
    7CHTO  H182 2636   6.178   1.157   3.145  0.1231 -1.1566  0.7988
    7CHTO  C106 2637   6.320   1.037   3.041  0.0664 -0.5816  0.9044
    7CHTO   O69 2638   6.384   1.003   3.165 -0.6942 -0.5058  0.0252
    7CHTO  H169 2639   6.470   0.970   3.151 -0.6249 -0.1939 -0.2903
    7CHTO   O63 2640   5.851   0.891   3.209 -0.1516 -0.1877 -0.5596
    7CHTO   C96 2641   5.842   0.921   3.350 -0.3761 -0.2084 -0.2110
    7CHTO  H183 2642   5.821   1.028   3.363  1.3899  0.0965  0.2322
    7CHTO   C98 2643   5.974   0.890   3.432 -0.1719  0.0217  0.1590
    7CHTO  H185 2644   6.062   0.931   3.380 -0.0978 -0.7758 -0.3494
    7CHTO   O67 2645   5.959   0.963   3.553 -0.0388 -0.0630 -0.5464
    7CHTO  H167 2646   5.872   0.982   3.581  1.0149  3.4591  0.5965
    7CHTO  C102 2647   5.999   0.733   3.457 -0.6396 -0.3906 -0.4654
    7CHTO  H189 2648   6.071   0.734   3.540 -2.2578  1.4536  0.9709
    7CHTO   N18 2649   6.064   0.659   3.349 -0.5536  0.5282 -0.7572
    7CHTO  H176 2650   5.995   0.602   3.288 -0.8532  0.1416 -0.0504
    7CHTO  H177 2651   6.141   0.595   3.391 -0.6963  1.5975  1.1760
    7CHTO  C105 2652   5.861   0.664   3.493  0.3719 -1.0139 -0.5261
    7CHTO  H192 2653   5.820   0.620   3.402 -0.7839  0.9100 -0.9767
    7CHTO   O65 2654   5.763   0.761   3.540 -0.4099 -0.3717  0.3946
    7CHTO  C100 2655   5.730   0.840   3.422 -0.2759 -0.2722 -0.9190
    7CHTO  H187 2656   5.670   0.779   3.352 -0.9088 -0.6606 -0.0568
    7CHTO  C107 2657   5.617   0.932   3.471 -0.2116 -0.4548 -0.4487
    7CHTO   O70 2658   5.643   1.027   3.576 -0.1839 -0.1686  0.2105
    7CHTO  H170 2659   5.562   1.060   3.608  1.8059  4.9650  0.3809
    7CHTO   O57 2660   5.893   0.572   3.597  0.2689 -0.1435  0.3451
    7CHTO   C85 2661   5.917   0.432   3.576 -0.3792 -0.2604 -0.6866
    7CHTO  H157 2662   5.939   0.432   3.467  0.1125  0.4683 -0.5925
    7CHTO   C83 2663   5.784   0.356   3.595 -0.3888  0.3579  0.1035
    7CHTO  H155 2664   5.712   0.405   3.529  1.1528  0.7045 -1.3587
    7CHTO   O56 2665   5.735   0.391   3.724 -0.2668  0.3508  0.5680
    7CHTO  H135 2666   5.643   0.409   3.735  0.1412  3.5628 -0.6721
    7CHTO   C81 2667   5.793   0.205   3.567 -0.1374  0.0055 -0.4848
    7CHTO  H153 2668   5.834   0.189   3.467 -0.9629  1.6767 -1.0995
    7CHTO   N14 2669   5.656   0.142   3.554 -0.5524  0.0372  0.0139
    7CHTO  H141 2670   5.579   0.212   3.529 -1.1632  0.2439  2.3474
    7CHTO  H142 2671   5.655   0.068   3.476 -1.0446  0.6499 -0.5690
    7CHTO   C79 2672   5.891   0.144   3.667  0.1481 -0.1096  0.3799
    7CHTO  H151 2673   5.912   0.043   3.632  0.6054  0.7019 -1.7381
    7CHTO   O52 2674   6.022   0.210   3.646 -0.9636  0.4105 -0.5231
    7CHTO   C86 2675   6.024   0.352   3.658  0.0645  0.1496  0.6621
    7CHTO  H158 2676   6.003   0.364   3.766  1.7428 -0.1528  1.0354
    7CHTO   C90 2677   6.176   0.404   3.638  0.2088 -0.0380 -1.1184
    7CHTO   O60 2678   6.175   0.541   3.671 -0.8276  0.2345  0.0365
    7CHTO  H138 2679   6.256   0.565   3.711  0.8146 -3.3559 -0.9914
    7CHTO   O50 2680   5.857   0.141   3.805  0.0461  0.0743 -0.1069
    7CHTO   C73 2681   5.913   0.063   3.913 -0.1733 -0.5593 -0.1219
    7CHTO  H145 2682   6.013   0.028   3.885  0.7592  1.7686  0.2189
    7CHTO   C74 2683   5.805  -0.054   3.952 -0.0961 -0.4740  0.0352
    7CHTO  H146 2684   5.794  -0.122   3.867  1.2793  0.1930 -0.6911
    7CHTO   O54 2685   5.859  -0.140   4.056 -0.0084 -0.0759 -0.2235
    7CHTO  H133 2686   5.877  -0.227   4.025 -1.9251  0.1480 -2.0381
    7CHTO   C75 2687   5.671   0.009   3.992  0.0519 -0.4297 -0.2548
    7CHTO  H147 2688   5.636   0.072   3.910  1.3985  0.2149 -0.3494
    7CHTO   N13 2689   5.559  -0.087   4.037 -0.1220  0.2427  0.9868
    7CHTO  H139 2690   5.461  -0.051   4.009  0.2536 -0.4669 -1.2926
    7CHTO  H140 2691   5.583  -0.177   3.984 -1.2121  0.3483  0.3019
    7CHTO   C76 2692   5.698   0.114   4.112  0.5207  0.2209  0.0085
    7CHTO  H148 2693   5.732   0.056   4.198 -0.5356 -2.8176 -1.5357
    7CHTO   O49 2694   5.800   0.209   4.077  0.0679  0.1434 -0.2674
    7CHTO   C77 2695   5.921   0.152   4.043 -0.1260 -1.0828  0.3988
    7CHTO  H149 2696   5.957   0.092   4.128 -1.0507  0.7072  2.0863
    7CHTO   C88 2697   6.012   0.276   4.022  0.1225  0.5708 -0.2048
    7CHTO   O58 2698   6.139   0.248   4.061 -0.4757  0.4255 -0.3761
    7CHTO  H136 2699   6.195   0.206   3.999  0.5802  0.9022  0.2481
    7CHTO   O51 2700   5.569   0.206   4.146  0.3487  0.0425  0.4583
    7CHTO   C78 2701   5.568   0.274   4.280  0.4242  0.6873  0.0105
    7CHTO  H150 2702   5.668   0.270   4.328 -0.4936 -0.5564  1.9093
    7CHTO   C80 2703   5.460   0.204   4.363 -0.6543  0.2510  0.5675
    7CHTO  H152 2704   5.365   0.218   4.307  0.0060 -1.1627 -0.9324
    7CHTO   O55 2705   5.499   0.065   4.379  0.1273 -0.2478  0.3113
    7CHTO  H134 2706   5.443   0.024   4.442 -1.9175  0.5199 -0.9404
    7CHTO   C84 2707   5.435   0.279   4.501  0.4108 -0.1428  0.4601
    7CHTO  H156 2708   5.525   0.254   4.558  1.5565 -0.3172 -1.3949
    7CHTO   N15 2709   5.319   0.235   4.579 -0.0694 -0.1421 -0.5308
    7CHTO  H143 2710   5.354   0.241   4.680  0.6568 -1.2507 -0.7053
    7CHTO  H144 2711   5.230   0.291   4.560 -0.3734 -0.6161 -0.5091
    7CHTO   C87 2712   5.433   0.430   4.471 -0.1325  0.9913  0.0349
    7CHTO  H159 2713   5.333   0.454   4.433 -1.0096 -0.2865  1.4926
    7CHTO   O53 2714   5.539   0.478   4.395 -0.3501 -0.5599 -0.2618
    7CHTO   C82 2715   5.542   0.416   4.265  0.4354  0.2144 -0.0091
    7CHTO  H154 2716   5.446   0.424   4.215 -1.1170 -2.7659  2.3038
    7CHTO   C89 2717   5.645   0.490   4.177 -0.2623  0.1427  0.0708
    7CHTO   O59 2718   5.664   0.429   4.049  0.6227  0.2925  0.7274
    7CHTO  H137 2719   5.583   0.430   4.002  0.1261  0.6549  1.5994
    7CHTO   O45 2720   5.437   0.499   4.622 -0.5419 -0.3803 -0.2764
    7CHTO   C67 2721   5.383   0.630   4.618 -0.0657  0.2299  0.3484
    7CHTO  H124 2722   5.418   0.681   4.528  2.7370 -2.0067  0.1285
    7CHTO   C65 2723   5.222   0.635   4.631  0.1062 -0.1659 -0.3142
    7CHTO  H122 2724   5.187   0.551   4.691 -1.4456 -0.2508 -1.2946
    7CHTO   O44 2725   5.173   0.612   4.496  0.2153  0.0100  0.2708
    7CHTO  H102 2726   5.080   0.609   4.493  0.1882 -2.6967  2.3406
    7CHTO   C63 2727   5.167   0.762   4.702 -0.3750 -0.6350  0.2031
    7CHTO  H120 2728   5.167   0.752   4.810 -2.9340 -1.0410  0.1916
    7CHTO   N11 2729   5.015   0.793   4.685 -0.2931 -0.0963  0.0480
    7CHTO  H108 2730   4.958   0.747   4.763 -1.0049 -2.7375 -1.9431
    7CHTO  H109 2731   4.989   0.896   4.670 -0.8213 -0.4265 -1.3928
    7CHTO   C61 2732   5.256   0.885   4.663  0.6109  0.3607 -0.1425
    7CHTO  H118 2733   5.206   0.966   4.717  0.6906 -0.7890  1.6922
    7CHTO   O40 2734   5.391   0.862   4.720  0.3774 -0.5255 -0.4428
    7CHTO   C68 2735   5.439   0.723   4.731  0.7526 -0.3069 -0.2302
    7CHTO  H125 2736   5.400   0.686   4.828 -0.1295 -1.0556 -0.8638
    7CHTO   C72 2737   5.595   0.715   4.738  0.2238  0.4483  0.3543
    7CHTO   O48 2738   5.666   0.744   4.614  0.4315 -0.0736  0.0922
    7CHTO  H105 2739   5.716   0.672   4.580 -0.1455 -0.3870 -0.1043
    7CHTO   O38 2740   5.265   0.922   4.529 -0.3562  0.2534  0.1401
    7CHTO   C55 2741   5.317   1.058   4.511 -0.7466 -0.1166  0.0886
    7CHTO  H112 2742   5.364   1.094   4.603  2.5118 -0.3856 -1.3828
    7CHTO   C56 2743   5.192   1.144   4.466 -0.3709  0.4308  0.6644
    7CHTO  H113 2744   5.143   1.085   4.386  3.0121  1.8704 -2.6261
    7CHTO   O42 2745   5.092   1.149   4.568  0.3211  0.2399  0.3543
    7CHTO  H100 2746   5.046   1.069   4.584  2.1771 -0.8975  0.0727
    7CHTO   C57 2747   5.231   1.291   4.405 -0.2351  0.2026  0.6922
    7CHTO  H114 2748   5.242   1.351   4.495 -2.7489  1.9291 -0.0886
    7CHTO   N10 2749   5.117   1.344   4.324  0.1487 -0.7387  0.6009
    7CHTO  H106 2750   5.115   1.311   4.221 -0.2177 -1.0496  0.7062
    7CHTO  H107 2751   5.127   1.451   4.326  0.6084 -0.7685 -0.0286
    7CHTO   C58 2752   5.368   1.294   4.333 -0.0234 -0.2823  0.3887
    7CHTO  H115 2753   5.355   1.279   4.224 -1.2792  0.1022  0.4821
    7CHTO   O37 2754   5.463   1.203   4.385 -0.2867 -0.1567  0.6312
    7CHTO   C59 2755   5.419   1.072   4.395 -0.2329  0.6133  0.4052
    7CHTO  H116 2756   5.386   1.032   4.299  0.6338 -1.4649  0.9396
    7CHTO   C70 2757   5.554   1.003   4.421  0.9645  0.3029  0.0185
    7CHTO   O46 2758   5.559   0.873   4.366  0.2119 -0.4417  0.0362
    7CHTO  H103 2759   5.624   0.820   4.408 -0.0951 -1.5315 -0.8382
    7CHTO   O39 2760   5.444   1.456   4.349  0.3660 -0.9300  0.4225
    7CHTO   C60 2761   5.541   1.482   4.253  0.4721 -0.3012  0.2292
    7CHTO  H117 2762   5.577   1.384   4.224 -2.9933 -1.0796 -1.6783
    7CHTO   C62 2763   5.481   1.559   4.135 -0.4951  0.1638 -0.2436
    7CHTO  H119 2764   5.385   1.508   4.110 -0.1432 -0.7240  0.2127
    7CHTO   O43 2765   5.445   1.694   4.175  0.0613  0.4876  0.3950
    7CHTO  H101 2766   5.410   1.739   4.101  3.2419 -2.0542 -2.8217
    7CHTO   C66 2767   5.582   1.543   4.005  0.1964  0.1018  0.2908
    7CHTO  H123 2768   5.625   1.442   4.001  2.9684  1.2705 -0.9264
    7CHTO   N12 2769   5.520   1.564   3.875 -0.1864  0.1821  0.0219
    7CHTO  H110 2770   5.522   1.471   3.819 -4.0686  0.2495 -0.4316
    7CHTO  H111 2771   5.566   1.647   3.825  1.1169  1.1882  2.8299
    7CHTO   C69 2772   5.703   1.634   4.030  0.6396  0.3070  0.3442
    7CHTO  H126 2773   5.683   1.740   4.003  1.3284  0.2701 -0.3144
    7CHTO   O41 2774   5.757   1.623   4.196 -0.7207 -0.4335 -0.2552
    7CHTO   C64 2775   5.665   1.561   4.313  0.0302 -0.2997 -0.0856
    7CHTO  H121 2776   5.626   1.641   4.379 -0.3408 -2.4433  2.3956
    7CHTO   C71 2777   5.757   1.482   4.414 -0.7666  0.7845  0.8781
    7CHTO   O47 2778   5.809   1.359   4.365 -0.3481 -0.2582 -0.0231
    7CHTO  H104 2779   5.751   1.287   4.381  1.0993 -1.5524 -0.5375
    7CHTO   O34 2780   5.826   1.596   3.949  0.2134  0.3869 -0.0512
    7CHTO   C49 2781   5.881   1.657   3.813  0.0900  0.9153 -0.3765
    7CHTO   H91 2782   5.797   1.709   3.766 -0.0764  0.6277 -0.3988
    7CHTO   C47 2783   5.931   1.547   3.715 -0.4499 -0.2200 -0.3539
    7CHTO   H89 2784   5.948   1.595   3.616  0.9623 -0.5848 -0.2999
    7CHTO   O33 2785   5.815   1.461   3.713 -0.6065  0.1218  0.5992
    7CHTO   H70 2786   5.796   1.431   3.626  2.0528  0.4865 -0.1486
    7CHTO   C45 2787   6.073   1.476   3.769 -0.1674 -0.1816 -0.3075
    7CHTO   H87 2788   6.047   1.387   3.827 -0.0614  0.4201  0.6715
    7CHTO    N8 2789   6.140   1.435   3.646 -0.0522 -0.0342 -0.7288
    7CHTO   H75 2790   6.223   1.368   3.662 -2.0060 -2.4381 -0.1633
    7CHTO   H76 2791   6.076   1.383   3.576  1.4207 -1.0426 -1.3432
    7CHTO   C43 2792   6.135   1.569   3.879 -0.6444  0.3319  0.0226
    7CHTO   H85 2793   6.080   1.546   3.970  0.3415 -0.9374  0.2974
    7CHTO   O29 2794   6.127   1.706   3.840 -0.6649  0.4174  0.0230
    7CHTO   C50 2795   5.996   1.755   3.834 -0.8533 -0.3390  0.7405
    7CHTO   H92 2796   5.981   1.813   3.926  0.3567  0.5095  0.4164
    7CHTO   C54 2797   5.996   1.875   3.735 -0.0826 -0.0453  0.0703
    7CHTO   O36 2798   6.040   1.827   3.610  0.1076  0.4262  0.0600
    7CHTO   H72 2799   6.131   1.838   3.590 -0.0730  2.5518  0.3673
    7CHTO   O27 2800   6.268   1.524   3.908 -0.2664  0.1661  0.0388
    7CHTO   C37 2801   6.369   1.498   4.003  0.0212 -0.3012  0.5361
    7CHTO   H79 2802   6.366   1.568   4.088  4.0285 -0.2814  0.7722
    7CHTO   C38 2803   6.347   1.352   4.050  0.2229 -0.2760  0.1763
    7CHTO   H80 2804   6.343   1.286   3.962  0.7746  0.0754 -0.1190
    7CHTO   O31 2805   6.218   1.338   4.115  0.4507  0.0090 -0.2601
    7CHTO   H68 2806   6.213   1.392   4.192  0.1345 -1.2249  0.6046
    7CHTO   C39 2807   6.458   1.295   4.135  0.0614 -0.0778  0.6160
    7CHTO   H81 2808   6.461   1.341   4.234 -2.4185  1.0502  0.2060
    7CHTO    N7 2809   6.447   1.146   4.146 -0.6601 -0.0112  0.3530
    7CHTO   H73 2810   6.444   1.110   4.044  1.4613  2.5109 -0.6562
    7CHTO   H74 2811   6.347   1.129   4.182  0.1254  1.2395  3.3357
    7CHTO   C40 2812   6.606   1.335   4.082 -0.1329  0.5488  0.0952
    7CHTO   H82 2813   6.630   1.278   3.992 -1.4766 -2.2196  1.4456
    7CHTO   O26 2814   6.601   1.474   4.058  0.2028 -0.1512  0.4202
    7CHTO   C41 2815   6.506   1.516   3.947 -0.3834  0.4965 -0.2437
    7CHTO   H83 2816   6.510   1.450   3.860  1.1369 -1.7218  1.4416
    7CHTO   C52 2817   6.539   1.658   3.896  0.1002  0.3885 -0.0780
    7CHTO   O35 2818   6.431   1.695   3.788  0.5360 -0.6005  0.6887
    7CHTO   H71 2819   6.442   1.647   3.708 -0.0610 -1.1414  0.9298
    7CHTO   O28 2820   6.696   1.316   4.189 -0.1701  0.2046  0.2655
    7CHTO   C42 2821   6.844   1.292   4.170  0.3241  0.0830 -0.5709
    7CHTO   H84 2822   6.876   1.279   4.274 -3.9962 -0.7350  0.7811
    7CHTO   C44 2823   6.922   1.409   4.110 -0.3119  0.0294  0.5758
    7CHTO   H86 2824   6.891   1.421   4.007  0.0708  0.0725  0.4653
    7CHTO   O32 2825   6.907   1.529   4.194  0.1935  0.0946  0.0758
    7CHTO   H69 2826   6.925   1.495   4.280 -0.0494 -0.3571 -0.0502
    7CHTO   C48 2827   7.083   1.377   4.095  0.0242 -0.2210 -0.1042
    7CHTO   H90 2828   7.139   1.389   4.189  0.7100  0.6357 -0.6129
    7CHTO    N9 2829   7.157   1.476   4.011 -0.3167  0.1747 -0.5046
    7CHTO   H77 2830   7.153   1.578   4.047  1.3083 -0.0988  0.4732
    7CHTO   H78 2831   7.134   1.469   3.905 -1.0751  0.9959 -0.4019
    7CHTO   C51 2832   7.112   1.234   4.041  0.5658 -0.1555  0.1995
    7CHTO   H93 2833   7.074   1.241   3.939  0.1967 -1.5484  0.2330
    7CHTO   O30 2834   7.032   1.139   4.118 -0.2675  0.4235 -0.1336
    7CHTO   C46 2835   6.884   1.160   4.093 -0.0806  0.5666  0.3709
    7CHTO   H88 2836   6.870   1.168   3.986  2.5149  0.6781  0.0043
    7CHTO   C53 2837   6.809   1.029   4.142 -0.6880  0.1207  0.1788
    7CHTO   O72 2838   6.859   0.906   4.084  0.4845 -0.1867  0.4049
    7CHTO  H199 2839   6.845   0.838   4.147 -0.8687  0.9951  1.3944
    7CHTO   O22 2840   7.245   1.186   4.046  0.9896  0.4388  0.0406
    7CHTO   C31 2841   7.305   1.098   3.937 -0.4633 -0.2917 -0.1316
    7CHTO   H59 2842   7.404   1.063   3.973 -0.7437 -0.2502  0.6692
    7CHTO   C29 2843   7.222   0.977   3.905  0.3826  0.6693  0.2335
    7CHTO   H57 2844   7.123   1.009   3.869  0.8933  1.8615 -0.1190
    7CHTO   O21 2845   7.193   0.909   4.024 -0.0614  0.1018 -0.3628
    7CHTO   H37 2846   7.270   0.890   4.072  0.0957  0.2481 -0.5566
    7CHTO   C27 2847   7.292   0.876   3.801 -0.4518  0.2623 -0.3909
    7CHTO   H55 2848   7.393   0.848   3.835 -0.2129 -1.5481 -2.4253
    7CHTO    N5 2849   7.216   0.751   3.753  0.2187  0.8239 -0.5545
    7CHTO   H43 2850   7.116   0.792   3.757  0.0778  0.3590  4.0810
    7CHTO   H44 2851   7.211   0.686   3.839  1.4417  1.6591  0.1571
    7CHTO   C25 2852   7.304   0.974   3.678  0.5063  0.5276  0.5354
    7CHTO   H53 2853   7.204   1.015   3.660  0.4600 -0.0667 -0.6117
    7CHTO   O17 2854   7.399   1.082   3.715  0.2837  0.1823 -0.2114
    7CHTO   C32 2855   7.335   1.172   3.803 -1.0455 -0.4072 -0.9409
    7CHTO   H60 2856   7.243   1.220   3.768  0.1569  0.9511 -2.3430
    7CHTO   C36 2857   7.440   1.286   3.827  0.2343  0.6341 -0.3328
    7CHTO   O25 2858   7.450   1.360   3.701  0.1789  0.1574 -0.2293
    7CHTO   H40 2859   7.442   1.451   3.723 -0.8983  1.2429 -4.7286
    7CHTO   O15 2860   7.362   0.890   3.539 -0.1334  0.0969  0.4246
    7CHTO   C19 2861   7.315   0.942   3.403  0.1987  0.1139  0.0189
    7CHTO   H47 2862   7.369   0.885   3.326  2.5555  1.3854  0.6793
    7CHTO   C20 2863   7.162   0.947   3.379  0.2530 -1.0303  0.3049
    7CHTO   H48 2864   7.112   1.021   3.443 -1.6972 -1.6023 -0.5284
    7CHTO   O19 2865   7.099   0.822   3.410  0.2289 -0.5999  0.5756
    7CHTO   H35 2866   7.027   0.807   3.352  2.1325  0.6964 -2.2335
    7CHTO   C21 2867   7.130   0.999   3.231  0.7934 -0.2320 -0.4499
    7CHTO   H49 2868   7.176   0.936   3.155  0.4044 -0.4421 -0.5136
    7CHTO    N4 2869   6.979   1.007   3.196  0.3700  0.3068  0.9045
    7CHTO   H41 2870   6.946   1.025   3.094  0.6403  0.9572  0.9262
    7CHTO   H42 2871   6.921   0.924   3.233  0.1271 -0.2237 -0.6286
    7CHTO   C22 2872   7.201   1.136   3.207 -0.0467 -0.8482  0.0160
    7CHTO   H50 2873   7.162   1.208   3.278  2.0541  1.0115 -0.6576
    7CHTO   O14 2874   7.338   1.110   3.232  0.2196  0.1998 -0.2316
    7CHTO   C23 2875   7.359   1.091   3.372 -1.0383 -0.0222 -0.4135
    7CHTO   H51 2876   7.308   1.163   3.438 -0.0843  1.3864 -1.1954
    7CHTO   C34 2877   7.510   1.117   3.408 -0.0347 -0.0900 -0.8037
    7CHTO   O23 2878   7.548   1.249   3.376 -0.2250 -0.1255 -0.2992
    7CHTO   H38 2879   7.640   1.258   3.391 -0.2624 -2.4260  1.7289
    7CHTO   O16 2880   7.194   1.179   3.073 -0.2088  0.2284  0.1297
    7CHTO   C24 2881   7.162   1.342   3.046  0.4720 -0.2445 -0.3855
    7CHTO   H52 2882   7.095   1.385   3.121 -0.3177  1.6483 -2.1221
    7CHTO   C26 2883   7.074   1.345   2.914 -0.4610 -0.2437 -0.5471
    7CHTO   H54 2884   7.134   1.301   2.832 -1.8548 -0.8279 -1.2789
    7CHTO   O20 2885   6.955   1.267   2.930  0.0321  0.2038  0.4958
    7CHTO   H36 2886   6.892   1.308   2.985  0.6833  2.1490 -0.1596
    7CHTO   C30 2887   7.032   1.494   2.878 -0.1460 -0.2676 -0.1825
    7CHTO   H58 2888   6.946   1.533   2.934  1.0748  1.9881  0.1702
    7CHTO    N6 2889   6.999   1.509   2.729  0.0773 -0.0942 -0.2922
    7CHTO   H45 2890   7.052   1.429   2.680  0.7389 -0.3522  0.8270
    7CHTO   H46 2891   6.893   1.492   2.717 -0.0147 -0.6086  1.1625
    7CHTO   C33 2892   7.145   1.597   2.909  0.1380  0.0594  0.6327
    7CHTO   H61 2893   7.213   1.607   2.823  1.1470 -0.6729  1.3339
    7CHTO   O18 2894   7.226   1.561   3.025 -0.2471  0.0583 -0.1245
    7CHTO   C28 2895   7.285   1.433   3.035 -0.4752  0.2610  0.2985
    7CHTO   H56 2896   7.347   1.404   2.951 -0.4847  0.7222  0.1306
    7CHTO   C35 2897   7.386   1.433   3.153 -0.4933 -0.4582  0.0142
    7CHTO   O24 2898   7.515   1.489   3.120 -0.1019 -0.5116 -0.2527
    7CHTO   H39 2899   7.515   1.558   3.057  0.2156 -0.8334 -0.6127
    7CHTO    O9 2900   7.083   1.722   2.928 -0.1604 -0.1115 -0.6746
    7CHTO   C13 2901   7.161   1.856   2.930 -0.2917 -0.5288 -0.2865
    7CHTO   H26 2902   7.184   1.880   2.824  2.3288  2.0365  0.8157
    7CHTO   C11 2903   7.291   1.860   3.019  0.4578 -0.5144 -0.5185
    7CHTO   H24 2904   7.356   1.789   2.965  3.3908 -0.4619  2.7511
    7CHTO    O8 2905   7.276   1.808   3.151 -0.0245  0.9846 -0.2632
    7CHTO    H3 2906   7.347   1.776   3.204  0.5030  1.6752 -0.5453
    7CHTO    C9 2907   7.348   2.006   3.016  0.1626 -0.1794 -0.0685
    7CHTO   H22 2908   7.350   2.036   2.910 -1.1720  3.1441  0.7628
    7CHTO    N2 2909   7.495   2.017   3.065 -0.0685 -0.5099 -0.1270
    7CHTO   H10 2910   7.569   2.014   2.986  0.2487 -0.7615  0.1774
    7CHTO   H11 2911   7.520   1.941   3.138  1.8549  0.5921  0.4114
    7CHTO    C7 2912   7.248   2.107   3.078  0.1032 -0.2027 -0.4172
    7CHTO   H20 2913   7.283   2.211   3.063 -0.3299 -0.1089 -0.7654
    7CHTO    O4 2914   7.117   2.093   3.013  0.3327  0.2081  0.7890
    7CHTO   C14 2915   7.061   1.963   2.983  0.1438  1.0064  0.4789
    7CHTO   H27 2916   6.985   1.991   2.907 -0.8762  0.3368  1.2379
    7CHTO   C18 2917   6.976   1.924   3.109  0.1433 -0.0714 -0.0861
    7CHTO   O13 2918   6.873   2.021   3.122 -0.4309 -0.6472 -0.0542
    7CHTO    H7 2919   6.826   2.008   3.042 -0.8672  1.1331 -0.1199
    7CHTO    O2 2920   7.235   2.081   3.245  0.0118  0.1387 -0.0184
    7CHTO    C1 2921   7.228   2.201   3.326  0.8721 -0.8482 -0.3198
    7CHTO   H14 2922   7.174   2.278   3.266 -0.7532 -2.0322 -0.4020
    7CHTO    C2 2923   7.367   2.259   3.379  0.1292 -0.0824 -0.2850
    7CHTO   H15 2924   7.420   2.171   3.418 -1.5724 -0.8257  0.4334
    7CHTO    O6 2925   7.430   2.319   3.267 -0.6223  0.3361  0.5275
    7CHTO    H1 2926   7.372   2.377   3.222  0.5845 -0.1347 -1.7115
    7CHTO    C3 2927   7.346   2.364   3.502 -0.6410 -0.2659 -0.0106
    7CHTO   H16 2928   7.299   2.458   3.468 -1.4154 -0.7580 -0.3088
    7CHTO    N1 2929   7.483   2.395   3.562 -0.1001 -0.2641  0.3785
    7CHTO    H8 2930   7.492   2.354   3.662 -2.4183 -1.0123  0.3260
    7CHTO    H9 2931   7.484   2.502   3.572 -0.7031  0.0127 -2.3588
    7CHTO    C4 2932   7.242   2.311   3.610 -0.1261  0.4019 -0.4992
    7CHTO   H17 2933   7.283   2.224   3.660  0.9598  0.1798 -1.7492
    7CHTO    O1 2934   7.118   2.271   3.547 -0.0891  0.2727 -0.0530
    7CHTO    C5 2935   7.136   2.168   3.443 -0.0371  0.2754 -0.4818
    7CHTO   H18 2936   7.185   2.080   3.484  0.1325  1.4586  1.9798
    7CHTO   C16 2937   6.994   2.137   3.398 -0.0038 -0.1424 -0.3229
    7CHTO   O11 2938   6.907   2.095   3.497 -0.2319  0.4414  0.0169
    7CHTO    H5 2939   6.842   2.049   3.447  0.0258 -0.6945  0.7087
    7CHTO    O3 2940   7.211   2.417   3.703 -0.3813  0.1162  0.0992
    7CHTO    C6 2941   7.196   2.378   3.844 -0.0247 -0.5342  0.3324
    7CHTO   H19 2942   7.176   2.272   3.857  4.3550 -1.3148  1.2985
    7CHTO    C8 2943   7.324   2.415   3.930  1.0905  0.0904  1.0416
    7CHTO   H21 2944   7.356   2.516   3.904  0.3152  0.5709  1.9028
    7CHTO    O7 2945   7.428   2.324   3.879 -0.0233 -0.1242  0.2992
    7CHTO    H2 2946   7.481   2.272   3.936 -0.6438 -1.0112  0.0973
    7CHTO   C12 2947   7.288   2.403   4.084 -0.0147 -0.1140  0.1386
    7CHTO   H25 2948   7.260   2.298   4.106  1.3318 -0.5490 -0.1960
    7CHTO    N3 2949   7.408   2.442   4.161  0.5743  0.2982  0.5187
    7CHTO   H12 2950   7.378   2.467   4.262  0.1000  1.7551  0.0267
    7CHTO   H13 2951   7.473   2.513   4.112  0.5019 -0.1856 -0.2800
    7CHTO   C15 2952   7.169   2.500   4.106  0.1023 -0.1785  0.1707
    7CHTO   H28 2953   7.192   2.603   4.078  0.4726 -0.2065  0.3806
    7CHTO   O10 2954   7.110   2.479   4.258  0.1148 -0.0035  0.1350
    7CHTO    H4 2955   7.108   2.565   4.295  3.4103  0.6087 -0.9440
    7CHTO    O5 2956   7.053   2.454   4.029 -0.2080  0.0063  0.4402
    7CHTO   C10 2957   7.073   2.454   3.895  0.5831  0.2933 -0.3453
    7CHTO   H23 2958   7.096   2.557   3.868  2.2858  0.6381  2.2218
    7CHTO   C17 2959   6.947   2.413   3.814 -0.1276 -0.0373 -0.3913
    7CHTO   O12 2960   6.915   2.275   3.816 -0.4069 -0.2122 -0.0961
    7CHTO    H6 2961   6.858   2.259   3.889  0.8041 -2.7478  0.3608
    8CHTO  H203 2962   7.668   6.449   1.368 -0.0426 -0.2794  1.3507
    8CHTO   O82 2963   7.699   6.537   1.361 -0.1505 -0.3209  0.2666
    8CHTO  C123 2964   7.611   6.643   1.417  0.4474  0.5306  0.1574
    8CHTO  H227 2965   7.549   6.608   1.502  0.9259  4.3778  2.1700
    8CHTO   O77 2966   7.711   6.735   1.475  0.0269  0.1444 -0.0149
    8CHTO  C118 2967   7.649   6.835   1.557  0.1219 -0.4955 -0.2875
    8CHTO  H222 2968   7.584   6.788   1.632  0.6857  0.7497  1.0062
    8CHTO  C125 2969   7.762   6.910   1.629 -0.2840 -0.1264  0.4193
    8CHTO   O84 2970   7.788   6.837   1.749 -0.1377  0.5939  0.4392
    8CHTO  H205 2971   7.880   6.822   1.755  0.3165  2.1821 -1.8728
    8CHTO  C114 2972   7.565   6.927   1.473 -0.1647  0.8985  0.5281
    8CHTO  H218 2973   7.633   6.983   1.408  1.0479  0.2307  1.1909
    8CHTO  C116 2974   7.460   6.857   1.376 -0.1731 -0.3101 -0.6199
    8CHTO  H220 2975   7.372   6.836   1.439  1.0310 -3.5600  0.0934
    8CHTO   O79 2976   7.424   6.964   1.285 -0.0269  0.8718 -0.2846
    8CHTO  H201 2977   7.349   6.944   1.232  1.1101 -0.6585 -1.3543
    8CHTO  C120 2978   7.527   6.728   1.313  0.2644 -0.6836  0.0114
    8CHTO  H224 2979   7.594   6.764   1.231 -0.7898  0.8523 -0.2078
    8CHTO   N21 2980   7.421   6.647   1.243  0.4346 -0.1909  1.0115
    8CHTO  H211 2981   7.444   6.541   1.244  1.3059 -0.0451 -0.8317
    8CHTO  H212 2982   7.428   6.674   1.139  1.5027  1.1132  1.4102
    8CHTO   O75 2983   7.509   7.016   1.573  0.1052 -0.2418  0.2105
    8CHTO  C112 2984   7.412   7.122   1.546  0.7487 -0.4785 -0.3632
    8CHTO  H216 2985   7.340   7.076   1.476  1.7968  0.2890 -1.9876
    8CHTO   O73 2986   7.481   7.229   1.488 -0.4819  0.1324 -0.1945
    8CHTO  C113 2987   7.405   7.338   1.435 -0.0042 -0.1931  0.0004
    8CHTO  H217 2988   7.324   7.293   1.374 -1.0609  2.1509 -0.3757
    8CHTO  C124 2989   7.502   7.427   1.360 -0.3085  0.4812 -1.0407
    8CHTO   O83 2990   7.443   7.551   1.309  0.3730  0.4377  0.6901
    8CHTO  H204 2991   7.419   7.615   1.374  0.2185  2.2984 -1.1595
    8CHTO  C109 2992   7.339   7.409   1.553 -0.0012 -0.6018  0.2229
    8CHTO  H213 2993   7.421   7.458   1.607  2.4520 -2.6672 -1.4981
    8CHTO  C110 2994   7.267   7.306   1.639 -0.2547 -0.9712  0.1910
    8CHTO  H214 2995   7.181   7.281   1.577 -1.9470  0.3657  1.9311
    8CHTO   O78 2996   7.204   7.378   1.745 -0.7623 -0.0700 -0.2362
    8CHTO  H200 2997   7.179   7.321   1.816 -0.7407 -0.1496 -0.2934
    8CHTO  C111 2998   7.347   7.183   1.679 -0.2297 -0.4324 -0.1201
    8CHTO  H215 2999   7.421   7.214   1.754 -0.9627  1.1764 -0.0576
    8CHTO   N19 3000   7.260   7.079   1.741 -0.6213  0.4884 -0.8062
    8CHTO  H207 3001   7.300   6.979   1.735 -0.3653  0.5540 -0.1288
    8CHTO  H208 3002   7.238   7.112   1.841 -2.3030 -1.7912 -0.3991
    8CHTO   O74 3003   7.244   7.505   1.489 -0.0843 -0.0099 -0.0694
    8CHTO  C115 3004   7.260   7.653   1.531  0.3722  0.6467  0.1667
    8CHTO  H219 3005   7.208   7.673   1.625 -0.3595  2.3723 -0.5831
    8CHTO   O76 3006   7.425   7.690   1.557  0.7192 -0.0562  0.0388
    8CHTO  C122 3007   7.461   7.826   1.542 -0.9268 -0.3153  0.9545
    8CHTO  H226 3008   7.565   7.830   1.512 -0.5769 -2.0727  1.8883
    8CHTO  C126 3009   7.458   7.914   1.677  0.2121 -0.8369 -0.1976
    8CHTO   O85 3010   7.570   7.888   1.767 -0.6179  0.0084 -0.2006
    8CHTO  H206 3011   7.532   7.839   1.837 -1.1964  1.6872  0.6699
    8CHTO  C121 3012   7.382   7.904   1.422 -0.6316  0.0758  0.2405
    8CHTO  H225 3013   7.398   8.012   1.439  0.6253 -0.1744  0.6920
    8CHTO   O81 3014   7.440   7.875   1.294  0.3359 -0.4571  0.1526
    8CHTO  H202 3015   7.527   7.910   1.288  0.3822 -0.5031  0.5426
    8CHTO  C119 3016   7.231   7.880   1.427 -0.2836 -0.1637 -0.2983
    8CHTO  H223 3017   7.195   7.913   1.524  0.9404  0.4193 -0.0314
    8CHTO  C117 3018   7.189   7.731   1.415  0.4162 -0.1908 -0.1241
    8CHTO  H221 3019   7.230   7.688   1.324  1.0419  0.0908  0.0270
    8CHTO   N20 3020   7.032   7.712   1.413 -0.2427  0.3606 -0.2529
    8CHTO  H209 3021   7.003   7.616   1.453  1.2966  0.3498  0.8816
    8CHTO  H210 3022   6.992   7.774   1.493  1.5266  2.4606 -0.9585
    8CHTO   O80 3023   7.160   7.984   1.322  0.5219 -0.0447 -0.0815
    8CHTO  C103 3024   7.105   8.126   1.368  0.2336 -0.2448 -0.5454
    8CHTO  H190 3025   7.015   8.107   1.427  0.5360 -1.8939 -0.5921
    8CHTO  C101 3026   7.199   8.220   1.442 -0.2161  0.4419  0.3065
    8CHTO  H188 3027   7.299   8.228   1.402 -0.3456 -0.7132 -0.2472
    8CHTO   O68 3028   7.205   8.150   1.603 -0.0173  0.0675 -0.1793
    8CHTO  H168 3029   7.133   8.185   1.651 -0.4956 -1.6263  0.4052
    8CHTO   C99 3030   7.146   8.370   1.459  0.0656  0.4147 -0.0665
    8CHTO  H186 3031   7.047   8.369   1.508 -0.6485 -0.0098 -1.5058
    8CHTO   N17 3032   7.239   8.462   1.529  0.4410 -0.3204 -0.1321
    8CHTO  H174 3033   7.341   8.434   1.509  1.2915  1.2634  1.8186
    8CHTO  H175 3034   7.222   8.446   1.635 -1.5468 -0.7335 -0.4877
    8CHTO   C97 3035   7.112   8.424   1.317  0.6590 -0.7388 -0.4589
    8CHTO  H184 3036   7.206   8.438   1.262  0.1621  1.3338 -0.8172
    8CHTO   O64 3037   7.018   8.343   1.249  0.0092 -0.5584  0.2086
    8CHTO  C104 3038   7.061   8.202   1.232 -0.5164 -0.3322 -0.0484
    8CHTO  H191 3039   7.141   8.190   1.159  0.6732  2.1946  0.7555
    8CHTO  C108 3040   6.943   8.125   1.175  0.0403 -0.7501 -0.2292
    8CHTO   O71 3041   6.899   8.150   1.041  0.0437  0.7247 -0.3373
    8CHTO  H171 3042   6.965   8.142   0.975  1.2008 -1.5440  1.0270
    8CHTO   O62 3043   7.035   8.551   1.313 -0.2144 -0.4477 -0.1938
    8CHTO   C91 3044   7.083   8.651   1.219  0.0092  0.4196  0.3791
    8CHTO  H178 3045   7.182   8.627   1.180 -0.4691 -2.3339  0.7058
    8CHTO   C92 3046   7.104   8.782   1.303 -0.0218  0.0551 -0.1676
    8CHTO  H179 3047   7.010   8.810   1.354  1.9268  0.8998  3.1445
    8CHTO   O66 3048   7.205   8.765   1.400 -0.4802 -0.3363  0.5916
    8CHTO  H166 3049   7.286   8.740   1.359  0.2093  1.8786  0.5404
    8CHTO   C93 3050   7.138   8.906   1.208  0.0201 -0.1547 -0.0678
    8CHTO  H180 3051   7.238   8.891   1.165 -0.1874 -1.0663 -0.2426
    8CHTO   N16 3052   7.149   9.028   1.291 -0.0805 -0.2097  0.1036
    8CHTO  H172 3053   7.246   9.036   1.339  0.0605  2.2687 -0.5223
    8CHTO  H173 3054   7.127   9.114   1.231  2.5396  0.5360  0.1254
    8CHTO   C94 3055   7.030   8.919   1.098  0.5230  0.5474 -0.4355
    8CHTO  H181 3056   6.931   8.942   1.139  1.0195  0.6158  0.7238
    8CHTO   O61 3057   7.022   8.802   1.023 -0.5931  0.4136 -0.1343
    8CHTO   C95 3058   6.988   8.680   1.097  0.1758  0.9569  0.2199
    8CHTO  H182 3059   6.885   8.684   1.132  0.4254  0.9594  0.9742
    8CHTO  C106 3060   7.002   8.568   0.982  0.9685 -0.0931 -0.3863
    8CHTO   O69 3061   6.915   8.585   0.870  0.5705 -0.1987 -0.2456
    8CHTO  H169 3062   6.868   8.508   0.845 -0.1600  0.1945 -0.0896
    8CHTO   O63 3063   7.069   9.037   0.991  0.1386 -0.4391  0.5218
    8CHTO   C96 3064   6.974   9.051   0.867  0.0896  0.3915  0.3567
    8CHTO  H183 3065   6.883   8.998   0.895 -0.0572  0.5050  0.0945
    8CHTO   C98 3066   7.010   8.987   0.730 -0.9138 -0.2184 -0.2868
    8CHTO  H185 3067   7.117   9.003   0.710 -0.7858 -0.5387  0.1303
    8CHTO   O67 3068   7.004   8.846   0.753 -0.0887 -0.1027 -0.0995
    8CHTO  H167 3069   7.021   8.796   0.676 -1.9143 -3.5205  1.6143
    8CHTO  C102 3070   6.925   9.026   0.611 -0.1929  0.3013  0.0100
    8CHTO  H189 3071   6.829   8.975   0.625 -0.5391  0.2473 -2.3345
    8CHTO   N18 3072   6.972   8.984   0.477  0.1972  0.5180  0.4974
    8CHTO  H176 3073   7.071   9.005   0.439 -0.0951  1.4085  0.1951
    8CHTO  H177 3074   6.949   8.880   0.460  0.9326 -0.1877  3.4746
    8CHTO  C105 3075   6.896   9.181   0.601  0.5427  0.6678  0.1629
    8CHTO  H192 3076   6.982   9.236   0.563  1.5918 -1.5806 -0.8199
    8CHTO   O65 3077   6.862   9.239   0.732  0.0682  0.3759  0.0151
    8CHTO  C100 3078   6.949   9.204   0.841 -0.3982  0.0648  0.2324
    8CHTO  H187 3079   7.052   9.235   0.819 -0.8057  1.3943  0.1182
    8CHTO  C107 3080   6.904   9.298   0.961  0.1790 -0.2522 -0.0086
    8CHTO   O70 3081   6.769   9.296   1.008  0.2383  0.0616 -1.0100
    8CHTO  H170 3082   6.733   9.211   0.989 -0.6642  0.5243 -1.4163
    8CHTO   O57 3083   6.757   9.188   0.507 -0.0949  0.3695 -0.5612
    8CHTO   C85 3084   6.723   9.309   0.437 -0.2456  0.3210  0.8750
    8CHTO  H157 3085   6.809   9.333   0.371 -1.8500  0.7940 -1.1336
    8CHTO   C83 3086   6.704   9.424   0.541  0.1969 -0.2557  0.1995
    8CHTO  H155 3087   6.802   9.430   0.590  0.9941 -3.1418 -0.9057
    8CHTO   O56 3088   6.606   9.387   0.638 -0.5321 -0.3785  0.5148
    8CHTO  H135 3089   6.633   9.405   0.726  2.4027 -0.8008 -0.2651
    8CHTO   C81 3090   6.672   9.557   0.465  0.0723 -0.3802 -0.0119
    8CHTO  H153 3091   6.757   9.579   0.400  0.7545 -0.4754  0.8350
    8CHTO   N14 3092   6.673   9.676   0.553 -0.3087 -0.2942 -0.5540
    8CHTO  H141 3093   6.745   9.754   0.538  0.6453 -0.7208  1.6224
    8CHTO  H142 3094   6.573   9.708   0.574 -0.9635 -1.9477 -1.1037
    8CHTO   C79 3095   6.542   9.543   0.377  0.0245 -0.0998 -0.4410
    8CHTO  H151 3096   6.529   9.635   0.320  0.1759  0.6962  0.7729
    8CHTO   O52 3097   6.555   9.430   0.283 -0.5908 -0.5144 -0.1840
    8CHTO   C86 3098   6.587   9.300   0.349 -0.2036 -0.0912 -0.3607
    8CHTO  H158 3099   6.506   9.276   0.421  0.7294  2.5938  1.6850
    8CHTO   C90 3100   6.594   9.191   0.243 -0.4728 -0.2962  0.1813
    8CHTO   O60 3101   6.651   9.063   0.273 -0.1353 -0.3584 -0.4452
    8CHTO  H138 3102   6.639   9.001   0.204  1.1208 -1.3415  0.2048
    8CHTO   O50 3103   6.423   9.530   0.461 -0.3888 -0.1538  0.3889
    8CHTO   C73 3104   6.286   9.567   0.448 -0.0627 -0.4855  0.3367
    8CHTO  H145 3105   6.254   9.541   0.346  0.4758  0.8383 -0.1738
    8CHTO   C74 3106   6.262   9.723   0.469  0.1102  0.0468  0.7018
    8CHTO  H146 3107   6.327   9.779   0.401 -0.0613  0.4315  0.8572
    8CHTO   O54 3108   6.134   9.749   0.413 -0.0819  0.1720  0.6917
    8CHTO  H133 3109   6.068   9.737   0.478 -1.4293 -0.5829 -0.7772
    8CHTO   C75 3110   6.289   9.766   0.618  0.5231 -0.3428 -0.0124
    8CHTO  H147 3111   6.397   9.756   0.637  0.6394 -0.6294 -0.7983
    8CHTO   N13 3112   6.259   9.913   0.633 -0.6795 -0.3973 -0.3323
    8CHTO  H139 3113   6.158   9.938   0.664  0.0928  3.0015 -0.4046
    8CHTO  H140 3114   6.319   9.938   0.719 -1.3004  1.1006 -0.3185
    8CHTO   C76 3115   6.203   9.678   0.719  0.5174 -0.7995  0.1044
    8CHTO  H148 3116   6.098   9.705   0.703  0.6249  0.9246  2.0643
    8CHTO   O49 3117   6.218   9.541   0.685  0.2237  0.5591 -0.5910
    8CHTO   C77 3118   6.201   9.487   0.553 -0.1396  0.2655 -0.2125
    8CHTO  H149 3119   6.096   9.497   0.525 -0.7048  1.3379  2.1769
    8CHTO   C88 3120   6.235   9.335   0.575 -0.1057  0.1094  0.4465
    8CHTO   O58 3121   6.219   9.253   0.445  0.1763 -0.1240  0.3781
    8CHTO  H136 3122   6.229   9.161   0.462 -1.3971 -0.6637 -1.4744
    8CHTO   O51 3123   6.241   9.705   0.858 -0.0432 -0.6581 -0.0497
    8CHTO   C78 3124   6.190   9.601   0.965  0.1152  0.4137  0.0208
    8CHTO  H150 3125   6.130   9.521   0.917 -0.9308  0.0325  1.8930
    8CHTO   C80 3126   6.103   9.676   1.064 -0.5647  0.5579 -0.6960
    8CHTO  H152 3127   6.163   9.757   1.111 -1.2633 -0.4683  2.0548
    8CHTO   O55 3128   5.990   9.738   0.997  0.2234 -0.2608  0.0991
    8CHTO  H134 3129   6.032   9.799   0.940 -1.5500  1.1568  0.3000
    8CHTO   C84 3130   6.071   9.581   1.182  1.0906  0.2124  0.0406
    8CHTO  H156 3131   5.996   9.513   1.143  0.0685  0.3756  1.6850
    8CHTO   N15 3132   5.992   9.654   1.292  0.5337 -0.0639  0.1025
    8CHTO  H143 3133   5.989   9.761   1.299 -0.0083  0.0895 -2.0375
    8CHTO  H144 3134   5.899   9.609   1.319  0.2720  0.1537 -0.4210
    8CHTO   C87 3135   6.189   9.507   1.234  0.2762  0.0505 -0.1402
    8CHTO  H159 3136   6.250   9.570   1.298  0.5651 -2.1264  1.8043
    8CHTO   O53 3137   6.269   9.453   1.133 -0.1221  0.3269  0.1894
    8CHTO   C82 3138   6.320   9.540   1.031 -0.3295  0.5446 -0.2786
    8CHTO  H154 3139   6.383   9.623   1.063  1.5059 -0.1543 -1.9768
    8CHTO   C89 3140   6.406   9.449   0.936 -0.5069 -0.2392  0.3400
    8CHTO   O59 3141   6.492   9.529   0.850 -0.2819  0.2934  0.1700
    8CHTO  H137 3142   6.530   9.476   0.783  0.0444  1.2716 -0.4342
    8CHTO   O45 3143   6.135   9.393   1.353  0.3486  0.6671  0.7257
    8CHTO   C67 3144   6.239   9.299   1.394  0.2131  0.1352  0.7898
    8CHTO  H124 3145   6.280   9.270   1.297 -1.9160 -0.8850  0.1707
    8CHTO   C65 3146   6.359   9.352   1.483  0.2307  0.3040  0.0457
    8CHTO  H122 3147   6.317   9.440   1.530  0.1820  1.9621 -2.9988
    8CHTO   O44 3148   6.460   9.408   1.393  0.1346  0.3359 -0.1953
    8CHTO  H102 3149   6.445   9.500   1.387  0.1856  0.3396 -0.2658
    8CHTO   C63 3150   6.404   9.257   1.596  0.1334  0.3606 -0.0447
    8CHTO  H120 3151   6.324   9.263   1.669 -1.4038  0.7287 -1.7176
    8CHTO   N11 3152   6.524   9.290   1.675 -0.3380  0.4022  0.0811
    8CHTO  H108 3153   6.614   9.252   1.632 -0.8116 -2.7232  1.6715
    8CHTO  H109 3154   6.522   9.254   1.776  0.5875 -0.4209 -0.1879
    8CHTO   C61 3155   6.393   9.107   1.550  0.0837  0.0529  0.3532
    8CHTO  H118 3156   6.387   9.048   1.643 -2.9051 -1.9058 -1.0295
    8CHTO   O40 3157   6.275   9.073   1.475 -0.7496  0.3049 -0.7510
    8CHTO   C68 3158   6.170   9.173   1.451 -0.3855  0.9715 -0.2805
    8CHTO  H125 3159   6.118   9.193   1.548 -1.7964  1.6577 -1.1644
    8CHTO   C72 3160   6.065   9.110   1.360 -0.0958  0.0645 -0.3711
    8CHTO   O48 3161   6.101   9.099   1.224  0.0099 -0.0653  0.2053
    8CHTO  H105 3162   6.135   9.015   1.197  0.4439  0.1484  0.0797
    8CHTO   O38 3163   6.518   9.073   1.488  0.2926 -0.3236 -0.0685
    8CHTO   C55 3164   6.536   8.936   1.449  0.1187 -0.2775 -0.3190
    8CHTO  H112 3165   6.448   8.870   1.451 -1.7972  2.2146  0.5372
    8CHTO   C56 3166   6.648   8.876   1.533 -0.1438 -0.0974 -0.1047
    8CHTO  H113 3167   6.732   8.947   1.525  0.4268 -0.5702  1.5130
    8CHTO   O42 3168   6.596   8.893   1.659 -0.0876 -0.1918  0.1260
    8CHTO  H100 3169   6.658   8.865   1.724 -0.7033  0.7410  1.1310
    8CHTO   C57 3170   6.695   8.727   1.497  0.5886 -0.0391  0.2635
    8CHTO  H114 3171   6.626   8.649   1.526  0.1621 -1.1782 -3.5237
    8CHTO   N10 3172   6.818   8.684   1.564 -0.3462  0.4989 -0.3470
    8CHTO  H106 3173   6.840   8.746   1.649  1.1430  1.1433 -1.1925
    8CHTO  H107 3174   6.906   8.681   1.501  0.3682  0.9092  0.6236
    8CHTO   C58 3175   6.709   8.717   1.343  0.1629  1.2300  0.1456
    8CHTO  H115 3176   6.808   8.756   1.311  0.5050  0.8209  0.6888
    8CHTO   O37 3177   6.602   8.780   1.272  0.3582 -0.5820  0.0706
    8CHTO   C59 3178   6.576   8.917   1.303  0.8542 -0.4837  0.2095
    8CHTO  H116 3179   6.651   8.991   1.272  0.3088  0.2190  0.5527
    8CHTO   C70 3180   6.469   8.965   1.211  0.2324  0.2762  0.3785
    8CHTO   O46 3181   6.359   8.867   1.210 -0.5949  0.6410  0.1390
    8CHTO  H103 3182   6.306   8.868   1.288 -1.1866  2.1308 -0.2769
    8CHTO   O39 3183   6.707   8.561   1.292 -0.7997 -0.1554 -0.6920
    8CHTO   C60 3184   6.591   8.511   1.231  0.1375 -0.2987 -0.2324
    8CHTO  H117 3185   6.505   8.553   1.283  0.0696  1.2772 -1.5918
    8CHTO   C62 3186   6.580   8.546   1.083  0.2722 -0.1785  0.1945
    8CHTO  H119 3187   6.595   8.656   1.080 -0.6576 -0.0558 -0.1225
    8CHTO   O43 3188   6.684   8.489   1.009  0.2977 -0.1602 -0.4053
    8CHTO  H101 3189   6.761   8.470   1.058 -0.0121  0.4647  0.3285
    8CHTO   C66 3190   6.434   8.506   1.036  0.1667 -0.9608 -0.0765
    8CHTO  H123 3191   6.366   8.577   1.082 -1.7274 -2.5804 -0.2879
    8CHTO   N12 3192   6.411   8.535   0.896 -0.0766  0.1816 -1.1689
    8CHTO  H110 3193   6.451   8.449   0.845  1.5724 -1.2133  2.3095
    8CHTO  H111 3194   6.476   8.620   0.880  1.4727 -0.8651 -0.6037
    8CHTO   C69 3195   6.394   8.367   1.081  0.0153  0.7445 -0.4662
    8CHTO  H126 3196   6.412   8.295   0.998 -0.7498 -1.0723  0.9269
    8CHTO   O41 3197   6.461   8.308   1.208  0.2542  0.2547 -0.0780
    8CHTO   C64 3198   6.584   8.357   1.247 -0.4356  0.2606 -0.2275
    8CHTO  H121 3199   6.667   8.302   1.198 -0.0948  0.7243 -0.1741
    8CHTO   C71 3200   6.592   8.313   1.393 -0.2022 -0.6095 -0.7744
    8CHTO   O47 3201   6.504   8.387   1.476  0.6551 -0.2261  0.2115
    8CHTO  H104 3202   6.521   8.352   1.562  1.6356  2.8647  1.3452
    8CHTO   O34 3203   6.226   8.378   1.111 -0.0237  0.6449  0.3156
    8CHTO   C49 3204   6.155   8.416   1.232 -0.3111  0.3193  0.7311
    8CHTO   H91 3205   6.227   8.391   1.310  0.5436 -0.0207 -0.1674
    8CHTO   C47 3206   6.021   8.336   1.248 -0.0037 -0.2919 -0.1528
    8CHTO   H89 3207   5.983   8.351   1.351 -1.4661 -0.0335 -0.7204
    8CHTO   O33 3208   6.051   8.199   1.224 -0.0331  0.0282  0.1808
    8CHTO   H70 3209   5.976   8.151   1.194  1.7655 -2.0517 -1.1542
    8CHTO   C45 3210   5.921   8.388   1.138  0.3265 -0.0129 -0.0300
    8CHTO   H87 3211   5.978   8.384   1.044  2.8785 -0.0331  1.4832
    8CHTO    N8 3212   5.803   8.301   1.123 -0.1019 -0.2773  0.6418
    8CHTO   H75 3213   5.834   8.200   1.100  0.9797 -0.3460  2.3629
    8CHTO   H76 3214   5.772   8.294   1.226  0.8891  0.3237  0.9835
    8CHTO   C43 3215   5.896   8.540   1.172 -0.0671  0.4685  0.5836
    8CHTO   H85 3216   5.826   8.578   1.097 -0.7899  0.1296  1.0839
    8CHTO   O29 3217   6.017   8.613   1.169 -0.0080  0.9233  0.2901
    8CHTO   C50 3218   6.129   8.568   1.247  0.1002 -0.6146 -0.0532
    8CHTO   H92 3219   6.216   8.629   1.216  0.0577 -1.5667 -2.1386
    8CHTO   C54 3220   6.121   8.605   1.398 -0.0075  0.3924 -0.2212
    8CHTO   O36 3221   6.137   8.745   1.402  0.0906 -0.1225  0.2873
    8CHTO   H72 3222   6.054   8.787   1.414  0.7840  0.7322  2.4585
    8CHTO   O27 3223   5.828   8.554   1.300 -0.1807 -0.0071  0.1932
    8CHTO   C37 3224   5.730   8.633   1.371  0.2813  0.3374 -0.1524
    8CHTO   H79 3225   5.672   8.563   1.433 -1.0156 -0.6500 -2.4203
    8CHTO   C38 3226   5.807   8.740   1.458  0.6602 -0.2907  0.5931
    8CHTO   H80 3227   5.888   8.777   1.394 -2.2486  0.7963 -2.6249
    8CHTO   O31 3228   5.866   8.673   1.572  0.1391  0.1822 -0.2459
    8CHTO   H68 3229   5.935   8.615   1.546 -0.2387 -0.1081 -0.6006
    8CHTO   C39 3230   5.719   8.866   1.498 -0.3770  1.0538 -0.7730
    8CHTO   H81 3231   5.645   8.832   1.570 -0.6396 -1.6568 -2.2420
    8CHTO    N7 3232   5.800   8.969   1.570 -0.4109 -0.7238  0.4007
    8CHTO   H73 3233   5.764   8.987   1.670  0.4711  1.1300  0.4128
    8CHTO   H74 3234   5.810   9.064   1.518  2.2356 -1.1439  0.0408
    8CHTO   C40 3235   5.640   8.917   1.376 -0.0230  0.2945  0.4283
    8CHTO   H82 3236   5.703   8.965   1.300 -0.7941  1.4901  0.5302
    8CHTO   O26 3237   5.559   8.808   1.328  0.3563  0.1772  0.2612
    8CHTO   C41 3238   5.638   8.696   1.270  0.0360  0.4980 -1.2910
    8CHTO   H83 3239   5.697   8.739   1.188 -1.0391  0.0939 -2.2961
    8CHTO   C52 3240   5.537   8.596   1.202 -0.5029  0.7553 -0.4103
    8CHTO   O35 3241   5.441   8.655   1.093 -0.9455 -0.0451 -0.0853
    8CHTO   H71 3242   5.404   8.738   1.111 -0.8913  0.2148 -1.1092
    8CHTO   O28 3243   5.553   9.030   1.407 -0.4278  0.2279 -0.0810
    8CHTO   C42 3244   5.489   9.106   1.297 -0.4638 -0.0480 -0.0231
    8CHTO   H84 3245   5.415   9.169   1.346 -1.8469  0.3335 -2.4866
    8CHTO   C44 3246   5.413   9.032   1.181  0.2263 -0.1147 -0.0414
    8CHTO   H86 3247   5.478   8.959   1.132  0.9993 -0.8236  2.0028
    8CHTO   O32 3248   5.305   8.957   1.243  0.2436 -0.0023 -0.2923
    8CHTO   H69 3249   5.235   8.923   1.191  0.4399 -2.4050  0.9469
    8CHTO   C48 3250   5.365   9.117   1.057  0.9064  0.0648 -0.6209
    8CHTO   H90 3251   5.277   9.174   1.086  1.5277  1.5409 -1.5658
    8CHTO    N9 3252   5.323   9.036   0.941  0.5350 -0.1240 -0.1035
    8CHTO   H77 3253   5.238   8.976   0.968 -1.6691  2.8381 -0.1976
    8CHTO   H78 3254   5.407   8.971   0.923 -0.8256 -1.5966 -1.2773
    8CHTO   C51 3255   5.477   9.217   1.023  0.0175 -0.2520 -0.5347
    8CHTO   H93 3256   5.559   9.165   0.973  0.9741  0.6703  0.0383
    8CHTO   O30 3257   5.522   9.285   1.137  0.4780  0.0599 -0.2439
    8CHTO   C46 3258   5.596   9.197   1.229 -0.5051 -0.0825  0.2341
    8CHTO   H88 3259   5.665   9.136   1.171  2.1990  1.3492  1.8535
    8CHTO   C53 3260   5.673   9.280   1.336  0.1786 -0.1212 -0.0815
    8CHTO   O72 3261   5.779   9.354   1.277  0.3504 -0.0028  0.7769
    8CHTO  H199 3262   5.822   9.398   1.347 -1.7668  2.3911  0.6500
    8CHTO   O22 3263   5.418   9.323   0.950  0.2816 -0.2326  0.5507
    8CHTO   C31 3264   5.477   9.415   0.845 -0.1580  0.4755 -0.9983
    8CHTO   H59 3265   5.436   9.516   0.867 -0.5303  0.0884  0.1099
    8CHTO   C29 3266   5.631   9.427   0.848  0.5676 -0.1733  0.0777
    8CHTO   H57 3267   5.660   9.321   0.844  1.9219  0.2132 -0.7483
    8CHTO   O21 3268   5.682   9.486   0.971  0.0910  0.0813  0.4166
    8CHTO   H37 3269   5.774   9.471   0.971  0.1164  0.2575  1.0160
    8CHTO   C27 3270   5.696   9.496   0.722  0.1633  0.1389 -0.0979
    8CHTO   H55 3271   5.662   9.601   0.724  0.8445  0.3535  0.3272
    8CHTO    N5 3272   5.842   9.494   0.703 -0.2865 -0.1520 -0.3374
    8CHTO   H43 3273   5.877   9.398   0.739 -0.7014 -0.1486  0.0733
    8CHTO   H44 3274   5.858   9.515   0.599 -0.2231  0.0275 -0.2924
    8CHTO   C25 3275   5.629   9.431   0.597 -0.0518 -0.4324  0.1466
    8CHTO   H53 3276   5.641   9.322   0.602 -0.5071 -0.5451 -0.9654
    8CHTO   O17 3277   5.486   9.444   0.600 -0.1967  0.4463  0.7593
    8CHTO   C32 3278   5.421   9.370   0.703  0.3186 -0.2983 -0.3965
    8CHTO   H60 3279   5.429   9.261   0.698  0.3058 -0.2318 -2.2456
    8CHTO   C36 3280   5.267   9.390   0.676 -0.0202  0.0993 -0.4311
    8CHTO   O25 3281   5.189   9.306   0.764 -0.5365  0.3367 -0.4295
    8CHTO   H40 3282   5.174   9.347   0.847  0.8342 -0.6400  0.3243
    8CHTO   O15 3283   5.697   9.490   0.453 -0.1008  0.3975  0.4322
    8CHTO   C19 3284   5.774   9.480   0.339 -0.3982  0.3972 -1.2132
    8CHTO   H47 3285   5.700   9.445   0.266 -1.3058 -1.2426  0.4461
    8CHTO   C20 3286   5.840   9.605   0.295  0.2864 -0.1872 -0.2560
    8CHTO   H48 3287   5.920   9.637   0.364 -0.5742  0.4420  0.4518
    8CHTO   O19 3288   5.735   9.702   0.291 -0.6770  0.0468  0.4428
    8CHTO   H35 3289   5.691   9.698   0.374  3.1156 -1.2155  2.4993
    8CHTO   C21 3290   5.910   9.587   0.150 -0.1136  1.1778 -0.0544
    8CHTO   H49 3291   5.833   9.570   0.075  1.8546 -0.7634 -1.6855
    8CHTO    N4 3292   5.983   9.712   0.105  0.1786 -0.2343 -0.4120
    8CHTO   H41 3293   5.958   9.803   0.158 -0.2374  0.0243 -1.0497
    8CHTO   H42 3294   6.089   9.695   0.116 -0.0771 -0.5275  2.0485
    8CHTO   C22 3295   6.002   9.454   0.147 -0.0647  0.1155  0.0571
    8CHTO   H50 3296   6.100   9.465   0.193  0.6473 -1.2205 -1.0951
    8CHTO   O14 3297   5.937   9.344   0.207  0.6073  0.3239 -0.0644
    8CHTO   C23 3298   5.884   9.370   0.343  0.3808  0.3524  0.2755
    8CHTO   H51 3299   5.967   9.400   0.408 -0.7293  0.1393  1.8228
    8CHTO   C34 3300   5.837   9.226   0.389 -0.2803  0.4239  0.5220
    8CHTO   O23 3301   5.947   9.139   0.412 -0.1320  0.0625 -0.0578
    8CHTO   H38 3302   6.016   9.173   0.358  0.2818  0.4019  0.6789
    8CHTO   O16 3303   6.019   9.412   0.009  0.6516  0.2479  0.2158
    8CHTO   C24 3304   6.145   9.300  -0.004 -0.0738 -0.1841  0.3562
    8CHTO   H52 3305   6.178   9.267   0.094  0.5259 -2.3581 -0.5576
    8CHTO   C26 3306   6.262   9.380  -0.067 -0.0769 -0.1530 -0.1886
    8CHTO   H54 3307   6.233   9.420  -0.166 -0.0227  0.3212 -0.0135
    8CHTO   O20 3308   6.298   9.488   0.027  0.1878 -0.5800 -0.4813
    8CHTO   H36 3309   6.388   9.513   0.012  0.2078 -0.3491  0.0209
    8CHTO   C30 3310   6.383   9.288  -0.080 -0.5060  0.2702  0.2529
    8CHTO   H58 3311   6.409   9.258   0.022 -1.5524 -1.0070  0.1709
    8CHTO    N6 3312   6.505   9.354  -0.136 -0.0565 -0.3372 -0.2175
    8CHTO   H45 3313   6.531   9.450  -0.093 -2.7690 -0.4814  1.8964
    8CHTO   H46 3314   6.596   9.295  -0.143  0.0890 -0.1908  0.4296
    8CHTO   C33 3315   6.332   9.165  -0.159 -0.5702  0.5112 -0.0831
    8CHTO   H61 3316   6.316   9.191  -0.264 -0.5172 -3.2191 -1.1012
    8CHTO   O18 3317   6.213   9.101  -0.107  0.0353 -0.0365  0.2039
    8CHTO   C28 3318   6.103   9.186  -0.081 -0.3946  0.3670 -0.2727
    8CHTO   H56 3319   6.064   9.222  -0.177  1.1013  1.8225 -0.3499
    8CHTO   C35 3320   5.993   9.102  -0.008 -0.5278 -0.7113 -0.1347
    8CHTO   O24 3321   6.032   9.059   0.121 -0.5478 -0.6352 -1.0821
    8CHTO   H39 3322   5.954   9.034   0.166  0.2359  0.2704  0.8197
    8CHTO    O9 3323   6.446   9.071  -0.162  0.5000 -0.0684 -0.2769
    8CHTO   C13 3324   6.401   8.912  -0.210 -0.4390 -0.4586 -0.2866
    8CHTO   H26 3325   6.308   8.924  -0.268 -2.1325  0.9198  2.6042
    8CHTO   C11 3326   6.385   8.831  -0.076 -0.3622 -0.2138  0.4306
    8CHTO   H24 3327   6.305   8.880  -0.019  1.1055  2.2516  0.4451
    8CHTO    O8 3328   6.508   8.848  -0.004  0.1313  0.5371  0.9066
    8CHTO    H3 3329   6.589   8.842  -0.051 -0.3551  0.5879  0.0398
    8CHTO    C9 3330   6.355   8.684  -0.107 -0.7593 -0.1494  0.0509
    8CHTO   H22 3331   6.274   8.686  -0.182 -2.6846  0.9296  2.0874
    8CHTO    N2 3332   6.297   8.601   0.004  0.5377  0.4906  0.7792
    8CHTO   H10 3333   6.200   8.558  -0.019  0.7731  0.3604  0.0170
    8CHTO   H11 3334   6.287   8.646   0.102  0.0668 -1.4451  1.6539
    8CHTO    C7 3335   6.483   8.621  -0.178  0.5147  0.0759 -0.2201
    8CHTO   H20 3336   6.446   8.537  -0.241 -0.3896  0.9330 -0.8363
    8CHTO    O4 3337   6.551   8.717  -0.258  0.4013 -0.2663  0.0683
    8CHTO   C14 3338   6.500   8.843  -0.305 -0.2085 -0.1788  0.3902
    8CHTO   H27 3339   6.442   8.826  -0.398 -0.7755 -0.4526  0.7954
    8CHTO   C18 3340   6.619   8.925  -0.354  0.1243  0.3426 -0.7694
    8CHTO   O13 3341   6.613   9.063  -0.387 -0.6027 -0.3595  0.0371
    8CHTO    H7 3342   6.639   9.104  -0.307  0.6476  0.2432 -0.6466
    8CHTO    O2 3343   6.597   8.551  -0.060 -0.3534  0.0611 -0.0632
    8CHTO    C1 3344   6.662   8.432  -0.093  0.0198  0.1213 -0.0343
    8CHTO   H14 3345   6.752   8.418  -0.028 -0.8864  0.0780  1.2409
    8CHTO    C2 3346   6.715   8.424  -0.251  0.4815 -0.2969  0.1147
    8CHTO   H15 3347   6.627   8.447  -0.312  0.3734  0.1531  0.4371
    8CHTO    O6 3348   6.806   8.528  -0.287 -0.4083  0.2409 -0.0838
    8CHTO    H1 3349   6.794   8.546  -0.378 -1.2697 -1.1631 -0.2531
    8CHTO    C3 3350   6.780   8.279  -0.290 -0.2600 -0.2688 -0.2030
    8CHTO   H16 3351   6.876   8.278  -0.237 -0.2050 -2.3358 -0.3070
    8CHTO    N1 3352   6.794   8.251  -0.440  0.2097  0.2686 -0.4294
    8CHTO    H8 3353   6.709   8.192  -0.468  0.7136 -1.2286  1.1581
    8CHTO    H9 3354   6.882   8.189  -0.454  0.5813  0.4355  1.0825
    8CHTO    C4 3355   6.692   8.158  -0.222  0.1076 -0.1105  0.5077
    8CHTO   H17 3356   6.595   8.153  -0.271 -0.6867  0.2106  2.0152
    8CHTO    O1 3357   6.670   8.184  -0.082 -0.3153  0.0558  0.1181
    8CHTO    C5 3358   6.582   8.297  -0.062 -0.2687 -0.4794 -0.6425
    8CHTO   H18 3359   6.511   8.283  -0.143  1.9026  1.5608 -2.9878
    8CHTO   C16 3360   6.506   8.295   0.077 -0.1337  0.1883  0.2893
    8CHTO   O11 3361   6.608   8.293   0.174  0.0464 -0.4262  0.0446
    8CHTO    H5 3362   6.574   8.334   0.252 -3.6919 -1.7673 -0.7540
    8CHTO    O3 3363   6.770   8.040  -0.232 -0.2367 -0.5947 -0.0861
    8CHTO    C6 3364   6.704   7.913  -0.228  0.3360  0.3557 -0.1766
    8CHTO   H19 3365   6.600   7.923  -0.195  0.0617  1.2158 -1.2642
    8CHTO    C8 3366   6.705   7.841  -0.369  0.0495 -0.0252 -0.1334
    8CHTO   H21 3367   6.806   7.831  -0.409 -0.6852 -0.7314 -1.8422
    8CHTO    O7 3368   6.619   7.921  -0.456  0.0930 -0.4291  0.0380
    8CHTO    H2 3369   6.609   7.887  -0.542 -1.3989  2.8033 -1.1579
    8CHTO   C12 3370   6.642   7.693  -0.356 -0.3040  0.1106  0.5027
    8CHTO   H25 3371   6.534   7.689  -0.332 -0.3247 -0.9989  0.2381
    8CHTO    N3 3372   6.656   7.624  -0.488  0.4603  0.3600 -0.1017
    8CHTO   H12 3373   6.598   7.673  -0.564  0.0393  1.6455  1.0456
    8CHTO   H13 3374   6.756   7.615  -0.529  0.8396  2.6144  0.2823
    8CHTO   C15 3375   6.713   7.621  -0.240 -0.0977 -0.3004  0.1269
    8CHTO   H28 3376   6.816   7.596  -0.263 -1.0447 -2.2886 -2.1350
    8CHTO   O10 3377   6.623   7.496  -0.204 -0.0664 -0.4326 -0.2869
    8CHTO    H4 3378   6.673   7.419  -0.183  2.6384  1.1379 -0.7736
    8CHTO    O5 3379   6.704   7.695  -0.117 -0.3251 -0.5531  0.0469
    8CHTO   C10 3380   6.768   7.824  -0.122 -0.1836 -0.3435  0.4140
    8CHTO   H23 3381   6.872   7.829  -0.155 -0.2149 -1.9386  0.0272
    8CHTO   C17 3382   6.758   7.883   0.022 -0.7040 -0.3948  0.1531
    8CHTO   O12 3383   6.865   7.981   0.032  0.0445 -0.3644 -0.4673
    8CHTO    H6 3384   6.854   8.030   0.111 -0.7667  0.4260 -1.0630
    9CHTO  H203 3385   7.507   3.433   0.593 -0.8856 -4.0748  3.1026
    9CHTO   O82 3386   7.540   3.384   0.520  0.3757  0.4012  0.4904
    9CHTO  C123 3387   7.662   3.427   0.460 -0.2860 -0.0481  0.5160
    9CHTO  H227 3388   7.734   3.452   0.540  0.2827  0.7941 -0.2583
    9CHTO   O77 3389   7.706   3.307   0.388  0.0610  0.0618 -0.0785
    9CHTO  C118 3390   7.837   3.305   0.330 -0.2678 -0.3152 -0.2203
    9CHTO  H222 3391   7.905   3.330   0.412 -4.3243  1.4107  2.7553
    9CHTO  C125 3392   7.862   3.163   0.272  0.3743  0.0832  0.3733
    9CHTO   O84 3393   7.764   3.097   0.190  0.1854  0.4467 -0.1710
    9CHTO  H205 3394   7.687   3.061   0.231  0.4512  1.1890  1.0125
    9CHTO  C114 3395   7.836   3.415   0.222 -0.2400  0.1307  0.5403
    9CHTO  H218 3396   7.765   3.387   0.145  1.8328  0.8056 -1.6725
    9CHTO  C116 3397   7.790   3.559   0.280  0.3198 -0.2446 -0.3584
    9CHTO  H220 3398   7.866   3.593   0.353 -2.8750  2.0058  2.0908
    9CHTO   O79 3399   7.787   3.658   0.167 -0.0502  0.7433  0.1238
    9CHTO  H201 3400   7.784   3.747   0.198 -1.5722  1.5199 -2.0971
    9CHTO  C120 3401   7.655   3.551   0.358 -0.3735  0.1480  0.3197
    9CHTO  H224 3402   7.579   3.522   0.282 -1.1219 -0.9757  1.4845
    9CHTO   N21 3403   7.611   3.671   0.428  0.2375 -0.6373  0.5304
    9CHTO  H211 3404   7.662   3.699   0.518 -1.4578  3.1834  0.3696
    9CHTO  H212 3405   7.634   3.738   0.346  1.9744 -3.4674 -1.4404
    9CHTO   O75 3406   7.971   3.406   0.180  0.0162  0.1757 -0.4133
    9CHTO  C112 3407   7.980   3.393   0.002 -0.2381 -0.0792  0.4696
    9CHTO  H216 3408   7.920   3.466  -0.054 -0.5864 -2.5592 -2.5880
    9CHTO   O73 3409   7.931   3.258  -0.034 -0.0007 -0.3384 -0.5325
    9CHTO  C113 3410   7.925   3.234  -0.181  0.1210  0.5546 -0.5992
    9CHTO  H217 3411   7.851   3.299  -0.233 -2.0803 -1.6199 -0.3124
    9CHTO  C124 3412   7.861   3.098  -0.204  0.0931  0.2524  0.4967
    9CHTO   O83 3413   7.802   3.089  -0.331 -0.7874 -0.4486  0.4420
    9CHTO  H204 3414   7.759   3.005  -0.329  1.5150 -1.6904 -0.3748
    9CHTO  C109 3415   8.064   3.247  -0.245  0.1784 -0.4175 -0.3981
    9CHTO  H213 3416   8.123   3.162  -0.207  0.3723 -0.6426 -1.1913
    9CHTO  C110 3417   8.124   3.382  -0.205  0.2032  0.0394 -0.0444
    9CHTO  H214 3418   8.053   3.456  -0.241 -2.2777 -1.6748  1.2255
    9CHTO   O78 3419   8.255   3.394  -0.263  0.4721 -0.0886 -0.1243
    9CHTO  H200 3420   8.306   3.454  -0.212  0.9547  0.5421 -1.3405
    9CHTO  C111 3421   8.127   3.402  -0.052  0.3047 -0.0024  0.2789
    9CHTO  H215 3422   8.191   3.328  -0.001  0.1400  0.4073  1.0931
    9CHTO   N19 3423   8.178   3.538  -0.011  0.9070  0.3102 -0.6255
    9CHTO  H207 3424   8.121   3.612  -0.064 -1.0881 -0.0223  0.9502
    9CHTO  H208 3425   8.187   3.552   0.096 -1.7169 -1.7890 -0.0601
    9CHTO   O74 3426   8.047   3.226  -0.390  0.4932 -0.0428 -0.6831
    9CHTO  C115 3427   8.181   3.168  -0.450 -0.0458  0.1415  0.0353
    9CHTO  H219 3428   8.264   3.180  -0.380 -0.0920 -0.6053  0.2219
    9CHTO   O76 3429   8.168   2.998  -0.472 -0.5909 -0.2755 -0.2770
    9CHTO  C122 3430   8.102   2.965  -0.591 -0.1698 -0.5432  0.3259
    9CHTO  H226 3431   8.004   3.013  -0.583  0.3530  0.1883  2.5961
    9CHTO  C126 3432   8.077   2.807  -0.598  0.1179  0.0074 -0.8497
    9CHTO   O85 3433   8.189   2.727  -0.628 -0.1622 -0.2334  0.5230
    9CHTO  H206 3434   8.251   2.716  -0.559  2.8676 -0.0025 -2.0452
    9CHTO  C121 3435   8.158   3.030  -0.721  0.2274  0.2422 -0.0114
    9CHTO  H225 3436   8.267   3.009  -0.727 -0.0348 -0.6952 -2.1390
    9CHTO   O81 3437   8.095   2.981  -0.843  0.3977  0.1466  0.1069
    9CHTO  H202 3438   8.111   3.037  -0.917  0.6647  2.0786  1.5931
    9CHTO  C119 3439   8.131   3.188  -0.702 -0.4397 -1.1477 -0.3569
    9CHTO  H223 3440   8.164   3.238  -0.794  2.1975 -0.0030  1.1507
    9CHTO  C117 3441   8.219   3.247  -0.583  0.9013  0.1813  0.2066
    9CHTO  H221 3442   8.203   3.353  -0.565 -0.8251 -0.0946  0.4666
    9CHTO   N20 3443   8.366   3.239  -0.616 -0.4724  0.1345 -0.1634
    9CHTO  H209 3444   8.389   3.211  -0.718  0.0781 -3.4379  0.8653
    9CHTO  H210 3445   8.424   3.326  -0.588  1.4679 -1.2723  0.3313
    9CHTO   O80 3446   7.968   3.233  -0.693  0.4464 -0.2254  0.1716
    9CHTO  C103 3447   7.937   3.381  -0.689  0.3347 -0.9997  0.2725
    9CHTO  H190 3448   7.963   3.427  -0.594  0.9927 -2.9721  1.0630
    9CHTO  C101 3449   8.005   3.482  -0.793  0.0419  0.6729 -0.1445
    9CHTO  H188 3450   7.992   3.442  -0.894  0.9849 -2.2321  0.8468
    9CHTO   O68 3451   8.130   3.505  -0.756  0.4753  0.3494  0.0383
    9CHTO  H168 3452   8.197   3.508  -0.822 -0.8913 -1.7524 -1.4843
    9CHTO   C99 3453   7.932   3.623  -0.810 -0.8812  0.3397  0.3540
    9CHTO  H186 3454   7.948   3.688  -0.721  1.0611  0.2326  0.0958
    9CHTO   N17 3455   7.989   3.713  -0.919 -0.6534  0.1650  0.0789
    9CHTO  H174 3456   8.076   3.765  -0.881 -1.5199  0.8089  1.2001
    9CHTO  H175 3457   7.928   3.786  -0.972 -0.3646  0.1736 -0.2476
    9CHTO   C97 3458   7.782   3.601  -0.823 -0.0566 -0.0172 -0.1418
    9CHTO  H184 3459   7.773   3.541  -0.915  2.1545 -0.5844 -0.0304
    9CHTO   O64 3460   7.733   3.528  -0.706 -0.2511  0.2298 -0.4492
    9CHTO  C104 3461   7.779   3.391  -0.698  0.1913  0.2916 -0.5598
    9CHTO  H191 3462   7.741   3.333  -0.782 -0.6344 -0.5734  0.3905
    9CHTO  C108 3463   7.720   3.319  -0.575 -0.2965  0.2113 -0.0491
    9CHTO   O71 3464   7.680   3.392  -0.458 -0.3032 -0.2234  0.0138
    9CHTO  H171 3465   7.590   3.416  -0.465  0.1684  1.4942 -0.6195
    9CHTO   O62 3466   7.698   3.723  -0.827 -0.0284  0.2551 -0.4799
    9CHTO   C91 3467   7.651   3.771  -0.953  0.2528  0.2468 -0.1190
    9CHTO  H178 3468   7.724   3.769  -1.035 -1.1081 -2.5785 -1.3593
    9CHTO   C92 3469   7.592   3.914  -0.939  0.4090 -0.0730 -0.3388
    9CHTO  H179 3470   7.674   3.977  -0.901  0.1993  0.1001 -0.1703
    9CHTO   O66 3471   7.562   3.971  -1.066 -0.0353  0.3315 -0.5784
    9CHTO  H166 3472   7.628   3.952  -1.130  2.2413  2.5080  1.0138
    9CHTO   C93 3473   7.459   3.923  -0.846 -0.2855  0.1980  0.4682
    9CHTO  H180 3474   7.408   4.015  -0.878  1.2904  1.0749  0.4429
    9CHTO   N16 3475   7.484   3.945  -0.704  0.7381 -0.1672 -0.3028
    9CHTO  H172 3476   7.565   3.878  -0.677  2.9999  2.4622 -0.3655
    9CHTO  H173 3477   7.515   4.048  -0.690  1.6600 -0.2554 -1.5321
    9CHTO   C94 3478   7.366   3.803  -0.871  0.4455  0.1027 -0.1520
    9CHTO  H181 3479   7.365   3.728  -0.792  1.6665 -0.7283 -0.8946
    9CHTO   O61 3480   7.402   3.736  -0.994  0.7195 -0.1282 -0.1198
    9CHTO   C95 3481   7.536   3.677  -1.003 -0.2761  0.8731 -0.8421
    9CHTO  H182 3482   7.548   3.589  -0.940 -0.4634  1.6364  0.2771
    9CHTO  C106 3483   7.555   3.641  -1.157 -0.8702  0.0159 -0.6781
    9CHTO   O69 3484   7.684   3.590  -1.189 -0.2833 -0.1162  0.1814
    9CHTO  H169 3485   7.724   3.532  -1.127 -0.0645  0.3346  0.4643
    9CHTO   O63 3486   7.223   3.882  -0.904  0.4672  0.5769  0.3842
    9CHTO   C96 3487   7.109   3.827  -0.814 -0.6131 -0.2058  0.2105
    9CHTO  H183 3488   7.167   3.808  -0.724  1.6333  2.2578 -0.6402
    9CHTO   C98 3489   7.028   3.694  -0.862 -0.9530 -0.4925  0.0981
    9CHTO  H185 3490   6.996   3.708  -0.967 -2.8085 -1.0588  0.5809
    9CHTO   O67 3491   7.118   3.588  -0.852 -0.1992 -0.0482  0.9269
    9CHTO  H167 3492   7.193   3.615  -0.900 -1.7863  0.4579 -1.3695
    9CHTO  C102 3493   6.900   3.654  -0.775  0.2287  0.3733  0.0296
    9CHTO  H189 3494   6.936   3.626  -0.675  1.5233 -0.8524 -0.7585
    9CHTO   N18 3495   6.814   3.541  -0.828  0.3551  0.8434 -0.1729
    9CHTO  H176 3496   6.760   3.496  -0.746  2.2307  0.2580  0.7655
    9CHTO  H177 3497   6.745   3.569  -0.906  0.2560 -1.9091 -1.1385
    9CHTO  C105 3498   6.819   3.782  -0.753  0.3269 -0.3795 -0.7147
    9CHTO  H192 3499   6.777   3.818  -0.847 -0.7874  1.8340  0.5985
    9CHTO   O65 3500   6.899   3.891  -0.703  0.6552 -0.1296 -0.1850
    9CHTO  C100 3501   7.008   3.940  -0.785  0.1707  0.3921  0.7582
    9CHTO  H187 3502   6.962   3.973  -0.879  0.1502  0.6542  0.8599
    9CHTO  C107 3503   7.069   4.064  -0.719  0.0279  0.2705  0.5204
    9CHTO   O70 3504   6.977   4.174  -0.734 -0.3028  0.1358  0.4601
    9CHTO  H170 3505   6.934   4.175  -0.817 -2.0137 -3.0334  1.2075
    9CHTO   O57 3506   6.695   3.752  -0.640 -0.6434 -0.3712  0.2399
    9CHTO   C85 3507   6.565   3.819  -0.654 -0.6334  0.4614 -0.2527
    9CHTO  H157 3508   6.510   3.775  -0.740 -0.6001  1.1931 -0.6547
    9CHTO   C83 3509   6.580   3.964  -0.699 -0.8638 -0.2244 -0.3264
    9CHTO  H155 3510   6.612   3.967  -0.803  1.0180 -0.3774  0.2170
    9CHTO   O56 3511   6.676   4.032  -0.621 -0.3930 -0.0841 -0.4788
    9CHTO  H135 3512   6.736   3.981  -0.569 -0.2120 -0.6563 -1.2376
    9CHTO   C81 3513   6.436   4.027  -0.691 -0.2351 -0.0094  0.2314
    9CHTO  H153 3514   6.372   3.964  -0.752 -0.8276  1.1586 -0.3760
    9CHTO   N14 3515   6.435   4.158  -0.764 -0.7467  0.1818 -0.2531
    9CHTO  H141 3516   6.474   4.239  -0.705 -1.0778 -0.1572  0.4393
    9CHTO  H142 3517   6.331   4.175  -0.776 -0.6614  2.8127  2.2249
    9CHTO   C79 3518   6.387   4.027  -0.539  0.4111 -0.6394  1.0099
    9CHTO  H151 3519   6.291   4.079  -0.536  0.7070 -0.1057  1.3236
    9CHTO   O52 3520   6.363   3.886  -0.507 -0.0653 -0.0329  0.2075
    9CHTO   C86 3521   6.483   3.802  -0.522  0.6200 -0.6483 -0.6703
    9CHTO  H158 3522   6.539   3.819  -0.427  1.4128 -1.4287 -0.9868
    9CHTO   C90 3523   6.442   3.657  -0.516 -1.1754  0.2026  0.2557
    9CHTO   O60 3524   6.313   3.633  -0.578 -0.3989  0.1849 -0.1432
    9CHTO  H138 3525   6.240   3.631  -0.519 -0.1201 -3.1052  0.1770
    9CHTO   O50 3526   6.477   4.088  -0.449 -0.0598  0.5797 -0.0080
    9CHTO   C73 3527   6.455   4.213  -0.377 -0.1372  0.2767  0.6273
    9CHTO  H145 3528   6.350   4.210  -0.346 -0.5338 -0.0543 -0.7220
    9CHTO   C74 3529   6.477   4.342  -0.463  0.2778 -0.2563  0.1991
    9CHTO  H146 3530   6.417   4.337  -0.554 -2.5609  1.5038  1.8767
    9CHTO   O54 3531   6.430   4.453  -0.392 -0.3319  0.4729 -0.4966
    9CHTO  H133 3532   6.499   4.499  -0.347 -0.1353  0.4989 -0.8254
    9CHTO   C75 3533   6.637   4.347  -0.490  0.2309 -0.1056 -0.7175
    9CHTO  H147 3534   6.660   4.263  -0.557  0.3667 -0.9650  0.3973
    9CHTO   N13 3535   6.685   4.462  -0.567  0.0146 -0.7129  0.0289
    9CHTO  H139 3536   6.685   4.553  -0.509 -1.5044 -1.0342  0.5578
    9CHTO  H140 3537   6.644   4.471  -0.666 -1.3591  1.9966  0.8025
    9CHTO   C76 3538   6.725   4.335  -0.356 -0.7033 -0.2077 -0.8552
    9CHTO  H148 3539   6.716   4.428  -0.298  1.4733 -1.4008  1.5245
    9CHTO   O49 3540   6.680   4.224  -0.277  0.3497 -0.5795  0.3801
    9CHTO   C77 3541   6.539   4.228  -0.251 -0.5689 -0.1890  0.3146
    9CHTO  H149 3542   6.513   4.322  -0.202 -2.4781  0.6092 -2.1349
    9CHTO   C88 3543   6.506   4.127  -0.149  0.2099  0.5987  0.0362
    9CHTO   O58 3544   6.570   4.152  -0.020  0.1146  0.8138 -0.0615
    9CHTO  H136 3545   6.608   4.074   0.016 -2.5766 -0.6529 -0.2557
    9CHTO   O51 3546   6.884   4.308  -0.393  0.5514 -0.1584 -0.5802
    9CHTO   C78 3547   6.980   4.288  -0.268  0.1974 -0.1528  0.2821
    9CHTO  H150 3548   6.924   4.266  -0.175  1.4152 -1.1627  0.7937
    9CHTO   C80 3549   7.072   4.409  -0.259 -0.5814  0.4305 -0.6226
    9CHTO  H152 3550   7.130   4.411  -0.354  2.4095  0.0179  1.1103
    9CHTO   O55 3551   6.991   4.517  -0.220 -0.1089 -0.2517 -0.0948
    9CHTO  H134 3552   6.917   4.525  -0.277 -0.6177 -1.0774  0.4355
    9CHTO   C84 3553   7.176   4.380  -0.135 -0.2404 -0.6270  0.0965
    9CHTO  H156 3554   7.132   4.353  -0.039  0.0366  0.0004  0.4010
    9CHTO   N15 3555   7.267   4.497  -0.114  0.0695  0.6346  0.2958
    9CHTO  H143 3556   7.306   4.488  -0.014  0.2516 -1.2343  0.0771
    9CHTO  H144 3557   7.222   4.593  -0.123 -0.2851  0.6442  2.0418
    9CHTO   C87 3558   7.249   4.244  -0.167 -0.4601  1.1697 -0.6391
    9CHTO  H159 3559   7.300   4.258  -0.263  0.0647 -0.1195 -0.5607
    9CHTO   O53 3560   7.148   4.132  -0.181  0.4048  0.0067 -0.0178
    9CHTO   C82 3561   7.062   4.157  -0.294  0.3273 -0.5554 -0.3939
    9CHTO  H154 3562   7.121   4.172  -0.384  0.5050 -0.6188 -0.2899
    9CHTO   C89 3563   6.963   4.044  -0.322 -0.0734  0.2301  0.3969
    9CHTO   O59 3564   7.019   3.942  -0.406 -0.6341 -0.1526 -0.0517
    9CHTO  H137 3565   7.046   3.978  -0.488 -1.0643 -1.8658 -0.9798
    9CHTO   O45 3566   7.386   4.194  -0.056 -0.1421  0.0557 -0.3432
    9CHTO   C67 3567   7.426   4.059  -0.073  0.4220 -0.4352  0.3180
    9CHTO  H124 3568   7.337   3.998  -0.089 -0.9301  1.4617  0.4978
    9CHTO   C65 3569   7.518   4.039  -0.199 -0.2198  0.6083 -0.0447
    9CHTO  H122 3570   7.577   4.129  -0.212 -0.5618  0.7509 -0.5870
    9CHTO   O44 3571   7.429   4.028  -0.310 -0.0618 -0.6314 -0.0536
    9CHTO  H102 3572   7.478   3.997  -0.384  1.8083  0.2498  0.7836
    9CHTO   C63 3573   7.629   3.923  -0.175 -0.1098 -0.0075 -0.0363
    9CHTO  H120 3574   7.706   3.967  -0.113 -0.4944  0.6372 -0.0088
    9CHTO   N11 3575   7.705   3.882  -0.293 -0.7428 -0.5818 -0.0690
    9CHTO  H108 3576   7.738   3.974  -0.337 -1.3473 -0.9357 -1.2868
    9CHTO  H109 3577   7.790   3.819  -0.280 -1.8076 -2.2987 -1.2362
    9CHTO   C61 3578   7.571   3.806  -0.096  0.7820 -0.3890  0.8975
    9CHTO  H118 3579   7.650   3.731  -0.078  0.8188 -0.5467  0.0765
    9CHTO   O40 3580   7.519   3.856   0.038  0.1514 -0.0894 -0.5199
    9CHTO   C68 3581   7.495   3.998   0.059 -0.0780 -0.4189  0.8357
    9CHTO  H125 3582   7.588   4.054   0.080 -0.7895  0.4851  1.6268
    9CHTO   C72 3583   7.406   4.024   0.181 -0.3265 -0.5666 -1.1071
    9CHTO   O48 3584   7.485   4.010   0.302 -0.3195 -0.4310  0.4177
    9CHTO  H105 3585   7.438   4.052   0.372  0.4837  1.6301 -0.2326
    9CHTO   O38 3586   7.463   3.740  -0.164 -1.2780  0.1731 -0.6054
    9CHTO   C55 3587   7.399   3.622  -0.109 -0.6579  0.1531 -0.1849
    9CHTO  H112 3588   7.387   3.632   0.000  2.2630 -2.1992  0.4068
    9CHTO   C56 3589   7.476   3.488  -0.144 -0.4179 -0.4641  0.7900
    9CHTO  H113 3590   7.510   3.497  -0.248  1.9062 -0.8484  1.4866
    9CHTO   O42 3591   7.602   3.492  -0.078  0.1835 -0.2151 -0.6094
    9CHTO  H100 3592   7.596   3.492   0.016  2.6399 -0.8554 -0.4141
    9CHTO   C57 3593   7.404   3.353  -0.103  0.3716 -0.4014  0.6157
    9CHTO  H114 3594   7.421   3.350   0.005 -1.1172  0.0521  0.8876
    9CHTO   N10 3595   7.472   3.238  -0.161 -0.5665  0.6091 -0.0047
    9CHTO  H106 3596   7.575   3.261  -0.181 -0.1065  0.1386  1.7911
    9CHTO  H107 3597   7.427   3.207  -0.254  2.2955 -0.1495 -1.1922
    9CHTO   C58 3598   7.249   3.363  -0.126  0.0527  0.7264 -0.0882
    9CHTO  H115 3599   7.225   3.341  -0.233  0.2939  1.0988 -0.2173
    9CHTO   O37 3600   7.189   3.491  -0.093 -0.5411 -0.0926 -0.0476
    9CHTO   C59 3601   7.252   3.603  -0.160  0.3380 -0.1692 -0.7638
    9CHTO  H116 3602   7.271   3.586  -0.266  0.8973  1.7662 -0.9879
    9CHTO   C70 3603   7.170   3.729  -0.143  0.2390 -0.6257 -0.3719
    9CHTO   O46 3604   7.134   3.761  -0.008  0.4051 -0.1412  0.0906
    9CHTO  H103 3605   7.131   3.853   0.008  1.7860 -0.3989  2.0387
    9CHTO   O39 3606   7.187   3.260  -0.025  0.6135 -0.3319  0.3834
    9CHTO   C60 3607   7.059   3.221  -0.069  0.0010 -0.2147  0.5164
    9CHTO  H117 3608   7.023   3.285  -0.149 -0.3782  0.5422  1.2840
    9CHTO   C62 3609   7.058   3.079  -0.125 -0.3932  0.7568 -0.2544
    9CHTO  H119 3610   7.130   3.070  -0.210 -0.4543  0.9300 -0.3247
    9CHTO   O43 3611   7.103   2.997  -0.016  0.8772 -0.0089 -0.3837
    9CHTO  H101 3612   7.096   2.910  -0.050  3.2673 -0.2895 -0.2285
    9CHTO   C66 3613   6.912   3.047  -0.172  0.0858  0.3781  0.5317
    9CHTO  H123 3614   6.877   3.124  -0.240 -0.5777 -0.9752 -0.6827
    9CHTO   N12 3615   6.898   2.921  -0.244  0.1507  0.2545 -0.2148
    9CHTO  H110 3616   6.954   2.841  -0.198  0.3437  0.6682  0.2873
    9CHTO  H111 3617   6.924   2.921  -0.349  1.8231 -0.7558  0.1834
    9CHTO   C69 3618   6.821   3.058  -0.046  0.3281 -0.2979 -0.4560
    9CHTO  H126 3619   6.853   2.988   0.035  0.0949 -0.3085 -0.3736
    9CHTO   O41 3620   6.823   3.192  -0.005 -0.2164 -0.1214 -0.3906
    9CHTO   C64 3621   6.958   3.234   0.044 -0.2928  0.0412  0.1889
    9CHTO  H121 3622   6.986   3.169   0.130 -0.0439 -0.4840 -0.2879
    9CHTO   C71 3623   6.947   3.382   0.089  0.1711  0.5882 -0.5832
    9CHTO   O47 3624   6.855   3.405   0.200 -0.6661 -0.1315 -0.2152
    9CHTO  H104 3625   6.898   3.411   0.283  0.1158  0.6533 -0.6589
    9CHTO   O34 3626   6.671   3.016  -0.073  0.4437  0.2472 -0.3399
    9CHTO   C49 3627   6.526   2.998  -0.018 -0.3482  0.3203 -0.4461
    9CHTO   H91 3628   6.452   3.004  -0.098 -0.4857  2.1419 -0.1883
    9CHTO   C47 3629   6.501   3.117   0.075  0.6910 -0.8496 -0.0042
    9CHTO   H89 3630   6.390   3.119   0.085  0.7349  0.7495  0.1592
    9CHTO   O33 3631   6.536   3.237   0.001  0.3206  0.5782  0.6169
    9CHTO   H70 3632   6.553   3.219  -0.089 -0.0120  0.1539  0.6391
    9CHTO   C45 3633   6.586   3.112   0.209  0.5222 -0.2408  0.1375
    9CHTO   H87 3634   6.679   3.167   0.189  0.9022 -1.1928 -0.7615
    9CHTO    N8 3635   6.507   3.181   0.316 -0.3340  0.0295 -0.2844
    9CHTO   H75 3636   6.477   3.282   0.295 -0.4285  0.1777  0.5303
    9CHTO   H76 3637   6.421   3.128   0.354 -0.4928 -0.2219 -0.9968
    9CHTO   C43 3638   6.630   2.957   0.246 -0.2367 -0.7004  0.1494
    9CHTO   H85 3639   6.725   2.938   0.194  1.4377 -0.6741  3.1118
    9CHTO   O29 3640   6.532   2.863   0.202  0.2020  0.3711 -0.0861
    9CHTO   C50 3641   6.508   2.856   0.059  0.7647 -0.0335 -0.0273
    9CHTO   H92 3642   6.578   2.782   0.018  2.0851  1.0143  0.3039
    9CHTO   C54 3643   6.380   2.779   0.039  0.1629 -0.2267 -0.2015
    9CHTO   O36 3644   6.270   2.837   0.100  0.6693  0.3143 -0.2343
    9CHTO   H72 3645   6.287   2.824   0.192  2.2803 -0.2549 -0.6093
    9CHTO   O27 3646   6.670   2.931   0.383 -0.4712  0.3016  0.0977
    9CHTO   C37 3647   6.789   2.937   0.465 -0.1195  0.1274 -0.3893
    9CHTO   H79 3648   6.774   2.887   0.562  0.0129 -0.9584 -0.9189
    9CHTO   C38 3649   6.905   2.864   0.401 -0.2400 -0.5392 -0.4032
    9CHTO   H80 3650   6.921   2.906   0.300  3.2030  1.0420  0.7012
    9CHTO   O31 3651   6.886   2.724   0.409  0.0274  0.2708 -0.2644
    9CHTO   H68 3652   6.921   2.693   0.328  2.3496  2.2932 -0.1165
    9CHTO   C39 3653   7.047   2.889   0.474  0.5961 -0.0945 -0.4537
    9CHTO   H81 3654   7.033   2.856   0.577 -1.3635  1.1648 -0.2971
    9CHTO    N7 3655   7.171   2.818   0.428  0.2896 -0.6432 -0.2166
    9CHTO   H73 3656   7.245   2.812   0.506  0.3788 -0.3700 -0.2814
    9CHTO   H74 3657   7.145   2.713   0.420  2.9013 -1.6072  2.7426
    9CHTO   C40 3658   7.069   3.044   0.484  0.1424 -0.0829 -0.5272
    9CHTO   H82 3659   7.074   3.086   0.384 -1.1173  0.4363 -0.3787
    9CHTO   O26 3660   6.954   3.087   0.558 -0.3203 -0.1283  0.2205
    9CHTO   C41 3661   6.833   3.088   0.488 -0.5708  0.4060  0.2489
    9CHTO   H83 3662   6.824   3.137   0.390 -0.3669 -1.0834 -0.5310
    9CHTO   C52 3663   6.733   3.165   0.577  0.1674  0.0093 -0.2651
    9CHTO   O35 3664   6.685   3.084   0.682  0.4235  0.2998  0.3872
    9CHTO   H71 3665   6.759   3.045   0.725  0.5841 -2.1390 -2.0332
    9CHTO   O28 3666   7.186   3.096   0.554  0.2305 -0.4777  0.3818
    9CHTO   C42 3667   7.187   3.233   0.612 -0.4293  0.3284 -0.6214
    9CHTO   H84 3668   7.293   3.250   0.636 -0.6611  0.3032  0.4696
    9CHTO   C44 3669   7.113   3.242   0.747  0.0158  0.8052 -0.0513
    9CHTO   H86 3670   7.015   3.195   0.741  1.3367 -2.1515  1.0147
    9CHTO   O32 3671   7.172   3.168   0.857  0.2222  0.3100  0.4501
    9CHTO   H69 3672   7.108   3.159   0.924 -2.7296  3.5404 -1.7390
    9CHTO   C48 3673   7.091   3.396   0.781 -0.2080  0.4721 -1.2213
    9CHTO   H90 3674   7.192   3.433   0.800  0.3055 -0.1110 -2.7196
    9CHTO    N9 3675   7.006   3.416   0.906  0.0688  0.0929 -0.2514
    9CHTO   H77 3676   7.003   3.520   0.937  0.7754 -1.0455  3.9545
    9CHTO   H78 3677   7.042   3.364   0.993  0.5851  3.4445  1.6323
    9CHTO   C51 3678   7.037   3.475   0.663  0.4223  0.7806  0.1941
    9CHTO   H93 3679   6.942   3.433   0.629 -0.5463  2.6211  0.5039
    9CHTO   O30 3680   7.141   3.471   0.568 -0.5318  0.4536 -0.0783
    9CHTO   C46 3681   7.144   3.343   0.508 -0.0684  0.5759  0.8959
    9CHTO   H88 3682   7.050   3.313   0.462 -0.5853 -1.8183  3.3266
    9CHTO   C53 3683   7.240   3.346   0.394 -0.5240  0.3009  0.2659
    9CHTO   O72 3684   7.213   3.462   0.307 -0.0072 -0.0520 -0.9264
    9CHTO  H199 3685   7.268   3.532   0.337  1.0445 -1.1327 -0.3246
    9CHTO   O22 3686   7.021   3.618   0.692 -0.0442 -0.0375 -0.1910
    9CHTO   C31 3687   6.969   3.715   0.595 -0.7952  0.2295 -0.2332
    9CHTO   H59 3688   6.934   3.801   0.657  1.6280  0.3140  1.1069
    9CHTO   C29 3689   7.076   3.776   0.495  0.0774 -0.8286 -0.2804
    9CHTO   H57 3690   7.115   3.699   0.427 -0.3197 -0.9014 -0.4228
    9CHTO   O21 3691   7.185   3.817   0.573  0.4770 -0.2358  0.2930
    9CHTO   H37 3692   7.155   3.894   0.618 -1.3777 -0.7276 -0.0852
    9CHTO   C27 3693   7.004   3.886   0.410  0.1529 -0.7880  0.4143
    9CHTO   H55 3694   6.968   3.967   0.475  0.6708 -0.5832  0.4533
    9CHTO    N5 3695   7.095   3.941   0.308  0.2150  0.1512 -0.4114
    9CHTO   H43 3696   7.182   3.876   0.300 -0.5738 -1.0158  0.2918
    9CHTO   H44 3697   7.047   3.969   0.217 -0.6700  2.5973  0.7762
    9CHTO   C25 3698   6.877   3.828   0.344 -0.5350 -0.9702  0.2165
    9CHTO   H53 3699   6.902   3.743   0.277  1.3741  0.0237 -0.3831
    9CHTO   O17 3700   6.795   3.767   0.447  0.7857  0.0025 -0.0944
    9CHTO   C32 3701   6.844   3.658   0.522 -0.4160  0.5515  0.3868
    9CHTO   H60 3702   6.872   3.582   0.449  0.2914 -0.6927  1.8972
    9CHTO   C36 3703   6.732   3.615   0.627  0.9164  0.4437  0.2878
    9CHTO   O25 3704   6.631   3.538   0.567 -0.2608 -0.0289  0.1638
    9CHTO   H40 3705   6.551   3.551   0.613 -0.7980  0.7099 -0.9545
    9CHTO   O15 3706   6.801   3.933   0.258 -0.0880  0.2544  0.1163
    9CHTO   C19 3707   6.712   3.886   0.147 -0.5550  0.1183 -0.8955
    9CHTO   H47 3708   6.659   3.977   0.116 -1.3091 -0.9954 -2.9672
    9CHTO   C20 3709   6.787   3.835   0.020 -0.6401 -0.1901  0.4298
    9CHTO   H48 3710   6.846   3.745   0.041  0.5675 -0.0067 -1.9832
    9CHTO   O19 3711   6.881   3.927  -0.030  0.3052 -0.2063 -0.2876
    9CHTO   H35 3712   6.926   3.893  -0.105  0.7253 -1.9019  0.7084
    9CHTO   C21 3713   6.679   3.797  -0.092  0.3326 -0.0531 -0.0586
    9CHTO   H49 3714   6.630   3.889  -0.124  1.2543  0.7834  0.9012
    9CHTO    N4 3715   6.739   3.737  -0.218 -0.5743  0.1510 -0.3013
    9CHTO   H41 3716   6.738   3.797  -0.308 -2.8298 -2.2456 -1.9805
    9CHTO   H42 3717   6.683   3.648  -0.242  1.7022 -1.3903 -0.0410
    9CHTO   C22 3718   6.559   3.711  -0.039  0.9129  0.1422 -0.7686
    9CHTO   H50 3719   6.592   3.608  -0.027 -0.8890 -0.4684 -1.0245
    9CHTO   O14 3720   6.502   3.761   0.084 -0.1937 -0.2360 -0.7183
    9CHTO   C23 3721   6.599   3.786   0.191  0.4410 -0.5275 -0.0963
    9CHTO   H51 3722   6.639   3.685   0.204  1.6393  0.1399  1.5778
    9CHTO   C34 3723   6.518   3.826   0.314  0.3735 -0.3846 -0.2486
    9CHTO   O23 3724   6.448   3.720   0.386  0.2325  1.0427  0.2235
    9CHTO   H38 3725   6.366   3.755   0.414  0.9872  1.4379  2.0004
    9CHTO   O16 3726   6.453   3.712  -0.138  0.7797 -0.2651  0.1564
    9CHTO   C24 3727   6.296   3.654  -0.074  0.7151 -0.0321 -0.5063
    9CHTO   H52 3728   6.268   3.706   0.018  1.1541 -0.8160  0.0671
    9CHTO   C26 3729   6.291   3.505  -0.039  0.1540 -0.0089 -0.2933
    9CHTO   H54 3730   6.344   3.452  -0.122  1.9093  3.1712 -1.3104
    9CHTO   O20 3731   6.355   3.489   0.090  0.0805 -0.1988 -1.4109
    9CHTO   H36 3732   6.354   3.396   0.102  0.2407 -0.0731 -0.3631
    9CHTO   C30 3733   6.148   3.449  -0.029  0.6731 -0.0897  0.3579
    9CHTO   H58 3734   6.095   3.479   0.062  0.2003  0.1494  0.0077
    9CHTO    N6 3735   6.144   3.298  -0.033  0.1232  0.0247  0.4438
    9CHTO   H45 3736   6.206   3.258  -0.111 -0.2114 -2.2309  1.3132
    9CHTO   H46 3737   6.177   3.254   0.060  0.3202  0.2726  0.4907
    9CHTO   C33 3738   6.063   3.506  -0.150 -0.0200  0.0500  0.0161
    9CHTO   H61 3739   6.102   3.475  -0.248  1.0165 -1.2469  0.8270
    9CHTO   O18 3740   6.072   3.647  -0.146 -0.2499 -0.8018 -0.1301
    9CHTO   C28 3741   6.192   3.704  -0.182 -0.1378 -0.2692 -0.0104
    9CHTO   H56 3742   6.228   3.670  -0.279  2.7601  0.0300  0.9083
    9CHTO   C35 3743   6.179   3.860  -0.167  0.9475  0.0894  0.6699
    9CHTO   O24 3744   6.288   3.938  -0.224  0.6196 -0.1730  0.0926
    9CHTO   H39 3745   6.297   3.928  -0.316 -1.4841  1.1164 -0.2844
    9CHTO    O9 3746   5.921   3.466  -0.148  0.1795 -0.1935  0.0587
    9CHTO   C13 3747   5.842   3.501  -0.286 -0.2110  0.6386 -0.1850
    9CHTO   H26 3748   5.915   3.518  -0.368 -1.0412 -1.0161 -1.2910
    9CHTO   C11 3749   5.733   3.613  -0.279  0.3449  0.0012 -0.2840
    9CHTO   H24 3750   5.758   3.682  -0.361  0.1808 -2.2935 -2.2940
    9CHTO    O8 3751   5.749   3.676  -0.146  0.2233  0.0342 -0.2488
    9CHTO    H3 3752   5.819   3.738  -0.136  1.7271 -1.6236 -0.2939
    9CHTO    C9 3753   5.588   3.552  -0.304  0.3508 -0.2057  0.4944
    9CHTO   H22 3754   5.587   3.532  -0.412 -1.2341 -1.2778  0.6875
    9CHTO    N2 3755   5.471   3.648  -0.277  0.0905 -0.1824 -0.2746
    9CHTO   H10 3756   5.493   3.743  -0.324 -1.4521  0.0985 -0.4568
    9CHTO   H11 3757   5.455   3.659  -0.171  0.9860 -0.6342 -0.0909
    9CHTO    C7 3758   5.563   3.418  -0.228 -0.2118 -0.1429  0.3083
    9CHTO   H20 3759   5.474   3.373  -0.277 -0.3885  0.0317  0.4711
    9CHTO    O4 3760   5.675   3.331  -0.250  0.5982 -0.2735  0.6208
    9CHTO   C14 3761   5.785   3.363  -0.331 -0.1636 -0.2157  1.0879
    9CHTO   H27 3762   5.756   3.368  -0.437 -0.5612  0.0101  1.2066
    9CHTO   C18 3763   5.889   3.247  -0.325  0.8877 -0.9297 -0.7910
    9CHTO   O13 3764   5.856   3.157  -0.435 -0.0539 -0.6943 -0.2830
    9CHTO    H7 3765   5.942   3.121  -0.449 -0.4208 -2.4090  1.5602
    9CHTO    O2 3766   5.541   3.442  -0.062  0.3976  0.2502 -0.2940
    9CHTO    C1 3767   5.482   3.332   0.012  0.5128 -0.8230  0.0563
    9CHTO   H14 3768   5.480   3.247  -0.059  0.0886 -2.0403  1.5053
    9CHTO    C2 3769   5.327   3.362   0.056 -0.8366 -0.5705 -0.0731
    9CHTO   H15 3770   5.328   3.455   0.115  2.0073 -0.0590 -0.8538
    9CHTO    O6 3771   5.257   3.402  -0.057 -0.5881  0.4592  0.2107
    9CHTO    H1 3772   5.169   3.420  -0.032 -0.8676  1.3372 -1.3408
    9CHTO    C3 3773   5.275   3.242   0.147 -0.0141  0.4332  0.5963
    9CHTO   H16 3774   5.260   3.146   0.096 -0.3491 -0.1580  1.7871
    9CHTO    N1 3775   5.142   3.276   0.205 -0.1174  0.8084  0.6988
    9CHTO    H8 3776   5.055   3.224   0.167  0.0040  0.5645  0.7550
    9CHTO    H9 3777   5.134   3.263   0.312  2.5922  1.0017  0.9490
    9CHTO    C4 3778   5.382   3.218   0.257 -0.7429  0.2404 -0.5009
    9CHTO   H17 3779   5.382   3.305   0.323 -1.6754 -0.3859  0.3413
    9CHTO    O1 3780   5.509   3.189   0.193 -0.8855 -0.2570  0.5620
    9CHTO    C5 3781   5.571   3.295   0.129 -0.0222 -0.1995 -0.2486
    9CHTO   H18 3782   5.567   3.371   0.208 -1.6506 -0.0621 -0.4331
    9CHTO   C16 3783   5.718   3.251   0.101 -0.7952 -0.4454  0.1405
    9CHTO   O11 3784   5.798   3.258   0.222  0.6978  0.0450 -0.2860
    9CHTO    H5 3785   5.849   3.336   0.227 -1.0860  1.2866 -1.1683
    9CHTO    O3 3786   5.353   3.098   0.329 -0.3493 -0.4826  0.3369
    9CHTO    C6 3787   5.418   3.105   0.459 -0.4774 -0.7690 -0.4631
    9CHTO   H19 3788   5.506   3.169   0.463 -0.7297 -0.4776  0.4543
    9CHTO    C8 3789   5.320   3.152   0.566 -0.6514  0.0575 -0.8685
    9CHTO   H21 3790   5.232   3.089   0.557 -1.6036  1.0709  1.0634
    9CHTO    O7 3791   5.282   3.294   0.557 -0.5261  0.2959 -0.4547
    9CHTO    H2 3792   5.220   3.312   0.489  0.1879 -1.4288 -1.6240
    9CHTO   C12 3793   5.380   3.121   0.709 -0.1066  0.1002  0.7907
    9CHTO   H25 3794   5.456   3.197   0.737 -0.4286 -0.1277  2.3479
    9CHTO    N3 3795   5.274   3.152   0.815  0.6935  0.0189 -0.2685
    9CHTO   H12 3796   5.299   3.151   0.920  0.6629  0.4436 -0.2582
    9CHTO   H13 3797   5.189   3.086   0.805  0.6070  0.0042  0.5511
    9CHTO   C15 3798   5.437   2.966   0.718  0.4663 -0.4879 -0.2140
    9CHTO   H28 3799   5.351   2.898   0.724  0.1827 -0.1352 -0.2790
    9CHTO   O10 3800   5.528   2.937   0.851  0.0958  0.0630 -0.0687
    9CHTO    H4 3801   5.549   2.846   0.850 -1.7464 -0.3804 -0.0161
    9CHTO    O5 3802   5.534   2.945   0.611  0.0204  0.1104 -0.7393
    9CHTO   C10 3803   5.470   2.953   0.487  0.1532 -0.4016 -0.8048
    9CHTO   H23 3804   5.393   2.876   0.474 -1.0205  0.7484 -0.8086
    9CHTO   C17 3805   5.587   2.920   0.391  0.3768 -0.8432  0.1701
    9CHTO   O12 3806   5.687   3.015   0.383  0.0249 -0.5245 -0.2181
    9CHTO    H6 3807   5.760   2.977   0.428  0.1656  1.7939  1.6244
   10CHTO  H203 3808   5.596   5.895   3.000  0.6430 -1.0724 -0.5218
   10CHTO   O82 3809   5.503   5.891   2.992  0.6525 -0.2314 -1.0683
   10CHTO  C123 3810   5.450   6.018   3.028 -0.0260 -0.2188  0.2293
   10CHTO  H227 3811   5.482   6.088   2.949 -0.4083 -1.1761 -0.7892
   10CHTO   O77 3812   5.307   5.999   3.028 -0.4250  0.2243  0.0201
   10CHTO  C118 3813   5.230   6.118   3.037 -0.6826  0.2480 -0.2978
   10CHTO  H222 3814   5.258   6.183   2.953 -0.5507 -0.1717 -0.5748
   10CHTO  C125 3815   5.077   6.088   3.020  0.4223 -0.2329 -0.5758
   10CHTO   O84 3816   5.049   6.021   2.897  0.2012 -0.4437  0.0146
   10CHTO  H205 3817   4.975   5.962   2.898  1.0510 -1.4963  1.8780
   10CHTO  C114 3818   5.264   6.183   3.170 -0.5392  0.0166  0.1633
   10CHTO  H218 3819   5.229   6.114   3.247 -0.3448 -0.4771 -0.1841
   10CHTO  C116 3820   5.411   6.198   3.192 -0.1160 -0.5315 -0.3148
   10CHTO  H220 3821   5.449   6.273   3.118  1.7486 -0.8259  0.3005
   10CHTO   O79 3822   5.431   6.254   3.328  0.2809  0.5875  1.2900
   10CHTO  H201 3823   5.409   6.188   3.390 -1.1293 -0.5793 -0.4265
   10CHTO  C120 3824   5.489   6.063   3.168 -0.1237 -0.2128 -0.1240
   10CHTO  H224 3825   5.463   5.993   3.251  2.0663 -2.6931 -1.4563
   10CHTO   N21 3826   5.641   6.083   3.177 -0.0258  0.3108 -0.3516
   10CHTO  H211 3827   5.674   6.114   3.079  0.4648  2.5315  0.5056
   10CHTO  H212 3828   5.685   5.991   3.213  1.4864  0.9322 -0.5940
   10CHTO   O75 3829   5.192   6.305   3.160 -0.2904 -0.7495  0.5211
   10CHTO  C112 3830   5.146   6.393   3.295  0.3213  0.0922  0.3229
   10CHTO  H216 3831   5.198   6.490   3.292 -0.5353  0.5263 -1.4169
   10CHTO   O73 3832   5.177   6.318   3.415 -0.1877 -0.0776  0.7812
   10CHTO  C113 3833   5.119   6.372   3.532  0.1129  0.5076 -0.4334
   10CHTO  H217 3834   5.139   6.481   3.538 -2.0144  0.9752 -1.3860
   10CHTO  C124 3835   5.185   6.314   3.656  0.0451  0.1263 -0.1651
   10CHTO   O83 3836   5.328   6.341   3.658 -0.1118  0.0851  0.3911
   10CHTO  H204 3837   5.373   6.262   3.678  2.0004  1.2732  0.4957
   10CHTO  C109 3838   4.962   6.351   3.526  0.3924  0.5649  0.4328
   10CHTO  H213 3839   4.946   6.243   3.514  1.2683  0.6512 -1.7411
   10CHTO  C110 3840   4.907   6.429   3.402  0.0855  0.2186 -0.4398
   10CHTO  H214 3841   4.891   6.533   3.430 -1.4928 -0.0461 -0.3134
   10CHTO   O78 3842   4.770   6.384   3.383  0.7250  0.1234  0.2359
   10CHTO  H200 3843   4.772   6.299   3.343 -0.4478 -0.3083  1.0692
   10CHTO  C111 3844   4.985   6.419   3.270 -0.2853  0.0725 -0.3175
   10CHTO  H215 3845   4.949   6.327   3.222 -0.4040 -0.5375  0.9081
   10CHTO   N19 3846   4.969   6.528   3.172  0.5216 -0.0297 -0.0424
   10CHTO  H207 3847   5.059   6.541   3.114  0.6458  0.2475  0.2137
   10CHTO  H208 3848   4.877   6.507   3.119 -0.2903 -0.4393  1.4996
   10CHTO   O74 3849   4.898   6.393   3.655  0.3231 -0.3597  0.6562
   10CHTO  C115 3850   4.793   6.284   3.698  0.3727  0.1041 -0.4236
   10CHTO  H219 3851   4.731   6.255   3.613  0.8678 -0.0985 -0.7196
   10CHTO   O76 3852   4.867   6.153   3.739  0.0846  0.0490  0.3875
   10CHTO  C122 3853   4.916   6.144   3.869  0.7585  0.2091 -0.2267
   10CHTO  H226 3854   5.009   6.197   3.887 -0.0524  2.5108 -2.5853
   10CHTO  C126 3855   4.943   5.989   3.889 -1.4562 -0.5324 -0.0675
   10CHTO   O85 3856   4.820   5.917   3.871 -0.3574 -0.1678 -0.0969
   10CHTO  H206 3857   4.837   5.825   3.867  0.8781 -0.0971  2.5396
   10CHTO  C121 3858   4.811   6.207   3.976 -0.4923 -0.6393 -0.5856
   10CHTO  H225 3859   4.792   6.142   4.064 -1.7440  0.0192 -0.3480
   10CHTO   O81 3860   4.871   6.328   4.029  0.2487  0.4019 -0.1743
   10CHTO  H202 3861   4.847   6.337   4.119 -2.4246  2.3032 -1.0260
   10CHTO  C119 3862   4.671   6.241   3.912 -0.1614  0.0584  0.3821
   10CHTO  H223 3863   4.638   6.147   3.867 -0.8811 -0.3596  1.7692
   10CHTO  C117 3864   4.693   6.346   3.807  0.0149  0.2815  0.1278
   10CHTO  H221 3865   4.729   6.442   3.844  0.0932  0.5038 -0.5157
   10CHTO   N20 3866   4.566   6.373   3.741 -0.0930 -1.0654  0.2633
   10CHTO  H209 3867   4.513   6.441   3.807  0.1584 -0.8984  0.2959
   10CHTO  H210 3868   4.531   6.311   3.661 -0.9380 -2.0323  1.3749
   10CHTO   O80 3869   4.558   6.272   4.024 -0.4555  0.0868 -0.1260
   10CHTO  C103 3870   4.450   6.153   4.053 -0.0800 -0.5201 -0.3308
   10CHTO  H190 3871   4.444   6.097   3.959  0.3258 -2.0369  0.5390
   10CHTO  C101 3872   4.489   6.064   4.174  1.1344  0.4444 -0.7875
   10CHTO  H188 3873   4.499   6.116   4.269  0.1618 -1.2349  0.2666
   10CHTO   O68 3874   4.633   5.989   4.147  0.4116 -0.2571  0.2943
   10CHTO  H168 3875   4.701   6.048   4.119  1.0588 -1.0147  0.2438
   10CHTO   C99 3876   4.371   5.958   4.199 -0.4068  0.1221 -0.0396
   10CHTO  H186 3877   4.362   5.902   4.104 -1.1219  1.3771 -0.7099
   10CHTO   N17 3878   4.391   5.862   4.311  0.0098  0.0512  0.4418
   10CHTO  H174 3879   4.391   5.912   4.407  1.1601  0.4989  0.2161
   10CHTO  H175 3880   4.484   5.811   4.290 -1.4299 -2.7123  0.5354
   10CHTO   C97 3881   4.227   6.029   4.213  0.0302  0.2752 -0.5071
   10CHTO  H184 3882   4.224   6.083   4.309 -1.8461  1.0967 -1.0090
   10CHTO   O64 3883   4.210   6.127   4.104 -0.4226 -0.4861  0.0457
   10CHTO  C104 3884   4.310   6.226   4.080  0.0360 -0.1792  0.5803
   10CHTO  H191 3885   4.325   6.287   4.169  0.9141  0.6583 -0.1390
   10CHTO  C108 3886   4.261   6.326   3.971  0.0381  0.0703  0.0465
   10CHTO   O71 3887   4.354   6.439   3.973  0.7264 -0.1450 -0.0257
   10CHTO  H171 3888   4.349   6.501   3.904 -0.5680 -0.8816 -0.6188
   10CHTO   O62 3889   4.117   5.937   4.187  0.2093 -0.4918 -0.3506
   10CHTO   C91 3890   4.007   5.929   4.281  0.4099  0.5648 -0.0799
   10CHTO  H178 3891   4.029   5.975   4.378 -0.3370  2.8131 -0.9545
   10CHTO   C92 3892   3.967   5.773   4.290 -0.0543  0.2439  0.4304
   10CHTO  H179 3893   3.954   5.734   4.188  1.6513  1.0529 -0.1274
   10CHTO   O66 3894   4.079   5.699   4.347  0.2487  0.2854 -0.4182
   10CHTO  H166 3895   4.153   5.703   4.289  1.2625  0.2264  0.8470
   10CHTO   C93 3896   3.839   5.749   4.373 -0.5163  0.5249  0.2063
   10CHTO  H180 3897   3.881   5.744   4.474  0.9072  1.0031 -0.3543
   10CHTO   N16 3898   3.782   5.616   4.334 -0.3902  0.0957 -0.2583
   10CHTO  H172 3899   3.855   5.540   4.359  0.3157  0.7622 -0.2755
   10CHTO  H173 3900   3.687   5.604   4.383 -0.8767 -3.7728 -1.9322
   10CHTO   C94 3901   3.726   5.857   4.359  0.2860  0.6558  0.1060
   10CHTO  H181 3902   3.665   5.843   4.270 -0.3265  0.1848  0.5922
   10CHTO   O61 3903   3.777   5.987   4.352 -0.3092  0.1014 -0.0562
   10CHTO   C95 3904   3.876   6.010   4.242 -0.3091  0.6020 -0.4358
   10CHTO  H182 3905   3.831   5.976   4.148 -1.6935 -1.2857  0.8710
   10CHTO  C106 3906   3.914   6.170   4.220  0.4863 -0.0490  0.4360
   10CHTO   O69 3907   3.791   6.241   4.193 -0.0321  0.3628 -0.0507
   10CHTO  H169 3908   3.774   6.311   4.253  2.5919  0.0350  1.1400
   10CHTO   O63 3909   3.629   5.848   4.478 -0.2175 -0.0553  0.2224
   10CHTO   C96 3910   3.674   5.848   4.635 -0.7797  1.1387  0.0626
   10CHTO  H183 3911   3.782   5.836   4.640 -0.8828 -0.3343 -0.8588
   10CHTO   C98 3912   3.628   5.725   4.717 -0.3776  0.5551  0.8463
   10CHTO  H185 3913   3.518   5.731   4.720 -0.4161  2.1688 -2.4121
   10CHTO   O67 3914   3.657   5.594   4.663 -0.4165  0.1528  0.1349
   10CHTO  H167 3915   3.624   5.532   4.725  2.6351  0.5092  2.2681
   10CHTO  C102 3916   3.682   5.735   4.870  0.1860 -0.6322 -0.4124
   10CHTO  H189 3917   3.791   5.719   4.865  0.6471  0.3686  4.3353
   10CHTO   N18 3918   3.631   5.627   4.954 -0.4104  0.2374  0.3232
   10CHTO  H176 3919   3.680   5.632   5.051  0.8273  0.0186 -0.2804
   10CHTO  H177 3920   3.527   5.651   4.970 -0.1343  3.7150 -2.3997
   10CHTO  C105 3921   3.638   5.878   4.923  0.1774  0.4523 -0.5548
   10CHTO  H192 3922   3.530   5.884   4.931  0.1973  0.8047 -0.5517
   10CHTO   O65 3923   3.689   5.985   4.845  0.1772  0.2515  0.7782
   10CHTO  C100 3924   3.638   5.979   4.709 -0.1616 -0.8284  0.9038
   10CHTO  H187 3925   3.528   5.986   4.700  0.0562  1.9107 -0.3952
   10CHTO  C107 3926   3.684   6.116   4.638  0.1275  0.6254 -0.1761
   10CHTO   O70 3927   3.825   6.119   4.609  0.8091  0.0446  0.6652
   10CHTO  H170 3928   3.878   6.143   4.682  1.9099  1.3563 -0.5318
   10CHTO   O57 3929   3.704   5.904   5.082 -0.4384 -0.7858 -0.0266
   10CHTO   C85 3930   3.798   6.011   5.116  0.1351  0.7072 -0.0087
   10CHTO  H157 3931   3.756   6.090   5.050 -1.2265 -0.2458 -0.3115
   10CHTO   C83 3932   3.933   5.986   5.059  0.0806 -0.1689 -0.1657
   10CHTO  H155 3933   3.923   5.974   4.951 -1.7952 -3.0824  0.2614
   10CHTO   O56 3934   3.978   5.859   5.101  0.3260  0.1051  0.2508
   10CHTO  H135 3935   4.033   5.866   5.177  0.3050  1.6923  0.1247
   10CHTO   C81 3936   4.035   6.095   5.095  0.4318 -0.5614 -0.3209
   10CHTO  H153 3937   4.000   6.185   5.044 -2.1131 -1.7536 -0.7456
   10CHTO   N14 3938   4.171   6.079   5.049 -0.2869 -0.0464  0.3155
   10CHTO  H141 3939   4.235   6.119   5.125 -2.8869  3.3217  0.8268
   10CHTO  H142 3940   4.189   5.973   5.051  0.2718  0.0402 -0.2863
   10CHTO   C79 3941   4.022   6.120   5.248  0.2884 -0.2251 -0.0734
   10CHTO  H151 3942   4.087   6.204   5.273 -0.9493  1.3347 -1.9581
   10CHTO   O52 3943   3.888   6.146   5.291  0.1925 -0.4105  0.3659
   10CHTO   C86 3944   3.794   6.045   5.262 -0.1883  0.2462 -0.5788
   10CHTO  H158 3945   3.820   5.963   5.332 -0.9290 -0.5862 -1.2689
   10CHTO   C90 3946   3.661   6.094   5.310  0.0471 -0.1741 -0.8317
   10CHTO   O60 3947   3.664   6.135   5.448 -0.1636  0.2331 -0.2835
   10CHTO  H138 3948   3.653   6.060   5.503 -0.7586  0.0312 -0.6760
   10CHTO   O50 3949   4.069   6.003   5.324 -0.4660 -0.4181 -0.5165
   10CHTO   C73 3950   4.105   5.923   5.443 -0.6393  0.3719  0.7218
   10CHTO  H145 3951   4.089   5.817   5.417 -0.7312  0.5806 -0.0941
   10CHTO   C74 3952   4.028   5.967   5.567  0.2713  0.9402  0.1361
   10CHTO  H146 3953   3.921   5.951   5.551  0.2065  0.9319  0.5612
   10CHTO   O54 3954   4.064   5.887   5.683 -0.3607 -0.5005 -0.0433
   10CHTO  H133 3955   4.073   5.796   5.666  1.6514 -0.5262  1.0434
   10CHTO   C75 3956   4.059   6.110   5.602  0.2097  0.1352 -0.2089
   10CHTO  H147 3957   4.022   6.177   5.523 -0.2136 -1.5727 -1.4827
   10CHTO   N13 3958   3.983   6.172   5.716 -0.1760 -0.4194  0.3649
   10CHTO  H139 3959   4.001   6.120   5.808 -1.2076 -1.5051 -0.0257
   10CHTO  H140 3960   3.992   6.279   5.720  2.3549 -0.4731 -2.4053
   10CHTO   C76 3961   4.217   6.128   5.622 -0.7040 -0.6290 -0.1827
   10CHTO  H148 3962   4.250   6.077   5.713 -0.3060  1.5911  0.9600
   10CHTO   O49 3963   4.295   6.074   5.510 -0.7132 -0.2338  0.7300
   10CHTO   C77 3964   4.254   5.944   5.466  0.4718  0.0503  0.1478
   10CHTO  H149 3965   4.294   5.869   5.533 -0.8714  1.3387  2.4547
   10CHTO   C88 3966   4.328   5.916   5.336 -0.3435  0.2294  0.1505
   10CHTO   O58 3967   4.470   5.906   5.349  0.0785  0.1913  0.1303
   10CHTO  H136 3968   4.480   5.889   5.441 -1.3381  0.1016  0.2794
   10CHTO   O51 3969   4.249   6.300   5.625  0.3191  0.1697  0.1541
   10CHTO   C78 3970   4.377   6.338   5.730 -0.2071  0.0854  0.0804
   10CHTO  H150 3971   4.436   6.248   5.757 -0.5507  0.3701  1.8925
   10CHTO   C80 3972   4.316   6.398   5.860 -0.1137  0.0512 -0.3220
   10CHTO  H152 3973   4.239   6.474   5.838 -2.3604 -1.3243  2.4794
   10CHTO   O55 3974   4.243   6.294   5.929 -0.1437  0.4554 -0.5978
   10CHTO  H134 3975   4.152   6.299   5.907 -0.1706  0.0554 -0.5827
   10CHTO   C84 3976   4.430   6.453   5.951  0.0803 -0.4256 -0.1774
   10CHTO  H156 3977   4.509   6.384   5.981  2.3750  2.3356  0.3206
   10CHTO   N15 3978   4.374   6.513   6.074  0.1226  0.2872 -0.0636
   10CHTO  H143 3979   4.316   6.438   6.125  0.8950 -1.9495 -2.3731
   10CHTO  H144 3980   4.315   6.602   6.066 -0.9908 -0.0584  3.3901
   10CHTO   C87 3981   4.515   6.563   5.881  0.1737 -0.9152 -0.5194
   10CHTO  H159 3982   4.457   6.654   5.868 -1.4100 -2.0242 -1.4222
   10CHTO   O53 3983   4.548   6.504   5.738  0.2779  0.1454  0.0581
   10CHTO   C82 3984   4.443   6.453   5.654 -0.1342 -0.2498 -0.3686
   10CHTO  H154 3985   4.372   6.531   5.625 -0.1189  1.0319  2.8823
   10CHTO   C89 3986   4.517   6.397   5.522  0.3022 -0.1464 -0.1188
   10CHTO   O59 3987   4.562   6.501   5.438 -0.1896 -0.1031 -0.1571
   10CHTO  H137 3988   4.497   6.562   5.406 -1.6460 -0.6165  1.7076
   10CHTO   O45 3989   4.654   6.602   5.967  0.0788 -0.6356 -0.0814
   10CHTO   C67 3990   4.712   6.735   5.934 -0.6455  0.5081 -0.3748
   10CHTO  H124 3991   4.637   6.805   5.900 -0.2171  1.0221 -0.2719
   10CHTO   C65 3992   4.780   6.786   6.063  0.1730  0.0229  0.2222
   10CHTO  H122 3993   4.716   6.761   6.148  1.3698  0.1293  1.1781
   10CHTO   O44 3994   4.799   6.928   6.057  0.4766 -0.1966 -0.7462
   10CHTO  H102 3995   4.849   6.967   6.126 -0.5770  1.0653 -0.6806
   10CHTO   C63 3996   4.918   6.713   6.071 -0.1072  0.4593 -0.3508
   10CHTO  H120 3997   4.905   6.608   6.046 -0.7335  0.1125  1.4007
   10CHTO   N11 3998   4.978   6.706   6.206 -0.4345  0.4250 -0.0132
   10CHTO  H108 3999   5.033   6.793   6.235 -0.8597  0.6793  0.0252
   10CHTO  H109 4000   4.914   6.665   6.281  1.1686 -0.9897  0.6253
   10CHTO   C61 4001   5.004   6.774   5.956  0.0685 -0.8677  0.2175
   10CHTO  H118 4002   5.091   6.709   5.938 -0.3092 -1.3668  0.1933
   10CHTO   O40 4003   4.930   6.790   5.826 -0.5187 -0.1951  0.1628
   10CHTO   C68 4004   4.806   6.716   5.815  0.1766  0.3989  0.0880
   10CHTO  H125 4005   4.846   6.613   5.804 -0.2081 -0.0002  2.1953
   10CHTO   C72 4006   4.745   6.753   5.681 -0.3944 -0.0717 -1.4147
   10CHTO   O48 4007   4.817   6.691   5.570  0.0293 -0.2854 -0.2896
   10CHTO  H105 4008   4.896   6.734   5.543 -0.3570  0.5664 -0.0799
   10CHTO   O38 4009   5.062   6.907   5.980 -0.0359 -0.2162 -0.0558
   10CHTO   C55 4010   5.168   6.941   5.891 -0.5030 -0.3517 -0.6490
   10CHTO  H112 4011   5.182   6.893   5.794  1.3353 -0.4196 -0.3670
   10CHTO   C56 4012   5.293   6.925   5.972 -0.2323 -0.1113 -0.5515
   10CHTO  H113 4013   5.283   6.988   6.061  1.1025 -0.3161 -0.2471
   10CHTO   O42 4014   5.306   6.792   6.018 -0.3065  0.2453  0.1021
   10CHTO  H100 4015   5.392   6.794   6.055 -0.5630  1.3373  0.6742
   10CHTO   C57 4016   5.416   6.982   5.897 -0.0551  0.3129 -0.1888
   10CHTO  H114 4017   5.419   6.926   5.804 -2.2202  0.5100 -0.3868
   10CHTO   N10 4018   5.545   6.970   5.973  0.4258  0.1490  0.4435
   10CHTO  H106 4019   5.560   6.872   6.015 -2.0468 -0.5822 -0.2856
   10CHTO  H107 4020   5.548   7.039   6.056  0.2867  1.2644 -0.4634
   10CHTO   C58 4021   5.387   7.127   5.861 -0.0310  0.1764 -0.6365
   10CHTO  H115 4022   5.402   7.189   5.952 -1.1990  1.2915 -1.1861
   10CHTO   O37 4023   5.263   7.159   5.800  0.2575 -0.2999  0.1756
   10CHTO   C59 4024   5.145   7.095   5.854 -0.2504 -0.4701  0.2223
   10CHTO  H116 4025   5.120   7.156   5.940 -1.2365  0.6365 -0.8336
   10CHTO   C70 4026   5.039   7.110   5.744 -0.6592 -0.1449 -0.1923
   10CHTO   O46 4027   4.945   7.214   5.765  0.0432 -0.2526 -0.6156
   10CHTO  H103 4028   4.877   7.216   5.701  0.0567  1.4352 -0.6138
   10CHTO   O39 4029   5.495   7.186   5.737 -0.3698 -0.1850 -0.4490
   10CHTO   C60 4030   5.513   7.325   5.742  0.2246  0.7177 -0.2244
   10CHTO  H117 4031   5.411   7.358   5.758 -0.6282 -2.3078  0.8998
   10CHTO   C62 4032   5.627   7.365   5.843 -0.5321  0.9827 -0.6339
   10CHTO  H119 4033   5.571   7.346   5.937  0.5704 -2.8253 -0.6799
   10CHTO   O43 4034   5.750   7.286   5.850 -0.3494 -0.3038 -0.0549
   10CHTO  H101 4035   5.776   7.261   5.763  0.8763 -0.9121  0.4890
   10CHTO   C66 4036   5.660   7.524   5.833  0.5798 -0.7459 -0.2549
   10CHTO  H123 4037   5.565   7.577   5.837  0.4338 -0.9778 -0.5839
   10CHTO   N12 4038   5.743   7.568   5.945  0.3368  0.3713 -0.4237
   10CHTO  H110 4039   5.847   7.588   5.922  0.2322 -0.3555 -1.6056
   10CHTO  H111 4040   5.727   7.519   6.039 -1.7142 -0.5634 -1.2318
   10CHTO   C69 4041   5.721   7.540   5.693  0.5016  0.4397  0.5869
   10CHTO  H126 4042   5.811   7.475   5.681  0.2465  0.3422 -0.9297
   10CHTO   O41 4043   5.599   7.510   5.593 -0.5357  0.2474  0.3660
   10CHTO   C64 4044   5.549   7.368   5.599 -0.2943  0.5801 -0.3338
   10CHTO  H121 4045   5.637   7.306   5.572 -0.4224  0.4611 -0.4779
   10CHTO   C71 4046   5.436   7.346   5.497 -0.3122 -0.4054  0.1081
   10CHTO   O47 4047   5.319   7.418   5.531  0.0103 -0.0749  0.6029
   10CHTO  H104 4048   5.274   7.449   5.455  1.4456 -1.9305 -1.0576
   10CHTO   O34 4049   5.766   7.690   5.669  0.4300  0.1336 -0.1753
   10CHTO   C49 4050   5.749   7.859   5.649  0.1366 -0.2372 -0.3386
   10CHTO   H91 4051   5.787   7.901   5.742 -0.3350  1.9503 -1.1127
   10CHTO   C47 4052   5.602   7.894   5.629 -0.4894  0.0377 -0.6502
   10CHTO   H89 4053   5.588   8.001   5.656  1.3378  0.0635  0.2918
   10CHTO   O33 4054   5.528   7.807   5.721 -0.5354 -0.6162  0.6152
   10CHTO   H70 4055   5.451   7.853   5.748  0.7761  1.8584  0.3621
   10CHTO   C45 4056   5.556   7.862   5.478 -0.3119  0.6945 -0.0996
   10CHTO   H87 4057   5.556   7.752   5.467 -0.8494  0.8431 -1.7551
   10CHTO    N8 4058   5.421   7.911   5.455  0.1570  0.4573  0.0570
   10CHTO   H75 4059   5.419   8.019   5.461 -0.8044  0.4421  0.0221
   10CHTO   H76 4060   5.369   7.867   5.538  1.4838 -0.2613  0.5326
   10CHTO   C43 4061   5.654   7.927   5.366  0.7558  0.3211  0.1264
   10CHTO   H85 4062   5.630   7.889   5.267 -1.6077  1.7205  0.1302
   10CHTO   O29 4063   5.788   7.889   5.400  0.1361 -0.2087  0.0393
   10CHTO   C50 4064   5.837   7.912   5.536  0.0458  0.1288  0.4862
   10CHTO   H92 4065   5.939   7.871   5.541  0.5312  1.1371 -0.6863
   10CHTO   C54 4066   5.876   8.061   5.548 -0.1981 -0.1293  0.1853
   10CHTO   O36 4067   5.984   8.089   5.457 -0.3102  0.6098  0.2549
   10CHTO   H72 4068   5.969   8.169   5.410  0.5523 -0.1597 -1.3661
   10CHTO   O27 4069   5.637   8.072   5.348  0.2112  0.1871 -0.1404
   10CHTO   C37 4070   5.643   8.192   5.270  0.4187 -0.2746  0.1922
   10CHTO   H79 4071   5.743   8.237   5.273 -0.3080  1.4982 -0.8403
   10CHTO   C38 4072   5.596   8.177   5.122 -0.5763  0.3470  0.8344
   10CHTO   H80 4073   5.498   8.127   5.122  0.8429 -2.5360  1.2514
   10CHTO   O31 4074   5.696   8.094   5.062 -0.9452 -0.1175  0.1238
   10CHTO   H68 4075   5.655   8.022   5.019 -1.4896  1.1024 -1.4287
   10CHTO   C39 4076   5.574   8.307   5.044 -0.1624 -0.2252 -0.2556
   10CHTO   H81 4077   5.670   8.359   5.042  0.5835 -1.5600  0.2110
   10CHTO    N7 4078   5.516   8.287   4.905 -0.1761 -0.2467  0.8140
   10CHTO   H73 4079   5.577   8.257   4.822  1.0559  1.8497  0.9289
   10CHTO   H74 4080   5.426   8.229   4.918 -0.7636  0.6905  1.0382
   10CHTO   C40 4081   5.484   8.399   5.137 -0.5131 -0.1115  0.3249
   10CHTO   H82 4082   5.387   8.350   5.136 -2.0316  2.6931 -3.0623
   10CHTO   O26 4083   5.533   8.411   5.268 -0.1101 -0.2048  0.9090
   10CHTO   C41 4084   5.545   8.288   5.348  0.2205  0.3674  0.0643
   10CHTO   H83 4085   5.453   8.232   5.372  0.6021  0.2677  1.3698
   10CHTO   C52 4086   5.609   8.322   5.486  0.0673 -0.2064  0.7174
   10CHTO   O35 4087   5.542   8.437   5.567  0.3323  0.3397  0.3234
   10CHTO   H71 4088   5.475   8.407   5.624 -0.3330 -0.1508 -0.6903
   10CHTO   O28 4089   5.467   8.532   5.091  0.8313  0.3257  0.3282
   10CHTO   C42 4090   5.346   8.617   5.098 -0.2365 -0.2259  0.4983
   10CHTO   H84 4091   5.273   8.555   5.151 -0.9348  0.7066  0.6409
   10CHTO   C44 4092   5.280   8.657   4.962 -0.6135 -0.1945 -0.3187
   10CHTO   H86 4093   5.358   8.699   4.899  0.4764 -1.3679  0.2367
   10CHTO   O32 4094   5.236   8.530   4.899 -0.0797 -0.0649  0.3178
   10CHTO   H69 4095   5.147   8.517   4.925  0.6722  0.4177  3.2045
   10CHTO   C48 4096   5.158   8.760   4.971  0.5750  0.4884 -0.1070
   10CHTO   H90 4097   5.080   8.718   5.035  1.2214  0.6722  0.8109
   10CHTO    N9 4098   5.094   8.785   4.842 -0.1768  0.6039  0.1625
   10CHTO   H77 4099   5.077   8.693   4.788 -2.2860  0.0024  1.7575
   10CHTO   H78 4100   4.994   8.826   4.852 -0.9526 -1.1263 -0.3479
   10CHTO   C51 4101   5.195   8.881   5.069 -0.6116 -0.9270  0.9986
   10CHTO   H93 4102   5.276   8.930   5.016 -2.2630  2.9592  1.8665
   10CHTO   O30 4103   5.238   8.828   5.192 -0.7047  0.2294 -0.0241
   10CHTO   C46 4104   5.359   8.751   5.182  0.3717  0.4190  0.1183
   10CHTO   H88 4105   5.448   8.804   5.148  0.1310  0.4456 -0.4819
   10CHTO   C53 4106   5.392   8.709   5.324 -0.9293 -0.0252 -0.1215
   10CHTO   O72 4107   5.452   8.808   5.402 -0.2551 -0.0897 -0.2561
   10CHTO  H199 4108   5.401   8.824   5.479 -0.0522  0.0216 -0.1436
   10CHTO   O22 4109   5.084   8.969   5.098  0.5590 -0.0587 -0.0864
   10CHTO   C31 4110   5.108   9.117   5.116  0.4999  0.0851 -0.5159
   10CHTO   H59 4111   5.010   9.159   5.146  1.2295  1.7422 -0.4138
   10CHTO   C29 4112   5.206   9.140   5.236 -0.7553 -0.6511  0.1278
   10CHTO   H57 4113   5.302   9.099   5.202  0.7842  0.8227  2.5192
   10CHTO   O21 4114   5.155   9.081   5.359 -0.0540 -0.1646  0.8245
   10CHTO   H37 4115   5.119   9.141   5.422 -0.5973  0.0045  0.3544
   10CHTO   C27 4116   5.229   9.300   5.259  0.5160 -0.2017  1.0377
   10CHTO   H55 4117   5.138   9.347   5.301  0.9588 -1.2524  3.2418
   10CHTO    N5 4118   5.344   9.320   5.351 -0.2620 -0.0919 -0.5479
   10CHTO   H43 4119   5.424   9.357   5.288 -0.3694  3.5630  1.3337
   10CHTO   H44 4120   5.322   9.383   5.435 -0.1915  0.2139 -0.7569
   10CHTO   C25 4121   5.244   9.361   5.116 -0.0000  0.1057  0.1587
   10CHTO   H53 4122   5.340   9.324   5.076 -1.1330 -1.7926 -0.8736
   10CHTO   O17 4123   5.147   9.330   5.012  0.1451 -0.1822 -0.3596
   10CHTO   C32 4124   5.144   9.186   4.994 -0.4442  0.1563  0.0252
   10CHTO   H60 4125   5.240   9.148   4.959 -0.6100  0.1205 -0.3958
   10CHTO   C36 4126   5.040   9.157   4.881  0.2676 -0.6928 -0.2213
   10CHTO   O25 4127   4.905   9.191   4.917  0.3413  0.4892  0.2632
   10CHTO   H40 4128   4.891   9.284   4.915  1.9775  0.7915  1.6458
   10CHTO   O15 4129   5.252   9.513   5.130  0.1025  0.3463  0.3383
   10CHTO   C19 4130   5.286   9.613   5.030 -0.6347 -0.3682  0.4527
   10CHTO   H47 4131   5.272   9.564   4.932  3.2871  0.0033 -0.3602
   10CHTO   C20 4132   5.197   9.740   5.031  0.3276  0.5892  0.6755
   10CHTO   H48 4133   5.196   9.787   5.131 -3.1709  0.6426  0.7025
   10CHTO   O19 4134   5.060   9.692   5.020  0.0755  0.0572 -0.4092
   10CHTO   H35 4135   5.029   9.659   5.102  2.1177  0.1299  0.4308
   10CHTO   C21 4136   5.230   9.846   4.918  0.7678  0.0124 -0.2426
   10CHTO   H49 4137   5.210   9.798   4.822  0.3679 -1.1505  0.4135
   10CHTO    N4 4138   5.141   9.965   4.915 -0.3492  0.3223  0.0266
   10CHTO   H41 4139   5.060   9.953   4.845 -1.2696  2.0285  0.7929
   10CHTO   H42 4140   5.104   9.990   5.013 -2.9981  0.7413 -1.0398
   10CHTO   C22 4141   5.384   9.878   4.922 -0.3284  0.8257 -0.1079
   10CHTO   H50 4142   5.398   9.933   5.015 -1.1063  2.0126 -0.6871
   10CHTO   O14 4143   5.460   9.757   4.925  0.5085 -0.5303 -1.0013
   10CHTO   C23 4144   5.432   9.668   5.031 -0.7379  0.0689 -0.2662
   10CHTO   H51 4145   5.453   9.727   5.121  1.0894  0.8162 -1.1579
   10CHTO   C34 4146   5.531   9.555   5.017  0.5021  0.9005  0.8450
   10CHTO   O23 4147   5.540   9.506   5.152  0.0059  0.2799  0.5108
   10CHTO   H38 4148   5.611   9.546   5.199  0.5082 -0.4005  0.3395
   10CHTO   O16 4149   5.442   9.937   4.803  0.6291 -0.5265 -0.1425
   10CHTO   C24 4150   5.591   9.984   4.821 -0.4204 -0.3769  0.6043
   10CHTO   H52 4151   5.643   9.920   4.893  0.8287 -0.9414 -0.7766
   10CHTO   C26 4152   5.600  10.140   4.843  0.1039  0.4721  0.1994
   10CHTO   H54 4153   5.534  10.189   4.769 -0.1867 -0.0250  0.1334
   10CHTO   O20 4154   5.557  10.180   4.979 -0.7884  0.4950  0.1361
   10CHTO   H36 4155   5.464  10.174   4.974 -0.7225  0.0709 -0.8499
   10CHTO   C30 4156   5.746  10.198   4.823  0.4294 -0.5085 -0.1557
   10CHTO   H58 4157   5.812  10.170   4.906 -0.5521 -0.5804  0.6211
   10CHTO    N6 4158   5.746  10.350   4.830  0.2621  0.1818 -0.2496
   10CHTO   H45 4159   5.710  10.383   4.926 -2.0767  1.1604 -1.4451
   10CHTO   H46 4160   5.845  10.390   4.813 -0.4637  1.3652 -1.7819
   10CHTO   C33 4161   5.811  10.144   4.693  0.0503  0.3103  0.3558
   10CHTO   H61 4162   5.766  10.174   4.597 -1.5539 -3.5399 -0.1992
   10CHTO   O18 4163   5.796  10.000   4.698  0.3481  0.0204  0.8052
   10CHTO   C28 4164   5.662   9.951   4.684 -0.2579  0.3822  0.3562
   10CHTO   H56 4165   5.603   9.999   4.606 -0.9348 -1.4174 -0.2652
   10CHTO   C35 4166   5.659   9.804   4.643 -0.4235 -0.0670 -0.5779
   10CHTO   O24 4167   5.658   9.790   4.499 -0.1347  0.0121 -0.1838
   10CHTO   H39 4168   5.731   9.820   4.449 -0.4284  0.2912 -0.4531
   10CHTO    O9 4169   5.953  10.185   4.680 -0.1254 -0.2278 -0.2645
   10CHTO   C13 4170   6.041  10.101   4.548 -0.1913 -0.3050 -0.5412
   10CHTO   H26 4171   5.971  10.018   4.525  0.5867 -1.4042  0.9429
   10CHTO   C11 4172   6.172  10.046   4.611 -1.0772  0.2032  0.1296
   10CHTO   H24 4173   6.142   9.959   4.670 -1.9063  0.8325  0.6534
   10CHTO    O8 4174   6.220  10.141   4.702 -0.4635 -0.4799  0.3441
   10CHTO    H3 4175   6.246  10.102   4.783 -2.7713 -3.2513 -0.1878
   10CHTO    C9 4176   6.275  10.003   4.501 -0.6803 -0.1683 -0.0339
   10CHTO   H22 4177   6.229   9.930   4.432  0.5396  1.5892 -2.8121
   10CHTO    N2 4178   6.395   9.936   4.561  0.0308  0.1640 -0.2592
   10CHTO   H10 4179   6.440   9.999   4.636 -0.8516 -0.9366  1.2160
   10CHTO   H11 4180   6.467   9.899   4.490  2.0257 -0.4196  2.0310
   10CHTO    C7 4181   6.311  10.125   4.411  0.2504  0.0050  0.0067
   10CHTO   H20 4182   6.321  10.090   4.306  4.9933 -1.9428  0.9640
   10CHTO    O4 4183   6.213  10.229   4.423  0.4930 -0.4968  0.2744
   10CHTO   C14 4184   6.074  10.193   4.421  0.1539 -0.2854  0.3972
   10CHTO   H27 4185   6.054  10.137   4.327 -0.6086 -2.3302  1.7412
   10CHTO   C18 4186   5.981  10.321   4.426 -0.4604 -0.3692  0.3677
   10CHTO   O13 4187   6.002  10.432   4.334 -0.3549 -0.1514 -0.3473
   10CHTO    H7 4188   5.930  10.432   4.275 -1.7472  1.6417  1.2717
   10CHTO    O2 4189   6.476  10.202   4.447  0.0397 -0.7263 -0.5032
   10CHTO    C1 4190   6.547  10.237   4.327  0.4691  0.2564 -0.2870
   10CHTO   H14 4191   6.641  10.287   4.359  1.4960 -1.1471 -1.0354
   10CHTO    C2 4192   6.467  10.338   4.219  0.4199  0.1586  0.0799
   10CHTO   H15 4193   6.358  10.321   4.220  0.4451 -0.1146 -1.1038
   10CHTO    O6 4194   6.488  10.472   4.267 -0.1005  0.5461 -0.3854
   10CHTO    H1 4195   6.476  10.541   4.204  0.2152  0.6636 -0.3166
   10CHTO    C3 4196   6.523  10.332   4.065  0.0965  0.6714  0.3577
   10CHTO   H16 4197   6.617  10.386   4.051  0.3915  1.0874  3.5436
   10CHTO    N1 4198   6.431  10.406   3.973  0.0829  0.1935 -0.4219
   10CHTO    H8 4199   6.478  10.408   3.876  2.6689  1.6931  0.8045
   10CHTO    H9 4200   6.345  10.341   3.975  1.3879 -1.5273  2.0317
   10CHTO    C4 4201   6.549  10.185   4.027  0.4221 -0.6885  0.3420
   10CHTO   H17 4202   6.457  10.129   4.043  0.3070 -0.7264 -0.4110
   10CHTO    O1 4203   6.655  10.138   4.117  0.4404  0.3615  0.3871
   10CHTO    C5 4204   6.591  10.110   4.244 -0.3316  0.6131  0.4161
   10CHTO   H18 4205   6.507  10.047   4.219  1.2790 -1.0874 -0.8059
   10CHTO   C16 4206   6.683  10.018   4.329 -0.0996 -0.8459  0.6474
   10CHTO   O11 4207   6.804  10.095   4.356 -0.3912  0.1614 -0.3565
   10CHTO    H5 4208   6.816  10.090   4.449 -2.0141  1.5410 -0.0366
   10CHTO    O3 4209   6.604  10.165   3.891 -0.1342  0.2390  0.3960
   10CHTO    C6 4210   6.572  10.036   3.817  0.4293  0.2698 -0.3695
   10CHTO   H19 4211   6.534   9.951   3.874  2.5154 -1.5508 -1.6580
   10CHTO    C8 4212   6.455  10.062   3.718  0.6076 -0.5852  0.1928
   10CHTO   H21 4213   6.480  10.149   3.658  1.4150 -0.3936  0.7941
   10CHTO    O7 4214   6.333  10.094   3.793 -0.5245 -0.3774  0.1703
   10CHTO    H2 4215   6.322  10.185   3.811 -0.6848 -0.0108 -1.6822
   10CHTO   C12 4216   6.429   9.941   3.625  0.1382  0.0366 -0.7599
   10CHTO   H25 4217   6.386   9.860   3.688 -0.0559  0.4262 -0.3891
   10CHTO    N3 4218   6.318   9.967   3.532  0.7201 -0.3542  0.3628
   10CHTO   H12 4219   6.364   9.990   3.437  3.1106  0.2656  1.6276
   10CHTO   H13 4220   6.260  10.052   3.563  1.6046  0.6879 -0.7683
   10CHTO   C15 4221   6.557   9.891   3.558 -0.6320 -0.6070 -0.9405
   10CHTO   H28 4222   6.588   9.963   3.482 -2.5494  0.0085 -1.1801
   10CHTO   O10 4223   6.527   9.734   3.501  0.2575 -0.2648 -0.1942
   10CHTO    H4 4224   6.602   9.678   3.512  0.4931 -0.3094 -1.8814
   10CHTO    O5 4225   6.667   9.871   3.656  0.0267  0.4112  0.1872
   10CHTO   C10 4226   6.693   9.988   3.733  0.3845  0.2146  0.0076
   10CHTO   H23 4227   6.736  10.067   3.672 -0.2641  0.2605 -0.3954
   10CHTO   C17 4228   6.798   9.955   3.840 -0.0882  0.1392 -0.3828
   10CHTO   O12 4229   6.911  10.042   3.834 -0.2753  0.0776 -0.1987
   10CHTO    H6 4230   6.962  10.050   3.912  0.2117  2.9976 -0.7691
   11CHTO  H203 4231   7.653   4.364   1.168  0.0678 -3.9090  1.4606
   11CHTO   O82 4232   7.579   4.358   1.110  0.2653 -0.3029  0.6737
   11CHTO  C123 4233   7.529   4.485   1.052 -0.4371 -0.1693 -0.4674
   11CHTO  H227 4234   7.615   4.530   1.000 -0.2523 -1.3843 -1.2123
   11CHTO   O77 4235   7.412   4.438   0.962 -0.3277 -0.9391  0.6458
   11CHTO  C118 4236   7.356   4.553   0.895  0.2594 -0.5586  0.3669
   11CHTO  H222 4237   7.430   4.616   0.843 -1.6596  1.0925 -0.4613
   11CHTO  C125 4238   7.254   4.497   0.790  0.1086  0.1654  0.2660
   11CHTO   O84 4239   7.315   4.475   0.662 -0.9028 -0.3177 -0.1158
   11CHTO  H205 4240   7.269   4.515   0.591 -1.1208  1.0199  0.7637
   11CHTO  C114 4241   7.290   4.643   1.001  0.1042  0.4395 -0.2155
   11CHTO  H218 4242   7.208   4.594   1.052  1.5989 -1.6657  0.2253
   11CHTO  C116 4243   7.392   4.696   1.108 -0.1180 -0.0930 -0.1737
   11CHTO  H220 4244   7.463   4.759   1.050  1.4692 -0.6758  1.1096
   11CHTO   O79 4245   7.314   4.765   1.207  0.0649 -0.3394  0.0278
   11CHTO  H201 4246   7.285   4.850   1.180 -0.4265 -0.3659  0.4645
   11CHTO  C120 4247   7.476   4.580   1.169 -0.6923 -0.6178  0.0978
   11CHTO  H224 4248   7.408   4.522   1.234 -3.2088  1.2497 -0.7992
   11CHTO   N21 4249   7.588   4.631   1.255  0.0623 -0.1727  0.0759
   11CHTO  H211 4250   7.628   4.723   1.215  0.5759  0.3822  1.8305
   11CHTO  H212 4251   7.550   4.645   1.355 -0.5516  0.0283 -0.1807
   11CHTO   O75 4252   7.231   4.750   0.922 -0.3487  0.0827  0.2921
   11CHTO  C112 4253   7.097   4.833   1.006 -0.0994 -0.0176  0.1557
   11CHTO  H216 4254   7.117   4.822   1.113  0.8484 -2.1357 -0.2170
   11CHTO   O73 4255   6.978   4.764   0.961  0.2139 -0.3991 -0.3492
   11CHTO  C113 4256   6.868   4.798   1.038  0.1242  0.2025  0.2998
   11CHTO  H217 4257   6.880   4.784   1.147  0.5530  1.4050  0.4104
   11CHTO  C124 4258   6.761   4.694   0.989 -0.0209  0.2740  0.1665
   11CHTO   O83 4259   6.637   4.682   1.058  0.3313 -0.4256 -0.2592
   11CHTO  H204 4260   6.568   4.648   1.005 -1.2634  2.6725 -0.2666
   11CHTO  C109 4261   6.829   4.939   1.004 -0.0057  0.3805 -0.3602
   11CHTO  H213 4262   6.803   4.943   0.897  2.0529  3.2321 -0.8026
   11CHTO  C110 4263   6.947   5.033   1.028  0.3330  0.1740  0.7162
   11CHTO  H214 4264   6.952   5.061   1.133 -3.5511  1.7646  0.5314
   11CHTO   O78 4265   6.906   5.161   0.975  0.7113  0.5236 -0.1905
   11CHTO  H200 4266   6.973   5.226   0.966  1.1867  0.3385  1.7310
   11CHTO  C111 4267   7.083   4.984   0.963  0.2763  0.8610  0.5080
   11CHTO  H215 4268   7.072   4.976   0.854 -3.3726 -1.9299  1.0031
   11CHTO   N19 4269   7.203   5.064   0.999  0.0307 -0.0495 -0.3775
   11CHTO  H207 4270   7.263   5.080   0.910  2.5111 -2.2790  0.8381
   11CHTO  H208 4271   7.175   5.151   1.057 -0.2679 -1.3010  1.3947
   11CHTO   O74 4272   6.710   4.969   1.084  0.7744 -0.3245  0.3572
   11CHTO  C115 4273   6.580   5.017   0.993 -0.1619  0.1266 -0.2726
   11CHTO  H219 4274   6.607   5.015   0.888  2.2513  0.0868  0.2994
   11CHTO   O76 4275   6.458   4.917   1.003  0.6980 -0.1853 -0.6081
   11CHTO  C122 4276   6.404   4.887   1.132 -0.5327 -0.6423  0.2315
   11CHTO  H226 4277   6.442   4.793   1.172  2.2619  0.1132 -0.5700
   11CHTO  C126 4278   6.242   4.870   1.115  0.6873  0.2768  0.0905
   11CHTO   O85 4279   6.158   4.848   1.225  0.4777  0.1253  0.1949
   11CHTO  H206 4280   6.121   4.763   1.220  0.5555  0.1262 -0.4504
   11CHTO  C121 4281   6.425   5.014   1.227  0.0677  0.4719 -0.6101
   11CHTO  H225 4282   6.343   5.024   1.301 -0.6118  2.0310 -1.5470
   11CHTO   O81 4283   6.539   4.990   1.308  0.9549 -0.1025  0.0226
   11CHTO  H202 4284   6.515   4.949   1.389  0.2219  1.4746  0.6269
   11CHTO  C119 4285   6.426   5.148   1.143 -0.9230  0.0102 -0.1079
   11CHTO  H223 4286   6.335   5.135   1.085 -1.7535  0.1657  1.1321
   11CHTO  C117 4287   6.544   5.160   1.043  0.1718 -0.2557 -0.2716
   11CHTO  H221 4288   6.628   5.211   1.090  1.1849 -1.4214 -0.7917
   11CHTO   N20 4289   6.508   5.242   0.917 -0.1443  0.0197  0.2215
   11CHTO  H209 4290   6.516   5.348   0.932 -0.0402 -0.0082  0.3691
   11CHTO  H210 4291   6.422   5.204   0.864  0.1782 -1.2032  0.5539
   11CHTO   O80 4292   6.397   5.281   1.216  0.2768  0.1349 -0.2091
   11CHTO  C103 4293   6.450   5.301   1.362  0.1009 -0.1358 -0.3120
   11CHTO  H190 4294   6.455   5.207   1.417  0.2116  0.1950  0.2493
   11CHTO  C101 4295   6.599   5.370   1.370 -0.0771 -0.3632  0.6915
   11CHTO  H188 4296   6.604   5.463   1.313  1.3644 -1.0489 -0.3252
   11CHTO   O68 4297   6.707   5.270   1.319  0.1510  0.2913  0.0487
   11CHTO  H168 4298   6.682   5.182   1.341 -0.6319  0.1635 -1.3420
   11CHTO   C99 4299   6.616   5.430   1.522 -0.5282  0.1933 -0.7040
   11CHTO  H186 4300   6.620   5.342   1.589  1.8764  0.0448 -1.0110
   11CHTO   N17 4301   6.736   5.512   1.550 -0.8837 -0.5983  0.3633
   11CHTO  H174 4302   6.777   5.580   1.477  1.1361 -2.3947 -0.2404
   11CHTO  H175 4303   6.805   5.483   1.628  0.1643  0.0622 -0.2931
   11CHTO   C97 4304   6.489   5.514   1.555  0.2021  0.4403  0.0391
   11CHTO  H184 4305   6.478   5.592   1.478 -2.6203 -0.3555 -0.4276
   11CHTO   O64 4306   6.372   5.424   1.559 -0.4343 -0.0980  0.6717
   11CHTO  C104 4307   6.336   5.382   1.424 -0.3349 -0.0478 -0.8507
   11CHTO  H191 4308   6.315   5.468   1.361 -1.6409 -0.8184 -1.4975
   11CHTO  C108 4309   6.201   5.299   1.426  0.1286 -0.1180  0.2249
   11CHTO   O71 4310   6.107   5.348   1.517 -0.3772 -0.3585  0.3161
   11CHTO  H171 4311   6.097   5.440   1.502  2.3877 -0.0460  0.0586
   11CHTO   O62 4312   6.462   5.564   1.691  0.3803  0.2109  0.4845
   11CHTO   C91 4313   6.386   5.689   1.680  0.4704 -0.3678  0.5995
   11CHTO  H178 4314   6.314   5.664   1.602 -2.3845  3.0544  2.0076
   11CHTO   C92 4315   6.471   5.810   1.616  0.5649 -0.0661 -0.8088
   11CHTO  H179 4316   6.533   5.773   1.532 -0.7199 -3.1695 -0.4621
   11CHTO   O66 4317   6.368   5.894   1.555  0.4961 -0.3595 -0.0469
   11CHTO  H166 4318   6.390   5.956   1.488 -2.2006  0.8173  0.0898
   11CHTO   C93 4319   6.551   5.901   1.716 -0.5377  0.4795 -0.3505
   11CHTO  H180 4320   6.559   6.001   1.672 -0.3649 -0.3227 -2.1869
   11CHTO   N16 4321   6.691   5.853   1.722  0.1123 -0.0860 -0.3619
   11CHTO  H172 4322   6.750   5.902   1.798  1.1368 -0.4922 -0.8770
   11CHTO  H173 4323   6.748   5.865   1.631 -1.2526  0.3993 -1.1520
   11CHTO   C94 4324   6.479   5.904   1.862  0.8455  0.2929  0.2372
   11CHTO  H181 4325   6.514   5.822   1.924 -0.2155 -0.5142 -0.2250
   11CHTO   O61 4326   6.331   5.875   1.848  0.1570  0.0884  0.1541
   11CHTO   C95 4327   6.312   5.736   1.808  0.1100 -0.3135  0.2522
   11CHTO  H182 4328   6.339   5.671   1.892  0.5148 -0.0573  0.3205
   11CHTO  C106 4329   6.154   5.711   1.789  0.0424 -0.1617  0.2281
   11CHTO   O69 4330   6.106   5.799   1.687 -0.1936  0.4613  0.1918
   11CHTO  H169 4331   6.053   5.751   1.626  0.1210  0.1550  0.1640
   11CHTO   O63 4332   6.508   6.038   1.936  0.1713 -0.0920 -0.4565
   11CHTO   C96 4333   6.540   6.021   2.096 -0.0981  0.5575  0.4633
   11CHTO  H183 4334   6.565   5.915   2.102 -0.4024  0.5003  0.8056
   11CHTO   C98 4335   6.426   6.057   2.190  0.2260  0.0008 -0.8273
   11CHTO  H185 4336   6.398   6.161   2.168  1.9531  0.3217 -1.6314
   11CHTO   O67 4337   6.315   5.973   2.162  0.2469 -0.3981 -0.3958
   11CHTO  H167 4338   6.340   5.884   2.179 -1.2563 -0.8506 -0.5226
   11CHTO  C102 4339   6.476   6.045   2.349  0.7177  0.6343  0.6412
   11CHTO  H189 4340   6.489   5.938   2.369 -0.9682  0.5538  1.3352
   11CHTO   N18 4341   6.366   6.085   2.436  0.1416  0.4870  0.0360
   11CHTO  H176 4342   6.325   6.182   2.417 -1.2355 -0.4942 -2.1113
   11CHTO  H177 4343   6.291   6.007   2.440 -0.1025  0.7445  0.5682
   11CHTO  C105 4344   6.611   6.121   2.364 -0.0973  0.5132  0.2781
   11CHTO  H192 4345   6.594   6.229   2.366  1.6987  0.8113 -0.2011
   11CHTO   O65 4346   6.708   6.084   2.261  1.0525 -0.4927  0.4363
   11CHTO  C100 4347   6.668   6.113   2.131  0.1693 -0.2342  0.2712
   11CHTO  H187 4348   6.641   6.220   2.128 -4.1567 -1.2840 -1.5616
   11CHTO  C107 4349   6.790   6.085   2.049  0.6329 -0.3924  0.4002
   11CHTO   O70 4350   6.849   5.952   2.050 -0.1880 -0.2607  0.1098
   11CHTO  H170 4351   6.843   5.918   2.137  0.0432 -1.5272 -0.3674
   11CHTO   O57 4352   6.670   6.072   2.519  0.2331 -0.6614 -0.8219
   11CHTO   C85 4353   6.792   6.121   2.580 -0.4918  0.5203  0.2603
   11CHTO  H157 4354   6.801   6.050   2.665 -1.4736  0.1479  0.0698
   11CHTO   C83 4355   6.763   6.258   2.655 -0.4230  0.2475 -0.3604
   11CHTO  H155 4356   6.684   6.237   2.726  0.5678  1.6573  1.2019
   11CHTO   O56 4357   6.720   6.350   2.551  0.2492 -0.1067  0.0855
   11CHTO  H135 4358   6.731   6.439   2.580  0.9530 -0.2113  0.1608
   11CHTO   C81 4359   6.888   6.298   2.739  0.0342 -0.0915 -0.4803
   11CHTO  H153 4360   6.905   6.210   2.801  0.2108  2.2048  2.8949
   11CHTO   N14 4361   6.863   6.410   2.830 -0.9480  0.0349 -0.1044
   11CHTO  H141 4362   6.780   6.402   2.898  0.0282 -0.5774  1.0209
   11CHTO  H142 4363   6.860   6.504   2.779 -1.4024  0.7461  1.1892
   11CHTO   C79 4364   7.011   6.315   2.649  0.5541  0.6434  0.7070
   11CHTO  H151 4365   7.098   6.325   2.715  2.0483 -1.1727 -0.9336
   11CHTO   O52 4366   7.038   6.186   2.580 -0.0721  0.6360 -0.3624
   11CHTO   C86 4367   6.930   6.132   2.491 -0.1008 -0.1108 -0.0933
   11CHTO  H158 4368   6.914   6.208   2.412 -3.2402 -2.0675 -1.3991
   11CHTO   C90 4369   6.975   6.000   2.432 -0.4385  0.3029 -0.4140
   11CHTO   O60 4370   7.076   6.013   2.336 -0.1472 -0.2819 -0.1453
   11CHTO  H138 4371   7.122   5.932   2.328 -0.0355 -0.3398  1.0429
   11CHTO   O50 4372   7.002   6.430   2.560 -0.4692 -0.2675 -0.8941
   11CHTO   C73 4373   6.998   6.572   2.522  0.2219 -0.5256 -0.4916
   11CHTO  H145 4374   6.947   6.617   2.608 -1.1626  0.4792 -1.8203
   11CHTO   C74 4375   6.930   6.600   2.386 -0.2831 -0.6629 -0.6126
   11CHTO  H146 4376   6.825   6.566   2.381 -1.6911  3.5811 -1.9149
   11CHTO   O54 4377   6.919   6.748   2.383  0.0562  0.2199 -0.0070
   11CHTO  H133 4378   7.003   6.785   2.405  1.4988 -1.3903 -2.5282
   11CHTO   C75 4379   7.015   6.534   2.274  0.1284  0.5098 -0.0498
   11CHTO  H147 4380   7.017   6.426   2.296 -2.7643  0.8485  2.1051
   11CHTO   N13 4381   6.968   6.560   2.132 -0.2492 -0.0760 -0.2380
   11CHTO  H139 4382   6.862   6.581   2.135  0.1809  2.1895 -0.2706
   11CHTO  H140 4383   6.985   6.468   2.079  0.0659 -1.9526  2.9867
   11CHTO   C76 4384   7.170   6.578   2.288  0.0873 -0.2570  0.2811
   11CHTO  H148 4385   7.174   6.687   2.286  1.7400 -0.3107  0.0507
   11CHTO   O49 4386   7.225   6.539   2.425 -0.0204 -0.6991  0.0082
   11CHTO   C77 4387   7.148   6.617   2.519  0.7487 -0.2923 -0.2118
   11CHTO  H149 4388   7.149   6.722   2.490 -2.1587  0.1427  1.0384
   11CHTO   C88 4389   7.222   6.604   2.659  0.8717 -0.0194  0.3770
   11CHTO   O58 4390   7.360   6.649   2.638 -0.0818  0.5959  0.0762
   11CHTO  H136 4391   7.414   6.640   2.714  1.3073 -1.7876 -1.1410
   11CHTO   O51 4392   7.270   6.515   2.169 -0.5121  0.4239 -0.4167
   11CHTO   C78 4393   7.322   6.367   2.203  0.6199  0.2404  0.8575
   11CHTO  H150 4394   7.266   6.310   2.281 -0.9569 -0.4728 -0.7528
   11CHTO   C80 4395   7.466   6.378   2.238  0.5862 -0.3464 -0.4405
   11CHTO  H152 4396   7.521   6.418   2.151  1.4117 -0.8690 -0.1659
   11CHTO   O55 4397   7.472   6.464   2.354 -0.1515 -0.3722 -0.2109
   11CHTO  H134 4398   7.554   6.509   2.353 -1.4874  2.3131  1.9614
   11CHTO   C84 4399   7.542   6.244   2.268 -0.3450 -0.6064  0.6794
   11CHTO  H156 4400   7.493   6.186   2.346 -0.9623  1.4791  1.8804
   11CHTO   N15 4401   7.691   6.266   2.297  1.1218  0.0162  0.1229
   11CHTO  H143 4402   7.715   6.255   2.400  0.9151 -2.1442 -0.0395
   11CHTO  H144 4403   7.726   6.363   2.266 -1.5329  1.9449  2.9415
   11CHTO   C87 4404   7.530   6.150   2.148  0.2527 -0.1751  0.3809
   11CHTO  H159 4405   7.578   6.191   2.059 -2.2587 -2.7861 -2.3048
   11CHTO   O53 4406   7.368   6.145   2.116 -0.1099 -0.7417 -0.3728
   11CHTO   C82 4407   7.310   6.270   2.078 -0.2384  0.2046  0.1524
   11CHTO  H154 4408   7.352   6.317   1.989  0.7374 -1.0026 -0.0297
   11CHTO   C89 4409   7.157   6.249   2.043 -0.0782  1.2823 -0.3910
   11CHTO   O59 4410   7.139   6.151   1.940  0.6149 -0.3941  0.3477
   11CHTO  H137 4411   7.149   6.067   1.981  1.1241 -0.3008  0.4232
   11CHTO   O45 4412   7.572   5.987   2.176 -0.3249 -0.6317  0.2714
   11CHTO   C67 4413   7.601   5.923   2.052  0.5077 -0.1847 -0.0172
   11CHTO  H124 4414   7.537   5.956   1.971 -0.6622 -0.4895  0.7833
   11CHTO   C65 4415   7.752   5.962   2.005  0.1954  0.3309 -0.4114
   11CHTO  H122 4416   7.803   5.990   2.097 -0.2682  0.3709 -0.1637
   11CHTO   O44 4417   7.749   6.085   1.927 -0.8211  0.0907 -0.1019
   11CHTO  H102 4418   7.669   6.084   1.879  0.0833 -0.1168 -1.6158
   11CHTO   C63 4419   7.831   5.834   1.942  0.1402 -0.0491  0.1586
   11CHTO  H120 4420   7.874   5.778   2.026  1.6169 -0.5170 -0.8865
   11CHTO   N11 4421   7.964   5.867   1.867 -0.2552 -0.0725 -0.0080
   11CHTO  H108 4422   8.032   5.903   1.941  0.4445  1.2244 -1.2568
   11CHTO  H109 4423   7.947   5.947   1.798  0.0101 -0.6448 -0.7503
   11CHTO   C61 4424   7.725   5.750   1.860  0.0691 -0.4371  0.3006
   11CHTO  H118 4425   7.784   5.663   1.826  1.9311  0.5181  1.0509
   11CHTO   O40 4426   7.612   5.698   1.945  0.0455 -0.5968 -0.2036
   11CHTO   C68 4427   7.578   5.774   2.069 -0.7903  0.8313 -0.4101
   11CHTO  H125 4428   7.642   5.737   2.153 -0.9229 -1.8447 -1.4199
   11CHTO   C72 4429   7.437   5.733   2.103  0.2227  0.5429  0.4524
   11CHTO   O48 4430   7.429   5.592   2.133 -0.0000 -0.3179 -0.5686
   11CHTO  H105 4431   7.414   5.553   2.049 -0.1653  1.7958 -1.5578
   11CHTO   O38 4432   7.669   5.839   1.759  0.5205 -0.2546 -0.5192
   11CHTO   C55 4433   7.689   5.805   1.623 -0.2793 -0.7450 -0.1286
   11CHTO  H112 4434   7.787   5.756   1.607  0.4473  0.2221  1.2160
   11CHTO   C56 4435   7.684   5.940   1.543 -0.3922 -0.0002  0.7879
   11CHTO  H113 4436   7.595   5.995   1.577 -1.0435 -0.8002  0.4087
   11CHTO   O42 4437   7.792   6.019   1.590  0.1387  0.3976  0.2817
   11CHTO  H100 4438   7.796   5.998   1.681  0.3348  2.4223  0.7796
   11CHTO   C57 4439   7.687   5.909   1.389 -0.1659 -0.1644  0.2764
   11CHTO  H114 4440   7.780   5.862   1.356  0.4187  0.0448  1.5866
   11CHTO   N10 4441   7.681   6.034   1.311  0.0989  0.7982  1.0594
   11CHTO  H106 4442   7.750   6.099   1.363  1.9470  1.7148 -2.3455
   11CHTO  H107 4443   7.721   6.018   1.212 -0.1805  0.6777  0.9657
   11CHTO   C58 4444   7.569   5.812   1.353  0.6078  0.5050 -0.1494
   11CHTO  H115 4445   7.477   5.864   1.387  0.0596 -0.5218 -0.0442
   11CHTO   O37 4446   7.577   5.692   1.429  0.2927 -0.3109 -0.0595
   11CHTO   C59 4447   7.575   5.700   1.568  0.3993 -0.7226  0.2375
   11CHTO  H116 4448   7.472   5.729   1.591  0.6027  0.9213 -0.8481
   11CHTO   C70 4449   7.591   5.563   1.636 -0.3206 -0.1358  0.1758
   11CHTO   O46 4450   7.726   5.514   1.649 -0.5488  0.2418  0.1335
   11CHTO  H103 4451   7.762   5.526   1.735 -1.2955  1.0784  0.3313
   11CHTO   O39 4452   7.559   5.776   1.184 -0.0398 -0.2460 -0.0629
   11CHTO   C60 4453   7.434   5.774   1.117 -0.3084 -0.9525  0.0145
   11CHTO  H117 4454   7.364   5.706   1.164 -1.3012 -0.3390 -0.5555
   11CHTO   C62 4455   7.360   5.920   1.109 -0.1719  0.2199  0.1436
   11CHTO  H119 4456   7.340   5.961   1.210  0.4971 -0.7805  0.6990
   11CHTO   O43 4457   7.453   6.005   1.036  0.2895  0.7990 -0.2171
   11CHTO  H101 4458   7.467   5.976   0.948  1.3722 -2.9512  1.0798
   11CHTO   C66 4459   7.222   5.901   1.030  0.6717  0.1071  0.1569
   11CHTO  H123 4460   7.166   5.821   1.076 -1.0118  0.3738 -1.3649
   11CHTO   N12 4461   7.146   6.028   1.038 -0.0081  0.4265 -0.1612
   11CHTO  H110 4462   7.046   6.009   1.001 -0.3952  1.9291  0.1102
   11CHTO  H111 4463   7.183   6.104   0.971 -0.0157 -1.0842 -1.9297
   11CHTO   C69 4464   7.245   5.856   0.883  0.3387 -0.1728  0.2304
   11CHTO  H126 4465   7.308   5.930   0.829  1.5030 -1.6860 -0.5267
   11CHTO   O41 4466   7.311   5.723   0.885  0.3325 -0.6476 -0.8037
   11CHTO   C64 4467   7.457   5.723   0.976 -0.6395  0.3655  0.0628
   11CHTO  H121 4468   7.531   5.786   0.921  0.0904 -0.5950 -0.0652
   11CHTO   C71 4469   7.509   5.578   0.979  0.8567  0.1455 -0.0394
   11CHTO   O47 4470   7.558   5.537   0.849 -0.3994 -0.7803  0.1621
   11CHTO  H104 4471   7.604   5.456   0.861 -1.1780 -1.0058  1.7622
   11CHTO   O34 4472   7.111   5.837   0.800  0.7520  0.1296  0.1337
   11CHTO   C49 4473   6.998   5.775   0.725  0.0134  0.0680  0.5346
   11CHTO   H91 4474   7.043   5.730   0.637  3.9354  1.6782  1.6110
   11CHTO   C47 4475   6.895   5.886   0.679 -0.2346 -0.5882 -0.1793
   11CHTO   H89 4476   6.826   5.826   0.616 -1.0250 -1.2937  1.3352
   11CHTO   O33 4477   6.969   5.985   0.595 -0.1910 -0.2453 -0.2823
   11CHTO   H70 4478   6.927   6.007   0.514 -1.6942 -1.1899  0.2267
   11CHTO   C45 4479   6.829   5.950   0.808 -0.3016 -0.0928 -0.3245
   11CHTO   H87 4480   6.911   5.982   0.874  0.1280  1.0144 -1.3691
   11CHTO    N8 4481   6.737   6.064   0.775  0.2426 -0.5948  0.2492
   11CHTO   H75 4482   6.653   6.067   0.843 -0.2755 -0.6886 -0.3814
   11CHTO   H76 4483   6.794   6.156   0.771 -1.7850  0.8875  3.1265
   11CHTO   C43 4484   6.754   5.837   0.895  0.4647  0.2329  0.3420
   11CHTO   H85 4485   6.727   5.883   0.991  0.0026 -4.5952  2.7008
   11CHTO   O29 4486   6.848   5.732   0.917  0.4442 -0.0727 -0.1229
   11CHTO   C50 4487   6.924   5.669   0.810  0.0689 -0.1861  0.1095
   11CHTO   H92 4488   6.998   5.611   0.867  1.4186  1.0758 -0.3381
   11CHTO   C54 4489   6.841   5.562   0.733  0.3571  0.3315 -0.4720
   11CHTO   O36 4490   6.810   5.454   0.822 -0.0092  0.5529 -0.4366
   11CHTO   H72 4491   6.888   5.436   0.870 -0.7603  0.4575  0.7752
   11CHTO   O27 4492   6.631   5.791   0.833 -0.7293 -0.4428 -0.4843
   11CHTO   C37 4493   6.538   5.703   0.901 -0.5552 -0.0739  0.0702
   11CHTO   H79 4494   6.594   5.614   0.932 -0.0899 -0.6752 -2.3677
   11CHTO   C38 4495   6.481   5.753   1.041 -0.2505 -0.7265  0.2704
   11CHTO   H80 4496   6.434   5.851   1.029  3.1873  0.9943  0.4552
   11CHTO   O31 4497   6.590   5.769   1.139  0.1438 -0.1374  0.3355
   11CHTO   H68 4498   6.624   5.683   1.154  1.9232  0.7686  1.6182
   11CHTO   C39 4499   6.379   5.655   1.104  0.4894  0.1006 -0.9679
   11CHTO   H81 4500   6.438   5.570   1.138  0.1776 -0.5612 -2.0423
   11CHTO    N7 4501   6.307   5.733   1.219  0.3380 -0.3910 -0.0995
   11CHTO   H73 4502   6.330   5.680   1.310 -5.3156 -0.8430  1.2237
   11CHTO   H74 4503   6.202   5.749   1.200  0.8056  2.2933 -0.5617
   11CHTO   C40 4504   6.279   5.593   0.999 -0.2117  1.1553  0.4724
   11CHTO   H82 4505   6.211   5.673   0.969 -1.7181 -0.6790 -1.1573
   11CHTO   O26 4506   6.355   5.546   0.889 -0.2468  0.0294 -0.1786
   11CHTO   C41 4507   6.419   5.658   0.809 -0.1125  0.0291  0.0868
   11CHTO   H83 4508   6.352   5.744   0.790 -0.8705 -0.7609 -0.9377
   11CHTO   C52 4509   6.464   5.585   0.676 -0.1504 -0.2165 -0.1373
   11CHTO   O35 4510   6.367   5.540   0.626 -0.1935 -0.1489  0.0517
   11CHTO   H71 4511   6.356   5.572   0.538 -0.0876  0.6530  0.3186
   11CHTO   O28 4512   6.220   5.472   1.048 -0.3580  0.3237 -0.5695
   11CHTO   C42 4513   6.077   5.449   1.038 -0.4472 -0.2299  0.2136
   11CHTO   H84 4514   6.044   5.501   0.948  0.3937 -0.8159 -0.4323
   11CHTO   C44 4515   5.992   5.495   1.163  0.6147 -0.3497 -0.0441
   11CHTO   H86 4516   6.023   5.433   1.247 -3.4543 -1.7442  0.5374
   11CHTO   O32 4517   6.010   5.630   1.184 -0.3514 -0.5072  0.4825
   11CHTO   H69 4518   5.983   5.682   1.110  1.6766 -0.6045 -0.3605
   11CHTO   C48 4519   5.837   5.469   1.134 -0.3041 -0.2343 -0.1567
   11CHTO   H90 4520   5.803   5.533   1.052 -0.0056 -1.4586 -1.2632
   11CHTO    N9 4521   5.750   5.509   1.241  0.3563  0.2744  0.0805
   11CHTO   H77 4522   5.790   5.601   1.281 -1.3099  0.1778  2.0292
   11CHTO   H78 4523   5.658   5.529   1.188  0.5584 -0.5406 -0.5934
   11CHTO   C51 4524   5.811   5.318   1.108 -1.0496 -0.3449 -0.3171
   11CHTO   H93 4525   5.842   5.265   1.198  0.0817  2.7623  1.1576
   11CHTO   O30 4526   5.890   5.285   0.998 -0.5477  0.0485  0.4623
   11CHTO   C46 4527   6.044   5.296   1.012  0.2736 -0.8107  0.0365
   11CHTO   H88 4528   6.080   5.243   1.099 -0.0122  0.7219  1.1148
   11CHTO   C53 4529   6.116   5.234   0.887  0.0674  0.1555  0.2249
   11CHTO   O72 4530   6.097   5.091   0.875  0.2669 -0.7740  0.1196
   11CHTO  H199 4531   6.129   5.050   0.954  0.2011  1.2124  1.1883
   11CHTO   O22 4532   5.676   5.298   1.073 -0.4201  0.3668 -0.1769
   11CHTO   C31 4533   5.590   5.186   1.127  0.4623  0.0082 -0.0788
   11CHTO   H59 4534   5.656   5.099   1.147  0.9954 -0.3443 -3.0809
   11CHTO   C29 4535   5.521   5.222   1.266  0.0040 -0.2623 -0.1442
   11CHTO   H57 4536   5.458   5.310   1.249 -1.2883 -0.9652  0.8892
   11CHTO   O21 4537   5.623   5.254   1.361 -0.0604  0.0110  0.8409
   11CHTO   H37 4538   5.674   5.176   1.372 -0.7530 -0.3125  1.8505
   11CHTO   C27 4539   5.428   5.104   1.317  0.0858 -0.6402  0.8238
   11CHTO   H55 4540   5.493   5.015   1.323  1.1166 -0.1650 -2.2071
   11CHTO    N5 4541   5.358   5.136   1.447 -0.2545 -0.1067 -0.3406
   11CHTO   H43 4542   5.308   5.232   1.444  1.1580  0.6551 -0.0952
   11CHTO   H44 4543   5.436   5.143   1.522 -0.6775 -2.2896  0.3478
   11CHTO   C25 4544   5.328   5.066   1.205  0.6744  0.1191  0.1190
   11CHTO   H53 4545   5.263   5.151   1.181  3.3673  2.7146  1.6772
   11CHTO   O17 4546   5.393   5.039   1.079 -0.4981  0.1843 -0.2362
   11CHTO   C32 4547   5.478   5.141   1.028 -0.9824 -0.2972  0.4871
   11CHTO   H60 4548   5.428   5.233   0.996  0.3546  0.7532  1.3309
   11CHTO   C36 4549   5.544   5.064   0.898  0.3552  0.3357 -0.0180
   11CHTO   O25 4550   5.612   5.156   0.816 -0.2072 -0.1150 -0.0760
   11CHTO   H40 4551   5.551   5.212   0.771 -2.4467 -0.9244  1.8187
   11CHTO   O15 4552   5.240   4.949   1.247 -0.0992 -0.6134  0.6676
   11CHTO   C19 4553   5.182   4.816   1.260  0.4828 -0.7211  0.0456
   11CHTO   H47 4554   5.229   4.767   1.346 -0.5158 -0.7325  0.5848
   11CHTO   C20 4555   5.026   4.809   1.276  0.3988  0.0303  0.8759
   11CHTO   H48 4556   4.978   4.893   1.224 -1.1567 -1.3523  0.0365
   11CHTO   O19 4557   4.999   4.840   1.416  0.2899 -0.4261 -0.8089
   11CHTO   H35 4558   5.060   4.898   1.457  1.3953 -0.9040 -1.7729
   11CHTO   C21 4559   4.958   4.664   1.242  0.2721 -0.3550  0.5439
   11CHTO   H49 4560   4.986   4.592   1.318 -2.4072 -0.1503  1.7835
   11CHTO    N4 4561   4.810   4.679   1.246 -0.2006  0.2694 -0.3936
   11CHTO   H41 4562   4.764   4.737   1.168  0.6353  1.1892 -0.2103
   11CHTO   H42 4563   4.775   4.577   1.243 -1.1636  0.5899 -0.0733
   11CHTO   C22 4564   5.012   4.616   1.109 -0.4449 -0.1358  0.5075
   11CHTO   H50 4565   4.979   4.689   1.035 -0.0641  1.1175  1.5450
   11CHTO   O14 4566   5.149   4.616   1.118 -0.1309  0.3563  0.3966
   11CHTO   C23 4567   5.226   4.741   1.132 -1.1501 -0.1636 -0.2772
   11CHTO   H51 4568   5.200   4.796   1.040  0.4720  1.0058 -0.0754
   11CHTO   C34 4569   5.372   4.696   1.128  0.1844 -0.5982  0.0009
   11CHTO   O23 4570   5.408   4.634   1.005 -0.4213  0.1515 -0.0461
   11CHTO   H38 4571   5.479   4.574   1.012 -0.1030  0.5162 -0.1308
   11CHTO   O16 4572   4.998   4.482   1.065 -0.1454  0.1228 -0.2460
   11CHTO   C24 4573   5.048   4.430   0.906  0.1526  0.3647  0.5126
   11CHTO   H52 4574   5.118   4.499   0.858 -1.4296  0.5615 -1.5879
   11CHTO   C26 4575   4.928   4.426   0.815  0.3861 -0.3524  0.4849
   11CHTO   H54 4576   4.854   4.354   0.856  0.0593  0.6402  1.6746
   11CHTO   O20 4577   4.868   4.552   0.813  0.8369 -0.3400  0.3907
   11CHTO   H36 4578   4.825   4.572   0.732 -1.0362  2.0421  1.9236
   11CHTO   C30 4579   4.974   4.380   0.673 -0.3653 -0.1537 -0.1053
   11CHTO   H58 4580   5.038   4.459   0.632  0.8852 -1.3057 -0.4016
   11CHTO    N6 4581   4.865   4.376   0.573  0.5554 -0.4928 -0.3280
   11CHTO   H45 4582   4.794   4.308   0.619  0.0711  0.5070  0.4144
   11CHTO   H46 4583   4.897   4.334   0.478 -2.3805  0.0573 -1.6116
   11CHTO   C33 4584   5.061   4.249   0.676 -0.0546  0.1919  0.5422
   11CHTO   H61 4585   5.000   4.162   0.705 -0.1951  0.1972  0.2693
   11CHTO   O18 4586   5.159   4.264   0.777 -0.2546 -0.1870 -0.0013
   11CHTO   C28 4587   5.116   4.295   0.908  0.0258 -0.0964 -1.1622
   11CHTO   H56 4588   5.041   4.219   0.932 -0.5192  1.1735  1.2251
   11CHTO   C35 4589   5.243   4.296   0.994 -0.2221 -0.7067  0.1093
   11CHTO   O24 4590   5.209   4.305   1.131  0.1146  0.0417  0.4252
   11CHTO   H39 4591   5.147   4.240   1.156  0.5477 -1.1769 -1.6089
   11CHTO    O9 4592   5.123   4.208   0.548 -0.4000  0.6200  0.3418
   11CHTO   C13 4593   5.220   4.322   0.480 -0.4151  0.3414  0.5790
   11CHTO   H26 4594   5.259   4.398   0.552 -1.2350  1.0096  0.3217
   11CHTO   C11 4595   5.148   4.386   0.361  0.0769  0.0494  0.0201
   11CHTO   H24 4596   5.047   4.411   0.397  0.8844  1.4180  1.3634
   11CHTO    O8 4597   5.113   4.287   0.259 -0.3249 -0.1627 -0.2264
   11CHTO    H3 4598   5.034   4.315   0.217 -0.2004 -2.2576 -1.9764
   11CHTO    C9 4599   5.233   4.507   0.319 -0.1862 -0.4974  0.3225
   11CHTO   H22 4600   5.229   4.576   0.404  0.8943 -0.2413  0.1673
   11CHTO    N2 4601   5.172   4.581   0.208 -0.5776  0.3040  0.4187
   11CHTO   H10 4602   5.067   4.601   0.221 -0.8158 -1.1119  0.8373
   11CHTO   H11 4603   5.188   4.522   0.119  2.1115 -0.8651  1.6011
   11CHTO    C7 4604   5.384   4.461   0.301 -0.6512 -0.1798  0.7187
   11CHTO   H20 4605   5.432   4.493   0.396 -0.3085 -2.4087  1.3123
   11CHTO    O4 4606   5.393   4.321   0.288 -0.0909 -0.7896  0.0873
   11CHTO   C14 4607   5.361   4.267   0.419  0.0291  0.7183  0.9627
   11CHTO   H27 4608   5.439   4.292   0.494  3.3379 -3.6045 -0.7920
   11CHTO   C18 4609   5.368   4.109   0.412  0.1633 -0.8212 -0.4904
   11CHTO   O13 4610   5.500   4.076   0.377 -1.0577  0.0906  0.1635
   11CHTO    H7 4611   5.518   3.984   0.382  2.0374  0.5759 -1.1811
   11CHTO    O2 4612   5.459   4.539   0.170  0.2960 -0.1149 -0.4446
   11CHTO    C1 4613   5.563   4.639   0.205 -0.2137  0.7970  0.2047
   11CHTO   H14 4614   5.593   4.620   0.310 -0.2392  0.3142  0.1293
   11CHTO    C2 4615   5.509   4.783   0.183 -0.0518  0.4523  0.8474
   11CHTO   H15 4616   5.457   4.794   0.087  0.3563  1.2713  0.7071
   11CHTO    O6 4617   5.417   4.810   0.294  0.4533  0.4859  0.3855
   11CHTO    H1 4618   5.379   4.895   0.288 -0.1571  0.0091 -4.1197
   11CHTO    C3 4619   5.631   4.892   0.190  0.0860  0.2371 -0.3644
   11CHTO   H16 4620   5.664   4.917   0.292 -1.0262  0.8028 -0.1451
   11CHTO    N1 4621   5.586   5.020   0.134  0.0887 -0.1025  0.3700
   11CHTO    H8 4622   5.578   5.096   0.210 -1.5648  1.7008 -1.5327
   11CHTO    H9 4623   5.482   5.002   0.110  0.0601 -0.2025  0.5677
   11CHTO    C4 4624   5.760   4.834   0.117 -0.6915 -0.4312 -0.0131
   11CHTO   H17 4625   5.738   4.851   0.012  1.4933  1.5138 -0.2008
   11CHTO    O1 4626   5.802   4.702   0.160  0.4436 -0.1749 -0.3064
   11CHTO    C5 4627   5.699   4.615   0.121 -0.0854 -0.5897  0.7459
   11CHTO   H18 4628   5.671   4.628   0.016  1.7358  1.3017  0.4607
   11CHTO   C16 4629   5.745   4.467   0.153 -0.3985  0.3973  0.2099
   11CHTO   O11 4630   5.682   4.374   0.072 -0.0391 -0.2404 -0.0806
   11CHTO    H5 4631   5.734   4.296   0.069 -0.3093 -0.4066 -0.5759
   11CHTO    O3 4632   5.876   4.925   0.149 -0.8412  0.2391 -0.4007
   11CHTO    C6 4633   5.967   4.942   0.042  0.2071 -0.2877  0.4242
   11CHTO   H19 4634   5.963   4.865  -0.035  2.3112 -0.4606  0.4434
   11CHTO    C8 4635   5.954   5.085  -0.027 -0.7275 -0.7240 -0.2819
   11CHTO   H21 4636   5.930   5.160   0.049 -1.9277  0.5929 -1.9316
   11CHTO    O7 4637   5.833   5.072  -0.100 -0.0057 -0.7592  0.1452
   11CHTO    H2 4638   5.766   5.041  -0.042 -0.0235 -0.0819  0.4950
   11CHTO   C12 4639   6.073   5.131  -0.114 -0.4348  0.1956  0.0355
   11CHTO   H25 4640   6.056   5.078  -0.210  0.5702  0.8706 -0.5172
   11CHTO    N3 4641   6.060   5.271  -0.150 -0.1631  0.3507  0.4554
   11CHTO   H12 4642   6.069   5.338  -0.066  1.2465  0.6610  0.0845
   11CHTO   H13 4643   5.972   5.284  -0.210  0.4787  0.7302 -0.4228
   11CHTO   C15 4644   6.207   5.085  -0.053 -0.1656  0.2060 -0.5430
   11CHTO   H28 4645   6.230   5.153   0.029  0.0397  0.2231 -0.6150
   11CHTO   O10 4646   6.315   5.095  -0.155  0.4866  0.2943 -0.6600
   11CHTO    H4 4647   6.329   5.186  -0.175 -0.3322  0.9139  1.4163
   11CHTO    O5 4648   6.207   4.945  -0.009 -0.1622 -0.1404 -0.1149
   11CHTO   C10 4649   6.116   4.937   0.102  0.4930 -0.5990 -0.2849
   11CHTO   H23 4650   6.149   5.013   0.172  0.3704 -0.3511 -0.4980
   11CHTO   C17 4651   6.142   4.804   0.169  0.4251  0.2525  0.2858
   11CHTO   O12 4652   6.275   4.800   0.217 -0.1011  0.2194  0.0731
   11CHTO    H6 4653   6.328   4.745   0.162 -1.0566 -0.0142 -0.6146
   12CHTO  H203 4654   4.427   1.633   0.146 -1.7928  0.6693 -3.7791
   12CHTO   O82 4655   4.498   1.690   0.126 -0.5796  0.6910  0.2607
   12CHTO  C123 4656   4.629   1.643   0.169 -0.2617 -0.3056 -0.0157
   12CHTO  H227 4657   4.698   1.728   0.157 -1.2894  0.8455  1.9313
   12CHTO   O77 4658   4.614   1.620   0.315 -0.4338  0.0480 -0.0605
   12CHTO  C118 4659   4.742   1.599   0.376 -1.0126 -0.5015  1.1133
   12CHTO  H222 4660   4.810   1.683   0.353 -1.3134 -0.4540  0.3994
   12CHTO  C125 4661   4.714   1.595   0.531 -0.3450 -0.1374  0.6471
   12CHTO   O84 4662   4.829   1.594   0.616 -0.8412  0.0611  0.2259
   12CHTO  H205 4663   4.841   1.677   0.657 -0.8125  0.5154 -0.6729
   12CHTO  C114 4664   4.800   1.469   0.324  0.7902  0.0304  0.1533
   12CHTO  H218 4665   4.737   1.388   0.361  0.3338 -0.8458 -2.4582
   12CHTO  C116 4666   4.808   1.463   0.181 -0.3018 -0.0483  0.2395
   12CHTO  H220 4667   4.899   1.526   0.163  0.2741 -1.5630 -2.5296
   12CHTO   O79 4668   4.852   1.327   0.152  0.0084 -0.0271 -0.5273
   12CHTO  H201 4669   4.789   1.264   0.178 -0.4003  0.1060 -1.1807
   12CHTO  C120 4670   4.684   1.511   0.102  0.2850 -0.7838 -0.5425
   12CHTO  H224 4671   4.610   1.428   0.097 -0.5470  0.0582 -3.1693
   12CHTO   N21 4672   4.727   1.533  -0.039  0.1868 -0.0341  0.3811
   12CHTO  H211 4673   4.725   1.444  -0.101  2.8661 -0.5486  0.9855
   12CHTO  H212 4674   4.677   1.613  -0.092  2.2863  0.1795 -1.3631
   12CHTO   O75 4675   4.923   1.457   0.393 -0.5931  0.3235  0.5973
   12CHTO  C112 4676   4.953   1.299   0.444  0.0603  0.0213 -0.0442
   12CHTO  H216 4677   4.939   1.242   0.351 -0.2952 -0.3198  0.2183
   12CHTO   O73 4678   4.858   1.261   0.544 -0.4358  0.1075  0.1378
   12CHTO  C113 4679   4.864   1.111   0.553  0.2514  0.0324 -0.0408
   12CHTO  H217 4680   4.848   1.074   0.449  0.0955 -0.8158  0.2834
   12CHTO  C124 4681   4.732   1.070   0.624 -0.0176 -0.4619  0.1050
   12CHTO   O83 4682   4.723   1.100   0.764  0.2900  0.8471  0.1153
   12CHTO  H204 4683   4.758   1.032   0.818  0.0990 -1.8614 -3.0334
   12CHTO  C109 4684   4.995   1.059   0.620 -0.0052  0.2682 -0.2164
   12CHTO  H213 4685   4.991   1.090   0.725 -0.2721 -3.6611  0.9914
   12CHTO  C110 4686   5.122   1.129   0.548  0.6565  0.6661  0.4689
   12CHTO  H214 4687   5.138   1.069   0.458 -1.0661 -0.6881  1.0352
   12CHTO   O78 4688   5.238   1.107   0.633  0.1736  0.1433 -0.0949
   12CHTO  H200 4689   5.316   1.106   0.581  0.0188 -1.2078 -0.3213
   12CHTO  C111 4690   5.096   1.276   0.510 -0.1146  0.0005  0.4598
   12CHTO  H215 4691   5.093   1.336   0.603  0.7589 -1.2242  1.2965
   12CHTO   N19 4692   5.197   1.335   0.422 -0.2209 -0.0899  0.2773
   12CHTO  H207 4693   5.209   1.265   0.341  1.3888 -1.5838  1.7504
   12CHTO  H208 4694   5.280   1.358   0.487 -1.7370  0.4559  2.0868
   12CHTO   O74 4695   5.003   0.908   0.613 -0.0670 -0.2087  0.4778
   12CHTO  C115 4696   5.071   0.835   0.734  0.0258 -0.3972 -0.1486
   12CHTO  H219 4697   5.144   0.899   0.784  0.3548 -1.2258  0.4372
   12CHTO   O76 4698   4.973   0.790   0.837 -0.1017 -0.0633 -0.1855
   12CHTO  C122 4699   4.875   0.690   0.794 -0.1081  0.2485 -0.8546
   12CHTO  H226 4700   4.786   0.751   0.779 -0.5615  0.6925  2.9614
   12CHTO  C126 4701   4.845   0.607   0.926  0.5046  0.7775  0.2137
   12CHTO   O85 4702   4.718   0.530   0.914 -0.1134 -0.0845 -0.2406
   12CHTO  H206 4703   4.657   0.569   0.975 -0.2931  0.1991 -0.6015
   12CHTO  C121 4704   4.913   0.605   0.668  0.1989  0.9241  0.4490
   12CHTO  H225 4705   4.865   0.505   0.669  0.3977  0.8145 -0.4167
   12CHTO   O81 4706   4.855   0.675   0.558  0.5824 -0.0791 -0.9704
   12CHTO  H202 4707   4.879   0.765   0.557 -0.7803  0.2927 -0.9732
   12CHTO  C119 4708   5.065   0.575   0.660 -0.2303 -0.2553 -0.6820
   12CHTO  H223 4709   5.085   0.519   0.751  0.9668 -1.4587 -1.6782
   12CHTO  C117 4710   5.147   0.709   0.668 -0.1807  0.1073 -0.7430
   12CHTO  H221 4711   5.170   0.747   0.568 -1.0778  0.6125 -0.7550
   12CHTO   N20 4712   5.281   0.696   0.726 -0.1657 -0.1227  0.7096
   12CHTO  H209 4713   5.351   0.632   0.675 -0.6027 -0.3267  0.3568
   12CHTO  H210 4714   5.268   0.679   0.831  1.1051 -0.8943  0.7508
   12CHTO   O80 4715   5.113   0.475   0.556  0.3595 -0.2003  0.2815
   12CHTO  C103 4716   5.132   0.332   0.589 -0.2586 -0.2617 -0.3659
   12CHTO  H190 4717   5.222   0.321   0.649  1.1120  1.1042 -2.1295
   12CHTO  C101 4718   5.015   0.263   0.665 -0.2697  0.6468 -0.0660
   12CHTO  H188 4719   4.922   0.287   0.613 -0.3631  2.2804  0.8232
   12CHTO   O68 4720   5.005   0.319   0.815 -0.5757 -0.0022 -0.1339
   12CHTO  H168 4721   4.961   0.402   0.808 -1.2970 -0.4800 -1.2996
   12CHTO   C99 4722   5.052   0.112   0.674 -0.2922 -0.6674  0.4858
   12CHTO  H186 4723   5.144   0.086   0.730 -0.2543  0.6763  1.0739
   12CHTO   N17 4724   4.952   0.036   0.762  0.1991  0.0537  0.4297
   12CHTO  H174 4725   4.921  -0.054   0.711 -0.6385  1.0953 -0.9441
   12CHTO  H175 4726   4.867   0.095   0.792  0.6580  0.1201  1.6392
   12CHTO   C97 4727   5.069   0.060   0.532 -0.3712 -0.2914  0.1113
   12CHTO  H184 4728   4.975   0.072   0.476 -0.4036 -0.9671  0.0119
   12CHTO   O64 4729   5.183   0.129   0.473  0.4585 -0.5426  0.1303
   12CHTO  C104 4730   5.164   0.270   0.451  0.2312 -0.3540  0.0086
   12CHTO  H191 4731   5.079   0.277   0.384  0.0710 -2.2260 -0.0092
   12CHTO  C108 4732   5.281   0.327   0.377  0.3106  0.4346 -0.3454
   12CHTO   O71 4733   5.302   0.261   0.253  0.1789  0.6819  0.6911
   12CHTO  H171 4734   5.379   0.298   0.214 -0.1957  0.9429  0.1989
   12CHTO   O62 4735   5.128  -0.075   0.527  0.5513 -0.2712 -0.6199
   12CHTO   C91 4736   5.110  -0.162   0.415 -0.4079  0.1648  0.3856
   12CHTO  H178 4737   5.078  -0.110   0.325  0.9474 -0.8559 -0.7090
   12CHTO   C92 4738   5.000  -0.264   0.439 -0.6685  0.5133  0.4507
   12CHTO  H179 4739   5.018  -0.306   0.539  1.8315 -1.6592 -0.8649
   12CHTO   O66 4740   4.874  -0.184   0.435  0.1681 -0.3474  0.3138
   12CHTO  H166 4741   4.861  -0.112   0.494 -1.4990  0.9924 -1.6684
   12CHTO   C93 4742   4.997  -0.377   0.326 -0.0949 -0.3615  0.5269
   12CHTO  H180 4743   4.990  -0.320   0.232 -1.2877 -1.4539 -0.0841
   12CHTO   N16 4744   4.889  -0.475   0.326 -0.6709  0.1872  0.3690
   12CHTO  H172 4745   4.833  -0.466   0.234 -1.7391  0.5363  1.0507
   12CHTO  H173 4746   4.930  -0.573   0.344 -0.8586  0.0813  0.2194
   12CHTO   C94 4747   5.139  -0.443   0.329  0.2016 -0.1490 -0.3675
   12CHTO  H181 4748   5.166  -0.485   0.426  3.3416 -0.5824 -1.3845
   12CHTO   O61 4749   5.240  -0.352   0.297 -0.5416  0.0791 -0.3154
   12CHTO   C95 4750   5.245  -0.236   0.376 -0.2268 -0.4006  0.0696
   12CHTO  H182 4751   5.301  -0.256   0.468  0.4139 -0.1372 -0.2578
   12CHTO  C106 4752   5.325  -0.126   0.294  0.1132 -0.2353 -0.0267
   12CHTO   O69 4753   5.461  -0.172   0.252 -0.2178  0.0113 -0.0738
   12CHTO  H169 4754   5.464  -0.215   0.169  0.6306  1.2544 -0.7030
   12CHTO   O63 4755   5.138  -0.566   0.230  0.1226 -0.0235  0.2666
   12CHTO   C96 4756   5.267  -0.668   0.243 -0.0932 -0.6085  0.2130
   12CHTO  H183 4757   5.324  -0.634   0.330  0.0465  0.3845 -0.2632
   12CHTO   C98 4758   5.368  -0.656   0.124 -0.5164 -0.4958  0.1563
   12CHTO  H185 4759   5.311  -0.677   0.032  0.5671  1.4205 -0.9829
   12CHTO   O67 4760   5.423  -0.526   0.104  0.9563  0.1003 -0.5087
   12CHTO  H167 4761   5.448  -0.521   0.013 -1.4306 -0.4466 -1.2439
   12CHTO  C102 4762   5.484  -0.761   0.151 -0.1116  0.1366  0.5035
   12CHTO  H189 4763   5.533  -0.725   0.243  1.2357  0.7359 -0.4107
   12CHTO   N18 4764   5.589  -0.767   0.041  0.3193 -0.1706 -0.3505
   12CHTO  H176 4765   5.678  -0.811   0.083 -0.2547 -0.9908  0.0179
   12CHTO  H177 4766   5.545  -0.825  -0.040 -1.1679 -0.1572  0.4288
   12CHTO  C105 4767   5.438  -0.904   0.192  0.3840 -0.0721 -0.0854
   12CHTO  H192 4768   5.470  -0.974   0.114  0.4564 -0.3124  0.1622
   12CHTO   O65 4769   5.296  -0.911   0.200  0.1474  0.8176  0.3374
   12CHTO  C100 4770   5.213  -0.811   0.264 -0.2707 -1.0232 -0.3391
   12CHTO  H187 4771   5.117  -0.801   0.211  0.5290  0.8264 -1.4789
   12CHTO  C107 4772   5.193  -0.837   0.413  0.8509  0.3449 -0.4957
   12CHTO   O70 4773   5.099  -0.949   0.429 -0.2628 -0.3447 -0.7367
   12CHTO  H170 4774   5.126  -0.998   0.504 -1.9450  0.6707  0.5724
   12CHTO   O57 4775   5.502  -0.944   0.332  0.2101 -0.1072 -0.0375
   12CHTO   C85 4776   5.515  -1.079   0.381  0.0807  0.3868 -0.3698
   12CHTO  H157 4777   5.442  -1.139   0.323 -0.4954  0.1640  0.5878
   12CHTO   C83 4778   5.457  -1.088   0.524  0.1570  0.0554 -0.0032
   12CHTO  H155 4779   5.349  -1.069   0.519  0.0044 -1.4529 -3.4648
   12CHTO   O56 4780   5.521  -0.979   0.609 -0.3619  0.0360  0.3776
   12CHTO  H135 4781   5.511  -1.003   0.699 -1.9720 -1.6668 -0.2022
   12CHTO   C81 4782   5.478  -1.233   0.575 -0.5265 -0.2988 -0.4507
   12CHTO  H153 4783   5.422  -1.305   0.516 -2.0173  0.4683  0.0007
   12CHTO   N14 4784   5.421  -1.259   0.712 -0.0441  0.2449  0.3017
   12CHTO  H141 4785   5.458  -1.349   0.756  0.9185 -0.2129 -1.4225
   12CHTO  H142 4786   5.315  -1.261   0.698 -0.0673 -0.3509  0.5627
   12CHTO   C79 4787   5.629  -1.269   0.572 -0.1641  0.2932  0.3642
   12CHTO  H151 4788   5.644  -1.374   0.600  1.7726  0.7789  1.2218
   12CHTO   O52 4789   5.681  -1.265   0.432 -0.2070 -0.0734 -0.2311
   12CHTO   C86 4790   5.664  -1.137   0.369  0.1620 -0.4884 -0.0049
   12CHTO  H158 4791   5.737  -1.073   0.423  0.6910 -0.6611 -0.5117
   12CHTO   C90 4792   5.708  -1.135   0.225 -0.8014  0.4686 -0.5802
   12CHTO   O60 4793   5.625  -1.211   0.143 -0.7478 -0.2156 -0.5711
   12CHTO  H138 4794   5.629  -1.186   0.053 -0.5989 -1.2893 -0.8757
   12CHTO   O50 4795   5.702  -1.190   0.662  0.0121  0.0534  0.0953
   12CHTO   C73 4796   5.742  -1.174   0.800  0.5753  0.7493  0.6619
   12CHTO  H145 4797   5.678  -1.226   0.872  1.5688 -1.3892  0.0610
   12CHTO   C74 4798   5.776  -1.025   0.833  0.1566  0.5980  0.5196
   12CHTO  H146 4799   5.682  -0.970   0.816 -0.6566 -0.4687  1.4733
   12CHTO   O54 4800   5.807  -1.027   0.976 -0.1304 -0.1497  0.0031
   12CHTO  H133 4801   5.810  -0.944   1.019 -1.2161 -0.5188  0.8271
   12CHTO   C75 4802   5.900  -0.970   0.741  0.7343  0.7726 -0.2129
   12CHTO  H147 4803   5.862  -0.975   0.638 -1.0933 -1.4221  0.5157
   12CHTO   N13 4804   5.938  -0.830   0.776  0.3103  0.3763  0.4769
   12CHTO  H139 4805   6.018  -0.805   0.708 -0.1842 -1.0521 -0.6402
   12CHTO  H140 4806   5.852  -0.766   0.761  1.3868  1.7540  0.0916
   12CHTO   C76 4807   6.019  -1.072   0.744 -0.1238  0.2191  0.0535
   12CHTO  H148 4808   6.065  -1.063   0.842  0.7657 -0.4727 -0.2950
   12CHTO   O49 4809   5.970  -1.210   0.715  0.2361  0.1589 -0.1855
   12CHTO   C77 4810   5.874  -1.252   0.811 -0.2890  0.5906 -0.0372
   12CHTO  H149 4811   5.918  -1.236   0.909 -2.5826  0.5793  1.0241
   12CHTO   C88 4812   5.856  -1.405   0.802 -0.0101  0.3077  0.0163
   12CHTO   O58 4813   5.974  -1.471   0.825 -0.2279  0.0735 -0.1567
   12CHTO  H136 4814   5.968  -1.564   0.813  0.7723 -0.0282  0.0408
   12CHTO   O51 4815   6.111  -1.047   0.622  0.5463 -0.8048 -0.0370
   12CHTO   C78 4816   6.256  -1.122   0.608  0.1678  0.4432  0.3284
   12CHTO  H150 4817   6.230  -1.229   0.624 -0.4329  0.2430 -1.8679
   12CHTO   C80 4818   6.358  -1.070   0.716 -0.2562  0.4271  0.9450
   12CHTO  H152 4819   6.357  -0.959   0.719  0.9363  0.5958 -2.9438
   12CHTO   O55 4820   6.311  -1.112   0.842 -0.3696  0.3239  0.1929
   12CHTO  H134 4821   6.225  -1.076   0.856 -1.0692 -0.4818 -1.8701
   12CHTO   C84 4822   6.502  -1.134   0.688  0.2918 -0.2343  0.6428
   12CHTO  H156 4823   6.490  -1.242   0.687  0.7382 -0.3516 -4.3933
   12CHTO   N15 4824   6.613  -1.092   0.779 -0.6199 -0.6004 -0.4092
   12CHTO  H143 4825   6.663  -1.174   0.828 -0.4672  0.5422  1.4057
   12CHTO  H144 4826   6.586  -1.018   0.852  2.8975  0.9129 -0.5346
   12CHTO   C87 4827   6.543  -1.103   0.542 -0.2518  0.3492 -0.0044
   12CHTO  H159 4828   6.557  -0.996   0.523 -0.7102  0.2658 -0.8344
   12CHTO   O53 4829   6.419  -1.156   0.437 -0.0583  0.8098  0.2907
   12CHTO   C82 4830   6.292  -1.099   0.462  0.4565  0.4936  0.9295
   12CHTO  H154 4831   6.304  -0.992   0.442 -1.7055  0.6132  0.1404
   12CHTO   C89 4832   6.199  -1.155   0.359  0.2279 -0.4260  0.0023
   12CHTO   O59 4833   6.053  -1.124   0.373 -0.0140 -0.2499 -0.4180
   12CHTO  H137 4834   6.042  -1.032   0.357 -4.2218 -0.3958  1.0239
   12CHTO   O45 4835   6.688  -1.183   0.506  0.3418  0.3955 -0.3410
   12CHTO   C67 4836   6.680  -1.313   0.445 -0.0508 -0.0075  0.6145
   12CHTO  H124 4837   6.593  -1.371   0.473 -0.4840 -1.3871 -3.2716
   12CHTO   C65 4838   6.669  -1.293   0.293  0.3308  0.7097  0.4264
   12CHTO  H122 4839   6.603  -1.209   0.269 -0.1511 -0.0468 -0.9764
   12CHTO   O44 4840   6.609  -1.421   0.244  0.1681 -0.3352 -0.3236
   12CHTO  H102 4841   6.533  -1.445   0.293 -1.3972  0.1404 -2.4374
   12CHTO   C63 4842   6.810  -1.253   0.241 -0.0802  0.3370  0.2382
   12CHTO  H120 4843   6.849  -1.165   0.293  1.8028  0.0287 -0.5906
   12CHTO   N11 4844   6.818  -1.210   0.100 -0.6700 -0.3957  0.2314
   12CHTO  H108 4845   6.780  -1.115   0.069 -0.0635 -0.5992 -1.1807
   12CHTO  H109 4846   6.916  -1.235   0.066 -0.2853 -1.3902  1.9955
   12CHTO   C61 4847   6.912  -1.372   0.277  1.0759 -1.1154  0.2492
   12CHTO  H118 4848   7.008  -1.327   0.248 -0.3549  1.3886 -0.7899
   12CHTO   O40 4849   6.919  -1.398   0.414  0.1588 -0.4066 -0.1297
   12CHTO   C68 4850   6.799  -1.406   0.496 -0.2538 -0.1260 -0.2923
   12CHTO  H125 4851   6.827  -1.363   0.595  0.4439 -1.3654  0.0558
   12CHTO   C72 4852   6.755  -1.550   0.518  0.3264  0.0548 -0.6683
   12CHTO   O48 4853   6.849  -1.617   0.599 -0.2114  0.3037  0.2475
   12CHTO  H105 4854   6.828  -1.594   0.687 -1.7771  4.6246 -1.1097
   12CHTO   O38 4855   6.906  -1.490   0.193  0.4753 -0.6923  0.1036
   12CHTO   C55 4856   7.028  -1.554   0.153 -0.4019  0.2199  0.1035
   12CHTO  H112 4857   7.098  -1.541   0.237 -0.9670  1.1462  0.4363
   12CHTO   C56 4858   7.083  -1.484   0.022  0.0923  1.0000 -0.0339
   12CHTO  H113 4859   6.995  -1.471  -0.042 -0.1450  2.0976  0.4931
   12CHTO   O42 4860   7.118  -1.349   0.051 -0.4140 -0.3349 -0.0324
   12CHTO  H100 4861   7.155  -1.332   0.136 -0.9787  3.9706 -0.5308
   12CHTO   C57 4862   7.202  -1.566  -0.045  0.1616 -0.0296  0.4212
   12CHTO  H114 4863   7.300  -1.549   0.002  0.7894  0.1920 -0.9580
   12CHTO   N10 4864   7.228  -1.522  -0.182  0.2197  0.1213 -0.2132
   12CHTO  H106 4865   7.295  -1.438  -0.184 -0.3997  0.6196  0.0113
   12CHTO  H107 4866   7.282  -1.605  -0.226  2.4551  1.7935 -0.7555
   12CHTO   C58 4867   7.166  -1.717  -0.040 -0.4681 -1.2889  0.5750
   12CHTO  H115 4868   7.082  -1.731  -0.110 -0.3323  2.0209 -0.3247
   12CHTO   O37 4869   7.129  -1.767   0.090  0.1524 -0.4053  0.4396
   12CHTO   C59 4870   7.009  -1.702   0.135  0.5633  0.0202 -0.1633
   12CHTO  H116 4871   6.918  -1.721   0.078 -0.2385 -0.5733  1.3052
   12CHTO   C70 4872   6.973  -1.758   0.274 -0.4483 -0.1281  0.4998
   12CHTO   O46 4873   6.903  -1.874   0.282 -0.0642  0.0776 -0.6784
   12CHTO  H103 4874   6.819  -1.860   0.242  0.3699  1.0412 -1.2539
   12CHTO   O39 4875   7.279  -1.817  -0.081  0.4332 -0.0237 -0.2403
   12CHTO   C60 4876   7.223  -1.936  -0.137  0.7813 -0.5204 -0.2591
   12CHTO  H117 4877   7.130  -1.968  -0.091  0.3342 -0.9434 -1.4444
   12CHTO   C62 4878   7.176  -1.912  -0.288  0.0382  0.2836 -0.2533
   12CHTO  H119 4879   7.104  -1.828  -0.289 -1.6600 -1.1342  0.5086
   12CHTO   O43 4880   7.289  -1.855  -0.360 -0.0054 -0.3530  0.5901
   12CHTO  H101 4881   7.275  -1.882  -0.449  0.7095  0.1109  0.3331
   12CHTO   C66 4882   7.105  -2.036  -0.355 -0.0559 -1.1826 -0.1803
   12CHTO  H123 4883   7.015  -2.067  -0.302 -0.8017  0.8365 -0.2446
   12CHTO   N12 4884   7.062  -2.007  -0.493  1.0364 -0.2076 -0.2943
   12CHTO  H110 4885   6.954  -2.012  -0.495  0.9402  0.7669  1.4428
   12CHTO  H111 4886   7.093  -1.911  -0.532 -0.8129  0.8550  0.8112
   12CHTO   C69 4887   7.190  -2.163  -0.342  0.1631  1.0246 -0.3292
   12CHTO  H126 4888   7.285  -2.141  -0.394 -0.5274  1.9244 -1.2375
   12CHTO   O41 4889   7.240  -2.192  -0.184  0.5520  0.0649  0.0357
   12CHTO   C64 4890   7.319  -2.057  -0.132 -0.3365  0.2404  0.4358
   12CHTO  H121 4891   7.410  -2.033  -0.192  0.4312 -0.1408  1.4331
   12CHTO   C71 4892   7.365  -2.083   0.015 -1.1011  0.1568  0.6483
   12CHTO   O47 4893   7.462  -2.192   0.015  0.0110  0.3545 -0.0144
   12CHTO  H104 4894   7.425  -2.275   0.039 -0.1854  0.9481  1.7599
   12CHTO   O34 4895   7.106  -2.294  -0.372  0.0600 -0.8894  0.3545
   12CHTO   C49 4896   7.181  -2.375  -0.481 -0.7998  0.1866  0.6191
   12CHTO   H91 4897   7.223  -2.304  -0.553  0.6552 -1.0186  0.2381
   12CHTO   C47 4898   7.095  -2.482  -0.549  0.2328  0.0971 -0.7483
   12CHTO   H89 4899   7.149  -2.517  -0.640 -1.6704 -2.6877 -0.8893
   12CHTO   O33 4900   6.973  -2.419  -0.592 -0.4681  0.3907  0.3932
   12CHTO   H70 4901   6.947  -2.472  -0.665  2.1012  1.7872 -1.6265
   12CHTO   C45 4902   7.050  -2.589  -0.440 -0.0493  0.5689  0.0305
   12CHTO   H87 4903   6.948  -2.568  -0.404 -0.1653 -0.9012  0.5849
   12CHTO    N8 4904   7.044  -2.716  -0.512 -0.2807  0.7664  0.2940
   12CHTO   H75 4905   6.974  -2.705  -0.594  0.4678 -0.8452 -0.5979
   12CHTO   H76 4906   7.009  -2.798  -0.451 -0.7752  0.5843 -0.2289
   12CHTO   C43 4907   7.148  -2.592  -0.306  0.3601 -0.2584  0.7328
   12CHTO   H85 4908   7.106  -2.507  -0.254 -0.5118  0.2582 -0.7899
   12CHTO   O29 4909   7.278  -2.566  -0.344  0.5275 -0.1266  0.3095
   12CHTO   C50 4910   7.310  -2.445  -0.421  0.1595 -0.2282 -0.1203
   12CHTO   H92 4911   7.341  -2.377  -0.340 -0.6649 -1.3554  1.1858
   12CHTO   C54 4912   7.427  -2.465  -0.516 -0.5052 -0.0076 -0.2472
   12CHTO   O36 4913   7.548  -2.489  -0.445 -0.2819  0.1115 -0.4531
   12CHTO   H72 4914   7.597  -2.409  -0.440  0.5182 -0.4106  0.1803
   12CHTO   O27 4915   7.119  -2.701  -0.219  0.1751 -0.0885  0.0403
   12CHTO   C37 4916   7.093  -2.701  -0.077 -0.0586 -0.6709 -0.2832
   12CHTO   H79 4917   7.124  -2.795  -0.029 -1.4958 -1.5728 -1.0676
   12CHTO   C38 4918   7.159  -2.583   0.002  0.3015 -0.0168  0.8053
   12CHTO   H80 4919   7.139  -2.490  -0.054  2.5100  0.3241  0.5250
   12CHTO   O31 4920   7.296  -2.611   0.006  0.2752  0.4716 -0.2881
   12CHTO   H68 4921   7.329  -2.585  -0.079 -1.3730 -0.0275 -1.0891
   12CHTO   C39 4922   7.098  -2.551   0.140 -0.2545 -0.1892 -0.6429
   12CHTO   H81 4923   7.124  -2.629   0.211  0.2176  0.7443  0.2284
   12CHTO    N7 4924   7.146  -2.424   0.205 -0.2163  0.2907 -0.5831
   12CHTO   H73 4925   7.240  -2.443   0.256 -0.5084  1.7370  0.5418
   12CHTO   H74 4926   7.072  -2.403   0.280  0.7047  0.6845  0.2382
   12CHTO   C40 4927   6.943  -2.556   0.137  0.9981 -0.3732 -0.2327
   12CHTO   H82 4928   6.899  -2.468   0.090  1.3418 -0.9324 -1.6312
   12CHTO   O26 4929   6.897  -2.679   0.080 -0.7425  0.2602  1.1959
   12CHTO   C41 4930   6.933  -2.687  -0.061  0.2245  0.5719  0.0316
   12CHTO   H83 4931   6.906  -2.594  -0.112  4.1900  1.8927  0.2171
   12CHTO   C52 4932   6.863  -2.805  -0.139  0.1554  0.1271 -0.1269
   12CHTO   O35 4933   6.864  -2.934  -0.074  0.0197  0.4492 -0.2455
   12CHTO   H71 4934   6.805  -2.987  -0.122  2.8131 -3.6438  0.5692
   12CHTO   O28 4935   6.885  -2.563   0.267 -0.7031 -0.0636 -0.4996
   12CHTO   C42 4936   6.757  -2.491   0.298  0.1602 -0.2921 -0.3065
   12CHTO   H84 4937   6.719  -2.559   0.374  0.0810  0.3462  0.2370
   12CHTO   C44 4938   6.646  -2.474   0.183  0.3654 -0.3165  0.3286
   12CHTO   H86 4939   6.688  -2.413   0.103 -1.3409  0.1911 -0.2076
   12CHTO   O32 4940   6.610  -2.607   0.150  0.0598  0.8058 -0.3351
   12CHTO   H69 4941   6.669  -2.647   0.089  1.6849 -1.3963  2.5472
   12CHTO   C48 4942   6.516  -2.401   0.224 -0.1186  0.0654  0.5779
   12CHTO   H90 4943   6.450  -2.463   0.285 -0.5723  0.2819  0.3060
   12CHTO    N9 4944   6.439  -2.367   0.099 -0.0549 -0.3713 -0.2268
   12CHTO   H77 4945   6.334  -2.354   0.121 -0.2754 -0.7426 -1.0561
   12CHTO   H78 4946   6.479  -2.323   0.010 -1.0440 -0.6170 -0.8014
   12CHTO   C51 4947   6.549  -2.276   0.316  0.0130  0.3807 -0.9210
   12CHTO   H93 4948   6.590  -2.199   0.251 -0.7708  0.7329 -1.0071
   12CHTO   O30 4949   6.638  -2.319   0.427 -0.2834  0.3897  0.3040
   12CHTO   C46 4950   6.784  -2.354   0.372  0.2649 -0.5813 -0.2794
   12CHTO   H88 4951   6.832  -2.280   0.309  1.5330 -1.1412  0.0259
   12CHTO   C53 4952   6.879  -2.379   0.495  0.3174  0.5908  0.3809
   12CHTO   O72 4953   6.860  -2.291   0.606 -0.2137  0.2615  0.3541
   12CHTO  H199 4954   6.904  -2.329   0.680  2.3185 -2.2708 -2.3297
   12CHTO   O22 4955   6.429  -2.237   0.385 -0.1083  0.2619 -0.3578
   12CHTO   C31 4956   6.394  -2.102   0.434 -0.3187  0.3425 -0.4341
   12CHTO   H59 4957   6.294  -2.110   0.481 -0.5335 -0.4399 -1.0050
   12CHTO   C29 4958   6.492  -2.039   0.537 -0.1767 -0.0395 -0.2016
   12CHTO   H57 4959   6.589  -2.023   0.489 -0.0521 -1.3643 -0.4066
   12CHTO   O21 4960   6.523  -2.135   0.637 -0.0186  0.5103  0.6127
   12CHTO   H37 4961   6.448  -2.150   0.692 -0.0424  2.4158  1.1188
   12CHTO   C27 4962   6.442  -1.905   0.595  0.1678 -0.6724 -0.1063
   12CHTO   H55 4963   6.352  -1.922   0.656 -0.1177  1.4172  0.0857
   12CHTO    N5 4964   6.544  -1.837   0.685  0.3267  0.1859 -0.1689
   12CHTO   H43 4965   6.493  -1.765   0.747  1.0020  0.4113  0.1191
   12CHTO   H44 4966   6.626  -1.793   0.630 -1.0701  2.0523 -0.8053
   12CHTO   C25 4967   6.401  -1.814   0.477 -0.3571 -0.5582 -0.5017
   12CHTO   H53 4968   6.492  -1.781   0.425 -0.1357  0.6151  0.5968
   12CHTO   O17 4969   6.316  -1.880   0.383  0.5346 -0.5031  0.2467
   12CHTO   C32 4970   6.373  -1.995   0.322  0.1960  1.1378  0.0281
   12CHTO   H60 4971   6.472  -1.972   0.283 -0.1201  2.1690 -0.1890
   12CHTO   C36 4972   6.269  -2.036   0.214 -0.1655 -0.2524 -0.4255
   12CHTO   O25 4973   6.302  -1.959   0.097 -0.1626 -0.2065 -0.4492
   12CHTO   H40 4974   6.227  -1.972   0.041  0.0093 -3.6668 -0.0063
   12CHTO   O15 4975   6.334  -1.674   0.536 -0.5514  0.1824 -0.0056
   12CHTO   C19 4976   6.202  -1.613   0.540 -0.0755  0.2688 -0.7926
   12CHTO   H47 4977   6.195  -1.539   0.621 -3.9813 -0.0321 -0.7389
   12CHTO   C20 4978   6.160  -1.550   0.403  0.0546  0.5064  0.2088
   12CHTO   H48 4979   6.167  -1.621   0.320  0.8210 -0.9519  1.5032
   12CHTO   O19 4980   6.268  -1.458   0.367 -0.1956 -0.1086 -0.0758
   12CHTO   H35 4981   6.244  -1.386   0.312 -2.2864 -0.7340 -0.0277
   12CHTO   C21 4982   6.018  -1.489   0.409 -0.8510  0.7386  0.5215
   12CHTO   H49 4983   6.011  -1.418   0.492 -0.9400  0.1265  1.0354
   12CHTO    N4 4984   5.964  -1.415   0.292  0.2804 -0.2413  0.5891
   12CHTO   H41 4985   5.857  -1.401   0.306  0.4201  0.6494  0.8171
   12CHTO   H42 4986   5.980  -1.468   0.199 -0.0235  1.6625 -0.5949
   12CHTO   C22 4987   5.922  -1.602   0.446  0.1618 -1.2891 -0.2724
   12CHTO   H50 4988   5.919  -1.678   0.369  3.4517 -0.6370 -1.1355
   12CHTO   O14 4989   5.971  -1.659   0.575 -0.1469 -0.4916  0.2167
   12CHTO   C23 4990   6.100  -1.718   0.581  0.0730  0.3462  0.5511
   12CHTO   H51 4991   6.084  -1.792   0.501  3.4256  0.9925 -0.7663
   12CHTO   C34 4992   6.118  -1.779   0.720 -0.3906  0.1087 -0.5807
   12CHTO   O23 4993   6.084  -1.912   0.709 -0.4220  0.5658 -0.2300
   12CHTO   H38 4994   6.112  -1.967   0.780  3.3131  0.7508 -1.4695
   12CHTO   O16 4995   5.786  -1.553   0.487  0.2402  0.1243 -0.1015
   12CHTO   C24 4996   5.680  -1.680   0.485  0.3968 -0.7432  0.0066
   12CHTO   H52 4997   5.731  -1.776   0.480  0.6151 -0.6988  1.2959
   12CHTO   C26 4998   5.592  -1.659   0.358  0.8427 -0.0148 -1.3602
   12CHTO   H54 4999   5.551  -1.556   0.368  0.0337 -0.4261 -0.3777
   12CHTO   O20 5000   5.674  -1.651   0.246 -0.0140  0.0455  0.3332
   12CHTO   H36 5001   5.644  -1.588   0.183  0.2732 -0.1254  0.0196
   12CHTO   C30 5002   5.479  -1.761   0.342  0.1448 -0.2968 -0.1207
   12CHTO   H58 5003   5.535  -1.856   0.348  0.9589  0.2930  2.7503
   12CHTO    N6 5004   5.395  -1.742   0.222 -0.4136 -0.0794  0.8155
   12CHTO   H45 5005   5.376  -1.639   0.193 -3.5930  0.1324  3.3800
   12CHTO   H46 5006   5.434  -1.794   0.136  0.0980 -0.8522  1.5150
   12CHTO   C33 5007   5.402  -1.765   0.479 -0.6115  0.4485  0.0993
   12CHTO   H61 5008   5.355  -1.668   0.498  0.5744  1.1637 -0.5670
   12CHTO   O18 5009   5.497  -1.791   0.586 -0.2330 -0.1204 -0.4737
   12CHTO   C28 5010   5.590  -1.682   0.610  0.2041 -0.4386 -0.5711
   12CHTO   H56 5011   5.538  -1.587   0.619  0.4183 -0.4499  0.8918
   12CHTO   C35 5012   5.670  -1.707   0.738  0.1174 -0.3557  0.3079
   12CHTO   O24 5013   5.585  -1.677   0.848 -0.5797  0.0831 -0.7369
   12CHTO   H39 5014   5.515  -1.739   0.846 -0.1031 -0.4658 -0.5624
   12CHTO    O9 5015   5.292  -1.861   0.477  0.3700 -0.3598  0.2141
   12CHTO   C13 5016   5.334  -2.020   0.500  0.1475  0.9018 -1.0979
   12CHTO   H26 5017   5.430  -2.025   0.556 -0.3933  0.9143 -0.1500
   12CHTO   C11 5018   5.338  -2.107   0.368 -0.2224 -0.4120  0.3742
   12CHTO   H24 5019   5.426  -2.071   0.312 -1.8833 -0.0949 -2.0933
   12CHTO    O8 5020   5.211  -2.090   0.290  0.4813  0.1776 -0.6147
   12CHTO    H3 5021   5.165  -2.171   0.287  3.3622 -1.6284  1.7896
   12CHTO    C9 5022   5.386  -2.249   0.410 -0.5559 -0.2051  0.4902
   12CHTO   H22 5023   5.473  -2.231   0.475 -0.8787  0.7522  0.6646
   12CHTO    N2 5024   5.418  -2.331   0.288  0.1850 -0.3158 -0.6549
   12CHTO   H10 5025   5.380  -2.431   0.297 -1.3049  0.2147 -0.9420
   12CHTO   H11 5026   5.376  -2.291   0.197 -1.8788 -0.8777  0.0400
   12CHTO    C7 5027   5.277  -2.309   0.506  0.1512  0.1258 -0.9279
   12CHTO   H20 5028   5.334  -2.393   0.552  1.7971  1.3526 -0.6785
   12CHTO    O4 5029   5.252  -2.227   0.618  0.3577 -0.1705 -0.1491
   12CHTO   C14 5030   5.233  -2.092   0.604  0.3864 -0.1823  0.4770
   12CHTO   H27 5031   5.266  -2.052   0.702 -0.2088  0.7826  0.2970
   12CHTO   C18 5032   5.078  -2.065   0.591 -0.4196  0.1552  0.2662
   12CHTO   O13 5033   5.004  -2.078   0.717  0.0415 -0.1052 -0.0124
   12CHTO    H7 5034   5.041  -2.022   0.782  1.7012 -0.9033 -0.2499
   12CHTO    O2 5035   5.132  -2.354   0.418  0.0009 -0.1652  0.2036
   12CHTO    C1 5036   5.077  -2.480   0.443 -0.4147 -0.4384  0.2840
   12CHTO   H14 5037   5.055  -2.491   0.552 -0.8124  0.0036  0.2503
   12CHTO    C2 5038   5.167  -2.603   0.391 -0.1720 -0.3823 -0.0844
   12CHTO   H15 5039   5.218  -2.567   0.300  1.1797 -0.2895  0.6865
   12CHTO    O6 5040   5.264  -2.627   0.490  0.2510  0.4165 -0.4251
   12CHTO    H1 5041   5.321  -2.700   0.475 -0.9656 -0.6012 -0.2566
   12CHTO    C3 5042   5.095  -2.745   0.371  0.0887  0.4799  0.1981
   12CHTO   H16 5043   5.077  -2.793   0.469 -1.2800  2.1819  0.8152
   12CHTO    N1 5044   5.172  -2.844   0.285 -0.1761 -0.8222  0.4152
   12CHTO    H8 5045   5.196  -2.790   0.195  1.4329 -0.6178  0.9566
   12CHTO    H9 5046   5.268  -2.858   0.333 -0.8734 -1.6278  1.6108
   12CHTO    C4 5047   4.954  -2.721   0.314 -0.1057  0.4780  0.4879
   12CHTO   H17 5048   4.967  -2.687   0.211 -1.3381 -0.2823  0.0721
   12CHTO    O1 5049   4.885  -2.623   0.392  0.0799 -0.3584  0.2181
   12CHTO    C5 5050   4.945  -2.492   0.370  0.8171  0.2019 -0.5123
   12CHTO   H18 5051   4.957  -2.472   0.264 -1.5394  1.1016 -0.6249
   12CHTO   C16 5052   4.849  -2.378   0.426  0.3721 -0.1065  0.7271
   12CHTO   O11 5053   4.734  -2.366   0.337  0.4082 -0.2946  0.2918
   12CHTO    H5 5054   4.703  -2.441   0.290 -2.4345  1.0315 -0.0239
   12CHTO    O3 5055   4.868  -2.842   0.319  0.3872  0.4564 -0.2190
   12CHTO    C6 5056   4.763  -2.840   0.220 -0.2496 -0.5142  0.0852
   12CHTO   H19 5057   4.741  -2.739   0.185 -0.2691 -0.1356  1.1951
   12CHTO    C8 5058   4.801  -2.923   0.101  0.0342 -0.0796 -0.1687
   12CHTO   H21 5059   4.814  -3.029   0.124  1.0860 -0.3347 -1.8320
   12CHTO    O7 5060   4.927  -2.878   0.053 -0.7049 -0.2524 -0.4241
   12CHTO    H2 5061   4.995  -2.934   0.087 -1.5658 -1.8995 -1.3512
   12CHTO   C12 5062   4.693  -2.920  -0.012 -1.1806  0.8057 -0.4622
   12CHTO   H25 5063   4.674  -2.812  -0.030  0.0069  1.4499  1.9931
   12CHTO    N3 5064   4.736  -2.986  -0.134 -0.3172 -0.3401  0.4734
   12CHTO   H12 5065   4.800  -2.925  -0.196  0.4639 -1.5058  0.1087
   12CHTO   H13 5066   4.648  -3.013  -0.190  0.2785 -4.2490  1.2787
   12CHTO   C15 5067   4.560  -2.979   0.059 -0.0637 -0.4353 -0.0311
   12CHTO   H28 5068   4.583  -3.079   0.094  1.4824  0.3576  1.2722
   12CHTO   O10 5069   4.449  -2.968  -0.013 -0.2705 -0.4500  0.3349
   12CHTO    H4 5070   4.473  -2.980  -0.103  2.0521 -1.4590  1.0520
   12CHTO    O5 5071   4.532  -2.897   0.170  0.7378 -0.1178  0.3568
   12CHTO   C10 5072   4.629  -2.897   0.274  0.2339 -1.1997 -0.1136
   12CHTO   H23 5073   4.645  -2.995   0.320 -0.3160 -0.8146  0.9101
   12CHTO   C17 5074   4.587  -2.800   0.390  0.5967 -0.5443  0.1127
   12CHTO   O12 5075   4.654  -2.822   0.517 -0.2966  0.4119  0.2469
   12CHTO    H6 5076   4.694  -2.745   0.553  0.4356 -0.4546  1.3323
   13CHTO  H203 5077   7.903   3.734   2.175 -0.0362  0.5688  0.2943
   13CHTO   O82 5078   7.956   3.761   2.103 -0.3276 -0.0118 -0.1479
   13CHTO  C123 5079   7.932   3.896   2.061  0.0771  0.3505 -0.3879
   13CHTO  H227 5080   7.975   3.922   1.963  0.6895  0.6766 -0.0313
   13CHTO   O77 5081   7.785   3.901   2.049 -0.1640 -0.1387  0.0951
   13CHTO  C118 5082   7.731   4.027   2.010 -0.8128  0.4598 -0.4681
   13CHTO  H222 5083   7.779   4.069   1.920 -0.2928  2.2837  0.6438
   13CHTO  C125 5084   7.571   4.010   1.977  0.1291  0.4128 -0.0906
   13CHTO   O84 5085   7.499   3.963   2.094 -0.2061  0.5451  0.3126
   13CHTO  H205 5086   7.463   3.877   2.082 -1.0422  0.1294  4.8446
   13CHTO  C114 5087   7.752   4.125   2.117  0.0965 -0.4815  0.2495
   13CHTO  H218 5088   7.716   4.083   2.211 -0.5211  0.9833  0.6829
   13CHTO  C116 5089   7.906   4.138   2.142  0.9173  0.2225  0.2707
   13CHTO  H220 5090   7.954   4.200   2.063  2.0177 -1.4006 -0.3476
   13CHTO   O79 5091   7.924   4.225   2.250  0.0287  0.1199 -0.0533
   13CHTO  H201 5092   7.965   4.186   2.325  3.8541 -0.3590 -2.2818
   13CHTO  C120 5093   7.972   3.995   2.172 -0.2241 -0.4484  0.8170
   13CHTO  H224 5094   7.930   3.965   2.270 -1.6585  0.1207  0.3906
   13CHTO   N21 5095   8.123   4.001   2.189  0.4762  0.7766 -0.5689
   13CHTO  H211 5096   8.152   4.000   2.085 -0.0038 -0.9240 -0.7120
   13CHTO  H212 5097   8.159   3.906   2.225 -0.2249  0.3080 -1.0754
   13CHTO   O75 5098   7.674   4.242   2.081 -0.4529  0.4391  0.2193
   13CHTO  C112 5099   7.617   4.318   2.218 -0.3730  0.1603  0.1740
   13CHTO  H216 5100   7.686   4.290   2.299 -0.1480  1.5629  0.4811
   13CHTO   O73 5101   7.484   4.270   2.241  0.4291 -0.3762  0.0290
   13CHTO  C113 5102   7.421   4.321   2.353 -0.2186 -0.6257 -0.0548
   13CHTO  H217 5103   7.484   4.329   2.444 -1.7866  3.7789  0.7646
   13CHTO  C124 5104   7.300   4.227   2.380  0.6055 -0.2501  0.1393
   13CHTO   O83 5105   7.209   4.243   2.268  0.0937 -0.2131  0.4115
   13CHTO  H204 5106   7.127   4.221   2.310 -1.8762  0.4529 -2.8933
   13CHTO  C109 5107   7.395   4.472   2.328 -0.8242 -0.1942  0.1274
   13CHTO  H213 5108   7.335   4.480   2.236 -1.3429  1.5634  0.5955
   13CHTO  C110 5109   7.530   4.545   2.308  0.1841 -0.3426 -0.8249
   13CHTO  H214 5110   7.586   4.546   2.402 -0.9268 -1.0869 -0.1443
   13CHTO   O78 5111   7.503   4.679   2.261 -0.4079  0.0958  0.2418
   13CHTO  H200 5112   7.574   4.736   2.284 -0.6123  0.3058  0.3593
   13CHTO  C111 5113   7.623   4.473   2.197  0.9717  0.6132 -0.7907
   13CHTO  H215 5114   7.581   4.491   2.097  1.9156 -2.0362 -1.7186
   13CHTO   N19 5115   7.759   4.528   2.197 -0.3545  0.2411  0.3762
   13CHTO  H207 5116   7.774   4.630   2.165 -0.2923  0.0032 -0.3582
   13CHTO  H208 5117   7.834   4.471   2.143  0.9830  2.5045 -0.2068
   13CHTO   O74 5118   7.321   4.532   2.432 -0.4927 -0.0540  0.4962
   13CHTO  C115 5119   7.219   4.652   2.380  0.1325 -0.5098 -0.2055
   13CHTO  H219 5120   7.274   4.731   2.330  1.5035 -1.2324  0.1258
   13CHTO   O76 5121   7.118   4.599   2.272  0.0154  0.0801 -0.3924
   13CHTO  C122 5122   7.015   4.519   2.322  0.9932  0.2200  0.1318
   13CHTO  H226 5123   7.060   4.431   2.368 -0.4818  0.0170  1.1867
   13CHTO  C126 5124   6.941   4.474   2.189  0.4454 -0.6803 -0.1766
   13CHTO   O85 5125   7.015   4.387   2.100  0.3018 -0.1635 -0.8001
   13CHTO  H206 5126   7.017   4.301   2.138  2.5758 -0.2095 -0.9497
   13CHTO  C121 5127   6.923   4.597   2.425 -0.3962  0.0094  0.3726
   13CHTO  H225 5128   6.829   4.613   2.368 -1.3071  0.4485  1.9943
   13CHTO   O81 5129   6.908   4.514   2.540 -0.5603  0.3680  0.5438
   13CHTO  H202 5130   6.864   4.433   2.524 -0.4834  0.1040  1.6096
   13CHTO  C119 5131   6.984   4.736   2.453  0.3771 -0.6885  0.5770
   13CHTO  H223 5132   6.988   4.786   2.356 -1.4612 -0.3227  0.6876
   13CHTO  C117 5133   7.135   4.715   2.497 -0.4073 -0.1369 -0.2239
   13CHTO  H221 5134   7.145   4.652   2.586  0.2184 -0.6879 -0.6780
   13CHTO   N20 5135   7.179   4.851   2.539 -0.3717  0.1645 -0.1442
   13CHTO  H209 5136   7.256   4.885   2.471 -1.4496  1.8606 -0.5511
   13CHTO  H210 5137   7.218   4.836   2.639 -0.9226  0.0902  0.0596
   13CHTO   O80 5138   6.889   4.824   2.536  0.0900  0.0964 -0.2493
   13CHTO  C103 5139   6.760   4.900   2.468  0.1743 -0.3456  0.6700
   13CHTO  H190 5140   6.747   5.001   2.506  0.1614 -0.5057  1.0955
   13CHTO  C101 5141   6.759   4.917   2.307  0.2093 -0.3553 -0.4887
   13CHTO  H188 5142   6.774   4.822   2.256 -0.3090  0.6072 -2.4866
   13CHTO   O68 5143   6.876   5.013   2.261 -0.4345  0.0371  0.3207
   13CHTO  H168 5144   6.874   5.095   2.306 -1.7532 -0.1129  0.5637
   13CHTO   C99 5145   6.617   4.971   2.255 -0.5127  0.6075  0.6431
   13CHTO  H186 5146   6.591   5.073   2.290 -1.4560 -0.0201  1.7993
   13CHTO   N17 5147   6.607   4.979   2.103 -0.4541  0.0656  0.5480
   13CHTO  H174 5148   6.637   5.079   2.076 -0.0468 -0.6180 -1.6596
   13CHTO  H175 5149   6.508   4.948   2.074 -0.9328  1.2382  0.8976
   13CHTO   C97 5150   6.502   4.879   2.310 -0.5894  0.5750 -0.5120
   13CHTO  H184 5151   6.512   4.778   2.268  1.7897 -0.7800  3.0773
   13CHTO   O64 5152   6.520   4.878   2.448  0.1429  0.2957  0.5739
   13CHTO  C104 5153   6.633   4.815   2.513 -0.4970  0.3571  1.1338
   13CHTO  H191 5154   6.641   4.713   2.475 -1.1888  0.0046  1.9157
   13CHTO  C108 5155   6.622   4.818   2.658  0.2761  0.1671 -0.7475
   13CHTO   O71 5156   6.538   4.734   2.744  0.0246  0.9563  1.0102
   13CHTO  H171 5157   6.447   4.744   2.724  0.1238 -0.9898 -0.6205
   13CHTO   O62 5158   6.366   4.927   2.299 -0.2934 -0.1193 -0.1417
   13CHTO   C91 5159   6.269   4.817   2.297  0.0144 -0.2745  0.3148
   13CHTO  H178 5160   6.314   4.724   2.332  0.4963  0.3988  1.5146
   13CHTO   C92 5161   6.232   4.809   2.143 -0.3219 -0.0168  0.0050
   13CHTO  H179 5162   6.223   4.908   2.097 -1.6336  0.3812  1.0997
   13CHTO   O66 5163   6.343   4.745   2.076 -0.2263  0.1555  0.1063
   13CHTO  H166 5164   6.334   4.735   1.983  1.5799  3.1561 -0.4791
   13CHTO   C93 5165   6.099   4.731   2.115 -0.6079  0.2622 -0.1787
   13CHTO  H180 5166   6.123   4.624   2.107 -3.2476 -0.3764 -0.0092
   13CHTO   N16 5167   6.059   4.758   1.972 -0.0496 -0.4520  0.1218
   13CHTO  H172 5168   6.137   4.756   1.897  0.4091 -2.5046  0.6065
   13CHTO  H173 5169   5.984   4.833   1.954 -0.9729 -1.8705 -2.1490
   13CHTO   C94 5170   5.986   4.762   2.217 -0.0247  0.4415  0.0507
   13CHTO  H181 5171   5.957   4.867   2.220  1.4599  0.8417  0.6673
   13CHTO   O61 5172   6.041   4.730   2.349 -0.2173  0.1603 -0.1036
   13CHTO   C95 5173   6.140   4.830   2.386  0.3788  0.2732  0.2352
   13CHTO  H182 5174   6.095   4.929   2.379 -0.2634  0.0918  1.4785
   13CHTO  C106 5175   6.158   4.808   2.538 -0.4019 -0.1706 -0.5739
   13CHTO   O69 5176   6.254   4.902   2.592 -0.0903 -1.1203  0.0016
   13CHTO  H169 5177   6.326   4.851   2.623  1.4653  0.1148 -1.5048
   13CHTO   O63 5178   5.861   4.678   2.180 -0.4422 -0.0720  0.3640
   13CHTO   C96 5179   5.725   4.766   2.128 -0.3204  0.4611  0.4228
   13CHTO  H183 5180   5.759   4.840   2.056 -0.2148 -0.8364 -0.8920
   13CHTO   C98 5181   5.655   4.830   2.254 -0.0861 -0.0504 -0.2331
   13CHTO  H185 5182   5.726   4.901   2.300  0.6857  0.1917 -1.7470
   13CHTO   O67 5183   5.542   4.907   2.213  0.0307  0.3211 -0.4137
   13CHTO  H167 5184   5.547   5.001   2.204 -0.5954  0.9255  4.3375
   13CHTO  C102 5185   5.608   4.710   2.356  0.1513 -0.2029 -0.0770
   13CHTO  H189 5186   5.515   4.749   2.401 -0.1860  0.6795 -1.5012
   13CHTO   N18 5187   5.701   4.669   2.467  0.3726 -0.2833 -0.6456
   13CHTO  H176 5188   5.656   4.599   2.536 -1.5572  1.3651 -0.1834
   13CHTO  H177 5189   5.788   4.626   2.419 -0.6085 -0.3735 -2.3630
   13CHTO  C105 5190   5.551   4.590   2.271  0.2760 -0.7586 -0.0977
   13CHTO  H192 5191   5.629   4.514   2.258 -1.2602 -2.1313 -1.4591
   13CHTO   O65 5192   5.513   4.633   2.135 -0.4859 -0.2853 -0.0257
   13CHTO  C100 5193   5.630   4.663   2.058 -0.2520 -0.1696 -1.3579
   13CHTO  H187 5194   5.692   4.572   2.054  3.6018  2.1870  1.4136
   13CHTO  C107 5195   5.596   4.696   1.916 -0.5295 -0.1651 -0.1540
   13CHTO   O70 5196   5.482   4.779   1.912 -0.0752  0.4145 -0.6681
   13CHTO  H170 5197   5.490   4.833   1.836 -1.3301  2.2084  0.4494
   13CHTO   O57 5198   5.435   4.546   2.341  0.8972 -0.0255  0.0777
   13CHTO   C85 5199   5.369   4.429   2.294 -0.6079  0.0262 -0.2478
   13CHTO  H157 5200   5.408   4.403   2.193 -0.0889  0.5293 -0.1763
   13CHTO   C83 5201   5.217   4.465   2.267  0.6491  0.7673  0.1702
   13CHTO  H155 5202   5.212   4.536   2.184  0.5449  0.8529  0.2501
   13CHTO   O56 5203   5.165   4.546   2.376  0.2766 -0.3421  0.0167
   13CHTO  H135 5204   5.139   4.492   2.448 -0.6026  0.8624  0.6326
   13CHTO   C81 5205   5.144   4.328   2.228  0.3266 -0.7458  0.2754
   13CHTO  H153 5206   5.195   4.282   2.143  0.3382 -1.5679  0.7239
   13CHTO   N14 5207   5.006   4.349   2.183 -0.2080  0.1981  0.4748
   13CHTO  H141 5208   5.011   4.438   2.124  0.3491 -0.6879 -0.8435
   13CHTO  H142 5209   4.978   4.265   2.122  1.5907 -0.5613  0.6604
   13CHTO   C79 5210   5.149   4.229   2.346  0.3448 -0.1577  0.3299
   13CHTO  H151 5211   5.101   4.137   2.311 -0.5898  0.5982 -0.3966
   13CHTO   O52 5212   5.286   4.193   2.376 -0.1436 -0.0938 -0.7117
   13CHTO   C86 5213   5.378   4.306   2.388 -0.1546 -0.0738 -0.0103
   13CHTO  H158 5214   5.369   4.330   2.496 -0.8324 -2.4552  0.4913
   13CHTO   C90 5215   5.515   4.249   2.373 -0.4478 -1.1212  0.1500
   13CHTO   O60 5216   5.521   4.146   2.276  0.3488 -0.0798  0.2918
   13CHTO  H138 5217   5.496   4.066   2.317  1.4214 -0.5125  0.1212
   13CHTO   O50 5218   5.087   4.286   2.462  0.8251 -0.0603  0.5245
   13CHTO   C73 5219   5.008   4.236   2.573  0.8270 -0.1620  0.0483
   13CHTO  H145 5220   4.986   4.129   2.561 -0.6759 -0.0661  1.7635
   13CHTO   C74 5221   4.869   4.311   2.571 -0.8401 -0.4765 -0.1105
   13CHTO  H146 5222   4.820   4.295   2.474 -0.4400  0.2106 -0.4387
   13CHTO   O54 5223   4.786   4.255   2.676 -0.0620 -0.0681  0.3226
   13CHTO  H133 5224   4.790   4.161   2.683  0.2760 -0.1073 -0.2809
   13CHTO   C75 5225   4.887   4.459   2.594  0.0164 -0.0620  1.0364
   13CHTO  H147 5226   4.936   4.494   2.502  1.8866  0.3126  2.1463
   13CHTO   N13 5227   4.759   4.534   2.592  0.0964 -0.1732  0.5218
   13CHTO  H139 5228   4.711   4.554   2.687 -2.1072  1.3788 -0.8659
   13CHTO  H140 5229   4.766   4.634   2.550  1.4982 -0.9003 -1.0337
   13CHTO   C76 5230   4.981   4.492   2.720 -0.5185  0.8173 -0.3926
   13CHTO  H148 5231   4.923   4.483   2.812 -1.1665 -1.0616 -0.9515
   13CHTO   O49 5232   5.102   4.405   2.720  0.1817  0.8876  0.8299
   13CHTO   C77 5233   5.079   4.263   2.705 -0.2508  0.6681 -0.1918
   13CHTO  H149 5234   5.021   4.224   2.788  1.4017  1.3352  1.3099
   13CHTO   C88 5235   5.220   4.202   2.711 -0.4837  0.8773  0.2879
   13CHTO   O58 5236   5.201   4.060   2.729 -0.3253 -0.2425  0.4189
   13CHTO  H136 5237   5.174   4.047   2.818  1.0299  0.5666  0.9625
   13CHTO   O51 5238   5.023   4.635   2.694 -0.2195 -0.2135 -0.3152
   13CHTO   C78 5239   5.122   4.684   2.817  0.3523  0.1194  0.2483
   13CHTO  H150 5240   5.168   4.595   2.866 -0.1458 -0.5204 -0.4284
   13CHTO   C80 5241   5.046   4.757   2.932  0.0328 -0.8033  0.0812
   13CHTO  H152 5242   5.001   4.851   2.892 -0.2925 -1.7415 -1.7863
   13CHTO   O55 5243   4.943   4.664   2.967 -0.0945 -0.3131  0.0515
   13CHTO  H134 5244   4.958   4.641   3.057  1.1852  2.5691  0.6477
   13CHTO   C84 5245   5.148   4.792   3.041 -0.5721  0.5351 -0.1401
   13CHTO  H156 5246   5.182   4.696   3.081  4.0051  3.0753  2.4876
   13CHTO   N15 5247   5.087   4.847   3.169  0.3482 -0.8322  0.5232
   13CHTO  H143 5248   5.136   4.922   3.225 -1.2639 -0.4414  1.4326
   13CHTO  H144 5249   4.988   4.881   3.144 -0.0526 -0.7511  2.1547
   13CHTO   C87 5250   5.253   4.888   2.993 -0.5984 -0.5277 -0.1521
   13CHTO  H159 5251   5.214   4.988   2.972  1.4317 -0.4639 -4.1548
   13CHTO   O53 5252   5.312   4.828   2.859  0.2012 -0.4470  0.5329
   13CHTO   C82 5253   5.218   4.790   2.757  0.1160 -0.0935  0.2473
   13CHTO  H154 5254   5.169   4.883   2.729  1.7944  0.7504  0.0657
   13CHTO   C89 5255   5.288   4.739   2.627 -0.8836 -0.0248 -0.0782
   13CHTO   O59 5256   5.377   4.839   2.567  0.3667 -0.0675  0.8989
   13CHTO  H137 5257   5.436   4.787   2.517 -1.6939 -1.1210 -0.5160
   13CHTO   O45 5258   5.375   4.890   3.080 -0.0774 -0.0025  0.4063
   13CHTO   C67 5259   5.476   4.786   3.068 -0.6352  0.7950  0.5551
   13CHTO  H124 5260   5.432   4.697   3.022 -1.8235 -0.0319  3.2234
   13CHTO   C65 5261   5.590   4.847   2.983 -0.6970 -0.4280  0.5151
   13CHTO  H122 5262   5.552   4.939   2.938  2.0928  0.6451  0.2066
   13CHTO   O44 5263   5.624   4.749   2.885 -0.7748 -0.5144 -0.0051
   13CHTO  H102 5264   5.564   4.724   2.819 -0.5838 -1.5895  0.2206
   13CHTO   C63 5265   5.708   4.909   3.070 -0.4897 -0.1439 -0.0673
   13CHTO  H120 5266   5.666   4.972   3.148  2.1982  0.4890  0.9380
   13CHTO   N11 5267   5.801   4.999   2.996  0.7178  0.1310 -0.5687
   13CHTO  H108 5268   5.850   4.935   2.926 -0.9815 -2.1077  0.2099
   13CHTO  H109 5269   5.887   5.040   3.046 -0.5901  0.8130  1.2051
   13CHTO   C61 5270   5.767   4.783   3.148 -0.0821  0.4646 -0.0784
   13CHTO  H118 5271   5.826   4.823   3.232  0.5838 -1.0161  0.1731
   13CHTO   O40 5272   5.667   4.695   3.208 -0.5458 -0.3640  0.0739
   13CHTO   C68 5273   5.530   4.746   3.218 -0.6032 -0.7240 -0.1796
   13CHTO  H125 5274   5.531   4.828   3.293  0.0566  1.3882 -2.4527
   13CHTO   C72 5275   5.443   4.638   3.280 -0.1236  0.3229  0.2694
   13CHTO   O48 5276   5.312   4.682   3.323 -0.1891  0.0124  0.5208
   13CHTO  H105 5277   5.283   4.718   3.241  1.0492 -0.1064  0.0329
   13CHTO   O38 5278   5.858   4.708   3.064 -0.0122  0.4755 -0.3885
   13CHTO   C55 5279   5.986   4.654   3.112 -0.4300  0.4105 -0.3923
   13CHTO  H112 5280   6.043   4.607   3.030 -1.7293  0.6701 -1.4693
   13CHTO   C56 5281   5.967   4.550   3.233  0.0923 -0.3824 -0.1503
   13CHTO  H113 5282   5.918   4.603   3.316 -0.7159 -0.7458 -0.3896
   13CHTO   O42 5283   5.872   4.451   3.195  0.4315  0.2869 -0.7620
   13CHTO  H100 5284   5.903   4.405   3.120  0.3490 -0.0074 -0.6168
   13CHTO   C57 5285   6.107   4.485   3.280 -0.1164  0.3703 -0.3401
   13CHTO  H114 5286   6.140   4.425   3.195  1.3415 -2.0888  1.8606
   13CHTO   N10 5287   6.099   4.395   3.400 -0.7551 -0.2119 -0.2354
   13CHTO  H106 5288   6.102   4.447   3.495 -0.7395  1.0841 -0.9362
   13CHTO  H107 5289   6.012   4.331   3.394  0.2132 -1.6175  0.3089
   13CHTO   C58 5290   6.211   4.595   3.307  0.5526  0.2192 -0.1153
   13CHTO  H115 5291   6.182   4.659   3.393 -0.6597 -0.4628 -0.0043
   13CHTO   O37 5292   6.208   4.679   3.194 -0.3581 -0.3017  0.5433
   13CHTO   C59 5293   6.094   4.759   3.157 -0.6311 -0.1544 -0.0439
   13CHTO  H116 5294   6.052   4.814   3.242 -1.9610  0.1256 -0.8616
   13CHTO   C70 5295   6.132   4.847   3.033 -0.3135  0.2190 -0.4943
   13CHTO   O46 5296   6.267   4.881   2.998 -0.2706 -0.2195  0.3001
   13CHTO  H103 5297   6.304   4.933   3.066  0.7182 -1.1904  0.5205
   13CHTO   O39 5298   6.361   4.533   3.329  0.2119  0.3276  0.0703
   13CHTO   C60 5299   6.453   4.586   3.428  0.2581 -0.4734 -0.0400
   13CHTO  H117 5300   6.418   4.689   3.434 -2.7624 -1.4462 -0.2419
   13CHTO   C62 5301   6.430   4.528   3.566 -0.5269 -0.0333 -0.0750
   13CHTO  H119 5302   6.328   4.562   3.594 -1.0910 -0.6902 -1.3130
   13CHTO   O43 5303   6.453   4.383   3.561  0.2803  0.2173 -0.4927
   13CHTO  H101 5304   6.535   4.363   3.601 -0.5064 -1.4704  0.3209
   13CHTO   C66 5305   6.528   4.612   3.664  0.3101 -0.2235  1.1802
   13CHTO  H123 5306   6.498   4.716   3.657 -0.0966 -0.3792  0.5018
   13CHTO   N12 5307   6.510   4.571   3.807  0.1941  0.3163 -0.1772
   13CHTO  H110 5308   6.546   4.470   3.821 -0.4587  0.3012  1.5562
   13CHTO  H111 5309   6.408   4.585   3.839 -0.3940 -0.9681 -1.4251
   13CHTO   C69 5310   6.676   4.601   3.627  0.4195  0.1236 -0.6181
   13CHTO  H126 5311   6.710   4.496   3.620 -1.0972 -0.6101  2.5337
   13CHTO   O41 5312   6.690   4.667   3.488  0.2048 -0.0556  0.7334
   13CHTO   C64 5313   6.601   4.588   3.385 -0.2409 -0.3808 -0.1941
   13CHTO  H121 5314   6.654   4.490   3.374  0.8127  0.1427  0.1617
   13CHTO   C71 5315   6.615   4.656   3.244 -0.0758  0.1304  0.6291
   13CHTO   O47 5316   6.575   4.799   3.243 -0.3890  0.4657 -0.1574
   13CHTO  H104 5317   6.488   4.792   3.208 -0.1737  0.4453 -0.6930
   13CHTO   O34 5318   6.753   4.697   3.741  0.5289 -0.1459  0.3283
   13CHTO   C49 5319   6.901   4.745   3.761 -0.4168  0.0801  0.5283
   13CHTO   H91 5320   6.962   4.658   3.734  1.3086  1.6012 -0.6071
   13CHTO   C47 5321   6.934   4.791   3.903  0.3322 -0.5176 -0.0196
   13CHTO   H89 5322   7.044   4.804   3.897  0.2443  0.9193  1.4273
   13CHTO   O33 5323   6.908   4.685   3.992 -0.2549  0.4784 -0.4868
   13CHTO   H70 5324   6.976   4.621   3.980  1.0151  2.1856 -2.7970
   13CHTO   C45 5325   6.855   4.927   3.941 -0.0733  0.1111 -0.1671
   13CHTO   H87 5326   6.761   4.903   3.994 -0.3822 -0.2072 -0.8515
   13CHTO    N8 5327   6.938   5.007   4.034 -0.4564 -0.0410 -0.6532
   13CHTO   H75 5328   6.913   5.004   4.139 -0.7171 -0.5241 -0.7263
   13CHTO   H76 5329   7.044   4.986   4.037 -0.3585  0.5734  1.3509
   13CHTO   C43 5330   6.808   4.994   3.803  0.5513  0.3033 -0.8116
   13CHTO   H85 5331   6.724   4.932   3.772  0.7759 -0.5660  0.2791
   13CHTO   O29 5332   6.919   4.990   3.715  0.1743 -0.3480  0.4429
   13CHTO   C50 5333   6.928   4.861   3.662 -0.3539 -0.0357  0.3492
   13CHTO   H92 5334   6.853   4.855   3.583 -0.5237  1.3028  0.4059
   13CHTO   C54 5335   7.073   4.855   3.591 -0.0205  0.3645 -0.0320
   13CHTO   O36 5336   7.090   4.726   3.522 -0.2823 -0.1429 -0.0843
   13CHTO   H72 5337   7.076   4.747   3.432  3.0132  2.2349 -0.1403
   13CHTO   O27 5338   6.759   5.126   3.822  0.5871 -0.0602 -0.4753
   13CHTO   C37 5339   6.801   5.259   3.855  0.1514 -0.2743  0.3538
   13CHTO   H79 5340   6.812   5.279   3.962 -0.8584  0.4261  0.3248
   13CHTO   C38 5341   6.932   5.309   3.780  0.3079 -0.0607 -0.4891
   13CHTO   H80 5342   6.922   5.275   3.676 -1.3867 -0.6323 -0.1605
   13CHTO   O31 5343   7.050   5.238   3.839 -0.2097 -0.4629  0.0912
   13CHTO   H68 5344   7.110   5.221   3.769 -0.5967 -1.4462 -0.0075
   13CHTO   C39 5345   6.944   5.466   3.790 -0.7845  0.3289 -0.2116
   13CHTO   H81 5346   6.968   5.476   3.896 -0.5262  1.1432 -0.3381
   13CHTO    N7 5347   7.062   5.521   3.716 -0.2653  0.4938 -0.3606
   13CHTO   H73 5348   7.057   5.523   3.608  0.1476  1.7596 -0.3672
   13CHTO   H74 5349   7.151   5.480   3.763 -0.2778  1.8346  0.8866
   13CHTO   C40 5350   6.810   5.543   3.748 -0.6246  0.3118 -0.2682
   13CHTO   H82 5351   6.793   5.542   3.640 -1.8028  0.0537 -0.0855
   13CHTO   O26 5352   6.703   5.480   3.819  0.6804 -0.0087  0.6010
   13CHTO   C41 5353   6.679   5.345   3.802 -0.3645  0.5060 -0.2870
   13CHTO   H83 5354   6.666   5.332   3.694 -0.9874 -1.3203 -0.0175
   13CHTO   C52 5355   6.547   5.311   3.871 -0.5203  0.5675 -0.2685
   13CHTO   O35 5356   6.431   5.368   3.807 -0.2519  0.1772  0.0493
   13CHTO   H71 5357   6.355   5.313   3.808  0.4737 -0.8453 -0.0553
   13CHTO   O28 5358   6.800   5.680   3.783 -0.4436  0.2325 -0.0198
   13CHTO   C42 5359   6.773   5.799   3.701  0.0675  0.6399 -0.6093
   13CHTO   H84 5360   6.789   5.765   3.599 -2.1287  0.5986 -0.9808
   13CHTO   C44 5361   6.878   5.911   3.723  0.8103 -0.4286  0.1835
   13CHTO   H86 5362   6.888   5.919   3.832 -1.2525 -0.2423  0.3843
   13CHTO   O32 5363   7.008   5.874   3.680  0.3863 -0.0372 -0.3561
   13CHTO   H69 5364   7.065   5.851   3.750  1.6353 -1.5098 -1.8157
   13CHTO   C48 5365   6.834   6.056   3.662  0.2875  0.6257 -0.6549
   13CHTO   H90 5366   6.850   6.049   3.554  1.2904 -0.1012 -0.4757
   13CHTO    N9 5367   6.917   6.177   3.697 -0.0112 -0.4464 -0.0042
   13CHTO   H77 5368   6.857   6.260   3.733  0.2409 -0.3058  0.0955
   13CHTO   H78 5369   6.980   6.208   3.615  0.0138  2.2192  0.9636
   13CHTO   C51 5370   6.684   6.082   3.687 -0.1718 -0.4370 -0.4401
   13CHTO   H93 5371   6.666   6.089   3.795 -1.0237 -0.1497 -0.6004
   13CHTO   O30 5372   6.614   5.972   3.632 -0.1292 -0.0182 -0.2974
   13CHTO   C46 5373   6.627   5.853   3.710 -0.0579 -0.2387  0.1048
   13CHTO   H88 5374   6.598   5.865   3.815 -1.0564 -2.7719  0.1382
   13CHTO   C53 5375   6.522   5.748   3.647  0.1270 -0.0385 -0.3303
   13CHTO   O72 5376   6.477   5.666   3.747  0.5031  0.0376  0.7440
   13CHTO  H199 5377   6.551   5.623   3.786  0.6757 -1.2645 -0.9705
   13CHTO   O22 5378   6.635   6.203   3.622  0.3045 -0.4475  0.6472
   13CHTO   C31 5379   6.508   6.221   3.554 -0.9522 -0.0730  0.0050
   13CHTO   H59 5380   6.496   6.135   3.485 -0.8799 -0.8858  1.0057
   13CHTO   C29 5381   6.383   6.223   3.652 -0.3162  0.3922  0.4844
   13CHTO   H57 5382   6.396   6.305   3.724 -0.3695 -1.1069  2.2305
   13CHTO   O21 5383   6.384   6.097   3.734  0.5000 -0.6737  0.1511
   13CHTO   H37 5384   6.465   6.090   3.780  0.7035  1.4260  0.1358
   13CHTO   C27 5385   6.242   6.250   3.580 -0.1074 -0.9691 -0.2748
   13CHTO   H55 5386   6.219   6.173   3.505 -1.0144 -0.1369 -0.8501
   13CHTO    N5 5387   6.131   6.256   3.674 -0.1638 -0.4567 -0.2170
   13CHTO   H43 5388   6.075   6.163   3.684 -2.7282  0.5270 -4.3684
   13CHTO   H44 5389   6.079   6.350   3.667 -1.0731 -0.9731 -0.5740
   13CHTO   C25 5390   6.252   6.382   3.497 -0.0266  0.1091 -0.3358
   13CHTO   H53 5391   6.261   6.471   3.562 -0.9162 -0.9014  1.2349
   13CHTO   O17 5392   6.373   6.378   3.411  0.3031  0.4837  0.2657
   13CHTO   C32 5393   6.500   6.356   3.465  0.6552 -0.2648 -0.0277
   13CHTO   H60 5394   6.521   6.443   3.528 -1.0010  1.6534 -2.0495
   13CHTO   C36 5395   6.609   6.338   3.358 -0.2495  0.4886 -0.2525
   13CHTO   O25 5396   6.627   6.449   3.267 -0.2611  0.3591  0.3906
   13CHTO   H40 5397   6.641   6.533   3.306  0.1638  0.8215 -0.7358
   13CHTO   O15 5398   6.113   6.402   3.384 -0.2547  0.4410  0.1230
   13CHTO   C19 5399   6.013   6.507   3.407 -0.0171  0.5588  0.6215
   13CHTO   H47 5400   6.013   6.524   3.516 -0.7733  0.3339  0.6599
   13CHTO   C20 5401   6.046   6.646   3.345 -0.0385 -0.0950  0.6456
   13CHTO   H48 5402   6.042   6.644   3.235  0.9459  0.2837  0.5919
   13CHTO   O19 5403   6.180   6.684   3.382  0.0881  0.5926 -0.1954
   13CHTO   H35 5404   6.231   6.695   3.305 -0.0016 -1.0387 -0.5189
   13CHTO   C21 5405   5.941   6.757   3.397  0.6043 -0.4349 -0.0816
   13CHTO   H49 5406   5.947   6.769   3.505  2.3337  1.0941 -0.3113
   13CHTO    N4 5407   5.964   6.895   3.347  0.3865 -0.0490 -0.1986
   13CHTO   H41 5408   6.059   6.901   3.297  0.2707 -0.4644 -0.4680
   13CHTO   H42 5409   5.886   6.914   3.274  2.3658  2.8797 -1.6365
   13CHTO   C22 5410   5.795   6.703   3.383  0.1175  0.2882  0.4689
   13CHTO   H50 5411   5.770   6.718   3.278 -1.5514 -0.3804  0.7576
   13CHTO   O14 5412   5.776   6.565   3.418 -0.3636  0.7658 -0.0896
   13CHTO   C23 5413   5.866   6.470   3.357  0.3977  0.0624 -1.1383
   13CHTO   H51 5414   5.852   6.475   3.248  0.4199  2.6554 -1.0480
   13CHTO   C34 5415   5.824   6.330   3.392  0.2272  0.0735 -0.2665
   13CHTO   O23 5416   5.899   6.228   3.311 -0.6915  0.4644 -0.7380
   13CHTO   H38 5417   5.881   6.146   3.351 -0.0608  0.0122 -1.3695
   13CHTO   O16 5418   5.705   6.786   3.463 -0.1098  0.5416 -0.6592
   13CHTO   C24 5419   5.551   6.722   3.484 -0.8968 -0.1485 -0.2125
   13CHTO   H52 5420   5.545   6.620   3.446  1.2621  1.4895 -5.3665
   13CHTO   C26 5421   5.448   6.811   3.413  0.5527  0.4312 -0.1091
   13CHTO   H54 5422   5.464   6.916   3.447  1.8869  0.0737  0.3887
   13CHTO   O20 5423   5.468   6.817   3.275 -0.1669 -0.3242  0.2041
   13CHTO   H36 5424   5.557   6.797   3.252  0.0206  0.4319  0.2539
   13CHTO   C30 5425   5.304   6.764   3.455 -0.6341 -0.3408 -0.3905
   13CHTO   H58 5426   5.294   6.664   3.410  1.9819 -0.1709 -1.4786
   13CHTO    N6 5427   5.194   6.842   3.387 -0.6221 -0.0993  0.6964
   13CHTO   H45 5428   5.093   6.834   3.426 -2.4738  2.0509 -3.3008
   13CHTO   H46 5429   5.220   6.946   3.385  0.9469 -0.4908  0.2339
   13CHTO   C33 5430   5.285   6.756   3.613 -0.3903 -0.0548 -0.2327
   13CHTO   H61 5431   5.300   6.858   3.651 -1.4955  0.5342 -1.3550
   13CHTO   O18 5432   5.394   6.673   3.660 -0.3919 -0.2746  0.1491
   13CHTO   C28 5433   5.518   6.727   3.633  1.1285  0.1788  0.3459
   13CHTO   H56 5434   5.517   6.833   3.660  0.2857  0.4373 -0.6592
   13CHTO   C35 5435   5.615   6.653   3.731  0.3437 -0.3094 -0.7756
   13CHTO   O24 5436   5.621   6.518   3.698  0.2999  0.0329 -0.1373
   13CHTO   H39 5437   5.627   6.461   3.772 -2.2304 -0.4371 -0.2426
   13CHTO    O9 5438   5.156   6.712   3.669 -0.1807  0.3622  0.0902
   13CHTO   C13 5439   5.123   6.769   3.804 -0.2096 -0.2530  0.4331
   13CHTO   H26 5440   5.191   6.856   3.819  1.4247 -1.3842 -0.2195
   13CHTO   C11 5441   5.154   6.656   3.910 -0.2862 -0.1560 -0.2513
   13CHTO   H24 5442   5.263   6.643   3.907 -0.5291 -2.4712  0.0503
   13CHTO    O8 5443   5.085   6.537   3.870 -0.3655  0.7175 -0.6804
   13CHTO    H3 5444   5.143   6.464   3.857  0.5866  0.7380  2.9437
   13CHTO    C9 5445   5.119   6.709   4.048  0.5096  0.2866 -0.6982
   13CHTO   H22 5446   5.185   6.797   4.061 -0.2041  0.6588  0.4942
   13CHTO    N2 5447   5.162   6.623   4.161  0.4755  0.1662 -0.4316
   13CHTO   H10 5448   5.104   6.531   4.157  1.1446 -0.2572 -0.4838
   13CHTO   H11 5449   5.267   6.598   4.164  1.2400  2.9433 -2.2344
   13CHTO    C7 5450   4.967   6.747   4.051 -0.2998 -0.6668  0.0169
   13CHTO   H20 5451   4.962   6.814   4.140 -1.2209 -0.3316 -0.2828
   13CHTO    O4 5452   4.916   6.829   3.943 -0.2796  0.9879  0.1363
   13CHTO   C14 5453   4.965   6.821   3.813  1.0103  0.5260 -0.3375
   13CHTO   H27 5454   4.949   6.921   3.768 -2.2276 -1.2110 -3.2625
   13CHTO   C18 5455   4.872   6.721   3.736 -0.5088  0.0203  0.6680
   13CHTO   O13 5456   4.751   6.763   3.669  0.0727  0.8969 -0.1973
   13CHTO    H7 5457   4.737   6.729   3.583  1.1934 -1.8124  0.6321
   13CHTO    O2 5458   4.862   6.614   4.055  0.0303 -0.3311 -0.1150
   13CHTO    C1 5459   4.772   6.628   4.170  0.4307 -0.0091  0.2881
   13CHTO   H14 5460   4.791   6.727   4.216 -1.7823 -0.7060  2.8564
   13CHTO    C2 5461   4.787   6.508   4.275 -0.6455 -0.0977 -0.0272
   13CHTO   H15 5462   4.787   6.418   4.213  0.5905  0.6890 -1.2116
   13CHTO    O6 5463   4.913   6.532   4.338 -0.0934 -0.0660 -0.6018
   13CHTO    H1 5464   4.937   6.459   4.393 -3.4768 -0.8946 -0.0918
   13CHTO    C3 5465   4.669   6.492   4.377 -0.0105  0.5681  0.2042
   13CHTO   H16 5466   4.687   6.573   4.449  1.2149 -0.0338  0.5771
   13CHTO    N1 5467   4.685   6.370   4.461  0.6035 -0.0102 -0.4935
   13CHTO    H8 5468   4.717   6.282   4.408  1.0077 -1.4381  2.0406
   13CHTO    H9 5469   4.767   6.389   4.528  1.4511 -3.5893 -0.4120
   13CHTO    C4 5470   4.530   6.517   4.308 -0.2324  0.1351  0.0154
   13CHTO   H17 5471   4.507   6.430   4.246 -2.0080  1.8246 -1.7737
   13CHTO    O1 5472   4.533   6.632   4.225  0.1333 -0.4650 -0.1442
   13CHTO    C5 5473   4.624   6.626   4.111 -0.1688  0.1430  0.3353
   13CHTO   H18 5474   4.613   6.535   4.054 -0.7016 -0.0805  0.7927
   13CHTO   C16 5475   4.603   6.756   4.023  0.2451  0.5287 -0.0620
   13CHTO   O11 5476   4.641   6.870   4.097  0.1168  0.3114  0.1017
   13CHTO    H5 5477   4.582   6.879   4.169 -0.5412  0.6216 -0.4758
   13CHTO    O3 5478   4.433   6.547   4.407  0.7429  0.6832 -0.2644
   13CHTO    C6 5479   4.306   6.483   4.402  0.0789 -0.0435  0.2191
   13CHTO   H19 5480   4.280   6.436   4.307  1.3045 -0.4284  0.0672
   13CHTO    C8 5481   4.299   6.392   4.530  0.8202 -0.3579 -0.0056
   13CHTO   H21 5482   4.334   6.441   4.621  0.7472 -2.5386  1.2300
   13CHTO    O7 5483   4.384   6.277   4.505 -0.2647 -0.0691  0.4999
   13CHTO    H2 5484   4.376   6.226   4.583  1.0151 -0.1549  0.5959
   13CHTO   C12 5485   4.152   6.341   4.548  0.0305  0.2481  0.4527
   13CHTO   H25 5486   4.130   6.267   4.468 -3.7709  2.2952 -0.5142
   13CHTO    N3 5487   4.133   6.267   4.681  0.1057  0.1585  0.0043
   13CHTO   H12 5488   4.216   6.198   4.689 -0.0523 -0.1264 -0.8769
   13CHTO   H13 5489   4.034   6.225   4.678  0.2010 -0.0357 -0.3219
   13CHTO   C15 5490   4.047   6.460   4.528  0.1311  0.0754 -0.1639
   13CHTO   H28 5491   4.029   6.525   4.614 -0.4945  1.2941 -1.2018
   13CHTO   O10 5492   3.917   6.411   4.490  0.6520 -0.3048  0.2100
   13CHTO    H4 5493   3.885   6.426   4.403 -1.8387  0.4900  1.2176
   13CHTO    O5 5494   4.077   6.541   4.414  0.5447 -0.4114  0.0560
   13CHTO   C10 5495   4.202   6.600   4.418 -0.0085 -0.2840  0.1231
   13CHTO   H23 5496   4.217   6.636   4.520  0.2003 -0.6863  0.2313
   13CHTO   C17 5497   4.204   6.715   4.316  0.2107  0.0806  0.1046
   13CHTO   O12 5498   4.114   6.814   4.367 -0.2978 -0.1415 -0.0984
   13CHTO    H6 5499   4.077   6.861   4.294  1.5952  0.7114 -0.5224
   14CHTO  H203 5500   5.984   4.663   2.729  1.0176  0.9461 -1.9883
   14CHTO   O82 5501   5.928   4.605   2.680  0.4001 -0.2979  0.1186
   14CHTO  C123 5502   5.891   4.486   2.758 -0.1708  0.4571  0.5391
   14CHTO  H227 5503   5.915   4.504   2.864 -2.6833 -1.2823  1.4564
   14CHTO   O77 5504   5.752   4.466   2.730 -0.2054 -0.0996 -0.2019
   14CHTO  C118 5505   5.699   4.345   2.788  0.1715  0.0584  0.0270
   14CHTO  H222 5506   5.711   4.358   2.896 -2.9073  1.7944  0.2110
   14CHTO  C125 5507   5.550   4.343   2.753  0.2173 -0.1806 -0.1657
   14CHTO   O84 5508   5.481   4.456   2.813 -0.2281  0.5902  0.5299
   14CHTO  H205 5509   5.535   4.489   2.882  2.0324 -2.0277  0.0971
   14CHTO  C114 5510   5.771   4.224   2.728 -0.0922 -0.0819 -0.0557
   14CHTO  H218 5511   5.758   4.230   2.620 -0.5923  1.2835  0.0658
   14CHTO  C116 5512   5.926   4.230   2.760  0.6258 -0.4595 -0.3740
   14CHTO  H220 5513   5.943   4.234   2.869  0.0606  0.7341 -0.3157
   14CHTO   O79 5514   5.986   4.118   2.690  0.4097  0.1194 -0.5639
   14CHTO  H201 5515   6.008   4.148   2.604 -0.3760 -1.6583 -1.4132
   14CHTO  C120 5516   5.977   4.370   2.703  0.0916 -0.0759  0.6602
   14CHTO  H224 5517   5.972   4.363   2.592 -0.8856  0.5257  0.6599
   14CHTO   N21 5518   6.118   4.386   2.741 -0.3657  0.2893 -0.2646
   14CHTO  H211 5519   6.126   4.448   2.830 -0.0317 -0.4549  0.2291
   14CHTO  H212 5520   6.181   4.419   2.660  0.1610 -1.3589 -0.5304
   14CHTO   O75 5521   5.708   4.111   2.789 -0.3175  0.1067 -0.0451
   14CHTO  C112 5522   5.683   3.980   2.716  0.4430 -0.5748  0.0838
   14CHTO  H216 5523   5.759   3.912   2.758 -0.6256 -1.1566  1.1028
   14CHTO   O73 5524   5.708   4.004   2.577 -0.1979 -0.0475  0.1459
   14CHTO  C113 5525   5.705   3.889   2.507 -0.0419  0.1415 -0.5697
   14CHTO  H217 5526   5.767   3.811   2.555 -0.6088 -0.9516 -1.5608
   14CHTO  C124 5527   5.770   3.925   2.370  0.7239  0.1560  0.2989
   14CHTO   O83 5528   5.779   3.819   2.272  0.2339  0.5977  0.6570
   14CHTO  H204 5529   5.835   3.752   2.306 -1.2162 -1.5421 -1.0890
   14CHTO  C109 5530   5.557   3.838   2.503 -0.4344 -0.3358 -0.0203
   14CHTO  H213 5531   5.499   3.915   2.451 -1.4311 -0.4886  0.8601
   14CHTO  C110 5532   5.500   3.820   2.650  1.3892 -0.2489 -0.1285
   14CHTO  H214 5533   5.546   3.730   2.692  0.3341 -1.0133 -0.5993
   14CHTO   O78 5534   5.351   3.805   2.644 -0.1850 -0.0166 -0.2169
   14CHTO  H200 5535   5.328   3.727   2.597  0.5886  0.8112 -2.0104
   14CHTO  C111 5536   5.535   3.942   2.743 -0.1847 -0.0876  0.5717
   14CHTO  H215 5537   5.475   4.027   2.710 -0.1412 -0.8051 -1.3918
   14CHTO   N19 5538   5.506   3.919   2.888 -0.1112  0.0061 -0.3223
   14CHTO  H207 5539   5.453   3.828   2.914 -1.6532  1.6302  2.4137
   14CHTO  H208 5540   5.595   3.938   2.945 -0.0871 -1.2696  0.0699
   14CHTO   O74 5541   5.542   3.716   2.432  0.2243  0.1837 -0.1762
   14CHTO  C115 5542   5.463   3.716   2.284  0.0449  0.4716  0.2884
   14CHTO  H219 5543   5.504   3.792   2.217  3.3720 -2.0196 -0.6463
   14CHTO   O76 5544   5.487   3.580   2.202 -0.3563  0.5213 -0.3215
   14CHTO  C122 5545   5.409   3.473   2.265 -0.2837 -0.2000  0.4223
   14CHTO  H226 5546   5.461   3.460   2.360  1.1609 -0.2207 -0.3584
   14CHTO  C126 5547   5.422   3.342   2.179  0.4792  0.5015  0.0037
   14CHTO   O85 5548   5.382   3.229   2.251 -0.4184  0.3204  0.3122
   14CHTO  H206 5549   5.288   3.227   2.256 -0.4506 -0.0189 -0.3242
   14CHTO  C121 5550   5.257   3.503   2.292  0.9699  0.7003  0.7021
   14CHTO  H225 5551   5.211   3.424   2.228 -0.1976  1.4628  0.5893
   14CHTO   O81 5552   5.220   3.484   2.430  0.5908  0.2532  0.2149
   14CHTO  H202 5553   5.128   3.465   2.442  0.4648 -1.8152 -3.2585
   14CHTO  C119 5554   5.219   3.644   2.246 -0.0906  0.5529  0.3112
   14CHTO  H223 5555   5.223   3.645   2.137 -2.2882  1.4874  0.1999
   14CHTO  C117 5556   5.311   3.754   2.303 -0.8035  0.1104  0.3039
   14CHTO  H221 5557   5.307   3.764   2.411  0.3192  1.0557  0.2534
   14CHTO   N20 5558   5.275   3.887   2.248  0.4755  0.1911 -0.2401
   14CHTO  H209 5559   5.230   3.944   2.327 -0.4606 -0.5006 -0.2700
   14CHTO  H210 5560   5.335   3.928   2.168  0.7752  0.3601  0.0672
   14CHTO   O80 5561   5.053   3.665   2.259  0.3252 -0.1521  0.5284
   14CHTO  C103 5562   4.971   3.734   2.145 -0.6441 -1.1131 -0.1807
   14CHTO  H190 5563   5.038   3.800   2.090 -0.8307  0.3536  1.2973
   14CHTO  C101 5564   4.901   3.648   2.036  0.3410 -0.1812  0.5644
   14CHTO  H188 5565   4.835   3.577   2.085  1.5250 -2.4915 -1.1179
   14CHTO   O68 5566   4.996   3.553   1.968 -0.1809  0.7732  0.1685
   14CHTO  H168 5567   5.080   3.587   1.945  0.4674 -1.1321 -0.3476
   14CHTO   C99 5568   4.827   3.735   1.931  0.1399 -0.4661  0.3455
   14CHTO  H186 5569   4.896   3.808   1.883 -1.2903  0.9855  0.4303
   14CHTO   N17 5570   4.755   3.664   1.821 -0.5050  0.1558 -0.2705
   14CHTO  H174 5571   4.650   3.687   1.830 -0.7706 -0.4412 -1.8127
   14CHTO  H175 5572   4.795   3.688   1.724  2.0693 -0.8177  0.4909
   14CHTO   C97 5573   4.727   3.827   2.013  0.5115  0.1458  0.3336
   14CHTO  H184 5574   4.646   3.764   2.053  3.2650 -3.1575  0.9424
   14CHTO   O64 5575   4.801   3.897   2.115 -0.1928  0.4595  0.5517
   14CHTO  C104 5576   4.865   3.823   2.216 -0.4229  1.1599 -0.5500
   14CHTO  H191 5577   4.800   3.756   2.272  2.1314  0.1379  1.3222
   14CHTO  C108 5578   4.932   3.912   2.327 -0.6531  0.1390  0.2072
   14CHTO   O71 5579   4.836   3.945   2.428 -0.3336 -0.6581 -0.6239
   14CHTO  H171 5580   4.804   3.880   2.488  1.1949  1.3836  2.5248
   14CHTO   O62 5581   4.680   3.931   1.925  0.2706 -0.0264 -0.1031
   14CHTO   C91 5582   4.577   4.026   1.969  0.7128  0.1918 -0.1742
   14CHTO  H178 5583   4.500   3.959   2.010 -0.3868  1.5040 -0.0501
   14CHTO   C92 5584   4.505   4.084   1.840  0.3891 -0.1698  0.2930
   14CHTO  H179 5585   4.489   4.004   1.766 -2.9332 -1.9889  2.8459
   14CHTO   O66 5586   4.375   4.137   1.865  0.3234 -0.9026 -0.2122
   14CHTO  H166 5587   4.314   4.097   1.806 -0.4682  1.1182 -0.7931
   14CHTO   C93 5588   4.585   4.200   1.771  0.2240 -0.6784 -0.2742
   14CHTO  H180 5589   4.519   4.248   1.696  0.8109  1.3455  0.4728
   14CHTO   N16 5590   4.701   4.147   1.693  0.5995 -0.0198 -0.2630
   14CHTO  H172 5591   4.671   4.098   1.602  2.1591  1.3365 -1.5446
   14CHTO  H173 5592   4.750   4.077   1.759  0.1973 -2.1588 -2.2006
   14CHTO   C94 5593   4.625   4.304   1.878 -0.0438  0.1735 -0.0297
   14CHTO  H181 5594   4.733   4.317   1.882 -0.2107  0.8275  3.9306
   14CHTO   O61 5595   4.585   4.273   2.016  0.1159 -0.4082  0.1007
   14CHTO   C95 5596   4.621   4.141   2.065  0.0319 -0.1813 -0.5244
   14CHTO  H182 5597   4.728   4.140   2.081 -0.1936  0.5338  1.1067
   14CHTO  C106 5598   4.561   4.137   2.211  0.3694 -0.7238  0.3223
   14CHTO   O69 5599   4.624   4.245   2.286 -0.0524  0.0252  0.0227
   14CHTO  H169 5600   4.624   4.248   2.380 -0.1734  0.8995 -0.0041
   14CHTO   O63 5601   4.559   4.469   1.847  0.8418 -0.3094  0.3832
   14CHTO   C96 5602   4.638   4.591   1.919 -0.3031  0.6377  0.6751
   14CHTO  H183 5603   4.600   4.683   1.876 -1.0264  0.6489  1.3242
   14CHTO   C98 5604   4.792   4.586   1.878 -0.2085  0.1037 -1.0243
   14CHTO  H185 5605   4.835   4.487   1.895  0.9175  0.7936  0.1918
   14CHTO   O67 5606   4.793   4.597   1.742 -0.0631  0.4536  0.4688
   14CHTO  H167 5607   4.850   4.662   1.705  0.7018 -0.4376  0.0778
   14CHTO  C102 5608   4.875   4.701   1.945  0.0473 -0.0109 -0.0864
   14CHTO  H189 5609   4.832   4.795   1.908 -0.5628  0.1786  1.0702
   14CHTO   N18 5610   5.022   4.706   1.910 -0.3479 -0.5262  0.1714
   14CHTO  H176 5611   5.048   4.647   1.823 -1.3317 -1.3189  0.4003
   14CHTO  H177 5612   5.057   4.807   1.896 -0.6979 -0.2765  1.0393
   14CHTO  C105 5613   4.848   4.696   2.100  0.4309  0.5835  0.7775
   14CHTO  H192 5614   4.890   4.604   2.140 -0.6272 -0.8963 -1.4544
   14CHTO   O65 5615   4.704   4.699   2.125 -0.2729  0.1225 -0.0940
   14CHTO  C100 5616   4.637   4.584   2.074 -0.4696 -0.2751  0.2230
   14CHTO  H187 5617   4.682   4.492   2.114 -4.2117 -2.8220 -1.1302
   14CHTO  C107 5618   4.498   4.571   2.136  0.2217 -0.1217  0.2895
   14CHTO   O70 5619   4.507   4.562   2.275  0.1227  0.3603 -0.5861
   14CHTO  H170 5620   4.434   4.597   2.323  0.0018  1.9632 -1.9060
   14CHTO   O57 5621   4.898   4.837   2.168  1.4476  0.8984  0.1887
   14CHTO   C85 5622   4.922   4.835   2.316  0.7436 -0.2825 -0.2470
   14CHTO  H157 5623   4.944   4.730   2.342 -0.4448 -0.2949  0.7331
   14CHTO   C83 5624   4.792   4.889   2.388  0.4141  0.7662 -0.3165
   14CHTO  H155 5625   4.710   4.820   2.367  0.2109  0.8628  0.1466
   14CHTO   O56 5626   4.748   5.019   2.332  0.5499 -0.5736  0.0767
   14CHTO  H135 5627   4.814   5.086   2.334 -2.2073  2.2900 -0.6720
   14CHTO   C81 5628   4.827   4.885   2.542  0.1115 -0.0606 -0.0207
   14CHTO  H153 5629   4.852   4.785   2.575 -1.4092 -1.4723 -2.9535
   14CHTO   N14 5630   4.704   4.908   2.627 -0.2031  0.2488 -0.3876
   14CHTO  H141 5631   4.654   4.814   2.627 -0.5478  0.4249 -1.4198
   14CHTO  H142 5632   4.727   4.935   2.728 -0.1613 -0.5811 -0.1710
   14CHTO   C79 5633   4.940   4.983   2.583 -0.3504 -0.4963  0.1828
   14CHTO  H151 5634   4.974   4.953   2.682  0.4898 -0.2691 -0.0311
   14CHTO   O52 5635   5.060   4.960   2.509 -0.1051  0.2675  0.2901
   14CHTO   C86 5636   5.043   4.939   2.367 -0.7743 -0.0789  0.4555
   14CHTO  H158 5637   5.039   5.046   2.339  2.3667 -0.0852 -0.2224
   14CHTO   C90 5638   5.175   4.888   2.301  0.1582  0.3255 -0.0491
   14CHTO   O60 5639   5.291   4.961   2.339 -0.1006 -0.0105 -0.1435
   14CHTO  H138 5640   5.279   5.052   2.321 -5.8004 -0.6878 -0.6126
   14CHTO   O50 5641   4.905   5.123   2.570  0.4625  0.4172 -0.7238
   14CHTO   C73 5642   4.912   5.260   2.617 -0.6615  0.0419 -0.1274
   14CHTO  H145 5643   4.862   5.274   2.714 -0.1293 -2.4857  0.5675
   14CHTO   C74 5644   4.830   5.355   2.526  0.3619 -0.2261  0.1233
   14CHTO  H146 5645   4.723   5.329   2.533 -0.3813  2.6146  0.0018
   14CHTO   O54 5646   4.833   5.490   2.574 -0.0188  0.5304 -0.7781
   14CHTO  H133 5647   4.914   5.536   2.565 -0.2685  1.7217  2.6141
   14CHTO   C75 5648   4.884   5.356   2.379 -0.2421  0.5345 -0.1286
   14CHTO  H147 5649   4.881   5.256   2.333  2.9878  0.3144  0.0112
   14CHTO   N13 5650   4.815   5.441   2.281  0.2856 -0.1435  0.0072
   14CHTO  H139 5651   4.799   5.539   2.325 -2.6880 -0.5686 -0.0374
   14CHTO  H140 5652   4.719   5.396   2.261  1.0474 -1.5597 -0.5379
   14CHTO   C76 5653   5.037   5.399   2.393  0.1848  0.0932  0.2663
   14CHTO  H148 5654   5.038   5.504   2.421  3.0012  0.6491 -1.7706
   14CHTO   O49 5655   5.111   5.310   2.491  0.8596 -0.3634  0.6850
   14CHTO   C77 5656   5.058   5.310   2.622  0.0068 -0.1711 -0.6065
   14CHTO  H149 5657   5.054   5.410   2.663  0.4388 -0.4325  0.0806
   14CHTO   C88 5658   5.157   5.223   2.694 -0.2059 -0.2410 -0.9418
   14CHTO   O58 5659   5.261   5.292   2.726  0.5033  0.0300  0.0600
   14CHTO  H136 5660   5.323   5.231   2.762  2.4775  2.7435  1.4730
   14CHTO   O51 5661   5.114   5.381   2.247  0.4649  0.1778 -0.7803
   14CHTO   C78 5662   5.287   5.376   2.255 -0.0952  0.1019  0.5734
   14CHTO  H150 5663   5.313   5.322   2.348  1.5007  0.7093  0.4904
   14CHTO   C80 5664   5.347   5.518   2.259  0.2492 -0.3173  0.1488
   14CHTO  H152 5665   5.298   5.579   2.181  0.0130  1.5549  1.6908
   14CHTO   O55 5666   5.304   5.578   2.382  0.4901 -0.8256  0.2776
   14CHTO  H134 5667   5.222   5.624   2.378  0.9638  0.0079 -0.1333
   14CHTO   C84 5668   5.507   5.521   2.259 -0.1044  0.2878  0.6198
   14CHTO  H156 5669   5.538   5.464   2.347  1.8114 -1.2586 -0.9988
   14CHTO   N15 5670   5.574   5.653   2.267 -0.2039 -0.4329 -0.1301
   14CHTO  H143 5671   5.657   5.639   2.334 -1.4672 -2.0528  1.1445
   14CHTO  H144 5672   5.606   5.694   2.174 -0.6754  2.0784  0.7749
   14CHTO   C87 5673   5.549   5.445   2.131  0.2527  0.5406  0.3403
   14CHTO  H159 5674   5.512   5.500   2.044 -1.8761 -0.4711  0.5628
   14CHTO   O53 5675   5.474   5.284   2.139  0.6100 -0.2563  0.3463
   14CHTO   C82 5676   5.335   5.305   2.132 -0.2493  0.1066  0.1518
   14CHTO  H154 5677   5.313   5.358   2.040  0.6614  0.7084  0.2743
   14CHTO   C89 5678   5.273   5.161   2.116 -0.6111 -0.8780 -0.6002
   14CHTO   O59 5679   5.285   5.113   1.980  0.6637  0.0722  0.2806
   14CHTO  H137 5680   5.252   5.182   1.926 -0.3992  0.4436  1.3709
   14CHTO   O45 5681   5.715   5.421   2.135  0.2016 -0.4732 -0.0735
   14CHTO   C67 5682   5.765   5.281   2.123  1.4138 -0.3215 -0.3128
   14CHTO  H124 5683   5.703   5.223   2.192  1.5653 -1.9821 -1.5474
   14CHTO   C65 5684   5.760   5.234   1.974  0.4818  0.5538 -0.3804
   14CHTO  H122 5685   5.657   5.261   1.951 -0.9311 -2.4751  2.0596
   14CHTO   O44 5686   5.771   5.089   1.955  0.6889 -0.3216  0.6142
   14CHTO  H102 5687   5.714   5.055   2.021 -0.9083 -0.7612 -0.9574
   14CHTO   C63 5688   5.856   5.322   1.878  0.4063 -0.4646 -0.1628
   14CHTO  H120 5689   5.826   5.427   1.889 -1.6210 -1.2073  1.8988
   14CHTO   N11 5690   5.833   5.299   1.729  0.3228 -0.1742  0.0115
   14CHTO  H108 5691   5.856   5.199   1.700  0.5407 -0.5204  1.3896
   14CHTO  H109 5692   5.884   5.369   1.666  1.8648  0.9193  2.4304
   14CHTO   C61 5693   6.001   5.312   1.933 -0.1351 -0.2151  0.0049
   14CHTO  H118 5694   6.054   5.391   1.879  0.1282  0.8059  1.7121
   14CHTO   O40 5695   6.005   5.346   2.073  0.3976 -0.2961 -0.5436
   14CHTO   C68 5696   5.914   5.276   2.167  0.4383 -0.4748  0.5929
   14CHTO  H125 5697   5.913   5.341   2.257  0.6999 -0.9862  0.9710
   14CHTO   C72 5698   5.967   5.144   2.214  0.3204 -0.0709 -0.1189
   14CHTO   O48 5699   5.908   5.105   2.340  0.2991 -0.2227  0.6797
   14CHTO  H105 5700   5.918   5.173   2.404 -1.6697  1.6695 -0.9242
   14CHTO   O38 5701   6.068   5.187   1.908  0.6371 -0.7270 -0.1878
   14CHTO   C55 5702   6.191   5.187   1.824  0.5540 -0.4256 -0.4304
   14CHTO  H112 5703   6.198   5.279   1.765  0.8089 -0.8001 -0.9880
   14CHTO   C56 5704   6.174   5.057   1.724  0.2025  0.1186 -0.8353
   14CHTO  H113 5705   6.133   4.976   1.786 -2.5336  1.9341 -0.1593
   14CHTO   O42 5706   6.069   5.080   1.633  0.4508 -0.4421  0.5428
   14CHTO  H100 5707   5.996   5.119   1.678  1.0281  0.5147  0.6459
   14CHTO   C57 5708   6.309   5.019   1.653  0.1275  0.4265 -0.4226
   14CHTO  H114 5709   6.325   5.098   1.579  0.9856 -1.6801 -2.5625
   14CHTO   N10 5710   6.317   4.894   1.581  0.0266  0.0401 -0.7613
   14CHTO  H106 5711   6.405   4.896   1.518  0.1270 -3.0974 -0.7986
   14CHTO  H107 5712   6.313   4.798   1.631  1.7929 -0.3591 -1.3410
   14CHTO   C58 5713   6.429   5.022   1.753  0.3290  0.1761  0.1742
   14CHTO  H115 5714   6.418   4.934   1.820 -1.7336  0.3590  0.1167
   14CHTO   O37 5715   6.431   5.134   1.838 -0.0619  0.3375  0.4044
   14CHTO   C59 5716   6.314   5.159   1.921 -0.3150  0.1610  0.2761
   14CHTO  H116 5717   6.303   5.068   1.980  0.6636 -0.6894 -0.8395
   14CHTO   C70 5718   6.330   5.278   2.016  0.0211 -0.1296 -1.0087
   14CHTO   O46 5719   6.348   5.392   1.946 -0.2124 -0.1408  0.4662
   14CHTO  H103 5720   6.384   5.382   1.860  1.4360 -0.2393  1.1508
   14CHTO   O39 5721   6.570   5.018   1.669  0.4284  0.3421 -0.1961
   14CHTO   C60 5722   6.676   4.940   1.728  0.2808 -0.7796  0.0972
   14CHTO  H117 5723   6.682   4.978   1.830  0.9788  1.7309 -0.8254
   14CHTO   C62 5724   6.645   4.785   1.732 -0.5824  0.1160 -0.1544
   14CHTO  H119 5725   6.554   4.763   1.790 -0.9571 -2.0568 -1.5139
   14CHTO   O43 5726   6.617   4.748   1.596  0.4865 -0.2236  0.5981
   14CHTO  H101 5727   6.533   4.786   1.579  0.5136  0.2247  1.4423
   14CHTO   C66 5728   6.772   4.714   1.798 -0.6929 -0.6426 -0.5552
   14CHTO  H123 5729   6.782   4.754   1.899  0.1384 -1.1595 -0.4261
   14CHTO   N12 5730   6.746   4.566   1.814 -0.2700  0.5712  0.2285
   14CHTO  H110 5731   6.838   4.510   1.816 -2.2063 -2.8000 -0.6664
   14CHTO  H111 5732   6.684   4.528   1.734 -3.1308  1.9601  1.7104
   14CHTO   C69 5733   6.908   4.746   1.723  0.5374  0.0138  0.5103
   14CHTO  H126 5734   6.896   4.702   1.622 -3.1251 -0.0674  0.8847
   14CHTO   O41 5735   6.919   4.904   1.729  0.0680  0.6999  0.1450
   14CHTO   C64 5736   6.809   4.974   1.652 -1.2493  0.1443 -0.1000
   14CHTO  H121 5737   6.814   4.930   1.550  1.2463  0.0206  0.0579
   14CHTO   C71 5738   6.844   5.129   1.635 -0.1387 -0.3460 -0.1653
   14CHTO   O47 5739   6.897   5.182   1.758 -0.5690  0.2103  0.0956
   14CHTO  H104 5740   6.971   5.236   1.737  2.1334 -2.2418  2.7900
   14CHTO   O34 5741   7.039   4.688   1.788  0.0363 -0.0600 -0.0256
   14CHTO   C49 5742   7.184   4.635   1.735 -0.5175  0.1095 -0.7767
   14CHTO   H91 5743   7.162   4.536   1.693 -0.3958 -1.0098  1.7266
   14CHTO   C47 5744   7.278   4.619   1.859  0.0842 -1.3581 -0.1687
   14CHTO   H89 5745   7.356   4.548   1.825 -0.2462 -1.0600 -1.6265
   14CHTO   O33 5746   7.213   4.557   1.975 -0.6088 -0.3915 -0.4750
   14CHTO   H70 5747   7.275   4.518   2.033 -1.9755 -1.7771  0.0966
   14CHTO   C45 5748   7.331   4.764   1.905  0.1794 -0.1954 -0.6898
   14CHTO   H87 5749   7.277   4.788   1.998  0.3314 -0.1062 -0.6245
   14CHTO    N8 5750   7.479   4.749   1.942  0.5712  0.4874  0.4088
   14CHTO   H75 5751   7.502   4.652   1.982  0.6740  0.8554  1.2685
   14CHTO   H76 5752   7.515   4.836   1.997  0.7992  1.5049 -1.3131
   14CHTO   C43 5753   7.288   4.883   1.797  0.0865 -0.7054  0.6932
   14CHTO   H85 5754   7.181   4.888   1.818 -0.2682 -4.3084  0.0899
   14CHTO   O29 5755   7.321   4.835   1.666  0.1941  0.1603 -0.3800
   14CHTO   C50 5756   7.255   4.716   1.623  0.1802 -0.5065  0.2844
   14CHTO   H92 5757   7.182   4.735   1.542  0.0749  1.9449  0.9053
   14CHTO   C54 5758   7.347   4.635   1.544  0.5499 -0.9930  0.3378
   14CHTO   O36 5759   7.458   4.560   1.602 -0.0623 -0.3624 -0.1600
   14CHTO   H72 5760   7.484   4.487   1.549  1.1879 -1.4738  1.9241
   14CHTO   O27 5761   7.345   5.012   1.828 -0.0764  0.2043 -0.5398
   14CHTO   C37 5762   7.324   5.148   1.882 -0.3828 -0.6816 -0.1253
   14CHTO   H79 5763   7.423   5.194   1.889 -0.2039 -0.7422 -2.0216
   14CHTO   C38 5764   7.246   5.229   1.776 -0.6203  0.9811 -0.2065
   14CHTO   H80 5765   7.161   5.167   1.745 -0.7474  1.0189  0.0686
   14CHTO   O31 5766   7.336   5.249   1.664 -0.4939 -0.2577 -0.4914
   14CHTO   H68 5767   7.294   5.279   1.586 -1.0656  0.4556  0.0731
   14CHTO   C39 5768   7.194   5.365   1.843 -0.1349  0.2743 -0.6354
   14CHTO   H81 5769   7.283   5.421   1.869  0.8858 -1.7504  0.2951
   14CHTO    N7 5770   7.116   5.447   1.746  0.2623 -0.3069 -0.0378
   14CHTO   H73 5771   7.170   5.531   1.704 -0.1015 -0.4361 -0.7836
   14CHTO   H74 5772   7.068   5.392   1.666  2.2138  1.0060 -2.1670
   14CHTO   C40 5773   7.119   5.335   1.980  0.5731 -0.3790 -0.1619
   14CHTO   H82 5774   7.026   5.281   1.962 -0.1561  0.1509  1.7730
   14CHTO   O26 5775   7.201   5.267   2.073 -0.4473 -0.6800  0.0570
   14CHTO   C41 5776   7.243   5.139   2.019  0.5062  0.1193  0.0875
   14CHTO   H83 5777   7.152   5.080   2.004 -0.5444  1.5420  0.7621
   14CHTO   C52 5778   7.334   5.059   2.118  0.2344  0.8168 -0.0865
   14CHTO   O35 5779   7.266   5.025   2.251 -0.3952 -0.7077 -0.5648
   14CHTO   H71 5780   7.331   4.986   2.306  1.2466  1.1861 -1.1168
   14CHTO   O28 5781   7.078   5.458   2.044  0.2115  0.2754  0.1346
   14CHTO   C42 5782   6.971   5.462   2.148 -0.8655  0.5717  0.5645
   14CHTO   H84 5783   6.972   5.568   2.173  2.0108  0.8015 -0.3101
   14CHTO   C44 5784   6.997   5.392   2.288  0.0529 -0.3025 -0.4221
   14CHTO   H86 5785   7.016   5.286   2.267 -0.6583 -0.5659  0.2082
   14CHTO   O32 5786   7.111   5.453   2.350 -0.2259 -0.0966 -0.1167
   14CHTO   H69 5787   7.163   5.383   2.384 -1.0110  0.1197  1.5661
   14CHTO   C48 5788   6.878   5.396   2.394  0.4367 -0.5112  0.5388
   14CHTO   H90 5789   6.880   5.500   2.427 -0.8424  0.5298 -2.5174
   14CHTO    N9 5790   6.899   5.309   2.512 -0.4763  0.3716 -0.3461
   14CHTO   H77 5791   6.806   5.257   2.531  0.5413 -1.6916 -0.8991
   14CHTO   H78 5792   6.934   5.371   2.593  1.1918  1.8921 -2.1750
   14CHTO   C51 5793   6.737   5.375   2.319  0.0418 -0.1046 -0.7185
   14CHTO   H93 5794   6.730   5.269   2.293  0.3717 -0.3187  0.0513
   14CHTO   O30 5795   6.733   5.459   2.203 -0.1543  0.4873 -0.1902
   14CHTO   C46 5796   6.822   5.426   2.095 -0.1642  1.2144  0.3234
   14CHTO   H88 5797   6.812   5.318   2.078 -0.2290  1.1551  0.7240
   14CHTO   C53 5798   6.784   5.500   1.972 -0.4036  0.1313  0.6656
   14CHTO   O72 5799   6.643   5.489   1.950  0.1206 -0.0015  0.2556
   14CHTO  H199 5800   6.606   5.410   1.985 -2.1887  0.8664 -0.1318
   14CHTO   O22 5801   6.635   5.421   2.405 -0.4497  0.3040  0.1567
   14CHTO   C31 5802   6.493   5.423   2.374  0.1605 -0.0104 -0.2818
   14CHTO   H59 5803   6.481   5.386   2.270  1.1622 -1.3828  0.0859
   14CHTO   C29 5804   6.411   5.322   2.461 -0.4063  0.0700  0.0114
   14CHTO   H57 5805   6.441   5.345   2.564 -0.1746  1.5990 -0.3929
   14CHTO   O21 5806   6.455   5.193   2.420 -0.1385  0.7734 -0.1567
   14CHTO   H37 5807   6.434   5.126   2.483 -0.8041 -0.4821 -1.6899
   14CHTO   C27 5808   6.251   5.339   2.443  0.0534  0.9017 -0.6197
   14CHTO   H55 5809   6.227   5.299   2.343 -1.0087  1.3227 -0.5424
   14CHTO    N5 5810   6.170   5.268   2.545 -0.8444  0.3574 -0.5239
   14CHTO   H43 5811   6.186   5.162   2.558 -2.5093  0.1875  0.2442
   14CHTO   H44 5812   6.070   5.298   2.515 -0.9396  1.1390  0.5318
   14CHTO   C25 5813   6.217   5.492   2.434 -0.2699  0.4214 -0.1851
   14CHTO   H53 5814   6.233   5.538   2.532 -0.4287 -0.1762  0.1244
   14CHTO   O17 5815   6.301   5.562   2.333  0.7167 -0.1556 -0.4425
   14CHTO   C32 5816   6.435   5.563   2.375  0.6591  0.7242 -0.4040
   14CHTO   H60 5817   6.450   5.602   2.476  1.7487  1.4198 -0.8364
   14CHTO   C36 5818   6.502   5.656   2.281 -0.3177 -0.0681  0.0613
   14CHTO   O25 5819   6.632   5.699   2.340  0.2411 -0.2139  0.6510
   14CHTO   H40 5820   6.696   5.630   2.338 -0.3454 -0.7395 -1.6392
   14CHTO   O15 5821   6.067   5.509   2.380  0.2577 -0.6646 -0.5237
   14CHTO   C19 5822   5.955   5.604   2.392 -0.0308 -0.7439 -0.0923
   14CHTO   H47 5823   5.889   5.554   2.320  0.5591 -1.2365 -0.2981
   14CHTO   C20 5824   5.888   5.611   2.534  0.0665 -0.0720  0.0881
   14CHTO   H48 5825   5.965   5.607   2.613  0.0097 -1.1348  0.0962
   14CHTO   O19 5826   5.795   5.505   2.531  0.3966  0.1481 -1.1510
   14CHTO   H35 5827   5.836   5.420   2.531  0.2644  0.0842 -0.7254
   14CHTO   C21 5828   5.805   5.742   2.565  0.0314 -0.4569  0.6740
   14CHTO   H49 5829   5.703   5.726   2.531 -0.6148  1.8738  1.3663
   14CHTO    N4 5830   5.793   5.777   2.707  0.3000 -0.1803 -0.1924
   14CHTO   H41 5831   5.770   5.882   2.716  3.9166  0.6809  0.0823
   14CHTO   H42 5832   5.883   5.756   2.763 -1.4432 -2.5388  1.7643
   14CHTO   C22 5833   5.852   5.859   2.483  0.7582  0.1037 -0.5747
   14CHTO   H50 5834   5.938   5.911   2.526 -1.0889  1.6212  1.4261
   14CHTO   O14 5835   5.877   5.823   2.347  0.3847  0.0662  0.4577
   14CHTO   C23 5836   5.989   5.736   2.331 -0.0616  0.0856  0.3080
   14CHTO   H51 5837   6.081   5.779   2.374  0.7305 -1.5624  0.2901
   14CHTO   C34 5838   6.028   5.721   2.185 -0.0549  0.1480 -0.4862
   14CHTO   O23 5839   5.926   5.657   2.108 -0.1459 -0.0916  0.3495
   14CHTO   H38 5840   5.915   5.569   2.140  2.6652 -1.0209 -1.0351
   14CHTO   O16 5841   5.748   5.951   2.458  0.0297 -0.0922 -0.0370
   14CHTO   C24 5842   5.713   6.108   2.535 -0.5643  0.1264  0.3455
   14CHTO   H52 5843   5.699   6.186   2.460  1.3486  0.8626  0.7142
   14CHTO   C26 5844   5.829   6.146   2.624 -0.0522 -0.5829 -0.3321
   14CHTO   H54 5845   5.863   6.058   2.683  1.9819  2.1241  2.7194
   14CHTO   O20 5846   5.948   6.176   2.545 -0.3068 -0.1895 -0.3903
   14CHTO   H36 5847   5.921   6.235   2.477  1.2932  1.4236  0.3544
   14CHTO   C30 5848   5.793   6.261   2.722 -0.4235 -0.2172  0.5753
   14CHTO   H58 5849   5.788   6.354   2.663  0.6369  0.2027  1.1329
   14CHTO    N6 5850   5.898   6.261   2.826  0.6651 -0.1373  0.3003
   14CHTO   H45 5851   5.872   6.176   2.887  0.7572 -0.1781  0.2826
   14CHTO   H46 5852   5.888   6.353   2.882  2.0405 -0.5096  1.1636
   14CHTO   C33 5853   5.651   6.232   2.787 -0.0007 -0.4202  0.5180
   14CHTO   H61 5854   5.652   6.137   2.843 -1.9668 -0.8676 -0.1516
   14CHTO   O18 5855   5.555   6.215   2.689  0.2817 -0.3097 -0.1878
   14CHTO   C28 5856   5.582   6.093   2.611  0.1998 -0.5435  0.2483
   14CHTO   H56 5857   5.588   6.009   2.680 -3.2722 -0.7436  0.4216
   14CHTO   C35 5858   5.473   6.086   2.503 -0.5033  0.1971  0.0510
   14CHTO   O24 5859   5.342   6.081   2.557 -0.0183  0.1100 -0.0906
   14CHTO   H39 5860   5.339   6.031   2.636 -1.6335 -0.8187 -0.7199
   14CHTO    O9 5861   5.611   6.331   2.884  0.3201  0.6293 -0.1054
   14CHTO   C13 5862   5.594   6.492   2.831 -0.3403 -0.7697 -0.6512
   14CHTO   H26 5863   5.624   6.495   2.724 -0.7185 -1.4060 -0.7762
   14CHTO   C11 5864   5.683   6.590   2.922 -0.0665 -0.6114  0.5094
   14CHTO   H24 5865   5.788   6.563   2.900  0.1937  0.3534  0.5439
   14CHTO    O8 5866   5.662   6.580   3.065 -0.5712 -0.1941  0.1906
   14CHTO    H3 5867   5.646   6.489   3.080  1.3306 -1.1686 -3.2251
   14CHTO    C9 5868   5.672   6.745   2.878 -0.2056 -0.2873 -0.7169
   14CHTO   H22 5869   5.707   6.745   2.774 -3.2837  0.1469 -1.7996
   14CHTO    N2 5870   5.765   6.834   2.952  0.2449 -0.0139 -0.1593
   14CHTO   H10 5871   5.724   6.920   3.003  0.3890 -0.2891  0.4224
   14CHTO   H11 5872   5.829   6.871   2.873  0.1068  0.0540 -0.2407
   14CHTO    C7 5873   5.518   6.784   2.871  0.3941  0.2086  0.7220
   14CHTO   H20 5874   5.508   6.794   2.761  4.3093 -1.2306  0.1743
   14CHTO    O4 5875   5.428   6.681   2.909  0.3969 -0.0496 -0.1077
   14CHTO   C14 5876   5.442   6.553   2.837  0.9667  0.2983  0.4298
   14CHTO   H27 5877   5.410   6.559   2.731  0.9721 -1.4492  0.3120
   14CHTO   C18 5878   5.353   6.447   2.903 -0.0750  0.5979 -0.4834
   14CHTO   O13 5879   5.213   6.466   2.884  0.5399 -0.2951  0.5678
   14CHTO    H7 5880   5.167   6.428   2.956 -0.6018  0.3313  0.1802
   14CHTO    O2 5881   5.474   6.915   2.949 -0.6493  0.0897 -0.5059
   14CHTO    C1 5882   5.365   6.997   2.895  0.2945  0.6711  0.2848
   14CHTO   H14 5883   5.311   6.936   2.819  1.5715 -1.6019  1.1448
   14CHTO    C2 5884   5.415   7.136   2.829 -0.3662  0.1199 -0.0933
   14CHTO   H15 5885   5.505   7.112   2.770  0.8823  2.0698  0.9643
   14CHTO    O6 5886   5.318   7.193   2.739 -0.3889  0.5268  1.3699
   14CHTO    H1 5887   5.321   7.145   2.659  2.4477  1.1924  1.0218
   14CHTO    C3 5888   5.456   7.246   2.939  0.5058  0.2665 -0.1010
   14CHTO   H16 5889   5.407   7.343   2.924 -0.0361  0.2408  1.4074
   14CHTO    N1 5890   5.610   7.275   2.937 -0.1807 -0.6079  0.1414
   14CHTO    H8 5891   5.653   7.188   2.985 -3.0051 -2.2310 -0.0918
   14CHTO    H9 5892   5.644   7.296   2.837  0.6349 -0.4407  0.4519
   14CHTO    C4 5893   5.415   7.198   3.083 -0.4984 -0.2054  0.4073
   14CHTO   H17 5894   5.468   7.107   3.112 -2.6371 -1.4975  0.3636
   14CHTO    O1 5895   5.275   7.158   3.074 -0.0261 -0.5715 -0.2558
   14CHTO    C5 5896   5.262   7.025   3.010  0.1272 -0.1546 -0.0109
   14CHTO   H18 5897   5.273   6.958   3.096 -2.6445  0.3542  0.7867
   14CHTO   C16 5898   5.117   7.011   2.959 -0.5514  0.4686 -0.0236
   14CHTO   O11 5899   5.061   7.091   2.854 -0.3058  0.6087 -0.0819
   14CHTO    H5 5900   5.016   7.167   2.886  0.5836 -0.5174  4.2551
   14CHTO    O3 5901   5.420   7.300   3.188  0.0355 -0.4085 -0.0843
   14CHTO    C6 5902   5.457   7.249   3.327 -0.6323 -0.4024 -0.4053
   14CHTO   H19 5903   5.417   7.148   3.338  0.5413 -0.6955  1.4387
   14CHTO    C8 5904   5.612   7.237   3.347 -0.1037  0.7812  0.2401
   14CHTO   H21 5905   5.663   7.332   3.330 -0.2931  0.6661 -1.0432
   14CHTO    O7 5906   5.668   7.136   3.255  0.4478  0.1301 -0.0595
   14CHTO    H2 5907   5.725   7.178   3.194 -2.3828  0.8751 -2.2935
   14CHTO   C12 5908   5.636   7.195   3.502  0.3040  0.3199  0.5194
   14CHTO   H25 5909   5.599   7.090   3.508  3.0274 -0.5704  2.6653
   14CHTO    N3 5910   5.781   7.205   3.538  0.3372  0.3905  0.4028
   14CHTO   H12 5911   5.797   7.234   3.641  1.6434 -1.8472  0.8599
   14CHTO   H13 5912   5.832   7.113   3.513 -0.4679  0.3963 -1.2978
   14CHTO   C15 5913   5.548   7.285   3.603  0.6309  0.4522 -0.0674
   14CHTO   H28 5914   5.595   7.382   3.622  0.1800  0.4816  0.9273
   14CHTO   O10 5915   5.537   7.205   3.743 -0.0787  0.0491  0.2294
   14CHTO    H4 5916   5.485   7.256   3.802 -1.8449 -0.0702 -1.1891
   14CHTO    O5 5917   5.412   7.300   3.569 -0.1447  0.5414  0.1647
   14CHTO   C10 5918   5.385   7.334   3.433  0.2160 -0.5003  0.1047
   14CHTO   H23 5919   5.413   7.438   3.411  1.1049 -0.7200  0.1556
   14CHTO   C17 5920   5.235   7.334   3.398  0.0943  0.1830  0.2601
   14CHTO   O12 5921   5.180   7.450   3.456  0.0400  0.5810 -1.0323
   14CHTO    H6 5922   5.216   7.533   3.433 -0.6410  2.0605  2.8435
   15CHTO  H203 5923   6.285   4.534   2.555  0.3263 -0.0249  0.1747
   15CHTO   O82 5924   6.363   4.539   2.502  0.1817 -0.1436 -0.0511
   15CHTO  C123 5925   6.377   4.423   2.413  0.5254  0.0688  0.4987
   15CHTO  H227 5926   6.368   4.330   2.471  1.3830  0.6103  1.5203
   15CHTO   O77 5927   6.252   4.429   2.330 -0.0165  0.1830 -0.3081
   15CHTO  C118 5928   6.232   4.331   2.224 -0.3630 -0.4847  0.0809
   15CHTO  H222 5929   6.222   4.232   2.272 -0.4351 -0.2936  0.4596
   15CHTO  C125 5930   6.092   4.374   2.163  0.1580  0.3000  1.0530
   15CHTO   O84 5931   5.983   4.364   2.246  0.0200  0.2993  0.5566
   15CHTO  H205 5932   5.955   4.276   2.261 -1.4513  1.0980  2.8151
   15CHTO  C114 5933   6.345   4.341   2.121  0.4579 -0.1102 -0.0790
   15CHTO  H218 5934   6.337   4.436   2.067  1.6553  1.5939  2.6097
   15CHTO  C116 5935   6.487   4.331   2.190  0.6783 -0.3290  0.1206
   15CHTO  H220 5936   6.494   4.225   2.222 -2.5130 -0.3814  0.8668
   15CHTO   O79 5937   6.583   4.354   2.087  0.3411 -0.7284  0.2384
   15CHTO  H201 5938   6.667   4.365   2.127  0.3591 -0.1352  0.0306
   15CHTO  C120 5939   6.500   4.433   2.315 -0.5130 -0.4201 -0.5614
   15CHTO  H224 5940   6.501   4.536   2.273  1.7244 -0.7893 -1.4762
   15CHTO   N21 5941   6.628   4.403   2.391  0.3113  0.7153  0.3495
   15CHTO  H211 5942   6.645   4.300   2.365 -1.0642 -0.2970  3.2211
   15CHTO  H212 5943   6.719   4.452   2.360  0.9817 -1.5866 -1.4605
   15CHTO   O75 5944   6.308   4.247   2.017 -0.2937  0.2611 -0.0805
   15CHTO  C112 5945   6.383   4.090   2.007  0.4615  0.8596 -0.6212
   15CHTO  H216 5946   6.391   4.045   2.107 -2.3975  0.6907 -0.4236
   15CHTO   O73 5947   6.510   4.098   1.940  0.0097 -0.5735 -0.6564
   15CHTO  C113 5948   6.578   3.973   1.920  0.2419  0.5233  0.6451
   15CHTO  H217 5949   6.606   3.920   2.013 -2.1897 -2.1779 -0.1086
   15CHTO  C124 5950   6.704   4.019   1.853 -0.3880 -0.2831  0.0846
   15CHTO   O83 5951   6.810   3.921   1.815 -0.2265 -0.2158 -0.1581
   15CHTO  H204 5952   6.886   3.968   1.789  0.2360  0.2089  1.8748
   15CHTO  C109 5953   6.492   3.874   1.834 -0.3578 -0.2984  0.0230
   15CHTO  H213 5954   6.468   3.919   1.737  1.0306 -0.1023 -0.2381
   15CHTO  C110 5955   6.360   3.852   1.914  0.0087  0.6005  0.0755
   15CHTO  H214 5956   6.377   3.800   2.008 -1.0469 -0.4627 -0.2910
   15CHTO   O78 5957   6.278   3.750   1.852 -0.1769 -0.1297 -0.0599
   15CHTO  H200 5958   6.222   3.786   1.786 -0.8914 -0.3607  0.4194
   15CHTO  C111 5959   6.285   3.986   1.939 -0.5066 -0.1237 -0.4928
   15CHTO  H215 5960   6.256   4.022   1.839 -0.3565  0.8213 -0.1993
   15CHTO   N19 5961   6.156   3.975   2.017 -0.5502 -0.5617 -0.1029
   15CHTO  H207 5962   6.079   3.915   1.972 -2.2750  2.0207 -0.6757
   15CHTO  H208 5963   6.133   4.069   2.066  1.2308  1.2912 -2.6849
   15CHTO   O74 5964   6.565   3.750   1.808 -0.2075  0.2416 -0.5297
   15CHTO  C115 5965   6.531   3.661   1.677 -0.2910 -0.3286  0.3693
   15CHTO  H219 5966   6.424   3.646   1.666 -0.5763  0.2895  2.2217
   15CHTO   O76 5967   6.571   3.734   1.547  0.2098 -0.1820  0.1036
   15CHTO  C122 5968   6.547   3.661   1.425  0.2526  0.3223 -0.2323
   15CHTO  H226 5969   6.595   3.707   1.339 -0.6531 -1.3058 -1.6344
   15CHTO  C126 5970   6.393   3.660   1.390 -0.4032 -0.7733 -0.4093
   15CHTO   O85 5971   6.333   3.788   1.379  0.0625 -0.0762  0.3169
   15CHTO  H206 5972   6.250   3.773   1.337 -0.9019  0.6604  1.8966
   15CHTO  C121 5973   6.607   3.516   1.436  0.4851  0.0189 -0.2058
   15CHTO  H225 5974   6.574   3.454   1.350  0.1827  0.4827 -0.4213
   15CHTO   O81 5975   6.751   3.516   1.412 -0.0149 -0.0916 -0.0702
   15CHTO  H202 5976   6.802   3.557   1.479 -0.9119  0.0054  0.5663
   15CHTO  C119 5977   6.559   3.440   1.566  0.2848  0.3406 -0.2227
   15CHTO  H223 5978   6.450   3.435   1.558  0.3428  0.0828 -0.9231
   15CHTO  C117 5979   6.595   3.522   1.692 -0.2021  0.1148  0.3163
   15CHTO  H221 5980   6.699   3.539   1.718 -1.6156  3.4047  4.4694
   15CHTO   N20 5981   6.544   3.451   1.813 -0.3630  0.4587  0.3428
   15CHTO  H209 5982   6.494   3.359   1.787 -1.2419  1.2478 -0.7671
   15CHTO  H210 5983   6.626   3.425   1.879 -1.0433  0.0518  1.0390
   15CHTO   O80 5984   6.592   3.284   1.552 -0.3237 -0.2734  0.1155
   15CHTO  C103 5985   6.481   3.168   1.593 -0.3055  0.2545  0.2661
   15CHTO  H190 5986   6.472   3.160   1.701  3.8666  3.4599  0.9933
   15CHTO  C101 5987   6.343   3.179   1.519  0.2133 -0.2446 -0.3443
   15CHTO  H188 5988   6.358   3.199   1.413 -1.7554  3.4924 -0.0022
   15CHTO   O68 5989   6.251   3.274   1.589  0.5520  0.2530 -0.2033
   15CHTO  H168 5990   6.271   3.360   1.558 -0.0026  0.0791 -1.0616
   15CHTO   C99 5991   6.268   3.041   1.526  0.1610 -0.1707 -0.5733
   15CHTO  H186 5992   6.243   3.012   1.630  0.2567  0.7845 -0.2838
   15CHTO   N17 5993   6.142   3.038   1.449  0.9357 -0.3243  0.1017
   15CHTO  H174 5994   6.135   3.126   1.386  1.6450 -0.5065 -0.2320
   15CHTO  H175 5995   6.052   3.029   1.509 -0.0690 -0.9194 -1.4629
   15CHTO   C97 5996   6.362   2.923   1.477  0.3093  0.7224  0.2788
   15CHTO  H184 5997   6.378   2.944   1.370 -0.3590 -0.2434 -0.0190
   15CHTO   O64 5998   6.487   2.920   1.553  0.0203 -0.0552 -0.5893
   15CHTO  C104 5999   6.563   3.044   1.546 -0.4768  0.1634 -0.0476
   15CHTO  H191 6000   6.588   3.056   1.440 -1.9453 -0.3720 -0.4601
   15CHTO  C108 6001   6.694   3.014   1.619  0.0304 -0.1369 -0.1237
   15CHTO   O71 6002   6.664   3.001   1.757 -0.2933  0.2949  0.4502
   15CHTO  H171 6003   6.715   3.052   1.817  0.2525 -0.0351  0.2683
   15CHTO   O62 6004   6.318   2.786   1.510  0.4545  0.1322  0.0568
   15CHTO   C91 6005   6.350   2.694   1.410 -0.4734  0.4313  0.3384
   15CHTO  H178 6006   6.426   2.740   1.347 -1.7269  0.5325 -1.1039
   15CHTO   C92 6007   6.227   2.674   1.306 -0.1020  0.8125 -0.1334
   15CHTO  H179 6008   6.183   2.773   1.290 -1.3296  0.2465 -0.3760
   15CHTO   O66 6009   6.289   2.638   1.181 -0.1263  0.1385  0.4198
   15CHTO  H166 6010   6.323   2.717   1.145 -0.6496  0.3498  0.3850
   15CHTO   C93 6011   6.124   2.565   1.353  0.2411 -0.6646 -0.0098
   15CHTO  H180 6012   6.082   2.523   1.260  1.2728 -0.8688 -0.3918
   15CHTO   N16 6013   6.008   2.604   1.440 -0.1331  0.1937  0.1892
   15CHTO  H172 6014   5.948   2.673   1.384 -1.4079 -0.6087  0.5411
   15CHTO  H173 6015   5.955   2.518   1.478  2.1716 -2.6035 -2.6607
   15CHTO   C94 6016   6.191   2.448   1.432  0.1709  0.3230  0.3026
   15CHTO  H181 6017   6.183   2.461   1.540  0.7163  0.9545  0.2731
   15CHTO   O61 6018   6.330   2.439   1.404 -0.0795 -0.0147 -0.4475
   15CHTO   C95 6019   6.405   2.552   1.466  0.5224  0.8317 -0.3921
   15CHTO  H182 6020   6.394   2.550   1.574  1.8103  3.3243 -0.1718
   15CHTO  C106 6021   6.562   2.539   1.431  0.8312 -0.7733  0.5213
   15CHTO   O69 6022   6.581   2.540   1.289 -0.3535  0.3347 -0.2759
   15CHTO  H169 6023   6.672   2.520   1.275 -0.0557 -0.7239  2.7210
   15CHTO   O63 6024   6.118   2.303   1.408 -0.1897 -0.1865 -0.0261
   15CHTO   C96 6025   6.129   2.203   1.504  0.3672  0.2396  0.3656
   15CHTO  H183 6026   6.128   2.260   1.597 -1.2645  3.3889 -1.5131
   15CHTO   C98 6027   6.252   2.112   1.494  1.1906  0.3244  0.0358
   15CHTO  H185 6028   6.272   2.091   1.388  2.2792  2.7519 -0.2591
   15CHTO   O67 6029   6.363   2.198   1.547  0.2483  0.0813  0.1768
   15CHTO  H167 6030   6.442   2.148   1.550 -1.0280 -1.8978  1.4046
   15CHTO  C102 6031   6.239   1.972   1.572 -0.1318  0.1205 -0.1251
   15CHTO  H189 6032   6.213   1.998   1.676  0.3108  1.0233 -0.2343
   15CHTO   N18 6033   6.365   1.893   1.580  0.7817 -0.4669 -0.2088
   15CHTO  H176 6034   6.445   1.963   1.601  0.3714 -0.1500  0.3229
   15CHTO  H177 6035   6.388   1.848   1.485  2.1153  0.1878 -0.2082
   15CHTO  C105 6036   6.112   1.903   1.520 -0.3953 -0.1354  0.0069
   15CHTO  H192 6037   6.120   1.883   1.413  2.0795  1.7594 -0.1903
   15CHTO   O65 6038   5.999   1.988   1.549  0.5400  0.2019  0.3830
   15CHTO  C100 6039   5.995   2.118   1.493  0.0069  0.2023 -0.1958
   15CHTO  H187 6040   5.968   2.114   1.386  2.6665 -1.2597 -0.8604
   15CHTO  C107 6041   5.872   2.195   1.554  0.0175  0.1280  0.3329
   15CHTO   O70 6042   5.746   2.131   1.524  0.0736 -0.5211 -0.6136
   15CHTO  H170 6043   5.716   2.143   1.436  1.0373 -0.1517 -0.9079
   15CHTO   O57 6044   6.101   1.755   1.596 -0.0837  0.3568  1.0038
   15CHTO   C85 6045   6.053   1.727   1.727 -0.0396 -0.9492  0.3347
   15CHTO  H157 6046   6.030   1.825   1.773 -1.6441 -1.4037  0.5265
   15CHTO   C83 6047   6.166   1.660   1.809 -0.0243 -0.2901  0.5581
   15CHTO  H155 6048   6.254   1.724   1.811  1.0689 -1.6492 -1.5353
   15CHTO   O56 6049   6.218   1.540   1.742  0.4252 -0.0293  0.2683
   15CHTO  H135 6050   6.297   1.510   1.782  1.1317  2.5866  0.8839
   15CHTO   C81 6051   6.118   1.645   1.955  0.3348 -0.7373  1.3016
   15CHTO  H153 6052   6.082   1.743   1.986  3.8951  0.8916  0.5538
   15CHTO   N14 6053   6.221   1.617   2.052  0.2579  0.2610  0.4362
   15CHTO  H141 6054   6.322   1.610   2.020  0.3955  0.1986  0.8820
   15CHTO  H142 6055   6.222   1.664   2.148  0.7749  2.7070 -0.7277
   15CHTO   C79 6056   5.999   1.547   1.954  0.3001 -1.1185  0.0826
   15CHTO  H151 6057   5.963   1.540   2.056 -0.5426  1.5008  0.0117
   15CHTO   O52 6058   5.888   1.593   1.866  0.5583 -0.2846  0.2834
   15CHTO   C86 6059   5.934   1.632   1.732  0.0888  0.0720 -0.3476
   15CHTO  H158 6060   5.966   1.532   1.695  1.6964  0.6810 -0.6554
   15CHTO   C90 6061   5.816   1.678   1.639  0.2748 -0.5989  0.0048
   15CHTO   O60 6062   5.739   1.571   1.586 -0.0112  0.5002 -0.2310
   15CHTO  H138 6063   5.646   1.582   1.597 -0.0442 -0.4856  0.6586
   15CHTO   O50 6064   6.030   1.416   1.909 -0.3485  0.3727  0.3882
   15CHTO   C73 6065   5.990   1.282   1.945 -0.3481 -0.6606 -0.9273
   15CHTO  H145 6066   5.885   1.282   1.980  0.5261 -0.2838  1.7848
   15CHTO   C74 6067   6.082   1.229   2.054  0.0394  0.0220 -0.6726
   15CHTO  H146 6068   6.076   1.296   2.141 -2.9110  0.3642 -1.0715
   15CHTO   O54 6069   6.030   1.098   2.098  0.0917 -0.1492 -0.4583
   15CHTO  H133 6070   6.084   1.060   2.164  0.1738  1.8043  0.6348
   15CHTO   C75 6071   6.231   1.221   1.995 -0.1854 -0.3444 -0.2427
   15CHTO  H147 6072   6.268   1.323   1.973 -0.9672 -0.0475 -0.2168
   15CHTO   N13 6073   6.330   1.171   2.096  0.1127  0.2891 -0.3281
   15CHTO  H139 6074   6.315   1.232   2.183 -1.3430  0.5608 -0.7492
   15CHTO  H140 6075   6.308   1.069   2.124 -0.6742  0.6993  0.6066
   15CHTO   C76 6076   6.234   1.143   1.854  0.3255 -0.3508  0.2603
   15CHTO  H148 6077   6.221   1.036   1.873 -1.6958  0.0850  1.4472
   15CHTO   O49 6078   6.132   1.184   1.765 -1.1058 -0.0380  0.0512
   15CHTO   C77 6079   6.003   1.183   1.824 -0.3210 -0.5391 -0.1552
   15CHTO  H149 6080   5.964   1.087   1.859 -0.3467  0.1745  1.8884
   15CHTO   C88 6081   5.904   1.228   1.716  0.1950  0.4335  0.1515
   15CHTO   O58 6082   5.880   1.127   1.611  0.3896  0.2123  0.5636
   15CHTO  H136 6083   5.858   1.047   1.654  0.7082  0.8163  1.8797
   15CHTO   O51 6084   6.374   1.167   1.782 -1.1237  0.4306 -0.1016
   15CHTO   C78 6085   6.384   1.113   1.641  0.5405 -0.8691  0.8529
   15CHTO  H150 6086   6.296   1.145   1.582  0.8656 -1.5717 -0.0205
   15CHTO   C80 6087   6.396   0.957   1.628  0.2487  0.3509  0.2837
   15CHTO  H152 6088   6.467   0.921   1.706  1.8168  1.1827 -0.7390
   15CHTO   O55 6089   6.265   0.903   1.657  0.0120 -0.3274  0.2860
   15CHTO  H134 6090   6.199   0.968   1.671  0.4181 -0.3364  2.4049
   15CHTO   C84 6091   6.440   0.904   1.492 -0.4183 -0.2197  0.5815
   15CHTO  H156 6092   6.363   0.925   1.418  0.7507  0.5951 -0.4343
   15CHTO   N15 6093   6.465   0.755   1.492 -0.0324 -0.0641 -0.4593
   15CHTO  H143 6094   6.488   0.720   1.393  1.8882 -0.7052  0.1775
   15CHTO  H144 6095   6.552   0.742   1.553 -0.3223 -0.6349 -0.1607
   15CHTO   C87 6096   6.559   0.987   1.433  1.0044  0.1882 -0.0493
   15CHTO  H159 6097   6.651   0.962   1.486  0.6561  0.7189  0.8279
   15CHTO   O53 6098   6.519   1.133   1.450 -0.1663  0.9919  0.1709
   15CHTO   C82 6099   6.507   1.179   1.580  0.4661 -0.7272 -0.8171
   15CHTO  H154 6100   6.586   1.154   1.651 -0.3095  1.8863  1.0152
   15CHTO   C89 6101   6.495   1.331   1.575 -0.7133  0.6393 -0.0534
   15CHTO   O59 6102   6.587   1.415   1.505 -0.2968  0.5023 -0.1083
   15CHTO  H137 6103   6.669   1.420   1.550 -0.2847 -0.8548  0.0397
   15CHTO   O45 6104   6.582   0.962   1.280 -0.6566 -0.3355 -0.1467
   15CHTO   C67 6105   6.705   1.028   1.228  0.6328  0.1099 -0.2452
   15CHTO  H124 6106   6.727   1.110   1.296  0.2203 -1.2001  1.4698
   15CHTO   C65 6107   6.829   0.934   1.221 -0.5115  0.1733 -0.5438
   15CHTO  H122 6108   6.790   0.834   1.203 -0.0478 -0.1489  0.2387
   15CHTO   O44 6109   6.886   0.939   1.352  0.5767  0.2030 -0.3511
   15CHTO  H102 6110   6.980   0.934   1.350  0.6170 -0.5753  2.1765
   15CHTO   C63 6111   6.920   0.961   1.090  0.2618  0.5294  0.3154
   15CHTO  H120 6112   6.872   0.918   1.003  1.7798  1.0299 -0.7819
   15CHTO   N11 6113   7.052   0.887   1.100 -0.1969  0.0680  0.2233
   15CHTO  H108 6114   7.030   0.784   1.082 -0.3440 -0.2219  1.8991
   15CHTO  H109 6115   7.087   0.900   1.200  1.3908  0.1909 -0.3446
   15CHTO   C61 6116   6.926   1.115   1.063  0.3320 -0.1368  0.3149
   15CHTO  H118 6117   6.981   1.127   0.969  1.0156 -1.2934  0.5633
   15CHTO   O40 6118   6.789   1.166   1.042 -0.1019 -0.0732 -0.3539
   15CHTO   C68 6119   6.670   1.095   1.088 -0.4750 -0.5376  0.0423
   15CHTO  H125 6120   6.638   1.015   1.019 -2.8797  1.2627 -1.0190
   15CHTO   C72 6121   6.553   1.195   1.099  0.2609 -0.4314  0.0979
   15CHTO   O48 6122   6.570   1.305   1.190  0.1487  0.4125  0.3116
   15CHTO  H105 6123   6.559   1.291   1.282 -3.8525  1.8410  0.1275
   15CHTO   O38 6124   6.996   1.176   1.176 -0.1928 -0.4387  0.0191
   15CHTO   C55 6125   7.052   1.302   1.154  0.0378  0.2712  0.2385
   15CHTO  H112 6126   6.997   1.338   1.066 -1.5844  0.5717  1.3393
   15CHTO   C56 6127   7.210   1.284   1.132 -0.3291 -0.4352 -0.0686
   15CHTO  H113 6128   7.255   1.234   1.219  2.1631 -0.0234 -1.0824
   15CHTO   O42 6129   7.240   1.202   1.017  0.0794 -0.4624 -0.6702
   15CHTO  H100 6130   7.328   1.209   0.983  0.8130 -1.1865  1.0249
   15CHTO   C57 6131   7.288   1.420   1.119 -0.5071  0.3875  0.3696
   15CHTO  H114 6132   7.273   1.474   1.026 -1.5071  0.0943  0.3652
   15CHTO   N10 6133   7.437   1.405   1.126  0.6010  0.1010 -0.4239
   15CHTO  H106 6134   7.477   1.320   1.181 -0.2012  0.3394  0.5401
   15CHTO  H107 6135   7.485   1.496   1.158 -0.7942 -0.4341  3.4594
   15CHTO   C58 6136   7.235   1.517   1.231 -0.6054 -0.6707 -0.3472
   15CHTO  H115 6137   7.279   1.497   1.331 -1.3473  1.0728  0.3488
   15CHTO   O37 6138   7.095   1.533   1.231  0.0195  0.2375  0.2896
   15CHTO   C59 6139   7.030   1.409   1.268 -1.1496  1.1063 -0.2208
   15CHTO  H116 6140   7.068   1.374   1.364  1.3353  1.5341 -1.0258
   15CHTO   C70 6141   6.878   1.428   1.295 -0.0548 -0.2188 -0.4771
   15CHTO   O46 6142   6.811   1.323   1.371 -0.3330  0.0421  0.1118
   15CHTO  H103 6143   6.829   1.245   1.323  2.5999  0.7526 -0.0318
   15CHTO   O39 6144   7.301   1.665   1.197  0.2551  0.3524 -0.0773
   15CHTO   C60 6145   7.222   1.780   1.232  0.5501  0.5162 -0.2683
   15CHTO  H117 6146   7.126   1.758   1.278  0.0234  0.3738 -1.4150
   15CHTO   C62 6147   7.300   1.858   1.337 -0.5098  0.1697 -0.2791
   15CHTO  H119 6148   7.299   1.790   1.424 -0.5271  1.6603  0.9019
   15CHTO   O43 6149   7.435   1.887   1.294  0.2381  0.4413 -0.5956
   15CHTO  H101 6150   7.489   1.820   1.331  0.7892  0.4948 -1.2967
   15CHTO   C66 6151   7.220   1.998   1.379  0.0469  0.7612 -0.2946
   15CHTO  H123 6152   7.117   1.975   1.407  0.2009  2.1653  1.4904
   15CHTO   N12 6153   7.286   2.071   1.491 -0.4806 -1.0034  0.1080
   15CHTO  H110 6154   7.363   2.143   1.470 -0.3850 -0.6615  1.5358
   15CHTO  H111 6155   7.220   2.094   1.574 -0.7135  0.2260 -0.4074
   15CHTO   C69 6156   7.201   2.088   1.255  0.6833 -0.3020 -0.5014
   15CHTO  H126 6157   7.305   2.115   1.225  1.1504  0.6086  1.7906
   15CHTO   O41 6158   7.122   2.002   1.146 -0.0575  0.2270  0.1579
   15CHTO   C64 6159   7.193   1.874   1.110 -0.1073  0.0836 -0.3898
   15CHTO  H121 6160   7.291   1.903   1.066  0.0121 -0.6774 -0.6392
   15CHTO   C71 6161   7.118   1.796   1.003  0.3017  0.5276  0.2844
   15CHTO   O47 6162   6.981   1.767   1.041  0.2182 -0.4447 -0.0601
   15CHTO  H104 6163   6.954   1.684   1.007  0.6001 -0.9524  0.8627
   15CHTO   O34 6164   7.119   2.225   1.286 -0.1543 -0.2213 -0.0451
   15CHTO   C49 6165   7.013   2.321   1.283 -0.1518  0.6183 -0.4642
   15CHTO   H91 6166   7.048   2.413   1.330 -3.3522  0.4716  2.3771
   15CHTO   C47 6167   6.888   2.266   1.361  0.1917 -0.5828 -0.2666
   15CHTO   H89 6168   6.812   2.347   1.359 -0.0955 -0.8680 -1.0275
   15CHTO   O33 6169   6.930   2.256   1.496  0.4775  0.2565 -0.2913
   15CHTO   H70 6170   6.958   2.339   1.529  1.6098  0.9304 -2.8341
   15CHTO   C45 6171   6.839   2.130   1.291  0.7466 -0.8166 -0.5128
   15CHTO   H87 6172   6.931   2.070   1.280  1.3189 -0.0591  0.0660
   15CHTO    N8 6173   6.741   2.049   1.357  0.0802  0.2009  0.1103
   15CHTO   H75 6174   6.713   1.956   1.312  2.9738 -0.1653 -1.0702
   15CHTO   H76 6175   6.680   2.090   1.437 -1.2995  0.4017 -1.0449
   15CHTO   C43 6176   6.793   2.172   1.137  0.1867 -0.7442  0.7890
   15CHTO   H85 6177   6.767   2.076   1.091  1.0238  0.6515 -2.7242
   15CHTO   O29 6178   6.894   2.242   1.069  0.0264 -0.0159  0.2040
   15CHTO   C50 6179   6.969   2.350   1.135 -0.1966  0.1100  0.4645
   15CHTO   H92 6180   7.060   2.356   1.074 -0.1777 -1.5444  0.3043
   15CHTO   C54 6181   6.912   2.494   1.125  0.3547 -0.3100  0.5497
   15CHTO   O36 6182   6.867   2.537   0.998  0.0419 -0.1373  0.2820
   15CHTO   H72 6183   6.786   2.583   1.006  1.0956  1.6484  1.2366
   15CHTO   O27 6184   6.670   2.247   1.122 -0.0739 -0.3483 -0.1911
   15CHTO   C37 6185   6.566   2.219   1.036 -0.7601  0.0454  0.3015
   15CHTO   H79 6186   6.579   2.123   0.985 -1.1260  0.2904 -0.2635
   15CHTO   C38 6187   6.432   2.205   1.115 -0.5395 -0.6364 -0.7962
   15CHTO   H80 6188   6.430   2.282   1.194  0.1615 -1.1478 -0.2778
   15CHTO   O31 6189   6.444   2.084   1.194 -0.1118  0.3642  0.3759
   15CHTO   H68 6190   6.492   2.096   1.273 -0.6305 -0.6165  0.8620
   15CHTO   C39 6191   6.305   2.212   1.025  0.0316 -0.5015  0.1088
   15CHTO   H81 6192   6.302   2.119   0.969  3.4470  0.2734 -1.4823
   15CHTO    N7 6193   6.172   2.217   1.093  0.4327 -0.2954  0.4155
   15CHTO   H73 6194   6.137   2.117   1.114 -1.4590  0.6640  1.9742
   15CHTO   H74 6195   6.181   2.269   1.187 -1.5903  1.5526 -0.3752
   15CHTO   C40 6196   6.318   2.336   0.917  0.6285  0.8725  0.0622
   15CHTO   H82 6197   6.309   2.437   0.959  0.3895  0.9824 -0.2483
   15CHTO   O26 6198   6.449   2.318   0.848 -0.5222 -0.0022  0.0307
   15CHTO   C41 6199   6.568   2.327   0.928  0.1321 -0.2141 -0.0648
   15CHTO   H83 6200   6.568   2.427   0.973  4.8624 -0.1601  0.0015
   15CHTO   C52 6201   6.692   2.310   0.830 -0.2789  0.1442  0.0965
   15CHTO   O35 6202   6.703   2.427   0.718 -0.2067  0.0681  0.4938
   15CHTO   H71 6203   6.782   2.419   0.667 -0.4130  0.5562  0.0951
   15CHTO   O28 6204   6.224   2.327   0.807 -0.0046 -0.1649 -0.6061
   15CHTO   C42 6205   6.168   2.443   0.738  0.0681  0.6324  0.9961
   15CHTO   H84 6206   6.106   2.405   0.657  0.8731  0.2721  0.5526
   15CHTO   C44 6207   6.278   2.520   0.665  0.5733 -1.0463  0.1825
   15CHTO   H86 6208   6.325   2.581   0.742 -0.3904 -1.6004  1.2395
   15CHTO   O32 6209   6.369   2.429   0.600 -0.3047 -0.1802 -0.2808
   15CHTO   H69 6210   6.401   2.369   0.665 -0.4616  0.4763  0.4036
   15CHTO   C48 6211   6.219   2.625   0.564  0.0393  0.2345 -0.5160
   15CHTO   H90 6212   6.150   2.577   0.495 -1.7166  0.2252  1.1836
   15CHTO    N9 6213   6.317   2.703   0.474 -0.2342  0.1085  0.3561
   15CHTO   H77 6214   6.299   2.669   0.373  0.9939 -3.4550  1.2607
   15CHTO   H78 6215   6.293   2.808   0.477 -1.9412 -0.2908  0.8478
   15CHTO   C51 6216   6.124   2.731   0.632 -0.4788  0.6188  0.1255
   15CHTO   H93 6217   6.173   2.811   0.687 -0.5124  0.0296  1.0211
   15CHTO   O30 6218   6.029   2.658   0.714 -0.1954  0.5301  0.4293
   15CHTO   C46 6219   6.084   2.546   0.817 -0.7662  0.5759 -0.0393
   15CHTO   H88 6220   6.157   2.598   0.878  1.3511 -1.7929 -0.4673
   15CHTO   C53 6221   5.969   2.490   0.896  0.2559  0.3996 -0.0691
   15CHTO   O72 6222   5.883   2.589   0.960  0.6014  0.4265 -0.1003
   15CHTO  H199 6223   5.845   2.551   1.036 -1.7208 -0.6467 -1.7719
   15CHTO   O22 6224   6.048   2.796   0.531  0.3644  0.2179 -0.4892
   15CHTO   C31 6225   5.982   2.928   0.541  0.2597  0.1137 -0.2593
   15CHTO   H59 6226   5.909   2.930   0.458 -1.2137  0.2276  1.0213
   15CHTO   C29 6227   5.908   2.958   0.670  0.2152 -0.2223 -0.2286
   15CHTO   H57 6228   5.971   2.941   0.758  1.1330 -1.5074 -1.1190
   15CHTO   O21 6229   5.809   2.854   0.680  0.1116 -0.4155 -0.3849
   15CHTO   H37 6230   5.789   2.844   0.772  0.4771 -1.5238 -0.4142
   15CHTO   C27 6231   5.853   3.111   0.675 -0.2420 -0.3477  0.8001
   15CHTO   H55 6232   5.784   3.123   0.591 -0.0291 -1.1341  0.5014
   15CHTO    N5 6233   5.778   3.137   0.798  0.3517 -0.3011  0.2071
   15CHTO   H43 6234   5.689   3.075   0.797 -0.0555  0.2941 -1.3457
   15CHTO   H44 6235   5.761   3.243   0.808 -0.7628 -0.3555 -1.0460
   15CHTO   C25 6236   5.974   3.202   0.645  0.2811 -0.2571 -1.2994
   15CHTO   H53 6237   6.055   3.178   0.716  0.3819  0.0907 -1.2988
   15CHTO   O17 6238   6.032   3.170   0.518  0.3869 -0.0050  0.1690
   15CHTO   C32 6239   6.087   3.037   0.516  0.1190  0.2395 -0.2753
   15CHTO   H60 6240   6.159   3.035   0.598  2.3871 -0.1622 -2.2018
   15CHTO   C36 6241   6.172   3.020   0.383 -0.1818  0.0124 -0.3263
   15CHTO   O25 6242   6.085   3.037   0.272 -0.3280 -0.0856  0.0996
   15CHTO   H40 6243   6.028   2.963   0.266 -0.4238 -0.2497  2.4320
   15CHTO   O15 6244   5.932   3.378   0.641  0.5384 -0.0660  0.1359
   15CHTO   C19 6245   6.005   3.506   0.677 -0.0680 -0.2338 -0.0967
   15CHTO   H47 6246   5.968   3.570   0.596  0.6875 -0.7544 -0.8584
   15CHTO   C20 6247   5.961   3.560   0.818 -1.0298 -0.0121  0.1197
   15CHTO   H48 6248   5.986   3.487   0.896 -0.7300  0.3083  0.3204
   15CHTO   O19 6249   5.815   3.575   0.825 -0.5353  0.1549  0.3898
   15CHTO   H35 6250   5.781   3.649   0.777 -1.5250 -0.2635  0.4207
   15CHTO   C21 6251   6.030   3.703   0.853 -0.2507  0.3467  0.1296
   15CHTO   H49 6252   5.990   3.774   0.781 -1.6433 -0.9309 -0.3813
   15CHTO    N4 6253   5.998   3.756   0.987 -0.1560  0.1052 -0.1735
   15CHTO   H41 6254   5.894   3.782   0.979 -0.7245 -2.5273 -1.7066
   15CHTO   H42 6255   6.054   3.841   1.026 -1.3006  0.3987  0.8788
   15CHTO   C22 6256   6.186   3.682   0.838  0.3858  0.4110  0.0785
   15CHTO   H50 6257   6.209   3.601   0.908 -1.4987  0.1709  0.4695
   15CHTO   O14 6258   6.206   3.634   0.704  0.1447 -0.7942 -0.7929
   15CHTO   C23 6259   6.158   3.508   0.668  0.8036  0.4464 -0.1341
   15CHTO   H51 6260   6.204   3.438   0.740  0.2893  1.1886  0.9181
   15CHTO   C34 6261   6.191   3.465   0.516  0.2590 -0.7712 -0.5361
   15CHTO   O23 6262   6.329   3.427   0.503 -0.0693 -0.2716 -0.6329
   15CHTO   H38 6263   6.375   3.464   0.576 -0.5932  1.2519 -1.0631
   15CHTO   O16 6264   6.270   3.792   0.850  0.1345 -0.4717  0.2213
   15CHTO   C24 6265   6.374   3.786   0.986  1.1584 -0.6619 -0.5155
   15CHTO   H52 6266   6.335   3.720   1.063  0.9513  1.0349  0.8847
   15CHTO   C26 6267   6.386   3.934   1.033  0.3439 -0.0818  0.1753
   15CHTO   H54 6268   6.414   3.987   0.940 -1.4411 -1.6043 -1.2791
   15CHTO   O20 6269   6.254   3.979   1.074 -0.4617 -0.3511  0.1204
   15CHTO   H36 6270   6.242   4.049   1.135  0.5673 -1.2502  1.3783
   15CHTO   C30 6271   6.500   3.966   1.139  0.0602 -0.5197  0.2166
   15CHTO   H58 6272   6.481   3.913   1.234 -0.3149  0.4322  0.6742
   15CHTO    N6 6273   6.519   4.110   1.176  0.0219 -0.3835  0.6438
   15CHTO   H45 6274   6.512   4.172   1.088  1.9003  0.2428  0.9087
   15CHTO   H46 6275   6.614   4.132   1.222  1.0057  0.9970 -1.9566
   15CHTO   C33 6276   6.634   3.898   1.099  0.0559  0.1056  0.3759
   15CHTO   H61 6277   6.687   3.960   1.025  1.8569 -2.3958 -0.5203
   15CHTO   O18 6278   6.611   3.766   1.043 -0.7067  0.2826  0.1932
   15CHTO   C28 6279   6.512   3.731   0.945  0.4967 -0.1341  0.1009
   15CHTO   H56 6280   6.547   3.769   0.849 -0.5975 -1.1277 -0.7195
   15CHTO   C35 6281   6.517   3.574   0.932 -0.1061 -0.2301 -0.0088
   15CHTO   O24 6282   6.449   3.521   0.819 -0.1654  0.2115 -0.2568
   15CHTO   H39 6283   6.360   3.547   0.830 -0.4639 -0.3365 -1.2754
   15CHTO    O9 6284   6.723   3.889   1.216 -0.4340 -0.6442  0.0174
   15CHTO   C13 6285   6.887   3.919   1.179  0.7620  0.7370  0.3824
   15CHTO   H26 6286   6.895   4.028   1.162  0.8535  0.3327 -2.5343
   15CHTO   C11 6287   6.938   3.832   1.056  0.1326  0.5546 -0.4059
   15CHTO   H24 6288   6.896   3.878   0.965  0.3249 -1.7162 -1.6779
   15CHTO    O8 6289   6.881   3.693   1.067 -0.5885 -0.9233  0.0513
   15CHTO    H3 6290   6.794   3.691   1.033 -0.5656 -0.3409 -0.0457
   15CHTO    C9 6291   7.088   3.836   1.042 -0.4950 -0.3735 -0.3865
   15CHTO   H22 6292   7.118   3.942   1.040 -2.6655  0.2795  0.5455
   15CHTO    N2 6293   7.151   3.787   0.919 -0.1269  0.0588  0.0936
   15CHTO   H10 6294   7.125   3.682   0.919 -0.5116  0.1555  0.5691
   15CHTO   H11 6295   7.120   3.848   0.835  1.3681 -1.0575 -1.3070
   15CHTO    C7 6296   7.142   3.757   1.166 -0.2311  1.0326  0.2778
   15CHTO   H20 6297   7.234   3.818   1.183  0.7270 -0.2041 -0.3551
   15CHTO    O4 6298   7.064   3.765   1.288  0.3363  0.2250  0.0285
   15CHTO   C14 6299   6.977   3.884   1.307  0.3228 -0.0580 -0.3857
   15CHTO   H27 6300   7.035   3.975   1.331  1.8168 -0.5665 -1.9489
   15CHTO   C18 6301   6.901   3.845   1.439 -0.5278  0.0068  0.1375
   15CHTO   O13 6302   6.845   3.964   1.483 -0.1589 -0.3006  0.1650
   15CHTO    H7 6303   6.809   3.957   1.570 -0.3691 -2.4222 -0.0667
   15CHTO    O2 6304   7.179   3.591   1.141 -0.3150  0.0918 -0.5231
   15CHTO    C1 6305   7.279   3.544   1.239 -0.0705  0.3935  0.6283
   15CHTO   H14 6306   7.313   3.626   1.306  2.6066 -1.8742  2.1937
   15CHTO    C2 6307   7.407   3.490   1.161 -0.9807 -0.6620  0.1846
   15CHTO   H15 6308   7.372   3.423   1.081  0.4292 -0.4028 -0.6670
   15CHTO    O6 6309   7.463   3.605   1.099 -0.1448  0.1385  0.2618
   15CHTO    H1 6310   7.537   3.582   1.046 -0.8517 -0.5066 -0.4495
   15CHTO    C3 6311   7.516   3.426   1.251 -1.1169  0.4882 -1.1692
   15CHTO   H16 6312   7.558   3.507   1.312  0.4686 -1.3434  0.2129
   15CHTO    N1 6313   7.630   3.367   1.169  0.3218 -0.0659 -0.1815
   15CHTO    H8 6314   7.602   3.351   1.066  2.4030 -0.7126 -0.6659
   15CHTO    H9 6315   7.710   3.439   1.178  0.2613  0.5429 -3.6947
   15CHTO    C4 6316   7.451   3.318   1.348  0.3137 -0.5446 -0.5624
   15CHTO   H17 6317   7.424   3.227   1.294 -1.4338 -0.9438  0.9278
   15CHTO    O1 6318   7.344   3.380   1.424 -0.1488  0.0062 -0.3661
   15CHTO    C5 6319   7.240   3.424   1.338 -0.4069  0.2087 -0.2299
   15CHTO   H18 6320   7.214   3.341   1.272 -0.4541 -0.5313  0.6982
   15CHTO   C16 6321   7.118   3.471   1.419 -0.0714  0.0103 -0.2972
   15CHTO   O11 6322   7.149   3.583   1.502 -0.3644 -0.2410  0.1340
   15CHTO    H5 6323   7.218   3.559   1.560 -0.1261 -0.7244 -0.3502
   15CHTO    O3 6324   7.540   3.294   1.462 -0.1582  0.5980  0.2367
   15CHTO    C6 6325   7.616   3.166   1.481  0.3893  0.2479  0.0346
   15CHTO   H19 6326   7.621   3.108   1.389 -1.3855 -0.7778  0.5586
   15CHTO    C8 6327   7.763   3.195   1.524 -0.2138  0.2438 -1.1045
   15CHTO   H21 6328   7.763   3.265   1.607  0.0923  2.5387 -3.0051
   15CHTO    O7 6329   7.827   3.262   1.413  0.3750 -0.5135 -0.7198
   15CHTO    H2 6330   7.916   3.281   1.436 -0.4958 -0.8581  3.3353
   15CHTO   C12 6331   7.837   3.058   1.554  0.1394  0.0231 -0.1181
   15CHTO   H25 6332   7.856   2.997   1.464  0.3276  1.0349 -0.7707
   15CHTO    N3 6333   7.978   3.085   1.598 -0.5211 -0.0685  0.2552
   15CHTO   H12 6334   7.964   3.162   1.673  2.6744 -0.4864  1.3766
   15CHTO   H13 6335   8.039   3.119   1.516 -1.8194 -1.0970 -1.1691
   15CHTO   C15 6336   7.761   2.973   1.660  0.1714  0.4748  0.0238
   15CHTO   H28 6337   7.776   3.001   1.764 -1.3686  1.1035  0.0913
   15CHTO   O10 6338   7.790   2.829   1.646  0.7044  0.1765 -0.5316
   15CHTO    H4 6339   7.879   2.820   1.672  0.7447  0.3181 -0.6205
   15CHTO    O5 6340   7.620   2.963   1.635 -0.1033 -0.0579  0.0770
   15CHTO   C10 6341   7.545   3.076   1.591 -0.4078  0.4870 -0.0063
   15CHTO   H23 6342   7.526   3.135   1.681  0.9659 -0.1102  0.6874
   15CHTO   C17 6343   7.413   3.019   1.547 -0.2749 -0.2219 -0.2391
   15CHTO   O12 6344   7.336   2.979   1.656  0.1223  0.0625 -0.0013
   15CHTO    H6 6345   7.293   3.051   1.698  2.0710  1.0605  0.3162
   16CHTO  H203 6346   5.362   2.978   1.182  1.1345 -1.0570  0.3435
   16CHTO   O82 6347   5.396   3.047   1.128  0.2265 -0.4563  0.5161
   16CHTO  C123 6348   5.494   3.124   1.197 -0.0051  0.0609  0.1144
   16CHTO  H227 6349   5.456   3.148   1.297 -1.4405 -0.3829 -0.3183
   16CHTO   O77 6350   5.602   3.024   1.208 -0.7495 -0.3518 -0.0751
   16CHTO  C118 6351   5.732   3.062   1.260  0.9919  0.8061 -1.0206
   16CHTO  H222 6352   5.702   3.097   1.360  0.4161  0.2358 -0.9943
   16CHTO  C125 6353   5.817   2.932   1.274 -0.0901  0.1913  0.0768
   16CHTO   O84 6354   5.749   2.837   1.351 -0.0251 -0.4460 -0.1352
   16CHTO  H205 6355   5.804   2.761   1.351  1.2116  0.4323 -0.4371
   16CHTO  C114 6356   5.791   3.171   1.175  0.0422 -0.3354  0.5490
   16CHTO  H218 6357   5.791   3.134   1.072  0.0863  0.1237  0.3841
   16CHTO  C116 6358   5.688   3.296   1.164 -0.2819  0.1622 -0.4654
   16CHTO  H220 6359   5.677   3.332   1.269 -0.6315 -1.6415  0.1398
   16CHTO   O79 6360   5.736   3.403   1.079 -0.1174 -0.5288  0.6173
   16CHTO  H201 6361   5.672   3.420   1.012  0.0131 -0.4278  0.5193
   16CHTO  C120 6362   5.547   3.243   1.114  0.0539 -0.7361  0.3993
   16CHTO  H224 6363   5.555   3.211   1.008 -0.5791 -2.4156  0.8362
   16CHTO   N21 6364   5.443   3.351   1.123 -0.1266 -0.2449 -0.0519
   16CHTO  H211 6365   5.363   3.327   1.054  0.7466 -2.5160 -0.3205
   16CHTO  H212 6366   5.488   3.446   1.099 -0.4658 -0.1610 -0.3669
   16CHTO   O75 6367   5.918   3.203   1.229 -0.1725 -0.1754 -0.0383
   16CHTO  C112 6368   6.027   3.234   1.119 -0.0886  0.2595 -0.4505
   16CHTO  H216 6369   5.982   3.295   1.039  1.1771 -0.3081 -1.6113
   16CHTO   O73 6370   6.068   3.108   1.073 -0.1993  0.7265 -0.1098
   16CHTO  C113 6371   6.189   3.093   1.000 -0.2771  0.2444 -0.2403
   16CHTO  H217 6372   6.167   3.115   0.894 -2.1520  0.9377  0.2773
   16CHTO  C124 6373   6.218   2.938   0.983  0.1015  0.2198 -0.4097
   16CHTO   O83 6374   6.096   2.865   0.954 -0.0470 -0.3584 -0.7532
   16CHTO  H204 6375   6.029   2.929   0.939 -0.7335 -0.8405  0.2124
   16CHTO  C109 6376   6.317   3.171   1.056  0.3454  0.0420  0.0095
   16CHTO  H213 6377   6.354   3.112   1.141  0.4701 -0.0971 -0.1414
   16CHTO  C110 6378   6.269   3.319   1.094 -0.2126 -0.3808  0.3148
   16CHTO  H214 6379   6.261   3.379   1.003 -1.2953  0.7187  1.1208
   16CHTO   O78 6380   6.381   3.372   1.169  0.5524  0.2991  0.8582
   16CHTO  H200 6381   6.412   3.308   1.231  1.5505 -0.8906 -0.8396
   16CHTO  C111 6382   6.151   3.321   1.185  0.4006  0.7058 -0.5617
   16CHTO  H215 6383   6.179   3.270   1.279 -1.1011  2.3382  0.8248
   16CHTO   N19 6384   6.103   3.454   1.227  0.2212 -0.3822 -0.2106
   16CHTO  H207 6385   6.106   3.510   1.134 -1.2076  3.1611  1.7980
   16CHTO  H208 6386   6.189   3.492   1.280  0.2485 -0.1088 -0.4453
   16CHTO   O74 6387   6.429   3.177   0.958  0.5618 -0.2705  0.5514
   16CHTO  C115 6388   6.543   3.065   0.980 -0.5709  0.2312 -0.5477
   16CHTO  H219 6389   6.529   3.009   1.073  2.0764 -1.4135 -1.0947
   16CHTO   O76 6390   6.547   2.960   0.865 -0.0185 -0.4568 -0.3234
   16CHTO  C122 6391   6.648   2.858   0.884 -1.0533  0.3774  0.7057
   16CHTO  H226 6392   6.668   2.807   0.790 -1.7496 -1.0981  1.3464
   16CHTO  C126 6393   6.584   2.745   0.977  0.6840  0.7224  0.1515
   16CHTO   O85 6394   6.454   2.699   0.931 -0.2596 -0.4560 -1.0571
   16CHTO  H206 6395   6.384   2.719   0.990  0.4276 -0.2520 -0.3017
   16CHTO  C121 6396   6.795   2.904   0.932  0.5404 -0.6346  0.0453
   16CHTO  H225 6397   6.848   2.821   0.983 -3.7025 -2.3154  1.9604
   16CHTO   O81 6398   6.874   2.955   0.831 -0.3988 -0.1161 -0.0180
   16CHTO  H202 6399   6.822   2.992   0.762 -0.8931 -3.0285 -1.2899
   16CHTO  C119 6400   6.790   3.017   1.042 -0.7246  0.0675 -0.4671
   16CHTO  H223 6401   6.758   2.972   1.136 -0.2234  2.9310  1.1134
   16CHTO  C117 6402   6.685   3.133   1.004 -0.5277  0.4525  0.0422
   16CHTO  H221 6403   6.712   3.194   0.918 -2.2906 -0.7069 -1.3503
   16CHTO   N20 6404   6.673   3.231   1.121  0.6003  0.1021  0.3907
   16CHTO  H209 6405   6.621   3.198   1.210 -0.2058 -0.2178 -0.1983
   16CHTO  H210 6406   6.755   3.297   1.147  0.5108  0.8500 -1.1609
   16CHTO   O80 6407   6.938   3.066   1.095  0.2278 -0.1838  0.0171
   16CHTO  C103 6408   7.025   2.967   1.159  0.7179  1.0354 -0.0205
   16CHTO  H190 6409   6.968   2.875   1.173  1.4839  0.6816  0.8327
   16CHTO  C101 6410   7.153   2.914   1.080 -0.9760  0.0213 -0.2800
   16CHTO  H188 6411   7.222   2.997   1.073 -1.2752  0.4905  1.8928
   16CHTO   O68 6412   7.112   2.862   0.941  0.4148 -0.2909  0.1853
   16CHTO  H168 6413   7.179   2.879   0.878 -0.6798 -0.0530 -0.9462
   16CHTO   C99 6414   7.216   2.793   1.163  0.3656  0.3051  0.3098
   16CHTO  H186 6415   7.148   2.706   1.153  1.3480 -0.5877  1.3114
   16CHTO   N17 6416   7.341   2.726   1.111 -0.1063 -0.0476  0.2703
   16CHTO  H174 6417   7.368   2.764   1.014  2.3609  0.6000  1.1780
   16CHTO  H175 6418   7.425   2.748   1.176 -0.9911  2.6184  0.5742
   16CHTO   C97 6419   7.219   2.820   1.321 -0.0074 -0.6381  0.2572
   16CHTO  H184 6420   7.315   2.867   1.346 -0.3584  1.6978 -2.4740
   16CHTO   O64 6421   7.109   2.892   1.373  0.0825  0.1155  0.0396
   16CHTO  C104 6422   7.073   3.008   1.299 -0.2877  0.1138  0.1658
   16CHTO  H191 6423   7.158   3.076   1.288 -1.3766  1.2144 -1.8743
   16CHTO  C108 6424   6.964   3.084   1.372  0.1068 -0.3707 -0.2412
   16CHTO   O71 6425   7.009   3.133   1.499  0.0296  0.4923  0.3244
   16CHTO  H171 6426   6.942   3.152   1.562 -1.1275 -3.6890  0.5086
   16CHTO   O62 6427   7.209   2.689   1.382  0.3642  0.6737 -0.2920
   16CHTO   C91 6428   7.205   2.671   1.526  0.2436  0.5758 -0.2039
   16CHTO  H178 6429   7.218   2.769   1.573  2.4200  0.4626 -0.5141
   16CHTO   C92 6430   7.322   2.577   1.567 -0.3360  0.4034  0.1764
   16CHTO  H179 6431   7.319   2.491   1.499 -1.1916  0.1661  0.5089
   16CHTO   O66 6432   7.452   2.633   1.530 -0.0594  0.3693 -0.4502
   16CHTO  H166 6433   7.450   2.726   1.541  1.2434  0.4129 -0.5512
   16CHTO   C93 6434   7.326   2.534   1.723  0.0170 -0.1519 -0.2937
   16CHTO  H180 6435   7.359   2.626   1.773 -0.9007  0.5571 -0.9789
   16CHTO   N16 6436   7.415   2.422   1.759 -0.7119 -0.3859  0.4513
   16CHTO  H172 6437   7.514   2.452   1.727 -1.4255  1.3686 -0.1390
   16CHTO  H173 6438   7.377   2.334   1.709 -0.5658 -0.8992  1.2228
   16CHTO   C94 6439   7.180   2.493   1.763 -0.1467 -0.0245  0.6647
   16CHTO  H181 6440   7.151   2.398   1.718 -0.8344  0.0253  1.0010
   16CHTO   O61 6441   7.088   2.595   1.726 -0.3920 -0.3344 -0.5193
   16CHTO   C95 6442   7.073   2.608   1.584 -0.3720 -0.1301  0.5135
   16CHTO  H182 6443   7.055   2.506   1.551  1.9590 -0.3126 -0.2568
   16CHTO  C106 6444   6.936   2.687   1.566 -0.1561  0.3083 -0.2985
   16CHTO   O69 6445   6.907   2.671   1.429  0.0289  0.5923  0.3149
   16CHTO  H169 6446   6.872   2.753   1.398 -2.1250 -0.6071 -0.5411
   16CHTO   O63 6447   7.153   2.472   1.929 -0.0448 -0.6632 -0.5743
   16CHTO   C96 6448   6.988   2.421   1.955 -0.1671 -0.2231  0.8496
   16CHTO  H183 6449   6.982   2.353   2.040  1.1333  0.1807  1.2740
   16CHTO   C98 6450   6.926   2.333   1.837  0.4854 -0.8545 -0.9536
   16CHTO  H185 6451   6.932   2.387   1.741  1.2063  1.6147  0.4373
   16CHTO   O67 6452   7.009   2.214   1.824 -0.1642  0.1503 -0.1596
   16CHTO  H167 6453   6.955   2.147   1.787  0.5401  0.2757 -1.4287
   16CHTO  C102 6454   6.769   2.301   1.873 -0.5973  0.8754  0.2479
   16CHTO  H189 6455   6.773   2.242   1.966  1.3720  0.0912 -0.2935
   16CHTO   N18 6456   6.698   2.215   1.773  0.2176  0.6790 -0.3283
   16CHTO  H176 6457   6.701   2.114   1.809 -2.7003  1.2289  1.6671
   16CHTO  H177 6458   6.746   2.233   1.678 -3.4844  2.7957 -1.9229
   16CHTO  C105 6459   6.699   2.437   1.902 -0.1918 -0.4242  0.1523
   16CHTO  H192 6460   6.720   2.507   1.821  0.0364 -0.7177 -0.0453
   16CHTO   O65 6461   6.762   2.495   2.016 -0.1197  0.2928  0.1014
   16CHTO  C100 6462   6.898   2.540   1.989  0.0523 -0.2092  0.8188
   16CHTO  H187 6463   6.884   2.614   1.908  0.2908 -0.1009  0.8752
   16CHTO  C107 6464   6.942   2.618   2.113 -0.0065  0.3915  0.1687
   16CHTO   O70 6465   7.054   2.701   2.083  0.0027 -0.8676 -0.8736
   16CHTO  H170 6466   7.028   2.788   2.060 -0.0290  0.3956  3.5058
   16CHTO   O57 6467   6.543   2.425   1.930 -0.5612  0.0744  0.0558
   16CHTO   C85 6468   6.451   2.501   1.852 -0.4998 -1.0073 -0.0892
   16CHTO  H157 6469   6.489   2.500   1.748 -4.1377  0.1841 -1.4706
   16CHTO   C83 6470   6.459   2.648   1.910 -0.1568 -0.5715 -0.1231
   16CHTO  H155 6471   6.563   2.682   1.905 -0.2334  0.1164  2.2137
   16CHTO   O56 6472   6.431   2.651   2.056  0.6471 -0.1756  0.1453
   16CHTO  H135 6473   6.356   2.707   2.064  2.4833  2.8081 -2.1160
   16CHTO   C81 6474   6.372   2.746   1.828 -0.2922  0.2399 -0.6043
   16CHTO  H153 6475   6.421   2.750   1.731 -0.3657 -2.2093 -0.7745
   16CHTO   N14 6476   6.366   2.882   1.883  0.6581 -0.5292 -0.4756
   16CHTO  H141 6477   6.466   2.919   1.893  1.0498 -1.6880  0.0048
   16CHTO  H142 6478   6.321   2.874   1.980  3.4775  2.2469  1.1761
   16CHTO   C79 6479   6.223   2.677   1.810 -0.4307  0.2952 -0.0289
   16CHTO  H151 6480   6.161   2.737   1.744 -2.1010 -0.8784  0.4255
   16CHTO   O52 6481   6.224   2.534   1.772  0.1985  0.2291  0.6278
   16CHTO   C86 6482   6.304   2.449   1.860  0.6347  0.1928  0.7082
   16CHTO  H158 6483   6.254   2.455   1.958 -1.3607 -1.9733 -0.1356
   16CHTO   C90 6484   6.295   2.297   1.815 -0.4712  0.4383 -0.2906
   16CHTO   O60 6485   6.163   2.241   1.828 -0.2474 -0.2794  0.1408
   16CHTO  H138 6486   6.167   2.168   1.886 -0.6275 -1.5944 -1.4491
   16CHTO   O50 6487   6.140   2.691   1.930  0.1425 -0.0832  0.6302
   16CHTO   C73 6488   6.020   2.699   2.011  0.7836 -0.3406  0.4180
   16CHTO  H145 6489   6.003   2.598   2.052  0.8035 -0.7912 -0.6575
   16CHTO   C74 6490   5.895   2.737   1.931 -0.3193 -0.0740  0.3298
   16CHTO  H146 6491   5.887   2.669   1.845 -1.0857 -0.4253  0.6712
   16CHTO   O54 6492   5.786   2.705   2.009 -0.3818  0.1002  0.1792
   16CHTO  H133 6493   5.706   2.718   1.962 -0.8128 -0.8071  0.6520
   16CHTO   C75 6494   5.898   2.894   1.889  0.3225 -0.3637 -0.0626
   16CHTO  H147 6495   5.990   2.916   1.834 -0.3926  0.3797 -0.9777
   16CHTO   N13 6496   5.787   2.931   1.803  0.3236 -0.2113  0.0903
   16CHTO  H139 6497   5.813   2.879   1.712  0.5000  0.5986 -0.3287
   16CHTO  H140 6498   5.774   3.035   1.777 -0.6187 -0.0158  1.2561
   16CHTO   C76 6499   5.914   2.979   2.026 -0.0045 -0.5449 -0.0931
   16CHTO  H148 6500   5.825   2.961   2.086  0.9274 -0.1997  1.4166
   16CHTO   O49 6501   6.038   2.938   2.090  0.5137  0.8511 -0.8912
   16CHTO   C77 6502   6.039   2.792   2.122 -0.4925 -0.3211  0.1529
   16CHTO  H149 6503   5.959   2.780   2.195  0.4368 -0.9506  1.0801
   16CHTO   C88 6504   6.168   2.785   2.206 -1.1536  0.3643 -0.1773
   16CHTO   O58 6505   6.199   2.654   2.239  0.2233 -0.5598 -0.1180
   16CHTO  H136 6506   6.277   2.628   2.193  0.7105  0.5739  0.0658
   16CHTO   O51 6507   5.934   3.143   1.990  0.4167 -0.3375  0.2142
   16CHTO   C78 6508   5.967   3.215   2.132  0.7614  0.7870  0.1745
   16CHTO  H150 6509   5.994   3.136   2.204 -2.5330  0.9588  1.6992
   16CHTO   C80 6510   5.839   3.278   2.180 -0.1278  0.4028  0.3107
   16CHTO  H152 6511   5.800   3.344   2.100  0.9457  1.9903  1.0487
   16CHTO   O55 6512   5.738   3.175   2.203 -0.8449  0.1058 -0.2077
   16CHTO  H134 6513   5.685   3.209   2.272 -0.0665 -1.2376  1.0655
   16CHTO   C84 6514   5.874   3.355   2.321 -0.8418 -0.2196  0.1530
   16CHTO  H156 6515   5.891   3.276   2.394 -1.0764  1.3134  1.9079
   16CHTO   N15 6516   5.763   3.433   2.374  0.0799  0.3501  0.2737
   16CHTO  H143 6517   5.793   3.482   2.465  2.4774 -2.3408  1.0278
   16CHTO  H144 6518   5.729   3.508   2.307 -0.8112 -1.9906 -1.9547
   16CHTO   C87 6519   6.002   3.444   2.305  0.0661  0.4835  0.3379
   16CHTO  H159 6520   5.989   3.535   2.245 -0.6728 -1.2608 -2.2572
   16CHTO   O53 6521   6.116   3.355   2.254 -0.3604  0.2812  0.0252
   16CHTO   C82 6522   6.087   3.312   2.120  0.6602  1.0602  0.6241
   16CHTO  H154 6523   6.064   3.396   2.054 -3.6568 -0.6766 -0.2713
   16CHTO   C89 6524   6.213   3.240   2.062 -0.0628  0.0948  0.4431
   16CHTO   O59 6525   6.218   3.293   1.926 -0.3576 -0.0554  0.1800
   16CHTO  H137 6526   6.279   3.263   1.861 -2.4480 -0.4905 -1.6194
   16CHTO   O45 6527   6.070   3.500   2.443 -0.3274 -0.2366 -0.1610
   16CHTO   C67 6528   6.186   3.580   2.420 -0.1655 -0.0054  0.4166
   16CHTO  H124 6529   6.241   3.534   2.338  0.0335 -1.4858  1.3575
   16CHTO   C65 6530   6.136   3.727   2.372  0.0348  0.7528 -0.6724
   16CHTO  H122 6531   6.032   3.737   2.402  0.2087  1.5472 -0.3133
   16CHTO   O44 6532   6.148   3.722   2.228 -0.4103 -0.4698 -0.2525
   16CHTO  H102 6533   6.233   3.752   2.201 -0.3840 -0.0443  0.2809
   16CHTO   C63 6534   6.221   3.831   2.449  0.2685  0.9421 -0.8026
   16CHTO  H120 6535   6.185   3.839   2.552  3.9836 -1.7070  0.8384
   16CHTO   N11 6536   6.198   3.977   2.408  0.0651 -0.2841  0.2083
   16CHTO  H108 6537   6.093   3.998   2.400 -0.0475 -0.6294  0.7427
   16CHTO  H109 6538   6.251   4.056   2.456 -0.3952  1.3679 -1.9342
   16CHTO   C61 6539   6.371   3.806   2.457 -0.0775 -0.4255 -0.4424
   16CHTO  H118 6540   6.419   3.879   2.524 -2.7040  1.2724 -0.3005
   16CHTO   O40 6541   6.402   3.680   2.508  0.2268 -0.6425 -0.2295
   16CHTO   C68 6542   6.288   3.588   2.533 -0.7535  0.1825  0.0186
   16CHTO  H125 6543   6.238   3.625   2.625 -2.2709  0.5296 -0.9318
   16CHTO   C72 6544   6.348   3.447   2.566 -0.0095 -0.8161 -0.5600
   16CHTO   O48 6545   6.444   3.470   2.674  0.6284  0.2945  0.1976
   16CHTO  H105 6546   6.473   3.392   2.718  0.0015 -0.9230 -1.4598
   16CHTO   O38 6547   6.430   3.822   2.330 -0.1270 -0.0312  0.2298
   16CHTO   C55 6548   6.574   3.811   2.338  0.1876  0.1355  0.6581
   16CHTO  H112 6549   6.608   3.773   2.435 -0.4868 -0.9876  0.4564
   16CHTO   C56 6550   6.635   3.956   2.307 -0.4233 -0.1417  0.2125
   16CHTO  H113 6551   6.598   3.986   2.208  0.3424 -0.6215 -0.2218
   16CHTO   O42 6552   6.583   4.038   2.410 -0.1532  0.2118 -0.1744
   16CHTO  H100 6553   6.553   4.123   2.382  0.5147 -0.4036 -2.9869
   16CHTO   C57 6554   6.787   3.953   2.310 -0.5722  0.2653  0.1389
   16CHTO  H114 6555   6.816   3.921   2.410 -1.4554 -0.3692  0.2013
   16CHTO   N10 6556   6.855   4.085   2.282 -0.3945  0.2771 -0.3193
   16CHTO  H106 6557   6.876   4.095   2.176 -3.0505  0.1413 -0.8986
   16CHTO  H107 6558   6.945   4.089   2.341 -1.8353 -1.2793  2.0300
   16CHTO   C58 6559   6.843   3.835   2.220 -0.6855 -0.3053  0.2404
   16CHTO  H115 6560   6.828   3.863   2.114 -1.0370  1.0857  0.6492
   16CHTO   O37 6561   6.777   3.712   2.247  0.0500  0.4007  0.2706
   16CHTO   C59 6562   6.636   3.715   2.228 -0.2246  0.8958 -0.2718
   16CHTO  H116 6563   6.618   3.742   2.124  2.6859 -0.4990 -1.1895
   16CHTO   C70 6564   6.582   3.575   2.249 -0.7219 -0.0910 -0.3993
   16CHTO   O46 6565   6.439   3.551   2.220 -0.1615 -0.2615  0.0687
   16CHTO  H103 6566   6.398   3.614   2.166 -0.1994 -0.2814  0.0741
   16CHTO   O39 6567   6.995   3.797   2.244  0.4082 -0.2186  0.6539
   16CHTO   C60 6568   7.064   3.726   2.141  0.5583  0.1434 -0.0665
   16CHTO  H117 6569   6.986   3.688   2.074  0.2885 -1.3472  1.0554
   16CHTO   C62 6570   7.161   3.813   2.069  0.5852  0.4182 -0.2350
   16CHTO  H119 6571   7.118   3.911   2.041 -0.9167 -0.1878 -0.0916
   16CHTO   O43 6572   7.253   3.863   2.161 -0.3959  0.4367 -0.1035
   16CHTO  H101 6573   7.308   3.928   2.122 -0.6675 -0.1639 -1.5165
   16CHTO   C66 6574   7.223   3.730   1.951 -0.3688 -0.3983  0.0835
   16CHTO  H123 6575   7.139   3.704   1.888 -0.9485  0.9946  0.2522
   16CHTO   N12 6576   7.315   3.804   1.863 -0.0514  0.2075 -0.5097
   16CHTO  H110 6577   7.258   3.878   1.808 -0.0299 -0.2937 -1.2176
   16CHTO  H111 6578   7.394   3.843   1.925 -0.4262 -1.0495  0.7902
   16CHTO   C69 6579   7.291   3.604   2.011  0.1896 -0.3132 -0.4145
   16CHTO  H126 6580   7.391   3.627   2.053 -0.1298  1.6572 -0.6919
   16CHTO   O41 6581   7.205   3.521   2.119  0.3482  0.0441 -0.4775
   16CHTO   C64 6582   7.124   3.596   2.209 -0.8212  0.1320  0.0040
   16CHTO  H121 6583   7.190   3.638   2.288 -3.4058  3.7381  0.3211
   16CHTO   C71 6584   7.022   3.496   2.267  0.8148 -0.6433 -0.9024
   16CHTO   O47 6585   6.943   3.426   2.173 -0.3577 -0.1047 -0.3061
   16CHTO  H104 6586   6.861   3.410   2.217 -0.1533 -1.3246 -0.3631
   16CHTO   O34 6587   7.307   3.492   1.896 -0.0270 -0.3304 -0.4284
   16CHTO   C49 6588   7.396   3.355   1.875 -0.0138  0.1175  0.3462
   16CHTO   H91 6589   7.474   3.381   1.804 -2.1674  3.0889 -1.0484
   16CHTO   C47 6590   7.301   3.253   1.818 -0.5131  0.4195  0.3756
   16CHTO   H89 6591   7.363   3.162   1.803  0.4249  0.7143  2.2491
   16CHTO   O33 6592   7.256   3.303   1.692 -0.6517 -0.2191  0.2732
   16CHTO   H70 6593   7.196   3.254   1.640 -0.3887  2.1099 -2.3123
   16CHTO   C45 6594   7.182   3.228   1.926 -0.6528  0.0990  0.1648
   16CHTO   H87 6595   7.131   3.324   1.942 -0.4368  0.2552 -0.0744
   16CHTO    N8 6596   7.077   3.137   1.876 -0.0788 -0.7688 -0.4486
   16CHTO   H75 6597   6.985   3.166   1.925 -0.3584  0.2343 -1.5570
   16CHTO   H76 6598   7.101   3.032   1.880 -0.0583 -0.7076  1.6414
   16CHTO   C43 6599   7.249   3.191   2.067  0.0960  0.0321  0.7486
   16CHTO   H85 6600   7.170   3.184   2.141  0.3203 -1.6038  0.8709
   16CHTO   O29 6601   7.360   3.274   2.108  0.2658 -0.7665  0.6285
   16CHTO   C50 6602   7.458   3.306   2.007  0.0772 -0.2779 -0.2244
   16CHTO   H92 6603   7.517   3.383   2.057 -0.4969 -0.4700  0.7750
   16CHTO   C54 6604   7.559   3.198   1.970 -0.1583 -0.4222  0.0268
   16CHTO   O36 6605   7.610   3.118   2.074 -0.2979  0.3494 -0.3334
   16CHTO   H72 6606   7.700   3.131   2.098 -0.6015  3.2748 -0.5634
   16CHTO   O27 6607   7.304   3.061   2.066  0.6384  0.2049 -0.2671
   16CHTO   C37 6608   7.345   2.963   2.171 -0.0517 -0.0454  0.0160
   16CHTO   H79 6609   7.435   2.997   2.223 -1.6153  2.4705  1.1580
   16CHTO   C38 6610   7.237   2.934   2.279  0.7365  0.9660  0.1611
   16CHTO   H80 6611   7.142   2.912   2.226 -1.1248  4.7120  1.7691
   16CHTO   O31 6612   7.208   3.051   2.354  0.4007 -0.0639  0.1528
   16CHTO   H68 6613   7.197   3.127   2.299 -2.9531 -1.6046 -1.4614
   16CHTO   C39 6614   7.279   2.822   2.383  0.1490 -0.5328 -0.2310
   16CHTO   H81 6615   7.372   2.847   2.432 -0.2818  1.4859 -0.3847
   16CHTO    N7 6616   7.161   2.801   2.479  0.6399 -0.2554  0.3780
   16CHTO   H73 6617   7.068   2.763   2.440 -0.8807  2.9614  0.6993
   16CHTO   H74 6618   7.202   2.747   2.562 -0.0600  0.3475  1.1305
   16CHTO   C40 6619   7.301   2.693   2.294 -0.2784 -0.3190  0.3157
   16CHTO   H82 6620   7.202   2.666   2.258 -1.2810  3.0011  0.3580
   16CHTO   O26 6621   7.394   2.720   2.184 -0.2844 -0.2267  0.6444
   16CHTO   C41 6622   7.369   2.822   2.094 -0.9476  0.0138  0.9094
   16CHTO   H83 6623   7.281   2.796   2.034 -0.7070  0.7533  0.2229
   16CHTO   C52 6624   7.491   2.829   1.998 -0.0571  0.4187 -0.0198
   16CHTO   O35 6625   7.547   2.695   1.933 -0.0750 -0.0142  0.4683
   16CHTO   H71 6626   7.579   2.651   2.010  0.5133 -0.3898  0.0137
   16CHTO   O28 6627   7.367   2.586   2.366  0.0090  0.4365 -0.6187
   16CHTO   C42 6628   7.346   2.447   2.353 -0.3376 -1.1836  0.3591
   16CHTO   H84 6629   7.441   2.413   2.394 -0.8414 -0.4448  2.1714
   16CHTO   C44 6630   7.332   2.396   2.210  0.1968  0.5883  0.0117
   16CHTO   H86 6631   7.251   2.448   2.158 -0.1635  0.3986  0.3756
   16CHTO   O32 6632   7.449   2.440   2.143  0.1611  0.5056 -0.4098
   16CHTO   H69 6633   7.528   2.407   2.182  0.5118  0.0199 -1.5145
   16CHTO   C48 6634   7.315   2.240   2.195  0.5647  0.2873 -0.6231
   16CHTO   H90 6635   7.406   2.202   2.241  1.0875  0.1484 -1.7727
   16CHTO    N9 6636   7.297   2.192   2.049  0.2392 -0.3520  0.2852
   16CHTO   H77 6637   7.395   2.164   2.013  0.3577 -0.3360  0.5993
   16CHTO   H78 6638   7.230   2.108   2.047 -1.3776  0.9310 -0.7081
   16CHTO   C51 6639   7.204   2.193   2.299  0.4739 -1.0379  0.9043
   16CHTO   H93 6640   7.107   2.234   2.268  1.2938 -0.2641 -0.6666
   16CHTO   O30 6641   7.239   2.238   2.427 -0.0136  0.2801  0.5444
   16CHTO   C46 6642   7.225   2.384   2.443 -0.1740  0.3801 -0.0239
   16CHTO   H88 6643   7.127   2.407   2.402  0.4938 -0.1355 -1.9879
   16CHTO   C53 6644   7.235   2.414   2.591 -0.7200 -0.0629  0.4336
   16CHTO   O72 6645   7.349   2.358   2.657 -0.2949 -0.1497  0.8313
   16CHTO  H199 6646   7.416   2.423   2.665 -0.3319  0.0662 -0.5756
   16CHTO   O22 6647   7.198   2.047   2.311  0.3210  0.4708  0.1260
   16CHTO   C31 6648   7.077   1.970   2.348 -0.2734 -0.0486 -0.2413
   16CHTO   H59 6649   7.108   1.864   2.333  1.2060  0.4208 -0.5892
   16CHTO   C29 6650   7.036   1.989   2.497  0.4108 -0.5168  0.4628
   16CHTO   H57 6651   7.002   2.093   2.506 -1.5559 -0.7661 -3.1713
   16CHTO   O21 6652   7.145   1.962   2.584 -1.0789 -0.0036  0.4780
   16CHTO   H37 6653   7.210   2.029   2.586 -1.0030 -0.1159  1.8744
   16CHTO   C27 6654   6.912   1.893   2.527  0.5080  0.8471 -0.2214
   16CHTO   H55 6655   6.948   1.789   2.522 -4.1729 -0.8229 -2.0450
   16CHTO    N5 6656   6.859   1.924   2.668 -0.1001 -0.7204  0.6618
   16CHTO   H43 6657   6.901   1.846   2.730  1.2926 -0.3878  0.1546
   16CHTO   H44 6658   6.900   2.020   2.695 -2.4599  1.2478 -2.4542
   16CHTO   C25 6659   6.798   1.906   2.423 -0.2808  0.0194  0.0485
   16CHTO   H53 6660   6.744   2.002   2.427 -0.0146  0.1496  0.6033
   16CHTO   O17 6661   6.858   1.894   2.291 -0.1158 -0.1600  0.0723
   16CHTO   C32 6662   6.959   1.990   2.257  0.5219  0.2796 -0.3783
   16CHTO   H60 6663   6.931   2.095   2.270  0.7891  0.2918  0.1329
   16CHTO   C36 6664   6.993   1.958   2.106  0.2235  0.0671 -0.3584
   16CHTO   O25 6665   6.885   1.993   2.022  0.2266 -0.1603 -0.5733
   16CHTO   H40 6666   6.916   2.028   1.941  1.1325 -3.5770 -1.7911
   16CHTO   O15 6667   6.696   1.788   2.444  0.0526 -0.5655  0.6355
   16CHTO   C19 6668   6.569   1.740   2.480  0.3969 -0.2297  0.0038
   16CHTO   H47 6669   6.565   1.760   2.588 -2.7012  1.0808 -0.3114
   16CHTO   C20 6670   6.443   1.814   2.406  0.1992  0.5198 -0.4101
   16CHTO   H48 6671   6.446   1.800   2.297 -1.0087  0.4159 -0.4350
   16CHTO   O19 6672   6.456   1.956   2.439 -0.2772 -0.1658  0.5192
   16CHTO   H35 6673   6.418   2.011   2.373 -1.1372 -0.8361  0.4462
   16CHTO   C21 6674   6.305   1.747   2.463 -0.0751 -0.5559  0.4260
   16CHTO   H49 6675   6.297   1.762   2.571 -2.7727  2.6549 -0.1474
   16CHTO    N4 6676   6.187   1.813   2.407  0.3335 -0.4235  0.6747
   16CHTO   H41 6677   6.202   1.916   2.378 -0.8523 -0.0994  1.1875
   16CHTO   H42 6678   6.135   1.759   2.329 -1.2937 -0.9976  2.1139
   16CHTO   C22 6679   6.314   1.596   2.453  0.2481 -0.4448 -0.5909
   16CHTO   H50 6680   6.307   1.569   2.347 -0.8611 -2.0474 -0.1240
   16CHTO   O14 6681   6.436   1.541   2.510 -0.3221 -0.6605  0.1911
   16CHTO   C23 6682   6.563   1.588   2.461  0.1621 -0.4756  0.3529
   16CHTO   H51 6683   6.574   1.558   2.356  3.3278  1.5053  0.0404
   16CHTO   C34 6684   6.668   1.512   2.547 -0.3809  0.0463  0.3175
   16CHTO   O23 6685   6.698   1.384   2.480  0.2833  0.1005 -0.0883
   16CHTO   H38 6686   6.772   1.339   2.514 -0.0394 -0.2685  0.1295
   16CHTO   O16 6687   6.208   1.534   2.520 -0.3806 -1.0692 -0.0145
   16CHTO   C24 6688   6.128   1.417   2.439 -0.4547  0.1494  0.1468
   16CHTO   H52 6689   6.170   1.396   2.341 -3.6696  0.1441 -1.3128
   16CHTO   C26 6690   5.980   1.467   2.416 -0.5322 -0.5339 -0.5074
   16CHTO   H54 6691   5.946   1.502   2.516  1.0132 -0.1643 -0.1026
   16CHTO   O20 6692   5.990   1.578   2.319 -0.2273  0.0696 -0.4744
   16CHTO   H36 6693   6.007   1.542   2.235 -0.9024 -0.3407 -0.4400
   16CHTO   C30 6694   5.881   1.361   2.369  0.5792 -0.0976 -0.3814
   16CHTO   H58 6695   5.912   1.327   2.270  0.3451 -1.8154  0.1166
   16CHTO    N6 6696   5.748   1.413   2.345 -0.0028 -0.2746  0.3233
   16CHTO   H45 6697   5.674   1.341   2.314 -0.7234  1.4608 -2.2399
   16CHTO   H46 6698   5.741   1.505   2.288  0.1581  0.0338  0.8008
   16CHTO   C33 6699   5.889   1.239   2.461  0.3047 -0.2384  0.3688
   16CHTO   H61 6700   5.862   1.263   2.565  0.9572 -0.0948  0.5104
   16CHTO   O18 6701   6.023   1.201   2.460 -0.3347  0.8836 -0.3367
   16CHTO   C28 6702   6.126   1.282   2.522 -0.0336 -0.2709  0.5473
   16CHTO   H56 6703   6.104   1.298   2.628 -1.1674 -0.6031  0.3748
   16CHTO   C35 6704   6.265   1.210   2.513  0.4549  0.2213  0.5550
   16CHTO   O24 6705   6.372   1.280   2.569 -0.3789  0.0013 -0.2130
   16CHTO   H39 6706   6.390   1.361   2.526 -1.9137  0.9209  0.8394
   16CHTO    O9 6707   5.806   1.127   2.425  0.4249  0.0430  0.2000
   16CHTO   C13 6708   5.793   1.022   2.548 -0.0831  0.2222 -0.3781
   16CHTO   H26 6709   5.859   1.051   2.632 -3.0629 -1.3518  2.6277
   16CHTO   C11 6710   5.816   0.877   2.507 -0.0064  0.8719 -0.1032
   16CHTO   H24 6711   5.920   0.870   2.472 -0.2184 -0.7011 -0.4883
   16CHTO    O8 6712   5.739   0.843   2.394 -0.0727 -0.3072  0.3794
   16CHTO    H3 6713   5.649   0.858   2.416  0.0129  0.1820  0.3909
   16CHTO    C9 6714   5.794   0.782   2.631 -0.6766  0.6968 -0.6508
   16CHTO   H22 6715   5.871   0.814   2.703  0.2329 -2.0160 -0.3503
   16CHTO    N2 6716   5.828   0.640   2.599  0.6381 -0.8275  0.1478
   16CHTO   H10 6717   5.872   0.592   2.685 -0.7060 -1.0745  0.7044
   16CHTO   H11 6718   5.737   0.593   2.565  1.6283 -3.6990  1.3478
   16CHTO    C7 6719   5.651   0.810   2.698 -0.2930 -0.3058  0.5801
   16CHTO   H20 6720   5.688   0.856   2.792 -2.0019  1.1294  0.5803
   16CHTO    O4 6721   5.576   0.910   2.620 -0.4414 -0.3877 -0.1437
   16CHTO   C14 6722   5.646   1.032   2.616  0.5295  0.2736 -0.2837
   16CHTO   H27 6723   5.658   1.080   2.715  1.3990  0.1528 -0.3281
   16CHTO   C18 6724   5.559   1.119   2.536 -0.4435  0.3904 -0.2717
   16CHTO   O13 6725   5.447   1.155   2.619 -0.2189 -0.5464 -0.3872
   16CHTO    H7 6726   5.376   1.102   2.588 -1.1198 -0.1652  1.0059
   16CHTO    O2 6727   5.560   0.684   2.719 -0.6750 -0.3024 -0.1516
   16CHTO    C1 6728   5.460   0.696   2.828  0.1825 -0.1914 -0.1431
   16CHTO   H14 6729   5.414   0.596   2.830 -1.3331  0.4835 -0.8399
   16CHTO    C2 6730   5.342   0.813   2.826 -0.5919 -0.3106 -0.1751
   16CHTO   H15 6731   5.385   0.912   2.807 -0.0099 -0.2806  1.2004
   16CHTO    O6 6732   5.261   0.778   2.716 -0.9934 -0.2422  0.3194
   16CHTO    H1 6733   5.292   0.829   2.644  0.4611  0.3868  1.3702
   16CHTO    C3 6734   5.260   0.812   2.962  1.0075 -0.5182  0.0201
   16CHTO   H16 6735   5.182   0.735   2.950 -0.4847  0.7095  1.5741
   16CHTO    N1 6736   5.176   0.940   2.988 -0.1370 -0.3873  0.3294
   16CHTO    H8 6737   5.097   0.920   3.058 -0.3151  2.2874  0.9618
   16CHTO    H9 6738   5.138   0.975   2.893  0.7352 -0.7265 -0.1563
   16CHTO    C4 6739   5.338   0.780   3.090 -0.2994  0.4015  0.0191
   16CHTO   H17 6740   5.384   0.870   3.130  0.7261  0.2497 -0.8014
   16CHTO    O1 6741   5.442   0.685   3.066  0.0312 -0.3478  0.1209
   16CHTO    C5 6742   5.535   0.716   2.967  0.1510  0.6409 -0.5128
   16CHTO   H18 6743   5.570   0.819   2.974 -2.4871  1.4569  1.2751
   16CHTO   C16 6744   5.647   0.612   2.994  0.2331 -0.1160 -0.5074
   16CHTO   O11 6745   5.775   0.664   2.941 -0.2090  0.2866 -0.1899
   16CHTO    H5 6746   5.844   0.613   2.980  1.1767  0.9010 -1.7978
   16CHTO    O3 6747   5.255   0.721   3.191 -0.1180  0.9466 -0.2190
   16CHTO    C6 6748   5.295   0.739   3.333  0.2329  0.2224  0.0938
   16CHTO   H19 6749   5.404   0.750   3.335  0.3095 -0.6486  1.7489
   16CHTO    C8 6750   5.222   0.866   3.389 -0.2494 -0.3367  0.1939
   16CHTO   H21 6751   5.120   0.863   3.351 -1.0479  1.1645  2.1026
   16CHTO    O7 6752   5.292   0.989   3.342  0.2625 -0.1119 -0.0323
   16CHTO    H2 6753   5.223   1.045   3.311 -0.4702  0.2089  2.0727
   16CHTO   C12 6754   5.209   0.873   3.542  0.9814 -0.1305  0.0492
   16CHTO   H25 6755   5.308   0.892   3.588  0.5047  2.3889  0.0989
   16CHTO    N3 6756   5.116   0.984   3.585  0.5149  0.6024  0.0229
   16CHTO   H12 6757   5.169   1.078   3.591 -0.0752  0.8664  1.2265
   16CHTO   H13 6758   5.043   1.004   3.508 -0.1761 -0.0429  0.5099
   16CHTO   C15 6759   5.166   0.729   3.593 -0.5375  0.3137  0.1495
   16CHTO   H28 6760   5.071   0.694   3.552  0.1830  0.0900 -1.3746
   16CHTO   O10 6761   5.173   0.713   3.751 -0.4355 -0.6165 -0.0085
   16CHTO    H4 6762   5.150   0.792   3.796 -1.7580 -0.7789 -0.3622
   16CHTO    O5 6763   5.264   0.636   3.556  0.2850  0.2375 -0.0532
   16CHTO   C10 6764   5.271   0.607   3.416 -0.0448  0.1649  0.9623
   16CHTO   H23 6765   5.177   0.567   3.377 -0.1298 -0.7415  2.0840
   16CHTO   C17 6766   5.383   0.505   3.391  0.0586  0.8166  0.1892
   16CHTO   O12 6767   5.507   0.542   3.458  0.5581  0.3892 -0.3185
   16CHTO    H6 6768   5.533   0.627   3.429 -2.3688  1.6488  0.5913
   17CHTO  H203 6769   5.614   3.832   0.547  0.6073  0.1343 -0.9296
   17CHTO   O82 6770   5.689   3.818   0.602 -0.4210 -0.2646  0.3841
   17CHTO  C123 6771   5.721   3.946   0.658  0.0548 -0.2783  0.3107
   17CHTO  H227 6772   5.807   3.933   0.725  0.8197  0.2425 -0.5606
   17CHTO   O77 6773   5.750   4.028   0.543  0.2160 -0.3545 -0.4455
   17CHTO  C118 6774   5.804   4.157   0.577 -0.7021 -0.0553  1.2474
   17CHTO  H222 6775   5.895   4.155   0.639 -0.1832  1.2310  0.5505
   17CHTO  C125 6776   5.844   4.218   0.438  0.0740  0.0054 -0.0334
   17CHTO   O84 6777   5.738   4.218   0.340  0.3009  0.0413 -0.0481
   17CHTO  H205 6778   5.736   4.142   0.286 -0.6115  0.8335 -1.1538
   17CHTO  C114 6779   5.690   4.240   0.638  0.0186  0.1703 -1.0898
   17CHTO  H218 6780   5.616   4.259   0.560 -0.1107 -0.5270 -1.1426
   17CHTO  C116 6781   5.638   4.165   0.773  0.1175 -0.1344 -0.8470
   17CHTO  H220 6782   5.718   4.161   0.850  0.4021  0.9349 -1.0721
   17CHTO   O79 6783   5.531   4.240   0.838  0.5791 -0.3565 -0.2735
   17CHTO  H201 6784   5.454   4.253   0.786 -0.9662 -3.5121  1.0486
   17CHTO  C120 6785   5.598   4.021   0.728  0.5816 -0.2506  0.4262
   17CHTO  H224 6786   5.514   4.023   0.655  0.4865  0.7300  0.5617
   17CHTO   N21 6787   5.545   3.949   0.850 -0.0978  0.0769  0.4413
   17CHTO  H211 6788   5.526   3.844   0.832 -1.0763  0.1775  0.8331
   17CHTO  H212 6789   5.601   3.960   0.942  0.2818 -1.4626  0.3997
   17CHTO   O75 6790   5.741   4.363   0.684 -0.3612  0.0757  0.0011
   17CHTO  C112 6791   5.740   4.493   0.582 -0.6956  0.4953 -0.0960
   17CHTO  H216 6792   5.694   4.456   0.489  1.3840  1.3606 -1.5080
   17CHTO   O73 6793   5.882   4.519   0.559  0.5461 -0.4150 -0.7555
   17CHTO  C113 6794   5.915   4.630   0.486 -0.7793 -0.0403 -0.5798
   17CHTO  H217 6795   5.872   4.611   0.386 -0.4046 -2.8410 -0.2427
   17CHTO  C124 6796   6.070   4.621   0.476 -0.2058  0.3607  0.3232
   17CHTO   O83 6797   6.120   4.497   0.425  0.1638  0.1382  0.1436
   17CHTO  H204 6798   6.048   4.438   0.426  2.0542 -2.2567  1.5389
   17CHTO  C109 6799   5.862   4.763   0.542 -0.5197  0.3497 -0.8854
   17CHTO  H213 6800   5.911   4.775   0.640 -0.3931  0.6783 -0.9889
   17CHTO  C110 6801   5.707   4.753   0.556 -0.3337  0.6367 -0.9085
   17CHTO  H214 6802   5.670   4.748   0.454 -0.9844  2.6154 -0.7848
   17CHTO   O78 6803   5.664   4.873   0.626 -0.0429  0.5762  0.2669
   17CHTO  H200 6804   5.571   4.876   0.620  0.0086 -0.2856 -1.1958
   17CHTO  C111 6805   5.674   4.626   0.642  0.7274  0.5901 -0.2799
   17CHTO  H215 6806   5.715   4.640   0.743 -0.5050  1.3928  0.1338
   17CHTO   N19 6807   5.529   4.617   0.667  0.5240 -0.3615  0.3329
   17CHTO  H207 6808   5.467   4.676   0.602 -1.0613 -3.2985 -0.9021
   17CHTO  H208 6809   5.493   4.518   0.642  2.6589 -1.2551  0.6116
   17CHTO   O74 6810   5.901   4.873   0.456 -0.0858  0.2609  0.5250
   17CHTO  C115 6811   5.938   5.008   0.536  0.2730  0.3494  0.2062
   17CHTO  H219 6812   5.876   5.019   0.625 -0.8462 -0.1287 -0.5039
   17CHTO   O76 6813   6.089   5.002   0.590  0.2924 -0.1082 -0.0275
   17CHTO  C122 6814   6.175   5.054   0.492  0.0681  0.4156 -0.1456
   17CHTO  H226 6815   6.156   4.993   0.404 -0.5836  0.8798 -0.3280
   17CHTO  C126 6816   6.328   5.030   0.538 -0.4749  0.6608  0.1500
   17CHTO   O85 6817   6.354   4.903   0.588 -0.1101 -0.4004 -0.0860
   17CHTO  H206 6818   6.441   4.870   0.598 -1.3329 -3.3960  1.3302
   17CHTO  C121 6819   6.140   5.205   0.465 -0.2539  0.0201  0.5453
   17CHTO  H225 6820   6.200   5.260   0.539 -1.4075  0.7750  0.9323
   17CHTO   O81 6821   6.183   5.231   0.333 -0.3013  0.1120 -0.7154
   17CHTO  H202 6822   6.139   5.183   0.266  0.0519  0.1572 -0.9783
   17CHTO  C119 6823   5.997   5.244   0.481  0.9143 -0.0757 -0.2976
   17CHTO  H223 6824   5.982   5.242   0.589  0.0036 -2.2534 -0.4269
   17CHTO  C117 6825   5.901   5.127   0.440  0.8067 -0.3924  0.3336
   17CHTO  H221 6826   5.915   5.080   0.343  0.0386  0.5939 -0.2645
   17CHTO   N20 6827   5.761   5.176   0.447 -0.6017  0.8832 -0.1073
   17CHTO  H209 6828   5.734   5.188   0.550 -4.9956 -2.1703 -0.7232
   17CHTO  H210 6829   5.698   5.092   0.420 -0.7783 -0.1613  3.4016
   17CHTO   O80 6830   5.957   5.402   0.434  0.5627 -0.6274  0.4295
   17CHTO  C103 6831   6.032   5.515   0.485 -0.5194  0.8978  0.0309
   17CHTO  H190 6832   6.122   5.486   0.540 -0.2831  2.2162  0.3389
   17CHTO  C101 6833   6.081   5.618   0.375 -0.1923  0.1037 -1.1791
   17CHTO  H188 6834   5.987   5.648   0.327  0.2691 -3.3138 -4.5101
   17CHTO   O68 6835   6.174   5.544   0.266  0.2946 -0.1221  0.8268
   17CHTO  H168 6836   6.175   5.593   0.186 -1.1872 -0.1430  0.7702
   17CHTO   C99 6837   6.146   5.754   0.442  0.6918  0.4069  0.2607
   17CHTO  H186 6838   6.241   5.713   0.481  0.3079 -0.7170  0.0435
   17CHTO   N17 6839   6.182   5.852   0.339  0.0855 -0.1500  0.4518
   17CHTO  H174 6840   6.263   5.913   0.374  0.0051 -0.9147  1.9864
   17CHTO  H175 6841   6.212   5.799   0.250 -2.1833 -2.3690  0.9347
   17CHTO   C97 6842   6.070   5.811   0.564 -0.2251  0.4100  0.1532
   17CHTO  H184 6843   5.996   5.883   0.526  0.0356  0.3847 -0.4177
   17CHTO   O64 6844   6.010   5.703   0.641  0.3047 -0.0292 -0.5664
   17CHTO  C104 6845   5.939   5.585   0.592 -0.4654  0.2379  0.3154
   17CHTO  H191 6846   5.844   5.614   0.545  0.6085  4.2302  0.3916
   17CHTO  C108 6847   5.904   5.492   0.704  0.3618 -0.0167 -0.8919
   17CHTO   O71 6848   5.825   5.559   0.803  0.2641  0.4160 -0.0092
   17CHTO  H171 6849   5.864   5.556   0.888 -0.0082  1.9749  0.1870
   17CHTO   O62 6850   6.164   5.865   0.655 -0.4557 -0.0988  0.5393
   17CHTO   C91 6851   6.121   5.966   0.747 -0.3157 -0.3496 -0.2904
   17CHTO  H178 6852   6.013   5.961   0.755 -0.3111 -0.0666 -0.0560
   17CHTO   C92 6853   6.145   6.114   0.696 -0.3285  0.2422  0.4447
   17CHTO  H179 6854   6.134   6.123   0.587  1.1725  2.0501  0.4049
   17CHTO   O66 6855   6.048   6.209   0.746 -0.5228 -0.2119 -0.2535
   17CHTO  H166 6856   6.051   6.221   0.839  2.2718 -0.8219 -0.2363
   17CHTO   C93 6857   6.291   6.160   0.729 -0.5954 -0.0476  0.2597
   17CHTO  H180 6858   6.298   6.270   0.728  0.6260 -0.1131 -1.2329
   17CHTO   N16 6859   6.391   6.120   0.622 -0.5324  0.4599  0.0197
   17CHTO  H172 6860   6.333   6.071   0.545  0.8786 -0.8582 -0.2144
   17CHTO  H173 6861   6.445   6.199   0.572 -0.2030  0.8223  0.9346
   17CHTO   C94 6862   6.346   6.107   0.861 -0.2641 -0.2804 -0.8153
   17CHTO  H181 6863   6.400   6.013   0.850  1.8497  0.7497  0.3708
   17CHTO   O61 6864   6.235   6.070   0.948  0.5384 -0.3483  0.1736
   17CHTO   C95 6865   6.173   5.952   0.901  0.2647 -0.3701 -0.5177
   17CHTO  H182 6866   6.249   5.874   0.906  0.0913 -0.6645 -2.2960
   17CHTO  C106 6867   6.053   5.912   0.996 -0.1733  0.4848  0.1371
   17CHTO   O69 6868   5.972   5.796   0.956  0.1473 -0.0368 -0.2638
   17CHTO  H169 6869   6.023   5.718   0.958  3.2649  1.9228  0.8160
   17CHTO   O63 6870   6.439   6.245   0.921  0.1581 -0.8829 -0.1063
   17CHTO   C96 6871   6.378   6.311   1.039 -0.2264  0.6227 -0.0766
   17CHTO  H183 6872   6.279   6.271   1.063 -0.1622  0.5572  0.0773
   17CHTO   C98 6873   6.350   6.460   1.009 -0.6529 -0.2347 -1.0206
   17CHTO  H185 6874   6.437   6.503   0.958 -0.9087  1.3438 -0.1555
   17CHTO   O67 6875   6.240   6.471   0.918  0.3084  0.2029 -0.1134
   17CHTO  H167 6876   6.169   6.427   0.961 -1.5242  0.1436 -3.0582
   17CHTO  C102 6877   6.313   6.549   1.148  0.1245  0.0186 -0.0905
   17CHTO  H189 6878   6.210   6.518   1.172  0.5211 -1.7084 -0.5068
   17CHTO   N18 6879   6.306   6.695   1.124  0.3156 -0.1351 -0.0150
   17CHTO  H176 6880   6.307   6.750   1.217 -2.3414  0.4365 -0.2876
   17CHTO  H177 6881   6.212   6.727   1.081  1.2494  1.8446 -0.6713
   17CHTO  C105 6882   6.404   6.504   1.263 -0.1914 -0.2178 -0.0557
   17CHTO  H192 6883   6.504   6.543   1.245 -0.4752 -1.2346 -4.1806
   17CHTO   O65 6884   6.419   6.364   1.278  0.0314 -0.2326  0.0460
   17CHTO  C100 6885   6.467   6.283   1.174 -0.1095 -0.4144  0.2483
   17CHTO  H187 6886   6.571   6.314   1.156  0.4356 -1.3376  1.6924
   17CHTO  C107 6887   6.474   6.142   1.229 -0.1379 -0.0279 -0.0345
   17CHTO   O70 6888   6.536   6.043   1.147 -1.1098 -0.0960 -0.0369
   17CHTO  H170 6889   6.569   6.080   1.067 -2.2167  1.1944  0.0908
   17CHTO   O57 6890   6.327   6.577   1.401  1.1420 -0.0176 -0.5359
   17CHTO   C85 6891   6.407   6.591   1.518 -0.3647 -0.1853 -0.1852
   17CHTO  H157 6892   6.510   6.604   1.479 -0.5971 -0.2663 -0.8150
   17CHTO   C83 6893   6.415   6.473   1.616 -0.0555  0.4439 -0.0918
   17CHTO  H155 6894   6.454   6.384   1.567 -2.4056 -0.1139 -1.0521
   17CHTO   O56 6895   6.288   6.427   1.655  0.0398 -0.1710  0.0096
   17CHTO  H135 6896   6.289   6.359   1.720 -1.4316 -0.3033 -0.0912
   17CHTO   C81 6897   6.505   6.507   1.734 -0.2957 -0.2364  0.0740
   17CHTO  H153 6898   6.608   6.509   1.699 -0.3090 -2.8671 -0.1825
   17CHTO   N14 6899   6.518   6.387   1.828 -0.0137 -0.3548 -0.1013
   17CHTO  H141 6900   6.559   6.424   1.919 -0.5509  0.4000 -0.1666
   17CHTO  H142 6901   6.426   6.337   1.850  0.0503  0.4218  1.9829
   17CHTO   C79 6902   6.461   6.644   1.808 -0.3225 -0.1738 -0.4748
   17CHTO  H151 6903   6.535   6.670   1.884 -0.8123  4.1402 -1.3570
   17CHTO   O52 6904   6.454   6.755   1.713  0.0926 -0.2982 -0.2117
   17CHTO   C86 6905   6.364   6.719   1.605  0.1723  0.1177  0.3530
   17CHTO  H158 6906   6.261   6.706   1.643 -0.1789 -1.8688 -1.2119
   17CHTO   C90 6907   6.356   6.844   1.512  0.3325  0.1328 -0.1481
   17CHTO   O60 6908   6.322   6.966   1.584 -0.2579  0.2988 -0.3306
   17CHTO  H138 6909   6.338   7.049   1.544  1.2320  0.5815  0.8381
   17CHTO   O50 6910   6.340   6.630   1.891  0.7283 -0.0007  0.0810
   17CHTO   C73 6911   6.271   6.685   2.002 -0.4204  0.5911 -0.2317
   17CHTO  H145 6912   6.274   6.793   1.983 -0.2981  0.4870 -0.8179
   17CHTO   C74 6913   6.332   6.639   2.138  0.4108 -0.1156 -0.3074
   17CHTO  H146 6914   6.438   6.668   2.148  0.4616 -0.6714  0.8221
   17CHTO   O54 6915   6.268   6.709   2.244  0.0782 -0.4867 -0.1863
   17CHTO  H133 6916   6.287   6.667   2.326  0.5366  2.1782  1.1182
   17CHTO   C75 6917   6.309   6.483   2.155  0.3969  0.6057  0.4885
   17CHTO  H147 6918   6.366   6.439   2.072  1.0308  5.2031 -1.6157
   17CHTO   N13 6919   6.372   6.437   2.281  0.1291 -0.1112 -0.3804
   17CHTO  H139 6920   6.323   6.462   2.374  2.0931  2.2249  0.0789
   17CHTO  H140 6921   6.359   6.331   2.264  0.2215  0.1276 -2.0220
   17CHTO   C76 6922   6.155   6.440   2.135 -0.3341  1.1429 -0.2141
   17CHTO  H148 6923   6.101   6.471   2.225 -1.3101 -0.7460 -0.1318
   17CHTO   O49 6924   6.107   6.502   2.009 -0.1858  0.3418 -0.3011
   17CHTO   C77 6925   6.118   6.642   2.003  0.3684  0.1100  0.3461
   17CHTO  H149 6926   6.071   6.691   2.087 -0.6818 -0.6684  0.2209
   17CHTO   C88 6927   6.040   6.684   1.882 -0.4197 -0.4622  1.0388
   17CHTO   O58 6928   6.043   6.846   1.857  0.1141 -0.6740  0.4120
   17CHTO  H136 6929   6.060   6.869   1.768 -2.1864 -0.8009 -0.0785
   17CHTO   O51 6930   6.166   6.272   2.117 -0.7649 -0.5864 -0.4055
   17CHTO   C78 6931   6.029   6.202   2.043  0.3979  0.6840 -0.0322
   17CHTO  H150 6932   5.975   6.282   1.989 -0.0201 -0.1158 -0.8149
   17CHTO   C80 6933   5.933   6.128   2.144 -0.2913 -0.2130 -0.4744
   17CHTO  H152 6934   5.986   6.037   2.181 -1.2813 -1.0267 -1.0396
   17CHTO   O55 6935   5.896   6.219   2.253  0.0753 -0.4136  0.2720
   17CHTO  H134 6936   5.965   6.208   2.316  0.5163 -2.0125 -0.4638
   17CHTO   C84 6937   5.806   6.081   2.064  0.1654  1.4263  0.1309
   17CHTO  H156 6938   5.766   6.171   2.017 -0.3490  0.5323 -1.1816
   17CHTO   N15 6939   5.705   6.023   2.153  0.1031 -0.2538 -0.0940
   17CHTO  H143 6940   5.627   6.094   2.172  0.2866  0.1387 -0.8294
   17CHTO  H144 6941   5.658   5.934   2.115 -4.0202  0.7819  2.2705
   17CHTO   C87 6942   5.849   5.989   1.949 -0.6130  0.2089  0.7279
   17CHTO  H159 6943   5.875   5.891   1.988 -0.0547 -0.4208 -1.1982
   17CHTO   O53 6944   5.959   6.049   1.864  0.0466 -0.3322  0.3040
   17CHTO   C82 6945   6.075   6.098   1.939 -0.5869 -0.4343 -0.4724
   17CHTO  H154 6946   6.138   6.015   1.973  0.3396  0.9962  1.4302
   17CHTO   C89 6947   6.165   6.181   1.836 -0.4322  0.0638 -0.4029
   17CHTO   O59 6948   6.190   6.115   1.710  0.1870 -0.2019 -0.5290
   17CHTO  H137 6949   6.119   6.065   1.675  0.5383 -0.6428 -0.6250
   17CHTO   O45 6950   5.715   5.973   1.837  0.4408 -0.2797 -0.0296
   17CHTO   C67 6951   5.725   5.852   1.767 -0.1283 -0.0364 -0.6467
   17CHTO  H124 6952   5.827   5.812   1.766 -0.2678 -0.4255 -3.0924
   17CHTO   C65 6953   5.640   5.749   1.840 -0.3720 -0.1161 -0.4092
   17CHTO  H122 6954   5.661   5.780   1.942  2.2221  1.0246 -1.2618
   17CHTO   O44 6955   5.680   5.614   1.817 -0.2549 -0.0902  0.3919
   17CHTO  H102 6956   5.716   5.583   1.898 -0.8688 -0.9636  0.3330
   17CHTO   C63 6957   5.485   5.776   1.818  0.4344  0.2085 -0.1230
   17CHTO  H120 6958   5.465   5.880   1.840 -0.3311  0.3314 -1.3274
   17CHTO   N11 6959   5.381   5.708   1.903 -0.4521 -0.5461  0.4467
   17CHTO  H108 6960   5.289   5.761   1.892  0.2618  0.6554  0.1659
   17CHTO  H109 6961   5.404   5.681   2.004 -1.7396 -3.0431  0.1140
   17CHTO   C61 6962   5.461   5.762   1.662 -0.0726  0.0963  0.5748
   17CHTO  H118 6963   5.361   5.802   1.642 -0.2311  0.1429  1.4129
   17CHTO   O40 6964   5.548   5.851   1.592  0.1636 -0.2131  0.3092
   17CHTO   C68 6965   5.689   5.862   1.617  0.0430 -0.2745 -0.5920
   17CHTO  H125 6966   5.717   5.962   1.579 -1.0721 -0.3876 -1.7370
   17CHTO   C72 6967   5.769   5.756   1.528  0.1838  0.2910 -0.1737
   17CHTO   O48 6968   5.772   5.799   1.396  0.0202 -0.3304  0.1363
   17CHTO  H105 6969   5.750   5.720   1.351 -0.1939 -1.9174  2.9166
   17CHTO   O38 6970   5.477   5.621   1.618 -0.0503 -0.2707 -0.5231
   17CHTO   C55 6971   5.389   5.551   1.529 -0.6474 -0.2181 -0.0695
   17CHTO  H112 6972   5.438   5.456   1.506 -1.8461 -1.0729  0.8243
   17CHTO   C56 6973   5.350   5.643   1.400 -0.2275  0.3368  0.5821
   17CHTO  H113 6974   5.304   5.735   1.438  0.3662  0.1423  1.8020
   17CHTO   O42 6975   5.469   5.675   1.329 -0.0003 -0.5174  0.3844
   17CHTO  H100 6976   5.508   5.591   1.316  0.1028 -0.3900 -0.1310
   17CHTO   C57 6977   5.243   5.567   1.302  0.0349 -0.9810 -0.2977
   17CHTO  H114 6978   5.291   5.478   1.260 -0.1568 -1.2074 -0.0420
   17CHTO   N10 6979   5.204   5.643   1.180  0.5094  0.2359  0.4989
   17CHTO  H106 6980   5.281   5.716   1.162 -1.0281  1.5340 -1.0381
   17CHTO  H107 6981   5.110   5.693   1.200 -0.0962  0.1899 -2.1126
   17CHTO   C58 6982   5.123   5.527   1.390 -0.9911  0.3587 -0.1181
   17CHTO  H115 6983   5.079   5.619   1.434  0.6276  0.8684  0.4853
   17CHTO   O37 6984   5.175   5.440   1.492  0.4015 -0.1425 -0.1422
   17CHTO   C59 6985   5.247   5.516   1.592 -0.8271 -0.2317 -0.0298
   17CHTO  H116 6986   5.198   5.611   1.614 -2.6524 -1.3031  0.6035
   17CHTO   C70 6987   5.276   5.436   1.720  0.5636 -0.3137 -0.2114
   17CHTO   O46 6988   5.163   5.380   1.785 -0.0071 -0.5027  0.1419
   17CHTO  H103 6989   5.082   5.400   1.742 -0.0892  0.4653  0.7248
   17CHTO   O39 6990   4.989   5.440   1.311  0.2453  0.1946  0.1250
   17CHTO   C60 6991   4.859   5.480   1.343 -0.7455  0.5396 -0.0428
   17CHTO  H117 6992   4.863   5.529   1.440  1.4002 -0.6822  0.5112
   17CHTO   C62 6993   4.804   5.580   1.242 -0.2561  0.0911 -0.6294
   17CHTO  H119 6994   4.885   5.657   1.246 -0.8738  0.8247 -2.1254
   17CHTO   O43 6995   4.790   5.513   1.118  0.0481 -0.1919 -0.1088
   17CHTO  H101 6996   4.840   5.437   1.096 -0.9715 -0.9722  0.2288
   17CHTO   C66 6997   4.669   5.651   1.300  0.0559  0.0090  0.6757
   17CHTO  H123 6998   4.689   5.685   1.401  1.3094  0.1806  0.3791
   17CHTO   N12 6999   4.632   5.766   1.212 -0.3368  0.2981  0.3909
   17CHTO  H110 7000   4.714   5.835   1.201  0.9559 -1.4107 -0.8921
   17CHTO  H111 7001   4.591   5.736   1.116  0.7225 -0.5183  0.1904
   17CHTO   C69 7002   4.556   5.543   1.314 -0.6715  0.0427 -0.0283
   17CHTO  H126 7003   4.518   5.500   1.219  0.8972  1.7878 -1.5073
   17CHTO   O41 7004   4.609   5.439   1.401 -0.4965  0.5261 -0.6367
   17CHTO   C64 7005   4.761   5.366   1.357  0.8981 -0.3765 -0.2373
   17CHTO  H121 7006   4.753   5.310   1.261 -2.9198 -0.4480  0.0404
   17CHTO   C71 7007   4.802   5.267   1.469  0.1897  0.1483 -0.7200
   17CHTO   O47 7008   4.814   5.328   1.596  0.3213  0.1411  0.2716
   17CHTO  H104 7009   4.906   5.330   1.615  0.1740 -1.1760  1.2000
   17CHTO   O34 7010   4.434   5.603   1.391  0.1936 -0.3414 -0.3195
   17CHTO   C49 7011   4.301   5.707   1.394  0.0196  0.3793 -0.2094
   17CHTO   H91 7012   4.351   5.804   1.396  1.6370 -0.3639 -2.5037
   17CHTO   C47 7013   4.223   5.671   1.517 -0.0902  0.0511 -0.2449
   17CHTO   H89 7014   4.135   5.740   1.520 -0.3849 -0.3691  0.8131
   17CHTO   O33 7015   4.298   5.686   1.639  0.4657 -0.0443 -0.4725
   17CHTO   H70 7016   4.329   5.772   1.660 -0.4937  0.3720 -0.7229
   17CHTO   C45 7017   4.158   5.524   1.503  0.7124 -0.6851 -0.4881
   17CHTO   H87 7018   4.223   5.445   1.545  1.5857 -0.7016 -1.8506
   17CHTO    N8 7019   4.024   5.512   1.577  0.2281  0.1654  0.0650
   17CHTO   H75 7020   4.048   5.516   1.682  0.4621 -0.1541  0.0263
   17CHTO   H76 7021   3.965   5.424   1.559 -0.6431  0.4518  1.4009
   17CHTO   C43 7022   4.147   5.483   1.347 -0.9134 -0.7213 -0.5769
   17CHTO   H85 7023   4.248   5.453   1.318 -1.1235 -0.0765 -1.9951
   17CHTO   O29 7024   4.105   5.598   1.273 -0.1504 -0.1222  0.2609
   17CHTO   C50 7025   4.210   5.697   1.265 -0.0827  0.2857 -0.3267
   17CHTO   H92 7026   4.269   5.664   1.178  1.9874  0.6154  0.9263
   17CHTO   C54 7027   4.149   5.835   1.229 -0.1266 -0.4028 -0.0660
   17CHTO   O36 7028   4.237   5.918   1.146  0.0837 -0.4557  0.3735
   17CHTO   H72 7029   4.267   5.869   1.072  1.3564  0.5575  0.2012
   17CHTO   O27 7030   4.074   5.363   1.319  0.0871  0.0475 -0.1520
   17CHTO   C37 7031   4.102   5.261   1.219 -0.1877 -0.4103  0.2896
   17CHTO   H79 7032   4.035   5.175   1.231  1.2421 -1.2753  2.4419
   17CHTO   C38 7033   4.077   5.320   1.080 -0.3128  0.3636  0.3142
   17CHTO   H80 7034   4.136   5.413   1.072  1.7061 -0.9431 -0.2522
   17CHTO   O31 7035   3.935   5.346   1.075  0.4609 -0.0988  0.1513
   17CHTO   H68 7036   3.885   5.269   1.053  0.8961  0.0522 -1.4488
   17CHTO   C39 7037   4.111   5.212   0.966 -0.6382  0.4788 -0.6840
   17CHTO   H81 7038   4.043   5.130   0.987  0.7834 -1.0547 -1.9631
   17CHTO    N7 7039   4.093   5.255   0.824  0.5576  0.0113 -0.2974
   17CHTO   H73 7040   4.139   5.350   0.803 -0.3361  0.8659  1.5083
   17CHTO   H74 7041   3.988   5.268   0.807  0.7409  0.9159 -0.7917
   17CHTO   C40 7042   4.262   5.152   0.996 -0.6075  0.3401  0.2858
   17CHTO   H82 7043   4.338   5.226   0.971 -0.4707  0.0380 -0.2144
   17CHTO   O26 7044   4.271   5.111   1.129  0.2781 -1.1553 -0.0239
   17CHTO   C41 7045   4.246   5.213   1.227  0.3805 -0.3827 -0.0419
   17CHTO   H83 7046   4.319   5.291   1.200  0.5219 -0.5534 -0.1632
   17CHTO   C52 7047   4.274   5.148   1.361  0.6018 -0.8622  0.6042
   17CHTO   O35 7048   4.411   5.064   1.367 -0.2191  0.2571  0.5351
   17CHTO   H71 7049   4.413   5.010   1.290  1.0172  1.5073 -0.3296
   17CHTO   O28 7050   4.291   5.035   0.927 -0.2832  0.0846  0.0684
   17CHTO   C42 7051   4.436   5.011   0.892  0.3098 -0.0645 -0.5708
   17CHTO   H84 7052   4.436   4.908   0.855 -0.6092 -0.3896  0.2919
   17CHTO   C44 7053   4.537   5.011   1.012  0.2070  0.3107  0.6476
   17CHTO   H86 7054   4.509   5.091   1.080 -2.7737 -0.5239  0.4770
   17CHTO   O32 7055   4.505   4.894   1.083  0.6172 -0.0590 -0.1242
   17CHTO   H69 7056   4.559   4.901   1.160 -0.2516  2.7481  0.3057
   17CHTO   C48 7057   4.687   5.015   0.970  0.2254 -0.0946 -0.3786
   17CHTO   H90 7058   4.708   4.919   0.922  2.0377  0.6370 -1.0934
   17CHTO    N9 7059   4.782   5.023   1.094  0.6935  0.9165  1.0994
   17CHTO   H77 7060   4.860   4.948   1.094 -0.4345 -0.2622  2.3464
   17CHTO   H78 7061   4.725   5.041   1.183 -1.8689  0.0689 -0.3388
   17CHTO   C51 7062   4.708   5.119   0.858 -0.1462  0.0103  0.5993
   17CHTO   H93 7063   4.671   5.213   0.898 -3.2121 -0.4776 -0.9176
   17CHTO   O30 7064   4.624   5.070   0.746  0.4472 -0.3349  0.1507
   17CHTO   C46 7065   4.491   5.103   0.776 -0.4271  0.1786 -1.0364
   17CHTO   H88 7066   4.485   5.207   0.809  1.6843  1.0753 -3.3093
   17CHTO   C53 7067   4.400   5.084   0.656  0.3744  0.0098 -0.3906
   17CHTO   O72 7068   4.448   5.140   0.531  0.1903 -0.1209 -0.0792
   17CHTO  H199 7069   4.371   5.135   0.479 -0.2741  1.4826  0.4358
   17CHTO   O22 7070   4.847   5.124   0.811 -0.0875 -0.1472 -0.7788
   17CHTO   C31 7071   4.898   5.251   0.764 -0.0206  0.2630  0.3975
   17CHTO   H59 7072   4.985   5.224   0.701  0.2693 -0.5118  1.1248
   17CHTO   C29 7073   4.801   5.333   0.672 -0.3675 -0.6743 -0.7533
   17CHTO   H57 7074   4.721   5.367   0.739  0.7237 -0.4860  0.4760
   17CHTO   O21 7075   4.741   5.248   0.577 -0.0339  0.4262  0.5090
   17CHTO   H37 7076   4.818   5.212   0.536  0.5696  0.9258  1.1754
   17CHTO   C27 7077   4.869   5.458   0.625 -0.1435  0.1499  0.5163
   17CHTO   H55 7078   4.956   5.434   0.562  1.8399  1.8694  2.5174
   17CHTO    N5 7079   4.779   5.544   0.545 -0.3630 -0.0840  0.1696
   17CHTO   H43 7080   4.752   5.490   0.456  0.2121  3.3669 -2.1880
   17CHTO   H44 7081   4.691   5.564   0.604 -0.7568  0.7258 -0.6820
   17CHTO   C25 7082   4.945   5.537   0.737 -0.2116  0.3432 -0.2100
   17CHTO   H53 7083   4.869   5.583   0.802  0.5332  1.5760 -0.1952
   17CHTO   O17 7084   5.038   5.444   0.811  0.3603  0.1976 -0.3572
   17CHTO   C32 7085   4.960   5.342   0.875 -0.1187 -1.0403  0.8583
   17CHTO   H60 7086   4.880   5.384   0.936 -0.5133 -1.5679  0.7129
   17CHTO   C36 7087   5.046   5.255   0.965  0.3344 -0.1346  0.7406
   17CHTO   O25 7088   5.124   5.337   1.055 -0.6243 -0.1193 -0.0357
   17CHTO   H40 7089   5.186   5.288   1.106 -1.2191  0.3625  1.1602
   17CHTO   O15 7090   5.033   5.651   0.686  0.1207 -0.0689  0.0273
   17CHTO   C19 7091   5.102   5.766   0.732 -0.1482  0.6817  0.1353
   17CHTO   H47 7092   5.148   5.814   0.645  0.0046 -2.6431 -1.7135
   17CHTO   C20 7093   5.003   5.854   0.813 -0.1427  0.0154 -0.6113
   17CHTO   H48 7094   4.962   5.802   0.900 -1.2497  0.0149 -1.1240
   17CHTO   O19 7095   4.893   5.902   0.733 -0.5490  0.2431 -0.3509
   17CHTO   H35 7096   4.833   5.941   0.793 -0.3506  0.9864 -0.6228
   17CHTO   C21 7097   5.085   5.990   0.856 -0.1764 -0.0405 -0.0001
   17CHTO   H49 7098   5.101   6.052   0.767 -0.6765  0.9991  0.6287
   17CHTO    N4 7099   5.007   6.075   0.947  0.0523 -0.0194  0.5783
   17CHTO   H41 7100   4.927   6.024   0.999 -0.6105 -3.1153 -3.2725
   17CHTO   H42 7101   4.966   6.164   0.903 -0.5409 -0.2133  0.7238
   17CHTO   C22 7102   5.215   5.956   0.924  0.4224 -0.4025 -0.2723
   17CHTO   H50 7103   5.196   5.915   1.024  0.4680  0.3775  0.0606
   17CHTO   O14 7104   5.286   5.861   0.849 -0.3218  0.2317  0.5200
   17CHTO   C23 7105   5.228   5.731   0.830 -0.2139  0.3521  0.0754
   17CHTO   H51 7106   5.194   5.691   0.927  1.2867  0.8800  0.8296
   17CHTO   C34 7107   5.337   5.637   0.782  0.0808  0.2949  0.1753
   17CHTO   O23 7108   5.294   5.504   0.789  0.1676  0.2604 -0.1332
   17CHTO   H38 7109   5.209   5.488   0.754  0.6980  0.3634 -1.5014
   17CHTO   O16 7110   5.304   6.074   0.922 -0.0960 -0.7178 -0.4379
   17CHTO   C24 7111   5.376   6.116   1.038  0.1991  0.0993  0.2661
   17CHTO   H52 7112   5.348   6.061   1.128  0.4307 -1.5164 -0.6319
   17CHTO   C26 7113   5.347   6.268   1.058 -0.0815 -0.7059  0.2665
   17CHTO   H54 7114   5.333   6.313   0.958  0.5827 -0.1728  0.4102
   17CHTO   O20 7115   5.216   6.292   1.121 -0.3488  0.7098  0.4588
   17CHTO   H36 7116   5.191   6.380   1.137 -0.5010  1.2521 -2.6282
   17CHTO   C30 7117   5.466   6.346   1.132 -0.0378 -0.4062 -0.1382
   17CHTO   H58 7118   5.466   6.330   1.241 -0.6045  0.9774  0.0710
   17CHTO    N6 7119   5.448   6.496   1.107  0.1296  0.7377 -0.5252
   17CHTO   H45 7120   5.471   6.554   1.195 -1.4247 -0.4849  0.7142
   17CHTO   H46 7121   5.517   6.529   1.031  0.5987 -0.6968 -0.7342
   17CHTO   C33 7122   5.611   6.303   1.090 -0.2769  0.8388  0.4508
   17CHTO   H61 7123   5.626   6.328   0.984 -0.4350  0.6619  0.3844
   17CHTO   O18 7124   5.607   6.160   1.098 -0.2651  0.1737  0.5603
   17CHTO   C28 7125   5.527   6.081   1.008 -0.4637 -0.2208 -0.6614
   17CHTO   H56 7126   5.547   6.111   0.905 -1.6371  0.9211 -0.5719
   17CHTO   C35 7127   5.560   5.937   1.035 -0.5185 -0.2755 -0.1748
   17CHTO   O24 7128   5.548   5.887   1.168  0.1720  0.4542  0.0283
   17CHTO   H39 7129   5.570   5.797   1.155 -3.1369 -0.3319 -0.7733
   17CHTO    O9 7130   5.714   6.355   1.171  0.2710 -0.8281 -0.0248
   17CHTO   C13 7131   5.867   6.343   1.099 -0.0689  0.1211 -0.7198
   17CHTO   H26 7132   5.848   6.335   0.990  1.1546 -0.9165 -0.8773
   17CHTO   C11 7133   5.960   6.220   1.158  0.7948  0.2271  1.1646
   17CHTO   H24 7134   6.025   6.198   1.072 -1.5508 -1.2792 -0.2955
   17CHTO    O8 7135   5.869   6.107   1.176  0.0286  0.2922 -0.2659
   17CHTO    H3 7136   5.796   6.143   1.221 -0.1786 -1.1931  0.6325
   17CHTO    C9 7137   6.049   6.268   1.272 -0.0832  0.0317 -0.0682
   17CHTO   H22 7138   6.140   6.306   1.224  0.5854 -0.1121  1.0909
   17CHTO    N2 7139   6.087   6.168   1.370 -0.1121 -0.1209 -0.5075
   17CHTO   H10 7140   6.188   6.191   1.399  0.1560 -1.4131 -0.3774
   17CHTO   H11 7141   6.076   6.070   1.327  1.1153 -0.5135  0.0633
   17CHTO    C7 7142   5.996   6.395   1.342 -0.2872 -0.2716 -0.4968
   17CHTO   H20 7143   6.077   6.426   1.411  1.8784  0.8434 -3.4484
   17CHTO    O4 7144   5.985   6.509   1.252 -0.2849  0.3258  0.4040
   17CHTO   C14 7145   5.940   6.489   1.115 -0.0639 -0.0093  0.0505
   17CHTO   H27 7146   6.034   6.499   1.056  0.3771 -0.2820  0.7074
   17CHTO   C18 7147   5.844   6.601   1.063 -0.4029  0.0938 -0.4641
   17CHTO   O13 7148   5.917   6.724   1.041 -0.1140  0.4287  0.4407
   17CHTO    H7 7149   5.939   6.724   0.950  0.7253 -0.6086  0.6305
   17CHTO    O2 7150   5.858   6.382   1.411  0.3555 -0.2851  0.1902
   17CHTO    C1 7151   5.837   6.444   1.538  0.4203 -0.5973 -0.0300
   17CHTO   H14 7152   5.933   6.460   1.591  0.6436  2.2130 -1.2029
   17CHTO    C2 7153   5.749   6.343   1.624 -0.4734  0.8728 -0.1874
   17CHTO   H15 7154   5.679   6.307   1.547 -1.7846  0.0426  1.3785
   17CHTO    O6 7155   5.837   6.229   1.665  0.6912  0.1397  0.1247
   17CHTO    H1 7156   5.887   6.261   1.738  0.6961  0.6012 -0.0796
   17CHTO    C3 7157   5.666   6.408   1.739  0.0516  0.3368  0.0309
   17CHTO   H16 7158   5.728   6.420   1.829 -0.5423 -0.4509  0.5469
   17CHTO    N1 7159   5.554   6.327   1.778  0.5763 -0.1669  0.1147
   17CHTO    H8 7160   5.582   6.242   1.839 -3.8543 -0.8652  1.3599
   17CHTO    H9 7161   5.496   6.307   1.689  1.2352 -0.7777 -0.1803
   17CHTO    C4 7162   5.618   6.550   1.712  0.6385 -0.3833 -0.2351
   17CHTO   H17 7163   5.527   6.551   1.652 -0.2870  0.4779  1.1681
   17CHTO    O1 7164   5.723   6.631   1.652 -0.4440  0.2439 -0.6174
   17CHTO    C5 7165   5.768   6.589   1.520  0.3333 -0.0196 -0.6050
   17CHTO   H18 7166   5.685   6.572   1.451 -0.3339  1.5131 -0.2000
   17CHTO   C16 7167   5.854   6.701   1.452  0.1642 -0.2254 -0.0358
   17CHTO   O11 7168   5.955   6.757   1.529 -0.0485  0.4085  0.1857
   17CHTO    H5 7169   5.909   6.799   1.599  1.3424 -0.5028  1.6728
   17CHTO    O3 7170   5.584   6.621   1.832  0.1245  0.2738  0.3576
   17CHTO    C6 7171   5.496   6.741   1.858 -0.3112  0.4317  0.6613
   17CHTO   H19 7172   5.454   6.770   1.762 -1.5449 -2.5277  0.2582
   17CHTO    C8 7173   5.392   6.691   1.959  0.1054 -0.2290  0.6666
   17CHTO   H21 7174   5.440   6.650   2.047  0.9890  2.3686  1.4536
   17CHTO    O7 7175   5.318   6.592   1.893  0.0634 -0.3506  0.4126
   17CHTO    H2 7176   5.250   6.636   1.846 -0.9631 -3.0441 -0.7277
   17CHTO   C12 7177   5.301   6.815   2.007  0.2612  0.7651 -0.5675
   17CHTO   H25 7178   5.246   6.856   1.920  0.6920 -0.2039 -1.2946
   17CHTO    N3 7179   5.192   6.762   2.098  0.3241 -0.2088  0.5005
   17CHTO   H12 7180   5.222   6.707   2.186  1.0773 -1.9741 -0.7967
   17CHTO   H13 7181   5.118   6.835   2.125  0.6168  0.7340 -1.1964
   17CHTO   C15 7182   5.394   6.923   2.064  0.1378 -0.2218 -0.2926
   17CHTO   H28 7183   5.452   6.891   2.150 -1.0699  2.6489  1.6970
   17CHTO   O10 7184   5.309   7.055   2.106  0.4248  0.2366  0.5500
   17CHTO    H4 7185   5.310   7.112   2.032 -1.9304  0.7554  0.8833
   17CHTO    O5 7186   5.480   6.964   1.955  0.3767  0.1484 -0.0297
   17CHTO   C10 7187   5.576   6.861   1.916 -0.1511  0.6187 -0.0988
   17CHTO   H23 7188   5.633   6.834   2.005 -0.3654  0.5160  0.0065
   17CHTO   C17 7189   5.661   6.926   1.810 -0.4303 -0.4237  0.3146
   17CHTO   O12 7190   5.733   7.042   1.860 -0.2395 -0.4220  0.1189
   17CHTO    H6 7191   5.675   7.103   1.901 -0.2293  0.4692 -1.1848
   18CHTO  H203 7192   6.840   7.133   2.123 -1.1567 -1.0645  2.1616
   18CHTO   O82 7193   6.764   7.164   2.079  0.3005 -0.9108 -0.3177
   18CHTO  C123 7194   6.734   7.103   1.954 -0.0662  0.0709 -0.6197
   18CHTO  H227 7195   6.628   7.120   1.929 -0.1635 -0.6251 -0.6752
   18CHTO   O77 7196   6.811   7.171   1.851  0.2640 -0.3471 -0.0234
   18CHTO  C118 7197   6.782   7.134   1.713 -0.3684  0.8174  0.9789
   18CHTO  H222 7198   6.675   7.142   1.689 -0.5039  1.5930  1.8179
   18CHTO  C125 7199   6.867   7.231   1.616 -0.0654 -0.2029 -0.4179
   18CHTO   O84 7200   6.816   7.363   1.631  0.4302 -0.5310  0.3318
   18CHTO  H205 7201   6.879   7.416   1.586 -2.7596  2.6866 -0.6275
   18CHTO  C114 7202   6.830   6.986   1.698  0.2940 -0.5606 -0.1753
   18CHTO  H218 7203   6.935   6.972   1.724 -0.2198 -2.4167  0.9822
   18CHTO  C116 7204   6.762   6.893   1.809 -0.6024 -0.1536 -0.0087
   18CHTO  H220 7205   6.657   6.868   1.782 -0.7066 -0.7091  0.8700
   18CHTO   O79 7206   6.824   6.761   1.811 -0.4911 -0.0071 -0.0374
   18CHTO  H201 7207   6.785   6.706   1.745 -0.5583 -0.6213  0.5105
   18CHTO  C120 7208   6.771   6.947   1.952 -0.0696  0.2898  0.1710
   18CHTO  H224 7209   6.876   6.932   1.986 -0.6223  0.2946  1.9084
   18CHTO   N21 7210   6.685   6.871   2.052 -0.0592  0.1064  0.1659
   18CHTO  H211 7211   6.662   6.943   2.130 -0.9360  0.2933 -0.2665
   18CHTO  H212 7212   6.722   6.779   2.095  1.1157  1.6983  2.7421
   18CHTO   O75 7213   6.805   6.945   1.566 -0.4368  0.5212 -0.9542
   18CHTO  C112 7214   6.947   6.907   1.484 -0.1565  0.3169  0.9400
   18CHTO  H216 7215   7.030   6.884   1.553 -1.7636 -3.2623  1.8099
   18CHTO   O73 7216   6.975   7.019   1.406 -0.4178 -0.2371 -0.0739
   18CHTO  C113 7217   7.084   7.007   1.312 -0.1089  0.7990 -0.1093
   18CHTO  H217 7218   7.178   7.007   1.371  1.3260 -1.2014 -2.2937
   18CHTO  C124 7219   7.097   7.140   1.244  0.0496  0.0249 -0.4086
   18CHTO   O83 7220   6.980   7.188   1.181 -0.3907 -0.1482  0.1046
   18CHTO  H204 7221   6.905   7.154   1.226 -0.4098  1.0249  0.9592
   18CHTO  C109 7222   7.057   6.886   1.217  0.2110  0.2205  0.0383
   18CHTO  H213 7223   6.962   6.906   1.165 -0.3947 -0.2757  0.9445
   18CHTO  C110 7224   7.034   6.751   1.301  0.3547 -0.5325  0.0596
   18CHTO  H214 7225   7.119   6.725   1.364 -0.0747 -3.2967 -0.4570
   18CHTO   O78 7226   7.012   6.638   1.218 -0.7188 -0.3423 -0.4889
   18CHTO  H200 7227   6.929   6.618   1.179 -0.5833 -1.9915  0.0254
   18CHTO  C111 7228   6.916   6.784   1.396 -0.1385  0.1773  0.0853
   18CHTO  H215 7229   6.828   6.805   1.333  3.1509  1.9556 -4.1883
   18CHTO   N19 7230   6.887   6.676   1.495 -0.1355  0.2141 -0.6881
   18CHTO  H207 7231   6.981   6.644   1.538  0.1440 -1.5285 -2.4794
   18CHTO  H208 7232   6.822   6.708   1.575  1.9280  0.9341  0.7368
   18CHTO   O74 7233   7.166   6.866   1.118  0.3051 -0.1376  0.1288
   18CHTO  C115 7234   7.116   6.806   0.972 -0.6908  0.5589 -0.2507
   18CHTO  H219 7235   7.110   6.697   0.968  0.5662  0.5266 -1.6905
   18CHTO   O76 7236   6.954   6.853   0.928 -0.2023 -0.0523  0.0384
   18CHTO  C122 7237   6.947   6.994   0.884 -0.0735 -0.0333 -0.4644
   18CHTO  H226 7238   6.932   7.048   0.977  2.7530  0.9207 -0.5052
   18CHTO  C126 7239   6.810   7.004   0.813  0.0476 -0.1686 -0.1890
   18CHTO   O85 7240   6.794   6.918   0.705 -0.8373  0.8245  0.0561
   18CHTO  H206 7241   6.822   6.832   0.728  0.9770  1.1622 -0.8144
   18CHTO  C121 7242   7.058   7.036   0.790  0.2822  0.2626 -0.0585
   18CHTO  H225 7243   7.015   7.087   0.702  1.0596  1.6972  0.3704
   18CHTO   O81 7244   7.127   7.145   0.850  0.4926 -0.4807 -0.3871
   18CHTO  H202 7245   7.060   7.207   0.871 -0.3645 -0.5963 -2.6369
   18CHTO  C119 7246   7.150   6.913   0.744  0.5296 -0.0198  0.6313
   18CHTO  H223 7247   7.085   6.834   0.707  0.5552 -0.8431  2.2986
   18CHTO  C117 7248   7.227   6.850   0.866  0.2476 -0.0448  0.0739
   18CHTO  H221 7249   7.291   6.925   0.912 -0.1054  0.1954  0.1737
   18CHTO   N20 7250   7.321   6.739   0.839 -0.4917  1.1766 -0.0608
   18CHTO  H209 7251   7.310   6.652   0.903 -1.8131  0.1952 -1.5944
   18CHTO  H210 7252   7.422   6.776   0.829  0.7292 -1.9578  0.0629
   18CHTO   O80 7253   7.239   6.943   0.614 -0.0522 -0.3654  0.5953
   18CHTO  C103 7254   7.171   6.907   0.462 -1.3133  0.4833 -0.4679
   18CHTO  H190 7255   7.242   6.922   0.381  0.4385 -4.5893 -0.0688
   18CHTO  C101 7256   7.130   6.756   0.452 -0.1657  0.1267  0.4545
   18CHTO  H188 7257   7.065   6.722   0.533 -0.9705  0.8460  0.1146
   18CHTO   O68 7258   7.247   6.670   0.455 -0.4872 -0.0027  0.5363
   18CHTO  H168 7259   7.278   6.671   0.367 -0.0427 -1.0175  0.6729
   18CHTO   C99 7260   7.039   6.730   0.323  0.3829  0.6008  0.8561
   18CHTO  H186 7261   7.090   6.755   0.227 -1.0312 -0.3684 -0.1785
   18CHTO   N17 7262   6.985   6.588   0.303  0.4787  0.2565 -0.0038
   18CHTO  H174 7263   7.058   6.512   0.326  0.3089 -0.1715 -0.8699
   18CHTO  H175 7264   6.960   6.583   0.198  1.0357  0.9111 -0.1715
   18CHTO   C97 7265   6.910   6.822   0.327  0.3436 -0.2364 -0.1875
   18CHTO  H184 7266   6.835   6.803   0.404 -0.2224 -0.8341 -0.8744
   18CHTO   O64 7267   6.962   6.958   0.333  0.4921  0.3390 -0.3690
   18CHTO  C104 7268   7.036   6.993   0.444 -0.1326  0.1281  0.8671
   18CHTO  H191 7269   6.970   6.971   0.528 -0.7735  0.7563  0.5272
   18CHTO  C108 7270   7.073   7.144   0.454 -0.5143 -0.4041  0.5726
   18CHTO   O71 7271   6.956   7.222   0.451 -0.0105  0.3884 -0.1846
   18CHTO  H171 7272   6.938   7.255   0.537 -0.3017 -0.7681  0.2000
   18CHTO   O62 7273   6.840   6.829   0.199  0.0577 -0.1457  0.0527
   18CHTO   C91 7274   6.697   6.852   0.194 -0.4541 -0.3395  0.3270
   18CHTO  H178 7275   6.645   6.790   0.267  0.5150 -1.4014  0.1271
   18CHTO   C92 7276   6.657   6.786   0.057  0.1518  0.4789 -0.2017
   18CHTO  H179 7277   6.737   6.808  -0.016  0.7550 -0.0971  0.2765
   18CHTO   O66 7278   6.663   6.645   0.061 -0.2987 -0.4411 -0.2679
   18CHTO  H166 7279   6.717   6.627   0.135 -1.3295 -0.3045  0.5214
   18CHTO   C93 7280   6.521   6.836  -0.007  0.8600 -0.8926  0.4933
   18CHTO  H180 7281   6.447   6.774   0.045 -0.9045 -0.2945 -1.2285
   18CHTO   N16 7282   6.514   6.799  -0.154  0.3700 -0.5793 -0.2950
   18CHTO  H172 7283   6.592   6.854  -0.206  0.2512 -0.2936 -0.1718
   18CHTO  H173 7284   6.529   6.693  -0.167  1.9186 -0.3761 -0.2297
   18CHTO   C94 7285   6.496   6.987   0.013  0.4310  1.1539 -0.1422
   18CHTO  H181 7286   6.565   7.047  -0.045  1.7523 -0.3550 -0.1852
   18CHTO   O61 7287   6.512   7.011   0.159  0.0199 -0.0485  0.0559
   18CHTO   C95 7288   6.651   7.005   0.204 -0.1786  0.3534 -0.1946
   18CHTO  H182 7289   6.714   7.071   0.145 -0.9960 -0.0770 -1.5723
   18CHTO  C106 7290   6.656   7.049   0.355 -0.1390  0.3239 -0.5664
   18CHTO   O69 7291   6.684   7.188   0.356 -0.1940  0.3129 -0.1390
   18CHTO  H169 7292   6.673   7.224   0.442  0.4410  0.8454 -0.2751
   18CHTO   O63 7293   6.336   7.004   0.006  0.0161 -0.2497  0.2228
   18CHTO   C96 7294   6.289   7.115  -0.087  0.1195 -0.0750  0.7044
   18CHTO  H183 7295   6.184   7.091  -0.105  0.1586  0.1606  0.1536
   18CHTO   C98 7296   6.352   7.121  -0.226  0.0370 -0.0593  0.6288
   18CHTO  H185 7297   6.462   7.114  -0.222  0.1560 -0.5670 -2.1787
   18CHTO   O67 7298   6.312   6.987  -0.284 -0.2485 -0.7686  0.5892
   18CHTO  H167 7299   6.368   6.971  -0.357 -1.2184  0.5285 -0.4441
   18CHTO  C102 7300   6.303   7.243  -0.311  0.2654 -0.2940 -0.3193
   18CHTO  H189 7301   6.202   7.214  -0.344 -0.1772  1.9205 -0.9440
   18CHTO   N18 7302   6.372   7.252  -0.439  0.1187  0.8443  0.4576
   18CHTO  H176 7303   6.478   7.269  -0.427  0.6063 -0.8739 -1.1684
   18CHTO  H177 7304   6.343   7.176  -0.511  1.2298 -0.4601  1.3684
   18CHTO  C105 7305   6.309   7.369  -0.218 -0.3177  0.0273  0.8173
   18CHTO  H192 7306   6.376   7.445  -0.260 -1.0720 -0.5712 -1.5252
   18CHTO   O65 7307   6.343   7.357  -0.077  0.2528  0.0059  0.0946
   18CHTO  C100 7308   6.293   7.247  -0.008 -0.1107  0.6701 -0.0248
   18CHTO  H187 7309   6.366   7.245   0.074  0.2709  0.3691 -0.3700
   18CHTO  C107 7310   6.158   7.279   0.054  0.1955  0.0938  0.3051
   18CHTO   O70 7311   6.150   7.410   0.111 -0.3093 -0.3084 -0.1278
   18CHTO  H170 7312   6.161   7.469   0.039 -0.5453  1.5222  1.3037
   18CHTO   O57 7313   6.168   7.427  -0.240  0.3585  0.5511 -0.5143
   18CHTO   C85 7314   6.157   7.559  -0.300  0.0749  0.4156 -0.3559
   18CHTO  H157 7315   6.232   7.551  -0.382  0.6656 -0.2261  0.2377
   18CHTO   C83 7316   6.206   7.679  -0.200  0.0337 -0.2096  0.1060
   18CHTO  H155 7317   6.312   7.670  -0.175  0.4519 -0.3206 -1.6509
   18CHTO   O56 7318   6.140   7.675  -0.075  0.8267  0.6454 -0.4370
   18CHTO  H135 7319   6.138   7.584  -0.051  0.7155  0.6884 -0.2866
   18CHTO   C81 7320   6.188   7.812  -0.276 -0.3885  0.9559 -0.5443
   18CHTO  H153 7321   6.242   7.808  -0.371 -0.2594 -1.8635 -0.3878
   18CHTO   N14 7322   6.260   7.935  -0.222  0.5238  0.1635 -0.2312
   18CHTO  H141 7323   6.260   8.021  -0.286  0.8156 -0.2118 -0.7406
   18CHTO  H142 7324   6.361   7.905  -0.203 -0.1328 -4.3621 -3.0563
   18CHTO   C79 7325   6.038   7.832  -0.310  0.0107  0.1969  0.1769
   18CHTO  H151 7326   6.028   7.932  -0.351 -2.3410 -0.3108 -0.5445
   18CHTO   O52 7327   5.991   7.730  -0.405  0.1179  0.6441 -0.3301
   18CHTO   C86 7328   6.008   7.592  -0.355 -0.2665  0.1168  0.2849
   18CHTO  H158 7329   5.940   7.578  -0.268 -1.9554  0.8927 -0.8872
   18CHTO   C90 7330   5.975   7.494  -0.464  0.4953 -0.1293  0.0218
   18CHTO   O60 7331   6.056   7.503  -0.582  0.2904  0.3876  0.0913
   18CHTO  H138 7332   6.024   7.432  -0.634 -3.6011 -0.8501  3.8575
   18CHTO   O50 7333   5.950   7.836  -0.193  0.1222  0.2397  0.1186
   18CHTO   C73 7334   5.826   7.912  -0.173 -0.2365  0.4280 -0.0145
   18CHTO  H145 7335   5.763   7.914  -0.263  0.1443  0.6598 -0.2729
   18CHTO   C74 7336   5.864   8.056  -0.114 -0.3416  0.7439 -0.4184
   18CHTO  H146 7337   5.933   8.093  -0.191  0.5275  2.5251  1.1712
   18CHTO   O54 7338   5.752   8.145  -0.114 -0.2461  0.0588  0.0431
   18CHTO  H133 7339   5.669   8.110  -0.087  0.0792  0.1012  1.1376
   18CHTO   C75 7340   5.935   8.048   0.029  1.0315  0.2250  0.4763
   18CHTO  H147 7341   6.038   8.012   0.015  1.0233  1.2764 -2.5348
   18CHTO   N13 7342   5.941   8.175   0.104 -0.0312 -0.1759 -0.1940
   18CHTO  H139 7343   5.917   8.258   0.039 -0.9032 -0.2380  0.0435
   18CHTO  H140 7344   6.024   8.201   0.168 -1.2210  2.9271  0.1926
   18CHTO   C76 7345   5.863   7.937   0.122  0.2264  0.4365 -0.7702
   18CHTO  H148 7346   5.771   7.985   0.156  1.4515  0.7774  2.1850
   18CHTO   O49 7347   5.828   7.813   0.051  0.0957  0.3175 -0.1675
   18CHTO   C77 7348   5.740   7.832  -0.065  0.5980  0.3803 -0.2683
   18CHTO  H149 7349   5.656   7.896  -0.036  0.0020 -0.3380 -0.4124
   18CHTO   C88 7350   5.675   7.707  -0.121 -0.1417  0.3255 -0.0208
   18CHTO   O58 7351   5.569   7.672  -0.044 -0.4233 -0.0367 -0.5218
   18CHTO  H136 7352   5.490   7.697  -0.087 -1.0687  0.6248  0.9924
   18CHTO   O51 7353   5.953   7.895   0.231  0.3274 -0.1567  0.6383
   18CHTO   C78 7354   5.896   7.806   0.370 -0.4650 -0.3619  0.1584
   18CHTO  H150 7355   5.835   7.719   0.337 -0.3910 -0.1830 -0.4443
   18CHTO   C80 7356   5.809   7.898   0.459  0.5013 -0.0697  0.2463
   18CHTO  H152 7357   5.869   7.987   0.488  0.2247  0.0562  0.4361
   18CHTO   O55 7358   5.693   7.949   0.384 -0.0255  0.5631 -0.2693
   18CHTO  H134 7359   5.719   8.015   0.323 -0.4559 -0.3137 -1.4219
   18CHTO   C84 7360   5.768   7.814   0.591 -0.6689  0.5058 -1.0348
   18CHTO  H156 7361   5.706   7.733   0.553 -2.5352  1.1031  0.6255
   18CHTO   N15 7362   5.682   7.901   0.685 -0.4782 -0.0118 -0.1879
   18CHTO  H143 7363   5.648   7.837   0.764 -1.1542  0.0829 -0.4063
   18CHTO  H144 7364   5.724   7.993   0.721 -0.7584 -0.1894  0.5916
   18CHTO   C87 7365   5.887   7.754   0.664  0.8015  0.8857  0.2244
   18CHTO  H159 7366   5.932   7.847   0.701 -2.0334  2.2173  0.4506
   18CHTO   O53 7367   5.983   7.677   0.554 -0.1258  0.1456  0.4418
   18CHTO   C82 7368   6.021   7.753   0.438  0.1056  0.0538  0.7157
   18CHTO  H154 7369   6.082   7.839   0.467 -0.4201  0.2361  1.3067
   18CHTO   C89 7370   6.095   7.664   0.344  0.0299  0.2840  0.0778
   18CHTO   O59 7371   6.214   7.601   0.394  0.7302 -0.5561  0.1365
   18CHTO  H137 7372   6.289   7.656   0.382 -0.4926  1.0741 -0.1394
   18CHTO   O45 7373   5.860   7.644   0.784  0.0100 -0.0577 -0.4879
   18CHTO   C67 7374   5.933   7.690   0.897 -0.3493 -0.1345 -0.7498
   18CHTO  H124 7375   6.024   7.740   0.863 -0.1040  0.7773  1.1657
   18CHTO   C65 7376   5.851   7.800   0.988  0.6194 -0.1968 -0.0543
   18CHTO  H122 7377   5.746   7.791   0.960  0.2625 -1.8618  1.7758
   18CHTO   O44 7378   5.898   7.924   0.933  0.0165 -0.1775  0.0104
   18CHTO  H102 7379   5.844   7.995   0.964 -0.8122 -0.8667  0.1709
   18CHTO   C63 7380   5.868   7.778   1.141  0.5854 -0.0898  0.5699
   18CHTO  H120 7381   5.818   7.686   1.172  2.0344 -0.9919  0.2739
   18CHTO   N11 7382   5.806   7.889   1.226  0.1122  0.0354  0.4585
   18CHTO  H108 7383   5.804   7.851   1.326 -1.0757  0.4419  0.6003
   18CHTO  H109 7384   5.701   7.903   1.207 -0.0841  0.3767  1.7256
   18CHTO   C61 7385   6.022   7.751   1.168  0.2839  0.7374  0.1964
   18CHTO  H118 7386   6.041   7.737   1.276  1.5914  0.2066 -0.0926
   18CHTO   O40 7387   6.068   7.630   1.101  0.1147  0.5862 -1.0580
   18CHTO   C68 7388   5.987   7.579   0.993 -0.4439 -0.3271  0.5441
   18CHTO  H125 7389   5.894   7.532   1.030 -1.8223  2.2248  0.4282
   18CHTO   C72 7390   6.062   7.471   0.914 -0.7483  0.0222  0.0752
   18CHTO   O48 7391   6.188   7.517   0.879  0.2920  0.5989  0.3605
   18CHTO  H105 7392   6.241   7.456   0.831  0.0358 -0.3789  1.3203
   18CHTO   O38 7393   6.099   7.861   1.121 -0.5036  0.1118  0.0863
   18CHTO   C55 7394   6.247   7.855   1.133  0.8777  0.2269  0.6320
   18CHTO  H112 7395   6.270   7.749   1.116 -1.0594 -0.0987 -0.1012
   18CHTO   C56 7396   6.317   7.911   1.268  0.2140  0.3839  0.0987
   18CHTO  H113 7397   6.306   8.020   1.278  1.1730  0.2739  2.8538
   18CHTO   O42 7398   6.244   7.863   1.391 -0.4003 -0.0793  0.1482
   18CHTO  H100 7399   6.152   7.878   1.406 -0.5877  1.3206 -2.2529
   18CHTO   C57 7400   6.465   7.864   1.266 -0.1919 -0.5532 -0.0700
   18CHTO  H114 7401   6.469   7.755   1.265 -0.8372 -0.5783 -0.3983
   18CHTO   N10 7402   6.528   7.914   1.389  0.4202  0.0686 -0.2317
   18CHTO  H106 7403   6.628   7.873   1.396  0.6208  0.4338 -0.9190
   18CHTO  H107 7404   6.534   8.022   1.389  0.6341  0.0865  2.4246
   18CHTO   C58 7405   6.539   7.916   1.138  0.2494  0.5370  0.1324
   18CHTO  H115 7406   6.578   8.020   1.147  1.0336  0.3901 -1.2659
   18CHTO   O37 7407   6.457   7.915   1.020 -0.2143 -0.0644  0.3471
   18CHTO   C59 7408   6.312   7.936   1.018 -0.2435  0.7172  0.4906
   18CHTO  H116 7409   6.284   8.040   1.029 -1.1377  0.7816 -2.1455
   18CHTO   C70 7410   6.271   7.894   0.879 -0.8493 -0.2779 -0.1799
   18CHTO   O46 7411   6.310   7.766   0.831  0.6164 -0.1367 -0.1416
   18CHTO  H103 7412   6.400   7.764   0.804  0.1916 -0.2222 -1.6333
   18CHTO   O39 7413   6.673   7.812   1.125 -0.1602  0.2542  0.2575
   18CHTO   C60 7414   6.640   7.681   1.083  0.4444  0.0599  0.2297
   18CHTO  H117 7415   6.537   7.656   1.110 -0.5176 -1.7534 -4.6365
   18CHTO   C62 7416   6.652   7.662   0.922 -0.8672  0.1034  0.7895
   18CHTO  H119 7417   6.605   7.750   0.873 -1.1428 -1.1514 -1.2227
   18CHTO   O43 7418   6.792   7.672   0.895  0.3982 -0.4118 -0.8671
   18CHTO  H101 7419   6.848   7.736   0.934 -0.1763  1.0835 -2.4484
   18CHTO   C66 7420   6.578   7.522   0.889  0.3095 -0.3347 -0.7782
   18CHTO  H123 7421   6.473   7.532   0.917  0.3736 -3.2804  0.6582
   18CHTO   N12 7422   6.558   7.490   0.748  1.1491 -0.4185  0.0764
   18CHTO  H110 7423   6.653   7.500   0.697  0.8426  3.3561  0.0529
   18CHTO  H111 7424   6.489   7.561   0.706 -1.3243 -2.2324  0.9774
   18CHTO   C69 7425   6.638   7.401   0.956 -0.8402 -0.6083 -0.2535
   18CHTO  H126 7426   6.696   7.329   0.895  2.1465  1.6075 -0.1245
   18CHTO   O41 7427   6.763   7.442   1.060  0.3214 -0.5818  0.6740
   18CHTO   C64 7428   6.730   7.578   1.158  0.3879 -0.2645  0.6145
   18CHTO  H121 7429   6.832   7.616   1.183 -0.2919  0.2725  2.6427
   18CHTO   C71 7430   6.668   7.536   1.293 -0.5881 -0.6891 -0.1276
   18CHTO   O47 7431   6.740   7.428   1.355 -0.7693  0.5875 -0.1909
   18CHTO  H104 7432   6.811   7.464   1.405 -0.6812  0.6691 -0.3744
   18CHTO   O34 7433   6.522   7.333   1.032  0.7579  0.4126  0.5201
   18CHTO   C49 7434   6.516   7.164   1.048 -0.1750 -0.1535  0.0751
   18CHTO   H91 7435   6.591   7.126   0.979 -0.7981 -0.2270 -0.5598
   18CHTO   C47 7436   6.381   7.113   1.025  0.3115 -0.0438 -0.2507
   18CHTO   H89 7437   6.386   7.003   1.020 -1.9851 -0.1052 -1.9557
   18CHTO   O33 7438   6.348   7.162   0.893  0.0213 -0.0039 -0.0871
   18CHTO   H70 7439   6.421   7.155   0.835  0.0897 -0.8671  0.0950
   18CHTO   C45 7440   6.282   7.169   1.136  0.2637  0.1128  0.1487
   18CHTO   H87 7441   6.245   7.269   1.109  0.9106  0.2129 -0.3729
   18CHTO    N8 7442   6.167   7.072   1.146 -0.2309 -0.3478  0.2026
   18CHTO   H75 7443   6.156   7.031   1.245 -0.7207  0.1130  0.3389
   18CHTO   H76 7444   6.080   7.126   1.114 -1.0478  1.3975  4.9776
   18CHTO   C43 7445   6.354   7.212   1.272 -0.0530  0.3703 -0.2635
   18CHTO   H85 7446   6.394   7.312   1.255 -0.4683  0.7612  0.9612
   18CHTO   O29 7447   6.454   7.117   1.295 -0.5686  0.2113 -0.4268
   18CHTO   C50 7448   6.559   7.118   1.190 -0.1427  0.0315  0.1944
   18CHTO   H92 7449   6.635   7.189   1.225 -0.0217 -0.3232  0.6505
   18CHTO   C54 7450   6.635   6.980   1.198  0.0904 -0.0141  1.4277
   18CHTO   O36 7451   6.572   6.870   1.132 -0.7463 -0.1011  0.1437
   18CHTO   H72 7452   6.624   6.796   1.157 -1.8758 -1.5333 -1.6100
   18CHTO   O27 7453   6.253   7.237   1.377 -0.6744  0.2362  0.1356
   18CHTO   C37 7454   6.223   7.333   1.485 -0.2807  0.1809  0.7203
   18CHTO   H79 7455   6.170   7.281   1.566 -2.8735  0.8390 -0.5016
   18CHTO   C38 7456   6.352   7.385   1.553  0.1630 -0.2082 -0.2520
   18CHTO   H80 7457   6.412   7.426   1.471  0.2441 -3.0188 -1.6357
   18CHTO   O31 7458   6.424   7.282   1.626 -0.0646  0.0674 -0.3844
   18CHTO   H68 7459   6.427   7.207   1.569  2.3494  0.5350 -0.9399
   18CHTO   C39 7460   6.314   7.506   1.644  0.4909  0.5988 -0.3420
   18CHTO   H81 7461   6.266   7.465   1.734  2.4613  0.8227  0.8285
   18CHTO    N7 7462   6.442   7.565   1.701 -0.1535  0.3648 -0.0112
   18CHTO   H73 7463   6.516   7.487   1.704 -0.1863  0.3254 -0.1967
   18CHTO   H74 7464   6.479   7.649   1.644 -2.3995  1.9630  0.8011
   18CHTO   C40 7465   6.217   7.609   1.577 -0.3075 -0.3376 -0.1124
   18CHTO   H82 7466   6.279   7.648   1.496  0.7622 -1.9907 -0.1250
   18CHTO   O26 7467   6.097   7.541   1.526  0.7529 -0.2225  0.1430
   18CHTO   C41 7468   6.128   7.441   1.427  0.1875  1.0740  0.1383
   18CHTO   H83 7469   6.179   7.493   1.344  0.8261 -1.6410 -1.2306
   18CHTO   C52 7470   6.005   7.380   1.367  0.0027 -0.5355  0.6355
   18CHTO   O35 7471   5.902   7.473   1.318  0.1519 -0.5895 -0.0592
   18CHTO   H71 7472   5.931   7.525   1.245  0.0732  0.4997  0.6842
   18CHTO   O28 7473   6.171   7.717   1.662 -0.6211  0.6900  0.3460
   18CHTO   C42 7474   6.045   7.699   1.742 -0.7113  0.9519 -0.9742
   18CHTO   H84 7475   6.057   7.764   1.830 -2.0052  0.7361 -0.6315
   18CHTO   C44 7476   6.019   7.558   1.801  0.2383  0.3944 -0.0912
   18CHTO   H86 7477   6.014   7.483   1.722  1.9361  0.0894  0.0866
   18CHTO   O32 7478   6.125   7.537   1.898  0.7776  0.3169 -0.7555
   18CHTO   H69 7479   6.211   7.549   1.862  0.7622  1.6744 -0.3484
   18CHTO   C48 7480   5.879   7.549   1.867  0.3439 -0.1563  0.2288
   18CHTO   H90 7481   5.874   7.615   1.954  1.3051 -0.1194  0.2557
   18CHTO    N9 7482   5.835   7.414   1.916  0.0319  1.1181 -0.6700
   18CHTO   H77 7483   5.896   7.372   1.994 -0.9140  3.1075  1.1840
   18CHTO   H78 7484   5.826   7.343   1.834  2.1715 -1.0159  0.8727
   18CHTO   C51 7485   5.769   7.592   1.756 -0.2774 -0.0662  0.1690
   18CHTO   H93 7486   5.799   7.535   1.669  1.1012 -0.1210  0.6628
   18CHTO   O30 7487   5.791   7.729   1.733 -0.1268 -0.4322  0.1803
   18CHTO   C46 7488   5.929   7.759   1.660 -0.4508 -0.1791  0.5065
   18CHTO   H88 7489   5.925   7.708   1.563  2.5751  1.2702 -0.4675
   18CHTO   C53 7490   5.936   7.910   1.628 -0.1690  0.7568  0.4311
   18CHTO   O72 7491   5.920   7.992   1.743  0.3686 -0.1457 -0.1514
   18CHTO  H199 7492   5.937   8.082   1.720 -2.4031  0.4360 -0.0782
   18CHTO   O22 7493   5.629   7.571   1.792 -0.4135  0.3442 -0.0829
   18CHTO   C31 7494   5.532   7.555   1.681 -0.0088 -0.3166 -0.5045
   18CHTO   H59 7495   5.436   7.529   1.731 -0.5211 -1.1185 -1.8799
   18CHTO   C29 7496   5.503   7.676   1.595  0.5187 -0.3031 -0.0227
   18CHTO   H57 7497   5.599   7.688   1.544  1.1963 -1.7860  0.8815
   18CHTO   O21 7498   5.466   7.785   1.684  0.0357 -0.1008  0.3115
   18CHTO   H37 7499   5.538   7.841   1.703  2.0093 -2.6643  0.7756
   18CHTO   C27 7500   5.389   7.654   1.490  0.4751  0.5377 -0.9500
   18CHTO   H55 7501   5.297   7.618   1.538  0.9807 -1.6382 -1.5772
   18CHTO    N5 7502   5.360   7.767   1.401  0.2448 -0.3714  0.0428
   18CHTO   H43 7503   5.295   7.837   1.452 -0.9728 -0.9414 -0.7003
   18CHTO   H44 7504   5.455   7.817   1.385 -0.3492  1.1191  1.1280
   18CHTO   C25 7505   5.425   7.518   1.410  0.5921 -0.5834  0.1842
   18CHTO   H53 7506   5.512   7.538   1.346  0.2631  0.9561  0.2022
   18CHTO   O17 7507   5.457   7.401   1.495  0.5737 -0.0046 -0.0654
   18CHTO   C32 7508   5.563   7.431   1.582 -0.4536 -0.2744 -0.5860
   18CHTO   H60 7509   5.658   7.451   1.532  0.4554 -0.4666  1.0184
   18CHTO   C36 7510   5.582   7.311   1.670 -0.0564 -0.0539  0.4212
   18CHTO   O25 7511   5.634   7.205   1.587  0.3488 -0.6010 -0.1869
   18CHTO   H40 7512   5.656   7.127   1.634 -2.3954 -1.1005  0.3240
   18CHTO   O15 7513   5.306   7.477   1.325 -0.3978  0.7012  0.4166
   18CHTO   C19 7514   5.316   7.428   1.189 -0.4978 -0.6640 -0.4883
   18CHTO   H47 7515   5.214   7.387   1.178 -1.7610  1.2227  3.2103
   18CHTO   C20 7516   5.338   7.536   1.079 -0.3649  0.0723  0.7749
   18CHTO   H48 7517   5.422   7.602   1.103  1.0442 -1.5459  0.4241
   18CHTO   O19 7518   5.227   7.620   1.076  0.0802  0.1641  0.3252
   18CHTO   H35 7519   5.222   7.679   1.004  0.5938  0.2882  0.3907
   18CHTO   C21 7520   5.368   7.468   0.932 -0.2609 -0.1725  0.6419
   18CHTO   H49 7521   5.282   7.407   0.905 -0.9511  0.9740  0.1769
   18CHTO    N4 7522   5.387   7.577   0.832 -0.4657  0.0726 -0.4601
   18CHTO   H41 7523   5.319   7.575   0.748  0.4881 -0.6829 -1.2253
   18CHTO   H42 7524   5.489   7.574   0.795 -0.1415  0.4644  0.3786
   18CHTO   C22 7525   5.488   7.376   0.956 -0.1079 -0.5926 -0.3055
   18CHTO   H50 7526   5.568   7.437   0.996 -0.2554 -0.8953  0.4546
   18CHTO   O14 7527   5.442   7.271   1.041  0.3153  0.0211  0.3111
   18CHTO   C23 7528   5.420   7.314   1.174 -0.7047 -0.6561  0.4229
   18CHTO   H51 7529   5.518   7.347   1.211 -0.8863 -0.3963  0.6820
   18CHTO   C34 7530   5.389   7.188   1.259 -1.3160  0.2418 -0.0102
   18CHTO   O23 7531   5.273   7.124   1.215 -0.0192  0.3720  0.4314
   18CHTO   H38 7532   5.210   7.187   1.185 -1.4853  0.0118  2.6605
   18CHTO   O16 7533   5.518   7.309   0.832  0.4557  0.4875  0.3350
   18CHTO   C24 7534   5.667   7.335   0.788  0.2911 -0.4833  0.5603
   18CHTO   H52 7535   5.711   7.422   0.837  0.2750  0.3815 -0.9158
   18CHTO   C26 7536   5.677   7.366   0.632  0.3109 -0.6208 -0.0728
   18CHTO   H54 7537   5.619   7.291   0.576 -1.1099 -3.1787  4.5418
   18CHTO   O20 7538   5.605   7.487   0.591 -0.1295  0.3349  0.4998
   18CHTO   H36 7539   5.536   7.505   0.652 -1.4781  0.0180 -0.9144
   18CHTO   C30 7540   5.826   7.369   0.588 -0.7290 -0.2466  0.1603
   18CHTO   H58 7541   5.883   7.451   0.633 -0.5603  0.2805 -1.0037
   18CHTO    N6 7542   5.836   7.377   0.439 -0.2852 -0.4083 -0.1890
   18CHTO   H45 7543   5.779   7.293   0.402  2.2358 -3.3286  2.2300
   18CHTO   H46 7544   5.784   7.467   0.409  1.0654  0.2682 -0.5372
   18CHTO   C33 7545   5.893   7.234   0.634 -0.2641  0.5535 -0.6897
   18CHTO   H61 7546   5.844   7.154   0.577  0.1159 -0.8643  0.8927
   18CHTO   O18 7547   5.878   7.216   0.778  0.2160  0.3075  0.0210
   18CHTO   C28 7548   5.743   7.209   0.824 -0.4252 -0.1027  0.3566
   18CHTO   H56 7549   5.700   7.124   0.772 -0.9079  0.6211 -0.4441
   18CHTO   C35 7550   5.757   7.183   0.980  0.1883 -0.3302 -0.6405
   18CHTO   O24 7551   5.837   7.281   1.040  0.2335  0.3025  0.1514
   18CHTO   H39 7552   5.924   7.285   1.005 -0.6101  0.5792 -2.0022
   18CHTO    O9 7553   6.035   7.229   0.595 -0.2103  0.1578  0.3153
   18CHTO   C13 7554   6.082   7.130   0.451 -0.2247 -0.3750  0.0428
   18CHTO   H26 7555   6.032   7.177   0.363  1.0954  1.9676  0.5116
   18CHTO   C11 7556   6.032   6.983   0.474 -0.1702  0.1439  0.1501
   18CHTO   H24 7557   5.925   6.977   0.451 -0.4464 -2.6007  1.9158
   18CHTO    O8 7558   6.045   6.939   0.610  0.5616  0.4210  0.0819
   18CHTO    H3 7559   6.134   6.910   0.622  0.5837  0.8006  0.8127
   18CHTO    C9 7560   6.099   6.888   0.374  0.1292 -0.4532 -0.0242
   18CHTO   H22 7561   6.099   6.944   0.279  1.7835  2.0059  1.3562
   18CHTO    N2 7562   6.027   6.761   0.357  0.0440 -0.2295  0.8483
   18CHTO   H10 7563   5.987   6.767   0.257  2.0833 -2.0278 -0.1041
   18CHTO   H11 7564   6.108   6.689   0.355  0.2883  0.0483  0.6212
   18CHTO    C7 7565   6.254   6.886   0.407  0.2104 -0.0066  0.4890
   18CHTO   H20 7566   6.297   6.874   0.306 -0.6134 -0.3907  0.1848
   18CHTO    O4 7567   6.307   7.010   0.463  0.9267  0.1461 -0.6569
   18CHTO   C14 7568   6.243   7.131   0.424 -0.6287 -0.4216 -0.8125
   18CHTO   H27 7569   6.259   7.141   0.314  1.7532 -0.5355 -0.4929
   18CHTO   C18 7570   6.308   7.256   0.489 -0.2591  0.1076 -0.6095
   18CHTO   O13 7571   6.296   7.248   0.631 -0.0768  0.0893 -0.6039
   18CHTO    H7 7572   6.343   7.317   0.672  1.0262 -1.0264  0.0470
   18CHTO    O2 7573   6.278   6.782   0.511 -0.1253  0.1127  0.0680
   18CHTO    C1 7574   6.412   6.739   0.524 -0.0649  0.1095  0.6151
   18CHTO   H14 7575   6.482   6.821   0.496 -1.0479  1.0143  0.7532
   18CHTO    C2 7576   6.450   6.603   0.447  0.2778 -0.6984 -0.7497
   18CHTO   H15 7577   6.389   6.521   0.487  0.8083 -0.1791  1.1711
   18CHTO    O6 7578   6.426   6.626   0.312  0.1155  0.3649  0.6801
   18CHTO    H1 7579   6.500   6.602   0.258 -0.3970 -0.7875  0.4852
   18CHTO    C3 7580   6.602   6.571   0.487  0.1998 -0.4629  0.6439
   18CHTO   H16 7581   6.665   6.655   0.455 -1.2893  0.6982  0.7295
   18CHTO    N1 7582   6.644   6.448   0.414  0.6898 -0.4738 -0.4090
   18CHTO    H8 7583   6.589   6.355   0.425  0.6480 -0.5259 -1.0288
   18CHTO    H9 7584   6.752   6.439   0.417  0.4620 -4.1503 -1.1142
   18CHTO    C4 7585   6.622   6.561   0.643 -0.0102  0.6972  0.5281
   18CHTO   H17 7586   6.578   6.468   0.680  0.1966  1.3081  2.3201
   18CHTO    O1 7587   6.569   6.679   0.705 -0.4494 -0.6599 -0.3707
   18CHTO    C5 7588   6.435   6.713   0.676  0.2456 -0.6653 -0.4244
   18CHTO   H18 7589   6.354   6.640   0.688 -0.7423  0.5064  0.1892
   18CHTO   C16 7590   6.402   6.833   0.765  0.0121  0.2200  0.4875
   18CHTO   O11 7591   6.255   6.847   0.789  0.5892 -0.4248  0.0033
   18CHTO    H5 7592   6.220   6.934   0.783 -0.5241 -0.7737  1.0902
   18CHTO    O3 7593   6.764   6.562   0.678  0.3754  0.1785 -0.7773
   18CHTO    C6 7594   6.838   6.467   0.767 -0.1654 -0.0585 -0.4847
   18CHTO   H19 7595   6.783   6.374   0.780 -0.2796  0.3464  2.1641
   18CHTO    C8 7596   6.967   6.418   0.685 -0.1064 -0.5332  0.2517
   18CHTO   H21 7597   7.015   6.505   0.641 -0.2698 -0.7984 -0.4574
   18CHTO    O7 7598   6.923   6.347   0.567  0.2991  0.2848 -0.6538
   18CHTO    H2 7599   6.993   6.299   0.526 -1.0738 -1.5693 -0.8653
   18CHTO   C12 7600   7.061   6.329   0.773  0.2832 -0.3980  0.0947
   18CHTO   H25 7601   7.000   6.243   0.809  0.2714 -0.3704  0.1401
   18CHTO    N3 7602   7.175   6.271   0.692  0.1652 -0.5019 -0.0943
   18CHTO   H12 7603   7.185   6.311   0.592  1.7395  0.8773  0.5827
   18CHTO   H13 7604   7.269   6.298   0.738 -0.9597  3.0313  0.2947
   18CHTO   C15 7605   7.097   6.420   0.891  0.6674 -0.0604 -0.0490
   18CHTO   H28 7606   7.146   6.515   0.870  1.5548 -0.6740 -0.8050
   18CHTO   O10 7607   7.181   6.360   0.973 -0.0787 -0.7480  0.2787
   18CHTO    H4 7608   7.269   6.376   0.944 -0.0317 -1.8595 -0.2016
   18CHTO    O5 7609   6.980   6.443   0.968 -0.3234 -0.3754  0.8208
   18CHTO   C10 7610   6.875   6.519   0.906  0.0381 -0.0166  0.1042
   18CHTO   H23 7611   6.910   6.622   0.901 -1.2593  0.4058 -0.7147
   18CHTO   C17 7612   6.743   6.530   0.989  0.0717 -0.3214 -0.0704
   18CHTO   O12 7613   6.766   6.549   1.132 -0.2159 -0.0636  0.0058
   18CHTO    H6 7614   6.703   6.492   1.173 -1.7145  1.7340  0.2333
   19CHTO  H203 7615   6.969   8.253   1.631  0.7988  0.0169  0.7984
   19CHTO   O82 7616   6.928   8.295   1.704 -0.2971  0.6477 -0.1681
   19CHTO  C123 7617   6.810   8.219   1.729 -0.9506  0.2174 -0.4372
   19CHTO  H227 7618   6.748   8.229   1.639  0.3922  0.4982 -1.3446
   19CHTO   O77 7619   6.866   8.080   1.746 -0.2787  0.0050  0.7354
   19CHTO  C118 7620   6.764   7.980   1.739  0.3088  0.3827 -0.0055
   19CHTO  H222 7621   6.701   7.981   1.649 -1.5800  0.3623  1.2796
   19CHTO  C125 7622   6.834   7.835   1.742  0.2286 -0.5158  0.0629
   19CHTO   O84 7623   6.886   7.792   1.868 -1.1214 -0.2339  0.4649
   19CHTO  H205 7624   6.976   7.785   1.841 -1.5854 -1.0580 -0.9367
   19CHTO  C114 7625   6.673   8.005   1.866 -0.2396  0.3158  0.3755
   19CHTO  H218 7626   6.724   7.976   1.958  1.3836  0.3374 -0.5045
   19CHTO  C116 7627   6.626   8.154   1.878  0.2865 -0.0748  1.1807
   19CHTO  H220 7628   6.547   8.173   1.803  2.8968 -0.4326 -1.7999
   19CHTO   O79 7629   6.559   8.169   2.005 -0.2098 -0.2688  0.2049
   19CHTO  H201 7630   6.466   8.159   2.001 -0.6549  2.9631  0.6653
   19CHTO  C120 7631   6.740   8.263   1.858 -0.0930  0.1406 -0.5759
   19CHTO  H224 7632   6.807   8.250   1.945  0.4821  0.1927 -1.0036
   19CHTO   N21 7633   6.691   8.403   1.855  0.3958 -0.0414 -0.4080
   19CHTO  H211 7634   6.634   8.419   1.945  1.7605 -0.3014  0.5104
   19CHTO  H212 7635   6.781   8.463   1.863  0.5893 -0.3549 -0.2436
   19CHTO   O75 7636   6.564   7.920   1.836  0.4911 -0.0719 -0.2188
   19CHTO  C112 7637   6.504   7.840   1.974  0.1854 -0.9165  0.3696
   19CHTO  H216 7638   6.535   7.893   2.065  0.1117  0.3472 -0.3280
   19CHTO   O73 7639   6.563   7.709   1.966  0.2790  0.0598 -0.0814
   19CHTO  C113 7640   6.540   7.601   2.062  0.0608  0.0041 -0.0284
   19CHTO  H217 7641   6.594   7.633   2.154  0.2517  0.4162 -0.2872
   19CHTO  C124 7642   6.610   7.471   2.018  0.2685  0.3417  0.0505
   19CHTO   O83 7643   6.752   7.481   2.006  0.2660  0.4312 -0.1714
   19CHTO  H204 7644   6.779   7.554   1.954 -0.9116 -0.1198 -1.6143
   19CHTO  C109 7645   6.389   7.579   2.081 -0.8173  0.1897  0.3530
   19CHTO  H213 7646   6.354   7.519   1.995  0.9779 -2.5699  1.4582
   19CHTO  C110 7647   6.320   7.719   2.094  0.1937 -0.4491  0.4586
   19CHTO  H214 7648   6.354   7.770   2.184 -0.2371  1.2093 -0.2917
   19CHTO   O78 7649   6.187   7.705   2.118 -0.1138 -0.1607  0.6152
   19CHTO  H200 7650   6.171   7.660   2.199 -4.3093 -3.2463 -1.7337
   19CHTO  C111 7651   6.346   7.820   1.974 -0.4934 -0.1895 -0.0807
   19CHTO  H215 7652   6.317   7.769   1.881 -0.7459  1.0911 -0.7086
   19CHTO   N19 7653   6.280   7.950   1.978 -0.1815  0.5340 -0.1350
   19CHTO  H207 7654   6.318   8.016   1.901 -1.0033 -0.4593 -1.4128
   19CHTO  H208 7655   6.175   7.935   1.994 -0.1292  1.5516  1.2195
   19CHTO   O74 7656   6.371   7.497   2.197  0.0792 -0.2034  0.5964
   19CHTO  C115 7657   6.295   7.363   2.159  1.1142 -0.6371 -0.7954
   19CHTO  H219 7658   6.211   7.378   2.092  0.6901  2.0698  0.2627
   19CHTO   O76 7659   6.405   7.241   2.077 -0.1041 -0.5253  0.2112
   19CHTO  C122 7660   6.351   7.104   2.072 -0.1536 -0.1498  0.2970
   19CHTO  H226 7661   6.437   7.043   2.044 -0.6499 -0.3308 -0.8334
   19CHTO  C126 7662   6.261   7.102   1.952  0.6522  0.3158 -0.2213
   19CHTO   O85 7663   6.334   7.116   1.831 -1.0078 -0.1968  0.0232
   19CHTO  H206 7664   6.283   7.094   1.755 -0.2242 -0.0493 -0.5453
   19CHTO  C121 7665   6.276   7.056   2.204 -0.0151 -0.1954 -0.1603
   19CHTO  H225 7666   6.212   6.968   2.181 -0.5755  0.1025  0.2657
   19CHTO   O81 7667   6.379   7.006   2.291  0.1571 -0.2991  0.0169
   19CHTO  H202 7668   6.444   7.066   2.322  1.6066 -1.1420 -1.2898
   19CHTO  C119 7669   6.177   7.161   2.266 -0.0593 -0.3105  0.5116
   19CHTO  H223 7670   6.100   7.176   2.190  0.6005  3.5511  0.5061
   19CHTO  C117 7671   6.240   7.302   2.297  0.9099 -0.4990  0.0244
   19CHTO  H221 7672   6.316   7.294   2.375  1.6493 -2.6339 -0.8931
   19CHTO   N20 7673   6.137   7.405   2.340  0.2846  0.1875 -0.6391
   19CHTO  H209 7674   6.087   7.376   2.432 -0.2532 -1.4078 -1.4182
   19CHTO  H210 7675   6.074   7.427   2.255 -0.5475 -3.3959 -1.0059
   19CHTO   O80 7676   6.084   7.077   2.387  0.3309 -0.1087  0.3058
   19CHTO  C103 7677   6.048   6.913   2.372  0.1281  0.4205 -0.2136
   19CHTO  H190 7678   6.100   6.873   2.285 -0.3004  1.1691 -0.8211
   19CHTO  C101 7679   6.075   6.821   2.495  0.4494 -0.2163 -0.7913
   19CHTO  H188 7680   6.040   6.874   2.583  1.9601  0.3791 -0.5198
   19CHTO   O68 7681   6.238   6.803   2.506  0.7417 -0.2536  0.4605
   19CHTO  H168 7682   6.246   6.730   2.565  0.9651  1.9782  3.2937
   19CHTO   C99 7683   6.004   6.674   2.485  0.2964 -0.3363  1.0006
   19CHTO  H186 7684   6.054   6.618   2.403  1.0318  0.6247  0.7788
   19CHTO   N17 7685   6.008   6.598   2.616  0.4319 -0.2772 -0.2184
   19CHTO  H174 7686   5.961   6.660   2.690  0.9198  1.0066 -0.9757
   19CHTO  H175 7687   6.113   6.593   2.640  0.6118 -1.7989 -1.2110
   19CHTO   C97 7688   5.855   6.684   2.440 -0.2907 -0.0048 -0.4008
   19CHTO  H184 7689   5.793   6.730   2.518 -0.5191 -2.2237  0.7767
   19CHTO   O64 7690   5.865   6.769   2.320 -0.0019  0.1911 -0.2887
   19CHTO  C104 7691   5.899   6.905   2.342 -0.2977  0.1319 -0.2965
   19CHTO  H191 7692   5.843   6.953   2.422 -0.9430 -0.9604 -0.0766
   19CHTO  C108 7693   5.866   6.988   2.218 -0.7979  0.5488 -0.6898
   19CHTO   O71 7694   5.720   6.989   2.194 -0.0802  0.2069 -0.3724
   19CHTO  H171 7695   5.696   7.055   2.131  0.4087 -0.1755 -0.9638
   19CHTO   O62 7696   5.799   6.557   2.400 -0.7077 -0.2279 -0.4655
   19CHTO   C91 7697   5.668   6.554   2.340 -0.4492 -0.1807  0.5592
   19CHTO  H178 7698   5.648   6.654   2.300 -2.0475 -0.5310  0.4390
   19CHTO   C92 7699   5.559   6.529   2.450  0.0202 -0.6093 -0.6540
   19CHTO  H179 7700   5.581   6.440   2.510 -2.0072 -0.4752  0.3121
   19CHTO   O66 7701   5.564   6.639   2.539  0.6878  0.2365  0.1237
   19CHTO  H166 7702   5.596   6.613   2.623 -2.0773  0.3802  1.2993
   19CHTO   C93 7703   5.421   6.510   2.380  0.1320  0.7155  0.0901
   19CHTO  H180 7704   5.391   6.606   2.335  2.8810  1.9860  0.8776
   19CHTO   N16 7705   5.313   6.474   2.476  0.0342  0.1720  0.4436
   19CHTO  H172 7706   5.324   6.370   2.503  0.3251  0.0931  0.0245
   19CHTO  H173 7707   5.320   6.523   2.572  1.1839  0.6304  0.1384
   19CHTO   C94 7708   5.425   6.401   2.261 -0.2076  0.5478  0.2636
   19CHTO  H181 7709   5.460   6.304   2.296 -1.0716 -0.1403 -0.7494
   19CHTO   O61 7710   5.520   6.459   2.170 -0.2250  0.3077 -0.3489
   19CHTO   C95 7711   5.653   6.447   2.224 -0.1837  0.3254 -0.5429
   19CHTO  H182 7712   5.667   6.348   2.266 -0.7097  0.3345 -0.3396
   19CHTO  C106 7713   5.760   6.483   2.108 -0.0047  0.7906  0.1238
   19CHTO   O69 7714   5.741   6.622   2.061  0.3254  0.3653 -0.4603
   19CHTO  H169 7715   5.703   6.628   1.976 -1.8030 -0.0336  0.4225
   19CHTO   O63 7716   5.287   6.392   2.180  0.0292 -0.0312  0.2239
   19CHTO   C96 7717   5.286   6.252   2.111  0.4468 -0.4180 -0.0030
   19CHTO  H183 7718   5.391   6.225   2.107  0.7243  0.8000 -1.3312
   19CHTO   C98 7719   5.228   6.265   1.964  0.2082 -0.6253 -1.1091
   19CHTO  H185 7720   5.277   6.346   1.907 -1.8552  0.9760 -0.6701
   19CHTO   O67 7721   5.260   6.147   1.892  0.3791  0.0767  0.2323
   19CHTO  H167 7722   5.220   6.155   1.807  3.5060 -0.2197 -1.3746
   19CHTO  C102 7723   5.069   6.294   1.969 -0.6946 -0.4924 -0.3787
   19CHTO  H189 7724   5.033   6.270   1.868  1.2128 -2.1939 -0.7000
   19CHTO   N18 7725   5.039   6.434   1.999 -0.2730  0.5143 -0.0084
   19CHTO  H176 7726   4.933   6.446   2.012 -0.6246 -1.2541 -1.0674
   19CHTO  H177 7727   5.081   6.461   2.095 -0.2678  0.1274  0.1008
   19CHTO  C105 7728   4.991   6.192   2.067 -0.3137 -0.1159  0.2931
   19CHTO  H192 7729   4.887   6.222   2.077  0.5930  2.9563  0.9898
   19CHTO   O65 7730   5.058   6.185   2.192  0.6090 -0.1951  0.7541
   19CHTO  C100 7731   5.194   6.150   2.209 -0.4245 -0.2041 -0.5290
   19CHTO  H187 7732   5.232   6.170   2.311  1.6570 -1.9835 -0.9232
   19CHTO  C107 7733   5.214   6.000   2.194 -0.4346  0.0444 -0.0152
   19CHTO   O70 7734   5.347   5.947   2.226  0.3289 -0.2534  0.2985
   19CHTO  H170 7735   5.386   5.997   2.295 -0.5659 -1.6417  1.8242
   19CHTO   O57 7736   4.994   6.064   1.981  0.3512  0.6914  0.0064
   19CHTO   C85 7737   4.883   6.004   1.907  0.1180  0.0458  0.3290
   19CHTO  H157 7738   4.801   5.985   1.979 -0.0173  1.0928  0.4671
   19CHTO   C83 7739   4.940   5.861   1.862 -0.4584 -0.5593 -0.1224
   19CHTO  H155 7740   4.952   5.805   1.955  1.2366  1.1677  0.7134
   19CHTO   O56 7741   5.064   5.886   1.804 -0.5924  0.0802 -0.1259
   19CHTO  H135 7742   5.111   5.955   1.847 -3.2677  1.0645  1.3483
   19CHTO   C81 7743   4.847   5.786   1.770  0.6117  0.1343  0.8348
   19CHTO  H153 7744   4.753   5.766   1.821  0.5902 -1.2547  0.2675
   19CHTO   N14 7745   4.898   5.650   1.730  0.2463 -0.0562 -0.0335
   19CHTO  H141 7746   4.866   5.621   1.632 -0.0480 -2.3439  0.7024
   19CHTO  H142 7747   4.845   5.586   1.798  1.2909  0.9789  1.7888
   19CHTO   C79 7748   4.808   5.875   1.644 -0.4069 -0.1421  0.2210
   19CHTO  H151 7749   4.732   5.820   1.589 -0.3927  0.3023 -0.2456
   19CHTO   O52 7750   4.744   5.999   1.678  0.2146  0.2754  0.5657
   19CHTO   C86 7751   4.828   6.077   1.773  0.2962 -0.9896  0.3266
   19CHTO  H158 7752   4.910   6.119   1.711  1.2829 -1.7242  1.1261
   19CHTO   C90 7753   4.735   6.195   1.803  0.1609 -0.3706  0.6955
   19CHTO   O60 7754   4.608   6.166   1.858  0.3237  0.0164  0.4570
   19CHTO  H138 7755   4.549   6.114   1.807 -1.4806  1.1811  1.2911
   19CHTO   O50 7756   4.918   5.911   1.547  0.7988  0.0735 -0.1833
   19CHTO   C73 7757   4.973   5.957   1.421 -0.0714  0.2306 -0.9235
   19CHTO  H145 7758   4.948   5.883   1.344 -1.8416 -0.4980  0.3330
   19CHTO   C74 7759   5.127   5.965   1.422  0.8920  0.3059 -0.6033
   19CHTO  H146 7760   5.150   5.864   1.460  1.7056  0.3523 -0.9684
   19CHTO   O54 7761   5.180   5.974   1.288  0.1736  0.5398  0.3291
   19CHTO  H133 7762   5.155   5.897   1.241  2.1471 -0.7028  1.2387
   19CHTO   C75 7763   5.180   6.073   1.515 -0.2392  0.4035 -0.2175
   19CHTO  H147 7764   5.135   6.053   1.614  0.1697  1.4878  0.1948
   19CHTO   N13 7765   5.330   6.078   1.518  0.0231  0.6134 -0.3630
   19CHTO  H139 7766   5.370   6.099   1.617 -1.2425  3.6805 -0.4391
   19CHTO  H140 7767   5.370   6.143   1.442  1.3504  0.0459 -0.1590
   19CHTO   C76 7768   5.118   6.211   1.474 -0.5084  0.0390 -0.1039
   19CHTO  H148 7769   5.156   6.234   1.375 -0.9550 -3.7306 -1.2293
   19CHTO   O49 7770   4.970   6.205   1.467 -0.2282 -0.1144  0.1118
   19CHTO   C77 7771   4.916   6.100   1.388 -0.4179  0.8946 -0.2823
   19CHTO  H149 7772   4.940   6.120   1.283  2.4136 -1.9234 -0.2440
   19CHTO   C88 7773   4.771   6.132   1.401  0.5261 -0.1112  0.4385
   19CHTO   O58 7774   4.691   6.036   1.314  0.3310  0.1959 -0.5164
   19CHTO  H136 7775   4.688   5.951   1.354 -0.4979  1.5085  2.3626
   19CHTO   O51 7776   5.143   6.311   1.576  0.2363  0.0022 -0.2030
   19CHTO   C78 7777   5.135   6.467   1.512 -0.1700 -0.3944 -0.1844
   19CHTO  H150 7778   5.089   6.469   1.411 -0.0486 -0.2662 -0.2370
   19CHTO   C80 7779   5.271   6.532   1.507  0.2147 -0.2346  0.0129
   19CHTO  H152 7780   5.322   6.517   1.604  0.8337 -0.7034 -0.3815
   19CHTO   O55 7781   5.336   6.449   1.410  0.3024  0.2704  0.2342
   19CHTO  H134 7782   5.421   6.486   1.400  0.9901 -1.6899 -1.6649
   19CHTO   C84 7783   5.272   6.688   1.470  0.2529  0.1524  0.0000
   19CHTO  H156 7784   5.238   6.697   1.367  1.0529 -0.8221 -0.3549
   19CHTO   N15 7785   5.409   6.755   1.476  0.0876 -0.0457  0.1231
   19CHTO  H143 7786   5.486   6.698   1.428 -1.5446 -1.1654 -1.2411
   19CHTO  H144 7787   5.397   6.851   1.431  2.2797 -0.6294 -1.8202
   19CHTO   C87 7788   5.170   6.766   1.559  0.4070  0.4385 -0.3027
   19CHTO  H159 7789   5.206   6.774   1.661  1.8782 -0.2318 -0.7517
   19CHTO   O53 7790   5.049   6.686   1.560  0.1926  0.0373  0.5733
   19CHTO   C82 7791   5.053   6.553   1.606 -0.0960  0.2865  0.3565
   19CHTO  H154 7792   5.108   6.554   1.701 -0.4938 -0.5886  0.5968
   19CHTO   C89 7793   4.909   6.500   1.633  0.3675 -0.0438  0.6797
   19CHTO   O59 7794   4.845   6.567   1.744 -0.3935  0.2879 -0.6016
   19CHTO  H137 7795   4.867   6.514   1.819  0.5043 -1.6306 -2.1732
   19CHTO   O45 7796   5.142   6.915   1.479  0.4428 -0.2762 -0.6373
   19CHTO   C67 7797   5.065   7.013   1.563  0.0867  0.0227 -0.2963
   19CHTO  H124 7798   5.028   6.965   1.654  1.8264 -0.4614  0.1839
   19CHTO   C65 7799   5.157   7.142   1.607 -1.1043  0.2575 -0.0186
   19CHTO  H122 7800   5.220   7.163   1.521 -0.4225  0.4964  0.5346
   19CHTO   O44 7801   5.246   7.099   1.707  0.6031 -1.0726 -0.3911
   19CHTO  H102 7802   5.302   7.032   1.676  0.8237 -0.8071 -0.5673
   19CHTO   C63 7803   5.069   7.274   1.625  0.3967  0.4616 -0.1301
   19CHTO  H120 7804   5.049   7.309   1.523 -0.7173 -1.3314 -0.5498
   19CHTO   N11 7805   5.127   7.393   1.699 -0.2854 -0.0901  0.8976
   19CHTO  H108 7806   5.215   7.355   1.746 -0.0188 -1.3877 -0.6284
   19CHTO  H109 7807   5.063   7.447   1.766  2.0751  2.3914  1.2805
   19CHTO   C61 7808   4.927   7.226   1.680 -0.0969  0.4951  0.4050
   19CHTO  H118 7809   4.863   7.315   1.689  3.6447  3.7999 -3.7725
   19CHTO   O40 7810   4.862   7.142   1.586  0.2123 -0.4004  0.2675
   19CHTO   C68 7811   4.942   7.061   1.490 -0.4771 -0.1554  0.7031
   19CHTO  H125 7812   4.964   7.126   1.403  0.4160 -0.8042  0.4372
   19CHTO   C72 7813   4.857   6.941   1.435  0.0936  0.1835  0.5673
   19CHTO   O48 7814   4.820   6.843   1.534  0.2509 -0.1320  0.5810
   19CHTO  H105 7815   4.795   6.762   1.494  0.0479 -0.6910  1.8319
   19CHTO   O38 7816   4.937   7.146   1.801 -0.3573  0.4818  0.2576
   19CHTO   C55 7817   4.825   7.143   1.882  0.8703 -0.7090 -1.0027
   19CHTO  H112 7818   4.738   7.146   1.814 -0.2519 -0.9728  0.3974
   19CHTO   C56 7819   4.819   7.263   1.986  0.3177 -0.1241 -0.3827
   19CHTO  H113 7820   4.904   7.261   2.056 -0.2569  1.5537  0.3816
   19CHTO   O42 7821   4.830   7.388   1.922  0.1580  0.1099  0.6471
   19CHTO  H100 7822   4.905   7.390   1.867  0.5631  0.0828  1.1880
   19CHTO   C57 7823   4.682   7.256   2.060 -0.2823  0.2778  0.2995
   19CHTO  H114 7824   4.610   7.283   1.982 -0.0393 -0.4075 -0.1586
   19CHTO   N10 7825   4.677   7.362   2.170  0.3039  1.1184 -0.3041
   19CHTO  H106 7826   4.574   7.392   2.181  0.4363  1.6848 -0.6387
   19CHTO  H107 7827   4.740   7.447   2.147  1.9948  0.6945  2.4487
   19CHTO   C58 7828   4.654   7.111   2.114  0.3212  0.5419 -0.3815
   19CHTO  H115 7829   4.712   7.097   2.208 -0.9409 -0.1992  0.3150
   19CHTO   O37 7830   4.685   7.009   2.021  0.7086  0.1060  0.7307
   19CHTO   C59 7831   4.810   7.010   1.955  0.1304 -0.3150 -0.7053
   19CHTO  H116 7832   4.893   7.002   2.026 -0.3176  0.8936 -0.0183
   19CHTO   C70 7833   4.817   6.886   1.867  0.0270  0.4691  0.5669
   19CHTO   O46 7834   4.688   6.850   1.815  0.6055  0.3400 -0.0673
   19CHTO  H103 7835   4.645   6.800   1.881 -0.3291 -1.2735 -1.8671
   19CHTO   O39 7836   4.512   7.103   2.163  0.0788  0.3722 -0.4339
   19CHTO   C60 7837   4.413   7.054   2.070  0.4171 -0.3742  0.0443
   19CHTO  H117 7838   4.448   7.065   1.967  0.7308  1.3811  0.3110
   19CHTO   C62 7839   4.385   6.902   2.082  0.3553 -0.4240 -0.2913
   19CHTO  H119 7840   4.483   6.852   2.096  0.1826 -0.4046  1.0264
   19CHTO   O43 7841   4.322   6.876   2.213 -0.2648  0.4656  0.5317
   19CHTO  H101 7842   4.295   6.788   2.229 -0.0732 -0.0178 -1.6687
   19CHTO   C66 7843   4.308   6.850   1.956  0.1835  0.0478  0.0385
   19CHTO  H123 7844   4.377   6.873   1.874  0.7781 -2.8900 -0.3228
   19CHTO   N12 7845   4.284   6.698   1.945 -0.4188  0.1124  0.1703
   19CHTO  H110 7846   4.246   6.673   1.847  0.9651  0.4403 -0.4628
   19CHTO  H111 7847   4.218   6.673   2.027  1.3662 -0.9897  1.2901
   19CHTO   C69 7848   4.172   6.932   1.937  0.2119 -0.0139 -0.0745
   19CHTO  H126 7849   4.101   6.890   2.011 -1.1106  1.3577 -0.5294
   19CHTO   O41 7850   4.190   7.109   1.959 -0.0562 -0.4437  0.2588
   19CHTO   C64 7851   4.280   7.135   2.080 -0.1299  0.6913 -0.8789
   19CHTO  H121 7852   4.236   7.101   2.175  0.1233 -1.1448 -1.3928
   19CHTO   C71 7853   4.315   7.293   2.084 -0.1313 -0.5680 -0.6087
   19CHTO   O47 7854   4.201   7.359   2.135  0.6188 -0.2424 -0.6956
   19CHTO  H104 7855   4.207   7.451   2.153 -1.1868  0.0826 -1.5975
   19CHTO   O34 7856   4.123   6.923   1.778 -0.1035  0.4290  0.5244
   19CHTO   C49 7857   4.193   6.979   1.649 -0.4379 -0.1760 -0.2557
   19CHTO   H91 7858   4.169   7.085   1.642  0.1612  0.1137  1.5978
   19CHTO   C47 7859   4.120   6.921   1.532  0.2238 -0.4768  0.0143
   19CHTO   H89 7860   4.158   6.975   1.443  0.2733  0.5008  0.6265
   19CHTO   O33 7861   3.980   6.951   1.546 -0.3340  0.3166 -0.1987
   19CHTO   H70 7862   3.937   6.941   1.463  1.0377 -1.5334 -0.7291
   19CHTO   C45 7863   4.152   6.773   1.527  0.5412  0.7598  0.1059
   19CHTO   H87 7864   4.121   6.732   1.624  0.1802 -0.3217 -0.4601
   19CHTO    N8 7865   4.076   6.704   1.415  0.3684  0.0878  0.0483
   19CHTO   H75 7866   4.116   6.715   1.315 -1.3425 -1.8126 -0.8973
   19CHTO   H76 7867   3.976   6.745   1.420 -0.4739 -1.6393 -1.7643
   19CHTO   C43 7868   4.310   6.751   1.519  0.9873  0.1549 -0.2431
   19CHTO   H85 7869   4.328   6.644   1.532  1.0447 -0.1235 -2.3821
   19CHTO   O29 7870   4.385   6.832   1.608 -0.1804  0.5628  0.5972
   19CHTO   C50 7871   4.340   6.963   1.640  0.4807 -0.0854 -0.6590
   19CHTO   H92 7872   4.376   7.004   1.736 -2.5068 -2.5949  1.6155
   19CHTO   C54 7873   4.405   7.061   1.540  0.3221 -0.5462 -0.4277
   19CHTO   O36 7874   4.545   7.041   1.534 -0.3846 -0.1556  0.2984
   19CHTO   H72 7875   4.583   7.029   1.449 -3.4532  0.0869 -1.1791
   19CHTO   O27 7876   4.360   6.780   1.392  0.4939  0.4201 -0.1658
   19CHTO   C37 7877   4.428   6.780   1.261 -0.4564 -1.4147 -0.6315
   19CHTO   H79 7878   4.394   6.694   1.202  1.2888 -0.3354 -3.2930
   19CHTO   C38 7879   4.394   6.910   1.180 -0.5327 -0.0715 -0.6694
   19CHTO   H80 7880   4.388   6.994   1.252  0.1222 -0.7232  0.1516
   19CHTO   O31 7881   4.260   6.904   1.135 -0.0639 -0.2754 -0.4279
   19CHTO   H68 7882   4.204   6.891   1.209 -0.5138 -1.5332 -0.9901
   19CHTO   C39 7883   4.489   6.926   1.060  0.1980 -0.3426  0.4028
   19CHTO   H81 7884   4.453   6.847   0.995  1.9404 -0.5779 -0.3110
   19CHTO    N7 7885   4.475   7.058   0.987  0.1090 -0.5859 -0.1025
   19CHTO   H73 7886   4.373   7.082   0.963  0.3677  0.1147 -0.5351
   19CHTO   H74 7887   4.527   7.050   0.892  1.8446  0.9762  0.6862
   19CHTO   C40 7888   4.642   6.902   1.101  0.3521  0.4404 -0.8219
   19CHTO   H82 7889   4.686   6.981   1.163  1.3577  0.8818 -2.0887
   19CHTO   O26 7890   4.654   6.772   1.164  0.1559  0.2728  0.1935
   19CHTO   C41 7891   4.576   6.758   1.288 -0.9868  0.5049  0.8684
   19CHTO   H83 7892   4.611   6.841   1.351 -1.3724  2.3573 -1.2780
   19CHTO   C52 7893   4.613   6.624   1.354  0.3382  0.5784 -0.0203
   19CHTO   O35 7894   4.559   6.601   1.497  0.2758  0.5457 -0.3879
   19CHTO   H71 7895   4.517   6.518   1.504 -2.0043  1.6809 -0.0427
   19CHTO   O28 7896   4.728   6.894   0.991 -0.5666  0.0004  0.1072
   19CHTO   C42 7897   4.865   6.946   0.991  0.2505  0.7255 -0.4315
   19CHTO   H84 7898   4.865   7.006   1.082  0.0741  0.9721 -0.5929
   19CHTO   C44 7899   4.894   7.049   0.876 -1.0370 -0.2027  0.7519
   19CHTO   H86 7900   4.869   7.004   0.780 -0.4923  1.0746  0.0062
   19CHTO   O32 7901   4.801   7.155   0.896  0.0656  0.3238  0.5291
   19CHTO   H69 7902   4.838   7.229   0.853  1.2382 -0.2867  0.4719
   19CHTO   C48 7903   5.047   7.092   0.874  0.9757  0.2823  0.4278
   19CHTO   H90 7904   5.063   7.145   0.968  0.9255 -1.0961  1.2205
   19CHTO    N9 7905   5.076   7.179   0.757 -0.4476  0.3451  0.3585
   19CHTO   H77 7906   4.993   7.178   0.687  1.0058  0.5149 -1.4067
   19CHTO   H78 7907   5.107   7.277   0.787 -0.4575  1.4044 -2.8686
   19CHTO   C51 7908   5.142   6.967   0.884  0.6853  0.1631  0.4238
   19CHTO   H93 7909   5.132   6.903   0.797 -1.0381  0.3995  0.4254
   19CHTO   O30 7910   5.110   6.898   1.011 -0.8045  0.4692 -0.3956
   19CHTO   C46 7911   4.969   6.836   1.006 -0.0353 -0.8007  0.3182
   19CHTO   H88 7912   4.970   6.774   0.917  1.1521 -0.2939 -0.0306
   19CHTO   C53 7913   4.956   6.740   1.129  0.2116 -1.1284 -0.0979
   19CHTO   O72 7914   5.043   6.626   1.140 -0.1504  0.5410  0.1667
   19CHTO  H199 7915   5.111   6.628   1.075 -0.8189  4.7715 -0.5531
   19CHTO   O22 7916   5.274   7.012   0.900  0.5001 -0.2741 -0.0554
   19CHTO   C31 7917   5.382   6.929   0.844 -0.3598 -0.1375  0.1827
   19CHTO   H59 7918   5.337   6.831   0.820 -0.3463 -0.5074  1.6302
   19CHTO   C29 7919   5.426   6.994   0.714 -1.2289 -0.3854  0.3497
   19CHTO   H57 7920   5.475   7.089   0.741  0.1558 -0.8417 -0.5133
   19CHTO   O21 7921   5.319   7.019   0.627  0.8963  0.0995 -0.3246
   19CHTO   H37 7922   5.303   6.960   0.556 -2.6859  1.6246 -0.9047
   19CHTO   C27 7923   5.539   6.910   0.634  0.1858 -0.5641  0.2620
   19CHTO   H55 7924   5.500   6.814   0.597  2.1270 -0.8717 -1.0228
   19CHTO    N5 7925   5.608   6.980   0.528  1.0698 -0.2813  0.1543
   19CHTO   H43 7926   5.641   6.908   0.454  0.8553  1.6518 -1.8498
   19CHTO   H44 7927   5.545   7.052   0.480  0.0675 -0.4980  1.1217
   19CHTO   C25 7928   5.648   6.849   0.734 -0.7672 -0.3153 -0.3573
   19CHTO   H53 7929   5.726   6.920   0.763 -1.6731  0.4728  0.1485
   19CHTO   O17 7930   5.590   6.815   0.865 -0.1447 -0.3454  0.1649
   19CHTO   C32 7931   5.502   6.902   0.940 -0.3199 -0.4037  0.4230
   19CHTO   H60 7932   5.551   6.997   0.961 -2.6658  0.6868  1.1547
   19CHTO   C36 7933   5.467   6.844   1.081 -0.0257  0.6825  0.3846
   19CHTO   O25 7934   5.589   6.822   1.151  0.1415  0.3121  0.0704
   19CHTO   H40 7935   5.650   6.764   1.109  1.1660  1.4419 -0.0517
   19CHTO   O15 7936   5.717   6.728   0.683  0.2435  0.0141  0.1280
   19CHTO   C19 7937   5.707   6.588   0.689  0.1460  0.4162  0.7189
   19CHTO   H47 7938   5.714   6.560   0.795 -0.3890 -1.1366  0.3663
   19CHTO   C20 7939   5.567   6.522   0.655 -0.2766 -0.2599 -0.1947
   19CHTO   H48 7940   5.528   6.560   0.559 -0.6196  0.1655  0.1124
   19CHTO   O19 7941   5.480   6.574   0.755  0.6351  0.1843  0.6074
   19CHTO   H35 7942   5.417   6.515   0.792 -1.5109  0.2371 -2.7047
   19CHTO   C21 7943   5.561   6.367   0.669 -0.0085 -0.5931  0.0312
   19CHTO   H49 7944   5.570   6.339   0.773  2.1032 -0.9405 -0.2218
   19CHTO    N4 7945   5.426   6.308   0.629  0.3968  0.2687  0.5865
   19CHTO   H41 7946   5.348   6.354   0.687  1.0195  0.5559  1.2009
   19CHTO   H42 7947   5.400   6.322   0.525  1.6510  1.6617  0.4450
   19CHTO   C22 7948   5.680   6.317   0.590  0.2929 -0.3376 -0.0921
   19CHTO   H50 7949   5.666   6.331   0.482  3.1006 -0.2002 -0.4711
   19CHTO   O14 7950   5.809   6.376   0.632  0.2561  0.6603  0.2191
   19CHTO   C23 7951   5.829   6.516   0.619 -0.1548  0.3609  0.1200
   19CHTO   H51 7952   5.833   6.540   0.512 -0.8874  1.9474  0.4313
   19CHTO   C34 7953   5.960   6.557   0.681 -0.6870 -0.1800 -0.2436
   19CHTO   O23 7954   6.072   6.493   0.623  0.3109  0.0515 -0.0900
   19CHTO   H38 7955   6.141   6.504   0.685  0.1274 -0.0866  0.1393
   19CHTO   O16 7956   5.711   6.177   0.617 -0.3157 -0.2148  0.5472
   19CHTO   C24 7957   5.764   6.083   0.510  0.6797  0.5164  1.2732
   19CHTO   H52 7958   5.872   6.072   0.511  0.5347 -1.2386  0.2781
   19CHTO   C26 7959   5.724   6.125   0.365  0.3761  0.5664  0.1165
   19CHTO   H54 7960   5.620   6.162   0.368 -0.3858 -1.5085  0.4098
   19CHTO   O20 7961   5.812   6.232   0.333  0.1382 -0.3105  0.7517
   19CHTO   H36 7962   5.904   6.221   0.320  0.1180  1.3530 -1.1649
   19CHTO   C30 7963   5.719   6.008   0.265 -0.0467  0.3295  0.3141
   19CHTO   H58 7964   5.818   5.963   0.252 -0.2550 -0.1191  0.2632
   19CHTO    N6 7965   5.666   6.058   0.131  0.3868 -0.3216 -0.4638
   19CHTO   H45 7966   5.749   6.073   0.063  1.9988 -2.8241  0.8987
   19CHTO   H46 7967   5.608   5.978   0.087  0.7384  0.6351 -2.7653
   19CHTO   C33 7968   5.645   5.889   0.327 -0.6935 -0.1188 -0.1413
   19CHTO   H61 7969   5.544   5.923   0.352 -1.4672 -0.3299 -2.8476
   19CHTO   O18 7970   5.709   5.843   0.449  0.1999 -0.0064 -0.2931
   19CHTO   C28 7971   5.693   5.949   0.551  0.0359  0.2922 -0.3543
   19CHTO   H56 7972   5.588   5.970   0.568  0.5822  1.9634  1.0804
   19CHTO   C35 7973   5.739   5.884   0.690  0.5155  0.1650  0.0529
   19CHTO   O24 7974   5.647   5.779   0.724 -0.7218 -0.8106 -0.5958
   19CHTO   H39 7975   5.692   5.703   0.756 -1.3895 -1.0053 -0.1139
   19CHTO    O9 7976   5.630   5.780   0.233 -0.1105 -0.1549  0.3850
   19CHTO   C13 7977   5.495   5.722   0.188 -0.4569 -0.1196  0.7955
   19CHTO   H26 7978   5.462   5.784   0.102  3.1875  0.0969 -0.5489
   19CHTO   C11 7979   5.384   5.718   0.303 -0.1738  0.5926 -0.5091
   19CHTO   H24 7980   5.363   5.821   0.335 -0.1208  1.1476 -2.1888
   19CHTO    O8 7981   5.431   5.655   0.422  0.2690  0.0170  0.3496
   19CHTO    H3 7982   5.367   5.615   0.477 -1.1374  0.4242 -0.9723
   19CHTO    C9 7983   5.251   5.653   0.250  0.6486  0.0847  0.0243
   19CHTO   H22 7984   5.220   5.712   0.162  0.3101 -1.9807 -1.2537
   19CHTO    N2 7985   5.143   5.663   0.352  0.1077 -0.3401  0.0140
   19CHTO   H10 7986   5.151   5.760   0.399  1.4133  0.3498 -1.5500
   19CHTO   H11 7987   5.047   5.648   0.306 -0.1070  0.8160  0.0707
   19CHTO    C7 7988   5.278   5.505   0.206 -1.0030  0.5005 -0.3105
   19CHTO   H20 7989   5.186   5.468   0.156 -1.3190 -0.7554  1.1593
   19CHTO    O4 7990   5.375   5.509   0.109 -0.0318  0.0474  0.3340
   19CHTO   C14 7991   5.504   5.576   0.126 -0.2582  0.0935  0.8748
   19CHTO   H27 7992   5.550   5.596   0.027 -0.5193 -1.4034  0.4393
   19CHTO   C18 7993   5.607   5.493   0.211  0.1038 -0.1326  0.0683
   19CHTO   O13 7994   5.639   5.373   0.143  0.4038  0.2193  0.0525
   19CHTO    H7 7995   5.700   5.332   0.202 -1.3889  0.2153  1.9323
   19CHTO    O2 7996   5.336   5.396   0.320  0.5927 -0.2549  0.0787
   19CHTO    C1 7997   5.308   5.254   0.316 -0.0613  0.1853  0.0227
   19CHTO   H14 7998   5.405   5.201   0.328 -1.3163 -1.7690  1.8421
   19CHTO    C2 7999   5.233   5.207   0.185 -0.6429  0.2707  0.4074
   19CHTO   H15 8000   5.146   5.272   0.167 -0.3355  0.2412 -1.2487
   19CHTO    O6 8001   5.331   5.219   0.074  1.0578  0.1651 -0.2394
   19CHTO    H1 8002   5.320   5.296   0.022  3.1239  0.7037  0.0888
   19CHTO    C3 8003   5.175   5.054   0.198 -0.3049 -0.4770  0.1338
   19CHTO   H16 8004   5.255   4.979   0.203 -0.5575 -0.8021 -0.6968
   19CHTO    N1 8005   5.095   5.014   0.081  0.2457 -0.2449 -0.6107
   19CHTO    H8 8006   5.147   4.947   0.013  1.3204 -0.3979  0.3437
   19CHTO    H9 8007   5.051   5.099   0.032 -2.1558 -1.2936 -0.3300
   19CHTO    C4 8008   5.104   5.053   0.337  0.8387  0.3484 -0.1285
   19CHTO   H17 8009   5.013   5.114   0.339  1.7873  1.7605  2.4943
   19CHTO    O1 8010   5.194   5.079   0.441  0.3145 -0.1290  0.9960
   19CHTO    C5 8011   5.227   5.223   0.441 -0.1792  0.3951  0.3115
   19CHTO   H18 8012   5.146   5.295   0.448  0.4155  1.0166  0.8868
   19CHTO   C16 8013   5.320   5.240   0.572 -0.6325  0.2323 -0.5174
   19CHTO   O11 8014   5.281   5.160   0.682 -0.1662  0.1991 -0.1905
   19CHTO    H5 8015   5.209   5.191   0.734 -1.1287 -1.8229 -0.2538
   19CHTO    O3 8016   5.069   4.917   0.371  0.1285  0.3011 -0.2238
   19CHTO    C6 8017   4.940   4.900   0.450 -0.4027 -0.2005 -0.5995
   19CHTO   H19 8018   4.919   4.992   0.505 -2.0021 -1.3238  0.7129
   19CHTO    C8 8019   4.818   4.841   0.371 -0.0208 -0.5675  0.4971
   19CHTO   H21 8020   4.852   4.746   0.329 -1.3863 -0.9256  0.1596
   19CHTO    O7 8021   4.785   4.931   0.264  0.5150 -0.3261 -0.4174
   19CHTO    H2 8022   4.790   5.023   0.279 -2.0098 -0.0657 -0.9286
   19CHTO   C12 8023   4.699   4.807   0.465 -0.0168  0.3504 -0.0092
   19CHTO   H25 8024   4.663   4.910   0.485  0.8721  0.9193 -1.2370
   19CHTO    N3 8025   4.597   4.726   0.390 -0.3586  0.0417  0.6925
   19CHTO   H12 8026   4.567   4.646   0.455  1.7524  0.1150  1.8135
   19CHTO   H13 8027   4.515   4.795   0.381 -0.7496 -0.3442  1.2941
   19CHTO   C15 8028   4.737   4.744   0.603 -0.1618 -0.8345 -0.7319
   19CHTO   H28 8029   4.744   4.636   0.609 -0.0922 -0.8229 -0.5981
   19CHTO   O10 8030   4.631   4.781   0.711  0.0166  0.1034  0.2788
   19CHTO    H4 8031   4.542   4.752   0.699  0.9397 -2.5461 -0.4752
   19CHTO    O5 8032   4.857   4.797   0.657 -0.4264  0.0343  0.1511
   19CHTO   C10 8033   4.965   4.791   0.563 -0.3102 -0.7192 -0.8286
   19CHTO   H23 8034   4.961   4.692   0.517 -0.2102 -0.3625 -1.6119
   19CHTO   C17 8035   5.099   4.812   0.634 -0.8968 -0.9978  0.0307
   19CHTO   O12 8036   5.129   4.697   0.715 -0.2612 -0.2882  0.6168
   19CHTO    H6 8037   5.146   4.624   0.659 -2.4693 -2.2827  2.4304
   20CHTO  H203 8038   5.768   0.239   1.805  0.1419 -0.1586  2.4448
   20CHTO   O82 8039   5.815   0.320   1.810  0.3122 -0.0616 -0.2909
   20CHTO  C123 8040   5.762   0.410   1.910 -0.2912 -0.0385 -0.4443
   20CHTO  H227 8041   5.760   0.364   2.010 -0.7939  0.8533 -0.0477
   20CHTO   O77 8042   5.853   0.521   1.917 -0.0137  0.2456 -0.0436
   20CHTO  C118 8043   5.802   0.634   1.993 -0.5114  0.2495 -0.7723
   20CHTO  H222 8044   5.779   0.602   2.095 -1.5803 -2.7646 -1.9172
   20CHTO  C125 8045   5.913   0.747   1.996  0.5596 -0.7133  0.1840
   20CHTO   O84 8046   6.037   0.686   2.034 -0.4020 -0.1087  0.5725
   20CHTO  H205 8047   6.095   0.704   1.963 -2.3397  1.8903 -0.5400
   20CHTO  C114 8048   5.669   0.685   1.937 -0.1774 -0.2534  0.2575
   20CHTO  H218 8049   5.683   0.726   1.837 -0.5158  0.6210  0.5564
   20CHTO  C116 8050   5.563   0.580   1.941  0.4375  0.0670  0.3135
   20CHTO  H220 8051   5.539   0.550   2.046  2.1501 -0.1530  0.6578
   20CHTO   O79 8052   5.438   0.631   1.890  0.7837  0.1715  0.2483
   20CHTO  H201 8053   5.391   0.674   1.959  1.2983  0.1477  0.6164
   20CHTO  C120 8054   5.614   0.453   1.866 -0.6229  0.9005 -0.6434
   20CHTO  H224 8055   5.611   0.480   1.759  0.8919 -0.0839 -0.9529
   20CHTO   N21 8056   5.522   0.340   1.882 -0.6025  0.1913  0.2436
   20CHTO  H211 8057   5.447   0.361   1.957 -0.7308 -2.6634  0.9791
   20CHTO  H212 8058   5.475   0.326   1.786 -0.8025  1.7221  0.1039
   20CHTO   O75 8059   5.640   0.798   2.023  0.3051  0.7247  0.5240
   20CHTO  C112 8060   5.549   0.913   1.963  0.9260  0.1239  0.0100
   20CHTO  H216 8061   5.456   0.918   2.021  1.3137 -1.7703  0.8451
   20CHTO   O73 8062   5.524   0.890   1.820 -1.0949  0.0909  0.0178
   20CHTO  C113 8063   5.453   0.995   1.750 -0.5155 -0.0896 -0.0813
   20CHTO  H217 8064   5.360   1.011   1.808  0.2180 -1.3815  1.5098
   20CHTO  C124 8065   5.433   0.961   1.607 -0.0730 -0.0400 -0.3688
   20CHTO   O83 8066   5.348   0.842   1.597 -0.1705 -0.1984 -0.4403
   20CHTO  H204 8067   5.327   0.820   1.508 -0.1794 -0.3256 -0.4068
   20CHTO  C109 8068   5.528   1.134   1.763  0.2002  0.2190  1.0221
   20CHTO  H213 8069   5.621   1.133   1.704 -0.3863  2.4210  0.0202
   20CHTO  C110 8070   5.558   1.161   1.910  0.4027 -0.1994  0.2665
   20CHTO  H214 8071   5.467   1.184   1.964 -0.0767 -0.8706 -0.2446
   20CHTO   O78 8072   5.626   1.282   1.918 -0.4041  0.0909 -0.3138
   20CHTO  H200 8073   5.715   1.274   1.891 -0.2440  0.2401  0.1689
   20CHTO  C111 8074   5.632   1.051   1.984 -0.0670  0.4973 -0.8484
   20CHTO  H215 8075   5.732   1.040   1.939  0.1624 -0.4399 -0.1175
   20CHTO   N19 8076   5.649   1.072   2.132  0.2675  0.6856 -0.2284
   20CHTO  H207 8077   5.601   1.161   2.169  0.1665  0.6149 -0.1893
   20CHTO  H208 8078   5.756   1.064   2.147  0.1562  1.8489  1.2665
   20CHTO   O74 8079   5.438   1.237   1.710  0.0332  0.1814  0.8192
   20CHTO  C115 8080   5.499   1.354   1.627 -0.2839  0.5640  0.1124
   20CHTO  H219 8081   5.547   1.431   1.688  0.9966  0.9029 -1.2850
   20CHTO   O76 8082   5.618   1.305   1.518  0.2994 -0.5483 -0.7176
   20CHTO  C122 8083   5.587   1.310   1.380 -0.4156  0.0127 -0.4488
   20CHTO  H226 8084   5.547   1.213   1.352  0.8842 -1.1736  1.6960
   20CHTO  C126 8085   5.727   1.321   1.315  0.3940  0.0971 -0.2989
   20CHTO   O85 8086   5.804   1.437   1.352  0.1950 -0.0486  0.3150
   20CHTO  H206 8087   5.854   1.411   1.428 -1.0381 -0.8427  0.8853
   20CHTO  C121 8088   5.498   1.417   1.320  0.0875  0.2924 -0.4954
   20CHTO  H225 8089   5.556   1.478   1.248  0.4494 -0.3631 -0.7636
   20CHTO   O81 8090   5.398   1.354   1.237  0.0686  0.1158  0.4655
   20CHTO  H202 8091   5.326   1.327   1.290 -0.9162 -0.1930 -0.9912
   20CHTO  C119 8092   5.431   1.505   1.424 -0.8673  0.5362  0.6202
   20CHTO  H223 8093   5.515   1.567   1.458 -0.5558  2.5041 -3.3834
   20CHTO  C117 8094   5.382   1.432   1.562 -0.4255  0.4791  0.1530
   20CHTO  H221 8095   5.302   1.359   1.549  0.8119 -0.8304 -0.1825
   20CHTO   N20 8096   5.331   1.536   1.651 -0.2910 -0.4151 -0.4399
   20CHTO  H209 8097   5.306   1.632   1.608 -0.9845 -0.6904 -0.6640
   20CHTO  H210 8098   5.235   1.518   1.699  0.0956 -0.1220  0.4580
   20CHTO   O80 8099   5.318   1.634   1.346 -0.6299  0.1349  0.4035
   20CHTO  C103 8100   5.381   1.783   1.287  0.4758  0.0685 -0.0273
   20CHTO  H190 8101   5.311   1.862   1.314 -0.4582 -0.5846 -0.5190
   20CHTO  C101 8102   5.524   1.812   1.324  0.6924 -0.5773  0.3999
   20CHTO  H188 8103   5.580   1.719   1.312  0.4306 -0.5453 -1.1023
   20CHTO   O68 8104   5.529   1.859   1.479 -0.0697  0.1924 -0.0673
   20CHTO  H168 8105   5.586   1.934   1.484  0.1055  0.1725 -1.6651
   20CHTO   C99 8106   5.596   1.925   1.234 -0.4259 -0.3019 -0.0609
   20CHTO  H186 8107   5.565   2.028   1.259  1.8694 -0.0316  1.9522
   20CHTO   N17 8108   5.741   1.923   1.251  0.2746  0.4552  0.5784
   20CHTO  H174 8109   5.772   2.000   1.320 -0.5680  1.7389 -0.4573
   20CHTO  H175 8110   5.780   1.823   1.264 -1.1269 -0.1374  0.2181
   20CHTO   C97 8111   5.559   1.897   1.083 -0.0526 -1.0046  0.8752
   20CHTO  H184 8112   5.610   1.801   1.063 -1.5342 -1.6961  0.3225
   20CHTO   O64 8113   5.412   1.886   1.065 -0.3509  0.4978  0.0010
   20CHTO  C104 8114   5.366   1.768   1.129  0.4013 -0.2687 -0.7905
   20CHTO  H191 8115   5.426   1.684   1.096  1.1700  0.3009 -0.8404
   20CHTO  C108 8116   5.221   1.742   1.084 -0.7027 -0.1521 -0.3849
   20CHTO   O71 8117   5.120   1.826   1.144 -0.8292 -0.4571  0.2067
   20CHTO  H171 8118   5.087   1.792   1.224 -0.1733 -2.3401 -0.2987
   20CHTO   O62 8119   5.604   2.005   1.001  0.3709 -0.3674 -0.2521
   20CHTO   C91 8120   5.628   1.988   0.859 -0.0580  0.2768  0.7893
   20CHTO  H178 8121   5.633   1.880   0.841  0.8302  0.7519 -1.9996
   20CHTO   C92 8122   5.770   2.046   0.825  0.3215 -0.3198  0.3488
   20CHTO  H179 8123   5.769   2.156   0.831  0.1390 -0.3217  0.3657
   20CHTO   O66 8124   5.873   2.001   0.920  0.5807  0.5253 -0.0845
   20CHTO  H166 8125   5.884   2.061   0.992  1.5994  0.3373 -0.0761
   20CHTO   C93 8126   5.807   2.000   0.681  0.4235 -0.0557  0.0766
   20CHTO  H180 8127   5.823   1.892   0.674 -3.0908 -0.7293  1.6120
   20CHTO   N16 8128   5.938   2.067   0.638  0.9370 -0.1851 -0.6601
   20CHTO  H172 8129   5.951   2.048   0.532  2.4570 -1.7753 -0.2207
   20CHTO  H173 8130   5.930   2.172   0.659  0.3976  0.0537 -2.0095
   20CHTO   C94 8131   5.696   2.041   0.573  0.2117 -0.6425 -0.3796
   20CHTO  H181 8132   5.689   2.149   0.565  1.5323 -0.4949  0.1730
   20CHTO   O61 8133   5.578   1.987   0.617  0.1177  0.1848  0.2905
   20CHTO   C95 8134   5.531   2.045   0.743 -0.4884  0.0914  0.1248
   20CHTO  H182 8135   5.542   2.154   0.743 -0.5247  0.0966  0.3589
   20CHTO  C106 8136   5.380   2.016   0.785  0.1903 -0.1566 -0.4876
   20CHTO   O69 8137   5.326   2.105   0.887 -0.9383  0.1312  0.4434
   20CHTO  H169 8138   5.234   2.100   0.901 -0.4965 -2.4520  2.7395
   20CHTO   O63 8139   5.712   1.987   0.427  0.0735 -0.3196 -0.0804
   20CHTO   C96 8140   5.556   1.982   0.340  0.0674 -0.1071  0.1889
   20CHTO  H183 8141   5.480   1.930   0.398 -0.5778 -1.7493 -2.0146
   20CHTO   C98 8142   5.563   1.909   0.201  0.4370 -0.2281 -0.5988
   20CHTO  H185 8143   5.631   1.823   0.215  0.8002 -0.1098 -1.6027
   20CHTO   O67 8144   5.434   1.853   0.165 -0.0193  0.0277  0.2891
   20CHTO  H167 8145   5.363   1.912   0.176  0.7315  1.4154 -1.8808
   20CHTO  C102 8146   5.608   2.001   0.074 -0.3251  0.3365  0.7067
   20CHTO  H189 8147   5.589   1.936  -0.012  1.6195 -0.0180  0.5277
   20CHTO   N18 8148   5.751   2.031   0.073 -0.6279 -0.6675  0.3845
   20CHTO  H176 8149   5.804   1.939   0.058 -2.5527 -1.8450  0.5305
   20CHTO  H177 8150   5.789   2.081   0.160 -0.5303 -0.2480  0.0990
   20CHTO  C105 8151   5.530   2.139   0.079 -0.0174 -0.7751  0.3278
   20CHTO  H192 8152   5.601   2.221   0.089 -0.3180 -0.4076 -0.5046
   20CHTO   O65 8153   5.440   2.150   0.191  0.7380  0.1393  0.5446
   20CHTO  C100 8154   5.509   2.130   0.315  0.5733 -0.2957 -0.1775
   20CHTO  H187 8155   5.594   2.199   0.326  2.0791 -2.3969  1.7661
   20CHTO  C107 8156   5.407   2.178   0.425 -0.2668 -1.0854 -0.4586
   20CHTO   O70 8157   5.273   2.120   0.414 -0.0663  0.2104  0.0092
   20CHTO  H170 8158   5.207   2.162   0.465  0.2737  0.2988  0.3773
   20CHTO   O57 8159   5.460   2.154  -0.059 -0.3330  0.6163  0.5151
   20CHTO   C85 8160   5.422   2.289  -0.114 -0.0134 -0.5436 -0.4809
   20CHTO  H157 8161   5.411   2.344  -0.019  1.9301  1.5682 -1.4425
   20CHTO   C83 8162   5.284   2.287  -0.188  0.4349  0.1025 -0.1700
   20CHTO  H155 8163   5.207   2.252  -0.119  1.7671  0.9292  1.7692
   20CHTO   O56 8164   5.290   2.192  -0.303 -0.2929  0.4697  0.1936
   20CHTO  H135 8165   5.294   2.104  -0.271 -0.6090  0.3118 -0.2047
   20CHTO   C81 8166   5.254   2.439  -0.209 -0.6286  0.6418 -0.3012
   20CHTO  H153 8167   5.265   2.489  -0.113 -1.0383 -0.4275  0.3078
   20CHTO   N14 8168   5.115   2.457  -0.248 -0.8644 -0.6380 -0.1665
   20CHTO  H141 8169   5.083   2.558  -0.262  0.5196 -0.1680  0.0939
   20CHTO  H142 8170   5.054   2.411  -0.173  0.4522 -2.8766 -0.4322
   20CHTO   C79 8171   5.362   2.498  -0.306 -0.2086 -0.8259  0.1382
   20CHTO  H151 8172   5.342   2.605  -0.316 -2.6431 -1.2644  0.0419
   20CHTO   O52 8173   5.493   2.486  -0.247 -0.3506  0.1160  0.1759
   20CHTO   C86 8174   5.531   2.355  -0.206  0.4988 -0.3465 -0.4870
   20CHTO  H158 8175   5.546   2.291  -0.295  1.0945  0.1757 -0.7614
   20CHTO   C90 8176   5.676   2.370  -0.147 -0.2366  0.4079  0.0277
   20CHTO   O60 8177   5.684   2.473  -0.049 -0.1595  0.2706  0.2928
   20CHTO  H138 8178   5.637   2.548  -0.079 -0.5791  1.6366  4.1011
   20CHTO   O50 8179   5.349   2.436  -0.439  0.4299  0.4284  0.2388
   20CHTO   C73 8180   5.378   2.493  -0.568  0.2701 -0.2262 -0.1056
   20CHTO  H145 8181   5.483   2.521  -0.586 -0.5520  2.9889 -0.2353
   20CHTO   C74 8182   5.288   2.621  -0.592 -0.4098 -0.0762 -0.5236
   20CHTO  H146 8183   5.306   2.689  -0.508 -0.5833 -1.3441  0.5646
   20CHTO   O54 8184   5.343   2.686  -0.708 -0.0589  0.0053  0.5862
   20CHTO  H133 8185   5.376   2.773  -0.696  0.0621  0.0008  0.2851
   20CHTO   C75 8186   5.137   2.581  -0.609 -0.1015  0.6900 -0.4087
   20CHTO  H147 8187   5.099   2.549  -0.511 -0.9440  1.8299 -0.3543
   20CHTO   N13 8188   5.052   2.691  -0.650 -0.7689  0.1332 -0.4189
   20CHTO  H139 8189   5.061   2.776  -0.584  1.1174  0.3077 -0.8606
   20CHTO  H140 8190   5.081   2.724  -0.749  1.3557 -0.5660 -0.0575
   20CHTO   C76 8191   5.112   2.455  -0.701  0.0517  0.2561  0.0874
   20CHTO  H148 8192   5.133   2.481  -0.805  2.8661 -2.7127 -0.1639
   20CHTO   O49 8193   5.202   2.353  -0.666  0.2475  0.1779  0.0258
   20CHTO   C77 8194   5.338   2.394  -0.677 -0.0187 -0.0961  0.7437
   20CHTO  H149 8195   5.358   2.448  -0.770  1.1296 -0.8812  0.5249
   20CHTO   C88 8196   5.436   2.271  -0.677 -0.0478  0.9196  0.4554
   20CHTO   O58 8197   5.408   2.185  -0.823 -0.0766  0.1794 -0.4319
   20CHTO  H136 8198   5.339   2.127  -0.795  1.0758 -1.7694 -1.5206
   20CHTO   O51 8199   4.956   2.405  -0.686 -0.0534 -0.4648  0.1902
   20CHTO   C78 8200   4.924   2.245  -0.680  1.3931 -0.0459 -0.4701
   20CHTO  H150 8201   4.988   2.184  -0.613  0.9821  0.2364  0.1787
   20CHTO   C80 8202   4.915   2.187  -0.823  0.4939 -0.0357 -1.0051
   20CHTO  H152 8203   4.850   2.245  -0.891 -0.0650 -0.3089 -0.6991
   20CHTO   O55 8204   5.050   2.193  -0.880  0.5274  0.1267  1.1225
   20CHTO  H134 8205   5.107   2.253  -0.835 -0.0500  0.1043  1.8894
   20CHTO   C84 8206   4.858   2.037  -0.811 -0.4419  0.0035 -0.2639
   20CHTO  H156 8207   4.933   1.976  -0.761 -0.0935 -1.3142 -2.3392
   20CHTO   N15 8208   4.838   1.977  -0.942 -0.0195 -0.3763  0.3548
   20CHTO  H143 8209   4.880   1.879  -0.946  0.1207 -0.3886  1.9702
   20CHTO  H144 8210   4.736   1.964  -0.972  0.9924 -2.4236 -2.4835
   20CHTO   C87 8211   4.734   2.019  -0.721  0.0948 -0.1082  0.9752
   20CHTO  H159 8212   4.648   2.051  -0.781 -0.5729  0.9357  2.4329
   20CHTO   O53 8213   4.759   2.103  -0.589 -0.1686  0.7297  0.0097
   20CHTO   C82 8214   4.787   2.243  -0.610  0.9116  0.1521 -0.1509
   20CHTO  H154 8215   4.710   2.283  -0.676  0.5111 -0.2944  0.0496
   20CHTO   C89 8216   4.786   2.328  -0.483  0.2745  0.3366 -0.1284
   20CHTO   O59 8217   4.685   2.427  -0.478  0.5169 -0.1739  0.5745
   20CHTO  H137 8218   4.734   2.505  -0.461 -0.8318  1.1902 -1.5149
   20CHTO   O45 8219   4.691   1.864  -0.676  0.3510 -0.1064  0.2448
   20CHTO   C67 8220   4.591   1.852  -0.580  0.2647  0.2888  0.4888
   20CHTO  H124 8221   4.613   1.924  -0.501  0.2208  1.2714 -0.3887
   20CHTO   C65 8222   4.448   1.890  -0.646 -0.2152  0.0178  1.1522
   20CHTO  H122 8223   4.459   1.856  -0.750  1.6875 -0.7265  1.5804
   20CHTO   O44 8224   4.439   2.036  -0.647 -0.0797 -0.1256 -0.2712
   20CHTO  H102 8225   4.382   2.067  -0.579 -0.1292  0.8034 -0.7247
   20CHTO   C63 8226   4.330   1.807  -0.587 -0.3299  0.3995  0.4532
   20CHTO  H120 8227   4.325   1.709  -0.636  1.0948  1.0572 -1.0281
   20CHTO   N11 8228   4.192   1.846  -0.624 -0.3136  1.3896 -0.0389
   20CHTO  H108 8229   4.179   1.861  -0.729 -0.1659 -0.7632 -0.3929
   20CHTO  H109 8230   4.129   1.768  -0.586  1.8163  0.2849  1.2918
   20CHTO   C61 8231   4.361   1.773  -0.435 -0.4348 -0.5302 -0.7365
   20CHTO  H118 8232   4.271   1.720  -0.401 -1.1631  0.1278 -1.5939
   20CHTO   O40 8233   4.475   1.676  -0.429  0.0364 -0.9942 -0.1237
   20CHTO   C68 8234   4.589   1.706  -0.520 -0.1763  0.2076  0.7383
   20CHTO  H125 8235   4.584   1.632  -0.603  1.4991  0.6173  0.2372
   20CHTO   C72 8236   4.725   1.685  -0.447 -0.9130 -0.3080 -0.5578
   20CHTO   O48 8237   4.754   1.547  -0.426 -0.0507  0.4911 -0.0382
   20CHTO  H105 8238   4.729   1.512  -0.342  0.3884 -0.0610 -0.1338
   20CHTO   O38 8239   4.375   1.894  -0.354 -0.0558 -0.8363 -0.5537
   20CHTO   C55 8240   4.344   1.857  -0.220 -0.5378  0.5066  0.0321
   20CHTO  H112 8241   4.364   1.753  -0.192  0.0963  0.8736  0.9863
   20CHTO   C56 8242   4.192   1.904  -0.181  0.2991 -0.3012  0.4158
   20CHTO  H113 8243   4.176   2.002  -0.227 -1.9229 -0.2545  1.2346
   20CHTO   O42 8244   4.104   1.820  -0.252  0.1014  0.2295 -0.0858
   20CHTO  H100 8245   4.058   1.863  -0.321 -1.1670  2.6043  2.1704
   20CHTO   C57 8246   4.159   1.906  -0.029 -0.0137 -0.2926  0.0680
   20CHTO  H114 8247   4.149   1.804   0.008 -0.1706 -0.6754 -1.0222
   20CHTO   N10 8248   4.033   1.971  -0.000  0.3044 -0.2311 -0.3509
   20CHTO  H106 8249   4.051   2.023   0.093 -1.0437 -1.0382  0.3624
   20CHTO  H107 8250   3.997   2.039  -0.077 -0.0987  1.9671  1.7223
   20CHTO   C58 8251   4.284   1.962   0.043 -0.1861 -0.1471  0.2079
   20CHTO  H115 8252   4.297   2.069   0.019  0.7571 -0.9678 -3.2025
   20CHTO   O37 8253   4.403   1.892   0.003 -0.1230  0.1739  0.5738
   20CHTO   C59 8254   4.440   1.920  -0.126  0.0196  0.0587  0.4170
   20CHTO  H116 8255   4.439   2.029  -0.122 -1.2311  0.0436  0.4937
   20CHTO   C70 8256   4.586   1.884  -0.161 -0.3001  0.3611 -0.0603
   20CHTO   O46 8257   4.655   1.964  -0.258  0.9879 -0.6370 -0.4672
   20CHTO  H103 8258   4.615   1.959  -0.342 -0.1235 -3.8523  0.1952
   20CHTO   O39 8259   4.270   1.943   0.200  0.1894  0.0955 -0.4346
   20CHTO   C60 8260   4.369   1.987   0.294  0.1051 -0.0316 -0.3285
   20CHTO  H117 8261   4.471   1.958   0.268 -0.9380 -3.6750 -0.6788
   20CHTO   C62 8262   4.380   2.145   0.309  0.3083 -0.4738  0.0202
   20CHTO  H119 8263   4.395   2.181   0.205  0.1836  0.6559  0.3943
   20CHTO   O43 8264   4.258   2.202   0.363 -0.0013 -0.4170 -0.3716
   20CHTO  H101 8265   4.275   2.274   0.421 -0.3466  0.0656 -0.8646
   20CHTO   C66 8266   4.508   2.182   0.397 -0.7930  0.6246 -0.2072
   20CHTO  H123 8267   4.595   2.141   0.346 -1.2347 -0.4394 -0.1186
   20CHTO   N12 8268   4.534   2.325   0.394 -0.2692  0.3393  0.0008
   20CHTO  H110 8269   4.573   2.352   0.297  0.0632  1.6661  0.5012
   20CHTO  H111 8270   4.448   2.379   0.430 -0.7821 -0.4314 -0.0553
   20CHTO   C69 8271   4.499   2.112   0.537 -0.3596 -0.4909  0.1137
   20CHTO  H126 8272   4.419   2.154   0.601  1.1408  2.8567 -0.0953
   20CHTO   O41 8273   4.477   1.955   0.523  0.0575  0.4872 -0.5956
   20CHTO   C64 8274   4.339   1.922   0.433 -0.8205  0.2240 -0.0372
   20CHTO  H121 8275   4.260   1.982   0.482  0.5271  2.6180 -0.7135
   20CHTO   C71 8276   4.312   1.772   0.422 -0.1272  0.6365 -0.7707
   20CHTO   O47 8277   4.257   1.714   0.541  0.7347 -0.1893 -0.0421
   20CHTO  H104 8278   4.303   1.742   0.617  0.4699 -1.4116  0.5924
   20CHTO   O34 8279   4.635   2.159   0.615  0.1310 -0.3026 -0.3378
   20CHTO   C49 8280   4.720   2.118   0.743 -0.1023  0.4706 -0.2800
   20CHTO   H91 8281   4.655   2.134   0.829 -0.8579 -0.0077 -0.7535
   20CHTO   C47 8282   4.842   2.209   0.753  0.5387  0.6850  0.1078
   20CHTO   H89 8283   4.892   2.171   0.845  0.3594 -1.0150 -0.4829
   20CHTO   O33 8284   4.805   2.344   0.783  0.1491  0.2034 -0.4370
   20CHTO   H70 8285   4.745   2.340   0.855  1.0075  0.7086  0.3221
   20CHTO   C45 8286   4.941   2.202   0.631  0.6533 -0.6896  0.4031
   20CHTO   H87 8287   4.919   2.277   0.553 -1.1350 -1.5898 -0.0042
   20CHTO    N8 8288   5.082   2.222   0.679  0.4845  0.3623 -0.1036
   20CHTO   H75 8289   5.150   2.233   0.596  0.2925  0.0454 -0.3011
   20CHTO   H76 8290   5.103   2.127   0.726 -3.9888 -1.2016 -0.9991
   20CHTO   C43 8291   4.897   2.058   0.550  0.1764  0.1866 -0.3477
   20CHTO   H85 8292   4.806   2.083   0.495  1.7287  2.9943 -1.7986
   20CHTO   O29 8293   4.877   1.950   0.640 -0.6808 -0.3992  0.2060
   20CHTO   C50 8294   4.772   1.970   0.732 -0.3243  0.0852 -0.8004
   20CHTO   H92 8295   4.687   1.910   0.698  0.8364 -2.0798  0.0244
   20CHTO   C54 8296   4.819   1.910   0.867  0.0264 -0.6886 -0.9999
   20CHTO   O36 8297   4.822   1.765   0.841  0.4767  0.2449 -0.0785
   20CHTO   H72 8298   4.744   1.714   0.834  0.4716  0.1814  0.3967
   20CHTO   O27 8299   4.995   2.027   0.449 -0.2908 -0.3773  0.2809
   20CHTO   C37 8300   4.981   1.937   0.338  0.5130  0.1120 -0.2036
   20CHTO   H79 8301   4.882   1.888   0.336  1.7636 -2.4374 -1.7920
   20CHTO   C38 8302   4.994   2.024   0.205  0.3652 -0.3989  0.0307
   20CHTO   H80 8303   5.090   2.077   0.211  0.0935  0.0504  0.4052
   20CHTO   O31 8304   4.871   2.105   0.197 -0.1352 -0.1990 -0.1203
   20CHTO   H68 8305   4.877   2.171   0.263 -0.8743 -0.8675  0.6423
   20CHTO   C39 8306   5.003   1.941   0.072 -1.1541  0.2818 -0.3930
   20CHTO   H81 8307   4.903   1.911   0.043 -1.0474 -0.3054 -0.1580
   20CHTO    N7 8308   5.033   2.014  -0.051 -0.1272  0.4621 -1.0411
   20CHTO   H73 8309   5.049   2.118  -0.030 -2.5217  0.3680  1.6972
   20CHTO   H74 8310   5.122   1.979  -0.101 -1.6272 -1.9264 -2.1635
   20CHTO   C40 8311   5.105   1.818   0.091  0.8114 -0.7699  0.7284
   20CHTO   H82 8312   5.207   1.856   0.082  0.0713  1.1791  0.1447
   20CHTO   O26 8313   5.080   1.747   0.216 -0.5905 -0.1299 -0.5858
   20CHTO   C41 8314   5.090   1.826   0.343  0.1660  0.4736 -0.1665
   20CHTO   H83 8315   5.183   1.883   0.349  0.5811  0.0151 -2.0934
   20CHTO   C52 8316   5.090   1.735   0.461  0.0337  0.0292 -0.2423
   20CHTO   O35 8317   5.203   1.663   0.472  0.2926 -0.2931  0.3029
   20CHTO   H71 8318   5.201   1.592   0.533  0.0209 -0.1374  0.4758
   20CHTO   O28 8319   5.092   1.708   0.003 -0.6288  0.2801 -0.1603
   20CHTO   C42 8320   5.207   1.624  -0.050  0.5583 -0.4141  0.6527
   20CHTO   H84 8321   5.160   1.585  -0.141  0.9235  1.7023 -0.4772
   20CHTO   C44 8322   5.268   1.505   0.032  0.2926 -1.5094 -0.4624
   20CHTO   H86 8323   5.312   1.552   0.120  1.0547 -1.2960 -0.9493
   20CHTO   O32 8324   5.154   1.428   0.065 -0.5635 -0.0598  0.8823
   20CHTO   H69 8325   5.168   1.381   0.144  1.2297  3.8787  3.0217
   20CHTO   C48 8326   5.387   1.425  -0.039 -0.6200 -0.2627 -0.0021
   20CHTO   H90 8327   5.337   1.381  -0.126  1.2335  1.9918 -2.3059
   20CHTO    N9 8328   5.448   1.317   0.048 -0.0293  0.9665  0.7306
   20CHTO   H77 8329   5.373   1.243   0.073 -0.9565  1.6517 -0.0146
   20CHTO   H78 8330   5.537   1.276   0.003 -1.6050 -1.6954 -0.0632
   20CHTO   C51 8331   5.492   1.524  -0.093 -0.0446 -0.4286  0.7370
   20CHTO   H93 8332   5.550   1.565  -0.010  0.8611 -1.1781  0.4872
   20CHTO   O30 8333   5.434   1.628  -0.174  1.1485  0.3381  0.3215
   20CHTO   C46 8334   5.323   1.714  -0.108  0.0231  0.2895  0.4770
   20CHTO   H88 8335   5.366   1.779  -0.031 -0.3833  1.0250  0.0909
   20CHTO   C53 8336   5.275   1.805  -0.229  0.0741  0.2755  0.2108
   20CHTO   O72 8337   5.376   1.901  -0.261  0.3488 -0.1087 -0.4963
   20CHTO  H199 8338   5.331   1.947  -0.329 -2.5162 -2.5287 -0.3122
   20CHTO   O22 8339   5.591   1.471  -0.183 -0.1016  0.2506  0.5701
   20CHTO   C31 8340   5.731   1.512  -0.197 -0.6029  0.0777 -0.2931
   20CHTO   H59 8341   5.772   1.461  -0.286  4.2982  1.5304  1.0141
   20CHTO   C29 8342   5.744   1.666  -0.221 -0.5685 -0.5650  0.7983
   20CHTO   H57 8343   5.684   1.713  -0.141 -0.6050  0.4258  0.1883
   20CHTO   O21 8344   5.686   1.696  -0.349 -0.1325  0.2052 -0.2745
   20CHTO   H37 8345   5.680   1.614  -0.393 -3.8305  0.2155  0.1004
   20CHTO   C27 8346   5.896   1.708  -0.212 -0.5448 -0.0797  0.2177
   20CHTO   H55 8347   5.948   1.673  -0.303 -0.6651  2.1300 -0.7424
   20CHTO    N5 8348   5.920   1.855  -0.214 -0.2473  0.1141 -0.9079
   20CHTO   H43 8349   6.024   1.883  -0.214 -0.0099 -0.7013  0.4099
   20CHTO   H44 8350   5.869   1.899  -0.130 -0.1308  2.2447 -1.9273
   20CHTO   C25 8351   5.970   1.638  -0.096 -0.3007 -0.3948  0.1544
   20CHTO   H53 8352   5.927   1.679  -0.003 -3.1757 -0.3524 -1.1481
   20CHTO   O17 8353   5.953   1.500  -0.094  0.4103  0.1191 -0.4879
   20CHTO   C32 8354   5.813   1.467  -0.075 -1.0165 -0.2559  0.1510
   20CHTO   H60 8355   5.777   1.510   0.018 -1.0921 -0.0258  0.0140
   20CHTO   C36 8356   5.809   1.312  -0.059  0.3827  0.3068  0.1445
   20CHTO   O25 8357   5.898   1.259   0.041 -0.5581 -0.3476  0.2263
   20CHTO   H40 8358   5.987   1.246   0.017 -0.8230  0.6043 -1.2987
   20CHTO   O15 8359   6.115   1.657  -0.096 -0.6488 -0.1134 -0.2465
   20CHTO   C19 8360   6.258   1.673  -0.103  0.4183  0.4036  0.1185
   20CHTO   H47 8361   6.276   1.704  -0.207  0.6436  1.3650  0.4398
   20CHTO   C20 8362   6.325   1.782  -0.010 -0.6569  0.2200 -0.3619
   20CHTO   H48 8363   6.299   1.767   0.095  0.0416 -1.5363 -0.4175
   20CHTO   O19 8364   6.262   1.904  -0.044 -0.1620  0.1292  0.0517
   20CHTO   H35 8365   6.279   1.966   0.024 -0.1404 -0.7124  0.8226
   20CHTO   C21 8366   6.477   1.787  -0.032  0.3857  0.3862 -0.1320
   20CHTO   H49 8367   6.490   1.829  -0.131 -1.8396 -1.4002 -1.2358
   20CHTO    N4 8368   6.543   1.875   0.076 -0.0792  0.2885 -0.5648
   20CHTO   H41 8369   6.502   1.855   0.174 -0.4337 -2.4735 -1.2222
   20CHTO   H42 8370   6.650   1.861   0.077 -0.1361 -0.1493  0.9628
   20CHTO   C22 8371   6.539   1.641  -0.037 -0.0932 -0.4834 -0.1875
   20CHTO   H50 8372   6.537   1.601   0.064  0.5815 -0.2403 -0.0736
   20CHTO   O14 8373   6.472   1.560  -0.135  0.3937 -0.5750 -0.5190
   20CHTO   C23 8374   6.337   1.544  -0.084  0.1697  0.3141  0.1499
   20CHTO   H51 8375   6.334   1.505   0.019 -0.3433 -0.6266 -0.2249
   20CHTO   C34 8376   6.276   1.427  -0.161  0.5235 -0.3512 -0.1349
   20CHTO   O23 8377   6.357   1.315  -0.199 -0.6987  0.2856 -0.2931
   20CHTO   H38 8378   6.309   1.234  -0.197  1.5236 -1.0714 -0.0107
   20CHTO   O16 8379   6.678   1.651  -0.083 -0.4763 -0.3092 -0.2918
   20CHTO   C24 8380   6.767   1.528  -0.031 -0.5831 -0.8808 -0.6192
   20CHTO   H52 8381   6.706   1.446   0.005 -1.4136  0.2554  0.6409
   20CHTO   C26 8382   6.864   1.569   0.082 -0.1736 -0.1106 -0.4282
   20CHTO   H54 8383   6.945   1.637   0.047  1.5102 -1.4060  0.8468
   20CHTO   O20 8384   6.791   1.636   0.191  0.7247  0.3383  0.2671
   20CHTO   H36 8385   6.719   1.687   0.160 -0.3476 -0.1805  1.8340
   20CHTO   C30 8386   6.935   1.440   0.131  0.0295  0.1148 -0.6381
   20CHTO   H58 8387   6.869   1.399   0.209 -0.1120 -2.5667 -2.0951
   20CHTO    N6 8388   7.062   1.478   0.192 -0.1371  0.0542 -0.2147
   20CHTO   H45 8389   7.121   1.528   0.116 -0.2286 -0.1059 -0.3911
   20CHTO   H46 8390   7.054   1.542   0.279  2.6767 -1.1801  1.0388
   20CHTO   C33 8391   6.947   1.323   0.030  0.4405  0.1608  0.6764
   20CHTO   H61 8392   7.035   1.258   0.043  0.3065 -0.5275 -1.6936
   20CHTO   O18 8393   6.953   1.373  -0.099  0.5581 -0.5270 -0.0723
   20CHTO   C28 8394   6.856   1.477  -0.145 -0.0684  0.4745 -0.6036
   20CHTO   H56 8395   6.905   1.565  -0.187  2.5839 -0.1066  1.1288
   20CHTO   C35 8396   6.772   1.407  -0.257 -0.3570 -0.1127 -0.0654
   20CHTO   O24 8397   6.702   1.286  -0.224 -0.4705  0.5178  0.1847
   20CHTO   H39 8398   6.627   1.287  -0.281 -0.8998 -2.7776  0.5954
   20CHTO    O9 8399   6.836   1.229   0.043 -0.1139  0.0279 -0.0041
   20CHTO   C13 8400   6.824   1.144   0.177 -0.3130  0.1059 -0.3934
   20CHTO   H26 8401   6.910   1.173   0.240 -1.0175 -0.2427  0.7447
   20CHTO   C11 8402   6.822   0.991   0.142  0.3830 -0.1099  0.6993
   20CHTO   H24 8403   6.923   0.963   0.109  0.1886 -0.2733  0.2372
   20CHTO    O8 8404   6.722   0.970   0.042  0.3542  0.2333 -0.1128
   20CHTO    H3 8405   6.753   0.955  -0.045  0.0239  1.4232 -0.4422
   20CHTO    C9 8406   6.787   0.909   0.273  0.0410 -0.4586 -0.7763
   20CHTO   H22 8407   6.872   0.922   0.341 -1.6222 -0.1910  1.2991
   20CHTO    N2 8408   6.773   0.763   0.246  0.0209  0.1973  0.8140
   20CHTO   H10 8409   6.679   0.747   0.197  0.0788  0.0367  0.7569
   20CHTO   H11 8410   6.793   0.702   0.333 -0.3528  0.7888  1.3170
   20CHTO    C7 8411   6.664   0.973   0.351  0.2588 -0.2151  0.1435
   20CHTO   H20 8412   6.672   0.922   0.450 -4.8072 -2.0731 -0.2452
   20CHTO    O4 8413   6.656   1.115   0.372  0.3586 -0.2069  0.5238
   20CHTO   C14 8414   6.697   1.194   0.260  0.0415  0.6215  0.2515
   20CHTO   H27 8415   6.721   1.287   0.317 -0.5527  1.2002 -0.4377
   20CHTO   C18 8416   6.583   1.229   0.166 -0.2886 -0.5790  0.4513
   20CHTO   O13 8417   6.481   1.302   0.238 -0.6360 -0.0911  0.2906
   20CHTO    H7 8418   6.511   1.389   0.256 -0.3598 -0.5612  2.1356
   20CHTO    O2 8419   6.510   0.920   0.262  0.5349 -0.1778  0.6354
   20CHTO    C1 8420   6.388   0.933   0.342 -0.0794 -0.1939  0.1942
   20CHTO   H14 8421   6.398   1.027   0.399  0.4284  0.9566 -1.7345
   20CHTO    C2 8422   6.357   0.816   0.442 -0.4629  0.1137  0.0158
   20CHTO   H15 8423   6.352   0.730   0.373 -2.8579 -0.4472  0.8398
   20CHTO    O6 8424   6.471   0.794   0.526 -0.0538  0.2807 -0.0001
   20CHTO    H1 8425   6.462   0.844   0.606  2.9360 -0.2975  0.7410
   20CHTO    C3 8426   6.213   0.838   0.524  0.2029 -0.5897  0.2810
   20CHTO   H16 8427   6.223   0.924   0.593 -0.3690  1.4765 -2.1427
   20CHTO    N1 8428   6.179   0.719   0.611  0.0800 -0.2135  0.0133
   20CHTO    H8 8429   6.092   0.737   0.672 -0.0772 -0.2791 -0.1905
   20CHTO    H9 8430   6.260   0.713   0.682 -1.0215  2.0648  1.4914
   20CHTO    C4 8431   6.101   0.883   0.429  0.4728 -0.3750  0.2088
   20CHTO   H17 8432   6.067   0.795   0.373 -0.6931 -0.3993  0.9428
   20CHTO    O1 8433   6.146   0.988   0.337 -0.4897 -0.1824  0.3192
   20CHTO    C5 8434   6.258   0.946   0.255  0.5801 -0.0746 -0.0088
   20CHTO   H18 8435   6.237   0.850   0.206  0.2427  0.3112 -0.6245
   20CHTO   C16 8436   6.270   1.049   0.145  0.2940  0.1943 -0.1763
   20CHTO   O11 8437   6.371   1.002   0.048 -0.2163  0.8438  0.5042
   20CHTO    H5 8438   6.361   1.053  -0.031 -1.3812  0.0640  0.1287
   20CHTO    O3 8439   5.994   0.942   0.505 -0.3141  0.4994 -0.3403
   20CHTO    C6 8440   5.854   0.950   0.452 -0.0633  0.3955  0.3864
   20CHTO   H19 8441   5.856   0.955   0.343 -1.8011  1.1465  0.3644
   20CHTO    C8 8442   5.769   0.823   0.493 -0.0653 -0.9052 -0.5279
   20CHTO   H21 8443   5.754   0.821   0.601 -3.5034  0.9151 -0.8746
   20CHTO    O7 8444   5.831   0.706   0.445  0.4313 -0.0046  0.0530
   20CHTO    H2 8445   5.924   0.705   0.459  0.6455 -0.3895 -1.4136
   20CHTO   C12 8446   5.620   0.850   0.429 -0.3127 -0.1763  0.2085
   20CHTO   H25 8447   5.636   0.848   0.320 -1.5016 -0.9786  0.0335
   20CHTO    N3 8448   5.542   0.733   0.455  0.2443 -0.1355 -0.2076
   20CHTO   H12 8449   5.578   0.635   0.426 -1.7926 -1.0621  0.2977
   20CHTO   H13 8450   5.511   0.738   0.558 -1.6150  1.6097 -0.8236
   20CHTO   C15 8451   5.560   0.988   0.466 -0.3189  0.2678  0.6016
   20CHTO   H28 8452   5.527   0.984   0.570 -1.7327 -0.0522  0.1444
   20CHTO   O10 8453   5.423   1.014   0.374 -0.4837 -0.3586 -0.1411
   20CHTO    H4 8454   5.442   1.032   0.284  2.6371 -0.1539  0.4876
   20CHTO    O5 8455   5.652   1.103   0.438  0.3606  0.0285  0.3195
   20CHTO   C10 8456   5.780   1.079   0.499 -0.2048 -0.1127 -0.5636
   20CHTO   H23 8457   5.774   1.060   0.606 -3.2236  0.5330 -0.5821
   20CHTO   C17 8458   5.864   1.199   0.480 -0.4330 -0.1888  0.5337
   20CHTO   O12 8459   5.818   1.313   0.556  0.4592 -0.1529  0.3186
   20CHTO    H6 8460   5.816   1.293   0.648 -2.6721 -3.2095 -0.3565
   21GLOH   H03 8461   7.990   3.687   0.878 -0.5701 -0.1019  0.9872
   21GLOH    O1 8462   7.912   3.654   0.831  0.2878 -0.0138 -0.5171
   21GLOH    C1 8463   7.934   3.673   0.689 -0.3149 -0.2036 -0.3792
   21GLOH   H02 8464   7.859   3.610   0.640  0.0217 -1.1452  0.2816
   21GLOH   H08 8465   8.031   3.629   0.665 -0.9149 -2.4964  1.1769
   21GLOH    C2 8466   7.921   3.819   0.656  0.5354  0.5073 -0.2256
   21GLOH   H04 8467   7.991   3.878   0.717  1.2602  1.6476 -2.1351
   21GLOH    O2 8468   7.946   3.852   0.517 -0.2797  0.6806  0.3012
   21GLOH   H05 8469   8.030   3.902   0.518 -1.4615  2.6901  1.4082
   21GLOH    C3 8470   7.781   3.865   0.700  0.8796  0.4450  0.1816
   21GLOH   H06 8471   7.769   3.835   0.804 -2.5414 -2.6774 -0.9896
   21GLOH   H07 8472   7.701   3.807   0.653  1.9480 -1.2299  0.3835
   21GLOH    O3 8473   7.751   4.006   0.689  0.3351  0.4587  0.6928
   21GLOH   H01 8474   7.784   4.030   0.601  0.5775  0.3738  0.7617
   22GLOH   H03 8475   3.114   6.852   0.196  2.7329  2.9325 -1.0553
   22GLOH    O1 8476   3.175   6.808   0.258 -0.0287  0.3090 -0.0712
   22GLOH    C1 8477   3.168   6.665   0.253  0.4173 -0.5039 -0.2437
   22GLOH   H02 8478   3.070   6.622   0.237  0.1287 -0.7078  1.9065
   22GLOH   H08 8479   3.191   6.634   0.355 -1.9077  1.7907  1.0226
   22GLOH    C2 8480   3.273   6.605   0.154  0.3016 -0.4157 -0.2005
   22GLOH   H04 8481   3.374   6.627   0.192  0.0666 -0.2104  0.3181
   22GLOH    O2 8482   3.265   6.467   0.158 -0.0165  0.1459 -0.5497
   22GLOH   H05 8483   3.353   6.443   0.194 -0.7309  0.6255  1.5599
   22GLOH    C3 8484   3.277   6.660   0.011 -0.8027 -0.5748  0.3962
   22GLOH   H06 8485   3.181   6.646  -0.038 -0.6359 -0.0959 -0.0731
   22GLOH   H07 8486   3.357   6.609  -0.043 -1.6903 -3.9647  2.1183
   22GLOH    O3 8487   3.311   6.801   0.002 -0.4246  0.0394 -0.4715
   22GLOH   H01 8488   3.236   6.846   0.045 -0.4384  0.1942 -0.6591
   23GLOH   H03 8489   2.130   4.615   3.081 -2.1319 -0.9197  0.9051
   23GLOH    O1 8490   2.163   4.526   3.105  0.8560 -0.0550  0.2827
   23GLOH    C1 8491   2.264   4.518   3.206  0.5648 -0.3636 -0.4913
   23GLOH   H02 8492   2.224   4.533   3.306  1.2452 -2.2257  0.0597
   23GLOH   H08 8493   2.337   4.598   3.195  1.2964 -1.1418 -1.4047
   23GLOH    C2 8494   2.352   4.392   3.202 -0.2408  0.3931  0.1854
   23GLOH   H04 8495   2.422   4.395   3.117  0.1030  3.0490  0.5054
   23GLOH    O2 8496   2.429   4.392   3.325  0.2823  0.1160  0.5201
   23GLOH   H05 8497   2.468   4.307   3.351 -0.4588 -0.8803 -1.5616
   23GLOH    C3 8498   2.254   4.271   3.186  0.0284  0.9865 -0.3211
   23GLOH   H06 8499   2.194   4.289   3.097  0.9656  0.3740 -1.0881
   23GLOH   H07 8500   2.192   4.265   3.276 -1.5209  0.5663 -1.4055
   23GLOH    O3 8501   2.322   4.151   3.168  0.1436  0.3092 -0.0518
   23GLOH   H01 8502   2.373   4.152   3.085  0.2535  0.0071  0.0141
   24GLOH   H03 8503   1.727   2.970   0.122 -1.3551  2.6731 -1.2346
   24GLOH    O1 8504   1.780   3.012   0.192 -0.2880 -0.2551 -0.2224
   24GLOH    C1 8505   1.896   2.928   0.226  0.2202 -0.1389 -0.0262
   24GLOH   H02 8506   1.975   2.958   0.157  1.4050 -1.0482  0.9045
   24GLOH   H08 8507   1.872   2.822   0.226  0.8670 -0.3001  1.1399
   24GLOH    C2 8508   1.953   2.950   0.372 -0.1265 -0.0674 -0.0891
   24GLOH   H04 8509   2.010   2.865   0.411 -0.5374 -1.7886 -3.0956
   24GLOH    O2 8510   2.056   3.051   0.360 -0.3799 -0.1040  0.3233
   24GLOH   H05 8511   2.143   3.020   0.390 -0.3109 -0.2134  0.0174
   24GLOH    C3 8512   1.846   2.996   0.477  0.1405  0.0254 -0.2009
   24GLOH   H06 8513   1.905   3.029   0.562 -0.1962  0.1777 -0.0269
   24GLOH   H07 8514   1.796   2.907   0.515  1.6827 -0.9072 -0.3316
   24GLOH    O3 8515   1.751   3.086   0.433 -0.3350  0.3187 -0.3143
   24GLOH   H01 8516   1.746   3.072   0.337  0.6322 -0.6558 -0.2405
   25GLOH   H03 8517   0.605   2.986   1.575 -0.8071  0.0067  0.0902
   25GLOH    O1 8518   0.587   2.938   1.492  0.4732 -0.4332  0.0539
   25GLOH    C1 8519   0.544   3.039   1.394  0.7296  0.8142 -0.3975
   25GLOH   H02 8520   0.443   3.064   1.426 -0.6736 -2.8390 -1.6291
   25GLOH   H08 8521   0.538   2.986   1.299 -0.9044  2.0244 -0.9878
   25GLOH    C2 8522   0.627   3.167   1.388 -0.5073  0.2672 -0.2492
   25GLOH   H04 8523   0.615   3.220   1.484  0.6137 -0.5008  0.3247
   25GLOH    O2 8524   0.764   3.125   1.371 -0.2073 -0.2321  0.5176
   25GLOH   H05 8525   0.781   3.047   1.427  1.4159 -0.1768  0.1462
   25GLOH    C3 8526   0.595   3.266   1.275 -0.0291 -0.0826  0.1936
   25GLOH   H06 8527   0.610   3.219   1.178  1.1785 -2.2243  1.3521
   25GLOH   H07 8528   0.666   3.348   1.285  1.2128 -0.9635 -1.1600
   25GLOH    O3 8529   0.464   3.313   1.306  0.3680 -0.1660  0.5141
   25GLOH   H01 8530   0.415   3.309   1.221  2.5763 -0.8754 -0.7797
   26GLOH   H03 8531   9.314   0.588   2.821 -1.1795  0.3365  0.4628
   26GLOH    O1 8532   9.252   0.544   2.760 -0.4531 -0.4697  0.3040
   26GLOH    C1 8533   9.131   0.504   2.822  0.6892 -0.6191  0.1428
   26GLOH   H02 8534   9.049   0.563   2.781  0.9839 -0.7278 -0.6248
   26GLOH   H08 8535   9.129   0.522   2.929  2.5723  3.2492 -0.4086
   26GLOH    C2 8536   9.094   0.359   2.788 -0.6372 -0.5481 -0.2173
   26GLOH   H04 8537   8.997   0.334   2.832 -0.7612 -0.0712 -0.2103
   26GLOH    O2 8538   9.071   0.345   2.649 -0.0707 -0.2404 -0.4856
   26GLOH   H05 8539   9.161   0.330   2.616 -0.2330 -2.2105 -0.1296
   26GLOH    C3 8540   9.197   0.267   2.859 -0.3387  1.1435  0.5678
   26GLOH   H06 8541   9.292   0.283   2.807  0.1096  0.5207  1.1729
   26GLOH   H07 8542   9.174   0.162   2.844  2.7929  0.3660  0.7153
   26GLOH    O3 8543   9.223   0.287   2.995 -0.2080 -0.1408 -0.4441
   26GLOH   H01 8544   9.318   0.266   3.008  0.0286 -0.1423 -2.0847
   27GLOH   H03 8545   8.857   8.038   2.531  0.9277 -2.1488 -0.1354
   27GLOH    O1 8546   8.946   8.066   2.561  0.1488  0.0621  0.1966
   27GLOH    C1 8547   8.961   8.099   2.700 -0.0657 -0.0095  0.7223
   27GLOH   H02 8548   8.878   8.165   2.726  1.9918  2.3339  1.5589
   27GLOH   H08 8549   9.043   8.169   2.717  0.8116 -0.8324 -0.0320
   27GLOH    C2 8550   8.954   7.982   2.793 -0.7369  0.0342  0.0078
   27GLOH   H04 8551   8.874   7.912   2.762 -1.7384  2.2183 -2.4959
   27GLOH    O2 8552   9.069   7.903   2.778 -0.1551  0.2043 -0.8758
   27GLOH   H05 8553   9.148   7.946   2.814  1.7277 -2.4195 -1.6774
   27GLOH    C3 8554   8.928   8.028   2.937 -0.6452  0.2178 -0.0688
   27GLOH   H06 8555   8.923   7.940   3.001  0.8319 -0.9154 -1.4757
   27GLOH   H07 8556   8.832   8.079   2.929  0.8065  3.0536  0.2085
   27GLOH    O3 8557   9.030   8.114   2.986 -0.9541  0.0953  0.2595
   27GLOH   H01 8558   9.030   8.115   3.083 -0.4684 -0.0864  0.2648
   28GLOH   H03 8559   1.145   3.168   0.623 -0.8857 -2.4119 -0.9005
   28GLOH    O1 8560   1.060   3.196   0.662  0.1857  0.2644 -0.3306
   28GLOH    C1 8561   1.081   3.318   0.737  0.7675  0.4593  0.2977
   28GLOH   H02 8562   1.147   3.290   0.819  1.3495 -3.4150 -1.3824
   28GLOH   H08 8563   0.988   3.351   0.783  0.3887  0.9588 -0.8195
   28GLOH    C2 8564   1.151   3.428   0.646  0.3678 -0.7425  0.1958
   28GLOH   H04 8565   1.158   3.518   0.708 -1.4735  0.4046 -1.2119
   28GLOH    O2 8566   1.279   3.380   0.617  0.0777  0.2593 -0.1594
   28GLOH   H05 8567   1.264   3.286   0.594  2.0870  0.4748 -2.4857
   28GLOH    C3 8568   1.077   3.464   0.517  0.3324  0.3845 -0.0135
   28GLOH   H06 8569   1.082   3.370   0.461 -1.5823  1.6500 -2.4224
   28GLOH   H07 8570   1.129   3.543   0.463  1.6969  1.2659  2.5345
   28GLOH    O3 8571   0.941   3.502   0.542  0.0380  0.6574  0.0124
   28GLOH   H01 8572   0.882   3.471   0.470  0.5265 -2.8376  1.0456
   29GLOH   H03 8573   0.889   4.778   1.607 -1.4072 -1.8903 -1.8118
   29GLOH    O1 8574   0.913   4.700   1.661  0.0529 -0.0353  0.3347
   29GLOH    C1 8575   0.795   4.619   1.662 -0.2689  0.6586 -0.0811
   29GLOH   H02 8576   0.802   4.551   1.578  0.2711 -1.1525  1.3954
   29GLOH   H08 8577   0.701   4.673   1.652  0.4459  1.4652 -2.7521
   29GLOH    C2 8578   0.792   4.530   1.792  0.0691 -0.3774 -0.1456
   29GLOH   H04 8579   0.800   4.601   1.875  0.9449  0.9581 -1.3444
   29GLOH    O2 8580   0.663   4.469   1.816 -0.6578 -0.5000 -0.3258
   29GLOH   H05 8581   0.637   4.428   1.731  0.4785  0.0079 -0.9265
   29GLOH    C3 8582   0.902   4.426   1.786 -0.5401  1.2647  0.0891
   29GLOH   H06 8583   0.901   4.381   1.886 -0.7099  1.2301  0.0720
   29GLOH   H07 8584   0.994   4.482   1.768  1.1983 -0.9597  1.7850
   29GLOH    O3 8585   0.885   4.324   1.685 -0.0669  0.0146  0.7955
   29GLOH   H01 8586   0.905   4.234   1.718  1.2508 -0.0694 -0.1821
   30GLOH   H03 8587   7.362   9.690   1.525 -1.9701 -2.4153 -0.3162
   30GLOH    O1 8588   7.291   9.738   1.478 -0.3491  0.5486  0.1386
   30GLOH    C1 8589   7.190   9.640   1.447 -0.2623 -0.3949  0.8843
   30GLOH   H02 8590   7.106   9.694   1.405  1.2954  1.0183 -0.4811
   30GLOH   H08 8591   7.151   9.580   1.530 -1.6359  0.7717  1.1091
   30GLOH    C2 8592   7.237   9.542   1.334  0.1083  0.4793 -0.5893
   30GLOH   H04 8593   7.321   9.477   1.362 -0.4055 -1.0246 -2.4024
   30GLOH    O2 8594   7.123   9.455   1.294 -0.3998 -0.0711  0.5138
   30GLOH   H05 8595   7.082   9.498   1.216  0.3489  0.4933  0.4216
   30GLOH    C3 8596   7.291   9.630   1.212  0.8632 -0.9189 -0.5683
   30GLOH   H06 8597   7.228   9.713   1.177 -0.1328  0.7791  4.6754
   30GLOH   H07 8598   7.315   9.559   1.133  1.3382 -2.7392  1.1645
   30GLOH    O3 8599   7.412   9.687   1.255  0.8016  0.5819 -0.3335
   30GLOH   H01 8600   7.393   9.740   1.334  1.2552 -0.8983  0.7860
   31GLOH   H03 8601   3.305   4.576   3.313  2.7102  0.7974  1.5783
   31GLOH    O1 8602   3.252   4.658   3.314  1.1121 -0.1973  0.4758
   31GLOH    C1 8603   3.109   4.634   3.318  0.6621  0.3645 -0.0694
   31GLOH   H02 8604   3.072   4.614   3.419  1.6862 -1.2731 -0.0045
   31GLOH   H08 8605   3.080   4.558   3.247  1.1893  0.3060 -0.2222
   31GLOH    C2 8606   3.030   4.754   3.268 -0.6542 -0.3328 -0.2263
   31GLOH   H04 8607   3.038   4.834   3.343  1.3333  0.9881 -1.7828
   31GLOH    O2 8608   3.075   4.817   3.143 -0.0873  0.1870  0.5511
   31GLOH   H05 8609   3.162   4.780   3.120 -0.3640 -0.8551  1.1583
   31GLOH    C3 8610   2.886   4.720   3.257 -0.6773 -0.0895  1.0461
   31GLOH   H06 8611   2.872   4.627   3.201  0.7054 -1.1693  2.4506
   31GLOH   H07 8612   2.826   4.785   3.193 -0.1407 -1.4651 -0.9088
   31GLOH    O3 8613   2.824   4.709   3.387  0.6920 -0.8002  0.2990
   31GLOH   H01 8614   2.737   4.668   3.373  0.8326 -0.9446 -0.1532
   32GLOH   H03 8615   0.838   2.013   2.935  1.0235 -1.4373  0.0949
   32GLOH    O1 8616   0.757   2.008   2.989  0.6927  0.7060 -0.1547
   32GLOH    C1 8617   0.642   2.014   2.900 -0.0394  0.0221 -0.4512
   32GLOH   H02 8618   0.569   1.934   2.917 -2.4951  2.5450  1.2137
   32GLOH   H08 8619   0.672   2.005   2.796  1.3002 -1.7411  0.0639
   32GLOH    C2 8620   0.576   2.153   2.910  0.2409 -0.0250 -0.4310
   32GLOH   H04 8621   0.643   2.224   2.858  1.1823 -1.1646 -0.7883
   32GLOH    O2 8622   0.446   2.144   2.835 -0.8523 -0.2586 -1.0665
   32GLOH   H05 8623   0.425   2.232   2.800  5.2339  0.9579 -2.3271
   32GLOH    C3 8624   0.536   2.190   3.050 -0.2765 -0.7025 -0.0784
   32GLOH   H06 8625   0.454   2.133   3.092 -1.8810  0.9980 -0.8355
   32GLOH   H07 8626   0.504   2.294   3.048  0.0624 -0.6040 -0.5099
   32GLOH    O3 8627   0.648   2.177   3.133 -0.1929 -0.1364 -0.2483
   32GLOH   H01 8628   0.709   2.115   3.089 -2.3820 -1.2735 -1.8022
   33GLOH   H03 8629   9.832   8.724   0.238  1.5187 -0.5091 -0.6572
   33GLOH    O1 8630   9.880   8.739   0.322 -0.4161 -0.1743  0.4259
   33GLOH    C1 8631  10.024   8.734   0.318  0.6544 -0.9039  0.4997
   33GLOH   H02 8632  10.057   8.744   0.214 -0.5067 -0.0435  0.2044
   33GLOH   H08 8633  10.059   8.639   0.358  0.4343 -1.6709 -1.1102
   33GLOH    C2 8634  10.091   8.846   0.402  0.2895  0.4396  0.3369
   33GLOH   H04 8635  10.069   8.839   0.510 -1.2560  2.7360  0.1951
   33GLOH    O2 8636  10.237   8.830   0.399 -0.4909  0.4553 -0.0938
   33GLOH   H05 8637  10.271   8.857   0.312  1.3677  1.9369  1.0357
   33GLOH    C3 8638  10.036   8.980   0.362 -0.1411 -0.3722 -0.3534
   33GLOH   H06 8639  10.084   9.053   0.426  1.8349  0.3542 -2.5718
   33GLOH   H07 8640   9.931   8.983   0.391 -0.2525 -1.2816 -0.6281
   33GLOH    O3 8641  10.057   9.019   0.222  0.2757 -0.4552 -0.3297
   33GLOH   H01 8642  10.098   9.107   0.225 -0.5463 -0.0477 -0.6664
   34GLOH   H03 8643   3.693   9.670   0.246  1.8113  2.1095  3.1465
   34GLOH    O1 8644   3.616   9.639   0.296  0.2283  0.3845 -0.2193
   34GLOH    C1 8645   3.594   9.718   0.410 -0.5047 -0.6212 -0.3733
   34GLOH   H02 8646   3.536   9.806   0.379  2.0032  0.2888 -2.6827
   34GLOH   H08 8647   3.687   9.763   0.444 -0.7147  0.6317 -1.4077
   34GLOH    C2 8648   3.534   9.653   0.536 -0.4067 -0.4491  0.1948
   34GLOH   H04 8649   3.425   9.638   0.539 -0.1193 -2.5855  0.7351
   34GLOH    O2 8650   3.592   9.525   0.563 -0.2555  0.1454  0.2679
   34GLOH   H05 8651   3.622   9.496   0.475 -0.3838 -0.3120  0.3686
   34GLOH    C3 8652   3.579   9.745   0.658  0.4431 -0.0843 -0.6296
   34GLOH   H06 8653   3.529   9.719   0.751  1.5453 -2.7655 -0.7250
   34GLOH   H07 8654   3.545   9.845   0.631 -1.4401 -0.4160  0.4615
   34GLOH    O3 8655   3.713   9.742   0.686  0.0973 -0.0504 -0.2354
   34GLOH   H01 8656   3.737   9.648   0.699 -1.5998 -0.5269 -0.4799
   35GLOH   H03 8657   6.793   0.541   3.273  1.4151  1.4359  0.4592
   35GLOH    O1 8658   6.846   0.460   3.254  0.0277  0.6659 -0.1844
   35GLOH    C1 8659   6.983   0.493   3.237  0.2408 -0.0944  0.3176
   35GLOH   H02 8660   7.045   0.411   3.273  0.9504 -0.7654 -2.3244
   35GLOH   H08 8661   6.998   0.585   3.292 -1.0696  0.4962 -0.2669
   35GLOH    C2 8662   7.015   0.533   3.091  0.0473 -0.2654  0.6122
   35GLOH   H04 8663   7.027   0.443   3.028  1.1604 -0.1055  0.5940
   35GLOH    O2 8664   6.913   0.615   3.034  0.0630  0.5924  0.4755
   35GLOH   H05 8665   6.877   0.564   2.959  0.5879  0.1508  0.5256
   35GLOH    C3 8666   7.160   0.599   3.102  0.5702  0.4697  0.0367
   35GLOH   H06 8667   7.154   0.672   3.182  1.1287 -0.4815  0.9558
   35GLOH   H07 8668   7.175   0.664   3.016 -0.2397  3.0040  1.7634
   35GLOH    O3 8669   7.272   0.510   3.111 -0.1220 -0.4589 -0.2065
   35GLOH   H01 8670   7.339   0.556   3.164 -1.6774  0.8897  0.6314
   36GLOH   H03 8671   8.834   0.300   0.048  0.0028 -1.7007  3.7337
   36GLOH    O1 8672   8.930   0.308   0.067  0.7383  0.2141 -0.1960
   36GLOH    C1 8673   8.996   0.390  -0.037  0.0968 -0.0291 -0.1590
   36GLOH   H02 8674   8.975   0.339  -0.131  0.2367 -1.0703  0.3616
   36GLOH   H08 8675   9.104   0.387  -0.021  0.0759  1.2056  0.2702
   36GLOH    C2 8676   8.937   0.525  -0.057  0.5090 -0.6302  1.0535
   36GLOH   H04 8677   8.938   0.589   0.033 -0.9525  3.7573 -1.8930
   36GLOH    O2 8678   9.017   0.595  -0.159 -0.3475 -0.3089 -0.3054
   36GLOH   H05 8679   8.952   0.654  -0.202  0.8508  0.4940 -1.0437
   36GLOH    C3 8680   8.792   0.520  -0.108 -0.4710  0.3885 -0.0363
   36GLOH   H06 8681   8.795   0.493  -0.213  0.3772 -0.5798  0.2312
   36GLOH   H07 8682   8.750   0.620  -0.095  1.6283  1.3089 -0.0729
   36GLOH    O3 8683   8.698   0.432  -0.044 -0.2914  0.6690  0.5982
   36GLOH   H01 8684   8.610   0.472  -0.061 -0.3620 -0.9558 -3.3368
   37GLOH   H03 8685   2.842   6.085   3.140  0.6793 -0.9747  0.6215
   37GLOH    O1 8686   2.908   6.139   3.093  0.6392 -0.6395  0.9421
   37GLOH    C1 8687   2.909   6.272   3.148 -0.3669  0.1845 -0.4216
   37GLOH   H02 8688   2.867   6.274   3.249 -0.7967  2.3528 -0.6177
   37GLOH   H08 8689   2.842   6.337   3.092 -0.5028  1.6093  1.3645
   37GLOH    C2 8690   3.054   6.328   3.158  0.1972  0.0384  0.3821
   37GLOH   H04 8691   3.128   6.255   3.194  3.0832  1.5269 -2.2397
   37GLOH    O2 8692   3.096   6.362   3.022 -0.2404 -0.1077 -0.7007
   37GLOH   H05 8693   3.160   6.295   2.993  1.2677 -0.0559  2.2979
   37GLOH    C3 8694   3.060   6.450   3.255  0.4507 -0.2621  0.1742
   37GLOH   H06 8695   2.998   6.526   3.208  1.4214  0.1167 -0.4986
   37GLOH   H07 8696   3.163   6.485   3.263 -0.6761  3.5581 -1.1471
   37GLOH    O3 8697   2.999   6.424   3.383  0.2172 -0.3257  0.3246
   37GLOH   H01 8698   2.923   6.482   3.397  0.3303  0.0091 -0.4355
   38GLOH   H03 8699   8.983   4.605   2.722  0.2043 -0.7188  0.9933
   38GLOH    O1 8700   8.953   4.580   2.633  0.1756  0.0292  0.7830
   38GLOH    C1 8701   9.010   4.450   2.607 -0.4950 -0.2245 -0.8106
   38GLOH   H02 8702   9.106   4.444   2.658 -0.9363 -1.6886 -0.1251
   38GLOH   H08 8703   9.043   4.431   2.505 -0.0464 -0.1172 -0.6868
   38GLOH    C2 8704   8.925   4.327   2.648 -0.0378  0.5288 -0.5744
   38GLOH   H04 8705   8.837   4.328   2.582 -0.3297  1.7652 -0.1709
   38GLOH    O2 8706   9.000   4.208   2.613  0.3739  0.1614  0.4411
   38GLOH   H05 8707   8.943   4.150   2.560  0.6010 -0.4943  0.9147
   38GLOH    C3 8708   8.887   4.329   2.796  0.1115  0.0259 -0.7813
   38GLOH   H06 8709   8.854   4.429   2.824  1.5296  1.2001 -3.1290
   38GLOH   H07 8710   8.980   4.323   2.853 -0.2709  0.5825 -0.0885
   38GLOH    O3 8711   8.787   4.236   2.841 -0.2222 -0.4346 -0.3275
   38GLOH   H01 8712   8.748   4.272   2.922 -1.4002 -1.6951 -0.3210
   39GLOH   H03 8713   8.882   5.544   1.836  1.7321  0.7957 -0.8126
   39GLOH    O1 8714   8.834   5.629   1.836  0.1106 -0.0995 -0.2387
   39GLOH    C1 8715   8.792   5.655   1.702  0.2255  0.7091 -0.0893
   39GLOH   H02 8716   8.688   5.623   1.695  0.9698 -1.6924 -0.5200
   39GLOH   H08 8717   8.854   5.594   1.637 -0.2198  0.4776 -0.2979
   39GLOH    C2 8718   8.797   5.804   1.654  0.0150 -0.3590  0.4820
   39GLOH   H04 8719   8.697   5.842   1.679 -0.0212 -0.3746  0.3585
   39GLOH    O2 8720   8.898   5.882   1.715 -0.4859  0.1563 -0.2562
   39GLOH   H05 8721   8.975   5.824   1.705 -0.7585 -0.3363  0.5161
   39GLOH    C3 8722   8.816   5.813   1.502  0.2566  0.0221 -0.1134
   39GLOH   H06 8723   8.911   5.775   1.464  0.4435  0.6504 -0.2734
   39GLOH   H07 8724   8.815   5.920   1.481 -0.7570  0.7464  3.2309
   39GLOH    O3 8725   8.714   5.749   1.426  0.0865  0.1565 -0.1931
   39GLOH   H01 8726   8.654   5.816   1.387 -2.8749 -2.0742  0.2923
   40GLOH   H03 8727   2.024   9.480   1.789 -0.2411  1.1741  0.5065
   40GLOH    O1 8728   2.009   9.426   1.868  0.2138 -0.3865 -0.4504
   40GLOH    C1 8729   2.127   9.343   1.887  0.4497 -0.6123  0.5389
   40GLOH   H02 8730   2.151   9.305   1.987  1.1092 -0.9968  0.2320
   40GLOH   H08 8731   2.217   9.396   1.858 -0.0396 -0.1501 -0.1441
   40GLOH    C2 8732   2.107   9.218   1.797 -0.0497 -0.0868 -0.3145
   40GLOH   H04 8733   2.086   9.263   1.699  2.5534  1.6312 -0.1664
   40GLOH    O2 8734   2.231   9.143   1.794 -0.5504 -0.3218 -0.0910
   40GLOH   H05 8735   2.216   9.093   1.712 -0.6079 -1.4576  0.5940
   40GLOH    C3 8736   1.983   9.130   1.835  0.4659  0.4547  0.1950
   40GLOH   H06 8737   1.986   9.098   1.939  1.0066 -3.4901 -0.9571
   40GLOH   H07 8738   1.972   9.042   1.772 -0.3059  0.5844  0.1540
   40GLOH    O3 8739   1.852   9.199   1.819 -1.1569 -0.1990  0.5715
   40GLOH   H01 8740   1.854   9.290   1.854 -4.3282  0.9028 -1.8165
   41GLOH   H03 8741   3.525   6.506   2.633  0.4917  0.9446  0.8142
   41GLOH    O1 8742   3.585   6.558   2.576  0.4425  0.0405 -0.0748
   41GLOH    C1 8743   3.592   6.479   2.456 -0.0661 -0.6395 -0.0055
   41GLOH   H02 8744   3.583   6.371   2.470 -0.0710 -0.9361 -2.0726
   41GLOH   H08 8745   3.688   6.491   2.405 -0.7835  1.0010 -1.0121
   41GLOH    C2 8746   3.490   6.517   2.354  0.9825  0.1594  0.0867
   41GLOH   H04 8747   3.516   6.619   2.322 -1.0033  1.0148  1.1400
   41GLOH    O2 8748   3.512   6.431   2.240 -0.3000  0.2737 -0.2212
   41GLOH   H05 8749   3.458   6.456   2.163  0.5148 -0.8125 -1.1656
   41GLOH    C3 8750   3.343   6.504   2.408  0.0102 -0.1843 -0.6331
   41GLOH   H06 8751   3.350   6.577   2.489 -3.6939 -1.4003  0.8380
   41GLOH   H07 8752   3.332   6.403   2.445  1.4587  0.3437  1.2900
   41GLOH    O3 8753   3.234   6.541   2.323 -0.3687 -0.2643  0.1001
   41GLOH   H01 8754   3.150   6.495   2.339 -1.2263  1.0389 -0.4997
   42GLOH   H03 8755   4.475   1.380   0.861  1.3257  1.8533 -0.7610
   42GLOH    O1 8756   4.446   1.343   0.776 -0.0210  0.0196  0.4531
   42GLOH    C1 8757   4.327   1.262   0.808  0.2386  0.3978 -0.2854
   42GLOH   H02 8758   4.231   1.310   0.829  0.9601  1.0363  1.6238
   42GLOH   H08 8759   4.345   1.198   0.894  0.8297  0.1271 -0.6079
   42GLOH    C2 8760   4.295   1.160   0.694 -0.1339 -0.1566  0.0137
   42GLOH   H04 8761   4.359   1.072   0.714  1.1637  0.5173 -1.0807
   42GLOH    O2 8762   4.156   1.117   0.693  0.0109  0.2484 -0.2437
   42GLOH   H05 8763   4.135   1.096   0.785 -1.1930  4.0672  0.4164
   42GLOH    C3 8764   4.320   1.214   0.552  0.7453 -0.3044  1.2700
   42GLOH   H06 8765   4.249   1.292   0.522  0.3532 -1.0261  0.2492
   42GLOH   H07 8766   4.321   1.132   0.479  0.8341 -0.2130  1.1691
   42GLOH    O3 8767   4.454   1.257   0.537 -0.1769  0.7186  0.3142
   42GLOH   H01 8768   4.474   1.295   0.624 -0.3677  0.7060  0.3650
   43GLOH   H03 8769   9.092   0.154   1.302 -0.0224  2.2470  1.0851
   43GLOH    O1 8770   8.995   0.154   1.294  0.0751  0.3208 -0.2548
   43GLOH    C1 8771   8.944   0.163   1.153 -0.5271 -0.1891 -0.0807
   43GLOH   H02 8772   8.930   0.064   1.110 -4.0098  0.6432 -1.0147
   43GLOH   H08 8773   9.021   0.210   1.091 -0.6527  0.9125  0.5895
   43GLOH    C2 8774   8.811   0.239   1.129  0.6431  0.0472 -0.1668
   43GLOH   H04 8775   8.837   0.346   1.128 -2.9541  0.9898 -1.2722
   43GLOH    O2 8776   8.767   0.216   0.991  0.5616  0.1577  0.0818
   43GLOH   H05 8777   8.752   0.121   0.978  1.7054 -0.2020  1.3049
   43GLOH    C3 8778   8.710   0.221   1.238  0.1696 -0.8169 -0.4468
   43GLOH   H06 8779   8.768   0.242   1.328 -1.8234 -0.1830  0.7139
   43GLOH   H07 8780   8.675   0.118   1.252  1.1391 -0.9852  0.9629
   43GLOH    O3 8781   8.595   0.299   1.243  0.0296  0.5412 -0.5306
   43GLOH   H01 8782   8.521   0.236   1.252 -1.0388  1.4272 -2.7815
   44GLOH   H03 8783   2.160   7.343   1.632  1.3089 -1.1103 -0.2538
   44GLOH    O1 8784   2.215   7.424   1.635  0.3444 -0.4578 -0.2100
   44GLOH    C1 8785   2.346   7.361   1.635 -0.3876  0.1248 -0.4184
   44GLOH   H02 8786   2.345   7.277   1.705 -2.3285  1.0391  0.7096
   44GLOH   H08 8787   2.412   7.441   1.669  0.9090 -1.5810  1.2137
   44GLOH    C2 8788   2.383   7.316   1.490  0.3447 -0.6747 -0.0820
   44GLOH   H04 8789   2.355   7.393   1.417 -0.3296  0.6042  1.4873
   44GLOH    O2 8790   2.522   7.283   1.480  0.0771 -0.0592  0.0105
   44GLOH   H05 8791   2.549   7.216   1.545  2.8589  0.8251 -0.1645
   44GLOH    C3 8792   2.297   7.184   1.466  0.4989  0.4867  0.2302
   44GLOH   H06 8793   2.330   7.114   1.542 -0.6936  0.8175  1.0606
   44GLOH   H07 8794   2.313   7.141   1.367  2.7324 -1.2747  1.3258
   44GLOH    O3 8795   2.155   7.212   1.484  0.0462 -0.2661  0.2048
   44GLOH   H01 8796   2.120   7.229   1.395  1.1579 -3.2066 -0.8350
   45GLOH   H03 8797   0.797   0.798   0.640 -0.1856  1.4218 -0.5475
   45GLOH    O1 8798   0.885   0.803   0.599  0.1427 -0.6027 -0.1575
   45GLOH    C1 8799   0.894   0.743   0.466  0.1182 -0.4140  0.3027
   45GLOH   H02 8800   0.987   0.772   0.417  0.1573  0.2950  0.7962
   45GLOH   H08 8801   0.812   0.784   0.407  1.2275  0.9183 -0.3545
   45GLOH    C2 8802   0.886   0.589   0.460 -0.3394 -0.9578  0.4668
   45GLOH   H04 8803   0.816   0.543   0.532 -0.7336  0.6672  1.1420
   45GLOH    O2 8804   0.847   0.553   0.327 -0.4339  0.1485  0.2080
   45GLOH   H05 8805   0.757   0.518   0.325 -0.0526 -0.8558 -0.4320
   45GLOH    C3 8806   1.026   0.531   0.486  0.2528 -0.0915 -0.2583
   45GLOH   H06 8807   1.103   0.581   0.427  0.8798 -1.3921 -0.5708
   45GLOH   H07 8808   1.019   0.426   0.456  1.4251  0.5617 -3.0164
   45GLOH    O3 8809   1.057   0.543   0.627 -0.0247 -0.3119  0.4056
   45GLOH   H01 8810   1.109   0.461   0.639  1.1414  0.0189 -2.0400
   46GLOH   H03 8811   3.200   8.365   1.304  0.1989  0.8673  0.9855
   46GLOH    O1 8812   3.247   8.437   1.259  0.4835  0.3374  0.4330
   46GLOH    C1 8813   3.152   8.518   1.191  0.2927  0.2867  0.6598
   46GLOH   H02 8814   3.202   8.606   1.152  1.2865 -0.7625 -0.4828
   46GLOH   H08 8815   3.066   8.539   1.255 -1.5490  0.4121 -1.8125
   46GLOH    C2 8816   3.097   8.454   1.066 -0.1919  0.2673 -0.2055
   46GLOH   H04 8817   3.065   8.354   1.098 -0.4556 -0.3239 -2.2307
   46GLOH    O2 8818   2.981   8.521   1.007  0.1007 -0.3815  0.2061
   46GLOH   H05 8819   2.962   8.609   1.042 -0.0579  0.8388 -2.8067
   46GLOH    C3 8820   3.206   8.443   0.953  0.1551  0.5257 -1.0362
   46GLOH   H06 8821   3.219   8.542   0.910  1.9089  2.1101  2.9465
   46GLOH   H07 8822   3.173   8.375   0.874 -1.7514 -0.2002  0.3527
   46GLOH    O3 8823   3.332   8.392   1.008  0.0542 -0.3223  0.0229
   46GLOH   H01 8824   3.329   8.402   1.105 -1.3522 -3.0358  0.3166
   47GLOH   H03 8825   1.076   4.195   3.150 -0.3154 -1.1414 -1.4333
   47GLOH    O1 8826   1.170   4.172   3.143  0.1234 -0.0505  0.4240
   47GLOH    C1 8827   1.214   4.188   3.002 -0.0590 -0.2884  0.0425
   47GLOH   H02 8828   1.201   4.293   2.976 -0.6759  0.0509  1.6520
   47GLOH   H08 8829   1.158   4.117   2.940 -0.3222  0.0814 -0.1516
   47GLOH    C2 8830   1.355   4.152   2.967  0.3084  0.8823  0.0551
   47GLOH   H04 8831   1.415   4.210   3.038  1.5313 -1.5739  1.0883
   47GLOH    O2 8832   1.397   4.017   2.981 -0.4145  0.1452 -0.3848
   47GLOH   H05 8833   1.324   3.961   3.011 -0.6911  1.6542  1.9317
   47GLOH    C3 8834   1.393   4.205   2.825  0.0354 -0.1643 -0.8536
   47GLOH   H06 8835   1.311   4.183   2.758  1.6048 -0.3760 -2.7426
   47GLOH   H07 8836   1.484   4.157   2.788  1.0535  1.8864 -1.0796
   47GLOH    O3 8837   1.417   4.349   2.830 -0.5280  0.0634 -0.5873
   47GLOH   H01 8838   1.514   4.351   2.825 -0.3047  1.2563  2.8653
   48GLOH   H03 8839   0.892   7.401   0.558  0.6608  0.2390 -0.7220
   48GLOH    O1 8840   0.820   7.352   0.514  0.5663 -0.7030  0.4592
   48GLOH    C1 8841   0.698   7.373   0.586 -0.1397 -0.5809  1.2363
   48GLOH   H02 8842   0.615   7.334   0.528  0.9159 -1.8136  0.5352
   48GLOH   H08 8843   0.695   7.482   0.592 -1.0180 -0.5734  0.7338
   48GLOH    C2 8844   0.703   7.298   0.718  0.2213  0.2802 -0.3730
   48GLOH   H04 8845   0.791   7.330   0.775 -0.4766 -0.3386  1.0655
   48GLOH    O2 8846   0.591   7.338   0.808 -0.2095 -0.1431  0.4483
   48GLOH   H05 8847   0.514   7.278   0.805 -0.7957  0.4973  2.0147
   48GLOH    C3 8848   0.711   7.143   0.701  0.1669 -0.1032  0.7196
   48GLOH   H06 8849   0.804   7.116   0.649 -2.1003 -1.8397 -2.5979
   48GLOH   H07 8850   0.628   7.116   0.636  1.5709  0.2045 -1.2735
   48GLOH    O3 8851   0.702   7.075   0.832  0.3445  0.7639 -0.1762
   48GLOH   H01 8852   0.664   7.137   0.897 -0.3586 -0.1657  0.2936
   49GLOH   H03 8853   4.566   7.880   2.484 -1.1181  1.2939 -0.4372
   49GLOH    O1 8854   4.541   7.845   2.397 -0.1806 -0.1990 -0.1117
   49GLOH    C1 8855   4.656   7.793   2.325  0.4855 -0.3334 -0.2719
   49GLOH   H02 8856   4.664   7.686   2.343  0.1523 -0.0326  1.7469
   49GLOH   H08 8857   4.747   7.836   2.366  1.0953 -0.4449 -1.4814
   49GLOH    C2 8858   4.649   7.833   2.176  0.0389  0.0967 -0.9931
   49GLOH   H04 8859   4.658   7.942   2.177 -0.3677  0.1298 -1.0705
   49GLOH    O2 8860   4.767   7.778   2.103 -0.2017  0.4543 -0.5345
   49GLOH   H05 8861   4.813   7.721   2.167 -0.1162  0.7680 -0.3159
   49GLOH    C3 8862   4.512   7.805   2.118  0.5471  0.1160  0.2475
   49GLOH   H06 8863   4.506   7.843   2.017  1.1055  0.7592  0.4507
   49GLOH   H07 8864   4.444   7.857   2.185 -0.5307 -1.7421  0.6504
   49GLOH    O3 8865   4.485   7.665   2.131 -0.1734  0.4707  0.4322
   49GLOH   H01 8866   4.440   7.657   2.217 -1.3135 -0.5263 -0.2453
   50GLOH   H03 8867   8.810   4.964   1.034 -0.0052  0.2190  1.0345
   50GLOH    O1 8868   8.834   5.057   1.049  0.6903  0.0720  0.8267
   50GLOH    C1 8869   8.736   5.102   1.148 -0.0985 -0.2316  0.1151
   50GLOH   H02 8870   8.642   5.122   1.096 -0.4010 -1.0663  0.3295
   50GLOH   H08 8871   8.769   5.194   1.196 -1.4337  0.3425 -0.0600
   50GLOH    C2 8872   8.702   5.005   1.259 -0.4078 -0.8280  0.2316
   50GLOH   H04 8873   8.795   4.965   1.302  0.4977  0.6851 -0.2546
   50GLOH    O2 8874   8.628   5.071   1.363 -0.4090 -0.5098 -0.1389
   50GLOH   H05 8875   8.548   5.123   1.343 -0.2861 -0.0340  0.5845
   50GLOH    C3 8876   8.638   4.875   1.203 -0.3351  0.2235 -0.9243
   50GLOH   H06 8877   8.539   4.906   1.171 -0.3058  2.5219  1.1310
   50GLOH   H07 8878   8.627   4.809   1.289 -1.0734  1.7451  0.1538
   50GLOH    O3 8879   8.732   4.821   1.101 -0.1994 -0.2015 -0.0942
   50GLOH   H01 8880   8.688   4.750   1.052  1.2763 -0.3123 -1.2839
   51GLOH   H03 8881   9.250   3.441   0.485  1.2687 -1.4585  0.8254
   51GLOH    O1 8882   9.226   3.371   0.422 -0.0181 -0.0390 -0.2833
   51GLOH    C1 8883   9.270   3.398   0.285 -0.8658  0.8753  0.0910
   51GLOH   H02 8884   9.226   3.319   0.223  0.6234  1.0584 -1.2393
   51GLOH   H08 8885   9.379   3.398   0.277 -0.7747  1.0011  1.3042
   51GLOH    C2 8886   9.223   3.534   0.238  0.4223 -0.4305  1.0212
   51GLOH   H04 8887   9.113   3.545   0.243  0.4189  1.3943 -2.1767
   51GLOH    O2 8888   9.278   3.644   0.312 -0.6722 -0.1353  0.2495
   51GLOH   H05 8889   9.222   3.720   0.286 -1.2060 -0.4992  0.3371
   51GLOH    C3 8890   9.247   3.551   0.090 -0.0489 -0.3012 -0.0639
   51GLOH   H06 8891   9.197   3.644   0.062  0.6184  0.0821 -0.0005
   51GLOH   H07 8892   9.193   3.474   0.036 -1.6217  0.8965 -0.2334
   51GLOH    O3 8893   9.387   3.549   0.049 -0.0133  0.6977  0.1738
   51GLOH   H01 8894   9.407   3.639   0.017 -0.0415  0.9188  0.7702
   52GLOH   H03 8895   6.855   0.407   2.801 -0.2105 -0.7716  0.9528
   52GLOH    O1 8896   6.808   0.469   2.858 -0.5376  0.0553 -0.2039
   52GLOH    C1 8897   6.709   0.416   2.948  0.0637 -0.4034 -0.1320
   52GLOH   H02 8898   6.762   0.384   3.037  1.6264  1.5326 -0.3347
   52GLOH   H08 8899   6.667   0.324   2.908 -0.2874 -1.3435  2.3139
   52GLOH    C2 8900   6.593   0.518   2.980 -0.7969 -0.4153 -0.2383
   52GLOH   H04 8901   6.513   0.479   3.046  0.3758 -0.9274  0.8936
   52GLOH    O2 8902   6.650   0.643   3.026 -0.2291  0.2486  0.1233
   52GLOH   H05 8903   6.746   0.641   3.037 -0.1779  0.9452 -0.1301
   52GLOH    C3 8904   6.525   0.547   2.852  0.0886 -0.1693  0.2525
   52GLOH   H06 8905   6.605   0.595   2.796  0.5855 -0.6834  0.5105
   52GLOH   H07 8906   6.453   0.628   2.866 -1.2261 -1.5372  1.7569
   52GLOH    O3 8907   6.463   0.437   2.782 -0.0630 -0.5298 -0.1124
   52GLOH   H01 8908   6.400   0.399   2.846  0.5830  1.2416  1.6216
   53GLOH   H03 8909   7.477   8.731   1.221  1.5973 -0.6481 -0.0135
   53GLOH    O1 8910   7.441   8.727   1.130  0.8235 -0.5400  0.2811
   53GLOH    C1 8911   7.482   8.611   1.055  0.2359 -0.8192 -1.0809
   53GLOH   H02 8912   7.393   8.581   0.999 -0.6207  1.1422 -0.8088
   53GLOH   H08 8913   7.489   8.536   1.134  1.2316 -0.2268 -0.5950
   53GLOH    C2 8914   7.604   8.607   0.953 -0.2249 -0.3550  0.1320
   53GLOH   H04 8915   7.591   8.508   0.907 -1.4886  0.1492 -0.6186
   53GLOH    O2 8916   7.597   8.711   0.860 -0.3757  0.0869 -0.2271
   53GLOH   H05 8917   7.533   8.685   0.791 -0.3148  0.3550 -0.3876
   53GLOH    C3 8918   7.737   8.619   1.030  0.1762  0.7492  0.9206
   53GLOH   H06 8919   7.727   8.708   1.092 -1.6742  0.1796  1.4969
   53GLOH   H07 8920   7.814   8.630   0.954 -0.7505  0.8447 -0.0157
   53GLOH    O3 8921   7.765   8.502   1.111  0.2047 -0.2984 -0.0983
   53GLOH   H01 8922   7.855   8.468   1.099  0.4985 -0.8133  3.2431
   54GLOH   H03 8923   3.220   6.409   2.085 -1.6253  0.6828  2.0962
   54GLOH    O1 8924   3.151   6.357   2.039  0.2005  0.0821 -0.0203
   54GLOH    C1 8925   3.201   6.309   1.913  0.3028 -0.5942 -0.6076
   54GLOH   H02 8926   3.167   6.370   1.829  1.7052  0.2555 -0.5833
   54GLOH   H08 8927   3.156   6.211   1.895  2.3687 -2.1866  2.4309
   54GLOH    C2 8928   3.350   6.305   1.897 -0.0187 -0.4490  0.1674
   54GLOH   H04 8929   3.400   6.232   1.963  2.2862  0.1971 -0.8057
   54GLOH    O2 8930   3.381   6.266   1.762  0.4818  0.1792  0.2697
   54GLOH   H05 8931   3.365   6.170   1.759  0.9763  0.1283 -1.2852
   54GLOH    C3 8932   3.419   6.442   1.923  0.5561  0.4903  0.1398
   54GLOH   H06 8933   3.409   6.504   1.834  1.1181  0.9267  0.3738
   54GLOH   H07 8934   3.525   6.420   1.940  0.3472 -0.4758  0.2052
   54GLOH    O3 8935   3.379   6.512   2.037 -0.0688  0.2245  0.5173
   54GLOH   H01 8936   3.334   6.593   2.008  1.0240  0.0558 -1.7826
   55GLOH   H03 8937   2.768   2.874   2.147  0.0902  1.3613  0.4790
   55GLOH    O1 8938   2.804   2.896   2.235  0.3976  0.3934  0.6026
   55GLOH    C1 8939   2.792   2.781   2.324  0.0307 -0.2796 -0.2084
   55GLOH   H02 8940   2.888   2.784   2.377 -0.1866  0.3407  0.1526
   55GLOH   H08 8941   2.794   2.686   2.270 -2.2352 -0.8182  0.6097
   55GLOH    C2 8942   2.688   2.785   2.433  0.0780 -0.3784 -0.2262
   55GLOH   H04 8943   2.689   2.887   2.474  1.1508 -0.2052 -0.6643
   55GLOH    O2 8944   2.562   2.729   2.384 -0.3009  0.2587  0.0436
   55GLOH   H05 8945   2.495   2.731   2.454 -0.8603 -0.9289 -0.4367
   55GLOH    C3 8946   2.739   2.681   2.538 -1.3943 -0.0700 -0.5602
   55GLOH   H06 8947   2.743   2.584   2.488  0.9100 -0.2791 -0.0496
   55GLOH   H07 8948   2.670   2.672   2.622 -0.5929 -1.4359 -0.0258
   55GLOH    O3 8949   2.868   2.717   2.594 -0.0070  0.7509  0.3604
   55GLOH   H01 8950   2.893   2.651   2.662 -0.8556  1.1890  1.1091
   56GLOH   H03 8951   7.961   6.308   1.424 -2.0668 -0.7747  0.4729
   56GLOH    O1 8952   7.957   6.250   1.346 -0.6665 -0.0885 -0.1187
   56GLOH    C1 8953   7.957   6.323   1.219  0.1483 -0.1371 -0.1518
   56GLOH   H02 8954   8.050   6.379   1.214 -0.8102  1.4070 -0.9919
   56GLOH   H08 8955   7.874   6.393   1.217  1.5675  1.5749 -0.4854
   56GLOH    C2 8956   7.946   6.227   1.098  0.0717 -0.0476 -0.8459
   56GLOH   H04 8957   7.843   6.189   1.092 -0.7375  1.3460  2.9175
   56GLOH    O2 8958   7.970   6.299   0.979  0.0177  0.1575  0.1922
   56GLOH   H05 8959   7.982   6.243   0.900 -3.5037  2.0113 -1.7481
   56GLOH    C3 8960   8.053   6.111   1.107 -0.4581  0.5423 -0.0338
   56GLOH   H06 8961   8.154   6.150   1.119  0.4252 -0.9118 -2.4020
   56GLOH   H07 8962   8.049   6.052   1.015  1.0372 -0.9447  0.8155
   56GLOH    O3 8963   8.017   6.022   1.217 -0.5560  0.2450  0.0303
   56GLOH   H01 8964   7.994   6.084   1.289  1.6261  3.7436 -2.1582
   57GLOH   H03 8965   7.804   1.281   3.423 -1.3429 -0.4739  0.2258
   57GLOH    O1 8966   7.858   1.269   3.343 -1.0331 -0.3692  0.4194
   57GLOH    C1 8967   7.857   1.137   3.305 -0.5596  1.0826  0.4443
   57GLOH   H02 8968   7.789   1.132   3.219 -0.5907 -1.9000  0.6020
   57GLOH   H08 8969   7.810   1.070   3.377 -0.1382  1.0633  0.7017
   57GLOH    C2 8970   8.001   1.081   3.278  0.3917 -0.8154 -0.0787
   57GLOH   H04 8971   8.042   1.149   3.202  0.5052  0.2944  0.9651
   57GLOH    O2 8972   8.082   1.075   3.397 -0.2141  0.3412  0.1426
   57GLOH   H05 8973   8.174   1.050   3.379 -0.1843  0.0743  0.6537
   57GLOH    C3 8974   7.998   0.940   3.209 -0.3021 -0.2527 -0.0389
   57GLOH   H06 8975   8.097   0.895   3.213 -0.3085 -0.3216 -0.5884
   57GLOH   H07 8976   7.987   0.944   3.101  3.4760  0.4952 -0.4420
   57GLOH    O3 8977   7.903   0.847   3.272 -0.0003 -0.7904 -0.3860
   57GLOH   H01 8978   7.948   0.818   3.353 -0.0077  1.6924  0.5658
   58GLOH   H03 8979   8.282   8.312   0.738  1.3160  1.2745  0.4607
   58GLOH    O1 8980   8.333   8.241   0.781 -0.1463 -0.2930 -0.3676
   58GLOH    C1 8981   8.392   8.138   0.701  0.1832 -0.5058 -0.3851
   58GLOH   H02 8982   8.318   8.058   0.696 -0.1032 -0.1509 -2.1288
   58GLOH   H08 8983   8.479   8.098   0.753 -0.1382 -1.9432 -0.9289
   58GLOH    C2 8984   8.444   8.178   0.565  0.1713 -0.5740  0.3675
   58GLOH   H04 8985   8.525   8.249   0.585  0.7128 -0.7943 -1.0184
   58GLOH    O2 8986   8.505   8.067   0.508  0.3441  0.3300 -0.2795
   58GLOH   H05 8987   8.601   8.085   0.510  0.1002  1.5204  0.9398
   58GLOH    C3 8988   8.334   8.238   0.474 -0.4248 -0.3162  0.2568
   58GLOH   H06 8989   8.249   8.170   0.469  0.7019 -1.5991 -1.7091
   58GLOH   H07 8990   8.361   8.250   0.370  1.5917  1.0629  0.8979
   58GLOH    O3 8991   8.287   8.369   0.517  0.5360  0.0380  0.2087
   58GLOH   H01 8992   8.208   8.393   0.466  1.6650  2.2411 -0.5890
   59GLOH   H03 8993   6.372   0.246   2.623  0.7699 -0.5926 -0.7959
   59GLOH    O1 8994   6.287   0.239   2.575  0.1462  0.4421  0.1246
   59GLOH    C1 8995   6.231   0.111   2.619 -0.6071  0.5251  0.4833
   59GLOH   H02 8996   6.238   0.098   2.727 -0.0597  0.6826  0.4687
   59GLOH   H08 8997   6.285   0.029   2.571  0.1526 -0.0191  2.2115
   59GLOH    C2 8998   6.080   0.095   2.584  0.5843  0.4080  0.0374
   59GLOH   H04 8999   6.063   0.114   2.477  1.9262  1.3039 -0.0391
   59GLOH    O2 9000   6.026  -0.038   2.619  0.4769 -0.0316 -0.5624
   59GLOH   H05 9001   5.946  -0.070   2.575  0.1733 -0.2273  0.1310
   59GLOH    C3 9002   6.000   0.213   2.651  0.7179  0.3917  0.1539
   59GLOH   H06 9003   5.995   0.208   2.760 -0.0761 -1.5014  0.0440
   59GLOH   H07 9004   5.896   0.213   2.620  0.5795 -2.3490  0.5118
   59GLOH    O3 9005   6.056   0.341   2.609 -0.1593  0.1676 -0.2785
   59GLOH   H01 9006   6.148   0.324   2.581  0.1395 -1.9093  1.7574
   60GLOH   H03 9007   7.273   9.350   0.678 -1.1638 -0.5891  0.2481
   60GLOH    O1 9008   7.270   9.354   0.581 -0.0110 -0.2302  0.2227
   60GLOH    C1 9009   7.247   9.490   0.552 -1.4545 -0.2904  0.0033
   60GLOH   H02 9010   7.318   9.531   0.481 -1.1375  0.7083  0.8961
   60GLOH   H08 9011   7.261   9.537   0.649 -0.2255  1.1348 -0.8357
   60GLOH    C2 9012   7.103   9.508   0.495 -0.4402 -0.6493  0.0686
   60GLOH   H04 9013   7.019   9.473   0.556 -0.8253  1.2679  0.6621
   60GLOH    O2 9014   7.074   9.654   0.483  0.1137 -0.2960  0.3678
   60GLOH   H05 9015   7.064   9.681   0.576 -2.3017 -0.1238  0.0867
   60GLOH    C3 9016   7.084   9.448   0.353  0.2647 -0.1952  0.7696
   60GLOH   H06 9017   7.167   9.484   0.292  0.8422 -0.0581  1.6265
   60GLOH   H07 9018   6.992   9.488   0.311  1.2458 -0.8657 -2.1264
   60GLOH    O3 9019   7.081   9.305   0.352  0.0910  0.8489  0.6476
   60GLOH   H01 9020   7.119   9.273   0.436 -1.0856 -0.8339  0.5458
   61GLOH   H03 9021   3.483   2.691   1.592  0.9805  0.5558  0.3968
   61GLOH    O1 9022   3.474   2.780   1.552  0.1075  0.6930  0.8872
   61GLOH    C1 9023   3.534   2.765   1.422  0.2047  0.2921  0.2860
   61GLOH   H02 9024   3.613   2.690   1.434 -1.2471 -1.2914  0.1598
   61GLOH   H08 9025   3.571   2.863   1.392 -2.4346  1.4602  0.7062
   61GLOH    C2 9026   3.436   2.713   1.320  0.6196  0.3239 -0.0906
   61GLOH   H04 9027   3.343   2.771   1.329  1.0226  1.0769 -0.6467
   61GLOH    O2 9028   3.487   2.720   1.185 -0.1263  0.1568 -0.2683
   61GLOH   H05 9029   3.421   2.745   1.118 -1.1300 -0.5107  0.4623
   61GLOH    C3 9030   3.402   2.559   1.335 -0.3245 -0.6929 -0.2704
   61GLOH   H06 9031   3.493   2.502   1.313  0.3201 -0.6970  2.1665
   61GLOH   H07 9032   3.330   2.539   1.256  0.4743 -1.5737 -0.7840
   61GLOH    O3 9033   3.366   2.522   1.473 -0.1509 -0.2711  0.0044
   61GLOH   H01 9034   3.333   2.430   1.472  0.9549 -0.6801 -1.5400
   62GLOH   H03 9035   4.462   1.228   0.373 -1.3313 -0.3838 -0.5811
   62GLOH    O1 9036   4.491   1.234   0.280  0.1237  0.4622 -0.0879
   62GLOH    C1 9037   4.581   1.127   0.244  0.0762 -0.1242 -0.1840
   62GLOH   H02 9038   4.552   1.041   0.306 -0.9486  0.5676  0.3081
   62GLOH   H08 9039   4.685   1.156   0.257  0.6493 -1.9950 -0.3705
   62GLOH    C2 9040   4.564   1.071   0.104 -0.7919 -0.7261 -0.0050
   62GLOH   H04 9041   4.567   1.156   0.035  1.0422  0.6576  1.7035
   62GLOH    O2 9042   4.675   0.981   0.064 -0.3412 -0.4525  0.1476
   62GLOH   H05 9043   4.666   0.975  -0.032 -1.4616 -0.5718  0.2532
   62GLOH    C3 9044   4.429   0.999   0.088  0.0151 -0.5180  0.0374
   62GLOH   H06 9045   4.451   0.897   0.121  0.3531  0.0584  1.6398
   62GLOH   H07 9046   4.421   0.999  -0.020  2.9140 -1.3453 -0.2294
   62GLOH    O3 9047   4.326   1.071   0.155  0.7507 -0.0841 -0.8574
   62GLOH   H01 9048   4.369   1.136   0.213 -2.1458  1.5040 -0.4153
   63GLOH   H03 9049   8.788   6.737   0.101  1.0338 -0.3211  0.4248
   63GLOH    O1 9050   8.743   6.667   0.151  0.7087 -0.0749  0.4820
   63GLOH    C1 9051   8.609   6.643   0.101  0.3090 -0.3752 -0.7372
   63GLOH   H02 9052   8.563   6.725   0.046 -2.5044 -1.9804 -0.8414
   63GLOH   H08 9053   8.533   6.618   0.175 -0.0597  0.2844 -0.8888
   63GLOH    C2 9054   8.621   6.527   0.001  0.1029  0.1014  0.1951
   63GLOH   H04 9055   8.521   6.495  -0.033  0.3260 -1.4456  0.9443
   63GLOH    O2 9056   8.683   6.575  -0.125 -0.1478  0.0240  0.2117
   63GLOH   H05 9057   8.623   6.618  -0.188 -2.9431 -2.3844  1.1120
   63GLOH    C3 9058   8.682   6.399   0.059  0.2935  0.9787 -0.6750
   63GLOH   H06 9059   8.777   6.423   0.107  1.1240 -3.7882  0.3369
   63GLOH   H07 9060   8.702   6.322  -0.015  0.7167 -0.7665  1.1953
   63GLOH    O3 9061   8.594   6.343   0.158  0.4541  0.0684 -0.4012
   63GLOH   H01 9062   8.637   6.336   0.245 -0.8730 -0.0912  0.2579
   64GLOH   H03 9063   7.954   9.564   1.089 -0.0657 -1.1083  1.1979
   64GLOH    O1 9064   7.865   9.563   1.047  0.4658 -0.3795  0.0074
   64GLOH    C1 9065   7.786   9.473   1.126  0.7123  0.0440 -0.1015
   64GLOH   H02 9066   7.836   9.392   1.178 -1.4725 -2.0898 -1.2305
   64GLOH   H08 9067   7.708   9.433   1.062 -0.4656  1.8382  0.1614
   64GLOH    C2 9068   7.715   9.551   1.230 -0.8508 -0.4381 -0.5620
   64GLOH   H04 9069   7.678   9.639   1.176  2.4012  1.6076  0.4103
   64GLOH    O2 9070   7.593   9.485   1.280 -0.2478  0.0503  0.0645
   64GLOH   H05 9071   7.518   9.542   1.256  0.3695  1.1537  0.7344
   64GLOH    C3 9072   7.802   9.605   1.349 -0.4034 -0.0668  0.5533
   64GLOH   H06 9073   7.887   9.657   1.304 -0.8266 -1.0130 -1.3984
   64GLOH   H07 9074   7.849   9.522   1.403 -1.8648 -0.2889  1.5017
   64GLOH    O3 9075   7.728   9.689   1.441  0.3680 -0.5121 -0.2047
   64GLOH   H01 9076   7.780   9.685   1.523 -1.1980  0.4798  0.8800
   65GLOH   H03 9077   2.048   8.165   0.757 -0.4332  3.3559  0.5364
   65GLOH    O1 9078   1.983   8.138   0.825 -0.0006  0.1864 -0.2314
   65GLOH    C1 9079   1.955   8.252   0.908  0.4211  0.2952 -0.0405
   65GLOH   H02 9080   1.892   8.213   0.988 -1.3713  1.5195 -0.8399
   65GLOH   H08 9081   1.898   8.331   0.860  1.9893  1.5649  0.1513
   65GLOH    C2 9082   2.069   8.325   0.975  0.0125 -0.1687  0.1417
   65GLOH   H04 9083   2.139   8.350   0.894 -2.6007 -1.0797 -2.4733
   65GLOH    O2 9084   2.029   8.435   1.062  0.1012 -0.3029 -0.0325
   65GLOH   H05 9085   2.021   8.512   1.003  3.5676  0.0108 -0.1986
   65GLOH    C3 9086   2.147   8.223   1.058 -0.6189  0.3567  0.0718
   65GLOH   H06 9087   2.158   8.128   1.006 -1.2704 -0.0856  0.7314
   65GLOH   H07 9088   2.094   8.202   1.151  1.5265 -0.8808  1.0646
   65GLOH    O3 9089   2.283   8.258   1.084 -0.1560 -0.7084  0.6417
   65GLOH   H01 9090   2.276   8.344   1.130  1.7486 -0.2484  0.1144
   66GLOH   H03 9091   6.320   9.060   2.568 -0.6068  0.2100 -0.0764
   66GLOH    O1 9092   6.287   9.101   2.650 -0.3855  0.5114 -0.1412
   66GLOH    C1 9093   6.229   9.229   2.615 -0.1811 -0.0090 -0.2678
   66GLOH   H02 9094   6.129   9.249   2.654 -0.8394  0.5331 -2.2021
   66GLOH   H08 9095   6.219   9.247   2.508  1.3234  3.0482  0.0289
   66GLOH    C2 9096   6.319   9.349   2.654 -0.7098 -0.3824 -0.3623
   66GLOH   H04 9097   6.402   9.352   2.582  1.2092 -0.9289  1.7951
   66GLOH    O2 9098   6.240   9.465   2.644  0.7671  0.3080 -0.6908
   66GLOH   H05 9099   6.287   9.529   2.589  0.9723  1.4075  0.7478
   66GLOH    C3 9100   6.373   9.343   2.801  0.0376 -0.2123  0.1427
   66GLOH   H06 9101   6.289   9.353   2.870 -3.0600 -2.1874 -3.1509
   66GLOH   H07 9102   6.430   9.434   2.819 -2.3929  1.6332 -1.2065
   66GLOH    O3 9103   6.455   9.232   2.824  0.1159 -0.3685 -0.2635
   66GLOH   H01 9104   6.426   9.167   2.758  0.3681 -1.8768  1.0863
   67GLOH   H03 9105   3.673   7.576   1.356  1.2690  1.5594  0.6487
   67GLOH    O1 9106   3.732   7.524   1.414  0.3152 -0.2331  0.0393
   67GLOH    C1 9107   3.872   7.556   1.390  0.7118  0.2060 -0.1201
   67GLOH   H02 9108   3.914   7.596   1.482 -1.2436  0.9683  0.4603
   67GLOH   H08 9109   3.888   7.634   1.316 -2.1712  0.4960 -0.5034
   67GLOH    C2 9110   3.959   7.436   1.347 -0.0844  0.5870 -0.3649
   67GLOH   H04 9111   3.904   7.394   1.262  0.8088  0.5740 -0.9461
   67GLOH    O2 9112   4.085   7.483   1.298 -0.2921  0.4867 -0.2624
   67GLOH   H05 9113   4.126   7.528   1.374  1.2801 -2.2105  0.5487
   67GLOH    C3 9114   3.972   7.336   1.462  0.4225  0.1824  0.0015
   67GLOH   H06 9115   4.030   7.250   1.431  1.7309  0.2394  2.1598
   67GLOH   H07 9116   3.874   7.293   1.483 -0.9039  2.5197 -1.1219
   67GLOH    O3 9117   4.037   7.398   1.579 -0.4358  0.8558  0.4917
   67GLOH   H01 9118   4.112   7.449   1.544 -1.3136  0.3774 -2.1794
   68GLOH   H03 9119   1.192   0.418   1.223  0.9552  0.6356  0.2477
   68GLOH    O1 9120   1.176   0.353   1.294  0.6196  0.2556 -0.1774
   68GLOH    C1 9121   1.255   0.398   1.405  0.8580  0.6032  0.4556
   68GLOH   H02 9122   1.199   0.365   1.492 -1.0217 -1.5652 -1.4965
   68GLOH   H08 9123   1.269   0.504   1.425 -0.1605  1.4367 -2.9855
   68GLOH    C2 9124   1.388   0.323   1.421 -1.1136 -0.0208 -0.3536
   68GLOH   H04 9125   1.452   0.332   1.332 -0.3788  0.6817  0.2311
   68GLOH    O2 9126   1.454   0.391   1.529 -0.2914 -0.0293 -0.1600
   68GLOH   H05 9127   1.536   0.427   1.491  0.1113 -1.0452 -0.2656
   68GLOH    C3 9128   1.370   0.173   1.452 -0.3166 -0.1690  0.2546
   68GLOH   H06 9129   1.293   0.123   1.392 -0.3354  0.1199  0.0328
   68GLOH   H07 9130   1.341   0.170   1.557 -0.2176 -2.7187  0.2305
   68GLOH    O3 9131   1.494   0.105   1.427  0.1312  0.5018  0.1716
   68GLOH   H01 9132   1.561   0.152   1.482 -1.6704  0.9514  2.0671
   69GLOH   H03 9133   1.166   7.486   2.434 -1.5494 -2.7221  1.2103
   69GLOH    O1 9134   1.207   7.522   2.515 -0.2796 -0.0313 -0.5471
   69GLOH    C1 9135   1.345   7.488   2.507  0.8493  0.9782 -0.5384
   69GLOH   H02 9136   1.363   7.442   2.409 -1.6947  0.3511 -0.7684
   69GLOH   H08 9137   1.373   7.415   2.583 -3.1220  0.5941  0.6850
   69GLOH    C2 9138   1.434   7.610   2.516 -0.5689 -0.4586  0.3467
   69GLOH   H04 9139   1.405   7.659   2.610  0.1787 -1.1798  0.9704
   69GLOH    O2 9140   1.575   7.577   2.539  0.1616 -0.3685  0.6802
   69GLOH   H05 9141   1.639   7.646   2.563  0.5698 -0.0431 -1.3097
   69GLOH    C3 9142   1.412   7.717   2.412 -0.1534  0.1290 -0.4830
   69GLOH   H06 9143   1.455   7.812   2.443 -0.3268 -0.0499  0.3081
   69GLOH   H07 9144   1.304   7.730   2.406 -0.0095  0.6454 -2.3564
   69GLOH    O3 9145   1.444   7.688   2.275  0.4938  0.1348 -0.6393
   69GLOH   H01 9146   1.446   7.592   2.260  1.2040 -0.1039  0.9285
   70GLOH   H03 9147   3.273   3.517   2.662 -0.2433  4.3846 -1.0566
   70GLOH    O1 9148   3.333   3.513   2.585  0.1811  0.5451 -0.5991
   70GLOH    C1 9149   3.294   3.632   2.521 -0.0531 -0.6771 -0.0687
   70GLOH   H02 9150   3.369   3.659   2.447  1.3476 -1.4751  1.0429
   70GLOH   H08 9151   3.294   3.721   2.584  0.9670 -0.7580  0.0472
   70GLOH    C2 9152   3.156   3.630   2.451 -0.2521 -0.1414  0.3514
   70GLOH   H04 9153   3.084   3.579   2.517 -1.0185  3.4829  2.4344
   70GLOH    O2 9154   3.105   3.762   2.426 -0.1661 -0.1683  0.0747
   70GLOH   H05 9155   3.016   3.771   2.465 -0.4954  0.0977 -0.7259
   70GLOH    C3 9156   3.175   3.558   2.320  0.4487 -0.5852  1.6783
   70GLOH   H06 9157   3.234   3.619   2.251 -0.5853 -0.4640  0.8881
   70GLOH   H07 9158   3.080   3.548   2.268  0.5023 -0.7893  1.6208
   70GLOH    O3 9159   3.246   3.435   2.332 -0.1020 -0.2233  0.0799
   70GLOH   H01 9160   3.212   3.382   2.407 -1.2967 -1.8707 -1.5769
   71GLOH   H03 9161   8.676   0.226   0.834 -1.9731 -0.6197  1.3856
   71GLOH    O1 9162   8.611   0.211   0.762 -0.2684 -0.5232 -0.2056
   71GLOH    C1 9163   8.486   0.183   0.827  0.5374 -0.1541  0.1306
   71GLOH   H02 9164   8.487   0.208   0.933  2.6019 -1.2189  0.4131
   71GLOH   H08 9165   8.463   0.076   0.825  2.1037 -0.5339  1.0833
   71GLOH    C2 9166   8.356   0.248   0.778 -0.5983  0.4265  0.2352
   71GLOH   H04 9167   8.274   0.206   0.838  0.5316 -0.1948  1.3585
   71GLOH    O2 9168   8.360   0.391   0.809  0.3468 -0.5977 -0.1094
   71GLOH   H05 9169   8.396   0.416   0.895  2.3104  0.5135 -1.2238
   71GLOH    C3 9170   8.329   0.227   0.628  0.2828  0.8772  0.9452
   71GLOH   H06 9171   8.384   0.283   0.552 -2.2004 -0.3460 -1.8560
   71GLOH   H07 9172   8.229   0.263   0.600  0.4217  1.5187  1.2528
   71GLOH    O3 9173   8.348   0.090   0.585  0.0745 -0.0529 -0.1212
   71GLOH   H01 9174   8.293   0.068   0.508  0.1415  0.4115 -0.2993
   72GLOH   H03 9175   1.758   5.982   2.696 -0.0227 -2.7313 -0.2902
   72GLOH    O1 9176   1.744   6.001   2.602 -0.2208 -0.3318  0.2091
   72GLOH    C1 9177   1.616   6.076   2.589  0.0101 -0.0146  1.0989
   72GLOH   H02 9178   1.637   6.154   2.515 -1.1606  0.7581  1.5635
   72GLOH   H08 9179   1.593   6.139   2.675 -1.7000  0.7838  0.0881
   72GLOH    C2 9180   1.504   5.989   2.536 -0.1393 -0.3753 -0.7113
   72GLOH   H04 9181   1.483   5.911   2.611  0.2005  1.4686  1.3346
   72GLOH    O2 9182   1.376   6.057   2.510  0.4728 -0.5978  0.7643
   72GLOH   H05 9183   1.400   6.111   2.432  1.4662 -2.3867 -0.1923
   72GLOH    C3 9184   1.540   5.926   2.403 -0.3414 -0.0520 -0.0201
   72GLOH   H06 9185   1.528   6.001   2.326 -1.7127  0.1526  0.3780
   72GLOH   H07 9186   1.460   5.856   2.380 -0.0334 -0.3963 -0.0475
   72GLOH    O3 9187   1.671   5.858   2.414 -0.3100  0.5319  0.2003
   72GLOH   H01 9188   1.722   5.909   2.480  3.0846 -1.6517 -0.6307
   73GLOH   H03 9189   1.589   1.006   1.226  1.9926 -0.0679  1.3028
   73GLOH    O1 9190   1.542   0.941   1.282  0.0235  0.1473 -0.0308
   73GLOH    C1 9191   1.639   0.921   1.385 -0.7875 -0.0091 -0.3417
   73GLOH   H02 9192   1.585   0.938   1.478  1.5861  2.2010  0.6956
   73GLOH   H08 9193   1.719   0.995   1.384 -1.4501  0.7748  1.7524
   73GLOH    C2 9194   1.697   0.780   1.398 -0.7832  0.0433  0.1279
   73GLOH   H04 9195   1.726   0.733   1.303  1.1523  0.0908  0.6646
   73GLOH    O2 9196   1.810   0.781   1.490  0.2907  0.3420 -0.1044
   73GLOH   H05 9197   1.780   0.801   1.580  1.6208  0.8390  0.2485
   73GLOH    C3 9198   1.593   0.682   1.460  0.6701  0.3312  0.1769
   73GLOH   H06 9199   1.492   0.710   1.429 -0.7438 -1.5294  2.8693
   73GLOH   H07 9200   1.584   0.691   1.569  2.0864  0.0551  0.3292
   73GLOH    O3 9201   1.630   0.545   1.432  0.1014 -0.0021 -0.2223
   73GLOH   H01 9202   1.716   0.530   1.475  0.3425  1.2941 -0.2269
   74GLOH   H03 9203   9.500   4.012   1.762  2.4294  0.3283  0.1917
   74GLOH    O1 9204   9.504   4.015   1.665 -0.9769  0.1617 -0.0115
   74GLOH    C1 9205   9.584   4.119   1.616 -0.4051 -0.1726 -0.5886
   74GLOH   H02 9206   9.604   4.102   1.511  0.1568 -2.6723 -0.0969
   74GLOH   H08 9207   9.684   4.110   1.660 -0.4234  0.5717 -0.3834
   74GLOH    C2 9208   9.520   4.258   1.644  0.2317  0.1333 -0.5310
   74GLOH   H04 9209   9.517   4.277   1.753 -2.2643  1.5085 -0.8118
   74GLOH    O2 9210   9.601   4.353   1.581 -0.0204 -0.6417 -0.2975
   74GLOH   H05 9211   9.638   4.426   1.632  0.6520 -0.5829 -0.8682
   74GLOH    C3 9212   9.383   4.271   1.579 -0.2193  0.1355  0.9557
   74GLOH   H06 9213   9.397   4.277   1.471 -0.4702  0.0625  0.9175
   74GLOH   H07 9214   9.333   4.365   1.602 -0.6097  0.3137 -0.5601
   74GLOH    O3 9215   9.306   4.155   1.623 -0.4004  0.0381  0.9036
   74GLOH   H01 9216   9.364   4.076   1.619  0.5534  0.7936 -0.4084
   75GLOH   H03 9217   1.630   8.170   0.117  0.8164 -0.5971 -0.7595
   75GLOH    O1 9218   1.709   8.171   0.173 -0.0995 -0.1683  0.5642
   75GLOH    C1 9219   1.713   8.294   0.249 -0.1909 -0.6786 -0.5033
   75GLOH   H02 9220   1.624   8.300   0.312  0.0563  1.4682 -0.3134
   75GLOH   H08 9221   1.713   8.378   0.179  0.1323  0.3971  0.7686
   75GLOH    C2 9222   1.844   8.292   0.329  0.6318 -0.7858  0.2469
   75GLOH   H04 9223   1.926   8.288   0.256 -0.1697  1.6462 -0.8439
   75GLOH    O2 9224   1.845   8.417   0.404 -0.4055 -0.5413  0.0256
   75GLOH   H05 9225   1.768   8.423   0.463 -1.1583 -1.3601 -0.8611
   75GLOH    C3 9226   1.857   8.168   0.425  0.4618  0.8043 -0.2835
   75GLOH   H06 9227   1.775   8.155   0.496 -1.3675  0.0625 -2.4822
   75GLOH   H07 9228   1.941   8.187   0.492  0.9465 -1.4639 -0.2318
   75GLOH    O3 9229   1.876   8.044   0.354  0.1592  0.8839 -1.3136
   75GLOH   H01 9230   1.816   8.050   0.277  0.9748  0.3167 -1.9918
   76GLOH   H03 9231   8.163   9.233   2.292 -2.2414  2.4477  0.2144
   76GLOH    O1 9232   8.230   9.283   2.342  0.0007 -0.4337  0.2028
   76GLOH    C1 9233   8.359   9.278   2.292  0.4115  1.4489 -0.4233
   76GLOH   H02 9234   8.420   9.343   2.355  0.0301  1.7025 -0.3119
   76GLOH   H08 9235   8.378   9.307   2.189  2.1080 -0.2689 -0.6047
   76GLOH    C2 9236   8.416   9.135   2.316  0.5469  0.6031  0.4034
   76GLOH   H04 9237   8.360   9.063   2.254  1.5165  0.2628 -0.0809
   76GLOH    O2 9238   8.553   9.137   2.277  0.8096 -0.4412 -0.4029
   76GLOH   H05 9239   8.563   9.143   2.180  1.5667  0.4600 -0.2801
   76GLOH    C3 9240   8.407   9.079   2.458 -0.3420  0.4345  0.2581
   76GLOH   H06 9241   8.452   9.150   2.527 -0.3599  0.1581  0.5550
   76GLOH   H07 9242   8.457   8.984   2.479 -0.6155  0.4984  1.2331
   76GLOH    O3 9243   8.268   9.079   2.507  0.0303 -0.1471 -0.5798
   76GLOH   H01 9244   8.220   9.162   2.497 -3.5578 -1.9959  0.3842
   77GLOH   H03 9245   8.382   7.994   0.387 -0.4019  1.1252 -0.8272
   77GLOH    O1 9246   8.317   7.966   0.320 -1.0610  0.3332  0.1105
   77GLOH    C1 9247   8.325   7.819   0.313 -0.0786  0.2343  0.0445
   77GLOH   H02 9248   8.291   7.791   0.214  0.8777 -1.1340  0.0820
   77GLOH   H08 9249   8.258   7.775   0.387 -0.7077  0.7743 -0.2027
   77GLOH    C2 9250   8.471   7.767   0.314  0.1471 -0.0242 -0.0961
   77GLOH   H04 9251   8.537   7.830   0.376  0.6753  0.5989 -1.2841
   77GLOH    O2 9252   8.461   7.636   0.365  0.2114 -0.7945  0.1163
   77GLOH   H05 9253   8.451   7.637   0.462  1.0419  1.2023  0.2144
   77GLOH    C3 9254   8.540   7.760   0.177 -0.2700 -0.6937  0.4951
   77GLOH   H06 9255   8.482   7.684   0.124 -1.8828 -1.0360  2.6994
   77GLOH   H07 9256   8.641   7.722   0.194  0.6123  0.4848 -1.7666
   77GLOH    O3 9257   8.539   7.879   0.108 -0.3361  0.1564 -0.2369
   77GLOH   H01 9258   8.500   7.854   0.022  2.4248  1.2368 -1.8552
   78GLOH   H03 9259   1.693   7.611   1.931 -0.4691  0.4267  0.8709
   78GLOH    O1 9260   1.766   7.636   1.991  0.2505  0.4645 -0.0172
   78GLOH    C1 9261   1.896   7.644   1.929 -0.2502 -0.1193  0.8041
   78GLOH   H02 9262   1.911   7.560   1.861  1.1045 -0.0279  0.9887
   78GLOH   H08 9263   1.977   7.638   2.000  1.1498  1.4978 -0.6149
   78GLOH    C2 9264   1.920   7.773   1.843  0.1875  0.4963  0.2768
   78GLOH   H04 9265   2.027   7.766   1.819  0.2452 -0.5197  0.8151
   78GLOH    O2 9266   1.831   7.768   1.728 -0.4900  0.2829  0.2500
   78GLOH   H05 9267   1.861   7.816   1.649  1.9161  0.9183  1.4963
   78GLOH    C3 9268   1.903   7.893   1.939 -0.1415  0.4114  0.0340
   78GLOH   H06 9269   1.977   7.873   2.015 -1.2090 -0.4029  0.8699
   78GLOH   H07 9270   1.804   7.892   1.985  0.0347  3.9647  0.6448
   78GLOH    O3 9271   1.942   8.023   1.884  0.0713 -0.3788 -0.2777
   78GLOH   H01 9272   1.932   8.090   1.954  1.6602  0.4924 -0.8801
   79GLOH   H03 9273   3.478   9.948   1.545 -0.0448 -2.0225  2.2206
   79GLOH    O1 9274   3.499  10.024   1.602  0.4571 -0.2590 -0.2375
   79GLOH    C1 9275   3.589   9.987   1.707 -0.1744 -0.0128  0.6094
   79GLOH   H02 9276   3.601   9.881   1.687 -0.4224  0.0995 -0.1743
   79GLOH   H08 9277   3.541   9.989   1.804 -1.2488 -0.2464  0.0848
   79GLOH    C2 9278   3.722  10.068   1.710 -0.1063  0.3087 -0.4765
   79GLOH   H04 9279   3.771  10.018   1.796  1.2758  0.0115 -1.4315
   79GLOH    O2 9280   3.797  10.053   1.589  0.2258  0.2777  0.2921
   79GLOH   H05 9281   3.790  10.140   1.546  1.5198 -0.2498 -1.0282
   79GLOH    C3 9282   3.699  10.213   1.746  0.1509 -0.8343 -0.1447
   79GLOH   H06 9283   3.626  10.250   1.675 -0.8608 -0.0896  1.2551
   79GLOH   H07 9284   3.796  10.263   1.738  0.5982 -1.5674  0.5848
   79GLOH    O3 9285   3.650  10.236   1.883  0.2006 -0.3682  0.0759
   79GLOH   H01 9286   3.672  10.151   1.926 -2.0618 -0.4944  1.0226
   80GLOH   H03 9287   4.625   9.373   2.069  0.0403  0.1227 -1.8951
   80GLOH    O1 9288   4.676   9.456   2.073 -0.7927  0.5653 -0.0032
   80GLOH    C1 9289   4.742   9.448   2.203  0.2511  0.0433 -0.3197
   80GLOH   H02 9290   4.690   9.373   2.264 -1.1584  0.9166 -0.4192
   80GLOH   H08 9291   4.731   9.542   2.257 -0.5610 -1.0712  1.5141
   80GLOH    C2 9292   4.892   9.422   2.195 -0.0788  0.4011  0.2859
   80GLOH   H04 9293   4.943   9.501   2.139 -0.0766  1.0931  1.2627
   80GLOH    O2 9294   4.955   9.400   2.320  0.1848  0.1446 -0.2319
   80GLOH   H05 9295   4.920   9.333   2.380  1.5006 -0.1881  0.1947
   80GLOH    C3 9296   4.914   9.294   2.108 -0.3122 -0.2775 -0.0295
   80GLOH   H06 9297   4.861   9.211   2.155 -0.9004  0.3281  0.3769
   80GLOH   H07 9298   5.020   9.269   2.104 -0.0820  0.2513  2.3242
   80GLOH    O3 9299   4.856   9.302   1.976 -0.6483 -0.0453  0.1481
   80GLOH   H01 9300   4.771   9.348   1.991 -0.5596  0.2467 -0.2508
   81GLOH   H03 9301   4.272   2.038   1.108  0.1874 -0.4969  0.3906
   81GLOH    O1 9302   4.355   2.010   1.065  0.2043  0.4461 -0.2122
   81GLOH    C1 9303   4.354   1.863   1.051 -0.2672 -0.0988  0.3192
   81GLOH   H02 9304   4.251   1.828   1.041 -0.3171  0.1011  0.1266
   81GLOH   H08 9305   4.391   1.812   1.140 -1.2073 -1.1811  0.0973
   81GLOH    C2 9306   4.434   1.811   0.931  0.6192  0.0519  0.3047
   81GLOH   H04 9307   4.536   1.851   0.943  0.7724  0.5623 -2.3978
   81GLOH    O2 9308   4.425   1.662   0.931  0.0084 -0.6392 -0.2306
   81GLOH   H05 9309   4.334   1.629   0.928  0.5266 -2.1984  0.4672
   81GLOH    C3 9310   4.374   1.868   0.804 -0.3890 -0.8098  0.7927
   81GLOH   H06 9311   4.409   1.811   0.717  2.5715  1.2413  0.5665
   81GLOH   H07 9312   4.412   1.969   0.793 -2.1891  0.2757  3.9864
   81GLOH    O3 9313   4.235   1.860   0.802 -0.3305 -0.3435  0.2786
   81GLOH   H01 9314   4.213   1.769   0.830 -0.5680 -0.3544  0.0651
   82GLOH   H03 9315   8.706   4.165   2.007  0.8086  1.4662  2.6473
   82GLOH    O1 9316   8.734   4.241   1.953 -0.3245 -0.0758 -0.2284
   82GLOH    C1 9317   8.629   4.334   1.972  0.2591 -0.1008 -0.5811
   82GLOH   H02 9318   8.645   4.376   2.071  0.2155 -1.0158 -0.1786
   82GLOH   H08 9319   8.527   4.294   1.968  0.5902 -0.8797 -1.4207
   82GLOH    C2 9320   8.644   4.461   1.886  0.2033  0.3313 -0.2240
   82GLOH   H04 9321   8.742   4.500   1.915  0.2850 -0.1920  0.2345
   82GLOH    O2 9322   8.637   4.434   1.744  0.5336  0.0510  0.0171
   82GLOH   H05 9323   8.673   4.345   1.729 -0.1347 -0.4797  1.5292
   82GLOH    C3 9324   8.543   4.572   1.917  0.5636 -0.0380  0.9647
   82GLOH   H06 9325   8.448   4.556   1.867  2.1051  1.4551 -2.6465
   82GLOH   H07 9326   8.566   4.665   1.864 -1.0848 -1.4535 -2.3695
   82GLOH    O3 9327   8.538   4.607   2.056 -0.2712  0.7705  0.9687
   82GLOH   H01 9328   8.508   4.699   2.063 -1.4324  0.5776 -0.9618
   83GLOH   H03 9329   1.711   1.751   2.044 -1.4871 -1.4460  1.4045
   83GLOH    O1 9330   1.635   1.745   1.982 -0.2312 -0.2071 -0.3339
   83GLOH    C1 9331   1.633   1.608   1.935  0.3880 -0.5995  0.1240
   83GLOH   H02 9332   1.699   1.543   1.994 -0.5416 -0.3777  1.4456
   83GLOH   H08 9333   1.669   1.598   1.833  0.1661  0.7376 -0.0799
   83GLOH    C2 9334   1.491   1.547   1.940  0.3517  0.1322 -0.4583
   83GLOH   H04 9335   1.506   1.441   1.912 -1.0274 -0.8527  2.3467
   83GLOH    O2 9336   1.422   1.546   2.067  0.3182 -0.2028 -0.4318
   83GLOH   H05 9337   1.412   1.634   2.106  1.2190  0.0277 -0.7216
   83GLOH    C3 9338   1.393   1.604   1.834 -0.0043  0.1012 -0.1174
   83GLOH   H06 9339   1.395   1.711   1.852 -1.1058  0.4580 -1.9738
   83GLOH   H07 9340   1.293   1.562   1.849  0.1946 -0.3865 -0.1426
   83GLOH    O3 9341   1.421   1.592   1.699 -1.4557 -0.3554 -0.3148
   83GLOH   H01 9342   1.429   1.499   1.672 -0.0759  0.2777 -2.1563
   84GLOH   H03 9343   8.180   2.531   2.544  2.8519 -0.7904  0.8237
   84GLOH    O1 9344   8.216   2.545   2.454 -0.0680  0.7423 -0.1693
   84GLOH    C1 9345   8.141   2.643   2.379  0.2083  0.1071 -0.3153
   84GLOH   H02 9346   8.063   2.693   2.436  0.5061  2.0114 -1.5385
   84GLOH   H08 9347   8.083   2.601   2.298  0.4585  0.9412 -0.9318
   84GLOH    C2 9348   8.238   2.753   2.318 -0.0832  0.2756 -0.0090
   84GLOH   H04 9349   8.168   2.819   2.264 -2.2169 -2.3338 -0.5160
   84GLOH    O2 9350   8.300   2.826   2.424 -0.9068 -0.0896  0.2555
   84GLOH   H05 9351   8.325   2.916   2.397  1.3724 -0.9001 -0.4417
   84GLOH    C3 9352   8.325   2.695   2.208 -0.4210 -0.3323 -0.5342
   84GLOH   H06 9353   8.397   2.627   2.253 -1.1832 -0.4603  0.5042
   84GLOH   H07 9354   8.387   2.772   2.161  1.8938 -1.3172  0.8026
   84GLOH    O3 9355   8.239   2.632   2.109 -0.0630 -0.5204 -0.3877
   84GLOH   H01 9356   8.272   2.677   2.029  0.5600 -2.5528 -1.3091
   85GLOH   H03 9357   9.969   8.071   2.589  2.0453 -1.7130 -1.8885
   85GLOH    O1 9358  10.027   8.145   2.562  0.5667  0.1210 -0.2195
   85GLOH    C1 9359   9.966   8.252   2.489 -0.0523 -0.2305  0.3282
   85GLOH   H02 9360  10.045   8.316   2.452 -2.0276  0.6293 -2.6016
   85GLOH   H08 9361   9.893   8.302   2.552  0.7936  0.4461  0.7812
   85GLOH    C2 9362   9.892   8.220   2.355  0.0589 -0.0040  0.4095
   85GLOH   H04 9363   9.950   8.148   2.295 -1.2031  0.2782 -1.1899
   85GLOH    O2 9364   9.774   8.142   2.390  0.4092  0.4238  0.1413
   85GLOH   H05 9365   9.798   8.083   2.463 -1.0767 -3.5750 -2.4871
   85GLOH    C3 9366   9.862   8.353   2.289 -0.0385 -0.1391 -0.1001
   85GLOH   H06 9367   9.837   8.422   2.370 -1.5603  0.6463 -1.2034
   85GLOH   H07 9368   9.774   8.345   2.225 -0.7659 -2.8103  1.1996
   85GLOH    O3 9369   9.975   8.398   2.213 -0.0562 -0.0153 -0.5774
   85GLOH   H01 9370  10.053   8.442   2.252  1.5768  0.4498 -4.1478
   86GLOH   H03 9371   9.314   3.739   0.486  0.5156 -1.3587 -0.1110
   86GLOH    O1 9372   9.394   3.790   0.509 -0.2890 -0.2401  0.2641
   86GLOH    C1 9373   9.385   3.831   0.647 -0.3016  0.4311  0.4251
   86GLOH   H02 9374   9.479   3.858   0.695 -0.8652  1.4293  0.9920
   86GLOH   H08 9375   9.348   3.749   0.707  0.2063  0.8978  1.3898
   86GLOH    C2 9376   9.280   3.947   0.666  0.4197 -0.0545  0.1280
   86GLOH   H04 9377   9.310   4.033   0.605 -0.1085  1.3558  1.8003
   86GLOH    O2 9378   9.143   3.905   0.622  0.0295 -0.5173  0.1540
   86GLOH   H05 9379   9.115   3.825   0.669  0.8169 -0.2437  1.1132
   86GLOH    C3 9380   9.270   3.999   0.814  0.7083  0.5937  0.9906
   86GLOH   H06 9381   9.256   3.916   0.884 -1.0936  0.3743  0.4071
   86GLOH   H07 9382   9.183   4.064   0.829 -1.4818 -1.2396 -2.9934
   86GLOH    O3 9383   9.394   4.076   0.830  0.8445  0.0519 -0.0910
   86GLOH   H01 9384   9.454   4.036   0.895 -1.4746  0.3566  2.3369
   87GLOH   H03 9385   7.506   8.492   0.441  0.8958  1.2267  1.1636
   87GLOH    O1 9386   7.417   8.522   0.469  0.1142  0.7315 -0.6630
   87GLOH    C1 9387   7.411   8.654   0.413 -0.6078 -0.4849  0.5560
   87GLOH   H02 9388   7.322   8.674   0.355  1.3989  1.9275 -1.8049
   87GLOH   H08 9389   7.498   8.668   0.349  0.8509  1.0126  2.7829
   87GLOH    C2 9390   7.409   8.770   0.518 -0.7425 -0.0291  0.6278
   87GLOH   H04 9391   7.514   8.783   0.550 -1.2308  2.2138  1.3901
   87GLOH    O2 9392   7.358   8.893   0.468  1.0836  0.3276 -0.2452
   87GLOH   H05 9393   7.386   8.884   0.375 -0.6242  0.5652 -0.8037
   87GLOH    C3 9394   7.337   8.721   0.641  0.3481 -0.2292 -0.4349
   87GLOH   H06 9395   7.242   8.675   0.612 -0.4331  1.4515 -0.6543
   87GLOH   H07 9396   7.330   8.804   0.711  2.5516 -0.6599  0.3064
   87GLOH    O3 9397   7.419   8.618   0.713 -0.7112  0.4102 -0.4242
   87GLOH   H01 9398   7.430   8.541   0.655  2.4984 -0.2745  0.9992
   88GLOH   H03 9399   3.822   3.072   2.001 -1.1616 -2.0358  0.1102
   88GLOH    O1 9400   3.787   3.109   2.084 -0.3959  0.6672 -0.7128
   88GLOH    C1 9401   3.762   3.249   2.061  0.0399 -0.3780 -0.1895
   88GLOH   H02 9402   3.844   3.301   2.011  0.7008  0.3242  1.5774
   88GLOH   H08 9403   3.733   3.306   2.149 -0.3563 -0.9718  0.0692
   88GLOH    C2 9404   3.635   3.258   1.973  0.2320  1.0332  0.6301
   88GLOH   H04 9405   3.657   3.210   1.876 -2.0301  1.6577 -0.2145
   88GLOH    O2 9406   3.531   3.179   2.037 -0.0341 -0.5702  0.0721
   88GLOH   H05 9407   3.583   3.109   2.079 -0.5390 -1.9113 -1.4958
   88GLOH    C3 9408   3.581   3.402   1.965 -0.3367  0.0147  0.5929
   88GLOH   H06 9409   3.579   3.443   2.066  0.5168 -1.2569  1.1356
   88GLOH   H07 9410   3.480   3.390   1.925 -0.6528 -0.1645  1.4317
   88GLOH    O3 9411   3.662   3.478   1.875  0.3486 -0.6866  0.4287
   88GLOH   H01 9412   3.701   3.432   1.799 -0.1259 -0.0079 -0.2288
   89GLOH   H03 9413   4.415   7.781   0.090  2.3634  0.3443  1.6267
   89GLOH    O1 9414   4.443   7.695   0.053  0.4184  0.4657 -0.2330
   89GLOH    C1 9415   4.356   7.593   0.097  0.3451  0.5363  0.5573
   89GLOH   H02 9416   4.336   7.515   0.023  0.1173 -1.6202  2.8209
   89GLOH   H08 9417   4.254   7.629   0.112  0.3535  0.6928  0.2362
   89GLOH    C2 9418   4.389   7.533   0.237  0.0803  0.4950  0.1708
   89GLOH   H04 9419   4.498   7.518   0.249  0.0434 -0.8006 -0.9049
   89GLOH    O2 9420   4.327   7.617   0.340  0.1738  0.2151  0.0068
   89GLOH   H05 9421   4.342   7.712   0.329 -1.4454  0.5202  0.2979
   89GLOH    C3 9422   4.332   7.393   0.245  0.6429 -0.3746  0.2161
   89GLOH   H06 9423   4.363   7.350   0.340  1.4813  1.3727  0.7497
   89GLOH   H07 9424   4.385   7.339   0.166  2.1741  0.1363  0.8745
   89GLOH    O3 9425   4.190   7.381   0.227  0.2131  0.9030  0.3979
   89GLOH   H01 9426   4.147   7.429   0.299  2.4033  0.6926  1.8662
   90GLOH   H03 9427   3.187   4.410   2.217 -0.9604  1.0247  0.9956
   90GLOH    O1 9428   3.229   4.372   2.297 -0.1414 -0.3893 -0.0823
   90GLOH    C1 9429   3.351   4.439   2.333 -0.2178 -0.3832  0.3523
   90GLOH   H02 9430   3.337   4.547   2.340 -0.6297 -0.5892  3.2292
   90GLOH   H08 9431   3.430   4.419   2.260 -0.8151  0.7773 -0.6458
   90GLOH    C2 9432   3.404   4.384   2.472  0.2546  0.5236  0.4186
   90GLOH   H04 9433   3.407   4.274   2.463  0.8962  0.3942  2.0656
   90GLOH    O2 9434   3.541   4.421   2.496  0.4536 -0.5027  0.5016
   90GLOH   H05 9435   3.609   4.357   2.468  0.5986 -0.3396  0.4776
   90GLOH    C3 9436   3.318   4.428   2.589 -0.3809 -0.1856 -0.6905
   90GLOH   H06 9437   3.343   4.528   2.623  2.0514 -0.6543 -0.9985
   90GLOH   H07 9438   3.341   4.352   2.664 -1.3099  0.9020  0.7385
   90GLOH    O3 9439   3.180   4.411   2.563 -0.0032  0.1039  0.0628
   90GLOH   H01 9440   3.174   4.402   2.466  1.5905 -1.7756  0.1043
   91GLOH   H03 9441   7.350   0.271   0.863 -0.8527 -0.2351 -0.4466
   91GLOH    O1 9442   7.276   0.211   0.883 -0.2612 -0.7749  0.1211
   91GLOH    C1 9443   7.294   0.164   1.017  0.1264 -0.1736  0.4882
   91GLOH   H02 9444   7.256   0.233   1.093  0.4981 -0.1751  0.6784
   91GLOH   H08 9445   7.400   0.149   1.038 -0.0895 -0.7040  1.2017
   91GLOH    C2 9446   7.224   0.027   1.044  0.3079 -0.2974 -0.9357
   91GLOH   H04 9447   7.287  -0.049   0.995  0.2445 -0.4836 -0.7302
   91GLOH    O2 9448   7.216  -0.001   1.189 -0.0598 -0.2581  0.2692
   91GLOH   H05 9449   7.284   0.051   1.236  0.2141  0.0182 -0.4292
   91GLOH    C3 9450   7.081   0.016   0.982  0.2042  0.8829  0.4444
   91GLOH   H06 9451   7.030   0.104   1.023  0.2550  1.3294 -0.4432
   91GLOH   H07 9452   7.019  -0.070   1.006 -1.0926  0.9678 -2.4472
   91GLOH    O3 9453   7.085   0.031   0.839 -0.5604  0.4299 -0.1488
   91GLOH   H01 9454   7.143   0.107   0.817 -1.8399  2.2769  2.5770
   92GLOH   H03 9455   4.548   0.692   0.394  1.1321  0.4583  0.7579
   92GLOH    O1 9456   4.533   0.624   0.462 -0.1951 -0.1772 -0.1628
   92GLOH    C1 9457   4.562   0.491   0.408 -0.8700 -0.5338 -0.3989
   92GLOH   H02 9458   4.671   0.497   0.402 -1.0181  0.8124 -2.6962
   92GLOH   H08 9459   4.522   0.477   0.307 -0.1195  1.0730 -0.9421
   92GLOH    C2 9460   4.519   0.378   0.509  0.0037 -0.0607  0.3647
   92GLOH   H04 9461   4.411   0.382   0.529 -0.2841  0.8942 -1.2921
   92GLOH    O2 9462   4.551   0.256   0.439  0.1269 -0.2701 -0.3268
   92GLOH   H05 9463   4.646   0.256   0.417  0.5167 -0.1846  1.3385
   92GLOH    C3 9464   4.587   0.389   0.644  0.3529 -0.5334  0.1482
   92GLOH   H06 9465   4.557   0.482   0.692 -0.4228  1.0324 -3.2072
   92GLOH   H07 9466   4.695   0.383   0.638  0.4944  1.0833  0.6989
   92GLOH    O3 9467   4.544   0.280   0.726  0.1482 -0.7142  0.2471
   92GLOH   H01 9468   4.487   0.229   0.666  0.2523 -2.1579  1.3553
   93GLOH   H03 9469   5.144   1.218   2.607  0.0771 -0.0439  1.8810
   93GLOH    O1 9470   5.191   1.301   2.588  0.1126 -0.4149  0.2996
   93GLOH    C1 9471   5.099   1.412   2.593  0.0505 -0.6977 -0.3178
   93GLOH   H02 9472   5.100   1.475   2.682  0.9090  1.2194 -1.6648
   93GLOH   H08 9473   4.996   1.379   2.578 -0.8202  1.3933  0.8647
   93GLOH    C2 9474   5.112   1.523   2.478  0.3908 -0.6928  0.8191
   93GLOH   H04 9475   5.111   1.473   2.381 -0.8983  1.5581 -0.3720
   93GLOH    O2 9476   4.997   1.610   2.493  0.4388  0.1747  0.5127
   93GLOH   H05 9477   4.956   1.636   2.409 -0.1170 -0.4316  0.5870
   93GLOH    C3 9478   5.247   1.593   2.484  0.2402  0.3792  0.5476
   93GLOH   H06 9479   5.262   1.625   2.587  2.1059  0.9249  0.1139
   93GLOH   H07 9480   5.255   1.676   2.414 -3.4519 -0.0768 -0.5244
   93GLOH    O3 9481   5.350   1.494   2.455  0.3077 -0.4165 -0.1760
   93GLOH   H01 9482   5.319   1.418   2.509 -0.0481  0.5310  0.9743
   94GLOH   H03 9483   1.365   3.385   2.807 -3.0135  1.6824  2.0491
   94GLOH    O1 9484   1.381   3.328   2.884 -0.0696 -0.2840  0.0784
   94GLOH    C1 9485   1.276   3.229   2.904 -0.2429  0.6006  0.3830
   94GLOH   H02 9486   1.269   3.169   2.814 -2.5606 -1.2457  1.7295
   94GLOH   H08 9487   1.183   3.285   2.913 -0.1213  0.9397 -0.4615
   94GLOH    C2 9488   1.296   3.144   3.032 -0.5206  0.0992  0.6278
   94GLOH   H04 9489   1.212   3.073   3.034 -1.6571  1.4245  0.7403
   94GLOH    O2 9490   1.421   3.066   3.026  0.6076 -0.4484 -0.1220
   94GLOH   H05 9491   1.417   3.009   2.947 -0.0169  0.6997 -0.9354
   94GLOH    C3 9492   1.291   3.236   3.156  0.0241  0.8008 -0.6767
   94GLOH   H06 9493   1.320   3.185   3.248 -0.9319  0.1047 -0.7513
   94GLOH   H07 9494   1.195   3.284   3.174  0.3973  0.3209  3.0843
   94GLOH    O3 9495   1.386   3.346   3.135  0.0952 -1.0381 -0.2838
   94GLOH   H01 9496   1.390   3.367   3.039 -0.6451  0.7458  0.0501
   95GLOH   H03 9497   4.399   8.422   1.158 -1.0720  1.0779  0.7474
   95GLOH    O1 9498   4.387   8.507   1.113 -0.0638  0.5871 -0.4497
   95GLOH    C1 9499   4.250   8.521   1.088 -0.4484  0.0088  0.2860
   95GLOH   H02 9500   4.208   8.558   1.182  0.0011  0.7355  0.2094
   95GLOH   H08 9501   4.211   8.423   1.062 -1.0606  0.2178  0.4117
   95GLOH    C2 9502   4.224   8.633   0.983 -0.1634 -0.1649  0.0880
   95GLOH   H04 9503   4.282   8.608   0.893 -1.6805 -0.3586 -0.8646
   95GLOH    O2 9504   4.089   8.634   0.934  0.0982 -0.1929 -0.1938
   95GLOH   H05 9505   4.073   8.703   0.867 -2.0978 -1.8086 -1.3994
   95GLOH    C3 9506   4.277   8.773   1.025 -0.0043  0.8645  0.4125
   95GLOH   H06 9507   4.212   8.816   1.102 -1.1306 -1.3787  0.7672
   95GLOH   H07 9508   4.267   8.825   0.929 -0.9779 -0.5205 -0.2562
   95GLOH    O3 9509   4.416   8.772   1.065 -0.2497  0.0624  0.1034
   95GLOH   H01 9510   4.429   8.677   1.079 -0.7315  0.1303  1.0584
   96GLOH   H03 9511   2.536   6.440   0.850 -1.3184 -1.6698 -0.6998
   96GLOH    O1 9512   2.483   6.512   0.810 -0.1091  0.3019  1.0952
   96GLOH    C1 9513   2.562   6.614   0.750  0.1715 -0.0309 -0.7931
   96GLOH   H02 9514   2.665   6.597   0.781  0.4567 -1.1693 -2.3327
   96GLOH   H08 9515   2.537   6.715   0.783  1.7765 -0.2754  1.2905
   96GLOH    C2 9516   2.561   6.625   0.594 -1.0124 -0.6835 -1.5052
   96GLOH   H04 9517   2.615   6.715   0.562 -0.0404 -0.8779 -0.4345
   96GLOH    O2 9518   2.640   6.519   0.536 -0.4280 -0.4991 -0.2474
   96GLOH   H05 9519   2.641   6.439   0.590  1.1234 -0.4919 -0.2293
   96GLOH    C3 9520   2.423   6.657   0.531 -0.4431 -0.2100  0.3587
   96GLOH   H06 9521   2.360   6.568   0.539 -0.2311 -0.4838 -0.8805
   96GLOH   H07 9522   2.445   6.678   0.426 -1.7818 -0.9538 -0.0855
   96GLOH    O3 9523   2.352   6.766   0.597  0.0294 -0.3115 -0.3523
   96GLOH   H01 9524   2.275   6.729   0.645 -0.7631  0.7173 -0.8124
   97GLOH   H03 9525   4.716   2.705   2.471 -1.4702 -0.3701  2.2448
   97GLOH    O1 9526   4.771   2.631   2.502  0.2352 -0.1750 -0.1264
   97GLOH    C1 9527   4.679   2.547   2.580  0.3933 -0.1412 -0.1911
   97GLOH   H02 9528   4.726   2.462   2.629 -0.3220  0.4989  1.6074
   97GLOH   H08 9529   4.607   2.505   2.509  0.5025 -0.8526  0.1201
   97GLOH    C2 9530   4.593   2.624   2.674  0.1753  0.1280 -0.7821
   97GLOH   H04 9531   4.531   2.697   2.619 -0.1886  0.9661  0.7098
   97GLOH    O2 9532   4.491   2.534   2.721 -0.4455  0.0024 -0.2332
   97GLOH   H05 9533   4.447   2.561   2.804 -1.6910 -2.9840  0.1657
   97GLOH    C3 9534   4.686   2.685   2.777 -0.1481  0.3031  0.0587
   97GLOH   H06 9535   4.758   2.754   2.734 -1.1756  1.8193  0.7407
   97GLOH   H07 9536   4.751   2.608   2.819  2.9644  0.7687 -3.6459
   97GLOH    O3 9537   4.614   2.757   2.879  0.2892 -0.2956 -0.5767
   97GLOH   H01 9538   4.538   2.702   2.906  0.2911 -0.2764 -0.5309
   98GLOH   H03 9539   5.378   8.997   2.587 -0.2048 -1.1748 -0.6492
   98GLOH    O1 9540   5.324   9.025   2.511 -0.0956  0.4174 -0.1509
   98GLOH    C1 9541   5.408   9.107   2.433 -0.4584 -0.1337  0.3699
   98GLOH   H02 9542   5.473   9.054   2.363 -0.4274  0.3133  0.0547
   98GLOH   H08 9543   5.478   9.160   2.497 -0.6023 -0.9114  1.1799
   98GLOH    C2 9544   5.333   9.203   2.335  0.4140  0.0895  0.3281
   98GLOH   H04 9545   5.262   9.265   2.392 -2.0380 -0.0794 -2.3689
   98GLOH    O2 9546   5.428   9.284   2.263 -0.0451 -0.2959 -0.1947
   98GLOH   H05 9547   5.489   9.229   2.211  1.3470  1.8453 -0.8844
   98GLOH    C3 9548   5.244   9.122   2.234  0.4296  0.0669 -0.0465
   98GLOH   H06 9549   5.313   9.065   2.172  0.2572 -0.9133  0.6480
   98GLOH   H07 9550   5.188   9.188   2.168 -1.5716  0.6313  2.1435
   98GLOH    O3 9551   5.151   9.037   2.304 -0.2110  0.0506 -0.4565
   98GLOH   H01 9552   5.205   9.011   2.380  0.0042  1.7090 -0.0090
   99GLOH   H03 9553   7.827   9.639   0.876 -0.1383  0.0302 -0.3287
   99GLOH    O1 9554   7.852   9.642   0.782  0.2551 -0.0106 -0.2251
   99GLOH    C1 9555   7.865   9.514   0.724  0.1391 -0.0823 -0.5596
   99GLOH   H02 9556   7.845   9.437   0.799 -0.7724 -1.9076 -2.6177
   99GLOH   H08 9557   7.968   9.499   0.694 -0.0838 -1.1686 -0.8294
   99GLOH    C2 9558   7.779   9.496   0.599  1.0813  0.2114  0.6844
   99GLOH   H04 9559   7.769   9.590   0.544 -1.0961  0.1560  0.9482
   99GLOH    O2 9560   7.831   9.397   0.509  0.2107 -0.1183  0.1336
   99GLOH   H05 9561   7.796   9.414   0.420  1.3727  0.1252 -0.2744
   99GLOH    C3 9562   7.634   9.451   0.624  0.2208  0.4348  0.3138
   99GLOH   H06 9563   7.625   9.343   0.636  0.3325  0.4624  0.6384
   99GLOH   H07 9564   7.571   9.468   0.536 -0.7448 -0.4582  0.8154
   99GLOH    O3 9565   7.579   9.519   0.730 -0.3960  0.6827 -0.1806
   99GLOH   H01 9566   7.585   9.616   0.723 -0.6084  0.6529 -0.7485
  100GLOH   H03 9567   7.840   7.798   2.375  0.8575  1.0942  1.8867
  100GLOH    O1 9568   7.915   7.824   2.319  0.1960 -0.7470  0.0885
  100GLOH    C1 9569   8.012   7.878   2.411 -0.1309  0.3382 -0.1213
  100GLOH   H02 9570   8.028   7.819   2.501  1.1005  1.1357  0.2144
  100GLOH   H08 9571   7.986   7.979   2.443  0.5756 -0.0095  1.5841
  100GLOH    C2 9572   8.150   7.892   2.347  0.0406  0.6008  0.5823
  100GLOH   H04 9573   8.135   7.958   2.260 -0.8445  2.7681  2.3454
  100GLOH    O2 9574   8.234   7.963   2.440 -0.1040 -0.0048 -0.3912
  100GLOH   H05 9575   8.251   8.050   2.401 -2.3172  0.4004 -0.5611
  100GLOH    C3 9576   8.201   7.759   2.300  0.2209  0.1425 -0.0218
  100GLOH   H06 9577   8.226   7.705   2.391 -0.5774  0.4110  0.3736
  100GLOH   H07 9578   8.297   7.783   2.254  0.4803  0.8357  0.8576
  100GLOH    O3 9579   8.113   7.690   2.217  0.7181  0.6366 -0.1063
  100GLOH   H01 9580   8.025   7.721   2.245 -0.1682 -1.6190 -0.2574
  101GLOH   H03 9581   3.503   1.549   0.264  2.0416  0.1617 -1.1450
  101GLOH    O1 9582   3.512   1.467   0.316 -0.2510  0.4403 -0.2160
  101GLOH    C1 9583   3.646   1.472   0.385 -0.0988 -0.0762 -0.0236
  101GLOH   H02 9584   3.704   1.561   0.361  2.0206 -0.9196  1.7762
  101GLOH   H08 9585   3.710   1.395   0.341  0.1398  0.8505 -1.3031
  101GLOH    C2 9586   3.636   1.454   0.538  0.1109 -0.1048 -0.3288
  101GLOH   H04 9587   3.586   1.357   0.554  1.4892 -0.5130  1.8412
  101GLOH    O2 9588   3.769   1.457   0.599  0.3593 -0.4793  1.0028
  101GLOH   H05 9589   3.770   1.521   0.672  2.6858 -0.6780  1.1879
  101GLOH    C3 9590   3.547   1.574   0.594  0.0701 -0.3141 -0.7584
  101GLOH   H06 9591   3.458   1.590   0.533 -0.3137 -1.7116 -0.5793
  101GLOH   H07 9592   3.592   1.673   0.605 -1.8320  0.1288  4.9482
  101GLOH    O3 9593   3.498   1.552   0.733 -0.2843  0.3185  0.5631
  101GLOH   H01 9594   3.400   1.555   0.738 -0.2911 -0.7894  1.1463
  102GLOH   H03 9595   9.940   9.380   2.858 -0.8475  1.2088 -1.1461
  102GLOH    O1 9596   9.862   9.322   2.847 -0.1383  0.0684 -0.1878
  102GLOH    C1 9597   9.755   9.376   2.921  0.3630 -0.2231 -0.6264
  102GLOH   H02 9598   9.787   9.425   3.013  0.2430 -0.4294 -0.4735
  102GLOH   H08 9599   9.690   9.297   2.958 -1.0699  1.7339  1.2112
  102GLOH    C2 9600   9.662   9.471   2.847  0.0167 -0.3447  0.4043
  102GLOH   H04 9601   9.571   9.490   2.907  1.2872 -1.7190  2.8755
  102GLOH    O2 9602   9.745   9.595   2.829  0.5902  0.4456  0.3713
  102GLOH   H05 9603   9.727   9.666   2.894  1.5799  1.6246 -0.6064
  102GLOH    C3 9604   9.636   9.419   2.702  0.5923  0.2866 -0.1726
  102GLOH   H06 9605   9.593   9.320   2.686 -0.3828  0.5497  0.7201
  102GLOH   H07 9606   9.738   9.403   2.668  0.7251  1.2890 -0.2528
  102GLOH    O3 9607   9.564   9.513   2.615 -0.6212  0.3339 -0.3787
  102GLOH   H01 9608   9.626   9.588   2.612  1.7347 -1.2532  3.8615
  103GLOH   H03 9609   3.364   2.939   2.963 -0.0205  0.3876  0.5016
  103GLOH    O1 9610   3.271   2.937   2.993 -0.2325 -0.8286 -0.2107
  103GLOH    C1 9611   3.225   3.062   3.036 -0.6193  0.2789  0.2415
  103GLOH   H02 9612   3.211   3.125   2.948  1.3061 -2.6554 -2.2863
  103GLOH   H08 9613   3.301   3.115   3.093 -0.8810  1.4295 -0.4607
  103GLOH    C2 9614   3.104   3.063   3.130 -1.0469  0.3054  0.0723
  103GLOH   H04 9615   3.144   3.053   3.232  0.5178  2.2954 -0.3077
  103GLOH    O2 9616   3.025   3.182   3.124 -0.2130 -0.1921 -0.2459
  103GLOH   H05 9617   2.986   3.199   3.211 -0.3942  2.8201 -0.8607
  103GLOH    C3 9618   3.014   2.944   3.099  0.5839 -0.4921  0.4675
  103GLOH   H06 9619   2.921   2.962   3.153 -1.7332 -1.7239 -2.9616
  103GLOH   H07 9620   3.062   2.854   3.138  1.8947  0.0539  0.1484
  103GLOH    O3 9621   2.984   2.907   2.965  0.1765 -0.6735  0.5326
  103GLOH   H01 9622   2.980   2.982   2.902 -2.5192 -2.0926 -1.0801
  104GLOH   H03 9623   7.441   1.627   2.432  0.0623 -0.3037  0.6886
  104GLOH    O1 9624   7.514   1.582   2.385 -0.2217  0.1308 -0.1773
  104GLOH    C1 9625   7.599   1.508   2.476  0.6660 -1.2660  0.0291
  104GLOH   H02 9626   7.535   1.425   2.509  0.8975 -2.1444 -1.6535
  104GLOH   H08 9627   7.618   1.573   2.561 -1.5023  0.5561 -0.8344
  104GLOH    C2 9628   7.732   1.467   2.424 -0.0330 -0.5237  0.7657
  104GLOH   H04 9629   7.726   1.396   2.340  1.0243  1.5057 -1.0628
  104GLOH    O2 9630   7.808   1.583   2.386 -0.5926  0.0393  0.4847
  104GLOH   H05 9631   7.885   1.549   2.337 -0.1321  1.8690 -0.0957
  104GLOH    C3 9632   7.798   1.378   2.532 -0.0985 -0.3723  0.0418
  104GLOH   H06 9633   7.815   1.434   2.624 -3.0553 -0.7846  0.8952
  104GLOH   H07 9634   7.899   1.354   2.498 -0.0865 -1.1675  0.6131
  104GLOH    O3 9635   7.727   1.250   2.545 -0.2735 -0.2575  0.4409
  104GLOH   H01 9636   7.717   1.210   2.457 -1.5648 -0.3003  0.5951
  105GLOH   H03 9637   0.596   4.017   0.961  2.1843  2.1894  0.0310
  105GLOH    O1 9638   0.651   3.976   1.030  0.0082 -0.1816  0.4649
  105GLOH    C1 9639   0.668   3.837   0.999 -0.4324 -0.6069  1.0980
  105GLOH   H02 9640   0.748   3.791   1.056 -1.5134 -0.5763  2.6615
  105GLOH   H08 9641   0.688   3.829   0.892  4.1882  1.6272  1.6943
  105GLOH    C2 9642   0.542   3.765   1.031  0.1166  0.7456  0.4295
  105GLOH   H04 9643   0.513   3.787   1.135 -0.2118  1.6867  0.1433
  105GLOH    O2 9644   0.438   3.820   0.948 -0.3016  0.3864 -0.2774
  105GLOH   H05 9645   0.359   3.827   1.004 -0.0015 -2.7098  0.5979
  105GLOH    C3 9646   0.549   3.614   1.001 -0.2314 -0.1663 -0.6977
  105GLOH   H06 9647   0.578   3.600   0.897 -1.6557  0.3285 -1.1663
  105GLOH   H07 9648   0.450   3.570   1.010  0.1298 -0.7274  0.6998
  105GLOH    O3 9649   0.641   3.558   1.094  0.2964  0.2813  0.4691
  105GLOH   H01 9650   0.694   3.484   1.058 -2.7539 -1.8589  0.1836
  106GLOH   H03 9651   0.807   9.877   1.285 -2.7805 -1.3370  0.7268
  106GLOH    O1 9652   0.820   9.931   1.365  0.4751 -0.3024 -0.4178
  106GLOH    C1 9653   0.794   9.861   1.489  0.1041 -0.3458 -0.5816
  106GLOH   H02 9654   0.864   9.780   1.508 -0.8396 -1.0942 -0.2676
  106GLOH   H08 9655   0.696   9.816   1.503  0.0494 -0.2904 -0.7853
  106GLOH    C2 9656   0.810   9.966   1.607 -0.3133 -0.7423 -0.2548
  106GLOH   H04 9657   0.737  10.048   1.591  0.9341 -0.2702 -3.8381
  106GLOH    O2 9658   0.781   9.912   1.739  0.1984 -0.2644  0.3915
  106GLOH   H05 9659   0.809   9.981   1.802  0.5735 -1.8528  2.0040
  106GLOH    C3 9660   0.952  10.034   1.609  0.6382  0.1901  0.1689
  106GLOH   H06 9661   0.965  10.096   1.698 -2.3226  1.5822 -0.2907
  106GLOH   H07 9662   0.952  10.103   1.525 -0.2167  0.5097  0.4281
  106GLOH    O3 9663   1.058   9.932   1.601 -0.2783  0.5573  0.2219
  106GLOH   H01 9664   1.092   9.927   1.510  0.8127 -1.1668  0.7048
  107GLOH   H03 9665   0.968   6.919   2.080  2.6882 -1.4489  0.5916
  107GLOH    O1 9666   0.929   6.832   2.103  0.6926 -0.6313  0.4249
  107GLOH    C1 9667   1.021   6.735   2.053  0.5104 -0.2260 -0.3765
  107GLOH   H02 9668   1.121   6.746   2.096  0.7226  4.5043 -1.7513
  107GLOH   H08 9669   1.044   6.739   1.946 -1.4256  0.4768 -0.7875
  107GLOH    C2 9670   0.984   6.596   2.105 -0.5790  0.0514  0.0284
  107GLOH   H04 9671   0.878   6.572   2.087 -0.5481 -0.0280 -0.0473
  107GLOH    O2 9672   1.061   6.493   2.044 -0.2466 -0.8730  0.6211
  107GLOH   H05 9673   1.039   6.495   1.950  1.5396 -0.3318  0.1828
  107GLOH    C3 9674   0.987   6.585   2.256 -0.3555 -0.2095 -0.4554
  107GLOH   H06 9675   0.957   6.487   2.292 -0.1786  0.6861  2.2891
  107GLOH   H07 9676   0.906   6.650   2.289 -2.5525 -2.4047 -1.4219
  107GLOH    O3 9677   1.118   6.627   2.305 -0.4002  0.2494  0.3708
  107GLOH   H01 9678   1.140   6.721   2.287 -0.9911  0.3047 -0.1023
  108GLOH   H03 9679   5.374   9.047   3.041 -0.7838  1.6885  2.3074
  108GLOH    O1 9680   5.440   9.020   3.108  0.8700 -0.2093  0.0087
  108GLOH    C1 9681   5.411   8.893   3.158 -0.7941  0.1691 -0.3422
  108GLOH   H02 9682   5.490   8.822   3.133 -0.3564  0.2694  0.7286
  108GLOH   H08 9683   5.316   8.856   3.118 -0.1364 -1.2209 -0.6583
  108GLOH    C2 9684   5.407   8.892   3.309  0.2062  0.7470 -0.7754
  108GLOH   H04 9685   5.502   8.919   3.358  0.0491 -1.5901  0.9305
  108GLOH    O2 9686   5.304   8.981   3.353  0.6289  0.0885  0.1228
  108GLOH   H05 9687   5.290   9.048   3.284 -0.8490  1.9049  2.0941
  108GLOH    C3 9688   5.378   8.752   3.369 -0.3418 -0.1827  0.4270
  108GLOH   H06 9689   5.281   8.717   3.335 -2.1344  0.7448  4.2681
  108GLOH   H07 9690   5.368   8.760   3.477 -0.8285  0.1565  0.3598
  108GLOH    O3 9691   5.479   8.656   3.338  0.3550  0.0355 -0.6522
  108GLOH   H01 9692   5.459   8.561   3.346  1.0279 -0.1618 -1.3133
  109GLOH   H03 9693   2.960   4.491   1.625 -0.0434 -0.6378 -0.5673
  109GLOH    O1 9694   3.038   4.513   1.571  0.0656  0.4816  0.0396
  109GLOH    C1 9695   3.016   4.629   1.499  0.1341  0.7099 -0.2314
  109GLOH   H02 9696   2.910   4.650   1.484  0.2356  1.4161  0.0363
  109GLOH   H08 9697   3.060   4.611   1.401 -0.1390 -0.9707 -0.0609
  109GLOH    C2 9698   3.094   4.747   1.555 -0.9166 -0.1708 -0.9526
  109GLOH   H04 9699   3.201   4.724   1.569 -0.8633  1.1234  0.8499
  109GLOH    O2 9700   3.077   4.848   1.458 -0.3030  0.1531 -0.5244
  109GLOH   H05 9701   3.156   4.901   1.477 -0.9984  1.3863 -1.0264
  109GLOH    C3 9702   3.036   4.800   1.689 -0.8644  0.0053 -0.0428
  109GLOH   H06 9703   3.041   4.723   1.766  1.1552 -0.2188 -0.3626
  109GLOH   H07 9704   2.935   4.835   1.670 -0.5046  1.5652  0.8043
  109GLOH    O3 9705   3.101   4.921   1.740 -0.0758  0.3581 -0.0468
  109GLOH   H01 9706   3.198   4.907   1.739  0.0825  1.1671  1.8314
  110GLOH   H03 9707   0.924   3.107   3.076  0.0005 -0.0014  0.5968
  110GLOH    O1 9708   0.938   3.104   3.172 -0.4523  0.4053  0.6788
  110GLOH    C1 9709   0.814   3.165   3.221 -0.1705 -0.1354 -0.0390
  110GLOH   H02 9710   0.750   3.089   3.266  0.1174 -0.3113  0.0753
  110GLOH   H08 9711   0.759   3.219   3.144  2.5402  2.7047 -0.0652
  110GLOH    C2 9712   0.842   3.258   3.344  0.0158 -0.1044  0.0609
  110GLOH   H04 9713   0.884   3.197   3.425  2.9568  1.3084 -0.3401
  110GLOH    O2 9714   0.955   3.341   3.322 -0.3099 -0.4520 -0.5101
  110GLOH   H05 9715   1.028   3.298   3.369 -2.3139 -2.6594  0.7401
  110GLOH    C3 9716   0.709   3.323   3.402 -0.1291 -0.2894 -0.7519
  110GLOH   H06 9717   0.671   3.376   3.314 -1.4258 -2.1311 -1.3266
  110GLOH   H07 9718   0.725   3.399   3.478 -0.7917  0.4278 -1.3084
  110GLOH    O3 9719   0.617   3.222   3.429 -0.5206  0.3864 -0.1994
  110GLOH   H01 9720   0.643   3.180   3.513 -0.2970  1.6520  0.3840
  111GLOH   H03 9721   5.025   3.012   2.318  0.0912  0.7740  0.4271
  111GLOH    O1 9722   4.972   3.025   2.398 -0.0899  1.0709  0.2571
  111GLOH    C1 9723   4.900   2.904   2.412  0.3973  0.4095 -0.4588
  111GLOH   H02 9724   4.914   2.868   2.514 -0.7971  1.7434  0.2040
  111GLOH   H08 9725   4.938   2.830   2.342  0.6420 -0.1620  0.2626
  111GLOH    C2 9726   4.749   2.952   2.402 -0.2889 -0.3196 -0.4043
  111GLOH   H04 9727   4.741   3.014   2.312 -0.7723  0.7194  0.3442
  111GLOH    O2 9728   4.662   2.841   2.379  0.1091 -0.2813 -0.0834
  111GLOH   H05 9729   4.649   2.821   2.285  3.4454  1.7665 -1.0396
  111GLOH    C3 9730   4.729   3.028   2.532 -0.1791  0.0194 -0.4296
  111GLOH   H06 9731   4.804   3.105   2.546  0.2963 -0.4564 -0.3596
  111GLOH   H07 9732   4.736   2.957   2.615  0.0202  0.8704  0.2903
  111GLOH    O3 9733   4.601   3.094   2.525 -0.0137 -0.5555 -0.2756
  111GLOH   H01 9734   4.607   3.174   2.470 -3.4822  0.6373  0.9359
  112GLOH   H03 9735   3.797   4.714   1.659 -2.1291 -0.9125  1.0852
  112GLOH    O1 9736   3.860   4.670   1.719  0.1153  0.1397 -0.4441
  112GLOH    C1 9737   3.848   4.532   1.695 -0.2431  0.5097  0.1215
  112GLOH   H02 9738   3.760   4.493   1.746  1.1911 -1.6772  1.0335
  112GLOH   H08 9739   3.925   4.481   1.753 -0.2020 -0.9942 -1.2053
  112GLOH    C2 9740   3.858   4.504   1.545  0.0910 -0.2380  0.2373
  112GLOH   H04 9741   3.947   4.555   1.506  1.6213 -1.9171  1.4331
  112GLOH    O2 9742   3.846   4.366   1.519 -0.3469  0.1601 -0.7376
  112GLOH   H05 9743   3.905   4.313   1.576 -2.9204 -2.8768 -0.8057
  112GLOH    C3 9744   3.731   4.563   1.481 -0.7753 -1.0760  1.2532
  112GLOH   H06 9745   3.639   4.507   1.497 -1.4895 -0.5338 -0.8110
  112GLOH   H07 9746   3.753   4.561   1.374 -1.8567  2.7701  0.9004
  112GLOH    O3 9747   3.702   4.698   1.514  0.1636 -0.2185  0.0427
  112GLOH   H01 9748   3.635   4.731   1.452  0.7684  0.6777 -0.1427
  113GLOH   H03 9749   7.582   9.741   2.916 -0.3575 -2.3805  0.0733
  113GLOH    O1 9750   7.650   9.736   2.846 -0.3996  0.3093 -0.1831
  113GLOH    C1 9751   7.583   9.803   2.739 -0.2393 -0.0503 -0.3000
  113GLOH   H02 9752   7.488   9.757   2.715  0.9846 -2.4701 -0.6728
  113GLOH   H08 9753   7.649   9.784   2.654  0.7012  0.9756  0.1821
  113GLOH    C2 9754   7.568   9.953   2.763 -0.1314  0.2129  0.0919
  113GLOH   H04 9755   7.522   9.963   2.862  0.1806  1.4182  0.1160
  113GLOH    O2 9756   7.691  10.033   2.768 -0.0220 -0.3520  0.1916
  113GLOH   H05 9757   7.750   9.980   2.824 -0.4961 -0.0606  0.9761
  113GLOH    C3 9758   7.480  10.016   2.654 -0.4249 -0.0290  0.3684
  113GLOH   H06 9759   7.536  10.006   2.561  0.6916  1.7966  0.8265
  113GLOH   H07 9760   7.472  10.124   2.666  1.1263  0.5022 -2.9267
  113GLOH    O3 9761   7.352   9.955   2.656  0.0411  0.2612  0.1350
  113GLOH   H01 9762   7.303   9.980   2.737  1.1196 -0.2019  0.9588
  114GLOH   H03 9763   0.679   9.149   3.202 -2.1436  0.6815 -2.2110
  114GLOH    O1 9764   0.690   9.234   3.248  0.0121 -0.6649 -0.1231
  114GLOH    C1 9765   0.560   9.289   3.269 -0.0696 -1.1360  0.4274
  114GLOH   H02 9766   0.494   9.270   3.185  0.0434  1.8639 -0.3684
  114GLOH   H08 9767   0.565   9.397   3.277 -0.2164 -1.2022  1.6319
  114GLOH    C2 9768   0.486   9.235   3.395 -0.5448 -0.0507 -0.4454
  114GLOH   H04 9769   0.561   9.254   3.472  0.4409 -1.9365 -0.8991
  114GLOH    O2 9770   0.369   9.307   3.446 -0.0920  0.0199 -0.4578
  114GLOH   H05 9771   0.311   9.322   3.369 -1.5405 -0.9794  0.4328
  114GLOH    C3 9772   0.443   9.083   3.385 -1.0194 -0.1893  0.0754
  114GLOH   H06 9773   0.403   9.047   3.480  1.7192 -1.5581  0.7624
  114GLOH   H07 9774   0.541   9.035   3.379 -0.2044  1.3452  0.8313
  114GLOH    O3 9775   0.360   9.038   3.275  0.0313 -0.0674  0.8428
  114GLOH   H01 9776   0.267   9.059   3.298 -0.2933 -0.9445  0.3280
  115GLOH   H03 9777   0.005   8.156   1.554  2.8035  0.7469 -0.8877
  115GLOH    O1 9778  -0.024   8.245   1.525 -0.0313  0.2088  0.0738
  115GLOH    C1 9779   0.091   8.292   1.449 -0.4655  0.1840 -0.5697
  115GLOH   H02 9780   0.069   8.385   1.396 -0.2675 -1.1044 -2.9464
  115GLOH   H08 9781   0.119   8.222   1.371 -1.8923 -0.8952 -0.1258
  115GLOH    C2 9782   0.219   8.312   1.531  0.6051  0.0169 -0.5387
  115GLOH   H04 9783   0.267   8.221   1.570  0.3156  0.9868  2.1953
  115GLOH    O2 9784   0.312   8.370   1.440 -0.4118 -0.2137  0.0555
  115GLOH   H05 9785   0.402   8.344   1.467 -0.6527 -0.5520  0.5467
  115GLOH    C3 9786   0.203   8.412   1.647 -0.2446  0.3248  0.9895
  115GLOH   H06 9787   0.166   8.509   1.613  0.7643  0.0574 -0.9391
  115GLOH   H07 9788   0.306   8.427   1.679  0.1692 -0.1704 -0.0964
  115GLOH    O3 9789   0.122   8.358   1.746 -0.3066 -0.3010  0.5074
  115GLOH   H01 9790   0.045   8.314   1.705 -0.9498 -0.1319  1.5192
  116GLOH   H03 9791   8.246   5.177   2.266 -1.0260  0.7151  0.9519
  116GLOH    O1 9792   8.189   5.109   2.227  0.2469  0.3520 -0.3180
  116GLOH    C1 9793   8.201   5.083   2.087 -0.3327  0.1592 -0.1732
  116GLOH   H02 9794   8.162   5.174   2.043 -0.8548  1.6482  3.2144
  116GLOH   H08 9795   8.127   5.006   2.066 -1.1111 -0.0487  3.0365
  116GLOH    C2 9796   8.339   5.037   2.033  0.1827  0.8060  0.0505
  116GLOH   H04 9797   8.323   4.999   1.931 -1.5428 -0.2470  0.6877
  116GLOH    O2 9798   8.442   5.141   2.016  0.0416 -0.2256  0.4564
  116GLOH   H05 9799   8.531   5.104   2.009  1.2018  2.7573 -2.1138
  116GLOH    C3 9800   8.389   4.917   2.116  0.0725  0.9277  0.1005
  116GLOH   H06 9801   8.311   4.841   2.113  0.8257  0.0904  1.0049
  116GLOH   H07 9802   8.410   4.945   2.220 -1.1947 -3.5687  1.6824
  116GLOH    O3 9803   8.512   4.861   2.068  0.3806  0.0738 -0.6233
  116GLOH   H01 9804   8.575   4.932   2.045 -0.6384  0.8385 -1.0721
  117GLOH   H03 9805   8.666   2.004   0.545 -1.9051  1.5811  0.9942
  117GLOH    O1 9806   8.698   2.073   0.484  0.2429  0.3037  0.6417
  117GLOH    C1 9807   8.832   2.093   0.525 -0.2226 -0.3984  0.2331
  117GLOH   H02 9808   8.894   2.030   0.462  1.1387  1.2553 -0.1308
  117GLOH   H08 9809   8.857   2.057   0.625 -2.1505 -0.7697  0.5892
  117GLOH    C2 9810   8.886   2.233   0.513  0.3825 -0.6256 -0.8078
  117GLOH   H04 9811   8.799   2.299   0.524  1.7675  1.0555  0.6193
  117GLOH    O2 9812   8.983   2.260   0.624  0.6736 -0.1776 -0.6284
  117GLOH   H05 9813   9.050   2.190   0.621  0.6195 -0.2552 -0.0523
  117GLOH    C3 9814   8.946   2.257   0.370  0.1222 -0.8958 -0.4815
  117GLOH   H06 9815   8.952   2.366   0.367 -1.5621 -0.7471  0.9703
  117GLOH   H07 9816   8.872   2.225   0.297 -0.3908  2.3135 -1.4632
  117GLOH    O3 9817   9.079   2.198   0.346  0.8915 -0.2884 -0.9622
  117GLOH   H01 9818   9.139   2.232   0.416  2.4596 -0.5341 -2.1677
  118GLOH   H03 9819   1.469   7.482   0.340 -0.0684  1.3383 -0.4009
  118GLOH    O1 9820   1.564   7.493   0.321  0.1558 -0.0292 -0.0659
  118GLOH    C1 9821   1.578   7.610   0.240  0.5467 -0.1761  0.3314
  118GLOH   H02 9822   1.502   7.603   0.162 -0.6193  2.3688  1.2033
  118GLOH   H08 9823   1.681   7.613   0.204  0.9741 -0.6283  1.4987
  118GLOH    C2 9824   1.547   7.749   0.308 -0.4040 -0.1241  0.2943
  118GLOH   H04 9825   1.634   7.772   0.372  0.8610 -1.0770 -1.0469
  118GLOH    O2 9826   1.528   7.853   0.209  0.2318  0.1023  0.3345
  118GLOH   H05 9827   1.492   7.822   0.124 -0.2870  0.8324  0.2743
  118GLOH    C3 9828   1.432   7.752   0.412 -0.0457  0.5351 -0.2155
  118GLOH   H06 9829   1.344   7.714   0.359  0.9380 -1.5815 -0.3752
  118GLOH   H07 9830   1.408   7.856   0.436 -0.6022 -0.1095  2.1715
  118GLOH    O3 9831   1.459   7.679   0.529 -0.0690 -0.5443 -0.1359
  118GLOH   H01 9832   1.497   7.597   0.492  0.4023 -0.7749  0.8329
  119GLOH   H03 9833   8.474   5.872   1.169  0.4301  0.7212  0.1300
  119GLOH    O1 9834   8.387   5.906   1.143 -0.0381 -0.5174  0.0514
  119GLOH    C1 9835   8.287   5.845   1.225  0.3538  0.6366  1.3314
  119GLOH   H02 9836   8.310   5.739   1.235 -1.4370 -0.0405 -1.2711
  119GLOH   H08 9837   8.189   5.861   1.179  1.0593 -1.9252 -1.1975
  119GLOH    C2 9838   8.293   5.917   1.359 -0.4646  0.3297 -0.3977
  119GLOH   H04 9839   8.292   6.025   1.340  0.3192  0.6330  1.2115
  119GLOH    O2 9840   8.181   5.873   1.433 -0.1955 -0.3795 -0.2279
  119GLOH   H05 9841   8.157   5.955   1.479  1.3124 -0.4114  0.6572
  119GLOH    C3 9842   8.425   5.874   1.443  0.6653  0.6878  0.3869
  119GLOH   H06 9843   8.427   5.766   1.459 -0.3008  0.5029 -0.6870
  119GLOH   H07 9844   8.411   5.916   1.543 -1.5899 -0.1522  0.4483
  119GLOH    O3 9845   8.552   5.923   1.397  0.3934  0.3889  0.7736
  119GLOH   H01 9846   8.544   6.019   1.415  0.0054  0.4712  0.1538
  120GLOH   H03 9847   7.460   9.793   1.150 -0.9567  2.2360  0.5695
  120GLOH    O1 9848   7.501   9.847   1.081  0.1310  1.0043  0.2399
  120GLOH    C1 9849   7.504   9.770   0.960 -0.1430  0.3359 -0.0170
  120GLOH   H02 9850   7.403   9.742   0.931 -0.2899  0.0091  0.8198
  120GLOH   H08 9851   7.559   9.679   0.984 -1.5949 -0.7520 -0.8055
  120GLOH    C2 9852   7.571   9.846   0.846  0.4304 -0.1581 -0.3780
  120GLOH   H04 9853   7.681   9.842   0.852  0.5191  0.0678 -1.6281
  120GLOH    O2 9854   7.544   9.788   0.720  0.4485 -0.0229 -0.0142
  120GLOH   H05 9855   7.536   9.855   0.651 -2.3356 -1.1983 -0.9081
  120GLOH    C3 9856   7.528   9.997   0.835 -0.1286  0.4888  0.3880
  120GLOH   H06 9857   7.564  10.041   0.928  0.1341  0.9056  0.0844
  120GLOH   H07 9858   7.419   9.988   0.828 -0.2961  1.7870  1.1572
  120GLOH    O3 9859   7.585  10.070   0.727  0.1040  0.2497 -0.4318
  120GLOH   H01 9860   7.516  10.072   0.658  0.2787 -0.2022 -0.6210
  121ACOH    H4 9861   5.900   8.029   2.859  0.1519  0.3365  0.5830
  121ACOH    O2 9862   5.834   7.995   2.922  0.1715 -0.3410  0.2419
  121ACOH    C2 9863   5.757   7.929   2.831 -0.3309  0.1128  0.0681
  121ACOH    O1 9864   5.779   7.921   2.711  0.0179  0.1638  0.1285
  121ACOH    C1 9865   5.650   7.853   2.893 -0.9186 -0.2381  1.0186
  121ACOH    H1 9866   5.615   7.769   2.832  1.9323 -0.5369 -0.2747
  121ACOH    H2 9867   5.563   7.916   2.912 -0.7570  1.4903 -3.2977
  121ACOH    H3 9868   5.684   7.816   2.989 -0.4291  1.1294  1.3718
  122ACOH    H4 9869   6.161   8.311   1.966 -2.4487  2.8806 -0.3316
  122ACOH    O2 9870   6.155   8.299   1.869 -0.1098 -0.4958 -0.1727
  122ACOH    C2 9871   6.050   8.375   1.833 -0.3488 -0.0302 -0.3394
  122ACOH    O1 9872   5.946   8.384   1.901 -0.1800 -0.6890 -0.1302
  122ACOH    C1 9873   6.047   8.382   1.681  0.0677 -0.7267 -0.0092
  122ACOH    H1 9874   6.151   8.391   1.653  0.7648 -1.9117  2.0642
  122ACOH    H2 9875   5.994   8.475   1.660  0.8379  0.2093  2.0375
  122ACOH    H3 9876   6.008   8.296   1.627  1.0293 -0.0832 -1.7267
  123ACOH    H4 9877   3.979   5.638   2.131 -1.1054  0.2057  2.2299
  123ACOH    O2 9878   3.883   5.640   2.120 -0.9166  0.5923  0.4222
  123ACOH    C2 9879   3.866   5.642   1.985 -0.2944 -0.0510  0.3729
  123ACOH    O1 9880   3.947   5.622   1.895 -0.7836 -0.2095  0.2137
  123ACOH    C1 9881   3.721   5.667   1.968  0.1104  0.3972  0.4332
  123ACOH    H1 9882   3.712   5.747   1.894 -0.0816 -0.5418 -0.5834
  123ACOH    H2 9883   3.673   5.694   2.062  1.6691 -0.1614  1.4093
  123ACOH    H3 9884   3.667   5.587   1.916  0.0223  0.6680  0.1060
  124ACOH    H4 9885   7.037   9.078   2.317 -0.7658  1.4569 -0.1536
  124ACOH    O2 9886   7.007   9.037   2.234 -0.3325  0.0198  0.3895
  124ACOH    C2 9887   6.913   8.953   2.274 -0.6149  0.4756 -0.3125
  124ACOH    O1 9888   6.886   8.925   2.388 -0.4022  0.1879 -0.7294
  124ACOH    C1 9889   6.839   8.896   2.159  0.1747 -0.1536  0.5606
  124ACOH    H1 9890   6.733   8.912   2.181  0.1984  1.8794 -0.7105
  124ACOH    H2 9891   6.877   8.794   2.146  1.2524  0.3384 -0.1696
  124ACOH    H3 9892   6.863   8.947   2.066 -0.3948 -0.1729  0.4039
  125ACOH    H4 9893   7.551   1.796   2.760  1.7493  1.0880  1.0364
  125ACOH    O2 9894   7.560   1.860   2.688  0.6530 -0.0838 -0.1761
  125ACOH    C2 9895   7.461   1.840   2.602 -0.0485  0.5866 -0.2919
  125ACOH    O1 9896   7.385   1.748   2.593 -0.3060 -0.6670 -0.0458
  125ACOH    C1 9897   7.470   1.948   2.503 -0.1661  0.2198  0.0971
  125ACOH    H1 9898   7.569   1.972   2.463 -0.3440 -0.5510 -0.8435
  125ACOH    H2 9899   7.444   2.036   2.561 -0.2207  0.1459  0.1833
  125ACOH    H3 9900   7.404   1.941   2.417 -0.1350 -2.1858  0.2360
  126ACOH    H4 9901   5.082   9.673   1.051 -0.1300 -1.0957 -0.6373
  126ACOH    O2 9902   5.178   9.682   1.068 -0.3810  0.4604 -0.0196
  126ACOH    C2 9903   5.214   9.579   1.147 -0.0472  0.0586 -0.5631
  126ACOH    O1 9904   5.141   9.499   1.203 -0.1089  0.7494 -0.3877
  126ACOH    C1 9905   5.362   9.581   1.161  0.0905 -0.5539  0.4917
  126ACOH    H1 9906   5.411   9.560   1.066  0.1994 -1.4004  0.7291
  126ACOH    H2 9907   5.403   9.501   1.224  1.7205 -0.6458 -0.6349
  126ACOH    H3 9908   5.395   9.670   1.214  0.9894 -0.3446 -0.3958
  127ACOH    H4 9909   4.160   7.377   1.181 -0.2088 -2.0975  2.9234
  127ACOH    O2 9910   4.180   7.300   1.125 -0.1500 -0.0237 -0.0254
  127ACOH    C2 9911   4.159   7.348   0.996  0.5024 -0.5237  0.2884
  127ACOH    O1 9912   4.117   7.461   0.968 -0.3553 -0.2683  0.8847
  127ACOH    C1 9913   4.177   7.243   0.897 -0.1862 -0.4721  0.3533
  127ACOH    H1 9914   4.081   7.228   0.848  0.0370 -1.6558  0.2524
  127ACOH    H2 9915   4.206   7.144   0.933 -2.7282 -1.1723  0.5222
  127ACOH    H3 9916   4.246   7.273   0.818 -1.2835 -0.6607 -0.6883
  128ACOH    H4 9917   8.560   3.549   1.562  1.0360 -1.4273 -0.8358
  128ACOH    O2 9918   8.480   3.547   1.507  0.0759 -0.0588  0.4889
  128ACOH    C2 9919   8.445   3.416   1.498  0.9135 -0.3141 -0.2423
  128ACOH    O1 9920   8.508   3.327   1.553  0.2888 -0.0341  0.1072
  128ACOH    C1 9921   8.323   3.409   1.420  0.3908  0.2443 -0.3170
  128ACOH    H1 9922   8.342   3.445   1.318 -1.2804  1.5164 -0.1938
  128ACOH    H2 9923   8.246   3.475   1.460  0.3684 -1.4819  2.5444
  128ACOH    H3 9924   8.297   3.304   1.420  1.3417 -0.0080 -1.7629
  129ACOH    H4 9925   6.818   0.361   0.174  1.5963  0.0596  0.5556
  129ACOH    O2 9926   6.786   0.392   0.260 -0.2403  0.2109 -0.1690
  129ACOH    C2 9927   6.903   0.397   0.330 -0.2586 -0.0773 -0.4463
  129ACOH    O1 9928   7.010   0.368   0.280  0.9534  0.0456 -0.1525
  129ACOH    C1 9929   6.879   0.421   0.474 -0.2517 -0.4522 -0.0933
  129ACOH    H1 9930   6.951   0.496   0.506 -1.4224  0.1714  1.1567
  129ACOH    H2 9931   6.892   0.327   0.527  0.6749  0.7870  1.9511
  129ACOH    H3 9932   6.779   0.463   0.488 -0.1196 -0.7097  1.7059
  130ACOH    H4 9933   4.346   4.453   3.370  1.0943  0.0489  0.4325
  130ACOH    O2 9934   4.298   4.537   3.372 -0.1962 -0.6412 -0.3485
  130ACOH    C2 9935   4.308   4.574   3.498 -0.1838 -0.6751 -0.4656
  130ACOH    O1 9936   4.305   4.501   3.593 -0.1829  0.0635  0.3530
  130ACOH    C1 9937   4.290   4.720   3.514  0.6557  0.4590 -0.0794
  130ACOH    H1 9938   4.248   4.776   3.430  0.0836 -2.1477 -1.5813
  130ACOH    H2 9939   4.383   4.773   3.536  0.4980  0.7288 -0.0595
  130ACOH    H3 9940   4.217   4.736   3.593  0.3875  0.4166 -0.3163
  131ACOH    H4 9941   8.050   4.355   0.362  0.2837  1.1942  1.0262
  131ACOH    O2 9942   7.958   4.371   0.387  0.0316  0.3849  0.6246
  131ACOH    C2 9943   7.964   4.428   0.505 -0.1197 -1.1807  0.3539
  131ACOH    O1 9944   8.054   4.497   0.549  0.2769  0.3594  0.5270
  131ACOH    C1 9945   7.823   4.451   0.561 -0.3007  0.1740  0.2886
  131ACOH    H1 9946   7.769   4.357   0.572 -0.0711  0.0827  0.6495
  131ACOH    H2 9947   7.768   4.502   0.482  2.0262 -0.1894 -1.6338
  131ACOH    H3 9948   7.837   4.487   0.663 -0.6240  1.7394 -0.2143
  132ACOH    H4 9949   5.381   1.502   2.305  0.5797  1.6527  0.3012
  132ACOH    O2 9950   5.413   1.481   2.216 -0.3878 -0.2583  0.3620
  132ACOH    C2 9951   5.478   1.586   2.166 -0.3614  0.4095  1.0629
  132ACOH    O1 9952   5.457   1.697   2.198 -0.1475  0.5041  0.5702
  132ACOH    C1 9953   5.567   1.556   2.054 -0.7678 -0.0369  0.5105
  132ACOH    H1 9954   5.613   1.461   2.080 -0.8747 -0.5686 -1.2320
  132ACOH    H2 9955   5.646   1.632   2.049  0.1685 -1.0434 -0.0304
  132ACOH    H3 9956   5.510   1.543   1.963 -0.7181 -0.0669  0.4832
  133ACOH    H4 9957   4.294   5.100   2.476  0.1113 -1.2172 -0.7229
  133ACOH    O2 9958   4.368   5.124   2.419  0.5359  0.0947  0.3677
  133ACOH    C2 9959   4.378   5.252   2.369 -0.2731 -0.3179  0.2209
  133ACOH    O1 9960   4.328   5.352   2.413 -0.9820 -0.2582 -0.1002
  133ACOH    C1 9961   4.490   5.258   2.271  0.0477 -0.5468  0.2669
  133ACOH    H1 9962   4.528   5.162   2.235  2.0422  0.3143  0.0083
  133ACOH    H2 9963   4.565   5.315   2.327  0.7706 -0.4944 -0.7468
  133ACOH    H3 9964   4.464   5.316   2.183  0.1531 -0.9673 -0.0415
  134ACOH    H4 9965   1.349   6.586   1.912  1.0677 -2.4373  0.5496
  134ACOH    O2 9966   1.403   6.629   1.981  0.0178 -0.4534  0.1694
  134ACOH    C2 9967   1.456   6.734   1.921  0.0181 -0.6878  0.4663
  134ACOH    O1 9968   1.421   6.781   1.812 -0.3122  0.2849 -0.0766
  134ACOH    C1 9969   1.561   6.804   2.000  0.4269 -1.1002 -0.3322
  134ACOH    H1 9970   1.592   6.726   2.070  1.0020 -0.2757  0.3474
  134ACOH    H2 9971   1.530   6.892   2.056  1.1252 -0.5199 -0.8513
  134ACOH    H3 9972   1.650   6.823   1.941 -0.1792 -1.7135 -1.4496
  135ACOH    H4 9973   3.159   6.828   0.431 -0.8407 -1.7023 -0.3632
  135ACOH    O2 9974   3.128   6.847   0.521  0.4087 -0.4095 -0.2025
  135ACOH    C2 9975   2.990   6.838   0.513 -0.6300 -0.0780  0.5863
  135ACOH    O1 9976   2.944   6.757   0.435 -0.1540 -0.1480 -0.2633
  135ACOH    C1 9977   2.925   6.888   0.634  0.2526  0.3698 -0.0857
  135ACOH    H1 9978   2.817   6.884   0.623  0.4843 -0.7120 -2.1835
  135ACOH    H2 9979   2.954   6.991   0.654 -2.8478  1.6501 -1.9011
  135ACOH    H3 9980   2.947   6.830   0.725 -1.1877  0.6089  0.4223
  136ACOH    H4 9981   6.839   9.427   1.792  2.5317 -0.8765 -0.0455
  136ACOH    O2 9982   6.834   9.464   1.703 -0.5113 -0.3274  0.2882
  136ACOH    C2 9983   6.910   9.575   1.699 -0.3463 -0.4502 -0.1726
  136ACOH    O1 9984   7.002   9.612   1.772  0.4123  0.3150 -0.1242
  136ACOH    C1 9985   6.875   9.664   1.585 -0.5061  0.3344 -0.4090
  136ACOH    H1 9986   6.768   9.677   1.596 -0.7846 -0.9470 -1.4693
  136ACOH    H2 9987   6.896   9.613   1.491  1.4747  1.2472 -0.4847
  136ACOH    H3 9988   6.930   9.758   1.594  3.1857 -1.5821 -1.5389
  137ACOH    H4 9989   7.038   9.344   1.374 -1.0971  0.2762 -1.9951
  137ACOH    O2 9990   6.960   9.310   1.422 -0.4263  0.2646 -0.8867
  137ACOH    C2 9991   6.994   9.274   1.548 -0.4206 -0.1492 -0.0650
  137ACOH    O1 9992   7.113   9.263   1.581  0.0130 -0.1841  0.0366
  137ACOH    C1 9993   6.906   9.168   1.588  0.1354 -0.5482  0.1279
  137ACOH    H1 9994   6.806   9.179   1.546  0.5926  0.3983 -0.7314
  137ACOH    H2 9995   6.896   9.162   1.696 -1.7850  0.8592  0.0614
  137ACOH    H3 9996   6.941   9.069   1.559 -2.0815 -1.5204  0.6289
  138ACOH    H4 9997   8.727   3.880   2.349 -0.8678 -1.2971  2.0868
  138ACOH    O2 9998   8.656   3.946   2.342  0.5506  0.1271  0.6642
  138ACOH    C2 9999   8.695   4.054   2.412 -0.3288 -0.1831  0.4961
  138ACOH    O110000   8.811   4.071   2.446 -0.2444  0.4424  0.6802
  138ACOH    C110001   8.606   4.177   2.393  0.6284  0.0669 -0.2561
  138ACOH    H110002   8.663   4.270   2.388  1.2263 -0.1642  1.6506
  138ACOH    H210003   8.545   4.182   2.484 -0.9823  2.0037 -1.4047
  138ACOH    H310004   8.544   4.159   2.306  1.6663 -1.7127 -0.6518
  139ACOH    H410005   7.040   9.900   1.858  0.0618  0.3838  0.2120
  139ACOH    O210006   6.961   9.929   1.906  0.0904  0.2228  0.3598
  139ACOH    C210007   6.978   9.915   2.033  0.2807  0.9110 -0.5210
  139ACOH    O110008   6.901   9.960   2.115  0.0240  0.0035  0.0490
  139ACOH    C110009   7.105   9.847   2.074 -0.4621  0.0047 -0.8243
  139ACOH    H110010   7.119   9.747   2.032  0.7696 -0.4115  0.5568
  139ACOH    H210011   7.114   9.843   2.182 -1.2371  0.2626 -0.7464
  139ACOH    H310012   7.181   9.921   2.049 -1.7374  1.3248 -0.8283
  140ACOH    H410013   3.301   5.639   1.283 -0.2961  0.2776 -0.2205
  140ACOH    O210014   3.331   5.567   1.342 -0.4792 -0.0536 -0.5254
  140ACOH    C210015   3.358   5.464   1.266  0.4026 -0.1827  0.2593
  140ACOH    O110016   3.383   5.467   1.148  0.6023 -0.3716  0.9009
  140ACOH    C110017   3.395   5.346   1.349 -1.0523  0.6148 -0.6997
  140ACOH    H110018   3.354   5.250   1.318 -1.3734  0.7838 -0.7963
  140ACOH    H210019   3.372   5.358   1.455  1.0649  0.5515 -0.2131
  140ACOH    H310020   3.503   5.336   1.337 -1.2660 -1.1940 -1.3025
  141ACOH    H410021   8.361   6.291   2.732  2.8203 -0.9250  3.4310
  141ACOH    O210022   8.298   6.312   2.804 -0.8366 -0.1081  0.1334
  141ACOH    C210023   8.236   6.428   2.769 -0.4079  0.0843 -0.0736
  141ACOH    O110024   8.269   6.500   2.679  0.1211  0.4230  0.0376
  141ACOH    C110025   8.142   6.479   2.874  0.8572  0.4257  0.0070
  141ACOH    H110026   8.050   6.521   2.832  0.7303 -0.5014 -0.6634
  141ACOH    H210027   8.193   6.545   2.944 -0.8745 -0.3150  2.0313
  141ACOH    H310028   8.115   6.393   2.935 -2.9642  1.5141  0.0102
  142ACOH    H410029   4.566   7.601   0.020 -1.2111 -2.5837  0.5146
  142ACOH    O210030   4.634   7.538  -0.007  0.6378 -0.3575 -0.1548
  142ACOH    C210031   4.754   7.600  -0.021  0.0456 -0.0997 -0.0385
  142ACOH    O110032   4.790   7.709   0.021 -0.4041 -0.3333  0.3314
  142ACOH    C110033   4.851   7.495  -0.053  0.8173 -0.4741 -0.3014
  142ACOH    H110034   4.834   7.456  -0.153  0.1615  1.4113 -0.9497
  142ACOH    H210035   4.854   7.416   0.022 -0.2160 -1.5295 -1.3575
  142ACOH    H310036   4.952   7.537  -0.047  2.2388 -3.7553 -0.3505
  143ACOH    H410037   7.353   8.207   2.314 -0.2797 -1.5342  0.8394
  143ACOH    O210038   7.415   8.145   2.273  0.1968 -0.2205 -0.5195
  143ACOH    C210039   7.411   8.029   2.331 -0.0786  0.3560 -0.6214
  143ACOH    O110040   7.367   8.009   2.446  0.6142  0.2079 -0.2264
  143ACOH    C110041   7.491   7.939   2.246 -0.4086 -0.1955 -0.0632
  143ACOH    H110042   7.561   7.994   2.183 -0.8235 -1.1911 -1.4057
  143ACOH    H210043   7.431   7.869   2.188 -1.2398  1.1272 -0.8221
  143ACOH    H310044   7.550   7.871   2.308  2.3615  1.1984 -1.0595
  144ACOH    H410045   4.862   1.211   3.062  0.0175 -1.7836  0.4434
  144ACOH    O210046   4.938   1.250   3.109 -0.1919 -0.0219 -0.6256
  144ACOH    C210047   4.956   1.168   3.216  0.2353 -0.2740  0.0546
  144ACOH    O110048   4.960   1.044   3.216 -0.4143 -0.1991 -0.4781
  144ACOH    C110049   5.018   1.249   3.327  0.6012 -0.5065 -0.3977
  144ACOH    H110050   4.986   1.220   3.427  1.1985  0.3499  0.0540
  144ACOH    H210051   4.994   1.354   3.309 -1.1043 -1.1443 -2.1139
  144ACOH    H310052   5.125   1.236   3.316  0.9223  1.7623 -0.1941
  145ACOH    H410053   7.713   4.090   0.906 -0.1625  0.3432  1.0411
  145ACOH    O210054   7.707   4.080   1.002 -0.2359 -0.3558  0.9599
  145ACOH    C210055   7.841   4.084   1.031 -0.3827  0.1461  0.0320
  145ACOH    O110056   7.939   4.084   0.957  0.1364  0.5325 -0.3248
  145ACOH    C110057   7.854   4.091   1.174 -0.5327 -1.2216  0.0797
  145ACOH    H110058   7.907   4.180   1.208 -1.6517 -0.0707 -1.1362
  145ACOH    H210059   7.919   4.009   1.204  0.2999 -1.4146 -2.1792
  145ACOH    H310060   7.755   4.105   1.219 -0.3295  2.6825 -0.5086
  146ACOH    H410061   4.909   8.324   1.192  0.7931 -0.5152  1.8233
  146ACOH    O210062   4.990   8.375   1.175  0.2263 -0.1435  0.0696
  146ACOH    C210063   4.947   8.492   1.113 -0.5601 -0.3572  0.3577
  146ACOH    O110064   4.832   8.522   1.109  0.5360 -0.1779  0.0504
  146ACOH    C110065   5.064   8.576   1.072  0.7066  0.6162  0.0991
  146ACOH    H110066   5.139   8.580   1.151  0.0129  0.1911  0.7933
  146ACOH    H210067   5.024   8.675   1.052 -1.3392 -0.8454 -3.5415
  146ACOH    H310068   5.107   8.542   0.978 -0.5706 -2.6268  0.6228
  147ACOH    H410069   4.944   8.492   0.214  0.5490 -0.8588 -2.4850
  147ACOH    O210070   5.030   8.512   0.255 -0.7396 -0.2703 -0.0115
  147ACOH    C210071   5.118   8.567   0.169 -0.5493 -0.1200  0.5884
  147ACOH    O110072   5.080   8.620   0.063  0.0518  0.5767  0.0981
  147ACOH    C110073   5.259   8.573   0.222  0.5717 -0.3818  0.1117
  147ACOH    H110074   5.260   8.505   0.307 -1.3541 -0.2043  0.3036
  147ACOH    H210075   5.284   8.676   0.246 -2.0878  0.1791  0.6126
  147ACOH    H310076   5.323   8.539   0.140 -0.3048 -2.4099  0.2534
  148ACOH    H410077   8.597   3.446   0.523 -0.5777 -0.2501 -1.8464
  148ACOH    O210078   8.638   3.534   0.527 -0.3263 -0.4209 -0.4311
  148ACOH    C210079   8.682   3.572   0.650 -0.1474 -0.2247 -0.5941
  148ACOH    O110080   8.673   3.507   0.750 -0.4555  0.2564  0.3636
  148ACOH    C110081   8.720   3.710   0.658 -0.4655 -0.8644 -0.1352
  148ACOH    H110082   8.829   3.718   0.662 -0.5587 -0.2776  1.5153
  148ACOH    H210083   8.680   3.760   0.746  1.6143  0.0381  0.3159
  148ACOH    H310084   8.682   3.757   0.567 -3.3512 -1.3689  0.7593
  149ACOH    H410085   7.926   6.723   3.387  0.9461 -0.6659  1.1299
  149ACOH    O210086   7.878   6.772   3.455  0.1519 -0.1160  0.1935
  149ACOH    C210087   7.785   6.849   3.397  0.2919 -0.0705  0.6918
  149ACOH    O110088   7.759   6.854   3.276 -0.2541 -0.1544 -0.6565
  149ACOH    C110089   7.690   6.904   3.499 -0.0798  0.6071  0.3029
  149ACOH    H110090   7.594   6.853   3.492  1.5088 -2.3654 -0.7013
  149ACOH    H210091   7.671   7.010   3.479 -0.2517  0.6727  0.8049
  149ACOH    H310092   7.723   6.888   3.601  0.5770  1.3294  0.2050
  150ACOH    H410093   5.465   0.204   2.474  1.0669 -0.7794 -1.9021
  150ACOH    O210094   5.431   0.283   2.427  0.3414  0.1588  0.1564
  150ACOH    C210095   5.498   0.385   2.487  0.2781 -0.5701  0.0371
  150ACOH    O110096   5.573   0.374   2.583 -0.3082  0.0655  0.1624
  150ACOH    C110097   5.439   0.515   2.434 -0.1145 -0.3023 -0.5748
  150ACOH    H110098   5.451   0.593   2.509 -0.5369  0.8206 -1.6585
  150ACOH    H210099   5.335   0.516   2.404 -0.1076  4.8763 -0.9433
  150ACOH    H310100   5.494   0.546   2.345  2.9402  2.0887  2.0229
  151ACOH    H410101   2.922   0.693   1.131  0.3013  0.3611 -0.1266
  151ACOH    O210102   2.961   0.771   1.174 -0.0368  0.3243  0.2446
  151ACOH    C210103   3.044   0.729   1.266 -0.0833 -0.2226 -0.2291
  151ACOH    O110104   3.103   0.621   1.260  0.2479 -0.1721 -0.0064
  151ACOH    C110105   3.070   0.840   1.364  0.2685 -0.2378 -0.1430
  151ACOH    H110106   3.167   0.881   1.338  0.8878  0.9068  3.6518
  151ACOH    H210107   3.079   0.801   1.465  1.4352  0.7721  0.1596
  151ACOH    H310108   2.992   0.916   1.365  0.7533  0.2984 -1.6339
  152ACOH    H410109   4.122   0.264   0.447 -0.9901 -0.4725 -0.4063
  152ACOH    O210110   4.060   0.197   0.481 -0.2246 -0.8312  0.2773
  152ACOH    C210111   4.141   0.114   0.558 -1.2223  0.8218  0.9091
  152ACOH    O110112   4.238   0.146   0.622 -0.1516 -0.1238 -0.2529
  152ACOH    C110113   4.097  -0.030   0.551  0.8911  0.1255  0.6398
  152ACOH    H110114   3.997  -0.039   0.593  1.4056  3.1302  2.6493
  152ACOH    H210115   4.158  -0.096   0.612  1.5348  2.1711  2.2450
  152ACOH    H310116   4.101  -0.057   0.446 -0.1459  1.2135  0.3099
  153ACOH    H410117   5.390   7.980   3.288  0.9997 -0.7103  0.6674
  153ACOH    O210118   5.329   7.921   3.335  0.0566  0.1246  0.5024
  153ACOH    C210119   5.258   7.861   3.239  0.7144 -0.3540  0.2728
  153ACOH    O110120   5.293   7.844   3.126 -0.4691 -0.6664  0.1920
  153ACOH    C110121   5.151   7.770   3.296 -0.2013 -0.3265 -0.5541
  153ACOH    H110122   5.056   7.823   3.293 -0.5668 -0.8831  0.8823
  153ACOH    H210123   5.174   7.751   3.401 -2.6599  0.9408  0.2512
  153ACOH    H310124   5.150   7.670   3.253 -0.4670 -0.6801  0.2704
  154ACOH    H410125   7.557   9.418   0.842 -1.1124  3.3728  1.3847
  154ACOH    O210126   7.538   9.366   0.922 -0.2406  0.4214 -0.2415
  154ACOH    C210127   7.408   9.360   0.940 -0.0460 -0.2019 -0.2956
  154ACOH    O110128   7.332   9.408   0.859  0.2668 -0.0878 -0.4576
  154ACOH    C110129   7.372   9.304   1.074 -0.2369  0.4376 -0.2548
  154ACOH    H110130   7.375   9.196   1.061 -0.4575  0.1619  1.8096
  154ACOH    H210131   7.271   9.334   1.101 -0.5028 -0.4826 -0.1895
  154ACOH    H310132   7.433   9.329   1.161  1.2464  0.6529 -1.3442
  155ACOH    H410133   4.438   7.696   0.693  1.3415 -0.6490 -0.5460
  155ACOH    O210134   4.478   7.776   0.731 -0.0874 -0.3206  0.3352
  155ACOH    C210135   4.504   7.869   0.636  0.1925 -0.0881 -0.9886
  155ACOH    O110136   4.500   7.843   0.515  0.1713 -0.3474 -0.0581
  155ACOH    C110137   4.525   8.006   0.694 -0.2991 -0.2257 -0.4869
  155ACOH    H110138   4.599   8.048   0.625  1.3812 -2.0838  0.1351
  155ACOH    H210139   4.576   8.010   0.790  2.1604 -1.0013 -1.7054
  155ACOH    H310140   4.434   8.065   0.694 -0.8177 -1.0157  0.5619
  156ACOH    H410141   4.887   2.530   2.465  0.8018  0.8377 -0.8578
  156ACOH    O210142   4.970   2.480   2.457  0.2485 -0.2554  0.1114
  156ACOH    C210143   5.016   2.484   2.333  0.1247 -1.4305 -0.5336
  156ACOH    O110144   4.965   2.544   2.237 -0.2085 -0.1823 -0.0412
  156ACOH    C110145   5.152   2.426   2.326 -0.3052 -0.0064 -0.0650
  156ACOH    H110146   5.173   2.394   2.428 -0.5958 -1.1580 -0.3604
  156ACOH    H210147   5.223   2.494   2.281  1.7999 -1.7494  0.5428
  156ACOH    H310148   5.150   2.337   2.263 -1.4961 -0.5959  0.7913
  157ACOH    H410149   7.053   8.920   1.809 -0.0685  1.4245  0.9129
  157ACOH    O210150   6.989   8.857   1.846  0.2761  0.6605  0.2303
  157ACOH    C210151   7.054   8.737   1.852 -0.4359 -0.5356 -0.1713
  157ACOH    O110152   7.160   8.710   1.803 -0.0132 -0.3653 -0.2624
  157ACOH    C110153   6.975   8.637   1.929  0.2894 -1.0764  0.3574
  157ACOH    H110154   6.960   8.545   1.872 -1.9050 -0.5167 -0.0178
  157ACOH    H210155   6.878   8.681   1.954  0.4334 -0.7503  0.3336
  157ACOH    H310156   7.029   8.609   2.020  2.5598 -3.3301 -1.6370
  158ACOH    H410157   5.548   8.575   2.511 -1.9015  2.0548 -0.7255
  158ACOH    O210158   5.599   8.613   2.437 -0.1409  0.3905 -0.4050
  158ACOH    C210159   5.509   8.687   2.376 -0.4424 -0.7852  0.4527
  158ACOH    O110160   5.388   8.685   2.380  0.1663  0.0378 -0.1152
  158ACOH    C110161   5.578   8.756   2.260 -0.7504 -0.1296 -0.5913
  158ACOH    H110162   5.621   8.690   2.185  0.4794  1.2941 -1.1729
  158ACOH    H210163   5.659   8.819   2.294 -2.0737  0.3747  1.6903
  158ACOH    H310164   5.504   8.823   2.216 -1.4872  0.6730  1.7931
  159ACOH    H410165   7.577   2.809   0.291  1.2191  0.3156  0.6955
  159ACOH    O210166   7.606   2.722   0.321 -0.2863 -0.3954  0.1412
  159ACOH    C210167   7.679   2.732   0.437 -0.3057 -0.2134 -0.2373
  159ACOH    O110168   7.683   2.829   0.512  0.2471  0.1090 -0.3137
  159ACOH    C110169   7.763   2.613   0.456 -0.7479  0.4040  0.4513
  159ACOH    H110170   7.798   2.611   0.560  0.5301 -2.4762  0.0322
  159ACOH    H210171   7.851   2.610   0.392 -1.1496 -0.2315 -0.0815
  159ACOH    H310172   7.712   2.518   0.437 -2.5745  1.0720  1.8783
  160ACOH    H410173   5.923   8.761   1.834 -0.8734  0.0397 -1.0440
  160ACOH    O210174   5.986   8.804   1.773  0.0476 -0.4642 -0.4589
  160ACOH    C210175   6.111   8.760   1.803  0.8423  0.0750 -0.0717
  160ACOH    O110176   6.153   8.671   1.874  0.4619 -0.1694 -0.2153
  160ACOH    C110177   6.198   8.842   1.722  0.2837 -0.8345  0.4598
  160ACOH    H110178   6.139   8.874   1.635  0.7187 -1.7484 -0.1794
  160ACOH    H210179   6.277   8.778   1.685 -0.6671 -0.5058 -2.2701
  160ACOH    H310180   6.250   8.926   1.768 -1.6526  0.4715  0.3760
  161ACOH    H410181   6.305   0.362   3.302 -1.1005  0.6834  1.3999
  161ACOH    O210182   6.374   0.385   3.367  0.0327  0.3011  0.3536
  161ACOH    C210183   6.473   0.303   3.332 -0.4166 -0.3979  0.1818
  161ACOH    O110184   6.486   0.243   3.224 -0.6459  0.5374 -0.2489
  161ACOH    C110185   6.570   0.308   3.442 -0.5670 -0.5376 -0.8133
  161ACOH    H110186   6.518   0.335   3.533  0.4906 -0.8960 -0.1013
  161ACOH    H210187   6.650   0.377   3.415 -1.1405  0.7615  0.7466
  161ACOH    H310188   6.617   0.211   3.459  0.5120 -0.1677 -1.6257
  162ACOH    H410189   5.181   8.301   1.728  0.0412  0.7584  0.1002
  162ACOH    O210190   5.159   8.278   1.636 -0.0684  0.0465  0.3023
  162ACOH    C210191   5.195   8.145   1.627 -0.3264 -0.3564  0.0742
  162ACOH    O110192   5.230   8.073   1.720 -0.0686  0.2251 -0.1763
  162ACOH    C110193   5.199   8.096   1.486 -0.0329 -0.0780 -0.1742
  162ACOH    H110194   5.111   8.114   1.424 -1.5228 -1.2690  1.5440
  162ACOH    H210195   5.227   7.990   1.482  0.4350  0.1112 -3.1666
  162ACOH    H310196   5.282   8.151   1.442  0.2924  2.6187  3.6058
  163ACOH    H410197   6.539   0.694   3.134 -0.3524  1.3118  0.0726
  163ACOH    O210198   6.478   0.699   3.210 -0.2942  0.2898  0.1930
  163ACOH    C210199   6.539   0.669   3.325  0.4136 -0.0315  0.4394
  163ACOH    O110200   6.656   0.644   3.332  0.0576 -0.1428 -0.4056
  163ACOH    C110201   6.454   0.698   3.442 -0.0380 -0.0054  0.6533
  163ACOH    H110202   6.358   0.727   3.401  1.1442  0.4295 -1.8897
  163ACOH    H210203   6.496   0.777   3.505  1.4753  0.0781 -0.4163
  163ACOH    H310204   6.435   0.610   3.504  0.7866 -0.0144  0.9022
  164ACOH    H410205   9.927   6.560   1.068  0.9691 -1.0764  0.8006
  164ACOH    O210206   9.995   6.532   1.005  0.2599  0.0993 -0.5041
  164ACOH    C210207   9.995   6.398   1.018  0.0117  0.6518 -0.0966
  164ACOH    O110208   9.931   6.326   1.096 -0.0906 -0.4841 -0.0404
  164ACOH    C110209  10.074   6.341   0.905 -0.2477 -0.9171  0.0771
  164ACOH    H110210  10.083   6.233   0.898 -0.2033 -0.9750  0.9952
  164ACOH    H210211  10.173   6.384   0.920 -1.5505  2.6255 -0.9084
  164ACOH    H310212  10.024   6.367   0.811  0.6714 -0.2041 -0.2222
  165ACOH    H410213   7.672   1.198   2.663  0.1393  1.6485  1.6405
  165ACOH    O210214   7.632   1.140   2.730  0.3839 -0.2589  0.1790
  165ACOH    C210215   7.613   1.230   2.827 -0.2707 -0.1919 -0.6604
  165ACOH    O110216   7.641   1.348   2.836  0.4517  0.1125  0.3717
  165ACOH    C110217   7.537   1.165   2.932  0.5390  0.5479 -0.0206
  165ACOH    H110218   7.525   1.059   2.911 -0.9779  0.4560  1.2247
  165ACOH    H210219   7.437   1.209   2.927  0.6997  1.0534  1.0692
  165ACOH    H310220   7.576   1.179   3.032 -0.1433  3.3348 -0.1041
  166ACOH    H410221   3.602   5.972   0.536 -0.5402  0.1509 -1.0101
  166ACOH    O210222   3.637   5.885   0.560  0.1349  0.6574 -0.0923
  166ACOH    C210223   3.594   5.790   0.476 -0.7270  0.5011 -0.3794
  166ACOH    O110224   3.557   5.803   0.360 -0.9072 -0.6686  0.4115
  166ACOH    C110225   3.610   5.661   0.548  0.1970 -0.8551  0.8110
  166ACOH    H110226   3.520   5.602   0.530 -0.1546 -0.4953  1.3868
  166ACOH    H210227   3.642   5.679   0.651 -0.5942 -0.8067  1.0538
  166ACOH    H310228   3.688   5.594   0.511  1.9463  1.3770  0.3602
  167ACOH    H410229   5.575   2.463   1.505 -1.9093  4.0922 -2.5457
  167ACOH    O210230   5.658   2.467   1.454  0.2461  0.5388  0.3995
  167ACOH    C210231   5.639   2.378   1.354 -0.3742  0.0148  0.2917
  167ACOH    O110232   5.557   2.293   1.349 -0.1479  0.2670 -0.1079
  167ACOH    C110233   5.757   2.400   1.262  0.1959  0.2288  0.2450
  167ACOH    H110234   5.742   2.338   1.174 -0.4054 -0.6635  0.9753
  167ACOH    H210235   5.852   2.373   1.310  1.2620  1.8669 -0.8950
  167ACOH    H310236   5.757   2.503   1.227  0.1356  0.3667  0.6432
  168ACOH    H410237   4.017   4.524   2.431 -0.9668 -0.1006  0.7438
  168ACOH    O210238   4.076   4.563   2.498  0.4911 -0.8448 -0.0690
  168ACOH    C210239   4.167   4.469   2.544 -0.7206 -0.0700 -0.1746
  168ACOH    O110240   4.144   4.348   2.540  0.2397 -0.0178  0.5724
  168ACOH    C110241   4.281   4.523   2.622 -0.1755  0.3812 -0.1769
  168ACOH    H110242   4.257   4.499   2.725  1.9148 -1.9606 -0.1952
  168ACOH    H210243   4.297   4.630   2.609  0.5071  0.4990  1.4907
  168ACOH    H310244   4.369   4.465   2.596 -0.4106  0.0622 -0.2603
  169ACOH    H410245   6.270   7.017   2.733 -1.8414 -0.9692  0.5644
  169ACOH    O210246   6.220   7.093   2.699  0.4000  0.4663  0.4027
  169ACOH    C210247   6.085   7.087   2.724  0.3217 -0.0712  0.7591
  169ACOH    O110248   6.026   7.013   2.795 -0.2102 -0.3138 -0.1642
  169ACOH    C110249   6.026   7.217   2.673  0.6229  0.0506  0.1604
  169ACOH    H110250   5.972   7.267   2.754  2.9976  0.1801  1.7355
  169ACOH    H210251   5.958   7.196   2.591  0.4859  0.9452  0.0391
  169ACOH    H310252   6.099   7.290   2.638 -0.6926  1.2732 -0.0879
  170ACOH    H410253   7.004   9.235   0.235  0.7834  1.1659 -1.1153
  170ACOH    O210254   6.968   9.178   0.165  0.4698  0.2754 -0.2470
  170ACOH    C210255   6.928   9.266   0.072 -0.6002 -0.0371 -0.4111
  170ACOH    O110256   6.933   9.388   0.080 -0.6335 -0.3077  0.0492
  170ACOH    C110257   6.848   9.209  -0.037  0.7221  0.3146  0.4512
  170ACOH    H110258   6.752   9.253  -0.011  1.9259  2.8651  0.7363
  170ACOH    H210259   6.853   9.100  -0.041 -0.6886  0.2770 -0.7205
  170ACOH    H310260   6.885   9.245  -0.133 -2.9163 -0.2979 -1.2334
  171ACOH    H410261   7.746   2.429   2.194 -1.8666  0.7673 -0.4610
  171ACOH    O210262   7.713   2.411   2.283  0.1164 -0.5260  0.0373
  171ACOH    C210263   7.763   2.296   2.317 -0.1474 -0.0395  0.0559
  171ACOH    O110264   7.817   2.215   2.239  0.1613  0.0497 -0.0641
  171ACOH    C110265   7.751   2.270   2.463 -0.5686 -0.6763  0.2718
  171ACOH    H110266   7.647   2.255   2.492 -0.2846 -0.8014  1.2216
  171ACOH    H210267   7.785   2.360   2.513 -1.0925 -0.6496  0.5799
  171ACOH    H310268   7.815   2.191   2.503 -0.7023 -1.4855 -1.0808
  172ACOH    H410269   7.926   8.052   0.195  0.0268 -0.4686 -0.7377
  172ACOH    O210270   7.845   8.045   0.142 -0.0803 -0.0883 -0.6248
  172ACOH    C210271   7.789   8.170   0.158 -0.3345 -0.1309 -0.2776
  172ACOH    O110272   7.824   8.249   0.246  0.2501 -0.7166  0.4866
  172ACOH    C110273   7.683   8.191   0.055 -0.2250 -0.1252  0.1992
  172ACOH    H110274   7.646   8.093   0.025  1.0686 -0.9532  1.2616
  172ACOH    H210275   7.730   8.254  -0.020 -2.7856  1.7129  0.0768
  172ACOH    H310276   7.597   8.249   0.089 -0.7536 -0.5664 -0.3766
  173ACOH    H410277   5.645   9.443   3.209  2.2914 -0.0264  0.4130
  173ACOH    O210278   5.617   9.535   3.223  0.0039 -0.6389  0.0433
  173ACOH    C210279   5.722   9.614   3.224 -0.2862 -0.0323 -0.0785
  173ACOH    O110280   5.837   9.590   3.191  0.5789  0.1704 -0.3551
  173ACOH    C110281   5.681   9.752   3.250  0.6768  0.2501 -0.0724
  173ACOH    H110282   5.609   9.753   3.332  0.4715  2.8648 -0.2190
  173ACOH    H210283   5.632   9.800   3.165  0.1189  0.8453  0.5738
  173ACOH    H310284   5.773   9.805   3.273  0.2863  0.6876  0.5291
  174ACOH    H410285   8.402   4.274   0.022  2.7055  0.6352  0.5443
  174ACOH    O210286   8.435   4.192  -0.017 -0.2474 -0.1370 -0.5043
  174ACOH    C210287   8.415   4.098   0.081 -0.3136  0.6420 -0.3533
  174ACOH    O110288   8.360   4.107   0.189  0.1197 -0.3927  0.1824
  174ACOH    C110289   8.456   3.962   0.042 -0.2010  0.6329 -0.3533
  174ACOH    H110290   8.437   3.942  -0.063  2.3548  0.9103 -0.8845
  174ACOH    H210291   8.414   3.884   0.105  0.9591  1.4324  1.4570
  174ACOH    H310292   8.563   3.953   0.058 -0.3916  0.7994  1.1436
  175ACOH    H410293   4.925   8.014   3.145  0.8426 -0.0991  0.3175
  175ACOH    O210294   4.894   7.936   3.096 -0.2514  0.6584 -0.2162
  175ACOH    C210295   4.952   7.951   2.976 -0.0560 -0.0065  0.7840
  175ACOH    O110296   5.023   8.043   2.944 -0.0009 -0.4377 -0.4809
  175ACOH    C110297   4.911   7.846   2.875  0.0075  0.1325  0.6137
  175ACOH    H110298   4.979   7.867   2.793  0.7649  1.1970  1.4965
  175ACOH    H210299   4.806   7.839   2.845 -0.0578 -1.7383  1.2219
  175ACOH    H310300   4.946   7.748   2.906 -1.1836 -0.6222 -0.3638
  176ACOH    H410301   9.592   5.836   1.649  0.1101  0.1814 -1.0262
  176ACOH    O210302   9.648   5.915   1.657 -0.3780  0.4334 -0.0221
  176ACOH    C210303   9.780   5.866   1.667  1.2621 -0.3431 -0.5704
  176ACOH    O110304   9.808   5.753   1.703 -0.0109 -0.5165 -0.2873
  176ACOH    C110305   9.874   5.980   1.680  0.2646 -0.3690  0.8909
  176ACOH    H110306   9.896   6.000   1.785 -0.0027  0.0135  0.8739
  176ACOH    H210307   9.832   6.070   1.635 -0.9737 -1.4172 -0.1125
  176ACOH    H310308   9.966   5.943   1.635 -0.9511 -1.8999 -0.4398
  177ACOH    H410309   4.162   5.016   0.309 -1.0893 -0.6953 -0.9422
  177ACOH    O210310   4.216   5.062   0.243 -0.1387 -0.0506  0.2670
  177ACOH    C210311   4.146   5.174   0.210  0.0783  0.1279  0.9569
  177ACOH    O110312   4.035   5.200   0.240 -0.4892 -0.5402 -0.0009
  177ACOH    C110313   4.230   5.270   0.124 -0.0453  0.4075 -0.1681
  177ACOH    H110314   4.266   5.236   0.027  1.9213  1.9991 -0.0295
  177ACOH    H210315   4.315   5.305   0.183 -1.1605  1.9654  0.5614
  177ACOH    H310316   4.168   5.358   0.106 -0.1903  0.4885  0.7172
  178ACOH    H410317   4.485   3.923   3.387 -0.9892 -0.0178 -0.6164
  178ACOH    O210318   4.510   3.903   3.296 -0.5144 -0.0114 -0.4920
  178ACOH    C210319   4.626   3.965   3.279 -0.5653  0.6993 -0.4369
  178ACOH    O110320   4.664   4.052   3.359  0.2231 -0.1532 -0.4013
  178ACOH    C110321   4.715   3.917   3.172  0.1238 -0.2688  0.1656
  178ACOH    H110322   4.662   3.831   3.132 -0.9355  0.4470 -0.0136
  178ACOH    H210323   4.808   3.883   3.218 -1.1966 -3.1123  0.7986
  178ACOH    H310324   4.719   3.990   3.091  1.6382 -2.5030 -1.8257
  179ACOH    H410325   8.765   4.083   2.792 -0.4204  1.1228 -2.3013
  179ACOH    O210326   8.762   4.000   2.741  0.3276 -0.4271  0.0861
  179ACOH    C210327   8.868   3.933   2.782 -0.0727 -0.0541  0.1529
  179ACOH    O110328   8.951   3.972   2.865  0.3405  0.0491 -0.3600
  179ACOH    C110329   8.884   3.801   2.718 -0.1737 -0.4498 -0.0164
  179ACOH    H110330   8.798   3.770   2.659 -0.8619  1.6415 -0.1712
  179ACOH    H210331   8.897   3.721   2.791 -0.7440  0.1860  0.7993
  179ACOH    H310332   8.970   3.802   2.651  1.3849  2.1233  1.9295
  180ACOH    H410333   7.395   7.993   2.802  0.4248 -0.3330  0.0904
  180ACOH    O210334   7.468   7.964   2.859  0.3884 -0.0322  0.2912
  180ACOH    C210335   7.540   7.880   2.782 -0.5196 -0.4374  0.1716
  180ACOH    O110336   7.541   7.870   2.661  0.6908  0.5810 -0.0280
  180ACOH    C110337   7.645   7.821   2.860 -0.5723  0.4609 -0.3856
  180ACOH    H110338   7.615   7.765   2.949 -0.1179 -0.0422 -0.5473
  180ACOH    H210339   7.715   7.898   2.893  1.1445 -0.3783 -1.9711
  180ACOH    H310340   7.706   7.756   2.798  0.0966  0.2413  0.4889
  181ACOH    H410341   8.579   3.494   3.273  1.0575  0.8557 -0.2990
  181ACOH    O210342   8.537   3.541   3.348  0.2764  0.3375 -0.3988
  181ACOH    C210343   8.552   3.476   3.462  0.8639 -0.1158  0.5780
  181ACOH    O110344   8.584   3.363   3.480 -0.5050 -0.4886 -0.0870
  181ACOH    C110345   8.513   3.573   3.569 -0.5558 -0.2724 -0.1936
  181ACOH    H110346   8.591   3.624   3.626  1.0643 -0.7704 -1.8973
  181ACOH    H210347   8.456   3.521   3.645 -1.4435  2.0982  0.7952
  181ACOH    H310348   8.450   3.647   3.518 -2.2685 -1.1982  0.5536
  182ACOH    H410349   7.960   1.195   2.754 -0.2642  1.5942  2.3047
  182ACOH    O210350   8.007   1.252   2.691  0.2063 -0.5173  0.6578
  182ACOH    C210351   8.038   1.364   2.760  0.1605  0.0401 -0.0459
  182ACOH    O110352   8.018   1.382   2.877  0.2075  0.5368 -0.1537
  182ACOH    C110353   8.148   1.427   2.688 -0.1429 -0.5548 -0.2345
  182ACOH    H110354   8.239   1.405   2.745  0.5946  1.3930 -0.6261
  182ACOH    H210355   8.138   1.535   2.694  1.8813 -0.1963 -2.5715
  182ACOH    H310356   8.153   1.387   2.587  0.9946  1.6454 -1.0808
  183ACOH    H410357   0.498   5.888   0.046  0.2494 -0.7171 -0.5912
  183ACOH    O210358   0.515   5.926   0.133 -0.7138 -0.5448 -0.4817
  183ACOH    C210359   0.592   5.844   0.207  0.2777  0.0671  0.0189
  183ACOH    O110360   0.582   5.724   0.204  0.1760 -0.1187 -0.3559
  183ACOH    C110361   0.635   5.914   0.323  0.5962  0.6270  0.1517
  183ACOH    H110362   0.552   5.923   0.394 -1.8388 -0.1814 -2.5104
  183ACOH    H210363   0.678   6.011   0.302 -0.3466  0.7022 -1.4906
  183ACOH    H310364   0.710   5.852   0.372 -1.7639 -2.5450 -0.0092
  184ACOH    H410365   6.196   9.016   2.723 -1.2705  3.5467  0.9300
  184ACOH    O210366   6.141   8.955   2.776  0.4163  0.6835 -0.4782
  184ACOH    C210367   6.228   8.859   2.820  0.1587  0.4473  0.0660
  184ACOH    O110368   6.341   8.839   2.774  0.1014  0.2010  0.4046
  184ACOH    C110369   6.169   8.767   2.920 -0.4244 -0.2819  0.3653
  184ACOH    H110370   6.128   8.808   3.012  1.0176 -0.1548  0.9601
  184ACOH    H210371   6.239   8.686   2.942  2.8480  1.9706 -1.2422
  184ACOH    H310372   6.084   8.719   2.872  0.6030 -0.2398 -1.5764
  185ACOH    H410373   8.309   3.459   0.605  0.5661  1.1535  0.4678
  185ACOH    O210374   8.274   3.486   0.518 -0.6143 -0.1098  0.5345
  185ACOH    C210375   8.311   3.620   0.510  0.0391 -0.2320 -0.0238
  185ACOH    O110376   8.338   3.687   0.606 -0.2165  0.2103  0.6346
  185ACOH    C110377   8.291   3.672   0.371 -0.6064 -0.5842 -0.6660
  185ACOH    H110378   8.210   3.610   0.331 -1.9340 -0.5845  1.9223
  185ACOH    H210379   8.385   3.679   0.316  0.0893  1.9959  0.8106
  185ACOH    H310380   8.256   3.773   0.388  0.3682 -0.2566 -0.5836
  186ACOH    H410381   3.945   7.390   1.724 -2.3718  0.9303 -0.6718
  186ACOH    O210382   3.933   7.417   1.817  0.4598 -0.0074  0.0285
  186ACOH    C210383   3.883   7.315   1.898 -0.1363 -0.5218  0.1049
  186ACOH    O110384   3.848   7.204   1.854 -0.2963 -0.0754  0.6190
  186ACOH    C110385   3.880   7.371   2.040  0.1066 -0.3048 -0.0861
  186ACOH    H110386   3.783   7.416   2.057 -0.5902 -1.1787 -1.6035
  186ACOH    H210387   3.955   7.451   2.039  0.0893 -0.2885  0.1186
  186ACOH    H310388   3.902   7.298   2.118 -4.0489  0.0394  1.4861
  187ACOH    H410389   7.048   9.605   1.027 -2.3547  2.4679 -2.2856
  187ACOH    O210390   6.985   9.596   1.100  0.0049 -0.1426 -0.4842
  187ACOH    C210391   6.872   9.653   1.064  0.6409 -0.4544  0.9415
  187ACOH    O110392   6.855   9.707   0.956  0.3407  0.1884 -0.2789
  187ACOH    C110393   6.771   9.656   1.174  0.4525  0.3645  0.0151
  187ACOH    H110394   6.703   9.741   1.170 -1.0012 -0.8152 -0.8466
  187ACOH    H210395   6.823   9.659   1.270 -0.4278  1.3963  0.4780
  187ACOH    H310396   6.713   9.564   1.168  0.4127  0.3911 -0.0164
  188ACOH    H410397   4.877   7.338   2.640  0.0360  0.7562 -0.6505
  188ACOH    O210398   4.971   7.341   2.616  0.2821  0.1436  0.1919
  188ACOH    C210399   5.008   7.469   2.597 -0.5040  0.2424 -0.5009
  188ACOH    O110400   4.938   7.564   2.558 -0.2404 -0.3287 -0.1755
  188ACOH    C110401   5.155   7.482   2.592 -0.1238 -0.1634  0.5406
  188ACOH    H110402   5.198   7.506   2.689  1.1135  0.3628 -0.1198
  188ACOH    H210403   5.192   7.556   2.520 -1.6501  1.6211  1.5473
  188ACOH    H310404   5.190   7.384   2.560 -0.0950  0.1742 -0.4896
  189ACOH    H410405   6.061   0.463   2.702  0.5903 -0.8513  0.1695
  189ACOH    O210406   6.098   0.526   2.766 -0.3225 -0.0616 -0.0729
  189ACOH    C210407   6.047   0.507   2.891  0.2568 -0.2048 -0.1821
  189ACOH    O110408   5.981   0.408   2.921  0.4292  0.3088 -0.4832
  189ACOH    C110409   6.093   0.604   2.996 -0.9355  0.5008  0.2702
  189ACOH    H110410   6.059   0.576   3.095 -0.7160 -2.2383 -0.3968
  189ACOH    H210411   6.054   0.696   2.952  0.7024 -0.2044 -2.7909
  189ACOH    H310412   6.200   0.625   2.996 -0.7731 -0.1541 -2.2501
  190ACOH    H410413   7.989   5.857   1.188  2.4162 -0.0026 -1.8242
  190ACOH    O210414   7.962   5.763   1.191  0.0300  0.6872  0.0213
  190ACOH    C210415   7.931   5.725   1.064  0.1046  0.6971  0.1304
  190ACOH    O110416   7.910   5.796   0.968  0.6090 -0.5591  0.3978
  190ACOH    C110417   7.931   5.582   1.055 -0.0437  0.3244 -0.2303
  190ACOH    H110418   7.891   5.549   0.959  0.3072  1.8549 -0.9168
  190ACOH    H210419   7.864   5.549   1.135 -0.6917  1.1862 -0.4163
  190ACOH    H310420   8.030   5.538   1.073  0.2711  1.5421  1.1040
  191ACOH    H410421   7.767   0.836   3.193 -0.4949  0.1717  0.7600
  191ACOH    O210422   7.674   0.812   3.176 -0.2463  0.1062 -0.5595
  191ACOH    C210423   7.668   0.837   3.047  0.4917  0.1154  0.0102
  191ACOH    O110424   7.731   0.917   2.981  0.3004  0.0874 -0.3383
  191ACOH    C110425   7.532   0.788   3.005  0.1992 -0.2258 -0.0106
  191ACOH    H110426   7.453   0.854   3.041 -0.1470 -1.3970  1.4032
  191ACOH    H210427   7.514   0.694   3.057  0.4902  0.0232  0.5513
  191ACOH    H310428   7.519   0.785   2.897 -2.3589 -2.0840  0.3095
  192ACOH    H410429   7.386   8.816   1.014 -0.3433  1.0258  1.0050
  192ACOH    O210430   7.351   8.872   0.943  0.8490  0.3907 -0.1139
  192ACOH    C210431   7.460   8.952   0.932 -0.2894 -0.4061 -0.3359
  192ACOH    O110432   7.539   8.987   1.020  0.5426 -0.4285  0.3693
  192ACOH    C110433   7.457   9.028   0.804 -0.3187  0.3760  0.2357
  192ACOH    H110434   7.355   9.051   0.774  0.4159  0.3980 -2.4101
  192ACOH    H210435   7.502   8.967   0.726 -0.2502  0.3469  0.2983
  192ACOH    H310436   7.514   9.120   0.810 -1.5150  1.0495  1.3768
  193ACOH    H410437   7.874   7.240   0.361  0.1566  1.2902  0.2003
  193ACOH    O210438   7.861   7.220   0.455  0.4047 -0.2084 -0.0775
  193ACOH    C210439   7.971   7.175   0.520  0.6174 -0.9152  0.1131
  193ACOH    O110440   8.081   7.163   0.473  0.0498 -0.0988 -0.0585
  193ACOH    C110441   7.948   7.159   0.666 -0.2358 -0.3311 -0.1111
  193ACOH    H110442   7.841   7.144   0.681 -0.3731 -1.0126 -1.7256
  193ACOH    H210443   7.971   7.253   0.717  3.1585 -0.5132 -1.2497
  193ACOH    H310444   8.006   7.073   0.697  1.0606  1.2650  2.0531
  194ACOH    H410445   2.570   7.561   3.209  1.3912  0.1214 -2.0670
  194ACOH    O210446   2.611   7.491   3.263 -0.5620  0.1907 -0.4257
  194ACOH    C210447   2.737   7.480   3.219  0.1496  0.8222 -0.5648
  194ACOH    O110448   2.796   7.561   3.152 -0.0185  0.1117  0.1085
  194ACOH    C110449   2.807   7.355   3.262  0.0602 -0.3716  0.1414
  194ACOH    H110450   2.757   7.304   3.344  1.0416  1.2393  1.7642
  194ACOH    H210451   2.907   7.385   3.294 -0.1906  0.2570  0.3292
  194ACOH    H310452   2.824   7.285   3.180 -0.3128 -0.3028  0.0041
  195ACOH    H410453   3.525   0.977   2.120  0.8866 -1.1462  1.0204
  195ACOH    O210454   3.511   0.902   2.060  0.3914  0.2910 -0.7092
  195ACOH    C210455   3.415   0.821   2.113  0.6523 -0.0612 -0.1751
  195ACOH    O110456   3.367   0.819   2.228 -0.1010  0.8232 -0.2065
  195ACOH    C110457   3.374   0.712   2.016  0.1338  0.2157 -0.6179
  195ACOH    H110458   3.453   0.689   1.944 -0.6880 -1.8400 -0.8992
  195ACOH    H210459   3.288   0.754   1.964 -0.7242  0.8212  1.2757
  195ACOH    H310460   3.340   0.625   2.072  1.2634  0.5543  0.6266
  196ACOH    H410461   2.914   6.648   0.946 -1.8522  3.5023 -1.5007
  196ACOH    O210462   2.940   6.631   0.854 -0.6290 -0.2275 -0.5555
  196ACOH    C210463   2.980   6.498   0.833  0.1146 -0.2116  0.6628
  196ACOH    O110464   2.984   6.402   0.911  0.0895 -0.0296 -0.0533
  196ACOH    C110465   3.038   6.502   0.694 -0.0636  0.1421 -0.9201
  196ACOH    H110466   2.969   6.516   0.611 -0.3884  0.1414 -0.6503
  196ACOH    H210467   3.095   6.410   0.681 -1.8297 -1.2404  0.7860
  196ACOH    H310468   3.112   6.582   0.694 -1.3655  1.3701 -0.4913
  197ACOH    H410469   9.519   7.023   1.753  0.0404 -1.0348  0.5782
  197ACOH    O210470   9.506   6.985   1.664  0.0280  0.0648  0.0976
  197ACOH    C210471   9.394   7.021   1.612 -1.0341  0.0830  0.1674
  197ACOH    O110472   9.323   7.116   1.648  0.4905 -0.1886  0.4484
  197ACOH    C110473   9.395   6.982   1.468 -0.4416 -0.2837 -0.2005
  197ACOH    H110474   9.477   7.028   1.414 -1.5797  0.3394 -1.4031
  197ACOH    H210475   9.301   7.005   1.418 -0.0345 -0.6871 -1.1544
  197ACOH    H310476   9.406   6.874   1.463 -1.4762 -0.4367  0.6244
  198ACOH    H410477   8.033   5.353   0.695 -0.0452  1.9029  0.3984
  198ACOH    O210478   7.936   5.347   0.700  0.0563 -0.4476  0.1280
  198ACOH    C210479   7.899   5.259   0.789  0.5968 -0.1885  0.5276
  198ACOH    O110480   7.984   5.199   0.855  0.7895  0.7376 -0.6776
  198ACOH    C110481   7.762   5.275   0.825  0.5597  0.3595  0.1571
  198ACOH    H110482   7.750   5.366   0.884 -0.1652 -1.1696  2.4037
  198ACOH    H210483   7.721   5.195   0.886  2.6123 -0.8867 -0.0587
  198ACOH    H310484   7.703   5.273   0.734  1.8088 -2.9810 -0.6392
  199ACOH    H410485   0.102   9.866   1.142 -2.4796 -1.0976 -2.3364
  199ACOH    O210486   0.164   9.853   1.069  0.1488 -0.1313 -0.4023
  199ACOH    C210487   0.097   9.880   0.955  0.3836  0.6076 -0.9747
  199ACOH    O110488  -0.021   9.904   0.945 -0.1426  0.1329 -0.1733
  199ACOH    C110489   0.193   9.884   0.843  0.0133 -0.3035  1.1199
  199ACOH    H110490   0.298   9.861   0.861  0.1763  0.1733  0.7757
  199ACOH    H210491   0.190   9.984   0.798  1.3647 -0.2063  1.2396
  199ACOH    H310492   0.166   9.817   0.762  2.3046  1.2106 -0.9952
  200ACOH    H410493   7.738   3.120   0.829  2.0776 -1.2635 -0.3183
  200ACOH    O210494   7.773   3.206   0.798  0.3348 -0.4241 -0.0257
  200ACOH    C210495   7.908   3.205   0.823  0.0080 -0.2986  0.2165
  200ACOH    O110496   7.978   3.106   0.834 -0.1693  0.0257  0.0633
  200ACOH    C110497   7.964   3.336   0.791 -0.3321  0.0318  0.0973
  200ACOH    H110498   8.019   3.331   0.697 -1.2234  1.5655 -0.5133
  200ACOH    H210499   8.026   3.374   0.873 -0.7648  1.7627 -0.3535
  200ACOH    H310500   7.884   3.409   0.778 -0.9936 -0.8234 -0.6790
  201ACOH    H410501   7.851   1.531   1.553  0.3128 -0.7760 -0.0768
  201ACOH    O210502   7.782   1.479   1.509  0.0444 -0.3081 -0.2053
  201ACOH    C210503   7.679   1.491   1.595 -0.5672  0.6105  0.3097
  201ACOH    O110504   7.676   1.554   1.701 -1.0628  0.5137 -0.0217
  201ACOH    C110505   7.565   1.401   1.569  0.2610 -0.5634 -0.0326
  201ACOH    H110506   7.500   1.384   1.655  0.1094  1.9181  0.3921
  201ACOH    H210507   7.600   1.305   1.533  0.3872 -0.7271  0.5291
  201ACOH    H310508   7.512   1.450   1.487 -0.2574 -1.8768 -0.4899
  202ACOH    H410509   0.661   5.017   1.675  0.6262 -0.9679  2.8486
  202ACOH    O210510   0.590   4.951   1.672 -0.1930 -0.0427  0.0083
  202ACOH    C210511   0.489   4.998   1.598 -0.1220 -0.1653 -0.4874
  202ACOH    O110512   0.488   5.100   1.529  0.0436 -0.0375  0.1558
  202ACOH    C110513   0.373   4.903   1.592 -0.1400 -0.5002  0.5338
  202ACOH    H110514   0.396   4.818   1.528  1.6523  2.0854 -2.3885
  202ACOH    H210515   0.283   4.956   1.561 -0.1526 -1.0237 -0.3270
  202ACOH    H310516   0.357   4.873   1.696  0.5722 -1.1583  0.4579
  203ACOH    H410517   7.607   4.014   0.681 -0.0828  1.2979  1.1911
  203ACOH    O210518   7.511   4.015   0.664  0.1433  0.5366 -0.2156
  203ACOH    C210519   7.460   4.118   0.728 -0.5003 -0.0775  0.5857
  203ACOH    O110520   7.522   4.212   0.777  0.3674  0.2744  0.2614
  203ACOH    C110521   7.313   4.141   0.714  0.1252  0.0120  0.1492
  203ACOH    H110522   7.259   4.059   0.668 -0.9320  1.2742 -0.9216
  203ACOH    H210523   7.308   4.236   0.660 -0.1811  0.3541  0.7738
  203ACOH    H310524   7.272   4.147   0.815 -0.9176 -0.8199 -0.2187
  204ACOH    H410525   3.142   7.874   0.069  0.3744  0.9309 -1.2689
  204ACOH    O210526   3.226   7.825   0.075  0.0603  0.4713 -0.5261
  204ACOH    C210527   3.316   7.906   0.136  0.1057 -0.6909  0.6700
  204ACOH    O110528   3.306   8.025   0.142 -0.3104 -0.6794  0.0067
  204ACOH    C110529   3.439   7.835   0.184  0.0751 -0.4745  0.2231
  204ACOH    H110530   3.470   7.879   0.279 -1.7692 -2.1367  1.6352
  204ACOH    H210531   3.518   7.837   0.109 -1.0656 -1.7215 -1.0454
  204ACOH    H310532   3.425   7.729   0.207 -0.0171 -1.1234 -2.7302
  205ACOH    H410533   6.636   9.878   3.230 -0.7425  1.0353  1.5315
  205ACOH    O210534   6.689   9.816   3.284 -0.2985  0.8234  0.8651
  205ACOH    C210535   6.736   9.716   3.210  0.1869  0.1240  0.2178
  205ACOH    O110536   6.762   9.719   3.092 -0.1152 -0.4127  0.3634
  205ACOH    C110537   6.780   9.604   3.299 -0.1102  0.1453 -0.1119
  205ACOH    H110538   6.729   9.599   3.395  1.3447 -0.5080  0.6366
  205ACOH    H210539   6.887   9.615   3.314 -0.3525  0.2863  1.5667
  205ACOH    H310540   6.760   9.512   3.243 -2.4970  1.8717 -2.2358
  206ACOH    H410541   6.229   8.453   2.896 -1.7889  3.2835 -0.6063
  206ACOH    O210542   6.178   8.447   2.978 -0.1571 -0.2305  0.2937
  206ACOH    C210543   6.235   8.348   3.054 -0.2828 -0.1434 -0.0848
  206ACOH    O110544   6.323   8.266   3.025  0.1162 -0.1318  0.0720
  206ACOH    C110545   6.175   8.342   3.195 -0.1884  0.0120 -0.2200
  206ACOH    H110546   6.087   8.403   3.215 -1.0784 -0.8122 -1.6093
  206ACOH    H210547   6.245   8.340   3.279 -1.8594  2.3539  1.3207
  206ACOH    H310548   6.142   8.239   3.202 -1.2163  0.3775  0.5379
  207ACOH    H410549   7.653   2.136   1.141  0.2919  0.1777  0.6126
  207ACOH    O210550   7.602   2.218   1.156  0.0475  0.1242  0.0829
  207ACOH    C210551   7.600   2.254   1.288  0.1102 -0.2197  0.4494
  207ACOH    O110552   7.656   2.198   1.379 -0.2458 -0.3587  0.0632
  207ACOH    C110553   7.512   2.362   1.309  0.0827 -0.0164 -0.1879
  207ACOH    H110554   7.545   2.442   1.242  0.1787  0.7820  0.8052
  207ACOH    H210555   7.534   2.402   1.408  1.3584  0.8739 -0.8150
  207ACOH    H310556   7.406   2.338   1.308  0.0146  0.2888 -0.0399
  208ACOH    H410557   6.600   0.379   2.719  1.0033 -1.2620  0.9898
  208ACOH    O210558   6.665   0.345   2.656  0.1571 -0.5482 -0.2908
  208ACOH    C210559   6.645   0.216   2.629  0.1738  0.1174 -0.6064
  208ACOH    O110560   6.552   0.149   2.664 -0.4946  0.2853 -0.4586
  208ACOH    C110561   6.757   0.164   2.546 -0.1673 -0.0505  0.1384
  208ACOH    H110562   6.773   0.219   2.453 -0.3864 -1.1596 -0.5706
  208ACOH    H210563   6.732   0.060   2.522 -0.4048 -0.4442  2.0194
  208ACOH    H310564   6.848   0.163   2.606  0.9247 -0.8253 -1.4904
  209ACOH    H410565   8.875   3.699   3.440 -2.1817  0.4811  0.1461
  209ACOH    O210566   8.865   3.769   3.373 -0.1529  0.3149 -0.3596
  209ACOH    C210567   8.914   3.736   3.256 -0.2292 -0.3815  0.5982
  209ACOH    O110568   8.911   3.630   3.200 -0.3861  0.0765  0.1591
  209ACOH    C110569   8.976   3.852   3.191 -0.3006 -0.3097 -0.0508
  209ACOH    H110570   9.082   3.831   3.180  0.0099 -1.2757  3.8441
  209ACOH    H210571   8.967   3.941   3.253  1.7115  1.0427 -1.6271
  209ACOH    H310572   8.940   3.869   3.090 -0.9469  1.2488  0.4205
  210ACOH    H410573   4.535   7.332   2.760  0.6594  0.1682 -1.4941
  210ACOH    O210574   4.493   7.299   2.678  0.2468 -0.2400 -1.1166
  210ACOH    C210575   4.586   7.240   2.600  0.1866  0.1137 -0.2559
  210ACOH    O110576   4.699   7.276   2.608  0.0393  0.9316  0.5842
  210ACOH    C110577   4.540   7.166   2.479 -0.1839  0.1797  0.0171
  210ACOH    H110578   4.457   7.099   2.501  0.5549 -0.6607  0.2929
  210ACOH    H210579   4.621   7.104   2.441 -0.4926 -0.5602  0.5449
  210ACOH    H310580   4.500   7.239   2.409 -0.7379  0.6381  0.7968
  211ACOH    H410581   9.069   2.564   2.053 -0.3806  1.1891  1.8827
  211ACOH    O210582   9.154   2.553   2.099  0.4021 -0.3298  0.1428
  211ACOH    C210583   9.254   2.557   2.005  0.3143  1.0547 -0.4230
  211ACOH    O110584   9.236   2.556   1.882  0.1619 -0.3164  0.6468
  211ACOH    C110585   9.384   2.543   2.073  0.9068  0.2987  0.2684
  211ACOH    H110586   9.463   2.547   1.998  0.7438  1.9701  0.1740
  211ACOH    H210587   9.395   2.447   2.123  0.2787  1.1475  2.0936
  211ACOH    H310588   9.392   2.623   2.147 -1.8894  1.0285 -0.1990
  212ACOH    H410589   5.813   9.170   2.158 -0.4701  2.1196  0.5562
  212ACOH    O210590   5.812   9.170   2.060 -0.9412  0.3078  0.5510
  212ACOH    C210591   5.683   9.128   2.031  0.2689  0.3063 -0.2190
  212ACOH    O110592   5.589   9.128   2.110  0.3927  0.1830 -0.2756
  212ACOH    C110593   5.655   9.118   1.887 -0.6014  0.3670 -0.4689
  212ACOH    H110594   5.742   9.096   1.825 -0.9805 -0.4967 -0.7022
  212ACOH    H210595   5.616   9.213   1.849 -0.7652  0.6573  0.4325
  212ACOH    H310596   5.575   9.047   1.866  0.3053 -0.5832 -0.7056
  213ACOH    H410597   0.778   0.162   0.051  0.5380  0.4733 -0.6327
  213ACOH    O210598   0.830   0.085   0.023  0.0557 -0.0143 -0.1991
  213ACOH    C210599   0.889   0.033   0.130 -0.0884 -0.1168  0.4456
  213ACOH    O110600   0.921   0.087   0.236 -0.6200  0.4445 -0.0057
  213ACOH    C110601   0.957  -0.093   0.094 -0.1971  0.4855  0.1171
  213ACOH    H110602   1.065  -0.084   0.091 -0.0141 -1.5819 -0.2808
  213ACOH    H210603   0.918  -0.128  -0.002  0.9416 -0.4780 -0.0024
  213ACOH    H310604   0.933  -0.171   0.166  1.3517 -0.3390 -0.2283
  214ACOH    H410605   7.143   8.063   1.900 -0.2440 -0.4317 -0.1438
  214ACOH    O210606   7.160   7.975   1.862  0.0018 -0.3933 -0.1212
  214ACOH    C210607   7.180   7.906   1.971  0.3201 -0.2945  0.9211
  214ACOH    O110608   7.146   7.940   2.085 -0.7968  0.3490 -0.1556
  214ACOH    C110609   7.232   7.775   1.940 -0.8133 -0.1102  0.4665
  214ACOH    H110610   7.336   7.775   1.973 -0.9034  0.1283  0.7613
  214ACOH    H210611   7.222   7.749   1.835  0.3996  2.5639 -0.3750
  214ACOH    H310612   7.171   7.705   1.998 -2.2406 -0.7815 -1.7673
  215ACOH    H410613   8.072   5.963   3.218  0.8708 -0.6583 -1.3332
  215ACOH    O210614   7.979   5.942   3.196  0.4815  0.3252 -0.6328
  215ACOH    C210615   7.968   5.857   3.095 -0.1792  0.4509  1.5300
  215ACOH    O110616   8.060   5.821   3.023 -0.4789 -0.0452 -0.3703
  215ACOH    C110617   7.830   5.856   3.046  0.7442  0.1668 -0.0793
  215ACOH    H110618   7.823   5.864   2.938 -2.4109  1.0050  0.1302
  215ACOH    H210619   7.779   5.946   3.080  2.0745  1.1684 -0.7123
  215ACOH    H310620   7.777   5.766   3.079  0.2574  1.4263  2.7348
  216ACOH    H410621   5.243   0.197   1.708 -0.4050  1.1586  0.7342
  216ACOH    O210622   5.298   0.247   1.646  0.6658 -0.9548 -0.0726
  216ACOH    C210623   5.216   0.345   1.599 -0.1191 -0.0084 -0.5425
  216ACOH    O110624   5.095   0.355   1.605 -0.2587  0.1652  0.0739
  216ACOH    C110625   5.303   0.445   1.537 -0.0825  0.0477  0.1785
  216ACOH    H110626   5.258   0.462   1.439 -1.0490 -0.0497  0.6087
  216ACOH    H210627   5.401   0.402   1.518 -0.9601 -1.1139 -1.9088
  216ACOH    H310628   5.317   0.537   1.593 -0.9941 -0.0605  0.5803
  217ACOH    H410629   4.249   2.531   0.098  0.3611 -0.2757  1.9321
  217ACOH    O210630   4.288   2.453   0.055  0.1800  0.6713  0.0046
  217ACOH    C210631   4.421   2.472   0.068 -0.2113 -1.2406  0.0964
  217ACOH    O110632   4.476   2.580   0.094 -0.0659  0.0037 -0.4708
  217ACOH    C110633   4.496   2.369  -0.004 -0.4066  0.2965 -0.2409
  217ACOH    H110634   4.425   2.316  -0.068 -1.2731 -0.0276  0.9898
  217ACOH    H210635   4.541   2.298   0.065  0.4024  1.0551  0.0207
  217ACOH    H310636   4.581   2.406  -0.061  0.7810 -1.3697  0.3954
  218ACOH    H410637   5.215   3.276   2.574 -0.4063 -0.1529 -0.2356
  218ACOH    O210638   5.310   3.277   2.593 -0.4583 -0.0183  0.0146
  218ACOH    C210639   5.326   3.387   2.674 -0.0771  0.0161  0.2186
  218ACOH    O110640   5.240   3.448   2.741 -0.8373 -0.0270 -0.2112
  218ACOH    C110641   5.468   3.430   2.676 -0.5611 -0.6460  0.0516
  218ACOH    H110642   5.493   3.433   2.782 -0.7871 -1.2511  0.1249
  218ACOH    H210643   5.474   3.528   2.629 -1.0145  0.0971  1.5231
  218ACOH    H310644   5.537   3.363   2.625  1.0689  1.1148 -0.1385
  219ACOH    H410645   6.084   6.859   2.886 -1.3424 -1.3839 -1.2080
  219ACOH    O210646   6.124   6.781   2.927 -0.5579 -0.1290  0.4819
  219ACOH    C210647   6.256   6.792   2.917 -0.5313  0.7375  0.0697
  219ACOH    O110648   6.315   6.877   2.856  0.7670 -0.3603 -0.1233
  219ACOH    C110649   6.316   6.668   2.984  0.5555 -0.3467  0.8295
  219ACOH    H110650   6.424   6.684   2.990  0.3833  1.5004 -0.6022
  219ACOH    H210651   6.286   6.584   2.922  0.0971  0.2590  0.2331
  219ACOH    H310652   6.275   6.650   3.083 -2.9065 -2.0068 -0.8126
  220ACOH    H410653   4.153   7.278   0.113  1.3760 -1.0869  1.8877
  220ACOH    O210654   4.116   7.210   0.054 -0.5703  1.0083  0.6038
  220ACOH    C210655   4.198   7.196  -0.051 -0.3011 -0.0708 -0.5738
  220ACOH    O110656   4.272   7.289  -0.090 -0.3299  0.2397 -0.2573
  220ACOH    C110657   4.163   7.083  -0.143  0.1422 -0.8370 -0.1872
  220ACOH    H110658   4.201   6.995  -0.091  1.4716 -0.2236 -0.1076
  220ACOH    H210659   4.211   7.091  -0.240  1.2660 -1.0114  0.3452
  220ACOH    H310660   4.054   7.082  -0.142  0.1149  0.1369  2.5602
  221ACOH    H410661   4.423   4.117   0.423 -0.4704  0.1549  1.0928
  221ACOH    O210662   4.490   4.151   0.362 -1.0456 -0.3175  0.1812
  221ACOH    C210663   4.481   4.280   0.370  0.8060 -0.4948 -0.0371
  221ACOH    O110664   4.433   4.352   0.453  0.3083  0.3077  0.0422
  221ACOH    C110665   4.579   4.341   0.277  0.1944 -0.0996 -0.5799
  221ACOH    H110666   4.679   4.297   0.273 -0.3195 -1.2824 -0.6559
  221ACOH    H210667   4.587   4.448   0.295  2.8386  0.4723 -4.5443
  221ACOH    H310668   4.536   4.338   0.177 -1.1197  2.0422 -0.1297
  222ACOH    H410669   4.292   5.511   1.987  0.7874  1.0732 -1.0653
  222ACOH    O210670   4.351   5.552   2.052  0.3591 -0.2073  0.1513
  222ACOH    C210671   4.274   5.608   2.146  0.6182  0.4008  0.2296
  222ACOH    O110672   4.155   5.600   2.160  0.3510 -0.5659 -0.3097
  222ACOH    C110673   4.372   5.647   2.249 -0.5287 -0.0329  0.0434
  222ACOH    H110674   4.410   5.747   2.230 -2.9020  0.9697  0.4651
  222ACOH    H210675   4.446   5.567   2.251  0.6344  1.0495  0.6160
  222ACOH    H310676   4.327   5.657   2.348 -0.9424 -0.2853 -0.1184
  223ACOH    H410677   4.674   3.606   3.399  1.0961  0.0067  0.0683
  223ACOH    O210678   4.690   3.592   3.304  0.1004  0.1690 -0.1198
  223ACOH    C210679   4.595   3.492   3.268 -0.8120  0.3936  0.1354
  223ACOH    O110680   4.514   3.438   3.342 -0.3021  0.2227  0.7723
  223ACOH    C110681   4.600   3.458   3.119 -0.2458  0.7861  0.1439
  223ACOH    H110682   4.537   3.530   3.065 -0.2524 -0.4386 -1.5155
  223ACOH    H210683   4.556   3.359   3.109 -1.2314  1.1578  0.7373
  223ACOH    H310684   4.701   3.462   3.079 -0.0419 -1.0304  0.4360
  224ACOH    H410685   6.585   9.783   2.122  1.0243  0.0742 -0.4013
  224ACOH    O210686   6.571   9.859   2.062 -0.0261 -0.0882 -0.3844
  224ACOH    C210687   6.646   9.833   1.949  0.4741 -0.2914 -0.2912
  224ACOH    O110688   6.684   9.719   1.933  0.0490 -0.0681  0.0548
  224ACOH    C110689   6.637   9.936   1.844 -0.2810  0.0206  0.2080
  224ACOH    H110690   6.696   9.918   1.754  0.6970 -0.4512  0.9265
  224ACOH    H210691   6.671  10.026   1.895  2.1605 -1.0927  0.6182
  224ACOH    H310692   6.538   9.951   1.802  0.8310  3.6608 -1.3187
  225ACOH    H410693   4.990   7.529   1.298  0.8501  1.2923 -2.9161
  225ACOH    O210694   4.987   7.446   1.248  0.5375 -0.0813 -0.6840
  225ACOH    C210695   4.856   7.426   1.223  0.0702  0.4809 -0.2345
  225ACOH    O110696   4.760   7.477   1.283 -0.0228 -0.3248 -0.2347
  225ACOH    C110697   4.835   7.307   1.141  0.2521  0.6614 -0.4189
  225ACOH    H110698   4.730   7.298   1.112  0.3772  1.0044 -0.9953
  225ACOH    H210699   4.856   7.221   1.204 -2.4474 -1.0839 -1.8160
  225ACOH    H310700   4.913   7.301   1.065  0.1316 -2.2220 -0.3396
  226ACOH    H410701   7.915   2.056   0.105 -1.5640 -1.9652 -3.6237
  226ACOH    O210702   7.999   2.009   0.088  0.2299 -0.1750 -0.3116
  226ACOH    C210703   7.979   1.887   0.131 -1.2633 -0.2591  0.4754
  226ACOH    O110704   7.904   1.852   0.218  0.2313 -0.1709 -0.0254
  226ACOH    C110705   8.076   1.797   0.070  0.0903  0.5248  0.5324
  226ACOH    H110706   8.033   1.709   0.024 -1.5890  1.2225  0.7234
  226ACOH    H210707   8.152   1.763   0.140 -1.0537 -0.4141  1.3165
  226ACOH    H310708   8.125   1.843  -0.017  0.1179  0.6433  0.6104
  227ACOH    H410709   4.431   4.627   1.233  1.9826  0.0802 -0.7744
  227ACOH    O210710   4.463   4.654   1.320  0.2689  0.6895 -0.3271
  227ACOH    C210711   4.514   4.543   1.375 -0.3683  0.5490 -0.0275
  227ACOH    O110712   4.528   4.434   1.320 -0.2965 -0.6012  0.1405
  227ACOH    C110713   4.559   4.572   1.517 -0.1960  0.2411 -0.8991
  227ACOH    H110714   4.632   4.653   1.513 -1.6325  1.8104  2.7827
  227ACOH    H210715   4.604   4.485   1.565  0.5594  0.6116 -0.9270
  227ACOH    H310716   4.471   4.604   1.573  0.1344  0.1901 -0.3420
  228ACOH    H410717   2.634   1.334   0.368  0.6153  0.6222 -0.0052
  228ACOH    O210718   2.645   1.312   0.462 -0.2706 -0.9586 -0.2419
  228ACOH    C210719   2.584   1.197   0.491 -0.4734  0.6292 -0.0964
  228ACOH    O110720   2.530   1.111   0.423 -0.3335 -0.1945 -0.1176
  228ACOH    C110721   2.572   1.176   0.638  0.1754  0.7039  0.1125
  228ACOH    H110722   2.470   1.204   0.663 -0.4254  1.1442 -2.7355
  228ACOH    H210723   2.648   1.226   0.699 -0.6335  1.8440  0.1969
  228ACOH    H310724   2.574   1.073   0.675  0.7669  1.2252  1.5870
  229ACOH    H410725   5.208   1.881   1.570 -0.5744  0.2602  0.0832
  229ACOH    O210726   5.287   1.871   1.627 -0.3340 -0.1362 -0.3167
  229ACOH    C210727   5.273   1.956   1.732  0.0192  0.6683 -0.4383
  229ACOH    O110728   5.193   2.040   1.764 -0.6220 -0.2967  0.2055
  229ACOH    C110729   5.369   1.922   1.844 -0.1347 -0.5524 -0.0192
  229ACOH    H110730   5.458   1.868   1.813 -0.5174 -1.1529 -0.0898
  229ACOH    H210731   5.319   1.863   1.921  0.6084  0.7150  1.4395
  229ACOH    H310732   5.404   2.009   1.898 -1.3044  0.1152 -0.3297
  230ACOH    H410733   0.248   0.200   0.762  1.0392  1.1557 -1.4611
  230ACOH    O210734   0.167   0.237   0.800  0.7718 -0.3777 -0.5077
  230ACOH    C210735   0.122   0.326   0.710 -0.8125  0.2478 -0.5561
  230ACOH    O110736   0.166   0.350   0.599 -0.0379  0.5607  0.1753
  230ACOH    C110737   0.006   0.404   0.751  0.2293  0.2701 -0.0055
  230ACOH    H110738  -0.071   0.388   0.676  1.4414 -1.6451 -0.8831
  230ACOH    H210739   0.030   0.510   0.748  1.4780  0.0559  1.3730
  230ACOH    H310740  -0.033   0.385   0.851 -1.0425  1.9244 -0.1639
  231ACOH    H410741   3.401   1.132   0.900  0.0824 -0.5671 -0.2335
  231ACOH    O210742   3.339   1.087   0.961  0.0253 -0.1513  0.0170
  231ACOH    C210743   3.356   0.958   0.958  0.5149 -0.3116 -0.1547
  231ACOH    O110744   3.416   0.892   0.878  0.0960  0.0733  0.1883
  231ACOH    C110745   3.263   0.892   1.051  0.0367  0.1572  0.5809
  231ACOH    H110746   3.163   0.918   1.017  1.2496  0.5995 -2.8667
  231ACOH    H210747   3.302   0.913   1.151  1.3295  0.5122  0.0122
  231ACOH    H310748   3.281   0.785   1.045 -0.8813  0.0569 -0.4126
  232ACOH    H410749   5.370   3.641   0.424  0.3660  0.0908 -2.2058
  232ACOH    O210750   5.460   3.603   0.419  0.5413  0.1296  0.0697
  232ACOH    C210751   5.509   3.555   0.534 -0.0295  0.3432 -0.1221
  232ACOH    O110752   5.469   3.597   0.637 -0.3467  0.6013  0.5954
  232ACOH    C110753   5.619   3.455   0.511 -0.6963  0.1944 -0.5538
  232ACOH    H110754   5.607   3.370   0.578  2.4122  0.7633  0.8237
  232ACOH    H210755   5.712   3.506   0.538  0.0225 -0.4896 -1.7094
  232ACOH    H310756   5.613   3.425   0.407  1.7647  1.0733 -0.9951
  233ACOH    H410757   6.345   7.953   2.800 -0.0806  0.1861  1.7503
  233ACOH    O210758   6.320   7.859   2.793  0.0785  0.2325  0.3999
  233ACOH    C210759   6.244   7.837   2.679  0.1120 -0.0297  0.5277
  233ACOH    O110760   6.187   7.932   2.620 -0.1679  0.6620 -0.9260
  233ACOH    C110761   6.243   7.690   2.646  0.2720 -0.1897 -0.4490
  233ACOH    H110762   6.243   7.621   2.730  0.7055 -2.7536 -2.4671
  233ACOH    H210763   6.330   7.669   2.584  1.8666  3.3880  0.4494
  233ACOH    H310764   6.156   7.673   2.582 -0.7737 -1.1422  1.1876
  234ACOH    H410765   4.466   4.046   2.524 -0.2717  0.4201  0.3478
  234ACOH    O210766   4.549   4.028   2.571 -0.5161  0.3411  0.7621
  234ACOH    C210767   4.588   3.905   2.531  0.8983  0.3236  0.3016
  234ACOH    O110768   4.548   3.839   2.434  0.0879  0.4143 -0.8577
  234ACOH    C110769   4.684   3.849   2.637 -0.3981 -0.1801  0.3978
  234ACOH    H110770   4.747   3.916   2.695 -0.6033  0.0235  0.3832
  234ACOH    H210771   4.755   3.784   2.586 -0.0539  0.1193  0.4953
  234ACOH    H310772   4.621   3.792   2.707 -2.8505  1.5512 -0.3098
  235ACOH    H410773   8.035   8.627   0.631 -1.6344  1.1795  3.5107
  235ACOH    O210774   8.060   8.537   0.655  0.5786  0.8200  0.1401
  235ACOH    C210775   7.946   8.469   0.673  0.2197 -0.1518 -0.3369
  235ACOH    O110776   7.833   8.507   0.661 -0.5131 -0.1357  0.3080
  235ACOH    C110777   7.986   8.327   0.703  0.4045 -0.3179 -1.0606
  235ACOH    H110778   8.049   8.286   0.624  0.6944 -0.2013 -0.8879
  235ACOH    H210779   7.890   8.276   0.715 -0.1440  0.8252 -0.5514
  235ACOH    H310780   8.043   8.327   0.796  0.5390 -0.4428 -1.1424
  236ACOH    H410781   8.535   4.539   1.680  0.9263 -1.4417 -1.5504
  236ACOH    O210782   8.458   4.553   1.623 -0.2072 -0.4556  0.1783
  236ACOH    C210783   8.484   4.665   1.559 -0.4709  0.2357 -0.1707
  236ACOH    O110784   8.578   4.741   1.568 -0.0582  0.4034 -0.2667
  236ACOH    C110785   8.370   4.695   1.474  0.1499 -0.0777 -0.3673
  236ACOH    H110786   8.355   4.601   1.423 -0.0991 -0.1276 -0.2006
  236ACOH    H210787   8.383   4.785   1.414  1.4466  0.8154  1.1867
  236ACOH    H310788   8.279   4.712   1.532  0.9591 -1.0552  1.2115
  237ACOH    H410789   9.745   5.344   2.118  0.8937  1.6858 -0.4306
  237ACOH    O210790   9.665   5.397   2.098 -0.4173  0.1153  0.4900
  237ACOH    C210791   9.572   5.366   2.191 -0.2868  0.0897 -0.7324
  237ACOH    O110792   9.589   5.276   2.270  0.0496  0.7543  0.0866
  237ACOH    C110793   9.464   5.470   2.208 -0.0492  0.3152  0.0716
  237ACOH    H110794   9.436   5.480   2.312  0.8639  1.8307  0.1865
  237ACOH    H210795   9.376   5.449   2.148 -0.9764  1.3607  1.0494
  237ACOH    H310796   9.492   5.572   2.180  0.9096  0.2918  0.9492
  238ACOH    H410797   8.313   5.158   3.074  0.1671 -0.3300  0.3127
  238ACOH    O210798   8.284   5.122   2.989 -0.3048  0.1494  0.2666
  238ACOH    C210799   8.289   5.228   2.903 -0.4574 -0.8922 -0.8269
  238ACOH    O110800   8.286   5.346   2.936 -0.0773  0.4629 -0.3238
  238ACOH    C110801   8.272   5.185   2.765  0.2572 -0.2811  0.2039
  238ACOH    H110802   8.373   5.156   2.738  0.3000 -1.1892  1.2672
  238ACOH    H210803   8.238   5.268   2.703  0.0970 -2.4403 -2.6548
  238ACOH    H310804   8.201   5.103   2.751  1.3969 -1.0406 -1.2398
  239ACOH    H410805   2.877   7.679   2.991  1.2186  0.7544  0.5174
  239ACOH    O210806   2.887   7.758   2.936  0.3008  0.2676 -0.3470
  239ACOH    C210807   2.958   7.843   3.006  0.4615 -0.9284 -0.1693
  239ACOH    O110808   2.988   7.850   3.126 -0.0789  0.3380  0.2063
  239ACOH    C110809   2.943   7.966   2.916 -0.3651 -0.0505  0.0589
  239ACOH    H110810   2.902   8.041   2.984 -0.0631 -1.1691  1.5204
  239ACOH    H210811   2.879   7.944   2.831 -0.8338  0.5415  0.2553
  239ACOH    H310812   3.044   7.995   2.889 -0.2837 -0.4429 -0.0637
  240ACOH    H410813   1.928   7.952   0.482  0.6879  2.5863  1.4594
  240ACOH    O210814   1.936   7.918   0.573  0.3801 -0.5687  0.3614
  240ACOH    C210815   2.060   7.874   0.584  0.5676 -0.1342  0.1343
  240ACOH    O110816   2.159   7.875   0.513  0.1683  0.0594 -0.2840
  240ACOH    C110817   2.084   7.819   0.720  0.2219 -0.1191  0.0892
  240ACOH    H110818   1.989   7.808   0.774 -1.1226 -1.3349 -2.4537
  240ACOH    H210819   2.134   7.892   0.784 -0.7167 -1.1086  1.9839
  240ACOH    H310820   2.139   7.725   0.713 -0.6984 -0.7012  0.4785
  241ACOH    H410821   5.300   2.907   1.790  0.7043  0.9036  1.0638
  241ACOH    O210822   5.376   2.908   1.729  0.1066  0.0051  0.2834
  241ACOH    C210823   5.325   2.850   1.614 -0.3734  0.1503 -0.1205
  241ACOH    O110824   5.224   2.784   1.603 -0.2472 -0.1082 -0.1373
  241ACOH    C110825   5.432   2.846   1.510  0.2041 -0.0115 -0.5027
  241ACOH    H110826   5.413   2.764   1.440 -0.8661 -1.9068  1.9258
  241ACOH    H210827   5.523   2.818   1.562 -0.0368  0.7933  0.3635
  241ACOH    H310828   5.443   2.946   1.467 -1.5920  1.0038  1.2858
  242ACOH    H410829   7.726   8.418   1.259 -1.3851 -0.0971 -0.9668
  242ACOH    O210830   7.686   8.345   1.309 -0.5045  0.0927  0.0200
  242ACOH    C210831   7.770   8.240   1.304 -0.1011 -0.4412  1.1839
  242ACOH    O110832   7.889   8.239   1.270  0.2957 -0.7940  0.5852
  242ACOH    C110833   7.714   8.127   1.384  0.4715 -0.6109 -0.1857
  242ACOH    H110834   7.780   8.041   1.376 -0.9709 -1.5730 -2.2708
  242ACOH    H210835   7.617   8.111   1.337  0.6945 -2.7821  0.0752
  242ACOH    H310836   7.711   8.154   1.489 -0.1985  0.5780 -0.4952
  243ACOH    H410837   0.975   9.033   2.774  0.1518 -0.0536 -0.6967
  243ACOH    O210838   0.930   9.004   2.693 -0.1713 -0.5856 -0.3288
  243ACOH    C210839   0.797   9.015   2.709 -0.0135  0.4045 -0.3360
  243ACOH    O110840   0.735   8.997   2.809 -0.1399 -0.4822  0.4944
  243ACOH    C110841   0.737   9.021   2.577 -0.2761  0.0949 -0.0993
  243ACOH    H110842   0.813   9.045   2.502  0.0609  1.0589  0.5407
  243ACOH    H210843   0.667   9.105   2.575 -0.7137 -0.2605  0.3379
  243ACOH    H310844   0.691   8.925   2.553  0.4758 -0.0756 -0.9163
  244ACOH    H410845   7.621   0.682   0.799 -0.0862  0.0369 -0.2699
  244ACOH    O210846   7.534   0.654   0.833 -0.1958  0.7891  0.0889
  244ACOH    C210847   7.445   0.754   0.810  0.1137  0.3982  0.1879
  244ACOH    O110848   7.467   0.864   0.772 -0.1760  0.3802 -0.3150
  244ACOH    C110849   7.320   0.725   0.893 -0.4496 -0.3562 -0.6064
  244ACOH    H110850   7.258   0.644   0.854 -2.1660 -0.0468  1.4389
  244ACOH    H210851   7.263   0.816   0.908 -1.0056 -0.2312 -3.2353
  244ACOH    H310852   7.345   0.694   0.994 -1.3778 -1.6360 -0.7456
  245ACOH    H410853   5.111   2.455   0.987  1.7191 -1.1974 -0.0545
  245ACOH    O210854   5.124   2.487   0.896 -0.1239  0.3037  0.1780
  245ACOH    C210855   5.021   2.563   0.858 -0.0399 -0.8877 -0.2471
  245ACOH    O110856   4.924   2.590   0.930  0.2415 -0.0000  0.6875
  245ACOH    C110857   5.021   2.576   0.711 -0.1097  0.1935 -0.1669
  245ACOH    H110858   4.946   2.511   0.665 -0.6966 -1.2299  2.6557
  245ACOH    H210859   5.122   2.557   0.675  0.0694  0.4075  0.2142
  245ACOH    H310860   4.993   2.677   0.679  0.3790  0.7149  1.0227
  246ACOH    H410861   4.860   7.636   3.124  0.1503 -0.0522 -1.3973
  246ACOH    O210862   4.952   7.603   3.127 -0.0952 -0.6170  0.2497
  246ACOH    C210863   4.988   7.526   3.022 -0.2205 -0.1820 -0.2970
  246ACOH    O110864   4.915   7.489   2.929  0.1162 -0.2681 -0.8818
  246ACOH    C110865   5.131   7.489   3.042  0.8353 -1.2387  0.7609
  246ACOH    H110866   5.194   7.578   3.040  0.1946 -0.7914 -0.5590
  246ACOH    H210867   5.164   7.416   2.968 -0.8798  0.1890 -1.5017
  246ACOH    H310868   5.140   7.439   3.138  0.5393 -0.4053  1.2285
  247ACOH    H410869   4.917   3.867   0.508  0.7819  0.0993  0.4876
  247ACOH    O210870   4.940   3.882   0.414 -0.1094  0.0287  0.2572
  247ACOH    C210871   4.825   3.888   0.342  0.0909  0.2963 -0.0911
  247ACOH    O110872   4.711   3.887   0.391  0.4189 -0.2361  0.0254
  247ACOH    C110873   4.845   3.874   0.193  0.0747  0.6764 -0.4645
  247ACOH    H110874   4.749   3.892   0.145 -0.4119  0.5426  0.4402
  247ACOH    H210875   4.891   3.780   0.164  1.7012  0.8743  1.3147
  247ACOH    H310876   4.910   3.958   0.167  2.7426 -0.8644  1.0052
  248ACOH    H410877   4.637   5.221   1.866  0.0920 -0.1795 -0.0677
  248ACOH    O210878   4.734   5.223   1.873  0.0868  0.4935 -0.1962
  248ACOH    C210879   4.756   5.096   1.911  0.2620 -0.4855  0.1324
  248ACOH    O110880   4.685   4.998   1.935 -0.6252 -0.0300 -0.7863
  248ACOH    C110881   4.901   5.084   1.934  0.2114 -0.0481 -0.2436
  248ACOH    H110882   4.956   5.178   1.920 -2.1294  1.6853  1.8337
  248ACOH    H210883   4.956   5.015   1.869  0.8232 -1.6225  1.8938
  248ACOH    H310884   4.916   5.053   2.037  2.2880  0.8914 -0.2389
  249ACOH    H410885   5.082   8.307   0.965 -0.6999  1.5769  3.5391
  249ACOH    O210886   5.178   8.308   0.977 -0.1434 -0.0798 -0.1868
  249ACOH    C210887   5.206   8.220   1.073 -0.2124  0.1448 -0.1072
  249ACOH    O110888   5.148   8.117   1.101  0.1390  0.4580 -0.2832
  249ACOH    C110889   5.354   8.216   1.088  0.0592 -0.2075 -0.4393
  249ACOH    H110890   5.394   8.167   1.177  1.3550 -2.3107 -2.1241
  249ACOH    H210891   5.391   8.318   1.076 -0.4159  0.2956  2.0576
  249ACOH    H310892   5.392   8.153   1.008 -1.5279  1.3590 -2.4724
  250ACOH    H410893   3.653   6.749   0.445  0.4152  0.6369 -2.0011
  250ACOH    O210894   3.747   6.732   0.461 -0.0839 -0.1738  0.2080
  250ACOH    C210895   3.785   6.601   0.425  0.5074 -0.1894 -0.0955
  250ACOH    O110896   3.710   6.521   0.372 -0.2496  0.0350  0.4154
  250ACOH    C110897   3.930   6.580   0.461  0.0613  0.5795  0.7855
  250ACOH    H110898   3.977   6.675   0.435 -0.2193  0.9492  1.6171
  250ACOH    H210899   3.970   6.497   0.402  1.6204  2.2204 -0.5198
  250ACOH    H310900   3.946   6.565   0.568 -1.2756  1.6391  1.1372
  251ACOH    H410901   4.080   4.123   1.960 -0.8065 -0.1516  0.6399
  251ACOH    O210902   4.085   4.200   2.020 -0.3451  0.1261  0.2441
  251ACOH    C210903   4.161   4.157   2.121 -0.6468 -0.4845 -0.1227
  251ACOH    O110904   4.195   4.041   2.143 -0.5598 -0.6518  0.5592
  251ACOH    C110905   4.190   4.261   2.220 -0.2209 -0.4603 -0.1222
  251ACOH    H110906   4.262   4.224   2.294  1.4591 -0.3975 -1.6873
  251ACOH    H210907   4.100   4.297   2.271 -0.9901 -2.2113 -0.2053
  251ACOH    H310908   4.241   4.344   2.172 -1.7125 -0.0860 -1.0867
  252ACOH    H410909   4.447   7.567   3.164  1.6886 -0.5797  0.2136
  252ACOH    O210910   4.453   7.660   3.189 -0.7582 -0.2529 -0.2403
  252ACOH    C210911   4.567   7.705   3.139  0.3716  0.0383  0.3910
  252ACOH    O110912   4.666   7.638   3.122  0.2845 -0.0768 -0.2263
  252ACOH    C110913   4.573   7.849   3.156 -0.2836 -0.8105  0.6069
  252ACOH    H110914   4.617   7.874   3.253  2.6423 -0.1785 -0.8305
  252ACOH    H210915   4.477   7.896   3.133  0.0125 -0.6683 -0.3276
  252ACOH    H310916   4.642   7.891   3.083  0.6168 -1.2269  1.2042
  253ACOH    H410917   7.904   2.015   0.667 -0.7937  3.8092 -2.4873
  253ACOH    O210918   7.918   2.070   0.746  0.3919 -0.2986  0.3431
  253ACOH    C210919   7.840   2.177   0.721 -0.2335  0.5214  0.7055
  253ACOH    O110920   7.804   2.211   0.609 -0.0991  0.3606  0.4794
  253ACOH    C110921   7.819   2.263   0.839  0.3712  0.5743  1.1467
  253ACOH    H110922   7.861   2.360   0.816  0.9308 -0.1811 -1.1108
  253ACOH    H210923   7.861   2.220   0.930  0.4358 -0.3236  0.7049
  253ACOH    H310924   7.714   2.281   0.862 -0.3253 -2.1862  0.3634
  254ACOH    H410925   5.221   2.596   1.229 -0.1033  1.1614 -0.3526
  254ACOH    O210926   5.307   2.639   1.218  0.4119  0.2739  0.1231
  254ACOH    C210927   5.376   2.566   1.130 -0.2536 -0.1167 -0.0747
  254ACOH    O110928   5.348   2.456   1.083 -0.2515 -0.3440 -0.5453
  254ACOH    C110929   5.505   2.637   1.100 -0.5809  0.3924  0.3928
  254ACOH    H110930   5.469   2.727   1.050 -1.7182 -0.9755 -1.2939
  254ACOH    H210931   5.577   2.582   1.040 -1.5022 -0.1434 -0.2355
  254ACOH    H310932   5.547   2.666   1.196  0.4555  0.1835  0.0059
  255ACOH    H410933   5.735   9.768   2.850  0.8494  1.6840 -0.8495
  255ACOH    O210934   5.825   9.759   2.884  0.3785  0.0704  0.0191
  255ACOH    C210935   5.874   9.640   2.843  0.5042  0.5931  0.0707
  255ACOH    O110936   5.817   9.563   2.770 -0.0899  0.0297  0.3360
  255ACOH    C110937   6.007   9.616   2.898  0.6441  0.0872  0.4136
  255ACOH    H110938   6.030   9.509   2.895  1.8131  0.3457 -0.0915
  255ACOH    H210939   6.011   9.658   2.998 -0.7482 -1.0101  0.9597
  255ACOH    H310940   6.076   9.671   2.834 -0.0295 -0.3020 -0.6575
  256ACOH    H410941   8.140   9.612   1.275  1.8836 -0.5684 -0.1553
  256ACOH    O210942   8.125   9.582   1.184 -0.4975 -0.3715  0.1537
  256ACOH    C210943   8.222   9.495   1.154  0.9424 -0.0196 -0.0996
  256ACOH    O110944   8.314   9.455   1.220  0.6121 -0.3600 -0.2520
  256ACOH    C110945   8.231   9.493   1.002 -0.3367 -0.5984  0.0258
  256ACOH    H110946   8.334   9.468   0.974  0.4140  1.9240  0.3976
  256ACOH    H210947   8.199   9.587   0.958  0.3643 -0.0861  0.5807
  256ACOH    H310948   8.162   9.418   0.964 -0.7479 -0.7815  1.0966
  257ACOH    H410949   7.557   0.539   2.620 -3.3772 -0.8711  2.3238
  257ACOH    O210950   7.583   0.619   2.669 -0.3590 -0.4779  0.1947
  257ACOH    C210951   7.676   0.678   2.587  0.3446  0.4612 -0.3192
  257ACOH    O110952   7.764   0.616   2.533 -0.0503 -0.2105 -0.0646
  257ACOH    C110953   7.698   0.820   2.626 -0.3589 -0.5714 -0.1753
  257ACOH    H110954   7.767   0.882   2.568 -0.3755 -0.8524 -0.4964
  257ACOH    H210955   7.731   0.814   2.729 -3.2445  1.7855  0.9495
  257ACOH    H310956   7.600   0.866   2.631 -0.4825 -0.9610  1.1579
  258ACOH    H410957   5.165   0.634   1.899  1.2805 -1.5077 -0.1335
  258ACOH    O210958   5.151   0.648   1.804 -0.3300 -0.1114  0.2772
  258ACOH    C210959   5.122   0.778   1.784 -0.2350  0.3158 -0.0429
  258ACOH    O110960   5.075   0.809   1.678 -0.2534  0.0208 -0.2342
  258ACOH    C110961   5.150   0.870   1.897 -0.3377 -0.2184 -0.1510
  258ACOH    H110962   5.082   0.838   1.976  0.3889 -3.0367 -0.6056
  258ACOH    H210963   5.135   0.975   1.874 -1.0231 -0.3961 -0.5326
  258ACOH    H310964   5.245   0.869   1.951 -0.5443  0.1022  0.2232
  259ACOH    H410965   7.278   0.271   2.793  1.2169  0.2220 -0.4401
  259ACOH    O210966   7.278   0.255   2.697  0.1073 -0.5573 -0.3237
  259ACOH    C210967   7.153   0.264   2.655 -0.4915  0.1512 -0.0827
  259ACOH    O110968   7.054   0.299   2.714  0.2960 -0.4346 -0.2182
  259ACOH    C110969   7.151   0.247   2.502  0.1771 -0.2766 -0.0653
  259ACOH    H110970   7.094   0.159   2.473  0.3740 -0.2475 -0.5447
  259ACOH    H210971   7.254   0.254   2.466 -0.2769 -0.5623 -1.4445
  259ACOH    H310972   7.088   0.326   2.462 -0.8579 -1.4286 -0.7347
  260ACOH    H410973   5.166   7.931   1.793  1.0334  0.0028  0.7699
  260ACOH    O210974   5.121   7.881   1.863  0.5916  0.0224  0.5016
  260ACOH    C210975   5.050   7.787   1.806 -0.2168 -0.5894  0.3720
  260ACOH    O110976   5.017   7.790   1.685 -0.2381 -0.4192 -0.0319
  260ACOH    C110977   4.996   7.681   1.903 -0.4889 -0.2479 -0.1382
  260ACOH    H110978   5.018   7.726   2.000  0.1538  0.2253 -0.4957
  260ACOH    H210979   5.064   7.597   1.887 -0.2024  0.1870 -1.2793
  260ACOH    H310980   4.894   7.648   1.888 -1.6165  2.6645  0.7018
  261ACOH    H410981   8.286   4.823   3.021  0.9301  0.5649  2.0908
  261ACOH    O210982   8.195   4.813   3.054  0.3135 -0.1753  0.2159
  261ACOH    C210983   8.141   4.696   3.020  0.4719 -0.0718 -0.0447
  261ACOH    O110984   8.200   4.590   3.031  0.2454 -0.0241  0.4353
  261ACOH    C110985   7.991   4.697   3.011 -0.5794 -0.0368 -0.1554
  261ACOH    H110986   7.963   4.774   3.082 -0.1747 -0.8838  0.9349
  261ACOH    H210987   7.962   4.599   3.049 -0.2324 -0.6361 -1.3771
  261ACOH    H310988   7.936   4.715   2.918 -1.2025  0.0779  0.2341
  262ACOH    H410989   5.588   9.057   3.074 -0.4164  1.6897 -0.4678
  262ACOH    O210990   5.670   9.085   3.030  0.7272 -0.8450 -0.0211
  262ACOH    C210991   5.725   9.193   3.086 -0.1362 -0.9836  0.5465
  262ACOH    O110992   5.659   9.273   3.151  0.3201 -0.2050  0.2473
  262ACOH    C110993   5.856   9.225   3.015  0.0460 -0.0111  0.3294
  262ACOH    H110994   5.932   9.147   3.014 -0.0516 -0.1293  1.2075
  262ACOH    H210995   5.898   9.316   3.057 -0.4333 -0.0320  0.8710
  262ACOH    H310996   5.835   9.251   2.912  0.0064 -1.4652 -0.0386
  263ACOH    H410997   9.423   4.800   3.197 -1.7345 -0.3826 -2.5063
  263ACOH    O210998   9.371   4.879   3.217  0.5808  0.5071  0.3192
  263ACOH    C210999   9.280   4.873   3.121 -1.2171 -0.0319 -0.2372
  263ACOH    O111000   9.253   4.786   3.039  0.1075 -0.3326 -0.1757
  263ACOH    C111001   9.198   4.996   3.127  0.0976  0.2577 -0.0430
  263ACOH    H111002   9.093   4.978   3.106 -0.0330  0.9499  0.0027
  263ACOH    H211003   9.236   5.066   3.052  1.1362 -0.2863 -0.0420
  263ACOH    H311004   9.199   5.045   3.224  0.2228 -0.6206  0.3954
  264ACOH    H411005   3.964   6.353   2.981 -0.5174 -2.8602 -0.2305
  264ACOH    O211006   4.059   6.370   2.988 -0.9028 -0.6510 -0.0929
  264ACOH    C211007   4.114   6.258   3.033 -0.2946 -0.3877  0.5961
  264ACOH    O111008   4.061   6.150   3.031  0.2257 -0.0157 -0.6212
  264ACOH    C111009   4.262   6.276   3.055 -0.3634 -0.2298 -0.5443
  264ACOH    H111010   4.277   6.383   3.065 -1.6273 -0.0942  0.0279
  264ACOH    H211011   4.318   6.245   2.967 -0.3224 -1.8614  0.0391
  264ACOH    H311012   4.287   6.227   3.149 -2.6477 -0.4794 -0.0325
  265ACOH    H411013   7.544   1.718   0.911 -0.4588 -0.5856 -0.3914
  265ACOH    O211014   7.477   1.788   0.918 -0.1118 -0.3113  0.2211
  265ACOH    C211015   7.528   1.901   0.853  0.3024 -0.0135  1.3530
  265ACOH    O111016   7.645   1.907   0.815  0.3947 -0.0675 -0.6286
  265ACOH    C111017   7.439   2.025   0.850  0.0337  0.2064  0.5454
  265ACOH    H111018   7.476   2.099   0.920 -0.3760 -1.1474  2.2119
  265ACOH    H211019   7.334   1.998   0.865  0.7614 -2.0679  1.7894
  265ACOH    H311020   7.447   2.065   0.749 -2.0528 -0.6355  0.0125
  266ACOH    H411021   7.636   1.091   1.433  0.5830  0.4818  0.1130
  266ACOH    O211022   7.603   1.104   1.342  0.1462  0.3463  0.2530
  266ACOH    C211023   7.632   0.995   1.267 -0.2107 -0.3347 -0.6376
  266ACOH    O111024   7.659   0.883   1.302 -0.4639  0.3082 -0.6584
  266ACOH    C111025   7.606   1.041   1.135 -0.5941  0.3884  0.4790
  266ACOH    H111026   7.572   0.959   1.071 -0.0894 -0.1851  0.9352
  266ACOH    H211027   7.699   1.083   1.099 -0.9124 -0.7384 -1.7449
  266ACOH    H311028   7.523   1.111   1.128  0.5146  1.6572 -0.1347
  267ACOH    H411029   5.179   2.139   1.285  0.3169  2.3005  0.5039
  267ACOH    O211030   5.093   2.126   1.328 -0.1309 -0.2148 -1.0637
  267ACOH    C211031   5.091   2.213   1.434 -0.4594  0.6563 -1.0275
  267ACOH    O111032   5.192   2.250   1.495  0.4813  0.5490 -0.2547
  267ACOH    C111033   4.957   2.254   1.481  0.1937 -0.1741 -0.2321
  267ACOH    H111034   4.914   2.173   1.540 -0.7310 -0.2408 -0.9893
  267ACOH    H211035   4.901   2.260   1.388 -2.5005  3.0888  1.5052
  267ACOH    H311036   4.960   2.349   1.534  0.6355  0.8079 -1.9804
  268ACOH    H411037   8.292   3.774   1.660  0.3803 -1.9124 -0.6608
  268ACOH    O211038   8.224   3.722   1.706 -0.4591  0.2507  0.6422
  268ACOH    C211039   8.286   3.667   1.811 -0.3954 -0.4427  0.0035
  268ACOH    O111040   8.398   3.687   1.846  0.1465 -0.3632  0.0894
  268ACOH    C111041   8.200   3.587   1.900  0.5177  0.1814  0.0604
  268ACOH    H111042   8.120   3.536   1.847 -0.9796  2.1340  0.3825
  268ACOH    H211043   8.157   3.653   1.976  2.1045 -0.0809  1.2248
  268ACOH    H311044   8.267   3.513   1.943  2.1001  0.7166 -1.4051
  269ACOH    H411045   4.905   8.535   0.731  0.4296 -0.5002 -1.7226
  269ACOH    O211046   4.917   8.622   0.690  0.1272  0.3615 -0.0449
  269ACOH    C211047   5.038   8.615   0.621  0.0933 -0.5718  0.4683
  269ACOH    O111048   5.084   8.510   0.580 -0.7266  0.0586  0.2888
  269ACOH    C111049   5.072   8.752   0.569 -0.4201 -0.7409  0.6138
  269ACOH    H111050   5.181   8.752   0.563 -0.4436  0.8501 -0.1414
  269ACOH    H211051   5.055   8.827   0.647  1.3516  0.8710 -0.5006
  269ACOH    H311052   5.021   8.789   0.480  1.1491 -1.1773 -0.4783
  270ACOH    H411053   4.548   7.639   1.523  3.6210  0.1730 -3.0361
  270ACOH    O211054   4.480   7.594   1.469  0.8677 -0.4010  0.7152
  270ACOH    C211055   4.494   7.462   1.485  0.0366 -0.6377 -0.7010
  270ACOH    O111056   4.407   7.383   1.449 -0.2590 -0.3646  0.7790
  270ACOH    C111057   4.593   7.415   1.586 -0.0560 -0.1947  0.8554
  270ACOH    H111058   4.580   7.465   1.682  1.6065  0.7823  0.6000
  270ACOH    H211059   4.693   7.432   1.545 -0.6084  2.0159  0.3457
  270ACOH    H311060   4.589   7.307   1.594 -3.9086 -0.1632  0.0681
  271ACOH    H411061   8.122   5.749   1.496  0.5275 -0.7433 -1.2659
  271ACOH    O211062   8.072   5.669   1.518  0.2673 -0.2740 -0.1015
  271ACOH    C211063   8.109   5.580   1.420  0.3758  0.1008 -0.5604
  271ACOH    O111064   8.226   5.571   1.375 -0.1232  0.7581  0.0505
  271ACOH    C111065   8.000   5.489   1.382 -0.0580  0.1542 -0.0603
  271ACOH    H111066   8.024   5.441   1.287 -0.5127  2.2042 -1.2507
  271ACOH    H211067   7.908   5.545   1.366  0.4235  0.7463 -0.8351
  271ACOH    H311068   7.994   5.430   1.473  1.2196 -0.5321 -0.4167
  272ACOH    H411069   5.273   0.674   2.141 -0.3853  1.3766 -0.9462
  272ACOH    O211070   5.346   0.731   2.170  0.1035  0.2833  0.0572
  272ACOH    C211071   5.298   0.798   2.274 -0.0858  0.5286  0.0010
  272ACOH    O111072   5.199   0.753   2.332 -0.5810 -0.4359  0.2762
  272ACOH    C111073   5.389   0.907   2.311  0.1105  0.7328  0.2380
  272ACOH    H111074   5.487   0.858   2.312  0.6651  1.7986 -0.3155
  272ACOH    H211075   5.362   0.949   2.408 -2.2081  0.4505 -0.2581
  272ACOH    H311076   5.382   0.983   2.233  0.8879 -1.3880 -1.9770
  273ACOH    H411077   6.038   0.091   3.033 -0.7837  0.3017 -0.3292
  273ACOH    O211078   6.100   0.162   3.055 -0.2065 -0.3200  0.1034
  273ACOH    C211079   6.115   0.184   3.185  0.4777  0.0764 -0.3441
  273ACOH    O111080   6.155   0.290   3.221 -0.2818  0.0490  0.5417
  273ACOH    C111081   6.049   0.084   3.272 -0.2472  0.6798  0.3083
  273ACOH    H111082   6.044  -0.017   3.232  1.0183  1.1545 -1.0794
  273ACOH    H211083   5.945   0.117   3.264 -0.2695  0.6390  0.4399
  273ACOH    H311084   6.091   0.085   3.373 -3.3338  0.9724  1.6470
  274ACOH    H411085   8.480   5.750   2.745 -1.6084 -0.7110 -1.6228
  274ACOH    O211086   8.387   5.753   2.773 -0.9859  0.4300  0.4303
  274ACOH    C211087   8.317   5.670   2.696  0.0203 -0.1337 -0.4284
  274ACOH    O111088   8.367   5.570   2.648  0.0332 -0.4690 -0.0496
  274ACOH    C111089   8.172   5.675   2.728  0.0827  0.5819  0.1962
  274ACOH    H111090   8.122   5.681   2.632 -0.2651 -0.7679  0.2864
  274ACOH    H211091   8.144   5.769   2.775 -1.5320  0.3576 -0.3117
  274ACOH    H311092   8.132   5.594   2.789 -2.4860 -0.3983 -2.6992
  275ACOH    H411093   4.812   9.347   1.249  1.2438 -0.3976 -2.3460
  275ACOH    O211094   4.773   9.261   1.225 -0.5906 -0.2301 -0.1298
  275ACOH    C211095   4.716   9.269   1.106 -0.2964 -0.0812 -0.1437
  275ACOH    O111096   4.714   9.372   1.040 -0.3546  0.3741 -0.2069
  275ACOH    C111097   4.697   9.133   1.045 -0.4129  0.4748  0.7148
  275ACOH    H111098   4.657   9.064   1.119 -1.2363 -0.0895 -0.2470
  275ACOH    H211099   4.796   9.090   1.026 -0.0525  1.2447  0.8152
  275ACOH    H311100   4.633   9.133   0.956 -0.3361  2.1122  0.6525
  276ACOH    H411101   6.947   7.888   2.450  0.8259 -0.4284  1.2631
  276ACOH    O211102   6.867   7.875   2.503  0.0505 -0.0845  0.1816
  276ACOH    C211103   6.757   7.905   2.425 -0.4367  0.6511  0.1872
  276ACOH    O111104   6.748   7.921   2.305  0.3757 -0.3862 -0.3256
  276ACOH    C111105   6.639   7.903   2.511  0.2209 -0.4138  0.1717
  276ACOH    H111106   6.672   7.869   2.609  1.9966 -0.0835 -0.2945
  276ACOH    H211107   6.562   7.838   2.468 -1.2676  1.3299  0.1358
  276ACOH    H311108   6.602   8.006   2.512 -2.1930 -1.2308 -0.6181
  277ACOH    H411109   5.860   8.523   3.162 -0.9010 -0.7856  0.1001
  277ACOH    O211110   5.887   8.565   3.245  0.6475 -0.3984 -0.5830
  277ACOH    C211111   5.919   8.696   3.205 -0.4809 -0.0590  0.4486
  277ACOH    O111112   5.872   8.749   3.111 -0.2498  0.1252 -0.5288
  277ACOH    C111113   5.981   8.766   3.323  0.2665  0.6356  0.1927
  277ACOH    H111114   6.067   8.829   3.303  0.7594  1.3453  4.2499
  277ACOH    H211115   6.009   8.691   3.397  0.4578  0.8896  0.3742
  277ACOH    H311116   5.898   8.829   3.355  0.2350  0.9978 -0.5932
  278ACOH    H411117   6.133   8.966   2.289  0.9002  0.0156  0.4260
  278ACOH    O211118   6.159   9.019   2.212 -0.5373  0.3036  0.1330
  278ACOH    C211119   6.070   8.991   2.108  0.3102 -0.2364 -0.0429
  278ACOH    O111120   6.002   8.890   2.098  0.0287 -0.2952 -0.7089
  278ACOH    C111121   6.098   9.084   2.000  0.2784  0.2144 -0.0173
  278ACOH    H111122   6.107   9.187   2.035 -2.7544  0.2528  0.7301
  278ACOH    H211123   6.019   9.089   1.926 -0.4422  1.2459  0.8092
  278ACOH    H311124   6.190   9.052   1.951 -1.0957 -0.2425 -2.3562
  279ACOH    H411125   5.036   3.356   1.601  0.8070 -0.6126 -2.4010
  279ACOH    O211126   5.110   3.298   1.628  0.1925 -0.4783 -0.3312
  279ACOH    C211127   5.158   3.255   1.510  0.2527 -0.2663 -0.1429
  279ACOH    O111128   5.131   3.295   1.399 -0.4448 -0.3226 -0.1732
  279ACOH    C111129   5.277   3.172   1.540 -0.1090  0.2253  0.0702
  279ACOH    H111130   5.295   3.158   1.646 -1.9743  2.3446  0.7047
  279ACOH    H211131   5.365   3.219   1.497 -0.2453 -1.8837 -2.7034
  279ACOH    H311132   5.271   3.077   1.486  1.5188 -1.2892  2.4851
  280ACOH    H411133   3.736   6.369   2.895  0.5244  1.4293  0.7323
  280ACOH    O211134   3.819   6.333   2.859 -0.1404  0.1748  0.4281
  280ACOH    C211135   3.794   6.230   2.773  0.4011  0.0450 -0.0095
  280ACOH    O111136   3.687   6.187   2.731 -0.2174 -0.0182 -0.0981
  280ACOH    C111137   3.913   6.186   2.698  0.0167 -0.0833  0.0089
  280ACOH    H111138   3.890   6.140   2.602 -0.2866  1.6504 -0.7668
  280ACOH    H211139   3.966   6.108   2.752  0.3077 -0.0257 -0.1861
  280ACOH    H311140   3.975   6.273   2.675 -0.1478 -0.4056 -1.7170
  281ACOH    H411141   0.952   6.324   0.049  0.4715  0.9558 -0.4972
  281ACOH    O211142   0.858   6.342   0.029  0.3761  0.2794 -0.6744
  281ACOH    C211143   0.783   6.248   0.100 -0.2717  0.6598 -0.3002
  281ACOH    O111144   0.824   6.180   0.189  0.3623  0.3827 -0.1787
  281ACOH    C111145   0.640   6.261   0.055  0.4876 -0.0130 -0.3457
  281ACOH    H111146   0.616   6.364   0.028 -0.0988  0.2912  1.2767
  281ACOH    H211147   0.578   6.235   0.141 -2.5396  0.9531 -2.1642
  281ACOH    H311148   0.609   6.199  -0.029  0.4399  0.2937 -0.5567
  282ACOH    H411149   4.947   3.334   0.726 -0.1110  0.9221 -0.1020
  282ACOH    O211150   4.903   3.330   0.640 -0.1283  0.6267 -0.0778
  282ACOH    C211151   4.946   3.435   0.572  0.1249  0.0871 -0.5670
  282ACOH    O111152   5.050   3.496   0.583  0.0346  0.6880  0.1537
  282ACOH    C111153   4.835   3.490   0.487  0.0280 -0.3543  0.2724
  282ACOH    H111154   4.859   3.592   0.457  3.7062 -1.2729 -0.1563
  282ACOH    H211155   4.738   3.486   0.537 -0.4450 -1.0148 -0.6683
  282ACOH    H311156   4.825   3.421   0.403 -2.0080 -0.5764  0.6610
  283ACOH    H411157   4.756   0.867   0.100  1.6592  0.7754 -0.1982
  283ACOH    O211158   4.812   0.787   0.098  0.0761 -0.3752  0.4507
  283ACOH    C211159   4.743   0.698   0.173 -0.3806  0.2678  0.4452
  283ACOH    O111160   4.639   0.722   0.235 -0.3790 -0.2727  0.0332
  283ACOH    C111161   4.811   0.569   0.174  0.0499 -0.3607  0.1134
  283ACOH    H111162   4.905   0.566   0.119  0.0014 -0.2255  0.0245
  283ACOH    H211163   4.747   0.493   0.130  2.0820 -0.3733 -3.0427
  283ACOH    H311164   4.818   0.534   0.277 -0.7949 -0.1791  0.2307
  284ACOH    H411165   4.665   0.951   1.536  1.5559  2.3722 -1.3475
  284ACOH    O211166   4.685   0.902   1.454  0.0888 -0.8080  0.1247
  284ACOH    C211167   4.564   0.841   1.437 -0.1101 -1.0371  0.5348
  284ACOH    O111168   4.462   0.856   1.504 -0.0089 -0.0091  0.4215
  284ACOH    C111169   4.572   0.772   1.306 -0.0306  0.1027 -0.5178
  284ACOH    H111170   4.472   0.765   1.263 -0.1880  2.2027 -0.5642
  284ACOH    H211171   4.612   0.673   1.330  0.8183  0.3644 -0.8365
  284ACOH    H311172   4.642   0.823   1.240 -0.0671  0.6739 -0.1234
  285ACOH    H411173   4.592   7.520   0.927  0.5426 -0.9435 -0.3209
  285ACOH    O211174   4.648   7.498   0.850  0.9193 -0.6102 -0.1406
  285ACOH    C211175   4.773   7.528   0.888  0.2363  0.8158  0.4945
  285ACOH    O111176   4.803   7.606   0.977 -0.5342 -0.1932  0.7008
  285ACOH    C111177   4.882   7.488   0.790 -0.1595  0.0627  0.5983
  285ACOH    H111178   4.858   7.519   0.688 -0.5284  1.4416  1.0961
  285ACOH    H211179   4.888   7.379   0.793 -1.1808 -0.0090  0.2601
  285ACOH    H311180   4.978   7.535   0.812 -0.5075  0.4892  1.2257
  286ACOH    H411181   5.403   1.857   2.190  0.6471  0.5493  1.4112
  286ACOH    O211182   5.372   1.948   2.200 -0.1579  0.4486 -0.0530
  286ACOH    C211183   5.237   1.953   2.203  0.2985 -0.4913 -0.3132
  286ACOH    O111184   5.161   1.866   2.170 -0.1090  0.2912 -0.1196
  286ACOH    C111185   5.195   2.087   2.237 -0.2570 -0.3441  0.6195
  286ACOH    H111186   5.138   2.071   2.328 -0.8463 -1.6217  0.0443
  286ACOH    H211187   5.132   2.128   2.157  2.0408  1.5040 -0.2938
  286ACOH    H311188   5.280   2.149   2.266  0.1628 -0.3839 -0.4776
  287ACOH    H411189   4.139   4.267   3.003 -0.1534  0.5497 -0.1574
  287ACOH    O211190   4.218   4.253   2.949  0.0539 -0.1198  0.3030
  287ACOH    C211191   4.262   4.133   2.992 -0.1533  0.1378  0.6696
  287ACOH    O111192   4.200   4.064   3.072  0.3944 -0.4846 -0.0642
  287ACOH    C111193   4.397   4.110   2.939 -0.0683 -0.5052 -0.3659
  287ACOH    H111194   4.405   4.003   2.916 -0.4028 -0.6130  0.0106
  287ACOH    H211195   4.479   4.146   3.000  0.2843 -0.6278 -0.7631
  287ACOH    H311196   4.397   4.159   2.841  0.1947 -1.2910 -0.7716
  288SOL     OW11197   8.960   1.892   3.335  0.0478 -0.1061 -0.2897
  288SOL    HW111198   8.984   1.961   3.267 -1.4645 -0.6956 -1.4278
  288SOL    HW211199   8.897   1.932   3.402 -1.6880 -0.6560 -1.5626
  289SOL     OW11200   9.638   5.154   3.437  0.2704  0.3292 -0.3457
  289SOL    HW111201   9.539   5.149   3.448  0.0720  0.7228 -1.7797
  289SOL    HW211202   9.659   5.177   3.342  1.7261  0.6971  0.0594
  290SOL     OW11203   9.082   6.116   2.463 -0.1170 -0.0617  0.2354
  290SOL    HW111204   9.043   6.209   2.468  0.7694  0.3557 -0.5586
  290SOL    HW211205   9.179   6.119   2.487 -0.1437 -0.8238  0.4425
  291SOL     OW11206   2.941   5.423   1.323  0.0263  0.2287 -0.2355
  291SOL    HW111207   2.853   5.437   1.368  0.4447 -0.3281  0.7641
  291SOL    HW211208   2.964   5.504   1.269 -0.4394  0.9311  0.6082
  292SOL     OW11209   1.302   8.469   3.038  0.0652  0.2273 -0.5643
  292SOL    HW111210   1.356   8.394   3.077 -0.6326  0.5461  1.0148
  292SOL    HW211211   1.334   8.556   3.075 -0.9182  0.4981 -0.3592
  293SOL     OW11212   7.781   2.452   2.042  0.2732  0.4122  0.6707
  293SOL    HW111213   7.795   2.369   1.988  2.2779  1.2922 -0.2182
  293SOL    HW211214   7.700   2.501   2.007 -0.5946 -0.8752  0.8535
  294SOL     OW11215   1.493   7.736   2.858 -0.2555 -0.6288  0.5915
  294SOL    HW111216   1.555   7.773   2.928  1.6414 -0.4990 -1.1405
  294SOL    HW211217   1.453   7.811   2.806  2.5455 -0.8769 -2.0271
  295SOL     OW11218   9.212   4.271   2.203  0.2211  0.1198  0.0046
  295SOL    HW111219   9.249   4.334   2.272 -1.0797  0.0364  0.7800
  295SOL    HW211220   9.125   4.306   2.169 -0.4897 -1.2564  0.4128
  296SOL     OW11221   9.861   6.394   2.438  0.0348  0.1666 -0.1294
  296SOL    HW111222   9.808   6.311   2.456 -0.6182  0.6748  0.2833
  296SOL    HW211223   9.799   6.472   2.431  0.5760  0.5096 -1.2612
  297SOL     OW11224   9.487   7.731   0.855 -0.0856 -0.3724 -0.3784
  297SOL    HW111225   9.537   7.652   0.820  1.3996 -0.3289  1.4931
  297SOL    HW211226   9.463   7.792   0.780  1.4492 -1.1135 -1.4987
  298SOL     OW11227   9.620   2.851   0.458  0.6529 -0.5505  0.4411
  298SOL    HW111228   9.604   2.926   0.394  1.9395 -0.4700  0.2103
  298SOL    HW211229   9.543   2.787   0.454  1.3411 -1.2577 -2.1744
  299SOL     OW11230   9.263   3.184   1.994 -0.0081 -0.2352 -0.1490
  299SOL    HW111231   9.209   3.218   2.071  0.8435 -0.1733  0.4364
  299SOL    HW211232   9.360   3.198   2.014  0.2822 -1.5538 -0.5964
  300SOL     OW11233   2.226   1.509   0.800  0.2028 -0.1592 -0.1164
  300SOL    HW111234   2.247   1.526   0.704  0.5014 -0.7252 -0.1565
  300SOL    HW211235   2.162   1.432   0.807  0.3524 -0.2618  0.1455
  301SOL     OW11236   2.119   6.180   1.304  0.8563 -0.0151  0.3541
  301SOL    HW111237   2.048   6.197   1.371  2.6805 -2.5156  3.0342
  301SOL    HW211238   2.203   6.228   1.330  0.3064  2.8603 -2.7386
  302SOL     OW11239   7.865   4.358   1.002 -0.0091  0.2119  0.2302
  302SOL    HW111240   7.873   4.337   0.904  0.2514  1.1082  0.0525
  302SOL    HW211241   7.769   4.375   1.025 -0.3463 -2.0225  0.5647
  303SOL     OW11242   8.837   4.823   1.891 -1.1926  0.1049 -0.7916
  303SOL    HW111243   8.885   4.767   1.958 -1.8898  0.2100 -0.2015
  303SOL    HW211244   8.870   4.800   1.799  0.6153  0.7921 -0.3524
  304SOL     OW11245   3.565   6.087   2.505 -0.6490  0.7249  0.1073
  304SOL    HW111246   3.600   5.997   2.479 -2.4656 -0.1136  0.5401
  304SOL    HW211247   3.614   6.119   2.586  0.1058  0.2003 -0.1372
  305SOL     OW11248   4.154   9.798   1.117  0.1630  0.0420 -0.1668
  305SOL    HW111249   4.128   9.744   1.037  0.9045 -0.0961 -0.3196
  305SOL    HW211250   4.175   9.892   1.089 -0.0728  0.1296 -0.0567
  306SOL     OW11251   3.529   3.357   2.598  0.5119  0.3825  0.4836
  306SOL    HW111252   3.513   3.275   2.544  1.1229  0.5294  0.0787
  306SOL    HW211253   3.452   3.421   2.585  1.6680  1.3492 -1.9459
  307SOL     OW11254   8.574   8.614   1.634  0.4316 -0.1229 -0.0828
  307SOL    HW111255   8.510   8.540   1.613  0.5927  0.3120 -2.2366
  307SOL    HW211256   8.525   8.692   1.673 -0.2007 -0.1743 -0.7705
  308SOL     OW11257   4.060   1.076   0.256  0.3793  0.6430  0.3159
  308SOL    HW111258   4.054   1.170   0.224  2.7208  0.9737  0.7621
  308SOL    HW211259   4.151   1.040   0.236 -0.3319 -1.3644  0.5959
  309SOL     OW11260   2.908   3.859   0.751  0.5425  0.4422  0.0324
  309SOL    HW111261   2.984   3.804   0.784  0.0617  0.2859  0.9011
  309SOL    HW211262   2.917   3.873   0.652  0.1649 -2.0319 -0.3948
  310SOL     OW11263   2.589   7.316   2.960  0.4762 -0.3130 -0.4848
  310SOL    HW111264   2.590   7.227   2.916  0.9586 -0.5692  0.0247
  310SOL    HW211265   2.675   7.364   2.940  0.4347 -0.1779 -0.3412
  311SOL     OW11266   2.976   7.586   2.308  0.3418  0.1936 -0.1417
  311SOL    HW111267   3.011   7.522   2.240  1.1247 -0.8822  1.2397
  311SOL    HW211268   2.879   7.603   2.292  0.4719 -0.1894 -1.3916
  312SOL     OW11269   4.065   0.465   1.908  0.1912  0.0920 -0.3261
  312SOL    HW111270   3.989   0.494   1.850 -1.0415 -0.3325  1.0479
  312SOL    HW211271   4.044   0.377   1.950  0.2577  1.2415  2.2079
  313SOL     OW11272   3.757   4.692   3.116 -0.7019 -0.4537 -0.5235
  313SOL    HW111273   3.722   4.602   3.089  0.6640 -2.1029  2.8363
  313SOL    HW211274   3.728   4.712   3.210 -1.2464  2.7882 -1.3424
  314SOL     OW11275   3.180   0.180   1.740  0.1823  0.3084 -0.1531
  314SOL    HW111276   3.193   0.151   1.645  0.8571 -0.0008  0.0278
  314SOL    HW211277   3.240   0.257   1.760  0.5054 -0.0287  0.1994
  315SOL     OW11278   8.291   3.351   0.993 -0.0546  0.3414 -0.3679
  315SOL    HW111279   8.306   3.263   1.038 -0.8489  0.0601 -0.6396
  315SOL    HW211280   8.224   3.404   1.045  1.1887  1.2217  0.3653
  316SOL     OW11281   2.527   1.376   1.432  0.1908  0.0064  0.6896
  316SOL    HW111282   2.528   1.466   1.387  1.8521  0.0538  0.7764
  316SOL    HW211283   2.620   1.353   1.461 -0.2430 -1.7184  0.7361
  317SOL     OW11284   1.843   0.217   0.250 -0.3972 -0.2841 -0.0757
  317SOL    HW111285   1.889   0.208   0.161 -0.3593 -0.6313 -0.0221
  317SOL    HW211286   1.825   0.314   0.269  0.3984 -0.1414 -0.0478
  318SOL     OW11287   6.664   9.230   2.168 -0.0294  0.1839 -0.1885
  318SOL    HW111288   6.650   9.297   2.095  1.4698 -1.2512 -1.8545
  318SOL    HW211289   6.575   9.196   2.199 -0.6964  0.7288 -1.4439
  319SOL     OW11290   1.439   8.905   0.216  0.2797 -0.2846  0.0111
  319SOL    HW111291   1.464   8.812   0.242  0.9887 -0.2732 -0.6232
  319SOL    HW211292   1.493   8.970   0.269 -0.3098 -0.2309  0.5491
  320SOL     OW11293   2.263   0.246   2.919 -0.3061 -0.5635  0.3404
  320SOL    HW111294   2.212   0.293   2.847 -2.9633 -0.2455  2.3472
  320SOL    HW211295   2.204   0.232   2.998  2.4161 -1.2908  2.3325
  321SOL     OW11296   4.495   2.525   0.859  0.0346 -0.1471 -0.0630
  321SOL    HW111297   4.530   2.467   0.932 -0.6033  0.5157  0.7788
  321SOL    HW211298   4.418   2.578   0.893 -0.1664  0.2812 -1.1767
  322SOL     OW11299   9.566   7.203   0.740 -0.3820 -0.3016  0.4490
  322SOL    HW111300   9.652   7.231   0.783 -0.5235 -0.1532  0.6320
  322SOL    HW211301   9.506   7.283   0.730 -0.0912 -0.2031 -0.6124
  323SOL     OW11302   7.371   9.184   0.412  0.0753 -0.1995 -0.5633
  323SOL    HW111303   7.353   9.087   0.425  0.1771 -0.5130 -2.5719
  323SOL    HW211304   7.355   9.233   0.498 -1.0170 -1.8199  0.1805
  324SOL     OW11305   2.852   7.838   1.920 -0.1646 -0.2475  0.0935
  324SOL    HW111306   2.795   7.832   1.838 -1.4314  1.1575  0.8343
  324SOL    HW211307   2.871   7.746   1.954  1.7530 -0.9325 -2.6676
  325SOL     OW11308   8.655   9.792   1.872  0.0684  0.1523 -0.5231
  325SOL    HW111309   8.714   9.718   1.904 -0.7211 -0.3532 -0.2249
  325SOL    HW211310   8.664   9.871   1.933  1.4231  0.5670 -1.2228
  326SOL     OW11311   4.627   3.093   0.979 -0.5749 -0.3336 -0.0519
  326SOL    HW111312   4.603   3.034   0.902 -2.0608 -1.2172  1.0741
  326SOL    HW211313   4.691   3.045   1.039 -1.7373 -0.7865  0.8316
  327SOL     OW11314   9.920   7.913   1.913 -0.2025 -0.1707  0.0688
  327SOL    HW111315   9.871   7.928   1.999 -0.6789 -0.3219 -0.1794
  327SOL    HW211316   9.976   7.993   1.893  1.4847 -0.9298  1.5685
  328SOL     OW11317   1.441   4.680   0.079  0.3238 -0.6892  0.1570
  328SOL    HW111318   1.508   4.607   0.088  0.7487 -0.2434  0.6520
  328SOL    HW211319   1.349   4.642   0.078  0.5996 -1.3580 -1.1164
  329SOL     OW11320   2.226   8.569   0.314  0.2826  0.0424 -0.3424
  329SOL    HW111321   2.177   8.650   0.344  1.3362  0.4329  0.3680
  329SOL    HW211322   2.258   8.581   0.219 -1.1543 -0.3018 -0.8794
  330SOL     OW11323   2.175   0.682   1.874  0.5183 -0.1674  0.1695
  330SOL    HW111324   2.258   0.722   1.835 -0.1119 -0.5407 -1.6330
  330SOL    HW211325   2.193   0.587   1.899  0.4835 -0.4318 -0.7832
  331SOL     OW11326   9.690   9.982   2.701  0.4547 -0.0821  0.7566
  331SOL    HW111327   9.612   9.928   2.733 -0.2537 -0.2161 -1.0931
  331SOL    HW211328   9.659  10.075   2.679  0.8795 -0.0273  0.3848
  332SOL     OW11329   2.342   4.798   1.584  0.2797  0.7189  0.7641
  332SOL    HW111330   2.346   4.898   1.584 -1.4145  0.8042 -0.7249
  332SOL    HW211331   2.399   4.762   1.511  1.2107  0.5550  1.5530
  333SOL     OW11332   8.932   5.764   2.043  0.0374 -0.1275 -0.0441
  333SOL    HW111333   8.930   5.863   2.028 -1.7019 -0.0560  0.4600
  333SOL    HW211334   8.902   5.717   1.960  0.7390 -0.2326 -0.2419
  334SOL     OW11335   7.942   0.335   0.379 -0.3406 -0.1318  0.1003
  334SOL    HW111336   7.845   0.354   0.397 -0.5261 -1.0036  0.0524
  334SOL    HW211337   7.997   0.363   0.457 -0.6760  0.0421  0.2740
  335SOL     OW11338   8.727   8.728   3.101  0.5043  0.0013  0.2550
  335SOL    HW111339   8.664   8.660   3.138 -0.5160  2.0661  2.4465
  335SOL    HW211340   8.819   8.710   3.135  0.2474 -0.3132  0.7944
  336SOL     OW11341   1.810   9.790   0.293  0.1883  0.4238  0.0155
  336SOL    HW111342   1.887   9.805   0.231 -0.3493  3.7677  0.0850
  336SOL    HW211343   1.725   9.781   0.241 -0.0381  1.6237  0.1660
  337SOL     OW11344   1.132   7.200   3.220  0.1144 -0.1417  0.2062
  337SOL    HW111345   1.231   7.202   3.206  0.2942 -0.1780  1.4221
  337SOL    HW211346   1.090   7.277   3.170  0.7184 -0.2609 -0.4983
  338SOL     OW11347   0.769   7.639   1.435 -0.1068  0.8775 -0.3801
  338SOL    HW111348   0.811   7.665   1.521 -2.1696  0.5619  0.7585
  338SOL    HW211349   0.681   7.594   1.453 -0.2662  0.2331 -2.6119
  339SOL     OW11350   3.373   4.015   3.226  0.7003  1.4445 -0.1547
  339SOL    HW111351   3.313   4.060   3.292 -1.0051 -0.4763 -0.3378
  339SOL    HW211352   3.426   3.944   3.273 -0.6985 -0.0974 -0.8451
  340SOL     OW11353   1.604   0.773   2.762 -0.0996  0.6054 -0.5480
  340SOL    HW111354   1.508   0.800   2.752 -0.2031  0.3192 -0.3639
  340SOL    HW211355   1.608   0.682   2.804  0.2913  1.5381  1.4854
  341SOL     OW11356   3.228   9.101   0.978  0.6043  0.0293 -0.1194
  341SOL    HW111357   3.270   9.191   0.965 -0.5162  0.3501 -1.7701
  341SOL    HW211358   3.207   9.087   1.074 -1.7205  2.7337 -0.1497
  342SOL     OW11359   3.549   1.457   2.189  0.5526 -0.0711  0.2411
  342SOL    HW111360   3.578   1.501   2.274  2.0463 -1.2603  0.3588
  342SOL    HW211361   3.629   1.426   2.139 -0.4492 -2.2164 -0.0791
  343SOL     OW11362   8.824   9.321   1.834  0.1954 -0.4118 -0.2736
  343SOL    HW111363   8.898   9.287   1.776  0.7071 -0.3281  0.3134
  343SOL    HW211364   8.739   9.275   1.811  0.6403 -1.2534 -0.2700
  344SOL     OW11365   8.982   2.985   2.363 -0.2378 -0.1069 -0.1989
  344SOL    HW111366   8.899   2.929   2.358  0.2713 -0.7871 -1.1437
  344SOL    HW211367   8.958   3.082   2.363 -1.0421 -0.3080 -0.2920
  345SOL     OW11368   8.656   6.223   1.668 -0.1978 -0.0545 -0.1984
  345SOL    HW111369   8.659   6.314   1.711  0.1366 -0.0071 -0.3178
  345SOL    HW211370   8.749   6.195   1.645 -0.3603 -0.1556 -0.7325
  346SOL     OW11371   8.862   2.844   1.889  0.0202  0.1846 -0.1882
  346SOL    HW111372   8.903   2.933   1.867  1.0400 -0.4807 -1.0045
  346SOL    HW211373   8.929   2.788   1.938 -0.8079  0.0603  0.8296
  347SOL     OW11374   2.901   8.248   0.288 -0.0226  0.1648  0.4517
  347SOL    HW111375   2.929   8.213   0.378  2.3654 -0.0603 -0.3564
  347SOL    HW211376   2.875   8.345   0.297  0.7890  0.3147  1.2807
  348SOL     OW11377   1.006   1.118   1.544  0.0863  0.8122  0.9023
  348SOL    HW111378   1.098   1.090   1.571  0.2812  1.0508  0.4973
  348SOL    HW211379   0.946   1.120   1.624 -0.2755 -2.0339  0.7634
  349SOL     OW11380   3.331   6.486   0.897  0.2048 -0.1823  0.7225
  349SOL    HW111381   3.351   6.576   0.859  1.2761 -1.6504 -2.3640
  349SOL    HW211382   3.266   6.495   0.973 -1.4901  2.9721 -1.0043
  350SOL     OW11383   4.926   1.560   2.001  0.3262 -0.3457  0.0416
  350SOL    HW111384   4.911   1.599   1.910 -0.5942 -1.2272 -0.1991
  350SOL    HW211385   4.936   1.460   1.993  1.3901 -0.3142  0.7797
  351SOL     OW11386   4.471   8.972   1.406 -0.0975 -0.1657  0.7432
  351SOL    HW111387   4.449   8.877   1.383 -1.6847  0.2751  0.3442
  351SOL    HW211388   4.426   9.033   1.341  2.1624  0.8297  0.0800
  352SOL     OW11389   9.493   2.375   1.301  0.4465  0.2928  0.0675
  352SOL    HW111390   9.473   2.471   1.320  1.2561  0.8393 -1.7521
  352SOL    HW211391   9.425   2.339   1.236  0.3336 -0.2686  0.4933
  353SOL     OW11392   2.373   1.640   2.528  0.5642 -0.2846  0.0352
  353SOL    HW111393   2.301   1.690   2.480  1.3586  0.6279 -0.2222
  353SOL    HW211394   2.332   1.576   2.592 -0.4966 -1.0385 -1.3812
  354SOL     OW11395   4.692   0.558   2.947 -0.3722  0.6534  0.1875
  354SOL    HW111396   4.756   0.593   2.879  0.8884  0.0666  1.0490
  354SOL    HW211397   4.654   0.471   2.915  0.3377  0.2989  0.2927
  355SOL     OW11398   4.136   0.005   1.435 -0.3247  0.1837  0.4740
  355SOL    HW111399   4.079   0.030   1.356 -1.2305  0.9705  1.3632
  355SOL    HW211400   4.082  -0.048   1.500  0.6235 -1.0806  0.2481
  356SOL     OW11401   0.557   8.258   2.811  0.0979 -0.0896  0.2999
  356SOL    HW111402   0.610   8.311   2.745 -1.4132  2.3550  0.9887
  356SOL    HW211403   0.554   8.306   2.898 -0.7328 -1.6537  1.1543
  357SOL     OW11404   0.165   4.002   0.771  0.1686  0.0019  0.0630
  357SOL    HW111405   0.166   4.100   0.752  0.1880 -0.0985 -0.4631
  357SOL    HW211406   0.119   3.954   0.697 -0.9803 -0.2653  0.9388
  358SOL     OW11407   6.710   9.378   2.547 -0.5151 -0.0299 -0.2903
  358SOL    HW111408   6.732   9.451   2.612  0.4851 -0.0193 -0.6167
  358SOL    HW211409   6.771   9.386   2.468 -0.9184 -0.7639 -0.6771
  359SOL     OW11410   0.844   3.730   0.298  0.0905 -0.2837  0.0152
  359SOL    HW111411   0.911   3.759   0.366  0.2450 -0.3555 -0.1054
  359SOL    HW211412   0.875   3.644   0.257 -0.5479 -0.8218  0.6422
  360SOL     OW11413   3.981   8.011   0.489 -0.4090  0.5919 -0.1162
  360SOL    HW111414   4.055   8.022   0.423 -0.8198  2.5521 -0.2760
  360SOL    HW211415   3.895   7.997   0.441 -0.5145  0.7565  0.0229
  361SOL     OW11416   2.103   7.839   1.127  0.1616  0.3591  0.0310
  361SOL    HW111417   2.089   7.742   1.149  1.2051  0.4691  1.2094
  361SOL    HW211418   2.015   7.881   1.105 -0.1733 -1.1088 -1.5679
  362SOL     OW11419   8.755   4.217   1.642 -0.0451  1.0265 -0.1314
  362SOL    HW111420   8.801   4.156   1.707  0.1263 -0.6840 -1.8080
  362SOL    HW211421   8.818   4.239   1.567 -1.8081 -1.1555 -2.3439
  363SOL     OW11422   3.123   5.899   1.374  0.4013 -0.2621 -0.1037
  363SOL    HW111423   3.155   5.905   1.468 -0.0468 -0.6646  0.0790
  363SOL    HW211424   3.055   5.971   1.357 -0.0580 -0.6407  0.1035
  364SOL     OW11425   0.799   5.908   2.496  0.4956  0.5099 -0.3206
  364SOL    HW111426   0.831   5.982   2.438  2.1413 -1.8239 -2.5436
  364SOL    HW211427   0.701   5.896   2.484  0.4750  1.3811 -1.0829
  365SOL     OW11428   8.724   1.555   0.319  0.3948 -0.0388 -0.1723
  365SOL    HW111429   8.717   1.572   0.417 -0.1997  1.0182 -0.3886
  365SOL    HW211430   8.815   1.579   0.286  0.4582  0.0129  0.0471
  366SOL     OW11431   0.167   5.549   2.440  0.0386  0.5125 -0.2474
  366SOL    HW111432   0.157   5.636   2.392  0.0320 -0.0994 -1.3739
  366SOL    HW211433   0.208   5.481   2.379 -1.0183 -0.5973  0.2401
  367SOL     OW11434   1.172   7.009   2.653  0.3060 -0.1084  0.1179
  367SOL    HW111435   1.200   7.098   2.687  1.8767 -0.1887 -0.8862
  367SOL    HW211436   1.180   6.941   2.726 -0.0481  0.4045  0.6391
  368SOL     OW11437   2.388   6.538   2.135  0.1397 -0.0912 -0.1787
  368SOL    HW111438   2.317   6.479   2.173  0.0448 -1.2440 -2.0494
  368SOL    HW211439   2.475   6.488   2.131  0.5632  0.6088  0.1600
  369SOL     OW11440   0.780   7.779   3.246  0.3776  0.6356  0.3885
  369SOL    HW111441   0.694   7.733   3.222 -0.3664  0.2434  3.6457
  369SOL    HW211442   0.830   7.799   3.162 -2.5065  0.1512 -1.5495
  370SOL     OW11443   0.432   8.083   0.287 -0.0198 -0.2376 -0.1496
  370SOL    HW111444   0.415   7.986   0.271 -1.9443 -0.0068  0.3468
  370SOL    HW211445   0.417   8.134   0.202 -2.5397  0.0272  0.3972
  371SOL     OW11446   2.939   8.631   1.558 -0.4913 -0.7091 -0.2725
  371SOL    HW111447   2.929   8.543   1.604  0.2768 -0.6647 -0.0130
  371SOL    HW211448   3.011   8.624   1.489 -0.1982 -0.1987 -0.0222
  372SOL     OW11449   8.034   8.966   2.857 -0.0515  0.0028  0.1022
  372SOL    HW111450   7.949   8.941   2.811 -0.9120  0.5096  1.4122
  372SOL    HW211451   8.068   8.889   2.911 -0.2980  0.1933  0.5246
  373SOL     OW11452   0.190   7.039   2.111  0.1055 -0.0744  0.0071
  373SOL    HW111453   0.146   7.031   2.201 -0.0933 -0.4830 -0.1248
  373SOL    HW211454   0.288   7.021   2.120 -0.0336 -0.8558  0.0227
  374SOL     OW11455   0.848   6.953   2.400 -0.3837  0.0538  0.0768
  374SOL    HW111456   0.933   6.903   2.420 -0.1294  1.0048  1.4704
  374SOL    HW211457   0.777   6.888   2.372  0.7623 -0.7663 -1.0060
  375SOL     OW11458   3.238   3.584   2.824 -0.1978 -0.5314 -0.1675
  375SOL    HW111459   3.184   3.669   2.823 -0.4237 -0.6158  1.7905
  375SOL    HW211460   3.204   3.524   2.897  1.4042 -1.3444 -0.0615
  376SOL     OW11461   3.446   7.069   2.651  0.4299  0.2151 -0.3365
  376SOL    HW111462   3.431   7.031   2.559 -0.1950 -0.9743  0.2470
  376SOL    HW211463   3.384   7.146   2.665 -0.3399 -0.3686 -0.4763
  377SOL     OW11464   4.133   9.269   3.429  0.1943 -0.0540  0.2096
  377SOL    HW111465   4.090   9.270   3.339 -0.3109  2.9981  0.4318
  377SOL    HW211466   4.209   9.204   3.429 -0.2578 -0.6318 -2.1625
  378SOL     OW11467   1.407   7.753   0.004  0.2807  0.3140 -0.1517
  378SOL    HW111468   1.310   7.763  -0.018  0.4959  0.5428 -1.0034
  378SOL    HW211469   1.452   7.700  -0.067  0.8796  0.6494 -0.0206
  379SOL     OW11470   7.160   9.629   0.916  0.2355 -0.1682  0.1635
  379SOL    HW111471   7.129   9.704   0.859 -2.0972 -3.0330 -2.4650
  379SOL    HW211472   7.235   9.581   0.871  2.7054  1.3458  2.4820
  380SOL     OW11473   9.371   4.669   0.024  0.2207 -0.0607 -0.0595
  380SOL    HW111474   9.451   4.640   0.078 -0.0917  0.6753  0.8038
  380SOL    HW211475   9.402   4.709  -0.062  0.7409 -0.7783 -0.2146
  381SOL     OW11476   9.332   7.221   2.462 -0.1525 -0.1888  0.5325
  381SOL    HW111477   9.246   7.170   2.455 -0.4054  0.2634  0.3091
  381SOL    HW211478   9.407   7.164   2.430 -0.2793 -0.8201  1.3575
  382SOL     OW11479   0.502   5.055   3.131  0.3215  0.6334  0.0578
  382SOL    HW111480   0.553   5.115   3.193  1.4540 -1.4389  1.1904
  382SOL    HW211481   0.462   4.979   3.183 -0.4639 -0.0040 -1.4429
  383SOL     OW11482   0.754   2.755   2.513 -0.2313  0.2901 -0.2487
  383SOL    HW111483   0.766   2.760   2.414 -1.8324  0.1494 -0.4614
  383SOL    HW211484   0.824   2.696   2.552  0.4264  0.3649 -1.2888
  384SOL     OW11485   3.681   3.372   1.087  0.0922  0.1337  1.0280
  384SOL    HW111486   3.703   3.469   1.074  1.4365 -0.1520  1.0307
  384SOL    HW211487   3.654   3.332   1.000  1.9708 -0.0594  0.5049
  385SOL     OW11488   3.157   1.094   2.668 -0.6906 -0.5744 -0.2167
  385SOL    HW111489   3.219   1.018   2.652  1.8652  0.9385  2.1378
  385SOL    HW211490   3.202   1.180   2.644 -1.9665  0.5348  1.2792
  386SOL     OW11491   0.745   0.742   3.277  0.0620  0.5233 -0.5640
  386SOL    HW111492   0.677   0.748   3.205 -0.7351  0.9095  0.2184
  386SOL    HW211493   0.711   0.684   3.351  0.0534  1.7725  0.4166
  387SOL     OW11494   9.342   4.107   1.214 -0.4364 -0.4777 -0.4076
  387SOL    HW111495   9.437   4.139   1.215 -0.6081  0.0807  1.6031
  387SOL    HW211496   9.281   4.185   1.198 -0.5290 -0.9281 -2.2437
  388SOL     OW11497   3.068   6.280   0.287  0.4110  0.0808  0.0656
  388SOL    HW111498   3.112   6.367   0.266 -0.1949  0.1346 -0.9977
  388SOL    HW211499   2.994   6.263   0.221  0.4201 -1.1514  0.3655
  389SOL     OW11500   7.854   1.485   3.103 -0.9354 -0.4378  0.3442
  389SOL    HW111501   7.857   1.394   3.144  0.2327  0.1925  1.6551
  389SOL    HW211502   7.887   1.480   3.008 -1.3069 -1.4430  0.2649
  390SOL     OW11503   1.719   7.785   2.663 -0.1325 -0.0055  0.3548
  390SOL    HW111504   1.730   7.753   2.757 -1.5614 -0.9418  0.2287
  390SOL    HW211505   1.652   7.859   2.659 -0.3692 -0.2332  0.0264
  391SOL     OW11506   9.933   1.191   2.708  0.6166  0.3715 -0.0103
  391SOL    HW111507   9.861   1.192   2.777  0.8674 -1.1455  0.2844
  391SOL    HW211508  10.021   1.176   2.752  0.8954  0.3861 -0.5641
  392SOL     OW11509   0.751   2.015   2.147  0.2951 -0.2792 -0.4226
  392SOL    HW111510   0.841   2.036   2.185  1.1558 -2.5325 -1.1076
  392SOL    HW211511   0.680   2.043   2.211  1.4278  2.2382 -0.2162
  393SOL     OW11512   1.218   7.364   0.634 -0.1231  0.4682  0.3694
  393SOL    HW111513   1.136   7.417   0.659 -0.3112  0.9564 -1.2247
  393SOL    HW211514   1.199   7.267   0.645 -0.3678  0.6424  1.6050
  394SOL     OW11515   0.951   0.646   2.180 -0.2138 -0.2320  0.3183
  394SOL    HW111516   0.917   0.722   2.125 -1.2732 -0.0216  1.2535
  394SOL    HW211517   0.903   0.562   2.154 -0.4139 -0.2141  0.6291
  395SOL     OW11518   8.416   2.072   1.985  0.1105 -0.0612 -0.0664
  395SOL    HW111519   8.459   2.074   1.895 -0.1711  0.5703 -0.1919
  395SOL    HW211520   8.317   2.065   1.974  0.0603  0.2152  0.1850
  396SOL     OW11521   0.863   4.650   1.179  0.5952  0.3212 -0.0283
  396SOL    HW111522   0.934   4.702   1.225 -0.8540 -0.1148  2.8631
  396SOL    HW211523   0.882   4.552   1.187 -0.9145  0.1557  1.8515
  397SOL     OW11524   8.904   6.186   3.042 -0.2561  0.3009  0.2574
  397SOL    HW111525   8.806   6.174   3.059 -0.5217  0.9907 -0.7389
  397SOL    HW211526   8.932   6.125   2.968 -0.4546  1.8356 -1.1051
  398SOL     OW11527   1.115   3.438   2.430 -0.1602  0.0474  0.4251
  398SOL    HW111528   1.067   3.455   2.516  0.4348  1.0185  0.5689
  398SOL    HW211529   1.146   3.525   2.391 -0.9793 -0.3142 -1.0948
  399SOL     OW11530   7.795   9.796   2.058 -0.1606  0.3687  0.2885
  399SOL    HW111531   7.880   9.796   2.005  0.5435  1.5863  1.4007
  399SOL    HW211532   7.747   9.709   2.044  1.6885 -0.6817  0.3346
  400SOL     OW11533   3.415   2.047   2.872 -0.2159 -0.1011 -0.2718
  400SOL    HW111534   3.455   1.965   2.833 -1.2220 -0.6928 -0.0848
  400SOL    HW211535   3.333   2.072   2.821 -2.1133 -1.4555  2.0010
  401SOL     OW11536   2.260   3.061   0.716  0.0408  0.2334  0.5436
  401SOL    HW111537   2.295   3.101   0.631  1.9623  1.1841  1.7347
  401SOL    HW211538   2.273   2.962   0.715  1.6069  0.4278  0.4073
  402SOL     OW11539   2.540   9.324   1.011  0.4186 -0.7065  0.2593
  402SOL    HW111540   2.490   9.357   0.932  0.3867  0.6766  0.8321
  402SOL    HW211541   2.624   9.377   1.022 -0.2067 -0.0047  1.8833
  403SOL     OW11542   0.859   2.353   0.149  0.6068  0.1838 -0.6861
  403SOL    HW111543   0.943   2.407   0.142  0.5577  0.2850 -0.5097
  403SOL    HW211544   0.847   2.298   0.066  1.4996 -0.7775 -0.1895
  404SOL     OW11545   8.812   2.880   2.856 -0.3347 -0.7208 -0.4877
  404SOL    HW111546   8.844   2.955   2.798  2.8486 -0.8235  1.0701
  404SOL    HW211547   8.815   2.795   2.805 -0.3125 -0.3857 -1.0528
  405SOL     OW11548   2.426   0.015   2.878 -0.0468 -0.2684 -0.2042
  405SOL    HW111549   2.428  -0.021   2.971  2.2909  1.2344  0.3643
  405SOL    HW211550   2.388   0.107   2.879  1.5580  0.4073 -0.4822
  406SOL     OW11551   4.590   2.583   1.933 -0.4839  0.2968 -0.3860
  406SOL    HW111552   4.545   2.590   2.022  1.3348  0.0428  0.6013
  406SOL    HW211553   4.623   2.673   1.905  0.6084  0.0852  0.1456
  407SOL     OW11554   1.390   5.427   1.744 -0.1959 -0.5592 -0.4987
  407SOL    HW111555   1.471   5.411   1.687 -0.2578 -1.7663 -0.2605
  407SOL    HW211556   1.419   5.454   1.836 -0.0348 -1.9270 -0.1362
  408SOL     OW11557   4.625   9.842   2.283 -0.0569 -0.4780  0.3512
  408SOL    HW111558   4.589   9.922   2.331 -3.1746 -1.0722 -0.9050
  408SOL    HW211559   4.680   9.872   2.205 -0.2390  0.4346  0.5724
  409SOL     OW11560   3.059   2.980   2.313  0.1196  0.2204  0.1473
  409SOL    HW111561   2.995   2.913   2.275 -0.3657  0.8537 -0.1544
  409SOL    HW211562   3.102   3.031   2.239  0.2721  0.4491  0.3905
  410SOL     OW11563   3.960   9.379   0.570 -0.0666 -0.5488  0.2100
  410SOL    HW111564   3.912   9.315   0.510  0.7163 -2.6789  1.7926
  410SOL    HW211565   4.027   9.431   0.518 -1.0534 -0.6608 -1.1920
  411SOL     OW11566   1.045   7.370   0.303 -0.4692 -0.6557  0.6631
  411SOL    HW111567   1.036   7.275   0.335 -0.8736 -0.7569  0.2538
  411SOL    HW211568   1.059   7.369   0.204  0.8628 -0.3552  0.8360
  412SOL     OW11569   4.158   3.922   1.016 -0.3129  0.1955 -0.2081
  412SOL    HW111570   4.196   4.013   0.999  0.7731 -0.1869  0.1418
  412SOL    HW211571   4.167   3.866   0.933 -0.5396  0.2522 -0.2715
  413SOL     OW11572   0.352   9.200   1.758 -0.3470  0.4501 -0.0947
  413SOL    HW111573   0.266   9.238   1.793  0.2966  2.4576 -0.6264
  413SOL    HW211574   0.372   9.114   1.805 -1.0141  1.5801  2.3279
  414SOL     OW11575   0.877   2.118   0.549 -0.5922  0.0332 -0.2882
  414SOL    HW111576   0.860   2.151   0.642  0.7105 -1.1327  0.3739
  414SOL    HW211577   0.944   2.044   0.551  1.2473  1.5858 -2.4074
  415SOL     OW11578   5.137   9.165   2.603 -0.1364  0.1378  0.1032
  415SOL    HW111579   5.158   9.254   2.561  0.4238 -0.4095 -0.8020
  415SOL    HW211580   5.196   9.095   2.562 -0.5542 -0.6450  0.8378
  416SOL     OW11581   1.065   1.959   1.749 -0.0401 -0.0793 -0.3340
  416SOL    HW111582   1.088   2.006   1.664  0.8872  0.1883  0.0493
  416SOL    HW211583   1.100   1.865   1.747  1.2100  0.3607  0.2924
  417SOL     OW11584   0.163   8.421   1.093  1.0809 -0.1465 -0.4170
  417SOL    HW111585   0.182   8.332   1.051  0.1472 -0.2847 -0.5526
  417SOL    HW211586   0.248   8.472   1.102  1.5100 -0.7441 -1.0445
  418SOL     OW11587   1.936   2.546   1.391  0.2750  0.1886  0.0658
  418SOL    HW111588   1.938   2.458   1.344  2.0583  0.0824  0.2884
  418SOL    HW211589   1.848   2.558   1.436  0.3109 -1.8800  0.7591
  419SOL     OW11590   0.805   0.322   3.250 -0.2028  0.1367 -0.4774
  419SOL    HW111591   0.903   0.329   3.230 -0.4268  1.4835 -1.1706
  419SOL    HW211592   0.785   0.367   3.336 -0.3820  0.8623 -0.8950
  420SOL     OW11593   2.979   3.313   0.366  0.1228 -0.3896 -0.0965
  420SOL    HW111594   2.971   3.340   0.270 -0.9016  1.8060  0.5634
  420SOL    HW211595   3.075   3.298   0.389  0.4447 -0.1917 -1.2683
  421SOL     OW11596   9.056   3.312   0.938 -0.7022 -0.2862  0.1275
  421SOL    HW111597   9.118   3.379   0.979  0.3481 -0.4507 -1.1654
  421SOL    HW211598   9.103   3.225   0.928 -1.3721 -0.6127 -0.1923
  422SOL     OW11599   4.954   9.903   3.322 -0.0529 -0.0542 -0.8167
  422SOL    HW111600   4.884   9.916   3.392 -1.1253 -0.5314 -1.7822
  422SOL    HW211601   5.037   9.952   3.349 -0.2153 -0.7941  1.1018
  423SOL     OW11602   0.778   8.376   3.342 -0.0866  0.1064 -0.4608
  423SOL    HW111603   0.864   8.350   3.299  0.3659 -2.1420  1.6961
  423SOL    HW211604   0.794   8.453   3.404  0.0603  0.6692 -1.1904
  424SOL     OW11605   3.272   0.334   3.442  0.4071 -0.1706 -0.2830
  424SOL    HW111606   3.277   0.391   3.524 -0.7331  0.3537 -0.5676
  424SOL    HW211607   3.329   0.374   3.370 -1.7438  1.6248 -1.0619
  425SOL     OW11608   8.710   0.199   2.753 -0.3028 -0.0722  0.1520
  425SOL    HW111609   8.726   0.286   2.706  0.7707 -0.7436 -0.7355
  425SOL    HW211610   8.737   0.208   2.849 -1.4952  0.9745  0.4111
  426SOL     OW11611   0.777   4.011   2.749 -0.1797 -0.4769  0.1473
  426SOL    HW111612   0.696   3.996   2.806 -0.2810 -2.0283 -0.3654
  426SOL    HW211613   0.788   3.934   2.686  1.7323 -0.3223  0.2483
  427SOL     OW11614   1.900   7.611   1.421  0.0517  0.1669  0.0573
  427SOL    HW111615   1.809   7.652   1.414 -0.0262  0.2349  1.3570
  427SOL    HW211616   1.967   7.683   1.438  0.5348  0.2698 -2.1549
  428SOL     OW11617   1.989   7.491   0.027 -1.0347 -0.0202  0.1208
  428SOL    HW111618   1.999   7.414   0.090 -0.4102  0.9384  1.2402
  428SOL    HW211619   2.079   7.534   0.014 -2.0014  2.8969  2.6303
  429SOL     OW11620   9.226   6.116   0.374 -0.5626 -0.4495  0.5062
  429SOL    HW111621   9.186   6.207   0.385  0.6295  0.1710 -0.2793
  429SOL    HW211622   9.263   6.106   0.282  0.1445 -1.4034  0.8817
  430SOL     OW11623   0.642   9.102   2.070 -0.1789  0.7389 -0.3140
  430SOL    HW111624   0.718   9.045   2.104  1.3429  2.5888 -0.5005
  430SOL    HW211625   0.675   9.157   1.993 -2.0807  0.6672 -1.1872
  431SOL     OW11626   3.075   0.539   2.149  0.2909 -0.0430 -0.3752
  431SOL    HW111627   3.127   0.454   2.152 -0.7192 -0.6360  0.8031
  431SOL    HW211628   3.060   0.573   2.242 -2.0609 -0.2910 -0.6373
  432SOL     OW11629   4.795   9.784   1.297  0.2844 -0.2138  0.2404
  432SOL    HW111630   4.711   9.818   1.339  0.9260  1.0313  0.5434
  432SOL    HW211631   4.796   9.807   1.200  0.9007  1.0326  0.5279
  433SOL     OW11632   3.291   4.719   0.691  0.0955 -0.5259 -0.9032
  433SOL    HW111633   3.336   4.774   0.621  0.0299  0.7791  0.0589
  433SOL    HW211634   3.193   4.717   0.673 -0.0638  0.7435 -0.2337
  434SOL     OW11635   2.455   8.701   2.890  0.7153 -0.1710 -0.3468
  434SOL    HW111636   2.548   8.724   2.860  0.5902 -0.8817 -1.3100
  434SOL    HW211637   2.407   8.656   2.815 -0.0416 -0.8077  0.5169
  435SOL     OW11638   4.226   2.984   2.875  0.3610  0.1332  0.3045
  435SOL    HW111639   4.214   2.983   2.776  0.6219 -0.6986  0.2714
  435SOL    HW211640   4.324   2.975   2.896  0.3718  1.0331  0.6257
  436SOL     OW11641   4.498   9.753   3.042  0.3421  0.2763  0.0043
  436SOL    HW111642   4.491   9.654   3.033  1.3658  0.1626  0.4349
  436SOL    HW211643   4.483   9.796   2.953 -1.5891 -0.1640  0.0854
  437SOL     OW11644   8.006   9.184   3.056 -0.2285 -0.0939 -0.8015
  437SOL    HW111645   8.003   9.132   2.970 -1.1032  0.2040 -0.9565
  437SOL    HW211646   8.013   9.281   3.036  0.7648 -0.1084 -0.5177
  438SOL     OW11647   2.987   3.365   2.750 -0.4584  0.0631  0.0174
  438SOL    HW111648   3.019   3.395   2.840 -3.0996 -1.5574  1.5691
  438SOL    HW211649   2.913   3.425   2.719  0.9794  1.1061 -1.4824
  439SOL     OW11650   0.407   0.190   0.145 -0.1571 -0.0937  0.7894
  439SOL    HW111651   0.425   0.093   0.132  0.2679  0.0436  0.3205
  439SOL    HW211652   0.382   0.207   0.240 -1.2698 -0.8132  0.6230
  440SOL     OW11653   0.289   6.302   2.551  0.3263  0.1110 -0.0207
  440SOL    HW111654   0.201   6.339   2.522  1.1332  0.2456 -2.4336
  440SOL    HW211655   0.292   6.296   2.651 -2.6927 -0.6269  0.0715
  441SOL     OW11656   3.539   0.557   0.031 -0.2422  0.6630 -0.3599
  441SOL    HW111657   3.608   0.489   0.007  0.4072  1.1106  0.2111
  441SOL    HW211658   3.584   0.644   0.052 -0.8869  0.6795  1.0331
  442SOL     OW11659   9.076   9.813   2.745 -0.1683 -0.5149 -0.2616
  442SOL    HW111660   9.105   9.820   2.650 -1.9491 -1.0544 -0.8753
  442SOL    HW211661   8.988   9.860   2.756 -1.0787 -2.3762  0.6217
  443SOL     OW11662   8.708   7.854   3.219 -0.0211  0.3431 -0.6715
  443SOL    HW111663   8.723   7.759   3.245 -0.9738 -0.0454 -1.5031
  443SOL    HW211664   8.690   7.860   3.121 -1.4901  1.1925 -0.3748
  444SOL     OW11665   3.595   5.359   0.499 -0.3584 -0.0578 -0.2982
  444SOL    HW111666   3.664   5.294   0.469  0.2948  0.0215  1.0061
  444SOL    HW211667   3.561   5.410   0.421  0.0644 -1.0590 -1.1433
  445SOL     OW11668   3.537   8.110   1.461  0.5220  0.7834 -0.0143
  445SOL    HW111669   3.556   8.174   1.386 -3.7273  1.2800 -0.7862
  445SOL    HW211670   3.511   8.162   1.543 -1.1848  0.1146 -0.1196
  446SOL     OW11671   4.772   1.104   2.454  0.1642  0.8480  0.0647
  446SOL    HW111672   4.787   1.118   2.551  1.2898  2.7364 -0.3488
  446SOL    HW211673   4.835   1.033   2.420 -1.5709 -1.2328  1.0525
  447SOL     OW11674   2.352   2.880   1.012  0.0882  0.1786 -0.4629
  447SOL    HW111675   2.266   2.859   1.058 -0.6252  1.0576 -1.3573
  447SOL    HW211676   2.357   2.831   0.925  0.5760 -0.0065 -0.3346
  448SOL     OW11677   9.964   9.869   1.253 -0.4473 -0.2637 -0.0993
  448SOL    HW111678   9.922   9.786   1.216 -2.2504 -0.6158  2.6600
  448SOL    HW211679   9.917   9.950   1.217  1.5711 -0.3436 -3.1142
  449SOL     OW11680   8.059   2.244   0.424  0.0356 -0.6075 -0.3388
  449SOL    HW111681   7.966   2.279   0.435  0.3963  0.1045  0.5671
  449SOL    HW211682   8.072   2.163   0.483  0.7434  0.8063  1.5061
  450SOL     OW11683   1.158   1.243   3.199 -0.7927 -0.0441 -0.0054
  450SOL    HW111684   1.211   1.309   3.252 -0.9244  0.7711 -0.8938
  450SOL    HW211685   1.220   1.186   3.145 -0.7455  0.0504 -0.0504
  451SOL     OW11686   0.509   9.934   0.168 -0.6788  0.3725  0.1391
  451SOL    HW111687   0.543   9.872   0.098 -0.1175  0.3128  0.4654
  451SOL    HW211688   0.574   9.938   0.244 -0.2986  2.0351 -0.2747
  452SOL     OW11689   9.816   6.806   3.211 -0.5003 -0.4224 -0.3170
  452SOL    HW111690   9.836   6.790   3.114 -0.9583  0.9998 -0.6485
  452SOL    HW211691   9.720   6.783   3.229 -1.8434  4.0330 -1.3102
  453SOL     OW11692   3.777   8.038   1.987 -0.4603 -0.3524  0.1801
  453SOL    HW111693   3.733   8.112   2.037 -0.7727 -0.0474 -0.5407
  453SOL    HW211694   3.778   8.059   1.889  1.0648 -0.4723  0.1547
  454SOL     OW11695   2.795   9.422   1.036  0.1022  0.1767  0.3544
  454SOL    HW111696   2.808   9.452   0.941  0.9290 -2.3253 -0.3806
  454SOL    HW211697   2.884   9.415   1.081 -0.1741  0.0252  0.8821
  455SOL     OW11698   9.472   5.734   1.626  0.5436 -0.1950  0.1230
  455SOL    HW111699   9.482   5.654   1.567  0.3673 -0.6059  0.6416
  455SOL    HW211700   9.399   5.793   1.590  2.3352  1.0257 -1.6737
  456SOL     OW11701   2.657   6.654   1.743 -0.1830 -0.2004  0.3118
  456SOL    HW111702   2.565   6.656   1.782 -1.0634 -1.5574 -1.6652
  456SOL    HW211703   2.679   6.745   1.706 -0.7070  0.1257  0.7853
  457SOL     OW11704   2.283   3.752   1.995  0.6831 -0.6465  0.1340
  457SOL    HW111705   2.187   3.736   1.972  0.7962  0.0974 -0.8887
  457SOL    HW211706   2.293   3.755   2.095 -0.4235 -0.3126  0.2463
  458SOL     OW11707   0.324   2.147   0.143  0.2244  0.2339 -0.3329
  458SOL    HW111708   0.373   2.154   0.056 -1.2609  0.3191 -1.1704
  458SOL    HW211709   0.233   2.109   0.127  0.3665 -0.8502  1.3465
  459SOL     OW11710   4.482   7.858   1.754  0.1329  0.5120 -0.2867
  459SOL    HW111711   4.501   7.895   1.663  0.0847  0.8718 -0.1500
  459SOL    HW211712   4.552   7.790   1.778 -1.4917 -1.7939 -1.8309
  460SOL     OW11713   4.272   3.317   0.554  0.3350  0.1009 -0.1318
  460SOL    HW111714   4.291   3.321   0.652  0.8980  1.8996 -0.3095
  460SOL    HW211715   4.237   3.405   0.523  2.3360  0.2816 -1.9889
  461SOL     OW11716   0.060   8.806   2.376 -0.1485  0.0408 -0.0436
  461SOL    HW111717   0.086   8.748   2.298 -0.2522 -1.7456  1.2074
  461SOL    HW211718  -0.000   8.879   2.345 -0.3577 -0.7798 -1.6081
  462SOL     OW11719   2.208   6.637   1.712 -0.2925 -0.6251  0.2719
  462SOL    HW111720   2.142   6.709   1.690 -0.0877 -1.2267 -2.6136
  462SOL    HW211721   2.160   6.560   1.755 -0.9953  0.0561  0.7214
  463SOL     OW11722   9.311   7.465   3.288 -0.3409 -0.7946  0.0128
  463SOL    HW111723   9.385   7.493   3.227 -0.0200 -0.5299  0.5172
  463SOL    HW211724   9.349   7.416   3.366 -0.5826  0.3761  0.8812
  464SOL     OW11725   9.881   2.075   1.765 -0.0525 -0.2431 -0.5152
  464SOL    HW111726   9.925   2.013   1.829 -0.7908  0.3951  0.6193
  464SOL    HW211727   9.937   2.156   1.752 -0.2483 -0.0485 -0.1303
  465SOL     OW11728   2.242   4.252   0.682  0.3074  0.1854  0.3177
  465SOL    HW111729   2.297   4.334   0.696  0.9361 -0.4893  1.9020
  465SOL    HW211730   2.225   4.208   0.769 -1.0131 -0.7529 -0.3945
  466SOL     OW11731   3.364   8.399   0.114  0.3139  0.4630  0.0272
  466SOL    HW111732   3.313   8.468   0.165  0.6211 -0.1498  1.1803
  466SOL    HW211733   3.308   8.366   0.038 -0.9457 -0.0728  1.1717
  467SOL     OW11734   9.466   3.213   2.211 -0.0914  0.3392 -0.1610
  467SOL    HW111735   9.397   3.227   2.281 -0.4812  2.2356 -0.8970
  467SOL    HW211736   9.514   3.127   2.228 -0.7771  0.3433  1.9035
  468SOL     OW11737   3.016   7.392   2.995 -0.1624 -0.2411 -0.9025
  468SOL    HW111738   3.112   7.399   2.966 -0.6817  1.5170 -2.2374
  468SOL    HW211739   3.004   7.440   3.082  0.2161 -0.6757 -0.6086
  469SOL     OW11740   4.153   3.315   1.339 -0.3092  0.3907  0.2374
  469SOL    HW111741   4.178   3.225   1.373 -0.8814 -0.1117 -0.6529
  469SOL    HW211742   4.237   3.368   1.322  0.1549 -0.9677 -1.8783
  470SOL     OW11743   8.916   9.498   0.710  1.2688 -0.4224 -0.3505
  470SOL    HW111744   9.000   9.448   0.727  0.1932 -1.6920  1.4578
  470SOL    HW211745   8.841   9.433   0.695  0.2765  0.6532 -0.1172
  471SOL     OW11746   1.703   0.807   1.755  0.3936 -0.4247  0.1559
  471SOL    HW111747   1.720   0.714   1.789  0.3770 -0.5530 -0.1821
  471SOL    HW211748   1.764   0.871   1.801  0.1508 -0.5539  0.6565
  472SOL     OW11749   9.278   8.817   1.282  0.0971 -0.2710 -0.2189
  472SOL    HW111750   9.343   8.753   1.241 -0.6536 -0.9238 -0.3963
  472SOL    HW211751   9.326   8.877   1.346  1.4672  1.3431 -2.6673
  473SOL     OW11752   3.935   3.229   1.157 -0.6685  0.1331 -0.7268
  473SOL    HW111753   3.856   3.286   1.134 -1.2772 -0.7494 -0.8504
  473SOL    HW211754   3.998   3.281   1.215 -0.9604  1.1020 -1.2531
  474SOL     OW11755   2.669   5.862   1.005 -0.5845  0.6470  0.4445
  474SOL    HW111756   2.600   5.891   1.072 -1.8866  2.0474 -1.4410
  474SOL    HW211757   2.741   5.811   1.051 -2.9858 -1.0452  2.4503
  475SOL     OW11758   3.944   4.629   1.183  0.3840 -0.6840 -0.1561
  475SOL    HW111759   4.032   4.582   1.185  0.6393 -0.3365 -1.8832
  475SOL    HW211760   3.893   4.602   1.101 -0.4108  0.3685 -0.0346
  476SOL     OW11761   3.900   3.730   1.432  0.1105  0.3066 -0.3090
  476SOL    HW111762   3.892   3.758   1.336 -1.6971 -0.3939 -0.3861
  476SOL    HW211763   3.924   3.810   1.488 -1.1778  1.2367 -1.0358
  477SOL     OW11764   2.712   5.034   2.147 -0.5094  0.0074  0.8528
  477SOL    HW111765   2.749   5.127   2.151 -0.7142  0.1194  0.2037
  477SOL    HW211766   2.648   5.021   2.223 -1.7474  0.9514 -0.0039
  478SOL     OW11767   3.670   1.698   1.892  0.2399 -0.0836  0.4810
  478SOL    HW111768   3.621   1.630   1.836  1.5483 -0.6716  0.0346
  478SOL    HW211769   3.656   1.789   1.852  0.3799 -0.3792 -0.2593
  479SOL     OW11770   1.370   6.130   0.217 -0.2221 -0.4031  0.4066
  479SOL    HW111771   1.288   6.146   0.270 -1.1426  0.4316 -1.2312
  479SOL    HW211772   1.427   6.213   0.216 -0.4530 -0.2461 -0.3062
  480SOL     OW11773   2.846   8.222   1.294  0.1241 -0.1368 -0.3738
  480SOL    HW111774   2.924   8.226   1.356  0.4869 -2.9770 -0.5738
  480SOL    HW211775   2.874   8.183   1.206 -1.5826 -1.7269 -0.2526
  481SOL     OW11776   3.428   7.437   0.428 -0.2211  0.1248 -0.3904
  481SOL    HW111777   3.466   7.372   0.362  2.2270 -0.5221  1.5533
  481SOL    HW211778   3.364   7.390   0.489  0.4049 -0.1478  0.0648
  482SOL     OW11779   3.210   0.762   2.796 -0.2447 -0.0919 -0.9151
  482SOL    HW111780   3.268   0.819   2.737  0.0511 -0.7898 -1.3049
  482SOL    HW211781   3.249   0.670   2.803  0.2484  0.2489  1.1635
  483SOL     OW11782   3.942   8.603   0.550  0.4932  0.1400 -0.2672
  483SOL    HW111783   3.994   8.661   0.613  0.5306 -0.3764  0.1749
  483SOL    HW211784   3.863   8.564   0.597 -0.3942  1.0461 -0.9781
  484SOL     OW11785   2.004   6.355   0.708 -0.1184  0.0369  0.0180
  484SOL    HW111786   2.077   6.370   0.774 -0.6290  0.6790  0.4441
  484SOL    HW211787   2.043   6.341   0.617  0.5829 -0.8142  0.4482
  485SOL     OW11788   4.820   9.225   0.168  0.0294 -0.5873 -0.3745
  485SOL    HW111789   4.909   9.179   0.169 -0.1566 -0.9527 -0.5841
  485SOL    HW211790   4.801   9.258   0.076  0.3874  0.3524 -0.1139
  486SOL     OW11791   2.256   1.635   1.831  0.0614  0.5314 -0.2733
  486SOL    HW111792   2.266   1.645   1.930  2.9241  0.6590 -0.5079
  486SOL    HW211793   2.334   1.583   1.796 -0.8788  0.5674 -2.4816
  487SOL     OW11794   4.298   3.454   2.904 -0.0835  0.3035  0.2850
  487SOL    HW111795   4.310   3.354   2.901  1.2006  0.4250  0.9106
  487SOL    HW211796   4.269   3.481   2.995  1.8685  0.7211  0.8031
  488SOL     OW11797   3.015   7.110   1.844  0.4983  0.6344  0.3430
  488SOL    HW111798   2.929   7.098   1.894  0.4163 -2.3708 -0.4544
  488SOL    HW211799   3.091   7.114   1.909  0.1352 -0.7197  0.8747
  489SOL     OW11800   2.380   7.697   0.458  0.3667 -0.4258  0.1052
  489SOL    HW111801   2.465   7.746   0.440  0.5706 -1.2426 -1.2855
  489SOL    HW211802   2.306   7.763   0.473  0.9424  0.2997 -0.2004
  490SOL     OW11803   1.483   0.317   2.603  0.5361 -0.1502  0.3990
  490SOL    HW111804   1.437   0.384   2.661  0.8806 -0.6503  1.2487
  490SOL    HW211805   1.553   0.269   2.656 -0.9599 -2.4938  0.3115
  491SOL     OW11806   1.208   5.193   0.290 -0.6823 -0.3253 -0.9692
  491SOL    HW111807   1.303   5.169   0.273  0.3361  2.6091  0.3756
  491SOL    HW211808   1.186   5.280   0.245 -2.3823 -0.3409 -0.2252
  492SOL     OW11809   4.668   8.472   0.380 -0.5991  0.2553 -0.6426
  492SOL    HW111810   4.601   8.489   0.452  1.6147  1.9520  1.0601
  492SOL    HW211811   4.737   8.408   0.412  0.2252  0.7734 -1.3508
  493SOL     OW11812   8.694   7.537   1.436  0.1899  0.3826  0.1218
  493SOL    HW111813   8.684   7.611   1.502 -0.7752 -0.6584  1.1775
  493SOL    HW211814   8.702   7.575   1.344 -0.0848  1.7982  0.6662
  494SOL     OW11815   2.821   7.074   0.358 -0.2494 -0.1790  0.3839
  494SOL    HW111816   2.846   7.114   0.270  1.4130 -1.0056  0.4489
  494SOL    HW211817   2.774   7.142   0.414  1.3929  1.2977  0.0162
  495SOL     OW11818   1.667   8.654   0.095 -0.2889  0.1638 -0.4146
  495SOL    HW111819   1.625   8.710   0.024  0.7026  0.0170 -1.1333
  495SOL    HW211820   1.741   8.706   0.138  0.0373 -0.2588 -0.4644
  496SOL     OW11821   8.315   9.831   0.009  0.1930 -0.1740 -0.3344
  496SOL    HW111822   8.284   9.744   0.048 -1.2315  0.2662 -0.4413
  496SOL    HW211823   8.414   9.831   0.001  0.1732 -1.9348 -0.6571
  497SOL     OW11824   3.512   7.932   0.826  0.0384  0.2611  0.0344
  497SOL    HW111825   3.551   7.886   0.747 -0.1597 -0.0127  0.0966
  497SOL    HW211826   3.505   8.030   0.808  0.6771  0.2977 -0.0089
  498SOL     OW11827   3.918   9.875   3.210 -0.2946 -0.4810  0.2279
  498SOL    HW111828   3.941   9.927   3.292  1.6026  1.5722 -1.5260
  498SOL    HW211829   3.890   9.782   3.235 -0.4437  0.3313  3.2044
  499SOL     OW11830   9.412   5.270   3.203  0.2979 -0.3787 -0.0641
  499SOL    HW111831   9.510   5.283   3.184  0.8613 -1.6696  1.8420
  499SOL    HW211832   9.365   5.358   3.194  2.1520  0.8587  1.9481
  500SOL     OW11833   9.753   1.778   2.631 -0.0373  0.8134 -0.0097
  500SOL    HW111834   9.780   1.809   2.722 -0.6828  0.8243  0.1748
  500SOL    HW211835   9.719   1.855   2.578  2.8970  1.3500 -1.2034
  501SOL     OW11836   0.962   7.108   2.016  0.3763 -0.4471  0.3598
  501SOL    HW111837   0.867   7.129   1.992  0.4426 -1.5719 -0.8914
  501SOL    HW211838   0.995   7.176   2.083 -1.0144  0.4618  0.1403
  502SOL     OW11839   9.723   1.727   0.482 -0.5082  0.2895  0.0063
  502SOL    HW111840   9.783   1.693   0.410 -0.2782  1.7655 -0.5317
  502SOL    HW211841   9.628   1.717   0.453 -0.4016  1.3950 -0.7683
  503SOL     OW11842   8.900   3.796   0.358 -0.1052 -0.7870  0.4475
  503SOL    HW111843   8.895   3.696   0.361  1.4155 -0.8984 -0.0723
  503SOL    HW211844   8.995   3.824   0.347 -0.4140  0.7562  1.5538
  504SOL     OW11845   8.232   7.571   2.712  0.4016  0.4902 -0.2976
  504SOL    HW111846   8.188   7.650   2.756 -0.0288 -0.9127  1.8634
  504SOL    HW211847   8.186   7.551   2.625 -0.3439  1.7948 -0.2096
  505SOL     OW11848   9.321   5.929   1.509  0.0182 -0.2930  0.2541
  505SOL    HW111849   9.416   5.944   1.481 -0.6640  1.6228 -1.1466
  505SOL    HW211850   9.269   5.894   1.431 -1.3197  2.6129 -0.2127
  506SOL     OW11851   7.352   9.127   3.162 -0.1078  0.0921  0.1116
  506SOL    HW111852   7.375   9.215   3.120  2.0681 -0.3081  0.4130
  506SOL    HW211853   7.410   9.111   3.242 -0.8475 -1.3768  0.3830
  507SOL     OW11854   4.145   1.025   2.901 -0.3969 -0.4360  0.4531
  507SOL    HW111855   4.212   1.026   2.827  1.2904 -0.2621  1.9415
  507SOL    HW211856   4.077   1.097   2.885  1.1498  0.9969  0.1320
  508SOL     OW11857   4.382   3.358   0.130  0.0372 -0.0720 -0.2371
  508SOL    HW111858   4.432   3.371   0.045 -0.0061  0.4182 -0.1885
  508SOL    HW211859   4.346   3.265   0.134  0.4206 -0.2335 -0.5515
  509SOL     OW11860   0.747   1.645   2.959  0.0084  0.0827 -0.3575
  509SOL    HW111861   0.770   1.707   3.033  0.1301  0.3640 -0.6302
  509SOL    HW211862   0.651   1.618   2.967  0.2310 -0.5143  0.3556
  510SOL     OW11863   1.673   3.685   1.911 -0.1993  0.0071 -0.4089
  510SOL    HW111864   1.752   3.730   1.870  1.4391 -1.9857  0.4846
  510SOL    HW211865   1.643   3.610   1.851 -0.5453 -0.1131 -0.0880
  511SOL     OW11866   3.680   7.468   0.957  0.4199  0.8079  0.1589
  511SOL    HW111867   3.630   7.455   0.871  0.7358  1.2802 -0.0982
  511SOL    HW211868   3.637   7.413   1.029  0.6213 -0.2019 -0.4797
  512SOL     OW11869   1.680   5.956   0.881 -0.2927 -0.3040  0.2261
  512SOL    HW111870   1.604   6.021   0.887 -0.0462 -0.1620  1.9077
  512SOL    HW211871   1.758   5.999   0.836 -0.6850  0.0341 -0.1282
  513SOL     OW11872   2.303   1.666   2.994 -0.5086 -0.4838 -0.7305
  513SOL    HW111873   2.355   1.631   3.072 -0.0538  0.2386 -0.7026
  513SOL    HW211874   2.264   1.755   3.017  0.8072  0.3930 -1.8125
  514SOL     OW11875   2.803   6.587   3.388 -0.2217  0.1145  0.4975
  514SOL    HW111876   2.750   6.585   3.473  0.9147  0.6708  1.2389
  514SOL    HW211877   2.773   6.665   3.333 -0.6009  0.0702  0.6380
  515SOL     OW11878   9.637   0.204   1.845 -0.1802 -0.3187 -0.0723
  515SOL    HW111879   9.634   0.139   1.921  1.5974  0.0659  0.3432
  515SOL    HW211880   9.589   0.288   1.871  3.2327  1.1107  1.9293
  516SOL     OW11881   4.144   7.689   1.920 -0.5402 -0.1685  0.1743
  516SOL    HW111882   4.048   7.692   1.891 -1.0908 -1.0005  1.8672
  516SOL    HW211883   4.190   7.772   1.888 -1.4546 -0.4198 -1.8670
  517SOL     OW11884   9.022   8.523   1.290 -0.5627 -0.3320 -0.6372
  517SOL    HW111885   9.029   8.582   1.209  0.5574 -1.0968 -1.1058
  517SOL    HW211886   9.086   8.447   1.282 -0.9678 -0.8234  0.6410
  518SOL     OW11887   9.762   1.675   3.111  0.0554  0.1195 -0.1528
  518SOL    HW111888   9.693   1.619   3.065  0.3063  0.0842 -0.4946
  518SOL    HW211889   9.844   1.620   3.126  0.1135  0.2450 -0.0173
  519SOL     OW11890   9.121   8.514   2.323  0.2597  0.0182  0.2934
  519SOL    HW111891   9.023   8.507   2.344 -0.4446  2.5633 -1.8944
  519SOL    HW211892   9.148   8.439   2.262  0.1780 -1.8568  2.4950
  520SOL     OW11893   0.404   6.167   1.517 -0.2650 -0.1796  0.1458
  520SOL    HW111894   0.460   6.207   1.589  0.2935  0.1127 -0.4452
  520SOL    HW211895   0.449   6.085   1.481 -0.0788  0.1992 -0.5057
  521SOL     OW11896   0.025   2.939   0.430  0.3526  0.1452 -0.3794
  521SOL    HW111897  -0.047   2.870   0.420  0.9228 -0.9882  2.6981
  521SOL    HW211898   0.104   2.914   0.374 -0.1997 -0.6611 -0.8086
  522SOL     OW11899   9.188   6.021   3.276 -0.1929  0.1594  0.8254
  522SOL    HW111900   9.202   5.927   3.307 -0.0899  0.2332  1.0012
  522SOL    HW211901   9.217   6.029   3.181 -2.5644 -0.6197 -0.0002
  523SOL     OW11902   0.394   6.797   1.705  0.5763  0.0624 -0.5010
  523SOL    HW111903   0.493   6.810   1.713  0.6114 -0.5422  0.1761
  523SOL    HW211904   0.360   6.844   1.624  1.8737 -2.0926 -2.3493
  524SOL     OW11905   0.574   6.904   1.148 -0.5059  0.6993  0.2351
  524SOL    HW111906   0.669   6.904   1.117 -0.8990  0.1382 -0.9859
  524SOL    HW211907   0.565   6.966   1.226  1.2777 -0.8230  1.6945
  525SOL     OW11908   0.279   2.555   1.787  0.1316  0.7055  0.4081
  525SOL    HW111909   0.245   2.469   1.749  0.6995 -0.2019  1.9035
  525SOL    HW211910   0.372   2.542   1.820  1.2261  2.6492 -1.8158
  526SOL     OW11911   3.934   0.111   1.236  0.7018 -0.5725  0.3035
  526SOL    HW111912   3.883   0.181   1.287  0.5547 -0.8816  0.5843
  526SOL    HW211913   3.986   0.154   1.163 -1.0406 -0.4076 -0.8554
  527SOL     OW11914   1.736   4.685   0.920 -0.2085  0.2050 -0.2123
  527SOL    HW111915   1.724   4.599   0.871  2.1618  0.6509 -1.6690
  527SOL    HW211916   1.802   4.673   0.994 -0.6848  0.5072  0.2628
  528SOL     OW11917   1.419   4.958   1.182 -0.6606 -0.4318  0.2093
  528SOL    HW111918   1.517   4.971   1.171 -0.9144 -0.1821 -1.8834
  528SOL    HW211919   1.393   4.984   1.275  1.1523  0.0561  0.6059
  529SOL     OW11920   9.185   4.289   1.150  0.8252  0.0085  0.4076
  529SOL    HW111921   9.150   4.308   1.058  2.3869 -0.2933 -0.2780
  529SOL    HW211922   9.174   4.370   1.208 -2.5265 -0.6211  0.7413
  530SOL     OW11923   4.494   8.197   2.966  0.3882 -0.0890  0.2905
  530SOL    HW111924   4.531   8.261   2.899 -0.2402  1.3626  1.2954
  530SOL    HW211925   4.540   8.210   3.054  1.1558 -1.9189  0.1861
  531SOL     OW11926   3.890   1.635   1.741  0.1062 -0.2484  0.3559
  531SOL    HW111927   3.815   1.663   1.801 -0.0029  1.1087 -0.3905
  531SOL    HW211928   3.962   1.590   1.795  0.3430  1.6139  1.6312
  532SOL     OW11929   4.914   0.841   2.583 -0.5204  0.2805 -0.0750
  532SOL    HW111930   4.897   0.833   2.485 -0.6507  0.5149 -0.0709
  532SOL    HW211931   4.829   0.864   2.630 -0.3701  0.6072  0.0413
  533SOL     OW11932   9.901   0.706   0.469 -0.1305  0.2580 -0.0590
  533SOL    HW111933   9.990   0.729   0.429 -0.3668 -0.0798 -0.7807
  533SOL    HW211934   9.885   0.762   0.551  0.0486  1.4356 -0.8237
  534SOL     OW11935   2.833   1.675   2.670 -0.0007 -0.4003 -0.3574
  534SOL    HW111936   2.745   1.718   2.688  0.0133 -0.7201  0.5011
  534SOL    HW211937   2.824   1.576   2.675  0.6192 -0.4064  0.7163
  535SOL     OW11938   2.264   0.506   2.508 -0.0643  0.1631 -0.2220
  535SOL    HW111939   2.189   0.571   2.490 -0.2516  0.2321  0.7895
  535SOL    HW211940   2.344   0.556   2.542 -1.0184 -0.3832  2.9436
  536SOL     OW11941   3.694   2.836   0.476 -0.1406  0.3633  0.1361
  536SOL    HW111942   3.773   2.880   0.432 -0.4706  0.2479 -0.5790
  536SOL    HW211943   3.708   2.835   0.575  0.0406  1.7629  0.1382
  537SOL     OW11944   8.886   6.824   3.437 -0.4724  0.0450  0.2486
  537SOL    HW111945   8.812   6.880   3.398 -0.1588  0.7903  0.7299
  537SOL    HW211946   8.896   6.741   3.382  0.3494  1.3452 -1.6192
  538SOL     OW11947   6.069   8.623   2.235 -0.1772  0.5497  0.1543
  538SOL    HW111948   6.010   8.694   2.197 -0.3247  0.6309  0.5342
  538SOL    HW211949   6.149   8.611   2.177 -0.3690  0.7222 -0.1439
  539SOL     OW11950   9.579   3.545   0.312 -0.0963 -0.1903 -0.3456
  539SOL    HW111951   9.487   3.585   0.317 -1.2352 -2.9769  3.1957
  539SOL    HW211952   9.611   3.546   0.217 -3.6143  1.1477 -1.5987
  540SOL     OW11953   0.139   8.258   2.944 -0.1513  0.7848 -0.0267
  540SOL    HW111954   0.190   8.340   2.919  0.9185  0.2892  0.4436
  540SOL    HW211955   0.183   8.178   2.903 -0.3612  0.3140  0.6448
  541SOL     OW11956   1.313   0.969   0.717  0.4655  0.1129  0.2343
  541SOL    HW111957   1.271   0.956   0.807  2.0999 -0.7975  0.8942
  541SOL    HW211958   1.340   0.880   0.680  2.4048  0.7362  0.1219
  542SOL     OW11959   2.526   0.523   2.714 -0.5829  0.2786  0.1870
  542SOL    HW111960   2.586   0.597   2.682 -1.4746  0.7008 -0.5268
  542SOL    HW211961   2.464   0.559   2.784 -1.2324  0.2847 -0.3900
  543SOL     OW11962   3.539   3.573   3.095  0.0768 -0.6497  0.4702
  543SOL    HW111963   3.607   3.598   3.163 -0.1017 -0.3519  0.5394
  543SOL    HW211964   3.455   3.624   3.111  0.3237  0.0709 -0.4963
  544SOL     OW11965   9.853   9.548   1.414  0.1673 -0.3538  0.7840
  544SOL    HW111966   9.889   9.470   1.464 -0.6824 -1.6537 -0.5759
  544SOL    HW211967   9.872   9.537   1.317  0.0539  1.1409  0.5878
  545SOL     OW11968   0.219   9.477   2.386 -0.0099 -0.0803  0.1679
  545SOL    HW111969   0.141   9.424   2.419 -0.3818  0.6643  0.5156
  545SOL    HW211970   0.200   9.509   2.293 -1.3079  2.3630  1.2159
  546SOL     OW11971   8.922   7.266   0.059 -0.2366 -0.3168  0.0963
  546SOL    HW111972   8.896   7.204   0.133 -0.2683 -2.1230 -1.3821
  546SOL    HW211973   9.021   7.262   0.046 -0.0599  1.0314  0.9132
  547SOL     OW11974   2.532   6.908   1.831  0.0045 -0.4889  0.1566
  547SOL    HW111975   2.487   6.820   1.849  0.5614 -0.5664  1.1866
  547SOL    HW211976   2.465   6.982   1.836  0.1057 -0.5336  2.3332
  548SOL     OW11977   1.118   7.168   0.784 -0.1087 -0.2007 -0.1508
  548SOL    HW111978   1.112   7.080   0.831 -0.2524  0.4068  0.9920
  548SOL    HW211979   1.109   7.242   0.851 -3.4472  0.7030 -1.5048
  549SOL     OW11980   1.839   0.556   1.078  0.7233 -0.3932 -0.1223
  549SOL    HW111981   1.898   0.495   1.025  1.9458  0.4322  0.2697
  549SOL    HW211982   1.878   0.568   1.169 -0.4020 -0.3482  0.3573
  550SOL     OW11983   8.699   8.380   2.757  0.0523  0.2893 -0.1895
  550SOL    HW111984   8.754   8.367   2.674 -1.4519  0.4870 -1.2447
  550SOL    HW211985   8.610   8.335   2.745 -0.4444  0.9274  1.0386
  551SOL     OW11986   0.758   6.701   2.659 -0.4478  0.1440 -0.4836
  551SOL    HW111987   0.662   6.673   2.654  0.1231 -1.9235 -0.3971
  551SOL    HW211988   0.815   6.637   2.607  1.0511  0.5261  0.6252
  552SOL     OW11989   9.884   1.643   0.270  0.2844 -0.5467  0.0147
  552SOL    HW111990   9.858   1.653   0.174  1.7251  0.0996 -0.3170
  552SOL    HW211991   9.984   1.648   0.278  0.2342 -1.5420  1.4315
  553SOL     OW11992   9.361   1.532   1.488  0.3850  0.1812 -0.0447
  553SOL    HW111993   9.446   1.583   1.498 -0.3799  1.4959 -0.2177
  553SOL    HW211994   9.378   1.435   1.508  1.6496  0.6342  1.1119
  554SOL     OW11995   2.808   6.675   2.156  0.0554 -0.2712 -0.1351
  554SOL    HW111996   2.734   6.739   2.176 -0.5837 -0.7752 -0.8573
  554SOL    HW211997   2.770   6.585   2.134  0.8668 -0.4873 -0.7023
  555SOL     OW11998   9.490   0.138   3.306 -0.1535  0.2349  0.0457
  555SOL    HW111999   9.502   0.235   3.328 -0.3872  0.0571  0.9668
  555SOL    HW212000   9.394   0.121   3.285 -0.2124  0.0920  0.4318
  556SOL     OW12001   0.604   2.503   2.085 -0.5666  0.5737 -0.2976
  556SOL    HW112002   0.508   2.529   2.094 -0.8771 -0.4247 -0.6205
  556SOL    HW212003   0.630   2.443   2.161 -0.6185 -0.3492 -0.9934
  557SOL     OW12004   9.344   9.554   0.577 -0.0749 -0.6159  0.4690
  557SOL    HW112005   9.280   9.629   0.588 -0.2245 -0.3787 -1.7276
  557SOL    HW212006   9.437   9.590   0.566 -0.1507 -0.7107 -0.6255
  558SOL     OW12007   2.530   3.263   1.869 -0.3884  0.0777  0.5073
  558SOL    HW112008   2.583   3.323   1.809 -1.2380  1.4466  1.0835
  558SOL    HW212009   2.435   3.261   1.837 -0.3401 -1.0599  0.4296
  559SOL     OW12010   0.015   1.377   1.467  0.3344  0.4992  0.2575
  559SOL    HW112011  -0.019   1.453   1.412  2.5766  0.4694 -1.2552
  559SOL    HW212012   0.090   1.409   1.525  1.3771 -0.5572 -0.4875
  560SOL     OW12013   4.892   0.559   1.527  0.3567  0.7690 -0.1382
  560SOL    HW112014   4.938   0.627   1.584  0.7745  0.7293 -0.4293
  560SOL    HW212015   4.956   0.487   1.502  0.2905  1.0144 -1.0284
  561SOL     OW12016   0.343   5.605   2.948  0.6900 -0.3241 -0.1861
  561SOL    HW112017   0.334   5.602   2.849  1.1941  1.4589 -0.3027
  561SOL    HW212018   0.433   5.568   2.974  0.4384 -1.0713 -0.3590
  562SOL     OW12019   3.150   1.950   3.365  0.6195 -0.2245  0.1558
  562SOL    HW112020   3.246   1.976   3.349  0.2474  0.6046 -0.8038
  562SOL    HW212021   3.142   1.908   3.455  1.9200 -0.4520  0.1847
  563SOL     OW12022   9.814   0.520   1.494 -0.4271  0.2082 -0.1206
  563SOL    HW112023   9.814   0.433   1.542 -1.5987  0.4045  0.2492
  563SOL    HW212024   9.730   0.529   1.440  0.8550  0.0146 -2.1746
  564SOL     OW12025   3.283   2.259   3.013 -0.2788 -0.3908  0.3075
  564SOL    HW112026   3.369   2.209   3.008 -0.6236 -0.8725 -0.9844
  564SOL    HW212027   3.206   2.196   3.001 -0.7359  0.3648 -0.7923
  565SOL     OW12028   2.411   2.016   1.415  0.4070  0.5851  0.4061
  565SOL    HW112029   2.468   1.934   1.422  0.8207  0.9128  0.9254
  565SOL    HW212030   2.342   2.002   1.344  0.4587 -0.2221  0.5020
  566SOL     OW12031   3.872   8.340   0.357 -0.1192  0.3346  0.1973
  566SOL    HW112032   3.854   8.329   0.259 -0.0052 -1.1270  0.3184
  566SOL    HW212033   3.906   8.432   0.375 -0.0114  0.5748 -1.1575
  567SOL     OW12034   0.558   0.024   2.316  1.2097  0.1956  0.2829
  567SOL    HW112035   0.596  -0.060   2.356  0.4138 -1.3449 -2.0785
  567SOL    HW212036   0.468   0.004   2.277  1.1459  2.0791 -0.5809
  568SOL     OW12037   1.162   8.743   1.593  0.5567 -0.2789  0.2870
  568SOL    HW112038   1.073   8.701   1.610  0.4198  0.0819  0.4724
  568SOL    HW212039   1.151   8.842   1.587  0.8437 -0.2841 -0.3581
  569SOL     OW12040   1.187   1.617   3.050  0.0692 -0.0830  0.3297
  569SOL    HW112041   1.133   1.555   2.993 -1.4617 -0.2595  1.9103
  569SOL    HW212042   1.134   1.643   3.131  1.2726  2.0684  0.4879
  570SOL     OW12043   4.172   0.887   1.509 -0.9024 -0.4211  0.2943
  570SOL    HW112044   4.156   0.908   1.605 -0.0245  1.2479  0.0898
  570SOL    HW212045   4.268   0.867   1.495 -0.5906  1.6224 -0.6332
  571SOL     OW12046   9.948   5.677   2.215 -0.6029  0.1070  0.7359
  571SOL    HW112047  10.043   5.665   2.245 -0.7077  0.5064  1.2273
  571SOL    HW212048   9.931   5.620   2.135  0.2937  0.6708  0.1360
  572SOL     OW12049   1.995   3.605   2.779 -0.4625 -0.3133  0.1153
  572SOL    HW112050   1.961   3.688   2.735  0.3106  0.2168  0.5053
  572SOL    HW212051   2.092   3.616   2.800 -0.4072 -1.2359  0.3697
  573SOL     OW12052   0.457   6.698   2.609 -0.0575 -0.7958  0.1286
  573SOL    HW112053   0.401   6.666   2.685  1.4678 -1.0390  1.1595
  573SOL    HW212054   0.405   6.690   2.524 -2.2891  0.8396  1.3091
  574SOL     OW12055   1.083   3.787   3.431  0.2015 -0.0599 -0.2302
  574SOL    HW112056   1.135   3.873   3.432  0.2247 -0.0446 -1.6795
  574SOL    HW212057   1.141   3.712   3.461  0.4516  0.2903  0.1555
  575SOL     OW12058   0.788   9.627   2.787  0.0933  0.3178 -0.0194
  575SOL    HW112059   0.693   9.641   2.815  0.3219 -0.9005  1.4489
  575SOL    HW212060   0.835   9.715   2.781 -0.7728  0.8152  0.5773
  576SOL     OW12061   5.084   8.112   0.026  0.5178 -0.0687 -0.7923
  576SOL    HW112062   5.163   8.066   0.067  0.5306  1.0289  0.4724
  576SOL    HW212063   5.001   8.082   0.072  0.3913  0.1339 -0.8873
  577SOL     OW12064   0.186   5.449   0.908 -0.2486  0.0940  0.2831
  577SOL    HW112065   0.110   5.385   0.898 -0.0159 -0.2567  0.7603
  577SOL    HW212066   0.245   5.444   0.827 -1.0177  0.7556 -0.3378
  578SOL     OW12067   9.011   5.066   0.491  0.1777 -0.2361  0.1371
  578SOL    HW112068   8.930   5.077   0.548  0.6139  0.8703  0.5637
  578SOL    HW212069   9.041   4.971   0.494 -1.4123 -0.7790 -0.4653
  579SOL     OW12070   1.370   9.046   3.430  0.0693  0.3504 -0.6505
  579SOL    HW112071   1.273   9.026   3.418  0.1526  0.4067 -1.5205
  579SOL    HW212072   1.408   8.988   3.502 -0.8471  1.1089  0.4632
  580SOL     OW12073   4.092   3.951   0.226  0.0151 -0.4895 -0.2389
  580SOL    HW112074   4.125   3.860   0.201 -0.2500 -0.8135  0.5726
  580SOL    HW212075   4.040   3.945   0.311 -0.6114  0.3108 -0.5624
  581SOL     OW12076   3.946   0.425   0.800  0.3251  0.2370  0.1216
  581SOL    HW112077   4.038   0.411   0.765  0.4290 -0.3417  0.6022
  581SOL    HW212078   3.879   0.412   0.727  0.4334 -2.5810  0.4459
  582SOL     OW12079   3.816   9.027   0.820 -0.4936 -0.4705 -0.5036
  582SOL    HW112080   3.782   9.076   0.900 -1.7880  0.8142 -1.8161
  582SOL    HW212081   3.739   9.000   0.762  0.3802 -2.0390 -0.9751
  583SOL     OW12082   8.163   2.049   1.901  0.1797 -0.2938  0.1151
  583SOL    HW112083   8.113   2.110   1.962  1.1833  0.6999 -0.0541
  583SOL    HW212084   8.101   2.014   1.830  0.2116  2.6579 -1.4262
  584SOL     OW12085   9.610   6.266   0.872  0.3521 -0.1236  0.6215
  584SOL    HW112086   9.551   6.265   0.791 -0.4790 -2.6458  1.2272
  584SOL    HW212087   9.580   6.339   0.933  1.6640  2.5324 -1.7825
  585SOL     OW12088   3.009   4.326   3.188 -0.4235 -0.2891  0.1052
  585SOL    HW112089   3.101   4.362   3.173 -0.5739  0.2156  0.3648
  585SOL    HW212090   2.948   4.363   3.117 -0.7909  0.7852  0.9563
  586SOL     OW12091   4.772   0.746   1.877  1.3261 -0.4014 -0.8163
  586SOL    HW112092   4.676   0.719   1.870  1.4111 -0.7772 -0.5853
  586SOL    HW212093   4.799   0.796   1.795  0.6965  0.4764 -0.4849
  587SOL     OW12094   0.973   8.307   2.181  0.4151 -0.2594  0.7366
  587SOL    HW112095   0.978   8.209   2.198  0.5883 -0.4230 -0.2391
  587SOL    HW212096   1.058   8.338   2.138 -0.4737 -0.0848 -0.9494
  588SOL     OW12097   2.029   6.847   0.910  0.0026  0.1643 -0.0761
  588SOL    HW112098   1.965   6.785   0.956 -0.2523 -0.1871 -0.8946
  588SOL    HW212099   2.029   6.935   0.956  0.0769 -0.3206  0.8661
  589SOL     OW12100   4.028   0.840   2.682  0.6047  0.2546  0.4423
  589SOL    HW112101   3.999   0.778   2.755 -1.1715  0.2907 -0.2271
  589SOL    HW212102   4.110   0.889   2.712  1.0114 -1.1151  1.6696
  590SOL     OW12103   4.340   3.775   3.096  0.0025  0.1696 -0.2316
  590SOL    HW112104   4.392   3.845   3.145 -0.2903  0.4967 -0.3836
  590SOL    HW212105   4.298   3.816   3.015 -2.0762  0.3895  0.9041
  591SOL     OW12106   3.338   6.700   1.436 -0.2499  0.0379 -0.1989
  591SOL    HW112107   3.428   6.684   1.396  0.0320  0.6519  0.1731
  591SOL    HW212108   3.310   6.620   1.490 -0.6187 -0.7716 -1.5882
  592SOL     OW12109   9.227   1.520   2.269  0.0336 -0.0247 -0.1646
  592SOL    HW112110   9.140   1.536   2.314  0.0310  2.6199 -1.0281
  592SOL    HW212111   9.301   1.554   2.326  0.4540 -1.5163  0.1995
  593SOL     OW12112   8.876   1.898   1.863  0.7205  0.0771  0.2556
  593SOL    HW112113   8.835   1.977   1.819 -0.2761 -0.3798  0.3407
  593SOL    HW212114   8.930   1.847   1.796  0.5872  0.3128 -0.0329
  594SOL     OW12115   0.608   6.434   0.456 -0.0757  0.5242  0.2979
  594SOL    HW112116   0.559   6.497   0.395  3.1045  0.5999 -2.3543
  594SOL    HW212117   0.589   6.340   0.428 -0.0168  0.5129  0.2958
  595SOL     OW12118   8.180   0.114   3.138  0.5050  0.4448  0.6905
  595SOL    HW112119   8.090   0.152   3.116  0.7587  1.7104  1.7627
  595SOL    HW212120   8.187   0.100   3.237  1.7990  1.1853  0.7179
  596SOL     OW12121   9.948   0.603   2.248  0.4620  0.1891 -0.3910
  596SOL    HW112122   9.913   0.665   2.177  0.2979 -0.2214 -0.6668
  596SOL    HW212123  10.017   0.651   2.302  0.2398  0.6605 -0.5206
  597SOL     OW12124   0.092   9.140   2.225  0.0406 -0.7787  0.1080
  597SOL    HW112125   0.069   9.222   2.173 -2.6233  1.6155  4.6647
  597SOL    HW212126   0.015   9.076   2.223 -0.5759 -0.1394  1.9252
  598SOL     OW12127   3.375   9.092   2.965  0.3700  0.3786 -0.5750
  598SOL    HW112128   3.380   8.997   2.997  0.4956 -0.1930 -2.2469
  598SOL    HW212129   3.464   9.121   2.931  0.9176  1.8861  2.0469
  599SOL     OW12130   3.188   2.559   0.388  0.1644  0.3193 -0.0393
  599SOL    HW112131   3.134   2.529   0.467 -0.3776  0.9972 -0.1535
  599SOL    HW212132   3.265   2.496   0.375  0.2536  0.1937  1.0265
  600SOL     OW12133   3.196   3.729   1.359  0.8283  0.4041  0.1625
  600SOL    HW112134   3.203   3.783   1.275  0.2709 -0.6550 -0.5691
  600SOL    HW212135   3.240   3.640   1.346  0.0054 -0.0917  0.7038
  601SOL     OW12136   0.919   7.079   0.001 -0.4606  0.2385 -0.2222
  601SOL    HW112137   0.983   7.154   0.013 -2.0125  1.6606 -0.6473
  601SOL    HW212138   0.891   7.073  -0.095 -2.3318  0.8013  0.2718
  602SOL     OW12139   1.472   7.872   1.543  0.4544  0.0503 -0.4790
  602SOL    HW112140   1.433   7.780   1.540  1.0037 -0.1826 -0.5815
  602SOL    HW212141   1.452   7.914   1.632  0.4722 -0.2916 -0.3136
  603SOL     OW12142   7.004   9.881   1.275  0.2446 -0.3063  0.1170
  603SOL    HW112143   7.094   9.924   1.263  0.8781 -0.9187  2.4316
  603SOL    HW212144   6.933   9.940   1.235  1.6440  0.2318 -1.6401
  604SOL     OW12145   8.276   0.467   2.804 -0.3887 -0.1839  0.5881
  604SOL    HW112146   8.375   0.482   2.800 -0.6612  1.6321  0.2512
  604SOL    HW212147   8.242   0.488   2.895 -0.5228 -0.3804  0.5832
  605SOL     OW12148   0.090   7.813   0.759  0.3445 -0.5190  0.1101
  605SOL    HW112149   0.078   7.786   0.854 -1.4598  0.8576  0.2978
  605SOL    HW212150   0.132   7.904   0.755 -0.3937 -0.1992 -0.3925
  606SOL     OW12151   9.836   3.184   1.531  0.4809  0.3265 -0.1102
  606SOL    HW112152   9.904   3.111   1.530  2.6908  2.3296  0.0217
  606SOL    HW212153   9.812   3.206   1.626  0.3079  0.2096 -0.1272
  607SOL     OW12154   0.436   3.001   0.262  0.7308  0.5288  0.1750
  607SOL    HW112155   0.354   2.944   0.255  0.2609  1.5068 -2.7242
  607SOL    HW212156   0.498   2.979   0.187  2.5313  0.7585  1.5716
  608SOL     OW12157   9.262   7.161   3.014 -0.0020 -0.2401  0.0146
  608SOL    HW112158   9.312   7.245   2.994  0.3774 -0.6317 -0.7446
  608SOL    HW212159   9.230   7.162   3.109  2.2681 -0.3727  0.8149
  609SOL     OW12160   8.426   8.320   2.846  0.3643  0.3617  0.1929
  609SOL    HW112161   8.446   8.257   2.921  2.3942  0.0053 -0.5911
  609SOL    HW212162   8.381   8.270   2.772 -0.0922  0.3388  0.4861
  610SOL     OW12163   0.481   8.202   3.141  0.0781 -0.1164 -0.0501
  610SOL    HW112164   0.507   8.211   3.237  0.5972  0.7102 -0.2662
  610SOL    HW212165   0.476   8.105   3.117 -1.4500 -0.3609  1.1836
  611SOL     OW12166   0.219   4.995   1.853 -0.4476 -0.0901  0.5323
  611SOL    HW112167   0.124   4.989   1.885 -1.0538 -0.6621 -1.3240
  611SOL    HW212168   0.272   5.051   1.917 -2.0794  0.4011  1.4879
  612SOL     OW12169   2.614   6.555   1.116 -0.6167  0.6734  0.2136
  612SOL    HW112170   2.614   6.497   1.035 -1.8012  0.8046  0.1166
  612SOL    HW212171   2.575   6.644   1.094 -0.5595  0.8538  0.8283
  613SOL     OW12172   9.721   3.711   2.495 -0.0331 -0.3394 -0.0038
  613SOL    HW112173   9.647   3.698   2.561 -1.6741 -1.7918 -2.0805
  613SOL    HW212174   9.719   3.638   2.427  1.7936  0.9665 -1.5227
  614SOL     OW12175   2.769   8.475   0.027  0.3796 -0.0133  0.1125
  614SOL    HW112176   2.782   8.547  -0.041  1.1674 -0.5012 -0.2451
  614SOL    HW212177   2.814   8.502   0.112  0.6592 -0.0756 -0.0155
  615SOL     OW12178   0.043   3.004   1.465 -1.1414 -0.7874  0.2008
  615SOL    HW112179   0.018   2.908   1.459 -2.1306 -0.5814  0.9097
  615SOL    HW212180   0.102   3.028   1.388  0.6979 -2.4214  1.0818
  616SOL     OW12181   4.681   7.646   2.683  0.0889 -0.0157  0.0667
  616SOL    HW112182   4.761   7.601   2.643  1.6392  1.1060  1.8133
  616SOL    HW212183   4.686   7.745   2.666 -1.5406 -0.0794 -0.8296
  617SOL     OW12184   3.333   9.907   0.500 -0.2320  0.7860 -0.0195
  617SOL    HW112185   3.284   9.874   0.419 -0.2955  0.8454 -0.0053
  617SOL    HW212186   3.288   9.872   0.582  1.9193 -2.2197 -0.0698
  618SOL     OW12187   8.197   1.873   0.584 -0.0869  0.2527 -0.1433
  618SOL    HW112188   8.272   1.849   0.523 -0.2962  1.2469 -0.8020
  618SOL    HW212189   8.117   1.900   0.530 -0.5009  0.4532  0.5630
  619SOL     OW12190   0.791   4.101   0.751 -0.2621 -0.2894 -0.5649
  619SOL    HW112191   0.705   4.066   0.713  0.6820 -0.9172 -2.1963
  619SOL    HW212192   0.772   4.156   0.832 -2.2991  0.4772 -1.5263
  620SOL     OW12193   9.573   7.580   3.263 -0.1965 -0.6010 -0.2905
  620SOL    HW112194   9.614   7.569   3.172  0.0378 -0.3494 -0.2144
  620SOL    HW212195   9.592   7.671   3.298 -0.2003 -0.7306  0.0548
  621SOL     OW12196   4.287   0.975   2.648 -0.1035  0.0037  0.2414
  621SOL    HW112197   4.302   0.884   2.609  0.4024  0.2434 -0.1333
  621SOL    HW212198   4.352   1.040   2.607 -0.8064  0.6399  0.1251
  622SOL     OW12199   9.150   0.508   0.280  0.2820 -0.1632  0.1171
  622SOL    HW112200   9.240   0.464   0.277  0.3874 -0.0296  1.2259
  622SOL    HW212201   9.081   0.440   0.304  0.3074  0.0613  0.8376
  623SOL     OW12202   4.135   8.711   3.076 -0.1795 -0.5103 -0.0328
  623SOL    HW112203   4.120   8.794   3.022 -0.4735 -1.6351 -1.7366
  623SOL    HW212204   4.117   8.729   3.173  1.1182  1.7525 -0.1994
  624SOL     OW12205   2.937   4.900   0.953 -0.0758  0.4415 -0.1370
  624SOL    HW112206   2.967   4.873   1.044 -2.0695  0.9981  0.7105
  624SOL    HW212207   2.943   4.821   0.891 -0.0757 -0.3083  0.8155
  625SOL     OW12208   8.740   2.378   1.786 -0.4049  0.6078  0.2104
  625SOL    HW112209   8.730   2.279   1.789  0.3704  0.5224 -0.0356
  625SOL    HW212210   8.806   2.403   1.716  0.3547  1.2204  1.1356
  626SOL     OW12211   0.296   4.085   2.900  0.3051  0.1608 -0.5745
  626SOL    HW112212   0.319   4.183   2.896 -1.9629  0.8676  2.3722
  626SOL    HW212213   0.208   4.070   2.857  0.6182 -0.5962 -0.9596
  627SOL     OW12214   9.613   9.186   0.668  0.1898  0.3470 -0.2327
  627SOL    HW112215   9.522   9.200   0.629 -0.1557  1.2622  0.8684
  627SOL    HW212216   9.674   9.148   0.599 -1.0683 -0.3990 -0.9381
  628SOL     OW12217   8.599   1.258   2.020 -0.7050  0.3310 -0.0078
  628SOL    HW112218   8.607   1.305   2.108  1.3153  1.6879 -0.8723
  628SOL    HW212219   8.620   1.161   2.033 -0.0295  0.5917  0.9577
  629SOL     OW12220   5.013   4.024   1.138  0.2057  0.1922 -0.7507
  629SOL    HW112221   5.095   4.069   1.175  1.0778 -1.1169 -1.0667
  629SOL    HW212222   4.962   3.983   1.213  0.6299 -0.2608 -0.7032
  630SOL     OW12223   4.186   2.649   2.468 -0.0313 -0.4032 -0.1595
  630SOL    HW112224   4.233   2.574   2.514 -0.0717 -0.2725  0.0959
  630SOL    HW212225   4.095   2.660   2.506  0.6825  1.0591  1.1997
  631SOL     OW12226   1.078   0.907   0.174 -0.1148 -0.0747 -0.6359
  631SOL    HW112227   1.049   0.981   0.235  1.0527 -1.7791  2.0688
  631SOL    HW212228   1.176   0.890   0.187 -0.1249 -1.2986 -2.0797
  632SOL     OW12229   0.362   2.317   0.342 -0.4225  0.5121  0.1457
  632SOL    HW112230   0.449   2.367   0.339 -0.1085  0.1061  2.2410
  632SOL    HW212231   0.359   2.251   0.267  2.2409 -1.3259  1.5854
  633SOL     OW12232   2.429   9.447   0.818  0.2698 -0.5182 -0.4572
  633SOL    HW112233   2.486   9.447   0.737  0.1477 -1.6077 -0.5421
  633SOL    HW212234   2.344   9.398   0.800 -0.1866  0.0713  0.0312
  634SOL     OW12235   0.002   4.460   2.561 -0.1414 -0.1615  0.1908
  634SOL    HW112236  -0.018   4.382   2.502  0.5250 -0.2785  0.1213
  634SOL    HW212237  -0.065   4.463   2.635 -0.6930 -0.2881 -0.3022
  635SOL     OW12238   1.414   0.049   2.204  0.2480 -0.1305  0.0116
  635SOL    HW112239   1.438   0.074   2.110 -1.0050  2.0679  0.2506
  635SOL    HW212240   1.448   0.119   2.267  0.7024 -1.3744  1.1644
  636SOL     OW12241   8.923   9.346   2.105  0.6359  0.0490 -0.1308
  636SOL    HW112242   8.887   9.317   2.016  1.3355 -1.0346 -0.0679
  636SOL    HW212243   8.848   9.349   2.171  0.6144 -2.0974 -0.0293
  637SOL     OW12244   0.127   1.480   0.262  1.0546 -0.4254 -0.3110
  637SOL    HW112245   0.073   1.444   0.338  0.1096  0.0109 -0.7645
  637SOL    HW212246   0.098   1.435   0.177  1.4525 -0.2366 -0.5465
  638SOL     OW12247   0.621   2.992   2.496  0.4164 -1.0368  0.7303
  638SOL    HW112248   0.532   2.993   2.541 -0.4898 -1.3203 -1.0364
  638SOL    HW212249   0.666   2.904   2.514 -0.2360 -1.4178  0.5169
  639SOL     OW12250   1.340   6.003   2.169  0.1567  0.6486 -0.4501
  639SOL    HW112251   1.327   5.912   2.129  0.4843  0.1448  0.5897
  639SOL    HW212252   1.253   6.036   2.205  0.4915 -0.1966  1.1580
  640SOL     OW12253   1.863   7.191   1.412  0.0979 -0.1139  0.3388
  640SOL    HW112254   1.941   7.240   1.452 -0.5721 -0.0311  1.5631
  640SOL    HW212255   1.885   7.094   1.405  0.8872  0.1411 -0.7460
  641SOL     OW12256   1.427   9.730   2.680  0.2679  0.3994  0.5394
  641SOL    HW112257   1.392   9.783   2.603  0.1545 -0.8701 -0.2839
  641SOL    HW212258   1.525   9.715   2.669  0.4564  1.1204  1.1806
  642SOL     OW12259   8.187   7.547   1.821  0.3389 -0.5032 -0.2719
  642SOL    HW112260   8.130   7.561   1.740  0.9470 -0.4834 -0.6955
  642SOL    HW212261   8.224   7.634   1.852 -0.8370 -0.3404  0.7298
  643SOL     OW12262   7.629   8.065   3.065  0.1310 -0.0657  0.1813
  643SOL    HW112263   7.553   8.069   3.000  0.0053  0.6875  0.3735
  643SOL    HW212264   7.614   7.989   3.128 -0.0916 -0.3775 -0.2444
  644SOL     OW12265   4.288   0.373   2.897  0.1478  0.2164  0.6573
  644SOL    HW112266   4.218   0.306   2.924 -2.1480  1.9417 -0.8519
  644SOL    HW212267   4.309   0.432   2.975 -0.8892  0.3677  0.8358
  645SOL     OW12268   3.798   5.310   2.053  0.1906  0.3998  0.3646
  645SOL    HW112269   3.851   5.227   2.073  0.3883  0.6410  0.8605
  645SOL    HW212270   3.824   5.345   1.964  1.0987  0.6859  0.7317
  646SOL     OW12271   4.375   8.071   2.346 -0.0091  0.6228 -0.4943
  646SOL    HW112272   4.367   8.116   2.435  1.3707 -0.8330  0.3878
  646SOL    HW212273   4.440   7.995   2.352 -3.0568 -2.2400 -1.6174
  647SOL     OW12274   9.935   4.149   1.782 -0.0275  0.1330  0.0088
  647SOL    HW112275   9.961   4.058   1.751  0.3040  0.4137 -0.5497
  647SOL    HW212276   9.935   4.212   1.704 -0.2738  0.6062  0.3868
  648SOL     OW12277   3.688   7.942   3.007 -0.1511 -0.8117 -0.3570
  648SOL    HW112278   3.649   8.028   2.972  1.6400 -0.4503 -1.5096
  648SOL    HW212279   3.646   7.865   2.960 -0.1972 -0.4777 -0.8620
  649SOL     OW12280   9.950   5.505   2.012  0.4722  0.4020 -0.1628
  649SOL    HW112281   9.991   5.472   1.926 -0.9349 -2.0830  0.0666
  649SOL    HW212282   9.982   5.449   2.088 -2.3243 -0.7966  0.1868
  650SOL     OW12283   9.111   2.859   2.042 -0.1464  0.3603  0.1441
  650SOL    HW112284   9.067   2.857   2.132 -1.1880  0.7202 -0.3452
  650SOL    HW212285   9.202   2.899   2.051 -0.9301  2.0971  0.7615
  651SOL     OW12286   8.709   4.656   2.528  0.0806  0.0421 -0.2541
  651SOL    HW112287   8.782   4.630   2.591 -0.0896  0.8634  0.2908
  651SOL    HW212288   8.725   4.612   2.440  2.4768  1.9671 -0.8496
  652SOL     OW12289   9.094   0.326   1.826 -0.0962  0.4486 -0.1329
  652SOL    HW112290   9.143   0.258   1.772  1.6552  1.0422  0.6836
  652SOL    HW212291   9.135   0.416   1.813 -1.3658  1.0799  0.0755
  653SOL     OW12292   0.561   5.209   1.923 -0.3380 -0.3128  0.0811
  653SOL    HW112293   0.510   5.262   1.991  2.1259  0.4107  1.4251
  653SOL    HW212294   0.574   5.116   1.956 -0.4226 -0.3777 -0.0693
  654SOL     OW12295   4.751   1.157   1.384 -0.3438 -0.8407  0.9860
  654SOL    HW112296   4.722   1.172   1.289  0.5569 -1.5638  0.5803
  654SOL    HW212297   4.756   1.058   1.401 -0.4197 -0.7113  1.7652
  655SOL     OW12298   9.614   4.951   0.840  0.4939  0.2775  0.0382
  655SOL    HW112299   9.696   4.896   0.858  1.4406  1.7104  0.2334
  655SOL    HW212300   9.592   4.947   0.743  1.0752  0.2540 -0.0966
  656SOL     OW12301   7.967   1.214   1.581 -0.7138 -0.1415 -0.2312
  656SOL    HW112302   7.995   1.275   1.654  0.2666 -0.7951 -0.0625
  656SOL    HW212303   7.965   1.120   1.614  2.4297 -0.8171 -1.7418
  657SOL     OW12304   2.100   5.272   0.937  0.0056  0.3369  0.2210
  657SOL    HW112305   2.035   5.315   0.874 -0.6285  1.9803  1.9706
  657SOL    HW212306   2.192   5.303   0.917 -0.0019 -0.3152 -0.8602
  658SOL     OW12307   1.526   5.122   1.527  0.6693 -0.3821  0.1234
  658SOL    HW112308   1.451   5.060   1.502  0.1683  0.7714 -1.3573
  658SOL    HW212309   1.497   5.217   1.512  2.0609  0.1251  0.5673
  659SOL     OW12310   3.603   4.971   3.440  0.5717  0.0580  0.4067
  659SOL    HW112311   3.624   5.045   3.503  0.0749  0.3385  0.2465
  659SOL    HW212312   3.508   4.941   3.453  1.0363 -1.1576  1.0820
  660SOL     OW12313   2.465   7.649   3.116  0.4360  0.2225  0.3016
  660SOL    HW112314   2.416   7.584   3.058  1.6552  0.4419 -1.0074
  660SOL    HW212315   2.460   7.740   3.075 -0.3300  0.7599  1.5592
  661SOL     OW12316   8.724   8.785   1.510 -0.1472 -0.4170  0.3484
  661SOL    HW112317   8.718   8.841   1.593  0.7483 -1.4849  1.1490
  661SOL    HW212318   8.685   8.695   1.528  3.1586 -1.8407  0.6837
  662SOL     OW12319   3.386   0.945   2.675 -0.5436 -0.3021  0.5936
  662SOL    HW112320   3.458   0.982   2.734 -0.1715  1.2829 -0.8155
  662SOL    HW212321   3.428   0.893   2.600 -0.9266 -0.4541  0.4840
  663SOL     OW12322   8.467   2.051   1.701  0.5335 -0.0367  0.1000
  663SOL    HW112323   8.456   1.955   1.725 -0.3214  0.3071  1.1013
  663SOL    HW212324   8.461   2.061   1.601  1.0876 -1.0697 -0.0467
  664SOL     OW12325   0.077   0.982   1.265  0.5682  0.6860 -0.7160
  664SOL    HW112326   0.047   1.070   1.228  0.6012 -0.0788 -2.5815
  664SOL    HW212327   0.163   0.995   1.314  0.9241  1.5725 -1.5572
  665SOL     OW12328   4.409   9.840   2.787 -0.1666  0.4891  0.0613
  665SOL    HW112329   4.333   9.806   2.731 -0.1950  0.1942  0.2786
  665SOL    HW212330   4.416   9.939   2.777 -0.0350  0.4084 -0.6371
  666SOL     OW12331   4.235   9.505   2.238 -0.2296 -0.2572  0.6291
  666SOL    HW112332   4.135   9.508   2.244 -0.2050  1.3994  0.3459
  666SOL    HW212333   4.270   9.433   2.298 -1.7343 -2.4232 -1.0362
  667SOL     OW12334   9.826   0.345   1.132 -0.3486  0.1405 -0.3115
  667SOL    HW112335   9.905   0.287   1.147 -0.0753  0.5542 -0.1643
  667SOL    HW212336   9.850   0.440   1.150 -0.2057  0.5701 -2.6021
  668SOL     OW12337   1.262   8.776   2.651  0.0964  0.0647  0.1314
  668SOL    HW112338   1.210   8.847   2.603 -2.5235 -1.4439  0.6509
  668SOL    HW212339   1.359   8.785   2.629 -0.3205  3.1030 -0.6927
  669SOL     OW12340   8.103   6.660   0.406 -0.1500 -0.8372  0.1784
  669SOL    HW112341   8.093   6.630   0.501  0.1930 -1.9383 -0.1312
  669SOL    HW212342   8.101   6.580   0.345  1.1479 -0.2713 -0.6255
  670SOL     OW12343   0.150   3.789   0.966  0.1162 -0.0379 -0.0300
  670SOL    HW112344   0.115   3.718   0.905  1.6988 -0.5639 -0.3696
  670SOL    HW212345   0.183   3.866   0.911 -2.5757  1.4487  0.3811
  671SOL     OW12346   8.845   4.451   0.725 -0.3737  0.1023  0.4373
  671SOL    HW112347   8.889   4.380   0.779 -0.4012  0.5588  1.0756
  671SOL    HW212348   8.889   4.539   0.745  0.5201  0.0622 -1.3173
  672SOL     OW12349   2.416   2.209   3.022 -0.3242  0.0051  0.0725
  672SOL    HW112350   2.337   2.166   3.067 -0.7550 -0.4209 -1.0815
  672SOL    HW212351   2.500   2.166   3.053 -0.5984 -0.0679  0.7153
  673SOL     OW12352   9.532   5.904   0.848  0.2934 -0.3212 -0.0989
  673SOL    HW112353   9.582   5.878   0.930  1.2046 -0.3868 -0.6642
  673SOL    HW212354   9.594   5.904   0.770  0.2190  2.9951 -0.2243
  674SOL     OW12355   3.696   4.790   2.793  0.5267 -0.7248 -0.3924
  674SOL    HW112356   3.779   4.736   2.808  0.7352 -0.3079 -0.0449
  674SOL    HW212357   3.650   4.757   2.710 -0.2652 -2.5520  0.7536
  675SOL     OW12358   6.712   9.314   2.910 -0.1817  0.4560 -0.1335
  675SOL    HW112359   6.727   9.406   2.877 -0.1415  0.7171  0.5968
  675SOL    HW212360   6.622   9.282   2.880  0.3769  0.1987 -1.5582
  676SOL     OW12361   9.791   5.131   0.664  0.1676  0.1093  0.3086
  676SOL    HW112362   9.809   5.135   0.566  1.6501 -0.4868  0.5539
  676SOL    HW212363   9.798   5.037   0.696 -3.3370 -0.1785  0.4448
  677SOL     OW12364   3.685   5.356   2.958 -0.0277 -0.1928  0.1953
  677SOL    HW112365   3.677   5.456   2.958 -2.6072 -0.3792  1.2168
  677SOL    HW212366   3.780   5.331   2.975  0.7172  2.0807 -0.3861
  678SOL     OW12367   2.283   4.683   2.869 -0.3922 -0.6191 -0.0789
  678SOL    HW112368   2.204   4.737   2.840  0.8475  1.5628  0.5008
  678SOL    HW212369   2.336   4.656   2.789  0.7787  1.8868 -0.1915
  679SOL     OW12370   0.614   5.043   1.128  0.2439 -0.7175  0.0881
  679SOL    HW112371   0.537   5.052   1.065 -1.6313  1.1018  2.4963
  679SOL    HW212372   0.615   4.951   1.167  0.2861 -1.2552 -1.1502
  680SOL     OW12373   3.286   1.721   1.199  0.3650 -0.1949 -0.2213
  680SOL    HW112374   3.255   1.702   1.293  2.6122 -0.6916  0.4489
  680SOL    HW212375   3.240   1.803   1.166 -1.0402 -0.4460  1.0331
  681SOL     OW12376   8.929   3.539   0.073 -0.6160  0.3202  0.2883
  681SOL    HW112377   8.950   3.450   0.032  2.4884  0.9659  0.3247
  681SOL    HW212378   8.910   3.527   0.170 -0.5871 -0.3752  0.2091
  682SOL     OW12379   3.481   9.900   1.219 -0.3414 -0.4243  0.2086
  682SOL    HW112380   3.579   9.885   1.233 -0.4188 -2.3785 -1.0849
  682SOL    HW212381   3.451   9.851   1.137 -2.2075  1.0001  0.0049
  683SOL     OW12382   3.511   1.370   3.362  0.1975  0.3118  0.4667
  683SOL    HW112383   3.546   1.317   3.439  1.0328  1.6368  1.0140
  683SOL    HW212384   3.420   1.404   3.384 -0.5236 -1.2002 -0.0496
  684SOL     OW12385   9.994   1.728   2.494  0.4095  0.2680 -0.1095
  684SOL    HW112386  10.039   1.817   2.501 -0.3426  0.7070 -0.7287
  684SOL    HW212387   9.901   1.735   2.531  0.6252 -0.4686  0.5852
  685SOL     OW12388   1.465   8.196   1.111  0.0846 -0.8435 -0.4829
  685SOL    HW112389   1.428   8.135   1.181 -0.6894  0.3522  0.1799
  685SOL    HW212390   1.414   8.283   1.113  1.6848  0.1227 -0.8561
  686SOL     OW12391   8.847   4.946   3.234  0.5426 -0.4086  0.1888
  686SOL    HW112392   8.859   5.001   3.316  0.1907 -0.3237  0.1825
  686SOL    HW212393   8.750   4.924   3.222  0.5113  0.0764 -0.5188
  687SOL     OW12394   8.953   0.036   0.392 -0.7192  0.3246 -0.7364
  687SOL    HW112395   9.035  -0.018   0.409 -1.3598  0.1392  2.1080
  687SOL    HW212396   8.899  -0.006   0.319  0.5156 -0.8962 -0.9568
  688SOL     OW12397   0.300   3.285   2.933  0.2130 -0.3764  0.0777
  688SOL    HW112398   0.223   3.245   2.883  0.1814 -1.4119  0.9442
  688SOL    HW212399   0.376   3.220   2.934  1.1861  0.7166 -0.9432
  689SOL     OW12400   2.112   5.959   0.877 -0.6981 -0.1078 -0.1365
  689SOL    HW112401   2.084   5.868   0.848 -0.3632 -0.6792  1.2735
  689SOL    HW212402   2.167   6.002   0.805  1.3005 -2.0477  0.1741
  690SOL     OW12403   3.778   8.503   2.189 -0.3341  0.2533  0.4417
  690SOL    HW112404   3.687   8.500   2.148  0.2945  2.4052 -1.1752
  690SOL    HW212405   3.831   8.424   2.160 -1.2415 -0.3128  0.3184
  691SOL     OW12406   1.974   2.992   2.152 -0.2095  0.3644 -0.7591
  691SOL    HW112407   1.984   2.897   2.179 -0.6066  1.0493  2.0123
  691SOL    HW212408   2.028   3.010   2.071  1.1587 -1.8288 -0.3654
  692SOL     OW12409   1.098   7.481   1.993  0.0537  0.4535  0.2238
  692SOL    HW112410   1.104   7.464   1.894 -1.3952 -0.6179  0.3124
  692SOL    HW212411   1.092   7.580   2.009 -1.0054  0.5749 -0.8483
  693SOL     OW12412   9.203   6.212   1.979  0.4364  0.0195  0.2583
  693SOL    HW112413   9.216   6.303   2.016  1.6809 -0.3159  0.6832
  693SOL    HW212414   9.287   6.183   1.932  0.1926 -1.0590  0.4720
  694SOL     OW12415   2.946   1.500   3.355 -0.1505  0.6597  0.3052
  694SOL    HW112416   2.906   1.446   3.282 -0.4924  1.2224  0.0764
  694SOL    HW212417   2.953   1.595   3.327  1.2479  0.5995  0.3757
  695SOL     OW12418   2.457   2.839   2.160  0.0756 -0.0354  0.0266
  695SOL    HW112419   2.436   2.759   2.103  2.4322  0.4635 -1.6407
  695SOL    HW212420   2.510   2.810   2.239 -1.8712 -0.5214  1.1911
  696SOL     OW12421   4.774   0.305   2.681  0.5621  0.3842  0.2951
  696SOL    HW112422   4.688   0.316   2.731  0.9246  1.5639  0.6602
  696SOL    HW212423   4.808   0.211   2.693  0.7456  0.7055  2.4096
  697SOL     OW12424   0.964   7.282   1.491  0.5778 -0.1950 -0.4943
  697SOL    HW112425   0.890   7.224   1.458  1.2185 -0.5087 -1.4245
  697SOL    HW212426   0.963   7.369   1.442  1.3638 -0.5530 -1.1713
  698SOL     OW12427   3.116   8.074   1.890 -0.7748 -0.1089 -0.3094
  698SOL    HW112428   3.041   8.007   1.890 -0.4324 -0.5729  2.5924
  698SOL    HW212429   3.203   8.027   1.878 -0.6612 -0.0121  0.1192
  699SOL     OW12430   0.811   1.154   0.636  0.4171 -0.3237  0.3938
  699SOL    HW112431   0.719   1.129   0.605 -0.3237  2.4663  0.1794
  699SOL    HW212432   0.839   1.095   0.711 -0.4971 -2.8616 -1.2115
  700SOL     OW12433   3.832   9.124   0.032  0.0527 -0.4257 -0.8781
  700SOL    HW112434   3.828   9.090  -0.062  0.9802 -0.0593 -1.0622
  700SOL    HW212435   3.924   9.161   0.050 -0.3409  0.1826 -0.0665
  701SOL     OW12436   7.294   8.101   2.715 -0.1728  0.6551 -0.1590
  701SOL    HW112437   7.295   8.198   2.739 -1.3179  0.4459  0.7976
  701SOL    HW212438   7.293   8.091   2.616 -0.4116  1.6296 -0.2588
  702SOL     OW12439   2.025   4.769   3.088  0.4039 -0.7452 -0.7821
  702SOL    HW112440   2.053   4.865   3.089 -3.7099  0.5551  0.5190
  702SOL    HW212441   1.949   4.757   3.024 -0.9914 -2.5088  1.1340
  703SOL     OW12442   0.510   4.318   0.236  0.0715  0.1063  0.3600
  703SOL    HW112443   0.416   4.291   0.214 -0.3468  1.5726  0.3230
  703SOL    HW212444   0.531   4.293   0.331  0.0762 -1.3522 -0.0109
  704SOL     OW12445   7.580   0.676   0.014 -0.6371  0.2049 -0.4365
  704SOL    HW112446   7.629   0.727  -0.056 -0.8120 -1.0018 -1.4523
  704SOL    HW212447   7.594   0.720   0.103  0.4500  1.1395 -1.0557
  705SOL     OW12448   0.785   5.552   2.554  0.4972 -0.8206  1.0365
  705SOL    HW112449   0.805   5.501   2.638  1.4101 -0.0506  1.3023
  705SOL    HW212450   0.858   5.618   2.538  0.4675 -1.1626 -0.5309
  706SOL     OW12451   0.833   5.438   2.804  0.0809  0.3254 -0.1980
  706SOL    HW112452   0.807   5.346   2.776  1.1359  0.2009 -0.7760
  706SOL    HW212453   0.926   5.458   2.773  0.1495  1.2973  0.5952
  707SOL     OW12454   5.090   7.816   2.485 -0.0353  0.3031 -0.1259
  707SOL    HW112455   5.028   7.739   2.503 -1.4438  1.2820 -0.6914
  707SOL    HW212456   5.056   7.898   2.531  1.7561  0.4827  0.9231
  708SOL     OW12457   2.487   4.357   1.579 -0.5835 -0.0475 -0.3566
  708SOL    HW112458   2.460   4.380   1.486 -1.6112 -1.8777 -0.5364
  708SOL    HW212459   2.537   4.271   1.579  0.7736  0.7253  0.6121
  709SOL     OW12460   7.505   0.294   0.537 -0.3337  0.6680 -0.3382
  709SOL    HW112461   7.586   0.235   0.540 -0.7156  0.1502 -0.2851
  709SOL    HW212462   7.526   0.376   0.482 -0.3899 -0.4106 -2.0075
  710SOL     OW12463   2.407   0.698   1.129 -0.0569  0.0830  0.2984
  710SOL    HW112464   2.434   0.737   1.041  0.4726 -1.7117 -0.3474
  710SOL    HW212465   2.477   0.718   1.197  0.6187 -0.4575 -0.2335
  711SOL     OW12466   0.176   0.826   0.733  0.5339 -0.1021 -0.2408
  711SOL    HW112467   0.193   0.816   0.635 -0.2577 -0.2570 -0.3677
  711SOL    HW212468   0.137   0.917   0.752  3.2157  0.9717  0.2892
  712SOL     OW12469   1.492   0.155   1.937  0.3319  0.1737 -0.0645
  712SOL    HW112470   1.491   0.253   1.914  2.0010 -0.1289 -1.5647
  712SOL    HW212471   1.407   0.113   1.907 -1.0145  1.4257  1.8880
  713SOL     OW12472   9.319   5.234   1.994 -0.2335  0.5575 -0.2557
  713SOL    HW112473   9.222   5.219   1.976  0.0159 -0.8176 -0.4683
  713SOL    HW212474   9.373   5.162   1.951  0.9060  1.4162 -0.3066
  714SOL     OW12475   9.963   7.308   1.316 -0.3179 -0.3556 -0.0059
  714SOL    HW112476   9.905   7.281   1.394 -0.5014  0.3255  0.0933
  714SOL    HW212477   9.953   7.240   1.243  0.0400 -1.1292  0.6550
  715SOL     OW12478   4.022   1.203   2.124  0.1993  0.9508 -0.6413
  715SOL    HW112479   4.047   1.165   2.036  0.0303 -0.2781 -0.1654
  715SOL    HW212480   4.103   1.239   2.170  0.4135  0.8246 -0.9238
  716SOL     OW12481   7.943   7.137   2.635  0.1583 -0.4695 -0.4019
  716SOL    HW112482   7.979   7.163   2.725  0.1389 -2.0394  0.0854
  716SOL    HW212483   7.902   7.046   2.641 -1.4230  0.1512 -1.6065
  717SOL     OW12484   3.455   9.987   2.232  0.6267  1.0810  0.0637
  717SOL    HW112485   3.387   9.914   2.234  1.0039  0.7483  2.6219
  717SOL    HW212486   3.413  10.073   2.262  1.0092  1.1422  0.4404
  718SOL     OW12487   2.532   4.815   0.615 -0.6595 -0.4052  0.1971
  718SOL    HW112488   2.578   4.792   0.701  0.8691 -1.7990 -0.9406
  718SOL    HW212489   2.447   4.763   0.608 -0.4526 -0.8037  0.5902
  719SOL     OW12490   4.214   8.340   2.901  0.1597 -0.0328  0.6497
  719SOL    HW112491   4.272   8.267   2.939  0.5318 -0.0822 -0.0083
  719SOL    HW212492   4.118   8.322   2.925  0.2973 -0.5182  0.8441
  720SOL     OW12493   3.284   0.342   0.736  0.3935  0.5448 -0.5796
  720SOL    HW112494   3.197   0.365   0.780  0.6924  1.9867 -0.7267
  720SOL    HW212495   3.332   0.426   0.710  2.0473 -0.2273 -0.0937
  721SOL     OW12496   8.352   2.738   0.233  0.1430  0.5109 -0.3589
  721SOL    HW112497   8.276   2.761   0.294  0.6113  0.7711  0.1327
  721SOL    HW212498   8.433   2.716   0.287 -0.0136 -1.3200 -0.8548
  722SOL     OW12499   7.166   9.769   3.035  0.0089 -0.1480 -0.3021
  722SOL    HW112500   7.162   9.783   3.134  0.9361 -1.9181  0.0239
  722SOL    HW212501   7.103   9.696   3.009 -0.2559  0.3346 -1.0252
  723SOL     OW12502   3.173   1.375   1.224 -0.4110  0.4666  0.2197
  723SOL    HW112503   3.246   1.309   1.240 -1.0848 -0.3180  0.0860
  723SOL    HW212504   3.144   1.370   1.128 -2.0099 -0.6611  0.7318
  724SOL     OW12505   8.006   1.195   2.215 -0.3682  0.2934  0.3894
  724SOL    HW112506   7.986   1.104   2.250  0.8799  0.1529  0.7757
  724SOL    HW212507   8.104   1.203   2.196 -0.7708  0.8959 -1.5716
  725SOL     OW12508   1.936   6.451   0.276 -0.1523  0.3147  0.4742
  725SOL    HW112509   1.968   6.476   0.184  0.6234  0.5882  0.8157
  725SOL    HW212510   1.862   6.513   0.303 -1.0495 -0.3777 -0.3545
  726SOL     OW12511   4.050   9.057   0.684 -0.2135  0.1613 -0.0403
  726SOL    HW112512   3.958   9.089   0.707  0.1195 -0.0868  1.7000
  726SOL    HW212513   4.111   9.136   0.676 -0.2321  0.2290  0.4336
  727SOL     OW12514   9.466   3.075   2.658  0.1302  0.3405  0.0465
  727SOL    HW112515   9.440   3.087   2.562  0.1615  0.2451  0.0264
  727SOL    HW212516   9.510   2.986   2.670  1.9879  1.1999 -0.2331
  728SOL     OW12517   3.319   7.527   1.565  0.1769 -0.1961  0.1476
  728SOL    HW112518   3.228   7.533   1.605 -0.6588  0.8851 -1.8552
  728SOL    HW212519   3.363   7.617   1.568 -0.9421  0.5746 -3.6585
  729SOL     OW12520   5.422   2.457   1.569 -0.3671 -0.5451  0.0364
  729SOL    HW112521   5.390   2.546   1.601  1.7551 -0.3492  1.7021
  729SOL    HW212522   5.346   2.392   1.571 -1.2542  0.5074  1.5405
  730SOL     OW12523   9.725   2.431   0.327  0.4855  1.1243  0.5603
  730SOL    HW112524   9.747   2.380   0.244 -3.3224 -1.2424  0.9004
  730SOL    HW212525   9.798   2.418   0.394  1.7154 -0.1726 -0.9914
  731SOL     OW12526   3.541   2.574   1.705  0.5046 -0.4591  0.0682
  731SOL    HW112527   3.458   2.539   1.748  1.5267 -2.9144  0.1038
  731SOL    HW212528   3.621   2.547   1.758  1.3564  1.8140 -0.0142
  732SOL     OW12529   9.778   1.061   0.825 -0.2664 -0.3700  0.0516
  732SOL    HW112530   9.794   1.038   0.921 -0.2175 -1.3443 -0.1816
  732SOL    HW212531   9.751   1.157   0.817 -0.5803 -0.3737  1.0674
  733SOL     OW12532   3.425   7.981   1.930 -0.1602 -0.1286 -0.5440
  733SOL    HW112533   3.379   7.903   1.972 -1.2837 -0.0399 -1.5581
  733SOL    HW212534   3.509   8.002   1.980  0.0509 -1.8565 -0.1541
  734SOL     OW12535   9.099   9.251   1.696 -0.0046 -0.4043  0.1747
  734SOL    HW112536   9.040   9.207   1.628 -0.9375  1.1054 -0.0338
  734SOL    HW212537   9.162   9.314   1.649 -1.2321  1.2920  0.7398
  735SOL     OW12538   2.726   0.436   1.553  0.1340 -0.8757 -0.4265
  735SOL    HW112539   2.762   0.364   1.611 -1.2034 -0.4937  0.9074
  735SOL    HW212540   2.763   0.426   1.460  2.4106 -1.3970  0.5063
  736SOL     OW12541   8.986   9.648   0.301  0.3512 -0.4172  0.0371
  736SOL    HW112542   9.007   9.553   0.322  1.4755 -0.0067  0.8038
  736SOL    HW212543   9.060   9.707   0.334  0.5151  0.5622 -1.9968
  737SOL     OW12544   4.274   2.915   1.260 -0.2171  0.0554  0.2192
  737SOL    HW112545   4.327   2.832   1.275  2.7704  1.9237  0.4285
  737SOL    HW212546   4.326   2.978   1.202 -2.0195  2.1737  0.8289
  738SOL     OW12547   3.406   1.992   3.262  0.5890 -0.1296  0.5520
  738SOL    HW112548   3.473   1.980   3.189 -1.5159 -0.7039 -1.3377
  738SOL    HW212549   3.453   2.023   3.345  3.1753 -0.5476 -0.6907
  739SOL     OW12550   9.146   2.191   2.770 -0.3278  0.2544 -0.6893
  739SOL    HW112551   9.070   2.152   2.718 -0.2072 -0.3785 -0.3911
  739SOL    HW212552   9.223   2.127   2.771  0.2911  0.9734 -1.1582
  740SOL     OW12553   2.865   1.484   0.201  0.1831 -0.1215  0.1087
  740SOL    HW112554   2.890   1.485   0.104  0.5759 -1.0434  0.2019
  740SOL    HW212555   2.823   1.572   0.225 -0.3062 -0.0445 -0.9980
  741SOL     OW12556   1.610   7.863   3.082 -0.3118 -0.3012  0.3023
  741SOL    HW112557   1.587   7.890   3.176  4.1865  0.8787  1.1654
  741SOL    HW212558   1.611   7.944   3.023 -0.5537 -0.6534 -0.1913
  742SOL     OW12559   0.684   5.144   3.333  0.5627 -0.4697  0.4208
  742SOL    HW112560   0.741   5.099   3.402  2.2755 -0.2762 -0.8236
  742SOL    HW212561   0.742   5.201   3.275 -0.8721 -0.5628 -1.1323
  743SOL     OW12562   3.089   3.698   0.442 -0.2834 -0.2300 -0.0236
  743SOL    HW112563   3.060   3.794   0.446 -1.7475 -0.5871 -1.5492
  743SOL    HW212564   3.111   3.674   0.347  1.9995 -0.8741  0.6289
  744SOL     OW12565   8.711   6.465   0.920 -0.4552 -0.5097 -0.1024
  744SOL    HW112566   8.621   6.432   0.892 -0.6159 -1.7510  1.8287
  744SOL    HW212567   8.782   6.403   0.885 -0.3207  0.3840 -1.4911
  745SOL     OW12568   1.328   0.754   1.989 -0.1995 -0.5602 -0.5692
  745SOL    HW112569   1.422   0.785   1.998 -0.5754  0.3505  0.2937
  745SOL    HW212570   1.311   0.679   2.054 -0.3476 -0.0663 -0.0380
  746SOL     OW12571   9.224   9.864   0.136  0.6829 -0.4655  0.1537
  746SOL    HW112572   9.143   9.876   0.078  1.1664  0.9047 -0.2542
  746SOL    HW212573   9.209   9.909   0.224  0.6887 -0.9140  0.3870
  747SOL     OW12574   8.629   4.853   2.733  0.0456 -0.6241 -0.4938
  747SOL    HW112575   8.624   4.815   2.640 -0.4979  0.7221 -1.0413
  747SOL    HW212576   8.704   4.810   2.783  0.1779 -1.5582 -1.4775
  748SOL     OW12577   9.330   6.020   0.672 -0.2522 -0.1526 -0.8112
  748SOL    HW112578   9.351   5.997   0.577  2.5167  2.3369 -0.8667
  748SOL    HW212579   9.394   5.972   0.733  1.5801  2.4305 -0.5926
  749SOL     OW12580   8.690   8.157   2.460 -0.3965 -0.0748  0.1205
  749SOL    HW112581   8.658   8.220   2.389 -0.1984  1.2352  1.1606
  749SOL    HW212582   8.611   8.117   2.507 -0.5251 -1.0301 -0.9174
  750SOL     OW12583   9.362   3.977   2.532  0.2938 -0.3854  0.5746
  750SOL    HW112584   9.459   3.995   2.517  0.4471 -2.2437 -0.7748
  750SOL    HW212585   9.318   4.061   2.565  2.1151  0.7922  0.1128
  751SOL     OW12586   3.184   7.753   2.353 -0.4000  0.1582  0.7224
  751SOL    HW112587   3.267   7.709   2.319 -0.0766  1.4979 -0.2873
  751SOL    HW212588   3.106   7.694   2.338  0.1407 -0.4179  0.1693
  752SOL     OW12589   2.094   0.244   0.455  0.3342 -0.3690 -0.0562
  752SOL    HW112590   2.004   0.202   0.467 -0.4579  1.1196 -0.7185
  752SOL    HW212591   2.131   0.268   0.545  0.6372 -2.1186  0.3082
  753SOL     OW12592   3.210   7.240   0.553  0.0308  0.9121  0.0534
  753SOL    HW112593   3.175   7.250   0.646  0.8810 -1.7370  0.6981
  753SOL    HW212594   3.137   7.260   0.487 -1.4059  0.0295  1.3395
  754SOL     OW12595   3.255   3.052   0.283 -0.0907  0.2600  0.0772
  754SOL    HW112596   3.334   3.002   0.319 -0.0065  0.6031  0.3823
  754SOL    HW212597   3.252   3.043   0.184 -1.1387 -1.8828  0.2928
  755SOL     OW12598   4.086   7.765   1.201  0.2457 -0.2898  0.3392
  755SOL    HW112599   4.026   7.691   1.169  0.7012 -0.4478 -0.1603
  755SOL    HW212600   4.030   7.845   1.226 -0.0659  0.1516 -1.6794
  756SOL     OW12601   7.954   0.949   1.648 -0.7223 -0.3652  0.6746
  756SOL    HW112602   7.970   0.908   1.559  1.0697 -0.3524  0.9755
  756SOL    HW212603   7.979   0.884   1.720  0.4363  0.5969  1.1578
  757SOL     OW12604   5.062   3.236   2.526 -0.2888 -0.6316 -0.2299
  757SOL    HW112605   5.008   3.155   2.505 -0.7691 -0.1590 -0.8039
  757SOL    HW212606   5.004   3.305   2.569  0.0707 -0.5051  0.0532
  758SOL     OW12607   0.187   1.513   2.556 -0.8560  0.6733 -0.3016
  758SOL    HW112608   0.144   1.428   2.526  0.4305 -0.5299  1.2189
  758SOL    HW212609   0.119   1.587   2.554 -2.0434 -0.4365 -1.3876
  759SOL     OW12610   9.719   5.255   3.189 -0.2561 -0.3005  0.1475
  759SOL    HW112611   9.693   5.275   3.095 -1.7422 -0.5404  0.4858
  759SOL    HW212612   9.798   5.311   3.215 -0.8784  0.9957 -0.6994
  760SOL     OW12613   7.650   9.828   2.293  0.1289 -0.0296  0.6489
  760SOL    HW112614   7.690   9.855   2.381 -2.1377  0.3710  1.5787
  760SOL    HW212615   7.720   9.833   2.222  2.4102 -1.8712  2.6877
  761SOL     OW12616   8.613   6.684   2.715  0.2144  0.4304  0.5652
  761SOL    HW112617   8.553   6.722   2.786  1.4357 -0.4094  2.0823
  761SOL    HW212618   8.577   6.707   2.625 -1.6084  1.1511  1.4564
  762SOL     OW12619   8.474   0.788   2.190  0.5078  0.2588 -0.1321
  762SOL    HW112620   8.417   0.706   2.182  1.7238 -0.5392 -0.8667
  762SOL    HW212621   8.418   0.870   2.173 -1.4133 -0.1712  3.5666
  763SOL     OW12622   2.878   7.449   0.096 -0.1254  0.1507 -0.2220
  763SOL    HW112623   2.803   7.504   0.134 -0.8899 -1.0628  0.0612
  763SOL    HW212624   2.965   7.484   0.130 -0.6790  0.4243  0.9480
  764SOL     OW12625   1.858   2.196   0.980 -0.3075  0.3738  0.3032
  764SOL    HW112626   1.785   2.134   1.009 -1.3140  0.7252 -1.3784
  764SOL    HW212627   1.943   2.144   0.969 -0.6643 -0.3333  0.8294
  765SOL     OW12628   1.149   9.687   1.182  0.0400  0.0441 -0.2306
  765SOL    HW112629   1.076   9.619   1.176  0.1934 -0.3263  1.7551
  765SOL    HW212630   1.169   9.723   1.091 -2.2034 -0.2813 -0.8821
  766SOL     OW12631   1.476   7.991   3.306  0.0321  0.0055 -0.3158
  766SOL    HW112632   1.491   8.070   3.364  1.5241 -0.2534 -0.3177
  766SOL    HW212633   1.433   7.918   3.359 -1.6186  0.9173 -0.3960
  767SOL     OW12634   2.969   4.500   1.163  0.0784 -0.2038 -0.2536
  767SOL    HW112635   2.916   4.416   1.162  0.2684 -0.3341  0.3881
  767SOL    HW212636   2.915   4.573   1.205 -0.3730  0.1918 -1.5002
  768SOL     OW12637   4.243   1.770   1.640  0.2344  0.0137 -0.3997
  768SOL    HW112638   4.306   1.694   1.621  1.1789  0.9288 -0.9775
  768SOL    HW212639   4.290   1.841   1.692 -0.3722  0.6192 -0.6642
  769SOL     OW12640   1.279   0.022   3.317 -0.1732 -0.4688  0.3505
  769SOL    HW112641   1.207   0.031   3.248  1.4224  0.4000 -1.2593
  769SOL    HW212642   1.300   0.112   3.355  0.2317 -0.6737  0.6089
  770SOL     OW12643   0.296   7.545   2.804  0.0303 -0.2959 -0.8453
  770SOL    HW112644   0.284   7.462   2.859  0.2109 -0.2975 -0.8069
  770SOL    HW212645   0.220   7.608   2.822  0.5157  0.0529  0.0366
  771SOL     OW12646   3.065   0.278   2.320  0.2216  0.8526  0.0073
  771SOL    HW112647   3.050   0.281   2.419 -0.7857  2.4336 -0.1706
  771SOL    HW212648   3.163   0.281   2.301  0.4346  0.2032  0.9551
  772SOL     OW12649   1.989   0.926   3.041 -0.6857  0.1204  0.2453
  772SOL    HW112650   1.992   0.977   2.955 -0.8947 -2.3227 -1.2466
  772SOL    HW212651   1.917   0.857   3.036  1.0138 -1.7609  1.3750
  773SOL     OW12652   0.345   1.278   3.084 -0.8245  0.4014  0.3166
  773SOL    HW112653   0.280   1.206   3.102  0.2963 -0.0790  2.5878
  773SOL    HW212654   0.306   1.367   3.110 -0.0729 -0.0426  3.1440
  774SOL     OW12655   7.967   1.979   1.732  0.2331  0.7164  0.1073
  774SOL    HW112656   7.916   1.954   1.814  0.9655 -1.5399 -0.1038
  774SOL    HW212657   7.905   1.987   1.654 -0.0687  0.0961  0.2902
  775SOL     OW12658   0.815   8.964   0.042  0.5072  0.1853  0.7119
  775SOL    HW112659   0.756   8.951   0.122 -0.1169  0.7139  0.3440
  775SOL    HW212660   0.790   8.897  -0.028  0.3285  0.4242  0.5476
  776SOL     OW12661   9.607   3.611   0.685 -0.3794  0.3218 -0.7084
  776SOL    HW112662   9.618   3.671   0.606 -0.2276  0.2076 -0.7756
  776SOL    HW212663   9.683   3.545   0.687  0.2713  1.0872  0.2066
  777SOL     OW12664   0.157   1.488   3.054 -0.1981  0.8806  0.4153
  777SOL    HW112665   0.074   1.499   2.999 -1.0871 -1.0554  1.3242
  777SOL    HW212666   0.213   1.570   3.046 -0.2563  0.6413 -3.4199
  778SOL     OW12667   9.610   2.132   1.696  0.4501 -0.3009 -0.3248
  778SOL    HW112668   9.604   2.179   1.608 -0.8238 -1.5667 -0.9319
  778SOL    HW212669   9.702   2.094   1.707  0.2475 -1.2096 -1.6685
  779SOL     OW12670   4.743   8.627   1.401  0.1005  0.5863 -0.4150
  779SOL    HW112671   4.789   8.569   1.468  0.9973  1.3034 -0.3894
  779SOL    HW212672   4.787   8.618   1.312 -0.7005  0.1019 -0.7681
  780SOL     OW12673   9.392   4.127   2.814 -0.1084  0.0076  0.6463
  780SOL    HW112674   9.479   4.079   2.819 -0.8584 -1.1856  2.7898
  780SOL    HW212675   9.388   4.180   2.729  2.5800 -0.1067  0.4139
  781SOL     OW12676   9.535   3.133   0.957  0.5463 -0.0587  0.3843
  781SOL    HW112677   9.488   3.052   0.991  1.3292  0.2099  2.1735
  781SOL    HW212678   9.498   3.159   0.868 -1.7030 -0.6715  1.1213
  782SOL     OW12679   1.904   4.113   1.011 -0.3268 -0.1081 -0.0553
  782SOL    HW112680   1.875   4.018   1.017  0.1983 -0.2331  0.5210
  782SOL    HW212681   1.853   4.169   1.076  0.1572 -0.1884  0.3920
  783SOL     OW12682   3.921   2.749   1.505  0.1982  0.4277 -0.7002
  783SOL    HW112683   3.910   2.731   1.407  1.3252  1.0959 -0.9617
  783SOL    HW212684   3.869   2.831   1.529  0.4946  0.6745 -0.8920
  784SOL     OW12685   1.424   0.394   0.835  0.0615 -0.1044  0.1995
  784SOL    HW112686   1.512   0.440   0.846 -0.0514  0.1345  0.0924
  784SOL    HW212687   1.430   0.302   0.876  1.0385 -0.9531 -1.7984
  785SOL     OW12688   9.270   2.250   0.518  0.3137  0.0892 -0.8770
  785SOL    HW112689   9.315   2.284   0.435  0.6690 -0.0640 -0.7454
  785SOL    HW212690   9.321   2.281   0.598  0.1654 -0.0591 -0.7272
  786SOL     OW12691   9.095   0.538   1.597 -0.3343 -0.2070  0.2202
  786SOL    HW112692   9.055   0.557   1.507 -1.1453  1.1144  0.8487
  786SOL    HW212693   9.035   0.574   1.668 -0.0868 -1.9358  1.3379
  787SOL     OW12694   0.288   8.848   0.126 -0.5424  0.0292 -0.0765
  787SOL    HW112695   0.223   8.905   0.076 -1.5079 -1.3562 -0.4368
  787SOL    HW212696   0.324   8.777   0.065 -2.5530 -2.3478  1.4224
  788SOL     OW12697   4.775   4.110   1.011 -0.2847  0.3752  0.2194
  788SOL    HW112698   4.846   4.071   1.070 -0.3475  0.0939  0.1077
  788SOL    HW212699   4.751   4.201   1.044  1.7343  1.3949 -1.0359
  789SOL     OW12700   7.410   8.157   1.982 -0.4432  0.3559 -0.1754
  789SOL    HW112701   7.314   8.170   1.956  0.2403  1.5797 -2.1897
  789SOL    HW212702   7.416   8.139   2.081 -2.8675 -1.3762 -0.2960
  790SOL     OW12703   1.183   9.954   2.908  0.3336  0.3406 -0.5428
  790SOL    HW112704   1.225  10.021   2.847 -2.9549  0.1754 -3.1513
  790SOL    HW212705   1.140  10.001   2.985  3.0541  0.6902  0.8155
  791SOL     OW12706   3.989   4.096   0.726  0.1108 -0.0981  0.6483
  791SOL    HW112707   3.969   4.124   0.632 -3.7061  1.2736  1.7676
  791SOL    HW212708   3.984   3.996   0.733  2.0229 -0.3337 -0.8867
  792SOL     OW12709   9.485   1.551   1.890  0.5553 -0.0176 -0.2473
  792SOL    HW112710   9.532   1.612   1.953 -0.2622 -0.1273  0.4822
  792SOL    HW212711   9.538   1.542   1.805  1.3942  0.5441  0.2169
  793SOL     OW12712   9.716   8.480   2.694 -0.0622 -0.8350 -0.0561
  793SOL    HW112713   9.619   8.490   2.674 -0.2261 -0.7176  0.8046
  793SOL    HW212714   9.768   8.543   2.636 -0.5142 -0.6863 -0.3013
  794SOL     OW12715   0.770   3.830   2.503 -0.4107  0.0177 -0.4897
  794SOL    HW112716   0.726   3.867   2.421 -0.4319  0.1960 -0.3999
  794SOL    HW212717   0.869   3.835   2.493 -0.3490 -3.1361 -1.9351
  795SOL     OW12718   1.164   9.911   1.358  0.1397 -0.0148  0.1172
  795SOL    HW112719   1.200   9.988   1.304  2.4488 -0.3886  1.0282
  795SOL    HW212720   1.160   9.829   1.302 -0.9679  0.4395 -0.4722
  796SOL     OW12721   8.508   9.266   0.861 -0.1317  0.2198 -0.4913
  796SOL    HW112722   8.587   9.231   0.911  0.8280  1.2795 -1.2562
  796SOL    HW212723   8.437   9.195   0.858  0.5017 -0.4874  0.7916
  797SOL     OW12724   0.396   6.681   1.152  0.4160  0.2908 -0.1148
  797SOL    HW112725   0.458   6.759   1.146  0.4313  0.3216  0.4123
  797SOL    HW212726   0.446   6.597   1.131 -0.0575  0.6063 -2.7280
  798SOL     OW12727   9.882   7.070   1.162 -0.8118 -0.9963 -0.3861
  798SOL    HW112728   9.954   7.008   1.191 -0.9860 -0.7601  0.5578
  798SOL    HW212729   9.812   7.019   1.112 -0.7535 -1.4835  0.0317
  799SOL     OW12730   3.466   3.313   2.268 -0.0133  0.0537 -0.5637
  799SOL    HW112731   3.374   3.349   2.283 -1.3463 -3.5371  0.2911
  799SOL    HW212732   3.468   3.263   2.182  0.8693 -0.7627 -0.0678
  800SOL     OW12733   0.622   3.126   2.265 -0.0172  0.0765 -0.1591
  800SOL    HW112734   0.711   3.107   2.222 -0.0555 -0.3878 -0.0282
  800SOL    HW212735   0.616   3.077   2.352 -0.8334 -0.7403 -0.6771
  801SOL     OW12736   8.744   2.096   1.717 -0.2694  0.1147  0.2829
  801SOL    HW112737   8.651   2.061   1.729 -0.8576  1.6192  0.3020
  801SOL    HW212738   8.785   2.056   1.635 -1.0093 -0.3982  0.1601
  802SOL     OW12739   0.430   9.348   2.092  0.1470 -0.5440  0.4719
  802SOL    HW112740   0.452   9.253   2.110  1.6717 -0.5915 -1.3985
  802SOL    HW212741   0.514   9.403   2.093 -0.8143  0.9706  2.4568
  803SOL     OW12742   1.241   9.535   2.510 -0.1029  0.0331 -0.0756
  803SOL    HW112743   1.226   9.577   2.599 -1.6124 -1.0085  0.1813
  803SOL    HW212744   1.252   9.606   2.441  1.7745  0.8618  1.0150
  804SOL     OW12745   0.397   1.953   1.611  0.6582 -0.4115  0.4039
  804SOL    HW112746   0.488   1.983   1.642  0.7207  0.0102 -0.1689
  804SOL    HW212747   0.327   2.012   1.650  0.9030  1.6016 -2.0874
  805SOL     OW12748   8.767   9.484   0.165 -0.1945  0.2613  0.2105
  805SOL    HW112749   8.779   9.385   0.162  0.7096  0.3751 -0.1862
  805SOL    HW212750   8.845   9.525   0.212  0.7751  0.9976 -1.9994
  806SOL     OW12751   8.418   5.428   3.345 -0.4592  0.1683  0.2049
  806SOL    HW112752   8.433   5.526   3.356  0.0793 -0.0792  1.7652
  806SOL    HW212753   8.385   5.390   3.431  2.6497 -1.6373  0.6464
  807SOL     OW12754   9.965   0.142   1.906 -0.2007  0.3669  0.3716
  807SOL    HW112755   9.909   0.085   1.845  0.1452 -0.1512  0.5440
  807SOL    HW212756  10.018   0.084   1.967  1.0011  0.8401 -0.2003
  808SOL     OW12757   0.136   0.419   1.683 -0.1823  0.2794  0.0033
  808SOL    HW112758   0.166   0.403   1.589  0.0580  0.8771 -0.0250
  808SOL    HW212759   0.049   0.373   1.699 -1.0311  1.5075 -1.0039
  809SOL     OW12760   0.186   9.224   2.707 -0.2144  0.3840 -0.0526
  809SOL    HW112761   0.279   9.260   2.717  0.0938 -0.3063 -0.3889
  809SOL    HW212762   0.139   9.272   2.633  0.3385 -0.1709 -0.7810
  810SOL     OW12763   0.139   7.300   3.361  0.2633 -0.0015  0.3435
  810SOL    HW112764   0.139   7.397   3.383  1.3911 -0.1036  0.8504
  810SOL    HW212765   0.161   7.247   3.443 -1.1635 -0.7352  0.2586
  811SOL     OW12766   8.888   7.671   1.224  0.1878 -0.2943 -0.1837
  811SOL    HW112767   8.923   7.753   1.178  0.3495 -2.0443 -3.3883
  811SOL    HW212768   8.788   7.670   1.218  0.0612  0.6491  1.6505
  812SOL     OW12769   1.597   5.418   1.571  0.3796 -0.5157  0.2715
  812SOL    HW112770   1.672   5.420   1.638 -1.3386 -0.2900  2.2563
  812SOL    HW212771   1.617   5.482   1.497  2.2157 -0.5680  0.6909
  813SOL     OW12772   1.840   5.162   0.178 -0.4120  0.3316  0.1396
  813SOL    HW112773   1.849   5.134   0.273  1.1694  0.0698 -0.0782
  813SOL    HW212774   1.813   5.083   0.122 -2.9532  0.8346  0.5937
  814SOL     OW12775   1.816   4.943   2.936  0.3446 -0.3529  0.2485
  814SOL    HW112776   1.786   5.027   2.891 -0.5101 -0.0614  1.3145
  814SOL    HW212777   1.809   4.955   3.035 -1.5112 -2.2756  0.3948
  815SOL     OW12778   4.295   0.403   1.160  0.2204 -0.4317  0.3617
  815SOL    HW112779   4.344   0.412   1.247  0.6599  0.5805  0.0200
  815SOL    HW212780   4.361   0.404   1.085 -0.3055  0.8578 -0.0977
  816SOL     OW12781   4.663   9.365   2.793 -0.0930 -0.0177  0.1372
  816SOL    HW112782   4.713   9.278   2.791  1.5142  0.9164 -1.5396
  816SOL    HW212783   4.691   9.421   2.715 -2.6291  1.1883  0.0767
  817SOL     OW12784   4.345   8.401   2.658  0.3169 -0.0137  0.1847
  817SOL    HW112785   4.306   8.376   2.747 -0.3335  0.3304 -0.0037
  817SOL    HW212786   4.329   8.498   2.641 -0.9299 -0.4089 -1.0007
  818SOL     OW12787   1.519   7.265   0.730 -0.2714  0.2073 -0.2121
  818SOL    HW112788   1.550   7.357   0.706  0.4804  0.9702  3.2762
  818SOL    HW212789   1.439   7.271   0.789  0.7886 -1.2722  1.4454
  819SOL     OW12790   9.447   4.327   0.242  0.2265 -0.4536  0.3965
  819SOL    HW112791   9.488   4.377   0.166  0.3761 -2.9074 -1.1672
  819SOL    HW212792   9.515   4.267   0.284 -0.6381 -1.3719  0.5169
  820SOL     OW12793   1.815   6.266   1.220 -0.4972 -0.3322 -0.2898
  820SOL    HW112794   1.853   6.264   1.128  1.5325  1.1881  0.4953
  820SOL    HW212795   1.717   6.288   1.214 -0.6609 -1.3999 -2.1262
  821SOL     OW12796   2.230   8.443   2.029  0.4158  0.0465  0.0037
  821SOL    HW112797   2.225   8.344   2.019 -0.1772  0.1670 -1.0061
  821SOL    HW212798   2.160   8.474   2.093  2.4141 -0.4504  2.5144
  822SOL     OW12799   9.507   2.802   2.821 -0.6733  0.1218 -0.2796
  822SOL    HW112800   9.416   2.843   2.823 -1.7090 -2.1335 -0.0648
  822SOL    HW212801   9.538   2.783   2.915 -0.2044  0.3912 -0.3765
  823SOL     OW12802   9.068   5.395   2.334  0.1284 -0.4694  0.6275
  823SOL    HW112803   8.974   5.364   2.316 -0.5002  1.0822  1.1410
  823SOL    HW212804   9.102   5.445   2.254 -0.4204  1.1102  1.3400
  824SOL     OW12805   1.192   4.550   2.002 -0.6367  0.2825  0.0021
  824SOL    HW112806   1.102   4.550   2.046 -0.6049  0.8235  0.0757
  824SOL    HW212807   1.263   4.543   2.073 -0.6592 -2.9373 -0.2009
  825SOL     OW12808   2.108   4.654   1.226  0.3239 -0.4474 -0.2378
  825SOL    HW112809   2.115   4.743   1.180 -2.3871  0.0230  0.2048
  825SOL    HW212810   2.102   4.669   1.325 -1.4804 -1.0324 -0.2514
  826SOL     OW12811   0.895   7.028   1.106 -0.8883  0.7523  0.7005
  826SOL    HW112812   0.949   6.996   1.029 -0.0654  1.2550  1.0609
  826SOL    HW212813   0.837   7.104   1.076 -0.3818  1.1140  0.6364
  827SOL     OW12814   8.914   6.692   2.715  0.1083 -0.1471 -0.2606
  827SOL    HW112815   8.824   6.678   2.673 -0.0627 -0.9487  0.3554
  827SOL    HW212816   8.903   6.702   2.814  0.5727  1.0341 -0.3300
  828SOL     OW12817   4.455   0.845   2.301 -0.1010 -0.2333  0.3175
  828SOL    HW112818   4.393   0.842   2.222 -0.7698  1.7541  0.7408
  828SOL    HW212819   4.404   0.820   2.383  0.1672 -0.5786  0.3799
  829SOL     OW12820   9.652   5.127   1.048  0.2432  0.3357  0.1864
  829SOL    HW112821   9.657   5.063   0.971  0.4762  0.8541 -0.2346
  829SOL    HW212822   9.657   5.221   1.014 -0.3120  0.5863  0.7866
  830SOL     OW12823   3.570   1.772   0.861  0.0789 -0.2135  0.0166
  830SOL    HW112824   3.569   1.721   0.775  1.6489  0.6255 -0.5335
  830SOL    HW212825   3.533   1.864   0.846  1.7026  0.4454 -0.1466
  831SOL     OW12826   9.440   9.738   2.238 -0.4051  0.7796 -0.5731
  831SOL    HW112827   9.448   9.766   2.143  2.6070 -0.0515 -0.6208
  831SOL    HW212828   9.422   9.639   2.243 -0.0543  0.7271 -0.2780
  832SOL     OW12829   9.438   9.450   2.211 -0.0181  0.6192  0.3194
  832SOL    HW112830   9.473   9.393   2.285  0.1160  0.2446 -0.0257
  832SOL    HW212831   9.388   9.392   2.146  0.9068  0.7542 -0.5155
  833SOL     OW12832   9.454   9.886   3.370  0.1123  0.7501 -0.0134
  833SOL    HW112833   9.497   9.975   3.357 -0.6114  1.1178  0.0508
  833SOL    HW212834   9.385   9.893   3.442  0.2948  0.0508  0.2296
  834SOL     OW12835   1.570   0.816   3.352  0.2155 -0.4115 -0.1089
  834SOL    HW112836   1.484   0.849   3.315 -1.3214 -2.9683  1.0760
  834SOL    HW212837   1.626   0.894   3.382 -0.9924  1.3375 -2.2905
  835SOL     OW12838   2.208   9.797   1.212 -0.2146 -0.1494 -0.4109
  835SOL    HW112839   2.218   9.814   1.114  1.2990  1.5218  0.0129
  835SOL    HW212840   2.292   9.823   1.259 -1.6637  1.0271  1.5883
  836SOL     OW12841   0.487   7.017   0.403 -0.2759 -0.1073 -0.1211
  836SOL    HW112842   0.544   7.076   0.345 -0.3094  0.5479  0.5115
  836SOL    HW212843   0.537   6.932   0.422 -0.0389 -0.0929 -0.6441
  837SOL     OW12844   7.845   1.935   1.972 -0.0713 -0.2184  0.2839
  837SOL    HW112845   7.887   1.942   2.063 -0.4727 -0.2661  0.4732
  837SOL    HW212846   7.812   1.842   1.958 -3.5698  0.7275  1.6813
  838SOL     OW12847   1.777   5.407   2.087  0.0909 -0.0456 -0.3325
  838SOL    HW112848   1.855   5.370   2.137 -0.2141 -0.4279 -0.1416
  838SOL    HW212849   1.802   5.419   1.990  0.1013 -0.9903 -0.4474
  839SOL     OW12850   0.071   7.575   2.424 -0.2446  0.3141 -0.1325
  839SOL    HW112851   0.115   7.494   2.464  0.7983  0.8920 -0.0884
  839SOL    HW212852   0.060   7.562   2.325  0.3969  0.3311 -0.2063
  840SOL     OW12853   3.167   0.045   1.506 -0.0785  0.4679 -0.0592
  840SOL    HW112854   3.190   0.077   1.414 -0.5412  0.0636 -0.3171
  840SOL    HW212855   3.151  -0.054   1.504  1.0647  0.2613  0.6756
  841SOL     OW12856   9.488   8.081   2.662  0.3567  0.6392 -0.3980
  841SOL    HW112857   9.420   8.098   2.734  0.2338 -0.1004 -0.3369
  841SOL    HW212858   9.579   8.107   2.695  0.2892  0.3767  0.0019
  842SOL     OW12859   1.339   9.181   2.129  0.2085 -0.7333  0.1722
  842SOL    HW112860   1.298   9.194   2.219 -1.0436 -0.5595 -0.4116
  842SOL    HW212861   1.347   9.270   2.083 -2.9267 -1.2276 -1.4831
  843SOL     OW12862   9.067   6.354   3.235  0.0281 -0.2672  0.5006
  843SOL    HW112863   9.051   6.307   3.322 -0.9487  0.9010  0.9758
  843SOL    HW212864   9.032   6.298   3.160 -0.6181 -0.5633  1.0100
  844SOL     OW12865   9.007   8.399   0.946  0.1618 -0.0498 -0.0267
  844SOL    HW112866   9.008   8.497   0.965 -0.7085 -0.0005 -0.1846
  844SOL    HW212867   9.079   8.377   0.880 -0.0080  0.5826 -0.4274
  845SOL     OW12868   1.136   8.996   2.136  0.0798 -0.7115 -0.5638
  845SOL    HW112869   1.195   9.077   2.132 -1.5149  0.4315 -1.9125
  845SOL    HW212870   1.086   8.996   2.222  0.5361 -0.5887 -0.2957
  846SOL     OW12871   4.650   3.641   0.122 -0.3414  0.2808  0.0164
  846SOL    HW112872   4.588   3.568   0.152  0.8019  0.3291  2.6281
  846SOL    HW212873   4.635   3.722   0.179  0.7394  0.9618 -0.6602
  847SOL     OW12874   7.333   9.385   2.200 -0.2476 -0.4497  0.7603
  847SOL    HW112875   7.233   9.385   2.194 -0.2271 -2.5697 -0.1454
  847SOL    HW212876   7.363   9.313   2.262  0.7516 -0.4486  0.2916
  848SOL     OW12877   0.333   2.795   0.739  0.0426 -0.6505  0.4769
  848SOL    HW112878   0.311   2.709   0.693 -1.8515 -0.3719  0.8534
  848SOL    HW212879   0.268   2.865   0.712  0.2181  0.0734  1.9227
  849SOL     OW12880   2.381   2.589   1.805  0.0154 -0.0336  0.0703
  849SOL    HW112881   2.365   2.688   1.797 -0.8409  0.0781  2.6406
  849SOL    HW212882   2.295   2.540   1.792  0.4405 -0.4577 -1.2049
  850SOL     OW12883   9.694   2.285   1.449 -0.1390  0.0205 -0.2117
  850SOL    HW112884   9.754   2.224   1.397  1.0520  1.7079 -0.9075
  850SOL    HW212885   9.616   2.310   1.393  0.8526  1.3859 -1.0278
  851SOL     OW12886   4.343   9.378   2.036  0.4668 -0.1440 -0.1337
  851SOL    HW112887   4.277   9.373   1.961 -0.6882 -0.0092  0.8601
  851SOL    HW212888   4.297   9.407   2.119  1.2730 -2.5928  1.2137
  852SOL     OW12889   1.244   9.576   2.814  0.1251 -0.0128  0.1432
  852SOL    HW112890   1.323   9.628   2.782 -0.0746 -0.2119 -0.6813
  852SOL    HW212891   1.218   9.608   2.905  2.6479 -1.5851  1.4817
  853SOL     OW12892   3.864   9.882   2.723  0.7591 -0.1749 -0.1141
  853SOL    HW112893   3.769   9.851   2.710  0.3577  0.6255  0.8407
  853SOL    HW212894   3.867   9.948   2.798  1.8682  0.8107 -1.0166
  854SOL     OW12895   2.820   8.018   2.555 -0.4375  0.3638  0.0556
  854SOL    HW112896   2.865   7.949   2.613  1.7361  0.3543 -1.6048
  854SOL    HW212897   2.829   8.108   2.598 -2.5037 -0.2176  1.7876
  855SOL     OW12898   7.905   1.906   0.522 -0.6671  0.3764  0.3233
  855SOL    HW112899   7.933   1.811   0.514 -0.3500  0.4534  0.5212
  855SOL    HW212900   7.867   1.937   0.435 -0.0524  0.3048  0.0299
  856SOL     OW12901   7.994   9.535   2.423 -0.6980  0.0741  0.3679
  856SOL    HW112902   7.999   9.455   2.483  0.8717 -0.1965 -0.1000
  856SOL    HW212903   7.987   9.618   2.478 -0.3754 -0.2451  0.8923
  857SOL     OW12904   1.136   3.228   1.056 -0.6135 -0.1662  0.1157
  857SOL    HW112905   1.058   3.174   1.087 -0.1962 -1.0243 -0.3214
  857SOL    HW212906   1.181   3.181   0.980 -0.7029  1.1702 -0.7733
  858SOL     OW12907   0.111   0.189   2.825 -0.1055 -0.3194 -0.0316
  858SOL    HW112908   0.088   0.196   2.922 -0.1236  0.7400 -0.1144
  858SOL    HW212909   0.053   0.120   2.782 -1.2262  0.3925  0.3436
  859SOL     OW12910   2.519   4.593   0.163  0.7326 -0.0871  0.1164
  859SOL    HW112911   2.556   4.515   0.113 -0.0245 -1.3153  1.4444
  859SOL    HW212912   2.584   4.669   0.158  0.2376  0.1735 -3.5134
  860SOL     OW12913   8.037   2.408   2.624  0.0303 -0.1907 -0.6431
  860SOL    HW112914   8.053   2.322   2.673  0.6703  0.4835  0.3592
  860SOL    HW212915   8.012   2.479   2.690  1.4437  0.8613 -1.2081
  861SOL     OW12916   8.688   4.428   0.502  0.6036  0.6047 -0.2078
  861SOL    HW112917   8.743   4.408   0.584  0.7449  1.1034 -0.1729
  861SOL    HW212918   8.718   4.516   0.464  1.7675 -0.4781 -1.8414
  862SOL     OW12919   2.565   0.339   1.806 -0.3511  0.4615  0.2341
  862SOL    HW112920   2.572   0.358   1.904 -0.2556  1.4030  0.0495
  862SOL    HW212921   2.656   0.330   1.767 -0.3351  2.2584 -0.1751
  863SOL     OW12922   2.817   3.496   2.416  0.0503  0.0660  0.1182
  863SOL    HW112923   2.830   3.480   2.318  1.5281 -0.7902  0.4327
  863SOL    HW212924   2.777   3.415   2.458  1.6818 -0.4924  0.6303
  864SOL     OW12925   2.125   7.061   2.638  0.6324  0.5798 -0.5571
  864SOL    HW112926   2.203   7.040   2.578  0.5823  1.4248 -0.9293
  864SOL    HW212927   2.126   7.158   2.661  1.0224  0.1496  1.3599
  865SOL     OW12928   1.702   6.869   1.332 -0.0025  0.3220  0.2964
  865SOL    HW112929   1.640   6.899   1.260 -0.3739 -0.0353  0.4619
  865SOL    HW212930   1.796   6.883   1.304 -0.1667  1.0985  0.1440
  866SOL     OW12931   1.810   1.499   0.972 -0.2043 -0.4677 -0.1590
  866SOL    HW112932   1.847   1.518   1.063 -3.3502 -0.0025  1.0957
  866SOL    HW212933   1.828   1.576   0.912 -2.6116  1.5229  1.5768
  867SOL     OW12934   2.549   1.137   2.239 -0.0791  0.0542 -0.1779
  867SOL    HW112935   2.454   1.151   2.266 -0.7069 -0.9754 -1.7750
  867SOL    HW212936   2.590   1.226   2.217 -0.4182  0.5892  1.3122
  868SOL     OW12937   1.416   6.564   3.044 -0.6865 -0.0709  0.2321
  868SOL    HW112938   1.343   6.614   2.998 -0.9780 -1.4217 -0.7714
  868SOL    HW212939   1.466   6.508   2.978  1.2102  0.7554  0.9194
  869SOL     OW12940   8.157   6.894   1.122  0.5153 -0.2541 -0.3627
  869SOL    HW112941   8.168   6.795   1.130  0.4923 -0.3018 -0.9384
  869SOL    HW212942   8.195   6.938   1.203 -2.3414 -0.9274  1.4377
  870SOL     OW12943   9.033   3.491   2.769 -0.0181  0.3370  0.7231
  870SOL    HW112944   9.008   3.416   2.831 -0.5205  0.0789  0.2155
  870SOL    HW212945   9.124   3.524   2.791  0.0245 -0.1258  1.2435
  871SOL     OW12946   3.684   9.182   2.234 -0.0848  0.3299 -0.3003
  871SOL    HW112947   3.625   9.183   2.315  0.9732 -3.4680  0.5948
  871SOL    HW212948   3.661   9.104   2.176  3.1960 -0.5037 -0.5746
  872SOL     OW12949   2.070   3.326   3.164  0.1925 -0.0927  0.1394
  872SOL    HW112950   2.128   3.399   3.200 -1.8730  1.6638  0.0097
  872SOL    HW212951   2.069   3.330   3.064 -1.3277  0.8990  0.1624
  873SOL     OW12952   3.115   2.667   1.487 -0.2624  0.5342 -0.1446
  873SOL    HW112953   3.209   2.645   1.512 -0.8024 -0.0470  1.4588
  873SOL    HW212954   3.054   2.594   1.519 -1.4651  1.7978  0.4965
  874SOL     OW12955   5.257   9.480   2.558  0.2143  0.0436  0.5502
  874SOL    HW112956   5.222   9.491   2.651 -1.2343 -0.0802  0.0257
  874SOL    HW212957   5.188   9.509   2.492  0.4714 -1.7398 -0.5428
  875SOL     OW12958   0.759   1.886   0.466 -0.2165 -0.0854 -0.6406
  875SOL    HW112959   0.792   1.979   0.484  1.4541 -0.4815 -1.5431
  875SOL    HW212960   0.817   1.820   0.515 -0.0399 -0.7620 -1.7515
  876SOL     OW12961   0.434   7.873   0.516  0.0783  0.0095 -0.4638
  876SOL    HW112962   0.417   7.776   0.500  1.2515 -0.5122  1.4293
  876SOL    HW212963   0.469   7.914   0.432 -2.2123 -0.7531 -1.8665
  877SOL     OW12964   4.285   2.452   2.168 -0.7454  0.0823 -0.1777
  877SOL    HW112965   4.212   2.384   2.174  0.0175 -0.9335 -1.8741
  877SOL    HW212966   4.279   2.499   2.080 -0.8869  1.8049  0.7280
  878SOL     OW12967   1.365   3.509   2.091 -0.0914 -0.7824 -0.6771
  878SOL    HW112968   1.361   3.410   2.109  2.3731 -0.8833 -0.5133
  878SOL    HW212969   1.360   3.524   1.992 -0.3189 -1.0662 -0.7112
  879SOL     OW12970   7.940   9.328   2.629  0.2150 -0.9502  1.3671
  879SOL    HW112971   7.871   9.256   2.621 -0.4880 -0.1916  0.2489
  879SOL    HW212972   7.901   9.406   2.678  0.1389 -0.3857  0.4392
  880SOL     OW12973   2.017   8.887   1.004  0.4282 -0.2941 -0.2083
  880SOL    HW112974   1.997   8.890   1.102  2.1627  0.7675  0.1433
  880SOL    HW212975   1.961   8.955   0.957  0.7145  0.2838  0.2785
  881SOL     OW12976   2.540   6.795   1.044  0.0763  0.3113  0.0417
  881SOL    HW112977   2.476   6.849   1.098 -1.0760  0.2609 -1.2571
  881SOL    HW212978   2.586   6.854   0.978  0.2007  0.0508 -0.1063
  882SOL     OW12979   8.408   5.023   0.010  0.7173 -0.1589 -0.4235
  882SOL    HW112980   8.368   4.993   0.097  1.4489  1.0004  0.3313
  882SOL    HW212981   8.490   5.078   0.029 -0.2024  1.7149 -1.7707
  883SOL     OW12982   9.457   1.087   1.526 -0.3550  0.2137  0.1737
  883SOL    HW112983   9.387   1.156   1.509 -0.5130 -0.0745 -0.3501
  883SOL    HW212984   9.508   1.070   1.442  1.0622  1.2108  0.8197
  884SOL     OW12985   0.510   3.511   1.480  0.1911 -0.2929  0.0623
  884SOL    HW112986   0.497   3.483   1.576 -0.2652  0.3295  0.1853
  884SOL    HW212987   0.490   3.434   1.420 -0.5266 -0.3953  0.4249
  885SOL     OW12988   2.520   5.948   3.370 -0.2074 -0.0941 -0.1168
  885SOL    HW112989   2.508   5.855   3.406 -4.0102  1.3372  2.6547
  885SOL    HW212990   2.535   6.011   3.447  1.8304  1.6934 -1.9229
  886SOL     OW12991   9.310   1.269   0.392  0.3772 -0.1739 -0.3233
  886SOL    HW112992   9.308   1.286   0.491  2.0631  2.7286 -0.7568
  886SOL    HW212993   9.233   1.210   0.368 -0.2199 -0.7268  2.6776
  887SOL     OW12994   8.034   0.373   2.598  0.3109 -0.3602  0.1531
  887SOL    HW112995   8.102   0.360   2.670 -1.8490 -1.1849  2.1106
  887SOL    HW212996   8.056   0.454   2.545  1.3354  0.9337  2.4767
  888SOL     OW12997   0.096   1.069   1.894 -0.0978  0.3130 -0.2357
  888SOL    HW112998   0.099   0.971   1.913  0.0117 -0.3356 -3.3309
  888SOL    HW212999   0.124   1.086   1.799 -2.0867  3.1661 -0.3864
  889SOL     OW13000   1.534   2.558   1.560  0.3690 -0.3418 -0.2289
  889SOL    HW113001   1.539   2.554   1.460 -0.8729  1.6610 -0.3996
  889SOL    HW213002   1.494   2.473   1.595  2.1587 -1.6533 -1.3079
  890SOL     OW13003   1.829   8.972   0.313 -0.0533  0.4426 -0.3373
  890SOL    HW113004   1.843   8.938   0.220 -2.6746 -0.6001 -0.4006
  890SOL    HW213005   1.735   9.005   0.323 -0.0267 -0.0852  2.1270
  891SOL     OW13006   3.218   0.991   1.798  0.4716 -0.1378 -0.1381
  891SOL    HW113007   3.220   1.091   1.799  0.9910 -0.1469 -0.4128
  891SOL    HW213008   3.167   0.958   1.878  0.5779  0.3392  0.1246
  892SOL     OW13009   2.674   9.612   1.659 -0.5405 -0.1052  0.0117
  892SOL    HW113010   2.594   9.552   1.647  0.3838 -1.4404  0.3529
  892SOL    HW213011   2.706   9.607   1.754  0.7624 -0.6452 -0.4400
  893SOL     OW13012   7.335   9.575   2.540 -0.2995  0.6705  0.5928
  893SOL    HW113013   7.251   9.572   2.593 -1.1182  0.5053 -0.6753
  893SOL    HW213014   7.320   9.628   2.456  1.4288  2.3109  1.2865
  894SOL     OW13015   2.523   7.494   0.070  0.0541  0.2190  0.2838
  894SOL    HW113016   2.565   7.493  -0.021  1.0892  0.1942  0.7537
  894SOL    HW213017   2.469   7.577   0.080 -0.3568  0.0566 -0.4783
  895SOL     OW13018   1.509   5.526   0.393  0.2761  0.4656 -0.6474
  895SOL    HW113019   1.499   5.427   0.403 -1.6294  0.6890 -0.1406
  895SOL    HW213020   1.604   5.552   0.413  0.8032 -1.2445 -0.8217
  896SOL     OW13021   1.785   4.082   2.918 -0.6680  0.1525  0.2933
  896SOL    HW113022   1.788   4.178   2.947  0.0387 -0.2121  1.4474
  896SOL    HW213023   1.814   4.024   2.994 -0.8561 -0.9585 -0.4869
  897SOL     OW13024   0.868   0.414   1.011 -0.7195  0.0199  0.0134
  897SOL    HW113025   0.857   0.479   1.086 -0.8558 -0.7921  0.7062
  897SOL    HW213026   0.964   0.388   1.003 -1.0098 -1.5937  1.3754
  898SOL     OW13027   0.751   1.611   0.805 -0.5659  0.3294 -0.9250
  898SOL    HW113028   0.707   1.659   0.881  0.4470  1.3990 -1.0099
  898SOL    HW213029   0.685   1.598   0.731 -1.2195  0.3518 -0.3584
  899SOL     OW13030   1.440   7.452   2.178 -0.3997  0.2995  0.1146
  899SOL    HW113031   1.404   7.372   2.130  0.2366  0.9443 -1.4728
  899SOL    HW213032   1.508   7.423   2.245  0.3886 -0.4294 -0.9880
  900SOL     OW13033   3.335   8.054   2.589 -0.0926  0.3450  0.1640
  900SOL    HW113034   3.298   8.114   2.660  0.6191  0.3954  0.5032
  900SOL    HW213035   3.271   7.979   2.571 -0.3284  0.3936  0.7872
  901SOL     OW13036   9.401   0.730   2.901  0.0861  0.0463  0.0380
  901SOL    HW113037   9.483   0.709   2.847  0.0514  0.9614 -0.3805
  901SOL    HW213038   9.420   0.807   2.962 -0.9297  1.3065 -1.2057
  902SOL     OW13039   8.589   6.179   3.066 -0.3841  0.6519 -0.2473
  902SOL    HW113040   8.573   6.112   2.993  1.2545  0.7517 -0.7158
  902SOL    HW213041   8.605   6.131   3.152  1.1609  0.4030 -0.6566
  903SOL     OW13042   1.167   3.752   2.099 -0.0021  0.2284  0.0961
  903SOL    HW113043   1.228   3.692   2.047 -0.1204  0.8801 -0.8021
  903SOL    HW213044   1.222   3.821   2.147  0.0108  0.4165 -0.1910
  904SOL     OW13045   2.293   1.323   1.548  0.4455 -0.2727 -0.0993
  904SOL    HW113046   2.374   1.314   1.490  1.4799  0.2533  1.2371
  904SOL    HW213047   2.305   1.269   1.631 -1.0305 -1.0260 -0.3586
  905SOL     OW13048   3.911   1.122   3.203  0.1788  0.0386  0.0914
  905SOL    HW113049   3.866   1.125   3.292  0.2886 -0.4695  0.1647
  905SOL    HW213050   3.965   1.039   3.196 -0.5294 -0.3592 -0.7866
  906SOL     OW13051   1.421   6.809   2.599 -0.0046 -0.3648 -0.3776
  906SOL    HW113052   1.396   6.877   2.530  1.1390  0.9611  0.4858
  906SOL    HW213053   1.361   6.819   2.678  1.4312  0.9871  0.5655
  907SOL     OW13054   9.224   7.978   1.870  0.0039 -0.1084 -0.5054
  907SOL    HW113055   9.227   7.962   1.968 -2.0061 -1.7948 -0.6960
  907SOL    HW213056   9.311   7.951   1.829  1.0980  1.2408  0.8669
  908SOL     OW13057   1.339   4.485   3.101  0.0119 -0.4746 -0.3824
  908SOL    HW113058   1.353   4.470   3.003 -0.7839 -1.8060 -0.3085
  908SOL    HW213059   1.248   4.525   3.116  1.5799  3.3917 -0.4637
  909SOL     OW13060   2.788   8.152   3.395 -0.4749  0.4241  0.1177
  909SOL    HW113061   2.741   8.194   3.473 -1.7173  0.1124 -0.4502
  909SOL    HW213062   2.721   8.111   3.334  0.3842  1.7752 -1.7777
  910SOL     OW13063   4.691   1.856   1.910  0.4155 -0.4698 -0.0010
  910SOL    HW113064   4.667   1.888   2.001  0.5105 -1.8028  0.5058
  910SOL    HW213065   4.785   1.884   1.888 -0.2566  1.4606 -0.4506
  911SOL     OW13066   3.077   1.997   2.925 -0.2216  0.2012  0.0432
  911SOL    HW113067   3.038   1.906   2.938 -0.2345  0.3410  0.9993
  911SOL    HW213068   3.129   1.999   2.840  0.7107 -1.0247  0.5803
  912SOL     OW13069   5.148   9.392   3.192  0.8468 -0.0158  0.3198
  912SOL    HW113070   5.130   9.450   3.271  0.6660  0.4465 -0.0633
  912SOL    HW213071   5.078   9.405   3.123 -0.6620 -2.5986  1.2825
  913SOL     OW13072   2.170   5.571   3.332  0.2297 -0.3045  0.8864
  913SOL    HW113073   2.130   5.548   3.243 -0.7980 -0.4308  1.3712
  913SOL    HW213074   2.131   5.511   3.402  1.1143 -0.2764  1.4022
  914SOL     OW13075   4.996   3.294   1.141  0.2441 -0.0500 -0.9047
  914SOL    HW113076   4.996   3.195   1.131 -0.1787 -0.1692  0.2152
  914SOL    HW213077   5.041   3.319   1.226 -2.4855  0.5320  0.4220
  915SOL     OW13078   9.505   1.576   2.443  0.4794 -0.6646  0.8098
  915SOL    HW113079   9.492   1.672   2.419  4.1598  0.0238  1.2635
  915SOL    HW213080   9.537   1.526   2.363 -1.1571 -1.4898  0.6508
  916SOL     OW13081   4.116   9.352   2.563  0.3370  0.1526  0.0899
  916SOL    HW113082   4.175   9.362   2.483 -0.6484 -1.0599 -0.8065
  916SOL    HW213083   4.036   9.410   2.552 -0.1128 -0.5027 -0.1014
  917SOL     OW13084   7.410   0.116   1.303 -0.4314  0.0886 -0.2838
  917SOL    HW113085   7.411   0.086   1.398 -2.3398  0.7662 -0.0479
  917SOL    HW213086   7.495   0.165   1.283  0.1982 -0.4875  0.9185
  918SOL     OW13087   3.421   7.387   0.115  0.0290  0.2424  0.5174
  918SOL    HW113088   3.465   7.316   0.061 -0.9410 -0.5653  0.7871
  918SOL    HW213089   3.336   7.415   0.071 -0.5316 -0.0864  1.3663
  919SOL     OW13090   1.735   0.000   1.974 -0.2385  0.2973  0.3328
  919SOL    HW113091   1.779   0.032   2.058  0.9530  1.2777 -0.6468
  919SOL    HW213092   1.646   0.045   1.964  0.3052  1.3709  0.2801
  920SOL     OW13093   8.592   6.928   2.592 -0.0457 -0.4069 -0.0315
  920SOL    HW113094   8.676   6.950   2.642  1.1460  0.3964 -2.3104
  920SOL    HW213095   8.514   6.971   2.638  0.7553 -1.1518  2.1065
  921SOL     OW13096   0.266   8.823   2.549  0.0612  0.8284 -0.1202
  921SOL    HW113097   0.353   8.817   2.499 -0.0951  0.3942 -0.3443
  921SOL    HW213098   0.191   8.801   2.487  0.0098 -1.7153  0.7945
  922SOL     OW13099   8.468   6.258   2.624  0.2865 -0.0084  0.2616
  922SOL    HW113100   8.530   6.191   2.584  0.4751 -0.1242  0.7397
  922SOL    HW213101   8.521   6.330   2.669  0.0737 -0.3093  1.0026
  923SOL     OW13102   0.871   7.622   1.695  0.1069 -0.3243  0.3309
  923SOL    HW113103   0.918   7.701   1.734  1.3495 -0.0236 -1.7312
  923SOL    HW213104   0.846   7.559   1.769  0.9493  0.9917  1.7777
  924SOL     OW13105   0.681   9.479   2.027  0.0666  0.0931  0.1888
  924SOL    HW113106   0.687   9.555   1.962 -0.8716  0.4209  0.4724
  924SOL    HW213107   0.764   9.475   2.082  0.2593  0.7216 -0.0485
  925SOL     OW13108   0.192   6.353   1.768  0.6466  0.0189 -0.0799
  925SOL    HW113109   0.112   6.343   1.826  0.7484  2.6232  0.5847
  925SOL    HW213110   0.167   6.334   1.673 -1.0858  1.9616 -0.0566
  926SOL     OW13111   3.449   0.138   2.839 -0.6925 -0.0548 -0.1203
  926SOL    HW113112   3.486   0.058   2.888 -2.6984 -1.5252 -0.9804
  926SOL    HW213113   3.390   0.190   2.901 -1.6824 -0.8407 -0.3985
  927SOL     OW13114   3.688   8.904   2.645 -0.2116  0.1733  0.5611
  927SOL    HW113115   3.615   8.853   2.690  0.1658 -0.3779  0.5478
  927SOL    HW213116   3.774   8.892   2.695  0.1567 -0.2408 -0.1648
  928SOL     OW13117   7.871   4.132   0.478 -0.6968 -0.4335  0.8383
  928SOL    HW113118   7.907   4.205   0.421 -2.8844  1.5202  1.8860
  928SOL    HW213119   7.873   4.046   0.427 -0.9218  0.9120 -1.5086
  929SOL     OW13120   1.282   8.495   0.908  0.1363 -0.0889 -0.6999
  929SOL    HW113121   1.239   8.585   0.898 -2.4694 -1.0457  1.2219
  929SOL    HW213122   1.230   8.428   0.856 -1.7067 -1.5369  2.8364
  930SOL     OW13123   8.503   9.436   1.979  0.1231  0.2992  0.7642
  930SOL    HW113124   8.542   9.462   2.068  0.3532  0.9496  0.4738
  930SOL    HW213125   8.419   9.487   1.963  0.8426  1.2472 -0.0342
  931SOL     OW13126   0.112   2.602   3.083 -0.2146 -0.2811 -0.6635
  931SOL    HW113127   0.172   2.664   3.033 -1.5494 -0.1891 -2.2077
  931SOL    HW213128   0.135   2.508   3.061  0.9395 -0.3130  0.6416
  932SOL     OW13129   2.720   3.109   0.719 -0.5147  0.3102 -0.1896
  932SOL    HW113130   2.660   3.175   0.764  0.1652  1.4263 -0.9199
  932SOL    HW213131   2.812   3.117   0.758 -0.4757 -0.3564 -0.1377
  933SOL     OW13132   1.171   0.500   2.073 -0.1345  0.1742 -0.0432
  933SOL    HW113133   1.097   0.545   2.121  0.0612  0.9221 -0.4433
  933SOL    HW213134   1.135   0.419   2.026 -0.5949  0.2493  0.1735
  934SOL     OW13135   0.559   4.852   2.473 -0.5434  0.0126 -0.4014
  934SOL    HW113136   0.580   4.766   2.519 -0.0290  0.0498 -0.5683
  934SOL    HW213137   0.495   4.905   2.529  0.1453  0.0976  0.3065
  935SOL     OW13138   4.660   3.383   2.788  0.1840 -0.3175  0.5087
  935SOL    HW113139   4.636   3.437   2.707  1.5667 -2.1763 -1.2093
  935SOL    HW213140   4.582   3.326   2.814 -0.5578  0.9173  1.0324
  936SOL     OW13141   3.723   7.390   0.242 -0.4146  0.4077 -0.7687
  936SOL    HW113142   3.633   7.402   0.201  0.1613  0.3561 -2.0578
  936SOL    HW213143   3.775   7.323   0.189 -1.1028 -2.7301  2.3245
  937SOL     OW13144   2.915   3.569   3.327 -0.3670 -0.1538  0.4258
  937SOL    HW113145   2.869   3.600   3.243 -0.6661 -0.6946  0.3831
  937SOL    HW213146   3.013   3.561   3.310 -0.3882  0.0280  0.2103
  938SOL     OW13147   3.755   2.136   2.748 -0.1802 -0.0319 -0.3387
  938SOL    HW113148   3.825   2.198   2.713 -0.0520 -0.2272 -0.4300
  938SOL    HW213149   3.740   2.062   2.683  0.2415 -0.5345  0.1186
  939SOL     OW13150   1.452   5.484   2.833 -0.0699  0.1378  0.0259
  939SOL    HW113151   1.526   5.437   2.880 -0.0650 -0.5529 -0.6759
  939SOL    HW213152   1.384   5.513   2.900  0.1656 -0.4334  0.5145
  940SOL     OW13153   8.836   3.754   2.331 -0.0194 -0.0068  0.3855
  940SOL    HW113154   8.934   3.761   2.313  0.1712 -0.1177  1.3490
  940SOL    HW213155   8.806   3.660   2.312 -0.0124  0.1167 -0.2462
  941SOL     OW13156   1.607   4.057   0.314  0.2828  0.5046  0.4136
  941SOL    HW113157   1.622   4.154   0.329 -1.5645  0.9394 -0.4588
  941SOL    HW213158   1.538   4.044   0.243  0.8774 -1.4467  0.1584
  942SOL     OW13159   8.259   8.730   0.850 -0.4429  0.5361  0.1700
  942SOL    HW113160   8.313   8.647   0.834  1.6086  1.9267 -0.2795
  942SOL    HW213161   8.186   8.734   0.782 -0.8198 -1.0941  0.4438
  943SOL     OW13162   2.153   1.013   0.026 -0.1007  0.2897 -0.0262
  943SOL    HW113163   2.118   1.014   0.119  1.3164 -2.1005  0.5684
  943SOL    HW213164   2.233   1.073   0.019 -0.2601  0.5347  0.2677
  944SOL     OW13165   4.134   0.159   0.117 -0.5110  0.5079  0.2061
  944SOL    HW113166   4.074   0.086   0.150 -0.3144 -0.4270 -1.4507
  944SOL    HW213167   4.229   0.137   0.140 -0.4509  0.2281 -0.2997
  945SOL     OW13168   2.669   5.260   0.231 -0.2385 -0.2491  0.0502
  945SOL    HW113169   2.632   5.285   0.320 -1.4584 -0.5303 -0.3663
  945SOL    HW213170   2.611   5.190   0.189 -0.3162  0.6816 -1.4522
  946SOL     OW13171   7.245   8.809   2.870  0.2449 -0.8306 -0.0637
  946SOL    HW113172   7.263   8.738   2.802 -0.8067 -0.6119 -0.5786
  946SOL    HW213173   7.332   8.851   2.898  0.7023 -1.0615 -1.1175
  947SOL     OW13174   1.566   3.023   3.257  0.2313 -0.0351  0.8954
  947SOL    HW113175   1.527   3.027   3.165  0.8427 -0.9769  0.5904
  947SOL    HW213176   1.600   3.114   3.282 -0.0650  0.2597  0.2487
  948SOL     OW13177   3.994   3.775   2.359  0.0434  0.2125  0.0571
  948SOL    HW113178   4.005   3.710   2.284 -2.5359 -1.5308  1.1172
  948SOL    HW213179   4.034   3.738   2.442  0.3744  0.8878  0.2040
  949SOL     OW13180   9.744   6.255   3.069  0.1279  0.4025  0.1603
  949SOL    HW113181   9.797   6.192   3.126  1.0449  1.7928  0.8810
  949SOL    HW213182   9.687   6.312   3.127 -3.4644 -2.1480 -0.6902
  950SOL     OW13183   9.777   4.896   0.106  0.0876  0.9325  0.4941
  950SOL    HW113184   9.854   4.854   0.058  0.7483  0.7986  1.6367
  950SOL    HW213185   9.741   4.972   0.052  1.4543  1.4126  0.2308
  951SOL     OW13186   2.951   9.662   2.000 -0.0233 -0.4149 -0.0826
  951SOL    HW113187   2.957   9.682   2.098 -1.3779  0.2334 -0.1210
  951SOL    HW213188   2.875   9.599   1.984  0.3699 -0.7351 -0.6828
  952SOL     OW13189   8.259   7.979   2.990 -0.1570  0.5224  0.3571
  952SOL    HW113190   8.215   8.068   2.982 -1.1007  0.2532  2.2091
  952SOL    HW213191   8.352   7.991   3.024  0.4546  0.9365 -1.4217
  953SOL     OW13192   3.889   0.278   3.050  0.3546 -0.1939 -0.3720
  953SOL    HW113193   3.910   0.271   3.147 -1.2126 -0.4360 -0.0368
  953SOL    HW213194   3.883   0.375   3.024 -0.7190 -0.1158  0.1231
  954SOL     OW13195   9.187   8.722   2.153  0.6392 -0.4803  0.3229
  954SOL    HW113196   9.097   8.757   2.125  0.7108 -1.1995 -0.8438
  954SOL    HW213197   9.175   8.655   2.226  0.3660  0.6940  1.3627
  955SOL     OW13198   2.309   1.223   0.195 -0.3072  0.0753 -0.2220
  955SOL    HW113199   2.373   1.281   0.246 -1.2351  0.0932  0.9408
  955SOL    HW213200   2.317   1.129   0.228  0.5705 -0.3150 -1.5017
  956SOL     OW13201   1.644   1.124   2.090  0.4304 -0.4459  0.0017
  956SOL    HW113202   1.613   1.212   2.125  0.1505 -0.2878 -0.6396
  956SOL    HW213203   1.587   1.097   2.013  3.3762  1.0584 -2.8268
  957SOL     OW13204   3.741   9.606   1.656 -0.7111 -0.0441  0.7393
  957SOL    HW113205   3.672   9.611   1.728 -0.3592  0.5018  1.0440
  957SOL    HW213206   3.696   9.595   1.567 -1.2399  1.4023  0.8149
  958SOL     OW13207   0.493   6.908   2.805  0.0701  0.3006  0.0659
  958SOL    HW113208   0.477   6.857   2.721  2.1659 -0.9093  0.3869
  958SOL    HW213209   0.533   6.848   2.874 -1.9929  1.1789  2.0812
  959SOL     OW13210   8.331   9.751   0.395 -0.3356  0.5409 -0.7675
  959SOL    HW113211   8.243   9.704   0.400 -0.5125  0.9674  0.3596
  959SOL    HW213212   8.318   9.847   0.422  0.5011  0.5520 -0.3938
  960SOL     OW13213   7.862   0.506   0.971 -0.2011  0.2600 -0.3248
  960SOL    HW113214   7.918   0.431   0.938  0.1553  1.3042 -2.1587
  960SOL    HW213215   7.768   0.474   0.985  0.4212 -1.0495  1.0749
  961SOL     OW13216   2.897   3.936   1.226 -0.5185  0.0798  0.0554
  961SOL    HW113217   2.823   3.970   1.169 -0.4034  0.2829  0.0260
  961SOL    HW213218   2.953   3.872   1.174  0.5313  1.4787 -0.5682
  962SOL     OW13219   8.090   0.613   2.463 -0.2457 -0.4232  0.7435
  962SOL    HW113220   8.149   0.671   2.519 -0.6420  0.5485  0.1580
  962SOL    HW213221   8.119   0.619   2.367  0.7380 -2.4524  0.8890
  963SOL     OW13222   3.297   9.455   2.177 -0.1681 -0.3150  0.1741
  963SOL    HW113223   3.312   9.500   2.089  0.1482  0.7587  0.7627
  963SOL    HW213224   3.295   9.356   2.164 -0.8282 -0.1410 -1.1412
  964SOL     OW13225   8.072   8.805   0.670  0.4900  0.2790  0.2290
  964SOL    HW113226   8.116   8.886   0.631 -1.2996  1.3595  0.3723
  964SOL    HW213227   7.995   8.833   0.727  0.3275 -1.4987  0.9204
  965SOL     OW13228   3.464   8.740   2.205 -0.4130 -0.5624 -0.8426
  965SOL    HW113229   3.531   8.760   2.277  0.6921  1.9291 -2.4945
  965SOL    HW213230   3.372   8.758   2.239 -0.1460 -2.5115  0.9594
  966SOL     OW13231   7.975   0.169   1.244  0.1628 -0.1075 -0.4172
  966SOL    HW113232   7.943   0.261   1.264 -0.7107 -0.6461  0.7201
  966SOL    HW213233   8.045   0.172   1.172  0.4847  1.4753 -0.0363
  967SOL     OW13234   7.793   8.538   2.141  0.2441 -0.0597 -0.1432
  967SOL    HW113235   7.780   8.444   2.172 -0.5011 -0.5849 -1.9718
  967SOL    HW213236   7.862   8.540   2.068 -1.5080  0.4492 -1.8237
  968SOL     OW13237   0.898   4.981   0.159  0.0795 -0.5708  0.5824
  968SOL    HW113238   0.972   4.922   0.192  0.9854  0.8287  1.1011
  968SOL    HW213239   0.935   5.043   0.090 -0.2077  1.3535  2.1388
  969SOL     OW13240   0.392   6.454   2.353  0.4676  0.6132  0.0875
  969SOL    HW113241   0.305   6.449   2.303  0.3405  1.3448  0.2347
  969SOL    HW213242   0.384   6.402   2.438  0.1285  0.8093  0.1751
  970SOL     OW13243   3.975   5.837   2.659  0.2489  0.2365  0.6139
  970SOL    HW113244   4.018   5.802   2.577  2.8550  0.4560  1.8277
  970SOL    HW213245   3.913   5.768   2.697  0.5325 -0.6074 -0.4399
  971SOL     OW13246   2.265   3.304   2.079  0.6250  0.2799 -0.2691
  971SOL    HW113247   2.261   3.263   1.988  0.2078  0.2355 -0.2330
  971SOL    HW213248   2.347   3.361   2.087  0.7650  0.1264 -0.6039
  972SOL     OW13249   9.847   0.794   0.172 -0.6284  0.0612 -0.0197
  972SOL    HW113250   9.933   0.743   0.173 -1.4177 -1.4663 -2.4827
  972SOL    HW213251   9.798   0.778   0.258  0.8076 -0.3895  0.7312
  973SOL     OW13252   8.694   9.647   0.599 -0.0886  0.1417  0.6359
  973SOL    HW113253   8.622   9.665   0.665  0.5116  1.8180  0.8692
  973SOL    HW213254   8.777   9.619   0.647  0.1816  0.8115  0.5627
  974SOL     OW13255   0.366   5.499   1.504  0.0063 -0.0672  0.4194
  974SOL    HW113256   0.329   5.409   1.481  1.1480 -0.1323 -1.2225
  974SOL    HW213257   0.427   5.491   1.583 -0.2153 -0.6636  0.5341
  975SOL     OW13258   9.727   6.911   0.984 -0.6921  0.4987 -0.0885
  975SOL    HW113259   9.806   6.902   0.923 -1.3872 -1.8873 -0.6712
  975SOL    HW213260   9.645   6.930   0.931 -1.3404 -1.7999  0.0237
  976SOL     OW13261   0.956   4.395   0.016 -0.1889  0.3944  0.0895
  976SOL    HW113262   0.997   4.483   0.040 -1.0677  0.9019 -0.2478
  976SOL    HW213263   0.903   4.405  -0.068 -0.3019 -0.4527  0.0599
  977SOL     OW13264   2.925   6.556   2.917  0.4269 -0.1105  0.1153
  977SOL    HW113265   2.976   6.473   2.941 -0.8819 -0.9034  0.1656
  977SOL    HW213266   2.830   6.533   2.899  0.2816  1.2421 -0.8985
  978SOL     OW13267   1.107   4.854   0.248 -0.1864  0.1590 -0.4592
  978SOL    HW113268   1.136   4.851   0.343 -1.3802  3.5870  0.0769
  978SOL    HW213269   1.176   4.903   0.194 -0.5429  0.1047 -0.9698
  979SOL     OW13270   1.923   5.056   2.501 -0.3193 -0.6917  0.1191
  979SOL    HW113271   1.843   4.996   2.500 -0.7532 -0.1494  1.6045
  979SOL    HW213272   1.991   5.022   2.436 -0.8162 -2.4397  0.5066
  980SOL     OW13273   8.563   1.065   2.322  0.3519  0.6117 -0.4887
  980SOL    HW113274   8.558   1.041   2.225 -0.7323  0.7298 -0.4710
  980SOL    HW213275   8.575   1.163   2.332 -1.7637  0.8912 -0.4900
  981SOL     OW13276   2.031   9.789   0.127 -0.1168 -0.1128  0.0198
  981SOL    HW113277   2.109   9.848   0.103 -0.0652 -1.0073 -2.1072
  981SOL    HW213278   2.042   9.700   0.083 -2.3719 -0.2346 -0.3301
  982SOL     OW13279   9.879   7.268   2.653 -0.1499  0.0396  0.4771
  982SOL    HW113280   9.969   7.254   2.611 -0.6731  0.6354 -0.8595
  982SOL    HW213281   9.839   7.179   2.677 -0.2684 -0.3710 -1.2098
  983SOL     OW13282   0.632   9.756   0.554 -0.4868  0.1759  0.1930
  983SOL    HW113283   0.558   9.704   0.512 -0.7805 -0.9249  2.0052
  983SOL    HW213284   0.715   9.700   0.557  0.1694  1.0698 -0.9896
  984SOL     OW13285   0.674   4.610   3.132  0.2222  0.5802  0.3062
  984SOL    HW113286   0.605   4.549   3.172  0.3084  0.2890  0.0153
  984SOL    HW213287   0.742   4.633   3.202 -0.4121  1.2313  0.7171
  985SOL     OW13288   8.426   8.518   0.756  0.2186  0.1786  0.1120
  985SOL    HW113289   8.385   8.479   0.674  0.8454  0.1867 -0.2090
  985SOL    HW213290   8.459   8.444   0.815 -0.3718  0.1662  0.4312
  986SOL     OW13291   7.890   7.017   3.067  0.1750 -0.4627 -0.3125
  986SOL    HW113292   7.874   6.963   3.150  0.2686 -0.2589 -0.1615
  986SOL    HW213293   7.804   7.060   3.038  0.0915 -0.7236 -0.4559
  987SOL     OW13294   8.993   4.252   0.844 -0.3036  0.1855 -0.2195
  987SOL    HW113295   9.020   4.218   0.753  0.4624  1.6625 -0.5539
  987SOL    HW213296   8.937   4.183   0.889 -0.9636 -0.4557 -1.9476
  988SOL     OW13297   8.849   5.760   0.155 -0.4544 -0.4765  1.0138
  988SOL    HW113298   8.812   5.684   0.101 -1.4119  2.1056 -2.1315
  988SOL    HW213299   8.949   5.752   0.159 -0.4906 -1.5430  0.1737
  989SOL     OW13300   8.538   0.699   3.154  0.6598 -0.4576  0.0969
  989SOL    HW113301   8.529   0.600   3.164  0.1845 -0.5863 -1.5060
  989SOL    HW213302   8.513   0.726   3.061  1.4435  1.0903  0.3145
  990SOL     OW13303   4.874   1.655   1.456  0.2891  0.2343 -0.2419
  990SOL    HW113304   4.824   1.708   1.387 -1.0698 -1.0743 -0.2729
  990SOL    HW213305   4.897   1.565   1.419  1.3871  0.2834  0.2923
  991SOL     OW13306   3.759   2.292   0.841  0.5085  0.4037  0.3001
  991SOL    HW113307   3.675   2.297   0.896 -0.3881  0.2316 -1.0210
  991SOL    HW213308   3.752   2.216   0.777  1.1229  1.1661 -0.7006
  992SOL     OW13309   3.538   4.200   0.337 -0.3492 -0.2613 -0.1668
  992SOL    HW113310   3.454   4.255   0.339 -0.6938 -0.7145 -1.8611
  992SOL    HW213311   3.610   4.251   0.290  0.2486  0.0009  1.0167
  993SOL     OW13312   7.817   2.883   1.113 -0.3668  0.3195 -0.1912
  993SOL    HW113313   7.727   2.917   1.084 -0.3565  0.6361  0.1491
  993SOL    HW213314   7.863   2.840   1.035 -0.5962  0.6145 -0.4899
  994SOL     OW13315   0.326   1.927   2.754  0.5825  0.1648 -0.1653
  994SOL    HW113316   0.364   2.005   2.804  1.4741  0.5375 -1.3999
  994SOL    HW213317   0.364   1.842   2.791 -1.6190  0.1668  2.2702
  995SOL     OW13318   3.495   0.427   2.186 -0.2126  0.7969 -0.3572
  995SOL    HW113319   3.557   0.460   2.114  0.9488  1.0894  0.7558
  995SOL    HW213320   3.547   0.370   2.250 -1.5192 -0.5499 -0.4742
  996SOL     OW13321   1.362   2.173   2.169 -0.3094 -0.1076 -0.2989
  996SOL    HW113322   1.281   2.141   2.219 -2.5870  2.2508 -2.3269
  996SOL    HW213323   1.394   2.259   2.208 -0.7292  0.5798 -1.4292
  997SOL     OW13324   1.242   3.486   0.104 -0.3079  0.1479  0.3310
  997SOL    HW113325   1.283   3.553   0.166  4.2393 -0.0252 -2.2343
  997SOL    HW213326   1.275   3.502   0.011 -2.4438 -3.0857 -1.0782
  998SOL     OW13327   0.340   9.260   1.495  0.0066  0.1433  0.0821
  998SOL    HW113328   0.406   9.212   1.437 -1.3440 -1.3469 -0.2479
  998SOL    HW213329   0.365   9.247   1.591  2.0550  2.3380 -0.0882
  999SOL     OW13330   8.859   8.398   1.663  0.2198  0.0625 -0.0990
  999SOL    HW113331   8.888   8.349   1.581  0.3158  3.2687 -2.0688
  999SOL    HW213332   8.769   8.439   1.647 -0.4242 -0.5050  1.9451
 1000SOL     OW13333   2.352   7.444   2.963 -0.0261 -0.6944  0.2106
 1000SOL    HW113334   2.440   7.397   2.972 -0.3512 -1.0402  1.6804
 1000SOL    HW213335   2.282   7.392   3.012 -0.7028  0.5017  0.5145
 1001SOL     OW13336   8.306   1.062   2.764  0.4315 -0.4178 -0.4839
 1001SOL    HW113337   8.310   1.087   2.667 -0.1956  2.0208  0.0744
 1001SOL    HW213338   8.381   1.107   2.812  0.7349 -1.6248  0.1636
 1002SOL     OW13339   0.304   5.120   2.085 -0.3898 -0.0750  0.4758
 1002SOL    HW113340   0.399   5.105   2.114 -0.1117 -0.6869 -0.7141
 1002SOL    HW213341   0.242   5.093   2.158  0.3495  0.1056  1.1753
 1003SOL     OW13342   2.530   9.722   2.422  0.0287  0.1344  0.1693
 1003SOL    HW113343   2.531   9.798   2.358  1.5833  1.0042  1.2116
 1003SOL    HW213344   2.514   9.755   2.515 -1.7984 -1.0740  0.3169
 1004SOL     OW13345   2.091   3.329   2.877  0.3578  0.6451  0.3357
 1004SOL    HW113346   2.092   3.418   2.832 -1.6527  0.2171 -0.5930
 1004SOL    HW213347   2.010   3.278   2.850 -0.4337 -0.0319  3.7195
 1005SOL     OW13348   2.137   0.031   2.728 -0.0125  0.5797  0.4254
 1005SOL    HW113349   2.218   0.061   2.777  1.2045  0.0910 -1.2676
 1005SOL    HW213350   2.144  -0.066   2.706 -1.0643  0.5240  0.2821
 1006SOL     OW13351   2.887   7.711   1.519 -0.6608  0.0015 -0.0242
 1006SOL    HW113352   2.836   7.628   1.537  0.5579 -0.5211  1.0616
 1006SOL    HW213353   2.857   7.784   1.581  0.5093 -0.5577  1.2161
 1007SOL     OW13354   1.850   9.801   0.720 -0.0039  0.0729  0.1877
 1007SOL    HW113355   1.756   9.779   0.693  0.3646 -1.1222 -0.1496
 1007SOL    HW213356   1.876   9.889   0.679 -0.2381 -0.6333 -1.5433
 1008SOL     OW13357   1.943   0.485   2.037  0.3920  0.4686  0.1662
 1008SOL    HW113358   2.020   0.498   2.100  0.9454  0.2295 -0.4576
 1008SOL    HW213359   1.943   0.558   1.969  0.8497 -0.2716 -0.6313
 1009SOL     OW13360   3.108   3.400   3.011 -0.4751  0.4382  0.2105
 1009SOL    HW113361   3.122   3.471   3.080 -2.0979  0.9270  0.0487
 1009SOL    HW213362   3.077   3.316   3.055 -3.2253  1.2639 -0.0561
 1010SOL     OW13363   8.618   5.294   2.886  0.1600  0.1381  0.0034
 1010SOL    HW113364   8.606   5.356   2.963 -0.5156  1.0854 -0.8439
 1010SOL    HW213365   8.709   5.308   2.847  0.2399  0.1579  0.1961
 1011SOL     OW13366   8.179   0.051   3.398 -0.6606  0.5573 -0.2542
 1011SOL    HW113367   8.095   0.033   3.449 -0.8935 -0.3314 -0.9362
 1011SOL    HW213368   8.247  -0.019   3.419 -0.4428  0.7046 -0.4599
 1012SOL     OW13369   9.873   2.171   1.277  0.1276 -0.1233  0.1497
 1012SOL    HW113370   9.881   2.080   1.238  0.3435 -0.2116  0.3990
 1012SOL    HW213371   9.840   2.235   1.207  0.3301 -0.3182 -0.1202
 1013SOL     OW13372   2.496   3.908   3.007  0.1459 -0.0348 -0.8935
 1013SOL    HW113373   2.493   4.003   2.975  1.2117  0.5996  0.8085
 1013SOL    HW213374   2.403   3.875   3.024 -0.1300  1.3441  0.3209
 1014SOL     OW13375   2.101   7.560   1.128  0.0866 -0.1708 -0.3612
 1014SOL    HW113376   2.021   7.501   1.141  0.8743 -1.1152  0.2876
 1014SOL    HW213377   2.156   7.561   1.211  1.4664 -0.6298 -1.2423
 1015SOL     OW13378   1.599   4.015   3.189 -0.0200  0.4467 -0.3098
 1015SOL    HW113379   1.539   4.015   3.109  0.2522 -0.4769 -0.5269
 1015SOL    HW213380   1.687   3.974   3.164 -0.1524 -0.4289  0.6092
 1016SOL     OW13381   2.115   0.416   3.199 -0.7234  0.0295 -0.9813
 1016SOL    HW113382   2.075   0.502   3.231 -0.7939 -0.5888  0.6305
 1016SOL    HW213383   2.197   0.436   3.145  1.2394  0.9870  2.2572
 1017SOL     OW13384   0.439   8.061   1.689  0.0322  0.0879  0.2086
 1017SOL    HW113385   0.381   7.995   1.737  3.1333 -2.5787  0.4296
 1017SOL    HW213386   0.438   8.041   1.591  0.2158  0.3398  0.1551
 1018SOL     OW13387   3.886   9.535   2.540 -0.5512  0.7735 -0.9001
 1018SOL    HW113388   3.795   9.495   2.551  0.3506 -1.2672 -0.4832
 1018SOL    HW213389   3.924   9.557   2.629 -0.3807  0.9836 -1.0244
 1019SOL     OW13390   3.592   9.497   2.530 -0.3269  0.6190  0.2714
 1019SOL    HW113391   3.593   9.425   2.599 -0.3791 -0.8640 -1.2603
 1019SOL    HW213392   3.498   9.513   2.499 -0.1313  0.2789 -0.5003
 1020SOL     OW13393   6.461   8.989   2.441  0.0560  0.0933 -0.1055
 1020SOL    HW113394   6.531   9.028   2.501  0.6664  1.7733 -1.8646
 1020SOL    HW213395   6.492   8.899   2.409  0.3807 -0.1694  0.9155
 1021SOL     OW13396   9.412   0.049   2.555  0.2961  0.6009 -0.3079
 1021SOL    HW113397   9.359  -0.005   2.490 -0.9840  1.0576  0.3607
 1021SOL    HW213398   9.424  -0.003   2.640  2.0385 -0.0292 -0.9072
 1022SOL     OW13399   2.705   2.153   1.691  0.1299  0.4220  0.1211
 1022SOL    HW113400   2.711   2.140   1.791  0.4320 -0.9197 -0.0570
 1022SOL    HW213401   2.653   2.235   1.671  0.7120  1.1211  1.4097
 1023SOL     OW13402   1.322   7.554   0.990  0.4419  0.1035  0.3620
 1023SOL    HW113403   1.400   7.494   1.008  0.0128 -0.3801  0.6286
 1023SOL    HW213404   1.342   7.646   1.024  2.1438  0.8003 -2.3708
 1024SOL     OW13405   9.754   9.305   2.206  0.7998  0.1020 -0.1786
 1024SOL    HW113406   9.777   9.349   2.292  1.1707  0.6548 -0.5557
 1024SOL    HW213407   9.654   9.301   2.196  0.6244 -3.4011  2.0182
 1025SOL     OW13408   0.446   0.551   0.762 -0.4460 -0.3077 -0.1080
 1025SOL    HW113409   0.382   0.592   0.826 -0.2505  0.5318 -0.4418
 1025SOL    HW213410   0.503   0.483   0.809 -1.0333 -0.4793  0.3568
 1026SOL     OW13411   4.177   2.679   0.125  0.7811 -0.4026  0.7701
 1026SOL    HW113412   4.251   2.740   0.098  1.6981 -0.8500  2.2651
 1026SOL    HW213413   4.157   2.691   0.222 -0.8092 -0.6052  0.4788
 1027SOL     OW13414   3.126   4.652   2.644  0.2315 -0.1215 -0.6489
 1027SOL    HW113415   3.049   4.685   2.589  0.4163  0.7514 -0.3938
 1027SOL    HW213416   3.140   4.554   2.627 -1.1625 -0.3702 -0.4332
 1028SOL     OW13417   4.685   3.063   0.533 -0.0090  0.4567  0.3452
 1028SOL    HW113418   4.785   3.065   0.534 -0.0046  0.3946  0.1133
 1028SOL    HW213419   4.652   3.009   0.611  0.1761 -0.6934 -0.3586
 1029SOL     OW13420   7.454   9.272   1.995  0.1332  0.4890 -0.2510
 1029SOL    HW113421   7.407   9.300   1.911  0.8603  1.4754 -0.3399
 1029SOL    HW213422   7.400   9.300   2.074  0.0032  0.5919 -0.3764
 1030SOL     OW13423   9.253   4.421   0.534 -0.4422 -0.3924 -0.0497
 1030SOL    HW113424   9.322   4.362   0.491 -1.1244 -0.8762 -0.4929
 1030SOL    HW213425   9.263   4.416   0.634  1.5885  1.2596 -0.1339
 1031SOL     OW13426   4.786   8.706   2.288 -0.1025 -0.1005 -0.0857
 1031SOL    HW113427   4.872   8.758   2.288  0.7913 -1.5135  0.8816
 1031SOL    HW213428   4.724   8.744   2.220  1.3069  0.9391 -0.8310
 1032SOL     OW13429   9.750   7.308   3.075 -0.1035 -0.6065  0.0793
 1032SOL    HW113430   9.830   7.367   3.062  0.9930 -1.8954  0.8018
 1032SOL    HW213431   9.752   7.271   3.168 -0.6919 -1.8960 -0.4219
 1033SOL     OW13432   3.105   9.724   2.543 -0.3728  0.8327 -0.1432
 1033SOL    HW113433   3.026   9.781   2.521 -1.1439  0.2000  0.9577
 1033SOL    HW213434   3.075   9.637   2.581  0.8428  0.4974  0.0870
 1034SOL     OW13435   9.914   8.316   1.053 -0.5509 -0.2985 -0.0337
 1034SOL    HW113436   9.993   8.372   1.075 -1.0087  0.6516 -0.7816
 1034SOL    HW213437   9.864   8.294   1.136 -0.8208  1.0707  0.1674
 1035SOL     OW13438   4.270   9.452   0.186 -0.5407  0.4474 -0.2301
 1035SOL    HW113439   4.342   9.520   0.203 -2.0471  1.7732  0.9346
 1035SOL    HW213440   4.212   9.483   0.112  0.0770 -0.6509 -1.2028
 1036SOL     OW13441   4.729   1.151   2.996 -0.2108 -0.3836  0.2201
 1036SOL    HW113442   4.727   1.055   2.969  0.6126 -0.5705  0.7914
 1036SOL    HW213443   4.643   1.195   2.970 -0.9237 -1.4779  0.6898
 1037SOL     OW13444   2.776   2.273   0.218 -0.3222  0.7612 -0.1992
 1037SOL    HW113445   2.813   2.362   0.247  0.2218  0.3772  0.2873
 1037SOL    HW213446   2.842   2.227   0.159 -1.7979  1.9523 -2.9076
 1038SOL     OW13447   2.658   2.719   1.029 -0.1670 -0.5193 -0.3730
 1038SOL    HW113448   2.585   2.735   1.096  0.0096 -2.8750  0.4253
 1038SOL    HW213449   2.744   2.753   1.065 -0.5898  0.9387 -0.6959
 1039SOL     OW13450   3.984   2.741   3.217  0.1418 -0.0195  0.3758
 1039SOL    HW113451   3.927   2.822   3.208  0.5910  0.2610  0.0677
 1039SOL    HW213452   3.967   2.698   3.306 -0.0634  0.4339  0.5546
 1040SOL     OW13453   8.059   0.863   1.929 -0.0974 -0.3636 -0.3798
 1040SOL    HW113454   8.024   0.772   1.906 -0.7458  0.4397 -2.7311
 1040SOL    HW213455   7.986   0.918   1.970 -0.0671 -0.4776 -0.1740
 1041SOL     OW13456   0.924   4.864   0.980 -0.0445  0.2720  0.3271
 1041SOL    HW113457   0.898   4.791   1.045 -0.3696  1.0974  1.1469
 1041SOL    HW213458   0.946   4.947   1.031 -1.5867  1.3324 -0.6752
 1042SOL     OW13459   2.802   4.666   0.527 -0.4084  0.1216 -0.0010
 1042SOL    HW113460   2.706   4.671   0.553  0.1326  1.2197  1.8254
 1042SOL    HW213461   2.812   4.602   0.450 -2.2509 -2.0056  1.4597
 1043SOL     OW13462   0.399   7.235   1.612 -0.0569 -0.1189 -0.0016
 1043SOL    HW113463   0.299   7.235   1.610 -0.0599 -2.4030 -0.5148
 1043SOL    HW213464   0.432   7.153   1.657  1.6126 -0.5900 -2.0008
 1044SOL     OW13465   3.374   9.024   2.513  0.1299  0.6615 -0.2553
 1044SOL    HW113466   3.437   9.087   2.466 -0.0528 -0.0036 -1.3988
 1044SOL    HW213467   3.425   8.943   2.544  0.1139  0.7854  0.1051
 1045SOL     OW13468   0.286   3.251   0.213  0.3138  0.0810  0.0578
 1045SOL    HW113469   0.341   3.169   0.232  1.8179  0.4744 -2.4570
 1045SOL    HW213470   0.344   3.323   0.176 -1.7806  0.6834 -2.2128
 1046SOL     OW13471   3.121   0.709   0.660  0.4581 -0.2167 -0.3142
 1046SOL    HW113472   3.176   0.655   0.723 -1.2484 -2.5515 -0.7627
 1046SOL    HW213473   3.024   0.686   0.672 -0.3700  2.9775 -0.3147
 1047SOL     OW13474   3.962   3.067   1.596  0.2211  1.0155 -0.2935
 1047SOL    HW113475   3.924   3.150   1.555 -0.1887 -0.0170 -2.0744
 1047SOL    HW213476   4.055   3.054   1.563  0.5276  1.1353  0.5265
 1048SOL     OW13477   8.760   0.476   0.592  0.3818 -0.4222  0.6150
 1048SOL    HW113478   8.816   0.542   0.543 -0.6974  1.1409  1.4288
 1048SOL    HW213479   8.687   0.443   0.532  0.8234 -0.7456  0.2564
 1049SOL     OW13480   9.426   7.209   1.232 -0.0309 -0.1406  0.0398
 1049SOL    HW113481   9.374   7.245   1.154  1.3460 -1.2399 -1.4001
 1049SOL    HW213482   9.464   7.120   1.208  1.2665 -0.0181  1.6177
 1050SOL     OW13483   9.645   0.677   2.766  0.5982  0.0721  0.0414
 1050SOL    HW113484   9.679   0.592   2.724  0.4685  0.3090 -0.5549
 1050SOL    HW213485   9.684   0.755   2.718 -0.2185  0.3503 -0.1801
 1051SOL     OW13486   7.826   1.827   2.525 -0.2708  0.5744  0.1240
 1051SOL    HW113487   7.803   1.740   2.481  1.1273  0.5626 -0.6209
 1051SOL    HW213488   7.822   1.816   2.625  0.3035 -0.4722  0.0430
 1052SOL     OW13489   3.620   6.436   2.974  0.4367 -0.5844  0.4414
 1052SOL    HW113490   3.521   6.427   2.971  0.4995 -0.9791 -1.4610
 1052SOL    HW213491   3.645   6.523   3.017 -0.7046 -0.7803  1.5049
 1053SOL     OW13492   2.306   7.978   0.133  0.5225 -0.0339 -0.6191
 1053SOL    HW113493   2.366   8.019   0.202  1.5841 -1.7587 -0.4669
 1053SOL    HW213494   2.224   8.034   0.122  1.2176  1.2750  0.6698
 1054SOL     OW13495   3.214   7.135   2.024  0.0416 -0.0100  0.6930
 1054SOL    HW113496   3.198   7.233   2.011  0.3760  0.0827  0.9642
 1054SOL    HW213497   3.312   7.117   2.025 -0.0308 -0.5125 -0.5114
 1055SOL     OW13498   9.183   3.434   1.405  0.1779 -0.3448  0.0962
 1055SOL    HW113499   9.135   3.351   1.377  1.2262 -1.3638  1.3190
 1055SOL    HW213500   9.149   3.464   1.494 -1.0183  1.2101 -0.8518
 1056SOL     OW13501   2.297   6.697   0.045 -0.1683  0.1046 -0.2049
 1056SOL    HW113502   2.322   6.709  -0.051 -0.6652  0.6355 -0.2707
 1056SOL    HW213503   2.247   6.778   0.077  0.6667  0.2663  0.7182
 1057SOL     OW13504   1.168   4.830   2.600 -0.0604  0.0132  0.4949
 1057SOL    HW113505   1.078   4.874   2.605  0.4158  0.9411  1.0944
 1057SOL    HW213506   1.182   4.774   2.681  0.5214  1.1044  1.1651
 1058SOL     OW13507   1.041   2.945   3.426  0.1427 -0.0849  0.0748
 1058SOL    HW113508   1.090   3.031   3.433 -1.6546  0.8623  1.2642
 1058SOL    HW213509   0.983   2.946   3.344 -0.5257  0.1881  0.5463
 1059SOL     OW13510   8.097   2.138   2.479  0.2277  0.5058 -0.2921
 1059SOL    HW113511   8.089   2.157   2.577  1.9550  1.8628 -0.3852
 1059SOL    HW213512   8.097   2.225   2.429  1.6383 -0.0776 -1.3057
 1060SOL     OW13513   8.932   9.080   2.488  0.0872  0.4022 -0.1659
 1060SOL    HW113514   8.896   9.171   2.508 -1.2862 -0.1447 -0.0962
 1060SOL    HW213515   8.990   9.050   2.564  0.6066  1.2437 -0.2256
 1061SOL     OW13516   9.428   6.533   1.394  0.2262 -0.2886  0.3429
 1061SOL    HW113517   9.386   6.578   1.473 -1.2676  0.0741 -0.6275
 1061SOL    HW213518   9.397   6.438   1.390 -0.7915  0.0704 -0.5601
 1062SOL     OW13519   4.413   3.944   0.089  0.3069 -0.0208  0.1368
 1062SOL    HW113520   4.376   4.033   0.118 -2.5761 -1.3378  0.6941
 1062SOL    HW213521   4.456   3.899   0.168 -0.0373  0.0333  0.3600
 1063SOL     OW13522   0.909   4.029   0.212  0.0665 -0.3212 -0.9749
 1063SOL    HW113523   0.966   3.953   0.244 -0.6346 -0.1851  0.6378
 1063SOL    HW213524   0.950   4.115   0.242 -0.9669 -0.2206  0.1721
 1064SOL     OW13525   4.812   1.580   2.681  0.0914 -0.7275 -0.3572
 1064SOL    HW113526   4.800   1.636   2.763  0.3282 -1.0377 -0.1128
 1064SOL    HW213527   4.899   1.604   2.637  1.5444 -2.8341  1.2601
 1065SOL     OW13528   7.076   9.417   2.068  0.8246 -0.0149  0.4373
 1065SOL    HW113529   7.012   9.494   2.078 -0.7771 -1.3272  0.4864
 1065SOL    HW213530   7.146   9.441   2.001 -0.6093  0.8736 -0.7981
 1066SOL     OW13531   3.036   4.994   1.996  0.0424  0.1695 -0.7473
 1066SOL    HW113532   3.078   4.973   1.908  4.3959 -1.4686  1.5468
 1066SOL    HW213533   3.050   5.090   2.018  1.9861 -0.1926 -0.3509
 1067SOL     OW13534   4.235   2.377   3.215  0.4336  0.4507  0.4800
 1067SOL    HW113535   4.147   2.358   3.260 -0.1662  1.2721 -0.3108
 1067SOL    HW213536   4.294   2.427   3.277 -0.8620  2.6944 -0.0448
 1068SOL     OW13537   9.635   0.039   2.048 -0.3451  0.0713 -0.0571
 1068SOL    HW113538   9.588  -0.050   2.044  0.0666 -0.0664 -2.9484
 1068SOL    HW213539   9.713   0.033   2.110 -2.3974 -0.5091  2.5981
 1069SOL     OW13540   8.633   1.882   0.655  0.3802  0.4916 -0.3849
 1069SOL    HW113541   8.662   1.789   0.632  1.6245  0.5582  0.8607
 1069SOL    HW213542   8.573   1.878   0.735  2.2730  0.9610  1.0740
 1070SOL     OW13543   8.757   1.803   1.379  0.6100  0.8917  0.4016
 1070SOL    HW113544   8.684   1.752   1.331  0.1078  2.0885 -0.1256
 1070SOL    HW213545   8.803   1.742   1.443 -2.0567  0.5521  2.0712
 1071SOL     OW13546   8.746   0.629   2.217  0.5556  0.4575  0.0722
 1071SOL    HW113547   8.654   0.667   2.229  1.0651  1.3460  1.2068
 1071SOL    HW213548   8.803   0.654   2.295  1.5676 -0.6929 -0.2845
 1072SOL     OW13549   8.707   8.640   1.925  0.2167 -0.1524 -0.3368
 1072SOL    HW113550   8.690   8.637   1.827 -0.2724 -1.9556 -0.2111
 1072SOL    HW213551   8.621   8.645   1.975  0.4795  1.4100 -0.0001
 1073SOL     OW13552   2.684   7.051   3.398  0.2948 -0.1297 -0.2236
 1073SOL    HW113553   2.676   6.980   3.467 -0.3004  0.8527  0.7250
 1073SOL    HW213554   2.595   7.069   3.357 -0.1678  2.2592  1.7588
 1074SOL     OW13555   9.884   6.691   3.441 -0.3872  0.3163 -0.2805
 1074SOL    HW113556   9.913   6.759   3.508  0.9042  0.8479 -1.3741
 1074SOL    HW213557   9.862   6.736   3.354 -0.0184 -0.6033 -0.8547
 1075SOL     OW13558   3.460   4.646   2.887 -0.2490  0.1669 -0.1032
 1075SOL    HW113559   3.489   4.741   2.900 -1.2592  0.4329  0.3061
 1075SOL    HW213560   3.535   4.584   2.909 -0.0063  0.8326  0.9828
 1076SOL     OW13561   1.810   3.425   2.630 -0.2620  0.4888 -0.0107
 1076SOL    HW113562   1.865   3.457   2.708 -1.5559  1.6255  0.4698
 1076SOL    HW213563   1.729   3.378   2.664 -1.0161  1.2989 -0.6469
 1077SOL     OW13564   0.224   7.862   3.009  0.5416 -0.7822  0.5954
 1077SOL    HW113565   0.263   7.924   2.940 -0.4365  1.9381  2.4259
 1077SOL    HW213566   0.159   7.801   2.965  0.9344  0.0077 -1.1354
 1078SOL     OW13567   2.863   0.853   0.885 -0.2491  0.2913  0.1024
 1078SOL    HW113568   2.874   0.927   0.819  0.1706  0.8517  0.7926
 1078SOL    HW213569   2.793   0.879   0.952  2.4606  1.6914  2.5358
 1079SOL     OW13570   0.518   0.415   3.194  0.0960  0.1013 -0.0195
 1079SOL    HW113571   0.495   0.318   3.196  0.7981 -0.0895 -1.0409
 1079SOL    HW213572   0.612   0.427   3.225 -0.2040  0.5219  0.7288
 1080SOL     OW13573   1.029   7.987   1.335  0.2797  0.2583  0.1767
 1080SOL    HW113574   1.031   7.938   1.248  1.4819  0.7672 -0.0897
 1080SOL    HW213575   1.092   8.064   1.331  0.5487  0.1212  1.5997
 1081SOL     OW13576   1.647   3.342   0.878 -0.8576 -0.2889 -0.1670
 1081SOL    HW113577   1.671   3.404   0.952  0.3271 -1.6380  0.6032
 1081SOL    HW213578   1.653   3.390   0.790  0.9506  0.4488  0.3322
 1082SOL     OW13579   4.795   9.535   1.584 -0.2169 -0.2410  1.0359
 1082SOL    HW113580   4.855   9.498   1.513 -1.0442  0.5443 -0.0790
 1082SOL    HW213581   4.802   9.634   1.585 -3.6017  0.0977 -1.0485
 1083SOL     OW13582   0.677   6.782   2.091 -0.2428  0.1722  0.2755
 1083SOL    HW113583   0.770   6.809   2.116 -0.5173  1.2414  0.1791
 1083SOL    HW213584   0.662   6.686   2.115  1.7168 -0.7721 -2.0588
 1084SOL     OW13585   9.750   9.538   2.070  0.4928 -0.8409 -0.4153
 1084SOL    HW113586   9.738   9.448   2.113  0.5013 -1.3008 -1.3716
 1084SOL    HW213587   9.713   9.608   2.131  1.1021 -1.4207  0.6424
 1085SOL     OW13588   1.019   8.676   0.163 -0.3950  0.0510  0.1099
 1085SOL    HW113589   0.991   8.752   0.222  1.0901  1.2210 -0.6758
 1085SOL    HW213590   1.098   8.630   0.203 -0.8233 -0.6263  0.1932
 1086SOL     OW13591   4.803   0.198   2.106  0.1680  0.2668 -0.0584
 1086SOL    HW113592   4.730   0.236   2.164  0.6994 -0.7044  1.2745
 1086SOL    HW213593   4.830   0.266   2.038  0.1659  1.7701  1.4151
 1087SOL     OW13594   0.409   3.472   1.737  0.4140  0.0970 -0.9140
 1087SOL    HW113595   0.379   3.567   1.746  0.0106 -0.1307  0.2110
 1087SOL    HW213596   0.338   3.419   1.690 -0.5335 -0.2136  0.8236
 1088SOL     OW13597   9.845   0.793   2.079  0.5780 -0.2346  0.6218
 1088SOL    HW113598   9.852   0.893   2.071  0.1068 -0.0963  1.7718
 1088SOL    HW213599   9.760   0.762   2.037  2.0166 -0.4951 -2.2437
 1089SOL     OW13600   9.691   0.084   0.280  0.5326  0.5998  0.2297
 1089SOL    HW113601   9.762   0.100   0.349 -0.2661  0.1594  1.1604
 1089SOL    HW213602   9.707  -0.004   0.235  1.1209  0.9402 -0.2301
 1090SOL     OW13603   3.677   3.210   1.501 -0.3623 -0.1753  0.1254
 1090SOL    HW113604   3.717   3.133   1.451 -1.4074 -0.2407 -0.6180
 1090SOL    HW213605   3.582   3.189   1.525 -0.7108  0.9415 -0.2391
 1091SOL     OW13606   4.871   8.319   0.478 -0.2948 -0.1777  0.2209
 1091SOL    HW113607   4.894   8.299   0.573  0.7520  2.2054  0.5037
 1091SOL    HW213608   4.942   8.376   0.437 -0.6156 -1.3532 -2.0830
 1092SOL     OW13609   9.320   9.579   2.737 -0.0563  0.1598  0.2096
 1092SOL    HW113610   9.399   9.576   2.677 -0.7269 -2.0807 -0.6371
 1092SOL    HW213611   9.237   9.560   2.684 -0.7123 -1.3284  1.6938
 1093SOL     OW13612   1.110   8.778   1.046 -0.3664  0.7663 -0.0775
 1093SOL    HW113613   1.034   8.791   1.110 -0.0538  1.0586  0.2319
 1093SOL    HW213614   1.197   8.782   1.095 -0.1613  0.1626 -0.3937
 1094SOL     OW13615   8.167   0.339   3.423 -0.2223 -0.3501  0.4024
 1094SOL    HW113616   8.093   0.371   3.363  1.1486 -1.1947 -1.7949
 1094SOL    HW213617   8.171   0.239   3.419  0.9850 -0.3089  0.5638
 1095SOL     OW13618   9.618   2.913   2.223 -0.3282 -0.5950  0.1408
 1095SOL    HW113619   9.682   2.987   2.243 -0.2590 -0.7401  0.4522
 1095SOL    HW213620   9.670   2.831   2.195 -0.4490 -0.1711 -1.3788
 1096SOL     OW13621   8.604   7.378   0.784 -0.0700 -0.3373 -0.4532
 1096SOL    HW113622   8.562   7.414   0.867 -0.9150  1.0051 -1.4385
 1096SOL    HW213623   8.663   7.447   0.744  0.0327 -0.8408 -1.1754
 1097SOL     OW13624   0.344   8.034   2.828  0.0902  0.0596 -0.3475
 1097SOL    HW113625   0.319   8.043   2.731 -0.5412 -0.5094 -0.2428
 1097SOL    HW213626   0.425   8.090   2.847  0.3894 -0.0532 -1.2709
 1098SOL     OW13627   4.715   2.150   1.779  0.3492 -0.3430 -0.5416
 1098SOL    HW113628   4.639   2.208   1.808  0.0144 -0.7002 -0.6849
 1098SOL    HW213629   4.681   2.081   1.715  0.7927 -0.5220 -0.5881
 1099SOL     OW13630   0.851   9.567   3.383  0.4528  0.1654  0.0071
 1099SOL    HW113631   0.931   9.583   3.441  0.6458 -0.0805 -0.1840
 1099SOL    HW213632   0.881   9.525   3.297  0.3829  2.2440 -1.0665
 1100SOL     OW13633   3.326   7.004   2.399 -0.1486 -0.5001 -1.3118
 1100SOL    HW113634   3.249   7.024   2.459  0.6328 -1.1560 -0.0695
 1100SOL    HW213635   3.311   6.918   2.352 -0.8315  0.0883 -2.1908
 1101SOL     OW13636   1.131   5.099   1.867 -0.5523  0.2393 -0.1047
 1101SOL    HW113637   1.059   5.031   1.859 -1.2517  0.9686 -0.0776
 1101SOL    HW213638   1.220   5.053   1.868 -0.9659 -0.6055 -1.0239
 1102SOL     OW13639   1.470   9.054   2.483  0.3601  0.0627  0.1551
 1102SOL    HW113640   1.478   9.150   2.510 -0.2811  0.6401 -1.6410
 1102SOL    HW213641   1.392   9.043   2.422 -0.4340 -1.8747  1.4947
 1103SOL     OW13642   7.696   0.250   0.889 -0.0143  0.5698 -0.2454
 1103SOL    HW113643   7.612   0.303   0.877  0.0632  0.7397 -0.0358
 1103SOL    HW213644   7.685   0.161   0.846 -0.7734  0.1036  0.8820
 1104SOL     OW13645   3.406   1.640   0.147 -0.7217  0.9211 -0.0391
 1104SOL    HW113646   3.390   1.647   0.049 -2.2148  0.7102  0.1687
 1104SOL    HW213647   3.323   1.668   0.196 -1.0424 -1.8243  1.0948
 1105SOL     OW13648   1.701   8.397   2.701  0.4369 -0.1058 -0.3134
 1105SOL    HW113649   1.745   8.469   2.648  0.3092  0.2898  0.1202
 1105SOL    HW213650   1.630   8.436   2.759  0.8889 -0.4656  0.4970
 1106SOL     OW13651   1.939   5.189   3.007 -0.1006  0.3440 -0.1208
 1106SOL    HW113652   2.006   5.262   2.988  0.3896 -0.0657  0.0139
 1106SOL    HW213653   1.976   5.102   2.975 -0.8137  0.1965 -0.5475
 1107SOL     OW13654   1.118   8.229   1.234 -0.2540 -0.1538  0.5491
 1107SOL    HW113655   1.045   8.238   1.166 -0.1368 -2.0903  0.1278
 1107SOL    HW213656   1.190   8.296   1.214 -0.4662 -0.3460 -0.9354
 1108SOL     OW13657   0.808   5.432   0.011 -0.2798  0.0414  0.2569
 1108SOL    HW113658   0.739   5.493  -0.028  0.5125 -0.1665 -1.5200
 1108SOL    HW213659   0.828   5.461   0.105  0.4997  2.9382 -0.7221
 1109SOL     OW13660   8.974   9.014   0.235 -0.6896 -0.7470  0.0812
 1109SOL    HW113661   9.048   9.012   0.303 -1.7010 -0.9090  1.1793
 1109SOL    HW213662   8.917   8.933   0.244 -1.2676 -0.4149 -0.4825
 1110SOL     OW13663   0.762   3.767   3.401 -0.5067 -0.5004 -0.4045
 1110SOL    HW113664   0.849   3.797   3.441 -0.9567 -0.1954  0.3485
 1110SOL    HW213665   0.781   3.709   3.322  0.3854 -0.2556 -0.3802
 1111SOL     OW13666   9.597   0.091   2.366  0.1266 -0.0260  0.7720
 1111SOL    HW113667   9.525   0.083   2.435 -0.8306 -0.7607 -0.3042
 1111SOL    HW213668   9.576   0.168   2.305 -0.0912 -0.6406  0.0671
 1112SOL     OW13669   9.826   1.492   2.393 -0.1632 -0.0193 -0.5234
 1112SOL    HW113670   9.764   1.480   2.316 -0.4243  1.2819 -0.5256
 1112SOL    HW213671   9.869   1.582   2.388 -0.8153  0.4187  1.2894
 1113SOL     OW13672   3.875   1.917   1.458 -0.2051  0.2771 -0.3853
 1113SOL    HW113673   3.879   1.967   1.545  0.1106 -1.5344  0.6634
 1113SOL    HW213674   3.780   1.913   1.427 -0.2878  1.1583 -0.2710
 1114SOL     OW13675   2.047   0.170   3.092  0.1943 -0.4571  0.0642
 1114SOL    HW113676   1.983   0.189   3.017 -0.3182 -1.9845  0.0908
 1114SOL    HW213677   2.078   0.256   3.132 -1.9112  0.3250  0.1030
 1115SOL     OW13678   1.846   8.786   1.905  0.5818  0.3092 -0.1298
 1115SOL    HW113679   1.943   8.795   1.930  0.3774 -0.6373  1.0719
 1115SOL    HW213680   1.791   8.848   1.960  0.5518  1.2466 -1.2011
 1116SOL     OW13681   1.731   4.455   3.374  0.3960 -0.0844  0.5324
 1116SOL    HW113682   1.669   4.379   3.391  0.6256  0.0765  2.2761
 1116SOL    HW213683   1.808   4.424   3.318  0.3880 -1.0941  1.0654
 1117SOL     OW13684   3.472   2.911   0.337  0.6423 -0.0880 -0.0369
 1117SOL    HW113685   3.448   2.828   0.289 -0.8448 -0.1635  0.7963
 1117SOL    HW213686   3.555   2.896   0.391  3.2835  0.4868 -3.7722
 1118SOL     OW13687   8.846   3.149   0.255 -0.2038  0.1240  0.4938
 1118SOL    HW113688   8.766   3.207   0.243 -0.9478 -1.0990 -0.6438
 1118SOL    HW213689   8.857   3.091   0.174 -0.0382 -1.9924  1.9952
 1119SOL     OW13690   1.481   1.221   2.681  0.3692  0.5467  0.1683
 1119SOL    HW113691   1.403   1.259   2.730  0.8464 -0.0318  1.3988
 1119SOL    HW213692   1.511   1.137   2.726 -0.1962 -0.8888 -2.0557
 1120SOL     OW13693   3.814   0.285   1.476  0.1789 -0.0746  0.0510
 1120SOL    HW113694   3.742   0.355   1.478 -0.1591 -0.3500 -1.7756
 1120SOL    HW213695   3.904   0.328   1.479 -0.0382  0.3619  0.2847
 1121SOL     OW13696   2.188   8.558   1.775  0.1752  0.0957 -0.5128
 1121SOL    HW113697   2.095   8.552   1.739  0.0982 -0.2830 -0.2474
 1121SOL    HW213698   2.187   8.539   1.873  0.0953  3.1708  0.1304
 1122SOL     OW13699   3.762   9.897   1.248  0.5732 -0.2333  0.1925
 1122SOL    HW113700   3.817   9.814   1.259  2.3849  0.8941 -0.0313
 1122SOL    HW213701   3.823   9.977   1.249 -1.1723  1.1128  0.7370
 1123SOL     OW13702   9.840   3.087   3.109  0.1446 -0.0441 -0.2371
 1123SOL    HW113703   9.854   3.185   3.119 -0.1323 -0.0296 -0.0128
 1123SOL    HW213704   9.836   3.044   3.199 -1.9330  0.0361 -0.2781
 1124SOL     OW13705   0.826   5.118   1.288  0.0400  0.7205 -0.6489
 1124SOL    HW113706   0.812   5.212   1.317 -0.7505  1.3322 -2.9012
 1124SOL    HW213707   0.754   5.092   1.223 -0.0922 -1.6225  0.3871
 1125SOL     OW13708   2.596   0.009   0.631 -0.1778  0.0169  0.2180
 1125SOL    HW113709   2.551   0.012   0.721  0.2207  0.3141  0.4093
 1125SOL    HW213710   2.652  -0.074   0.625  1.0091  0.7507  0.8387
 1126SOL     OW13711   4.122   3.922   1.596 -0.1585 -0.1118 -0.0791
 1126SOL    HW113712   4.171   3.847   1.640 -0.8910 -0.6377 -0.1401
 1126SOL    HW213713   4.176   3.957   1.519  0.4653 -0.1589  0.3330
 1127SOL     OW13714   1.160   9.852   1.984  0.5768  0.0037  0.2178
 1127SOL    HW113715   1.242   9.819   2.031  0.2779 -0.9413  0.0791
 1127SOL    HW213716   1.085   9.861   2.050  0.0259 -1.7684 -0.1499
 1128SOL     OW13717   1.756   6.607   1.608  0.3358 -0.5152  1.3309
 1128SOL    HW113718   1.683   6.644   1.550  0.6207 -0.1054  1.2341
 1128SOL    HW213719   1.804   6.683   1.653 -0.6007 -0.8483  2.9693
 1129SOL     OW13720   4.266   7.843   3.309  0.0474  0.3716 -0.8295
 1129SOL    HW113721   4.338   7.775   3.296  0.4374  0.5907  0.1257
 1129SOL    HW213722   4.307   7.931   3.331 -0.5202  0.3876  0.2009
 1130SOL     OW13723   3.351   6.475   3.003 -0.0586  0.4156 -0.0543
 1130SOL    HW113724   3.258   6.440   3.014  0.6222 -1.4349 -0.0190
 1130SOL    HW213725   3.355   6.535   2.923 -1.3118  0.6050  0.0154
 1131SOL     OW13726   3.297   1.386   0.451 -0.2363 -0.6761 -0.4000
 1131SOL    HW113727   3.231   1.441   0.399 -0.3727 -1.4159 -1.0128
 1131SOL    HW213728   3.389   1.401   0.414 -0.4848 -2.1526 -1.7021
 1132SOL     OW13729   1.281   9.103   0.923  0.2351  0.1353 -0.4015
 1132SOL    HW113730   1.221   9.063   0.992 -0.6850  1.5910 -0.3158
 1132SOL    HW213731   1.225   9.156   0.859  1.2785  0.2334 -1.2345
 1133SOL     OW13732   9.224   7.747   0.575 -0.0964 -0.0447  0.0027
 1133SOL    HW113733   9.293   7.819   0.584  0.2876 -0.6551  2.3952
 1133SOL    HW213734   9.256   7.678   0.510  0.5261  0.8036 -0.6086
 1134SOL     OW13735   0.209   8.854   1.275  0.2732  0.1303  0.1992
 1134SOL    HW113736   0.228   8.777   1.336  0.2523  0.1872  0.2774
 1134SOL    HW213737   0.110   8.862   1.262  0.2369  0.5169  0.6773
 1135SOL     OW13738   4.816   0.516   2.516 -0.2722  0.3866  0.4769
 1135SOL    HW113739   4.909   0.548   2.501 -0.3778  1.3392  1.6874
 1135SOL    HW213740   4.815   0.451   2.592 -0.5089 -0.0956  0.0650
 1136SOL     OW13741   2.743   2.791   2.007  0.0870  0.2224  0.2155
 1136SOL    HW113742   2.824   2.780   1.948  0.1467 -0.3596  0.3995
 1136SOL    HW213743   2.663   2.755   1.959  0.0677  0.1172  0.3269
 1137SOL     OW13744   9.013   8.384   3.175 -0.4548  0.3900 -0.3747
 1137SOL    HW113745   8.915   8.364   3.165 -0.0389 -1.4592 -0.9883
 1137SOL    HW213746   9.060   8.365   3.088  0.7580 -0.6964  0.4986
 1138SOL     OW13747   1.703   1.065   3.441 -0.7156 -0.2123 -0.1714
 1138SOL    HW113748   1.607   1.088   3.425 -0.9956 -3.2532 -3.3232
 1138SOL    HW213749   1.761   1.126   3.387 -0.6933  2.6893  2.9544
 1139SOL     OW13750   3.490   6.381   0.259  0.0743 -0.0890 -0.8494
 1139SOL    HW113751   3.566   6.420   0.311 -0.8756  0.9288 -0.2041
 1139SOL    HW213752   3.495   6.281   0.262  0.8189 -0.0294  0.0052
 1140SOL     OW13753   2.692   7.028   0.936 -0.3676 -0.2110 -0.0779
 1140SOL    HW113754   2.742   7.082   0.868 -0.9577  2.0326  1.2553
 1140SOL    HW213755   2.627   7.086   0.985 -1.3237 -2.2133  1.0977
 1141SOL     OW13756   3.522   4.945   2.914 -0.1521  0.1274  0.5468
 1141SOL    HW113757   3.537   4.967   3.010  0.4631  1.4985  0.1475
 1141SOL    HW213758   3.598   4.890   2.880  1.2995  2.3707  0.0120
 1142SOL     OW13759   9.038   3.209   0.472 -0.3017  0.3916 -0.1119
 1142SOL    HW113760   8.997   3.208   0.381  0.3379  1.4585 -0.4279
 1142SOL    HW213761   9.125   3.259   0.468  0.0072 -0.0527  0.9642
 1143SOL     OW13762   2.628   8.525   1.646  0.2301 -0.3019  0.0910
 1143SOL    HW113763   2.681   8.442   1.665  2.6861  1.5626  1.6822
 1143SOL    HW213764   2.678   8.581   1.580  0.4073  1.6377  1.8397
 1144SOL     OW13765   0.579   1.110   2.263  0.1601  0.2590 -0.3295
 1144SOL    HW113766   0.634   1.035   2.301  1.5517  0.2029 -2.4268
 1144SOL    HW213767   0.491   1.073   2.233 -0.2340 -0.0249  1.0975
 1145SOL     OW13768   4.204   2.207   2.520 -0.3325  0.1028  0.1439
 1145SOL    HW113769   4.142   2.225   2.597  2.0675  1.4482  1.8348
 1145SOL    HW213770   4.253   2.291   2.497  0.9429 -0.9658 -1.0897
 1146SOL     OW13771   0.053   2.836   1.045 -0.2899  0.1220  0.8672
 1146SOL    HW113772   0.078   2.914   1.102  3.5265 -1.0021  0.8762
 1146SOL    HW213773   0.071   2.751   1.094 -2.6909 -0.8233  0.1875
 1147SOL     OW13774   9.144   3.665   1.233  0.6449  0.0932 -0.2526
 1147SOL    HW113775   9.196   3.730   1.288  1.1599  1.9342 -2.8545
 1147SOL    HW213776   9.122   3.585   1.289  1.5469  1.6820  2.4763
 1148SOL     OW13777   9.575   3.683   1.783 -0.1508 -0.0792  0.0670
 1148SOL    HW113778   9.478   3.696   1.763 -0.1820 -1.5816 -0.8646
 1148SOL    HW213779   9.622   3.656   1.699  1.4252  2.4397  0.1001
 1149SOL     OW13780   3.220   5.777   3.427  0.4853 -0.3985 -0.3630
 1149SOL    HW113781   3.263   5.867   3.416  1.2387 -0.6472  0.4889
 1149SOL    HW213782   3.260   5.730   3.506  0.1351 -1.5091 -0.8364
 1150SOL     OW13783   3.573   0.169   2.611 -0.5974  0.4588  0.1494
 1150SOL    HW113784   3.512   0.150   2.688  1.9051 -1.3377  1.7824
 1150SOL    HW213785   3.584   0.086   2.556  1.8383  0.1686  1.0029
 1151SOL     OW13786   0.304   1.489   0.768 -0.0667 -0.3362 -0.2334
 1151SOL    HW113787   0.303   1.544   0.685  0.3313 -1.4148 -0.9547
 1151SOL    HW213788   0.387   1.508   0.820  0.7587 -1.2777 -1.1827
 1152SOL     OW13789   3.042   2.869   0.338 -0.7220 -0.4326  0.5749
 1152SOL    HW113790   3.036   2.844   0.435  0.5740 -1.5931  0.3848
 1152SOL    HW213791   3.123   2.925   0.323 -1.1425  0.0872  0.2219
 1153SOL     OW13792   9.296   6.687   1.574  0.2274 -0.3658 -0.1983
 1153SOL    HW113793   9.281   6.760   1.641  1.5864  0.0192 -0.3101
 1153SOL    HW213794   9.208   6.659   1.536 -0.2924  1.3575 -0.3095
 1154SOL     OW13795   7.532   0.239   1.791 -0.3291 -0.7509  0.6907
 1154SOL    HW113796   7.463   0.195   1.733  0.0107 -0.8227  0.3393
 1154SOL    HW213797   7.540   0.335   1.766  0.7207 -1.0764 -0.2371
 1155SOL     OW13798   6.305   0.319   2.936  0.2140  0.1128 -0.2678
 1155SOL    HW113799   6.205   0.328   2.930  0.2613  1.2650  0.5599
 1155SOL    HW213800   6.328   0.249   3.004 -0.0254 -0.4487 -0.7534
 1156SOL     OW13801   8.433   0.679   1.512  0.0896  0.5476 -0.5319
 1156SOL    HW113802   8.363   0.661   1.582 -0.2844  1.6510 -0.6185
 1156SOL    HW213803   8.480   0.593   1.490 -0.1278  0.0953  0.7036
 1157SOL     OW13804   2.085   5.707   2.194  0.0933 -0.0860 -0.1141
 1157SOL    HW113805   2.102   5.768   2.117  1.9164 -0.2660  0.1129
 1157SOL    HW213806   1.994   5.668   2.186 -0.5222  1.4806 -1.0741
 1158SOL     OW13807   9.065   4.951   1.149 -0.2275 -0.0631  0.5286
 1158SOL    HW113808   9.140   4.892   1.117  0.8157  1.0454  0.8702
 1158SOL    HW213809   9.031   5.006   1.072 -0.5369 -0.3936  0.4266
 1159SOL     OW13810   0.991   1.747   2.518 -0.0902 -0.0793 -0.3935
 1159SOL    HW113811   0.990   1.680   2.444  1.5275  1.5420 -1.9413
 1159SOL    HW213812   0.938   1.712   2.596  1.2172 -3.4157 -0.9100
 1160SOL     OW13813   0.202   2.793   0.273  0.6099  0.1979  0.2219
 1160SOL    HW113814   0.263   2.748   0.207 -0.0500  0.1873 -0.3952
 1160SOL    HW213815   0.146   2.723   0.318  1.5827  0.1349  1.3400
 1161SOL     OW13816   8.558   6.445   2.078  0.1055 -0.2628 -0.1892
 1161SOL    HW113817   8.586   6.451   1.982 -0.7122  0.7255 -0.3673
 1161SOL    HW213818   8.534   6.535   2.112  0.6964 -0.5616  1.0511
 1162SOL     OW13819   8.284   9.102   0.727  0.0924  0.0663 -0.0095
 1162SOL    HW113820   8.337   9.069   0.649 -0.8434 -0.1074 -0.5875
 1162SOL    HW213821   8.208   9.158   0.693  0.6355  1.3320  0.8709
 1163SOL     OW13822   4.094   3.205   2.257  0.2197 -0.4094  0.0294
 1163SOL    HW113823   4.010   3.177   2.304  0.1063  0.1551  0.1756
 1163SOL    HW213824   4.099   3.162   2.167 -1.0915  0.8933 -0.7006
 1164SOL     OW13825   3.214   7.597   0.323  0.2933  0.0965  0.2783
 1164SOL    HW113826   3.289   7.543   0.360  0.4054  0.5529  0.7179
 1164SOL    HW213827   3.173   7.652   0.395 -0.4247 -0.1035  0.0256
 1165SOL     OW13828   9.791   7.259   0.906  0.0012 -0.7177 -0.2971
 1165SOL    HW113829   9.795   7.313   0.990  0.4776  1.5383 -1.7469
 1165SOL    HW213830   9.857   7.184   0.911  2.0363  1.0866  0.1896
 1166SOL     OW13831   4.210   3.344   2.020  0.3594  0.0515  0.5447
 1166SOL    HW113832   4.228   3.331   1.923 -0.5963  1.6087  0.1350
 1166SOL    HW213833   4.176   3.259   2.060 -0.6874 -0.1794 -0.8208
 1167SOL     OW13834   8.552   3.284   0.492 -0.3685  0.2002  0.0004
 1167SOL    HW113835   8.572   3.220   0.418  2.7855  0.8378  0.2256
 1167SOL    HW213836   8.539   3.233   0.578 -2.1522 -0.3965 -0.5962
 1168SOL     OW13837   9.952   8.268   0.157 -0.4743 -0.1232  0.0270
 1168SOL    HW113838   9.857   8.285   0.181 -0.3512 -1.2693  1.3807
 1168SOL    HW213839  10.010   8.292   0.235  0.2695 -0.3496 -0.4557
 1169SOL     OW13840   8.129   8.432   0.037 -0.0176  0.1070  0.1810
 1169SOL    HW113841   8.095   8.526   0.032 -0.0394  0.0429 -1.0469
 1169SOL    HW213842   8.196   8.418  -0.036  0.4262 -0.6559  0.7327
 1170SOL     OW13843   6.625   8.797   2.739 -0.1150  0.3967 -0.3560
 1170SOL    HW113844   6.689   8.853   2.791 -1.1049  0.5307  0.7370
 1170SOL    HW213845   6.532   8.815   2.770 -0.7012  0.2089 -1.9235
 1171SOL     OW13846   2.962   3.096   2.775  0.0652  0.2384  0.1669
 1171SOL    HW113847   2.956   3.043   2.691  1.3104 -0.0605  0.2618
 1171SOL    HW213848   2.971   3.193   2.753  2.9962 -0.0619 -0.1106
 1172SOL     OW13849   9.854   6.890   2.278 -0.5680  0.0885  0.4292
 1172SOL    HW113850   9.869   6.793   2.300  3.3754  0.8919  1.7478
 1172SOL    HW213851   9.871   6.905   2.181  0.9339 -0.1904  0.6403
 1173SOL     OW13852   6.839   9.379   2.298 -0.2619  0.8483  0.2519
 1173SOL    HW113853   6.775   9.309   2.266  0.1605  0.0912  1.0313
 1173SOL    HW213854   6.855   9.446   2.225  0.8821 -0.9663 -1.2110
 1174SOL     OW13855   3.830   3.879   2.158  0.2256 -0.2291  0.1178
 1174SOL    HW113856   3.852   3.841   2.248  0.4813 -0.3871 -0.0125
 1174SOL    HW213857   3.911   3.878   2.100 -0.0930 -0.7102 -0.3241
 1175SOL     OW13858   4.628   8.301   2.268  0.9944 -0.3699  0.2157
 1175SOL    HW113859   4.666   8.253   2.189 -0.0741  1.2548 -1.3302
 1175SOL    HW213860   4.581   8.384   2.237  0.4226  0.2156  2.5529
 1176SOL     OW13861   2.546   5.717   0.486  0.3047  0.1828 -0.3139
 1176SOL    HW113862   2.546   5.649   0.559  0.0601  0.9171  0.3812
 1176SOL    HW213863   2.636   5.761   0.482  0.2601  0.2758 -0.3140
 1177SOL     OW13864   0.224   6.060   3.064 -0.0651  0.7281 -0.4348
 1177SOL    HW113865   0.265   6.120   3.133  1.6201 -1.4616  0.5430
 1177SOL    HW213866   0.146   6.012   3.104  1.1363 -0.8191  0.1171
 1178SOL     OW13867   0.634   2.922   0.614 -0.3738 -0.7730 -0.3006
 1178SOL    HW113868   0.565   2.989   0.641  0.2446 -0.7057  1.1534
 1178SOL    HW213869   0.722   2.968   0.603 -0.5082 -0.8965 -1.9258
 1179SOL     OW13870   0.278   6.070   1.829  0.0083 -0.0654  0.0886
 1179SOL    HW113871   0.290   6.167   1.809 -1.8474  0.8144  3.0060
 1179SOL    HW213872   0.181   6.048   1.836  0.4297 -1.8741  0.7351
 1180SOL     OW13873   8.943   2.830   1.034  0.5300  0.0093  0.0357
 1180SOL    HW113874   9.011   2.801   0.967  0.1966 -1.8487  0.4986
 1180SOL    HW213875   8.906   2.751   1.082 -1.4079  1.0544  0.3465
 1181SOL     OW13876   2.921   9.194   0.625  0.3332  0.2764 -0.1727
 1181SOL    HW113877   2.960   9.126   0.687  2.3072  0.1470 -1.5100
 1181SOL    HW213878   2.993   9.233   0.568 -1.0627  2.1321 -0.7534
 1182SOL     OW13879   3.303   8.829   0.946  0.2866  0.1665 -0.1430
 1182SOL    HW113880   3.291   8.793   0.853  2.0624 -0.9705  0.0319
 1182SOL    HW213881   3.318   8.927   0.941 -2.0527  0.5219 -0.8467
 1183SOL     OW13882   9.565   0.460   2.452 -0.5335 -0.9240 -0.1150
 1183SOL    HW113883   9.637   0.457   2.521  0.0338  0.4958 -0.6128
 1183SOL    HW213884   9.600   0.425   2.366  1.1228  4.0014 -1.6340
 1184SOL     OW13885   2.784   1.615   1.480  0.0393  0.7740  0.1129
 1184SOL    HW113886   2.789   1.522   1.516 -2.6024  0.9054  0.9134
 1184SOL    HW213887   2.812   1.616   1.384  3.0926 -0.2984  0.9386
 1185SOL     OW13888   8.415   4.851   2.912  0.1897 -0.0575  0.0800
 1185SOL    HW113889   8.421   4.942   2.952 -2.3590  0.2505 -0.2050
 1185SOL    HW213890   8.479   4.844   2.835  0.2004  1.5641 -0.0690
 1186SOL     OW13891   2.126   0.346   2.698 -0.7997 -0.0188 -0.7765
 1186SOL    HW113892   2.179   0.398   2.631 -0.6043  1.7093  0.6598
 1186SOL    HW213893   2.073   0.409   2.754 -2.0116 -1.5292 -0.1895
 1187SOL     OW13894   3.363   1.502   1.986 -0.0119  0.4104  0.0161
 1187SOL    HW113895   3.376   1.482   1.889  0.5685  0.0188  0.1718
 1187SOL    HW213896   3.442   1.470   2.038  0.3055  1.8662  0.4559
 1188SOL     OW13897   9.148   0.872   2.747 -0.2089 -0.3625  0.4883
 1188SOL    HW113898   9.168   0.830   2.836 -0.9449 -0.6666  0.5146
 1188SOL    HW213899   9.158   0.805   2.675 -2.7438 -0.9757  0.6693
 1189SOL     OW13900   1.202   2.079   2.429  0.1122 -0.1094 -0.0408
 1189SOL    HW113901   1.205   2.156   2.492 -1.0017  0.2155 -0.3686
 1189SOL    HW213902   1.206   1.993   2.480 -0.1306  0.1589  0.4282
 1190SOL     OW13903   4.991   9.392   2.713  0.3323  0.9903  0.1922
 1190SOL    HW113904   5.077   9.413   2.760 -1.6495  1.9400  3.5318
 1190SOL    HW213905   4.949   9.477   2.682 -0.2235  0.6738  0.0784
 1191SOL     OW13906   2.225   5.620   0.288 -0.5977 -0.4819 -0.0881
 1191SOL    HW113907   2.285   5.541   0.273  1.6595  1.1902 -0.1642
 1191SOL    HW213908   2.188   5.652   0.201 -0.6479 -0.8008 -0.1831
 1192SOL     OW13909   0.932   9.832   2.528 -0.1411 -0.2451  0.2892
 1192SOL    HW113910   0.942   9.844   2.626  0.2391  1.4382  0.0545
 1192SOL    HW213911   0.835   9.831   2.503 -0.2040  0.9007  0.4903
 1193SOL     OW13912   2.276   6.224   0.010  0.4733 -0.1330  0.2229
 1193SOL    HW113913   2.290   6.294   0.080  0.1609  0.6073 -0.4458
 1193SOL    HW213914   2.361   6.208  -0.039 -0.1403  1.9430 -1.6048
 1194SOL     OW13915   4.782   8.157   2.699  0.5490 -0.0738 -0.1558
 1194SOL    HW113916   4.700   8.179   2.752  1.0139  0.2920  0.4124
 1194SOL    HW213917   4.803   8.233   2.638 -0.1929 -0.6437 -1.1317
 1195SOL     OW13918   2.644   5.835   2.297 -0.0449  0.0445  0.1185
 1195SOL    HW113919   2.732   5.789   2.303 -0.0307 -0.0054 -0.4442
 1195SOL    HW213920   2.601   5.815   2.209  1.2754  3.3782 -1.4031
 1196SOL     OW13921   3.503   4.173   3.038  0.5415 -0.1045  0.0877
 1196SOL    HW113922   3.468   4.120   3.115  0.2262  0.9071  0.6525
 1196SOL    HW213923   3.509   4.115   2.957 -2.5245 -0.3019 -0.0508
 1197SOL     OW13924   9.900   5.233   0.091  0.1906 -0.0287 -0.2517
 1197SOL    HW113925   9.812   5.197   0.062 -0.2872  1.7586 -1.1164
 1197SOL    HW213926   9.886   5.296   0.167  0.7793 -0.1189 -0.0689
 1198SOL     OW13927   3.778   4.095   1.162 -0.2637  0.1837 -0.0657
 1198SOL    HW113928   3.709   4.150   1.208  1.5059  1.3855  1.2303
 1198SOL    HW213929   3.784   4.122   1.066 -0.1022  1.5867  0.3277
 1199SOL     OW13930   4.494   3.122   2.097 -0.0062 -0.0486  0.0873
 1199SOL    HW113931   4.501   3.219   2.072  3.6036 -0.4310 -0.6251
 1199SOL    HW213932   4.468   3.115   2.193  2.7999  1.7036  1.0184
 1200SOL     OW13933   9.671   8.227   0.154  0.2744  0.3976  0.1793
 1200SOL    HW113934   9.645   8.193   0.245  1.0026  0.5696  0.4562
 1200SOL    HW213935   9.622   8.312   0.135 -1.7574 -0.9292 -0.6236
 1201SOL     OW13936   1.777   9.586   2.333  0.4417  0.2223  0.0833
 1201SOL    HW113937   1.718   9.665   2.322  0.5175  0.1372 -0.9693
 1201SOL    HW213938   1.765   9.524   2.256  1.0923 -0.3268  0.4134
 1202SOL     OW13939   9.949   1.798   3.355 -0.4012 -0.5697 -0.1753
 1202SOL    HW113940   9.925   1.706   3.386 -1.4402  0.4647  2.2633
 1202SOL    HW213941   9.866   1.847   3.328  0.1115 -0.2482 -1.1724
 1203SOL     OW13942   7.132   0.115   3.104  0.3336 -0.2634 -0.1841
 1203SOL    HW113943   7.164   0.059   3.180 -0.2028 -2.4478 -1.5035
 1203SOL    HW213944   7.032   0.116   3.102  0.3354  1.2145  0.1516
 1204SOL     OW13945   9.473   1.223   0.200 -0.0011 -0.6262  0.4644
 1204SOL    HW113946   9.394   1.230   0.260 -1.5552 -0.2803 -1.5821
 1204SOL    HW213947   9.478   1.131   0.161 -0.7510 -0.0020 -1.1760
 1205SOL     OW13948   8.024   1.462   2.247 -0.1765 -0.0707 -0.3165
 1205SOL    HW113949   8.023   1.512   2.160  0.2034 -2.2510 -1.6125
 1205SOL    HW213950   7.998   1.367   2.231  0.3837 -0.6237  1.8999
 1206SOL     OW13951   9.047   3.312   2.135  0.5986 -0.6045 -0.1708
 1206SOL    HW113952   9.120   3.380   2.147  1.7636 -1.4821 -2.1042
 1206SOL    HW213953   9.013   3.315   2.041 -0.6166 -1.4637  0.2231
 1207SOL     OW13954   9.968   3.273   0.492 -0.1943  0.0299 -0.5505
 1207SOL    HW113955   9.957   3.181   0.456 -1.6239  0.4328 -1.1470
 1207SOL    HW213956  10.002   3.334   0.421  1.4525 -0.1772  0.0339
 1208SOL     OW13957   1.763   6.441   3.434  0.1950 -0.0589  0.4721
 1208SOL    HW113958   1.773   6.347   3.465 -1.5141  0.1125  1.5966
 1208SOL    HW213959   1.853   6.485   3.432  0.8797 -1.4118  0.8990
 1209SOL     OW13960   8.162   4.020   0.511  0.7252 -0.3616  0.0218
 1209SOL    HW113961   8.221   4.092   0.475  1.7518  0.4698  3.1675
 1209SOL    HW213962   8.125   4.049   0.600  0.0127 -3.1169  0.6778
 1210SOL     OW13963   9.146   9.168   2.192  0.0385  0.4039 -0.1248
 1210SOL    HW113964   9.068   9.231   2.185 -0.6941 -0.3104  1.4028
 1210SOL    HW213965   9.115   9.075   2.176  0.7078  0.1936 -0.1961
 1211SOL     OW13966   1.441   2.406   2.289 -0.5472 -0.2458  0.8272
 1211SOL    HW113967   1.468   2.447   2.376  0.1198  0.3697  0.3418
 1211SOL    HW213968   1.515   2.418   2.223 -2.0546  1.6576 -0.5934
 1212SOL     OW13969   9.458   6.158   1.156 -0.9501 -0.1550  0.4017
 1212SOL    HW113970   9.383   6.157   1.089 -0.6279  0.5599  0.0270
 1212SOL    HW213971   9.510   6.243   1.146 -0.6075 -0.2631  1.2401
 1213SOL     OW13972   2.630   0.408   2.095 -1.0754 -0.1177  0.6742
 1213SOL    HW113973   2.713   0.354   2.081 -1.8846 -1.5655  1.3464
 1213SOL    HW213974   2.654   0.505   2.099  0.1868 -0.2338 -2.4267
 1214SOL     OW13975   4.611   1.992   1.148  0.4833 -0.1408  0.6073
 1214SOL    HW113976   4.659   2.049   1.081 -0.2285 -2.1246 -1.6986
 1214SOL    HW213977   4.513   2.005   1.139  0.3644 -0.8519  0.8535
 1215SOL     OW13978   8.632   7.663   0.858  0.0861 -0.7020 -0.3897
 1215SOL    HW113979   8.690   7.601   0.911 -1.6974 -2.1326 -0.0671
 1215SOL    HW213980   8.603   7.739   0.917  0.6651 -0.6089 -0.2196
 1216SOL     OW13981   4.309   9.141   1.214 -0.3742  0.1410  0.5711
 1216SOL    HW113982   4.248   9.214   1.244  1.2508  1.5418  0.5655
 1216SOL    HW213983   4.284   9.113   1.121 -0.8325  0.9098  0.4544
 1217SOL     OW13984   7.962   7.342   3.165  0.1153 -0.0538 -0.8934
 1217SOL    HW113985   8.019   7.370   3.088 -2.3351 -2.1423 -3.5976
 1217SOL    HW213986   8.005   7.263   3.211  1.1875  0.7026 -0.5706
 1218SOL     OW13987   9.061   1.018   1.124 -0.0945 -0.1930 -0.6832
 1218SOL    HW113988   9.090   1.114   1.119 -0.0557 -0.1580  0.2273
 1218SOL    HW213989   9.084   0.981   1.214  0.9845 -1.4214 -1.4516
 1219SOL     OW13990   9.156   6.847   1.733  0.5178 -0.1431  0.3052
 1219SOL    HW113991   9.136   6.761   1.779  1.9070 -0.8456 -0.3790
 1219SOL    HW213992   9.189   6.914   1.799  0.5360 -0.4966  0.6517
 1220SOL     OW13993   1.590   3.731   2.999 -0.0651 -0.1535 -0.9652
 1220SOL    HW113994   1.611   3.769   2.909  1.5632  0.3212 -0.4123
 1220SOL    HW213995   1.493   3.743   3.019 -0.2113  0.7521 -2.1856
 1221SOL     OW13996   2.119   8.068   1.673 -0.5448 -0.3537 -0.4854
 1221SOL    HW113997   2.153   8.160   1.693 -1.1584  0.1735 -1.8249
 1221SOL    HW213998   2.072   8.031   1.753 -0.5903  0.6339 -0.0597
 1222SOL     OW13999   2.303   1.134   1.766  0.2233 -0.1035 -0.2120
 1222SOL    HW114000   2.380   1.070   1.768 -0.2582 -0.6641  0.5740
 1222SOL    HW214001   2.251   1.126   1.851 -1.5171 -0.7349 -1.2921
 1223SOL     OW14002   0.921   8.037   2.013 -0.3105 -0.4770  0.1117
 1223SOL    HW114003   0.857   7.996   2.078 -0.5952  0.2413  0.2954
 1223SOL    HW214004   0.880   8.041   1.922 -0.5587  0.0668  0.2492
 1224SOL     OW14005   3.865   2.109   3.020  0.2046  1.0751 -0.1275
 1224SOL    HW114006   3.963   2.128   3.023  0.3683  0.4469 -1.1434
 1224SOL    HW214007   3.836   2.098   2.925 -0.8444  1.2032  0.1675
 1225SOL     OW14008   0.313   4.737   2.696 -0.8766 -0.6551  0.4348
 1225SOL    HW114009   0.390   4.766   2.753 -0.0481 -1.4034 -0.2874
 1225SOL    HW214010   0.250   4.681   2.750 -1.4943  0.8725  1.3217
 1226SOL     OW14011   1.542   7.298   2.997  0.0618 -0.2821  0.1680
 1226SOL    HW114012   1.531   7.361   2.920 -0.1684  0.5073  0.8401
 1226SOL    HW214013   1.614   7.330   3.058 -0.7261 -0.1290  1.0376
 1227SOL     OW14014   9.326   6.267   1.388  0.3810 -0.1098  0.0866
 1227SOL    HW114015   9.229   6.256   1.366  0.3703 -2.5854  1.2234
 1227SOL    HW214016   9.382   6.225   1.316  0.6575  1.9143 -0.9137
 1228SOL     OW14017   9.922   1.908   1.160 -0.1984  0.2006  0.1971
 1228SOL    HW114018  10.020   1.927   1.152  0.0021 -0.6404  0.6334
 1228SOL    HW214019   9.882   1.902   1.068  0.1993  0.3326  0.0140
 1229SOL     OW14020   8.879   5.250   2.763 -0.1983 -0.5068  0.6426
 1229SOL    HW114021   8.886   5.169   2.820 -1.8377 -1.5808 -0.6206
 1229SOL    HW214022   8.928   5.235   2.677  2.7065  1.2922  1.8718
 1230SOL     OW14023   3.271   6.282   3.394  0.7728 -0.0602  0.4325
 1230SOL    HW114024   3.347   6.318   3.340 -1.3779  1.7990 -1.4477
 1230SOL    HW214025   3.256   6.341   3.474 -0.0273  0.7885 -0.3390
 1231SOL     OW14026   2.944   5.030   2.402 -0.2704  0.2911 -0.5997
 1231SOL    HW114027   2.895   4.958   2.353  0.1216 -0.4004  0.0128
 1231SOL    HW214028   2.889   5.060   2.481  1.1480 -1.9205  1.2886
 1232SOL     OW14029   8.478   1.215   1.345 -0.8248  0.2178  0.2807
 1232SOL    HW114030   8.485   1.302   1.297 -0.4860  0.4312  0.7180
 1232SOL    HW214031   8.386   1.205   1.384 -0.9291  0.2843  0.0507
 1233SOL     OW14032   1.807   6.315   2.848  0.0438 -0.7684  0.4656
 1233SOL    HW114033   1.803   6.216   2.833  1.6100 -0.5021 -1.9399
 1233SOL    HW214034   1.897   6.340   2.884 -0.7852 -0.3416  2.3065
 1234SOL     OW14035   9.848   3.129   2.277 -0.5005  0.3319  0.2726
 1234SOL    HW114036   9.926   3.082   2.238 -0.6063  0.7727 -0.4646
 1234SOL    HW214037   9.879   3.208   2.330 -0.4183  0.2005  0.4227
 1235SOL     OW14038   2.548   1.498   0.699 -0.2143 -0.4607  0.2113
 1235SOL    HW114039   2.616   1.439   0.657  0.7041 -0.3710  1.5214
 1235SOL    HW214040   2.463   1.448   0.712  0.0990 -1.0519 -0.0119
 1236SOL     OW14041   9.346   6.523   0.324 -0.1227 -0.2846  0.1402
 1236SOL    HW114042   9.317   6.540   0.230 -0.8658 -0.4325  0.3378
 1236SOL    HW214043   9.279   6.464   0.370 -0.4389  0.8385  1.1592
 1237SOL     OW14044   3.003   3.409   1.074 -0.1931  0.3757 -0.3717
 1237SOL    HW114045   2.978   3.496   1.114  2.8815  0.3187  1.8515
 1237SOL    HW214046   3.008   3.418   0.974 -4.0950  1.5518 -0.5141
 1238SOL     OW14047   2.138   2.408   1.773  0.0553 -0.0728  0.4188
 1238SOL    HW114048   2.214   2.350   1.802  1.4908 -0.1341 -3.2398
 1238SOL    HW214049   2.087   2.364   1.700 -1.7664  1.2329  0.8518
 1239SOL     OW14050   9.575   3.959   2.916  0.0156  0.6422 -0.3711
 1239SOL    HW114051   9.621   4.030   2.969 -0.3746  0.8214 -0.2671
 1239SOL    HW214052   9.629   3.875   2.919 -0.6392  0.2487  1.4475
 1240SOL     OW14053   3.243   2.669   3.042 -0.3810 -0.7015 -0.5815
 1240SOL    HW114054   3.244   2.766   3.017 -0.8169  0.0815  2.2651
 1240SOL    HW214055   3.334   2.631   3.025  0.0550  0.4214 -0.8809
 1241SOL     OW14056   1.945   8.215   2.046 -0.1402 -0.6350 -0.1333
 1241SOL    HW114057   1.901   8.233   2.134 -0.3660 -2.8102  0.2224
 1241SOL    HW214058   2.043   8.202   2.060 -0.1370 -0.7235 -0.2410
 1242SOL     OW14059   9.365   4.987   0.288 -0.4501  0.5715 -0.2606
 1242SOL    HW114060   9.438   4.922   0.268 -1.6238 -1.2037  1.0315
 1242SOL    HW214061   9.307   4.998   0.207 -1.1358 -1.2036 -0.0360
 1243SOL     OW14062   1.768   0.904   0.445 -0.2506 -0.3565 -0.0916
 1243SOL    HW114063   1.774   0.903   0.345 -0.1676 -0.5810 -0.0858
 1243SOL    HW214064   1.673   0.889   0.473 -0.5859  1.5653 -0.1614
 1244SOL     OW14065   3.395   9.331   1.156  0.5435 -0.1700 -0.6447
 1244SOL    HW114066   3.311   9.384   1.145  0.9635  0.6247 -0.0623
 1244SOL    HW214067   3.396   9.288   1.246  0.5012 -0.6425 -0.8689
 1245SOL     OW14068   8.450   4.982   0.924  0.3427 -0.1483 -0.1576
 1245SOL    HW114069   8.403   4.929   0.854  0.3035 -0.3235  0.0019
 1245SOL    HW214070   8.475   5.072   0.887 -1.1405  0.3912  0.0991
 1246SOL     OW14071   1.988   6.861   2.487 -0.1543  0.2210  0.4367
 1246SOL    HW114072   2.006   6.932   2.555 -0.9215  0.0187  0.8600
 1246SOL    HW214073   2.073   6.837   2.440  0.3375  0.5421  1.1536
 1247SOL     OW14074   9.113   2.967   1.510  0.0723  0.4385 -0.3781
 1247SOL    HW114075   9.116   2.989   1.607 -2.4124  3.2672 -0.8666
 1247SOL    HW214076   9.046   2.894   1.493 -0.9206  1.2956 -0.1746
 1248SOL     OW14077   9.342   4.951   0.767 -0.2549  0.7848  0.0635
 1248SOL    HW114078   9.417   4.945   0.833 -1.0693  1.3341  1.0550
 1248SOL    HW214079   9.304   5.044   0.768 -1.8718  0.1372  0.6187
 1249SOL     OW14080   0.922   3.677   2.193 -0.3772  0.5069  0.2273
 1249SOL    HW114081   0.849   3.738   2.161 -1.1656  0.9881  2.8203
 1249SOL    HW214082   1.009   3.706   2.153 -1.4108  0.5655 -2.0866
 1250SOL     OW14083   4.146   2.425   0.669  0.5563 -0.0843  0.6143
 1250SOL    HW114084   4.109   2.390   0.583  0.2644  0.7537  0.3901
 1250SOL    HW214085   4.215   2.495   0.649  0.8186 -0.2191  1.0542
 1251SOL     OW14086   9.037   6.826   0.440  0.6673 -0.7500  0.2937
 1251SOL    HW114087   9.112   6.760   0.450  1.7990  0.8053  2.5611
 1251SOL    HW214088   9.044   6.895   0.512 -0.9434  1.4252 -1.5736
 1252SOL     OW14089   8.539   6.008   2.274  0.5371 -0.2750  0.1889
 1252SOL    HW114090   8.467   5.951   2.237  0.1361  0.6148 -0.4102
 1252SOL    HW214091   8.502   6.099   2.296  1.6056  0.3899 -0.7200
 1253SOL     OW14092   1.016   6.505   0.622  0.0541 -0.2898 -0.0126
 1253SOL    HW114093   1.100   6.479   0.669  0.1425 -1.0581 -0.5984
 1253SOL    HW214094   1.032   6.588   0.568  1.1441 -1.8454 -2.1539
 1254SOL     OW14095   7.698   2.140   0.347  0.4459  0.2224 -0.1877
 1254SOL    HW114096   7.693   2.176   0.441 -0.9965 -0.8629  0.1666
 1254SOL    HW214097   7.646   2.055   0.341 -1.3138  1.3907 -2.4908
 1255SOL     OW14098   8.610   7.208   3.417 -0.8314  0.7455 -0.3856
 1255SOL    HW114099   8.623   7.306   3.435  0.1202  0.5388  0.0751
 1255SOL    HW214100   8.560   7.167   3.493  1.2044  0.3299  0.7808
 1256SOL     OW14101   1.123   0.738   1.312 -0.7397 -0.3187  0.1349
 1256SOL    HW114102   1.194   0.808   1.318  0.2974 -1.3733  0.5388
 1256SOL    HW214103   1.144   0.676   1.236 -2.4238  0.6296 -1.1420
 1257SOL     OW14104   8.156   4.341   1.047 -0.4834  0.3077  0.1264
 1257SOL    HW114105   8.203   4.405   0.987 -1.5451  0.9058 -0.0878
 1257SOL    HW214106   8.066   4.377   1.071 -0.3113 -0.2080  1.6045
 1258SOL     OW14107   9.162   5.219   1.553  0.6899 -0.1298 -0.2777
 1258SOL    HW114108   9.210   5.153   1.610 -0.4654 -0.9996 -0.3093
 1258SOL    HW214109   9.158   5.186   1.459 -0.8568 -0.5617 -0.0808
 1259SOL     OW14110   7.908   8.364   3.203 -0.5322  0.1549  0.2652
 1259SOL    HW114111   7.890   8.266   3.189 -2.2561  0.6840 -1.4857
 1259SOL    HW214112   8.001   8.385   3.175 -0.5011 -0.7984 -0.3870
 1260SOL     OW14113   0.668   0.711   1.496 -0.1287 -0.2807  0.6473
 1260SOL    HW114114   0.584   0.703   1.442  0.7831 -0.3217 -0.7940
 1260SOL    HW214115   0.724   0.785   1.459  1.8940 -2.2623 -0.3845
 1261SOL     OW14116   3.302   3.490   1.328 -0.0715  0.4756 -0.1012
 1261SOL    HW114117   3.267   3.439   1.250 -0.7010 -1.2999  1.3092
 1261SOL    HW214118   3.399   3.466   1.342 -0.4861 -0.7019  0.8289
 1262SOL     OW14119   7.538   8.542   1.959  0.1268 -0.4932 -0.4217
 1262SOL    HW114120   7.619   8.527   2.017  0.5034 -0.1923 -0.8668
 1262SOL    HW214121   7.532   8.639   1.935 -1.1257 -0.2786  0.7129
 1263SOL     OW14122   9.370   6.131   0.136 -0.3739  0.0913 -0.3675
 1263SOL    HW114123   9.329   6.185   0.061  2.0466  1.7573 -0.5356
 1263SOL    HW214124   9.468   6.121   0.120  0.2389  0.6935  2.7181
 1264SOL     OW14125   5.124   2.307   1.895 -0.4215  0.1326  0.2709
 1264SOL    HW114126   5.170   2.242   1.834 -2.2624 -0.5260 -0.4844
 1264SOL    HW214127   5.123   2.397   1.853 -0.9305 -0.1336 -0.3033
 1265SOL     OW14128   8.645   6.427   2.740 -0.2154  0.5203  0.3227
 1265SOL    HW114129   8.632   6.526   2.746  1.4340  0.8026 -0.2374
 1265SOL    HW214130   8.732   6.403   2.783 -1.1304 -0.8401  1.4397
 1266SOL     OW14131   9.129   3.458   3.200 -0.1781 -0.2884 -0.0058
 1266SOL    HW114132   9.036   3.449   3.236  0.0624  0.7958  0.9320
 1266SOL    HW214133   9.126   3.477   3.102 -0.8815 -2.1594 -0.3726
 1267SOL     OW14134   4.200   4.139   0.078 -0.0914 -0.1351 -0.4441
 1267SOL    HW114135   4.172   4.069   0.143  2.2868 -2.2052 -1.5625
 1267SOL    HW214136   4.144   4.221   0.090 -1.2101 -1.3037  2.6096
 1268SOL     OW14137   8.980   5.508   2.820  0.2632 -0.2874  0.3048
 1268SOL    HW114138   9.001   5.543   2.729 -1.0906 -0.9070 -0.2479
 1268SOL    HW214139   8.969   5.408   2.816  0.3590 -0.3369  1.1802
 1269SOL     OW14140   3.988   4.176   1.301 -0.3133 -0.3566 -0.4884
 1269SOL    HW114141   3.946   4.122   1.227 -2.3908  0.6347 -0.0451
 1269SOL    HW214142   3.919   4.235   1.343  1.0519 -0.2568  1.6785
 1270SOL     OW14143   2.951   4.073   3.264 -0.2823  0.6943 -0.5075
 1270SOL    HW114144   2.938   4.026   3.177  0.5991 -0.3028 -0.1156
 1270SOL    HW214145   2.976   4.168   3.246  0.3239  0.3854 -1.3673
 1271SOL     OW14146   8.799   1.255   1.603  0.2806 -0.1879  0.1784
 1271SOL    HW114147   8.782   1.298   1.692  2.4998 -0.0779  0.5647
 1271SOL    HW214148   8.745   1.170   1.597 -1.3876  0.8027  0.8220
 1272SOL     OW14149   9.451   2.936   0.168  0.4631 -0.2524  0.6246
 1272SOL    HW114150   9.510   2.870   0.121 -0.4516  0.4495 -1.5431
 1272SOL    HW214151   9.497   3.025   0.171  0.2590 -0.1441  0.5089
 1273SOL     OW14152   4.507   4.393   0.734 -0.0005 -0.4960  0.0662
 1273SOL    HW114153   4.466   4.481   0.759 -2.5689 -1.2798 -1.2095
 1273SOL    HW214154   4.507   4.382   0.635 -0.1978 -2.1525  0.2252
 1274SOL     OW14155   2.646   4.828   0.221 -0.0034  0.2424  0.2533
 1274SOL    HW114156   2.613   4.893   0.290 -2.7186  0.5965 -1.2902
 1274SOL    HW214157   2.727   4.865   0.176  0.9406  0.6477  2.2409
 1275SOL     OW14158   8.027   9.628   0.406  0.0604  0.2596  0.3398
 1275SOL    HW114159   8.002   9.541   0.449  1.0118 -0.5198 -0.6458
 1275SOL    HW214160   7.958   9.697   0.427 -0.8284 -0.7978  0.9397
 1276SOL     OW14161   0.019   1.310   2.469 -0.3159 -0.1484  0.4784
 1276SOL    HW114162  -0.064   1.364   2.457 -1.9790 -2.0528  2.8926
 1276SOL    HW214163   0.006   1.246   2.545  3.1490 -0.9270  0.4733
 1277SOL     OW14164   0.959   8.153   2.693  0.2088 -0.1471  0.5796
 1277SOL    HW114165   0.884   8.140   2.758 -0.4484  1.2805  0.1328
 1277SOL    HW214166   0.937   8.229   2.631  0.4988 -1.9258 -1.7803
 1278SOL     OW14167   9.505   0.247   2.166  0.0512 -0.6551  0.2938
 1278SOL    HW114168   9.527   0.159   2.124 -1.5677 -0.2106 -1.5485
 1278SOL    HW214169   9.556   0.320   2.121  2.1307 -0.7213  2.4543
 1279SOL     OW14170   4.464   1.739   2.361 -0.5107 -0.1383  0.0173
 1279SOL    HW114171   4.403   1.805   2.406 -0.0709 -1.0680  2.0218
 1279SOL    HW214172   4.527   1.788   2.301 -1.2792  1.1036  0.1829
 1280SOL     OW14173   1.936   4.198   1.904 -0.2493 -0.2161 -0.1205
 1280SOL    HW114174   1.979   4.287   1.920 -0.0729 -0.3709  0.2646
 1280SOL    HW214175   2.003   4.133   1.868 -0.9898  0.5637 -3.0334
 1281SOL     OW14176   3.086   6.804   1.407  0.4527  0.3888  0.4198
 1281SOL    HW114177   3.176   6.761   1.399  0.7157  0.8862  0.6166
 1281SOL    HW214178   3.082   6.854   1.494  0.3161  1.1255 -0.0082
 1282SOL     OW14179   0.957   5.754   1.982  0.3925  0.4782 -0.3336
 1282SOL    HW114180   0.982   5.695   2.059 -0.2426  1.3150  0.5284
 1282SOL    HW214181   0.862   5.786   1.994  0.8604  1.9962 -0.5671
 1283SOL     OW14182   3.841   7.922   0.011  0.1077  0.2464  0.3064
 1283SOL    HW114183   3.842   7.828  -0.021  0.2231  0.7274 -1.1553
 1283SOL    HW214184   3.752   7.963  -0.007  0.1665  0.5261  0.6278
 1284SOL     OW14185   3.549   3.984   2.855 -0.2233  0.0632 -0.8065
 1284SOL    HW114186   3.649   3.983   2.852 -0.0405  0.3973  2.9802
 1284SOL    HW214187   3.515   3.895   2.886 -1.0367  0.3649 -0.8122
 1285SOL     OW14188   0.046   5.019   1.612 -0.1008  0.4208 -0.3717
 1285SOL    HW114189  -0.035   5.015   1.671  0.7357  0.7044  0.8009
 1285SOL    HW214190   0.129   5.015   1.667  0.7206 -1.7176 -1.6781
 1286SOL     OW14191   8.028   6.619   1.707 -0.6715 -0.1449 -0.5817
 1286SOL    HW114192   8.017   6.603   1.805 -0.0790 -2.0908 -0.8148
 1286SOL    HW214193   8.064   6.711   1.692 -0.2927 -0.0178  1.0480
 1287SOL     OW14194   1.672   0.749   2.060 -0.1006  0.0582 -0.1613
 1287SOL    HW114195   1.676   0.747   2.160  0.2437  1.5472 -0.1353
 1287SOL    HW214196   1.756   0.788   2.024 -1.0201  1.3532 -0.9534
 1288SOL     OW14197   1.652   5.381   2.995 -0.0479  0.1435  0.1182
 1288SOL    HW114198   1.743   5.422   2.990  0.4029 -0.8271  0.2209
 1288SOL    HW214199   1.619   5.385   3.089 -0.5759  1.4695 -0.1135
 1289SOL     OW14200   3.588   7.187   3.443 -0.5221 -0.0623 -0.2419
 1289SOL    HW114201   3.550   7.126   3.374 -0.9771 -0.4560  0.3458
 1289SOL    HW214202   3.685   7.202   3.425 -0.3006 -1.2934 -0.1626
 1290SOL     OW14203   0.396   6.523   3.091 -0.2985 -0.2285  0.0496
 1290SOL    HW114204   0.302   6.542   3.119 -0.7034 -1.1429 -0.6751
 1290SOL    HW214205   0.447   6.609   3.087 -1.2156  0.3226  0.0381
 1291SOL     OW14206   3.135   1.747   2.038 -0.3715  0.1661 -0.3430
 1291SOL    HW114207   3.047   1.780   2.071 -0.4578 -0.5276  0.1142
 1291SOL    HW214208   3.175   1.685   2.105 -0.3905 -0.9716 -1.3725
 1292SOL     OW14209   0.377   7.512   0.568  0.1776  0.1973  0.1797
 1292SOL    HW114210   0.327   7.444   0.514 -2.1709  2.4474 -0.5926
 1292SOL    HW214211   0.343   7.512   0.662  0.1197  0.3618  0.1589
 1293SOL     OW14212   2.925   6.208   0.072  0.0469  0.3534 -0.0062
 1293SOL    HW114213   2.948   6.124   0.023  1.2813  1.7613 -1.9237
 1293SOL    HW214214   2.964   6.286   0.024  0.4668  1.8939  2.7192
 1294SOL     OW14215   1.356   4.731   0.856  0.2891  0.8182 -0.4955
 1294SOL    HW114216   1.394   4.693   0.940 -2.2129  1.1505  0.8102
 1294SOL    HW214217   1.399   4.686   0.777  1.7458 -0.3751  0.9394
 1295SOL     OW14218   0.010   7.857   1.066 -0.7002  0.0019  0.2125
 1295SOL    HW114219   0.062   7.772   1.070 -2.6744 -1.2303  0.0816
 1295SOL    HW214220  -0.086   7.837   1.047 -1.0850  2.2971 -0.3928
 1296SOL     OW14221   8.753   5.332   2.018  0.3036  0.1874 -0.2490
 1296SOL    HW114222   8.766   5.286   2.106 -1.5027 -2.3902 -1.2691
 1296SOL    HW214223   8.697   5.414   2.030  0.9483  0.4352  1.1240
 1297SOL     OW14224   2.466   7.051   0.227 -0.0489 -0.2081  0.0327
 1297SOL    HW114225   2.398   7.018   0.292 -1.0665  0.5902 -0.6078
 1297SOL    HW214226   2.513   6.974   0.185 -0.9691 -0.7939  0.0689
 1298SOL     OW14227   7.475   8.952   2.905 -0.1305 -0.2532 -0.3725
 1298SOL    HW114228   7.513   8.950   2.998  1.0065  0.1908 -0.8233
 1298SOL    HW214229   7.504   9.035   2.859 -1.0541 -0.2653 -0.9924
 1299SOL     OW14230   1.499   8.456   1.582  0.2987 -0.6252  0.8223
 1299SOL    HW114231   1.555   8.431   1.660  0.3733 -0.5710  0.7859
 1299SOL    HW214232   1.549   8.521   1.524  0.3255 -0.8302  0.6161
 1300SOL     OW14233   1.604   5.971   0.506  0.0457 -0.2885 -0.4200
 1300SOL    HW114234   1.505   5.965   0.525  0.7525 -1.9308  3.4322
 1300SOL    HW214235   1.635   6.064   0.521 -0.6205 -0.1758  0.3500
 1301SOL     OW14236   3.537   5.233   2.084  0.1321  0.6863 -0.0722
 1301SOL    HW114237   3.622   5.283   2.068 -0.0274  0.9163 -0.2039
 1301SOL    HW214238   3.526   5.218   2.182  2.1990 -2.6434 -0.2915
 1302SOL     OW14239   8.430   9.182   3.202  0.0807 -0.0942  0.5366
 1302SOL    HW114240   8.459   9.268   3.242 -2.1867 -0.3385  2.9078
 1302SOL    HW214241   8.403   9.196   3.107  0.8736  1.5567  0.5465
 1303SOL     OW14242   4.402   2.393   2.495 -0.3846 -0.5850  0.4027
 1303SOL    HW114243   4.421   2.444   2.580 -0.4699  0.3447 -0.1300
 1303SOL    HW214244   4.488   2.372   2.449 -0.3984 -0.1218  0.1621
 1304SOL     OW14245   7.878   0.092   3.407 -0.3563 -0.0250  0.0160
 1304SOL    HW114246   7.881   0.159   3.332 -3.4182  0.5897  0.3659
 1304SOL    HW214247   7.838   0.007   3.373 -0.2804 -0.2840  0.5791
 1305SOL     OW14248   9.496   4.709   1.244 -0.0011  0.0184  0.2445
 1305SOL    HW114249   9.477   4.804   1.218 -1.7267  0.0910  1.6521
 1305SOL    HW214250   9.492   4.651   1.163  0.8426  1.1052 -0.6011
 1306SOL     OW14251   8.613   5.833   0.999  0.3203  0.0685 -0.4141
 1306SOL    HW114252   8.617   5.738   1.029 -0.0769  0.0370 -0.4513
 1306SOL    HW214253   8.700   5.878   1.019  0.2328 -0.0828  0.3550
 1307SOL     OW14254   9.499   2.303   0.709  0.2672  0.4899  0.7131
 1307SOL    HW114255   9.516   2.378   0.645  0.9903  1.5020  2.0677
 1307SOL    HW214256   9.536   2.218   0.672  0.0441  0.9225 -0.5242
 1308SOL     OW14257   9.243   5.886   2.063 -0.1264  0.1105 -0.2744
 1308SOL    HW114258   9.153   5.927   2.074  0.4821  0.9469  1.8112
 1308SOL    HW214259   9.245   5.796   2.107  0.3571  0.5404  0.5880
 1309SOL     OW14260   3.266   2.359   2.371 -0.0142  0.1020  0.4002
 1309SOL    HW114261   3.255   2.327   2.277 -1.5726 -0.8693  0.8921
 1309SOL    HW214262   3.286   2.457   2.371 -1.2325  0.3658 -0.8952
 1310SOL     OW14263   2.463   1.652   0.417  0.0212  0.6279  0.2784
 1310SOL    HW114264   2.457   1.572   0.477 -0.4457  0.9192  0.6212
 1310SOL    HW214265   2.380   1.660   0.363 -0.5986  1.7459  1.3504
 1311SOL     OW14266   9.735   9.268   1.897  0.1186  0.1420  0.1126
 1311SOL    HW114267   9.750   9.179   1.940 -1.2724  0.0492  0.4391
 1311SOL    HW214268   9.797   9.335   1.937  0.6527 -0.5235  0.4014
 1312SOL     OW14269   1.976   2.833   1.262 -0.1869 -0.2913  0.1491
 1312SOL    HW114270   2.059   2.802   1.309  0.9747  1.6790 -0.5699
 1312SOL    HW214271   1.896   2.797   1.310  1.0613 -1.9186  1.0694
 1313SOL     OW14272   0.386   8.755   2.299  0.1924 -0.3056 -0.0442
 1313SOL    HW114273   0.347   8.832   2.248  0.5454  0.0709  0.2424
 1313SOL    HW214274   0.431   8.692   2.236 -0.7047 -0.6408 -0.3523
 1314SOL     OW14275   7.245   9.495   1.880 -0.0386  0.5273 -0.5007
 1314SOL    HW114276   7.295   9.431   1.822 -0.1567  0.4066 -0.4708
 1314SOL    HW214277   7.165   9.529   1.831 -1.3934 -1.2876  0.3844
 1315SOL     OW14278   3.293   3.770   3.117  0.1353 -0.4095  0.5719
 1315SOL    HW114279   3.308   3.854   3.168  3.8373 -1.0674  0.7484
 1315SOL    HW214280   3.262   3.791   3.024  0.9266  1.1467  0.6535
 1316SOL     OW14281   4.399   1.394   1.255 -0.2112 -0.5955 -0.2087
 1316SOL    HW114282   4.300   1.408   1.261 -0.0702 -0.2314  1.7524
 1316SOL    HW214283   4.433   1.364   1.344  1.4219 -0.8866 -0.9238
 1317SOL     OW14284   7.950   9.420   3.405 -0.5272 -0.4347  0.4007
 1317SOL    HW114285   7.962   9.421   3.505  0.6016 -1.3579  0.2823
 1317SOL    HW214286   7.968   9.328   3.371  0.6856  0.2505 -0.8596
 1318SOL     OW14287   0.899   1.086   2.145  0.3068  0.2772  0.1787
 1318SOL    HW114288   0.812   1.091   2.096  0.7993  0.3057 -0.6917
 1318SOL    HW214289   0.888   1.128   2.235 -0.2095  1.5718 -0.4690
 1319SOL     OW14290   1.690   2.225   0.662  0.1848 -0.1522  0.5246
 1319SOL    HW114291   1.755   2.300   0.664  0.7114 -0.5218 -1.6174
 1319SOL    HW214292   1.616   2.247   0.597  0.5789 -1.6526 -0.4518
 1320SOL     OW14293   9.804   3.864   3.179  0.6904 -0.5623  0.0773
 1320SOL    HW114294   9.832   3.943   3.124  0.0849 -0.1417  0.3691
 1320SOL    HW214295   9.736   3.811   3.129 -0.0661 -0.0267  0.5327
 1321SOL     OW14296   9.636   8.741   2.283  0.3732 -0.4154  0.4245
 1321SOL    HW114297   9.690   8.741   2.199  0.2095  0.5287  0.3058
 1321SOL    HW214298   9.599   8.833   2.298 -0.0094 -0.7026  1.2635
 1322SOL     OW14299   3.731   0.940   2.990  0.4084  0.1443  0.1479
 1322SOL    HW114300   3.813   0.893   2.959  1.8002  3.3618 -1.3397
 1322SOL    HW214301   3.679   0.972   2.911 -1.8318 -1.0767  1.0956
 1323SOL     OW14302   0.415   9.358   0.542  0.2138 -0.3201  0.0095
 1323SOL    HW114303   0.417   9.377   0.444  0.5341 -0.7531 -0.0699
 1323SOL    HW214304   0.340   9.295   0.563  1.3923 -1.8624 -0.2642
 1324SOL     OW14305   0.806   7.470   1.960 -0.1373 -0.4327  0.2228
 1324SOL    HW114306   0.771   7.377   1.972  1.5981 -1.6338 -3.2130
 1324SOL    HW214307   0.906   7.469   1.964 -0.0408  1.0473 -1.3028
 1325SOL     OW14308   4.093   8.637   2.644  0.3304 -0.1980 -0.1533
 1325SOL    HW114309   4.011   8.694   2.647  0.3053 -0.2171 -0.4013
 1325SOL    HW214310   4.140   8.652   2.557 -0.2939 -1.4047 -0.7141
 1326SOL     OW14311   2.644   4.279   0.204 -0.4358 -0.1094  0.0819
 1326SOL    HW114312   2.549   4.277   0.236 -0.2281 -0.8235  0.6684
 1326SOL    HW214313   2.668   4.190   0.166  0.1375 -0.0700  0.3454
 1327SOL     OW14314   1.031   0.086   1.091 -0.0361 -0.1206  0.1475
 1327SOL    HW114315   0.976   0.128   1.164  1.0967 -2.2039  2.2615
 1327SOL    HW214316   0.970   0.047   1.022 -1.1449  0.9107  0.5270
 1328SOL     OW14317   9.216   7.853   1.223  0.1292  0.7280  0.0117
 1328SOL    HW114318   9.170   7.918   1.162 -0.4190  1.5653  1.2790
 1328SOL    HW214319   9.307   7.889   1.247 -1.2606  2.4758  2.9587
 1329SOL     OW14320   7.890   8.818   2.666  0.0358  0.2489 -0.5537
 1329SOL    HW114321   7.896   8.850   2.572 -0.7735  0.4147 -0.5571
 1329SOL    HW214322   7.960   8.749   2.683 -0.8659 -0.9973 -1.7854
 1330SOL     OW14323   2.115   7.233   1.231  0.6310  0.4242 -0.4045
 1330SOL    HW114324   2.198   7.263   1.184  0.5741 -0.6976 -1.2322
 1330SOL    HW214325   2.057   7.181   1.167  0.1894 -0.4540  0.6984
 1331SOL     OW14326   8.127   8.217   2.923 -0.1265 -0.2104 -0.4937
 1331SOL    HW114327   8.110   8.278   2.845 -0.0551 -0.2816 -0.5649
 1331SOL    HW214328   8.041   8.173   2.950 -0.0591 -0.5501 -0.8356
 1332SOL     OW14329   8.214   2.355   0.842  0.1350  0.1008 -0.0254
 1332SOL    HW114330   8.242   2.296   0.765 -1.1283  1.7867 -1.8168
 1332SOL    HW214331   8.282   2.427   0.855 -0.2879  0.5810 -0.4264
 1333SOL     OW14332   8.438   0.947   0.754  0.4774 -0.2192 -0.1874
 1333SOL    HW114333   8.389   0.983   0.675  2.3043  2.6108 -0.0926
 1333SOL    HW214334   8.491   0.866   0.727  0.9048  0.5767 -1.8111
 1334SOL     OW14335   0.041   9.488   0.420  0.0257 -0.0252  0.7672
 1334SOL    HW114336   0.022   9.511   0.516 -2.4388 -0.7384  0.4950
 1334SOL    HW214337  -0.035   9.433   0.384  0.8089  0.4637 -1.6757
 1335SOL     OW14338   2.916   0.360   3.019 -0.1447 -0.0115 -0.3172
 1335SOL    HW114339   2.887   0.328   3.109 -0.4507 -1.0379 -0.7731
 1335SOL    HW214340   2.899   0.458   3.011  1.5211  0.4335  1.3900
 1336SOL     OW14341   1.428   5.811   0.804 -0.1053 -0.2243 -0.1507
 1336SOL    HW114342   1.527   5.814   0.816 -0.0983 -1.5066  0.2403
 1336SOL    HW214343   1.383   5.842   0.887 -0.0270 -0.7179  0.0799
 1337SOL     OW14344   1.660   1.706   0.160 -0.4067 -0.2226  0.0112
 1337SOL    HW114345   1.755   1.677   0.161  0.2762  1.8800 -0.7603
 1337SOL    HW214346   1.602   1.630   0.129  1.2675 -0.8868 -1.5783
 1338SOL     OW14347   4.186   3.435   0.301 -0.4469  0.2323  0.0203
 1338SOL    HW114348   4.271   3.420   0.250 -0.3681 -0.3322  0.3099
 1338SOL    HW214349   4.159   3.349   0.345 -1.4710  0.2575 -0.5467
 1339SOL     OW14350   9.989   8.004   1.612  0.0638 -0.4502  0.0945
 1339SOL    HW114351   9.894   8.001   1.583  0.5116  1.1629 -1.6501
 1339SOL    HW214352  10.027   7.912   1.614 -1.2733 -1.0099 -0.0645
 1340SOL     OW14353   8.604   8.486   0.364  0.1459  0.5246 -0.1819
 1340SOL    HW114354   8.550   8.523   0.439  0.0981  1.2676 -0.5845
 1340SOL    HW214355   8.559   8.505   0.277 -0.9226 -2.2505 -0.2744
 1341SOL     OW14356   2.127   8.805   0.387  0.2408 -0.1379  0.1192
 1341SOL    HW114357   2.099   8.849   0.302 -1.5991  1.2651  1.4261
 1341SOL    HW214358   2.175   8.872   0.445 -2.1142  0.0554  1.8930
 1342SOL     OW14359   1.266   7.729   0.767 -0.4033 -0.4285  0.4510
 1342SOL    HW114360   1.254   7.650   0.827  0.2562 -1.6525 -1.0053
 1342SOL    HW214361   1.345   7.714   0.707  0.4305  1.8473  0.9553
 1343SOL     OW14362   3.206   6.088   0.146  0.0515  0.7016 -0.3406
 1343SOL    HW114363   3.163   6.131   0.225 -0.7630 -1.0485  0.2062
 1343SOL    HW214364   3.199   6.148   0.067 -1.9502  1.1538  0.1513
 1344SOL     OW14365   2.129   3.523   1.692 -0.2397  0.1870 -0.2759
 1344SOL    HW114366   2.078   3.542   1.776  0.8480  1.2403  0.1595
 1344SOL    HW214367   2.199   3.453   1.711 -0.7845 -0.4519 -0.6037
 1345SOL     OW14368   2.302   4.672   1.816  0.6102  0.1236  0.3993
 1345SOL    HW114369   2.383   4.639   1.865  0.3486 -1.9952 -0.5567
 1345SOL    HW214370   2.330   4.737   1.746  1.8173 -2.5429 -1.6708
 1346SOL     OW14371   1.988   0.759   0.062  0.0311 -0.4598 -0.3256
 1346SOL    HW114372   2.067   0.820   0.068 -0.6401  0.3600  0.3852
 1346SOL    HW214373   1.984   0.717  -0.029  1.4503 -0.7462 -0.2616
 1347SOL     OW14374   0.151   2.355   2.151  0.1896  0.4329  0.0351
 1347SOL    HW114375   0.225   2.382   2.213 -1.0633  1.6250  1.0349
 1347SOL    HW214376   0.127   2.433   2.093 -0.0519 -0.0505 -0.5084
 1348SOL     OW14377   2.160   7.211   0.821  0.6355 -0.2409 -0.0558
 1348SOL    HW114378   2.180   7.175   0.730 -0.8053  0.7724 -0.7956
 1348SOL    HW214379   2.161   7.311   0.818 -4.6286 -0.0552 -0.2473
 1349SOL     OW14380   2.433   7.315   2.494 -0.5520 -0.0475 -0.8680
 1349SOL    HW114381   2.403   7.222   2.474  1.3171 -1.5220  2.7818
 1349SOL    HW214382   2.378   7.352   2.569  0.4095  0.8137 -0.5767
 1350SOL     OW14383   3.283   0.877   3.055 -0.0403 -0.0679  0.3618
 1350SOL    HW114384   3.237   0.850   2.971  1.5833 -0.5308 -0.3952
 1350SOL    HW214385   3.233   0.954   3.097 -1.7678 -0.8826 -0.1455
 1351SOL     OW14386   2.618   1.352   0.203 -0.2438 -0.2715 -0.5600
 1351SOL    HW114387   2.713   1.382   0.209 -0.4471  0.1723  0.4575
 1351SOL    HW214388   2.566   1.417   0.147  0.2718 -1.0756 -2.0051
 1352SOL     OW14389   0.025   0.154   2.369 -0.3177 -0.4217 -0.2962
 1352SOL    HW114390  -0.033   0.161   2.288 -0.7618 -1.4508 -0.0751
 1352SOL    HW214391   0.067   0.243   2.388 -1.2102  0.1411 -0.9188
 1353SOL     OW14392   0.898   4.699   3.294  0.0185 -0.3351  0.2473
 1353SOL    HW114393   0.929   4.694   3.389  1.4997  0.3026 -0.1959
 1353SOL    HW214394   0.970   4.668   3.233 -0.5947  0.1443 -0.7402
 1354SOL     OW14395   3.937   8.450   1.477 -0.2806  0.1739  0.2912
 1354SOL    HW114396   3.999   8.382   1.439 -0.6943  0.2702 -0.5600
 1354SOL    HW214397   3.985   8.536   1.490  0.4910 -0.4953  2.2011
 1355SOL     OW14398   4.384   4.253   0.948  0.0511  0.3946  0.7758
 1355SOL    HW114399   4.449   4.288   0.881  0.6136 -1.4930  0.2931
 1355SOL    HW214400   4.293   4.246   0.906  0.4155 -0.8444  0.1713
 1356SOL     OW14401   9.832   6.304   0.671 -0.0990 -0.0655 -0.8875
 1356SOL    HW114402   9.796   6.395   0.651 -0.0892 -0.0834 -0.9863
 1356SOL    HW214403   9.779   6.263   0.746  0.8314  0.5999  0.1530
 1357SOL     OW14404   2.436   7.865   1.826 -0.2582  0.5358 -0.6233
 1357SOL    HW114405   2.370   7.806   1.779  2.6033 -2.8395 -0.5866
 1357SOL    HW214406   2.423   7.857   1.925  0.1324 -0.0867 -0.6178
 1358SOL     OW14407   2.693   9.587   1.975  0.0636  0.5441 -0.5461
 1358SOL    HW114408   2.640   9.519   2.026  0.6088  0.0262 -0.6603
 1358SOL    HW214409   2.643   9.674   1.973  0.0850  0.6210  1.0042
 1359SOL     OW14410   3.337   2.625   2.404  0.0858 -0.0814  0.0673
 1359SOL    HW114411   3.407   2.603   2.471  2.4011  2.8092 -1.2940
 1359SOL    HW214412   3.314   2.722   2.410 -0.4604 -0.0078 -2.5504
 1360SOL     OW14413   5.208   0.307   2.234  0.3993  0.5938  0.6620
 1360SOL    HW114414   5.285   0.314   2.297  1.2551 -2.1731 -0.0088
 1360SOL    HW214415   5.125   0.285   2.286  0.2458  2.3953  1.2413
 1361SOL     OW14416   2.973   1.839   1.056  0.2476 -0.4610 -0.7351
 1361SOL    HW114417   2.981   1.822   0.958 -0.8380 -0.2080 -0.8738
 1361SOL    HW214418   3.047   1.899   1.086  0.7045 -0.7112 -1.3544
 1362SOL     OW14419   1.728   1.640   3.248  0.3329 -0.0573 -0.3830
 1362SOL    HW114420   1.666   1.714   3.276 -0.2833 -0.4346 -0.7281
 1362SOL    HW214421   1.749   1.650   3.150 -0.1143 -0.5956 -0.5366
 1363SOL     OW14422   9.516   4.676   3.217 -0.3219 -0.6555 -0.4526
 1363SOL    HW114423   9.616   4.676   3.214 -0.1098 -2.8587  3.5648
 1363SOL    HW214424   9.482   4.583   3.200 -1.7213 -0.0040 -1.3734
 1364SOL     OW14425   8.732   2.878   1.390  0.8060  0.6871 -0.1707
 1364SOL    HW114426   8.772   2.944   1.454  0.3937 -0.2727  1.0958
 1364SOL    HW214427   8.684   2.927   1.317  2.2245  1.8043 -0.3559
 1365SOL     OW14428   1.265   7.680   3.021 -0.0527 -0.5572 -0.0057
 1365SOL    HW114429   1.222   7.598   2.984 -1.0098 -0.6576  1.2858
 1365SOL    HW214430   1.347   7.703   2.968 -0.2323 -1.8869 -0.8537
 1366SOL     OW14431   3.010   8.930   2.188 -0.3747  0.4448 -0.1423
 1366SOL    HW114432   2.946   8.856   2.206  0.1226  0.2480  0.8092
 1366SOL    HW214433   2.964   9.018   2.203 -0.2587  0.2975  1.1056
 1367SOL     OW14434   2.824   7.751   1.255 -0.8006  0.6997 -0.2626
 1367SOL    HW114435   2.828   7.734   1.353 -3.4522 -0.5669 -0.3456
 1367SOL    HW214436   2.814   7.849   1.239 -0.3954  0.9105  0.7195
 1368SOL     OW14437   9.904   0.272   1.663 -0.3189  0.7294  0.6907
 1368SOL    HW114438   9.821   0.229   1.626  0.0063 -0.5409  1.4082
 1368SOL    HW214439   9.913   0.249   1.760  2.0771 -1.0439  0.0927
 1369SOL     OW14440   8.992   6.544   2.086 -0.1669  0.1405  0.0033
 1369SOL    HW114441   8.943   6.461   2.114  1.5156 -0.4374  1.3096
 1369SOL    HW214442   8.929   6.605   2.038 -1.5886 -1.6051 -0.4001
 1370SOL     OW14443   1.158   6.088   0.924  0.2612  0.2466  0.1835
 1370SOL    HW114444   1.059   6.100   0.918  0.2997  0.3180 -0.3774
 1370SOL    HW214445   1.185   6.079   1.019 -0.3712 -0.5113  0.2924
 1371SOL     OW14446   0.372   1.341   0.508 -0.0641  0.0849 -0.1921
 1371SOL    HW114447   0.414   1.432   0.501 -0.2848  0.2524  0.5822
 1371SOL    HW214448   0.391   1.303   0.598 -1.2525 -0.0002  0.0290
 1372SOL     OW14449   9.631   9.751   2.496  0.6778 -0.0275  0.3740
 1372SOL    HW114450   9.554   9.744   2.432  1.4677 -0.0850 -0.5802
 1372SOL    HW214451   9.646   9.846   2.520  1.2051  0.1232 -0.5475
 1373SOL     OW14452   4.109   5.104   2.561  0.0183 -0.2684  0.1615
 1373SOL    HW114453   4.081   5.188   2.608 -0.9786 -1.1826  1.2512
 1373SOL    HW214454   4.027   5.055   2.530  0.6258 -0.3437 -1.3469
 1374SOL     OW14455   0.239   2.212   0.590  0.0636 -0.6197 -0.1625
 1374SOL    HW114456   0.223   2.280   0.661  1.3075 -1.3361  0.8309
 1374SOL    HW214457   0.260   2.257   0.504  2.6923  0.3021  0.8987
 1375SOL     OW14458   1.742   9.280   0.789  0.2510  0.1992 -0.4992
 1375SOL    HW114459   1.768   9.200   0.843 -2.3024 -0.8890 -0.8339
 1375SOL    HW214460   1.694   9.345   0.848 -2.1567 -0.7980 -1.3307
 1376SOL     OW14461   2.481   1.464   1.710  0.1483  0.5828  0.0547
 1376SOL    HW114462   2.479   1.439   1.613 -1.9812  1.0221 -0.0562
 1376SOL    HW214463   2.548   1.408   1.758 -1.4946 -2.3758 -0.9737
 1377SOL     OW14464   1.701   2.881   3.430 -0.2022 -0.4476  0.0353
 1377SOL    HW114465   1.795   2.880   3.396  0.1901  2.6980  0.8571
 1377SOL    HW214466   1.642   2.925   3.363 -0.3925  0.9614  1.1063
 1378SOL     OW14467   2.434   4.463   0.710 -0.8034  0.0215  0.1187
 1378SOL    HW114468   2.512   4.515   0.746 -0.5917 -0.1904 -0.0331
 1378SOL    HW214469   2.366   4.527   0.674 -1.4188  0.2671  1.6956
 1379SOL     OW14470   1.024   3.399   1.914 -0.5265 -0.0320 -0.0626
 1379SOL    HW114471   0.967   3.349   1.848 -3.1689  1.4069  1.0789
 1379SOL    HW214472   1.014   3.357   2.004 -1.2472  1.3588  0.5145
 1380SOL     OW14473   7.177   8.878   3.301  0.2998 -0.5313 -0.2477
 1380SOL    HW114474   7.235   8.931   3.240  0.0868  0.0077  0.0176
 1380SOL    HW214475   7.183   8.915   3.393  0.4616 -1.2195  0.0198
 1381SOL     OW14476   9.249   1.108   2.493 -0.1693  0.5442 -0.3485
 1381SOL    HW114477   9.293   1.173   2.431  0.7719  1.2398  1.0257
 1381SOL    HW214478   9.174   1.153   2.541 -1.2490 -0.1451 -1.3712
 1382SOL     OW14479   9.607   0.440   1.963  0.1766  0.3344 -0.2233
 1382SOL    HW114480   9.537   0.497   2.006  0.1209  0.2638 -0.2207
 1382SOL    HW214481   9.653   0.493   1.891 -1.3649 -0.2955 -1.7131
 1383SOL     OW14482   9.008   6.191   0.011 -0.0855  0.2246  1.4187
 1383SOL    HW114483   9.079   6.124  -0.011  0.7900  1.7683 -0.5882
 1383SOL    HW214484   8.921   6.144   0.024  0.3554 -1.2433 -0.7294
 1384SOL     OW14485   1.508   6.949   0.212  0.1233  0.3116  0.2015
 1384SOL    HW114486   1.568   7.018   0.254 -0.4849  0.5168  0.7476
 1384SOL    HW214487   1.425   6.941   0.267  0.6304 -1.5795  0.7024
 1385SOL     OW14488   9.099   0.815   0.546 -0.0468  0.1369 -0.3090
 1385SOL    HW114489   9.171   0.860   0.492 -0.2497 -0.2767 -0.9245
 1385SOL    HW214490   9.123   0.819   0.643  0.6405  0.3078 -0.4836
 1386SOL     OW14491   4.319   9.718   2.091  0.2362  0.6958  0.4296
 1386SOL    HW114492   4.417   9.704   2.074  0.2331  0.9975  0.1590
 1386SOL    HW214493   4.280   9.634   2.128  0.6289  0.6197  0.6694
 1387SOL     OW14494   1.913   2.810   1.856  0.3642 -0.1789  0.0319
 1387SOL    HW114495   1.983   2.793   1.787  1.2878 -0.5661  1.0468
 1387SOL    HW214496   1.935   2.758   1.939 -0.5531  0.5304  0.7284
 1388SOL     OW14497   3.329   2.871   2.065  0.2259 -0.3258  0.2975
 1388SOL    HW114498   3.410   2.815   2.084  2.2826  1.7093 -2.1662
 1388SOL    HW214499   3.302   2.858   1.970 -0.6726  1.1256  0.3521
 1389SOL     OW14500   4.461   2.160   2.237 -0.1091  0.5052  0.0024
 1389SOL    HW114501   4.418   2.127   2.320  2.2197 -2.4670  0.1225
 1389SOL    HW214502   4.529   2.230   2.260 -0.5109  0.7603  0.4250
 1390SOL     OW14503   3.189   5.806   3.139 -0.0474 -0.1300 -0.1178
 1390SOL    HW114504   3.172   5.904   3.136 -0.9481 -0.3074 -1.3829
 1390SOL    HW214505   3.238   5.783   3.222  1.1065  1.5304 -0.3232
 1391SOL     OW14506   6.005   8.623   2.508 -0.3723  0.7862 -0.5948
 1391SOL    HW114507   6.010   8.532   2.548  1.7189  1.6173  1.1066
 1391SOL    HW214508   6.025   8.618   2.411  0.5283 -0.4703 -0.3561
 1392SOL     OW14509   9.235   0.163   1.656 -0.3807 -0.2582  0.3408
 1392SOL    HW114510   9.234   0.211   1.568  0.5153 -0.4864  0.2062
 1392SOL    HW214511   9.277   0.073   1.645  0.3453 -0.0273  1.1353
 1393SOL     OW14512   8.758   6.699   1.073 -0.1923  0.2895 -0.1624
 1393SOL    HW114513   8.744   6.620   1.013  0.8792  0.2116 -0.3210
 1393SOL    HW214514   8.669   6.738   1.097 -0.6916 -0.4143 -0.8124
 1394SOL     OW14515   2.213   2.462   3.090  0.4697  0.6784  0.0912
 1394SOL    HW114516   2.121   2.502   3.089  0.6683  1.1251 -0.5198
 1394SOL    HW214517   2.212   2.377   3.038  0.3633  0.6059  0.2128
 1395SOL     OW14518   9.717   6.765   1.595 -0.2280  0.0017  0.1193
 1395SOL    HW114519   9.714   6.678   1.643 -0.2580  0.1699  0.4262
 1395SOL    HW214520   9.670   6.835   1.650  1.3173  0.6078  0.7018
 1396SOL     OW14521   2.221   0.116   0.803 -1.0966  0.3312 -0.0968
 1396SOL    HW114522   2.308   0.071   0.825 -1.0810  0.5967  0.3997
 1396SOL    HW214523   2.238   0.213   0.784 -1.5053  0.7954  1.7841
 1397SOL     OW14524   9.812   7.315   1.554 -0.2020  0.6155 -0.6042
 1397SOL    HW114525   9.791   7.243   1.621  0.6192  0.0811 -0.9129
 1397SOL    HW214526   9.780   7.403   1.590 -1.4257  0.0759 -0.3251
 1398SOL     OW14527   9.902   8.929   3.394  0.1319  0.3259 -0.1452
 1398SOL    HW114528   9.899   8.893   3.487  0.2806 -0.0557 -0.2865
 1398SOL    HW214529   9.896   8.853   3.328  0.0661  0.5887 -0.4447
 1399SOL     OW14530   2.941   2.895   1.513 -0.7007 -0.1083  0.1105
 1399SOL    HW114531   2.854   2.845   1.513 -1.2664  0.8240 -1.2030
 1399SOL    HW214532   3.017   2.831   1.522 -1.5234 -0.9226  1.4510
 1400SOL     OW14533   4.122   3.096   2.022 -0.0938  0.0171  0.4305
 1400SOL    HW114534   4.197   3.057   1.969  1.1622  0.4970  1.8329
 1400SOL    HW214535   4.035   3.074   1.978  0.6469 -3.3120  0.5553
 1401SOL     OW14536   1.055   7.838   1.760 -0.3592 -0.5633 -0.3879
 1401SOL    HW114537   1.131   7.819   1.698  0.5107  2.0046 -0.1565
 1401SOL    HW214538   1.020   7.930   1.743 -1.6604 -0.7128  1.3378
 1402SOL     OW14539   1.629   8.096   2.955  0.3770 -0.1789  0.1515
 1402SOL    HW114540   1.649   8.087   2.857 -1.1937 -0.4759 -0.1464
 1402SOL    HW214541   1.712   8.125   3.003  0.6253  2.0585 -1.5656
 1403SOL     OW14542   0.917   9.660   0.836 -0.0117 -0.1626 -0.3829
 1403SOL    HW114543   0.897   9.607   0.918  0.2006 -1.3293 -1.0791
 1403SOL    HW214544   0.878   9.614   0.756  1.5294 -0.0848 -1.1873
 1404SOL     OW14545   0.425   4.551   1.346  0.2855 -0.0669 -0.0975
 1404SOL    HW114546   0.341   4.577   1.297  1.0502 -1.2746 -2.1133
 1404SOL    HW214547   0.410   4.464   1.393  0.3556 -0.2144 -0.3456
 1405SOL     OW14548   0.979   9.881   2.167  0.0879 -0.2819 -0.1015
 1405SOL    HW114549   0.996   9.846   2.259 -0.6657 -0.6349 -0.0923
 1405SOL    HW214550   0.909   9.953   2.171  1.0147  0.6393 -0.2279
 1406SOL     OW14551   2.446   0.450   1.037 -0.1329  0.1699  0.0099
 1406SOL    HW114552   2.539   0.439   1.000  0.1299  0.7069  0.4961
 1406SOL    HW214553   2.439   0.539   1.083 -0.9304  0.1869 -0.1432
 1407SOL     OW14554   3.500   6.806   0.436 -0.2842  0.0974  0.4307
 1407SOL    HW114555   3.501   6.857   0.350  0.0151  0.1646  0.4748
 1407SOL    HW214556   3.463   6.864   0.509 -0.7991 -0.0522  0.2904
 1408SOL     OW14557   1.175   2.509   3.333 -0.0597 -0.6803 -0.6645
 1408SOL    HW114558   1.222   2.592   3.362  1.1115 -1.7337  0.5050
 1408SOL    HW214559   1.158   2.451   3.413 -2.1309 -0.9395 -1.2676
 1409SOL     OW14560   8.622   6.602   1.506 -0.2158 -0.3193  0.4825
 1409SOL    HW114561   8.714   6.569   1.525  0.6708  0.8856 -1.6269
 1409SOL    HW214562   8.599   6.677   1.568  0.0093 -0.9376  1.3303
 1410SOL     OW14563   9.804   8.562   3.282  0.4250 -0.2773 -0.3681
 1410SOL    HW114564   9.834   8.649   3.243 -1.4529 -0.4410 -2.2967
 1410SOL    HW214565   9.848   8.487   3.234 -0.0249 -0.4307 -0.5456
 1411SOL     OW14566   3.361   1.802   2.485  0.7805 -0.2340 -0.2013
 1411SOL    HW114567   3.328   1.713   2.516  2.1159 -0.5269  0.4285
 1411SOL    HW214568   3.290   1.847   2.431 -0.3250 -1.1828  0.4374
 1412SOL     OW14569   2.807   3.305   2.979  0.3905  0.0991  0.0782
 1412SOL    HW114570   2.841   3.245   3.052 -0.0649 -0.9105 -0.5321
 1412SOL    HW214571   2.847   3.278   2.892 -0.2867  0.3011 -0.2965
 1413SOL     OW14572   2.804   2.606   3.265 -0.3273 -0.0703  0.2232
 1413SOL    HW114573   2.722   2.577   3.314  0.6880 -2.3679  0.6051
 1413SOL    HW214574   2.849   2.679   3.317 -0.3925 -1.0233  1.6483
 1414SOL     OW14575   8.964   5.264   0.311  0.4915 -0.6116 -0.0099
 1414SOL    HW114576   8.888   5.318   0.347  0.9937 -0.2007  0.4426
 1414SOL    HW214577   8.975   5.182   0.366  0.4486 -0.6134 -0.0042
 1415SOL     OW14578   8.143   1.853   2.860 -0.2487 -0.3373  0.5441
 1415SOL    HW114579   8.211   1.885   2.926 -0.5547  1.1913  0.1322
 1415SOL    HW214580   8.059   1.827   2.908  0.1532 -0.9272  0.9244
 1416SOL     OW14581   2.177   7.484   0.863  0.1198 -0.2338  0.5039
 1416SOL    HW114582   2.149   7.514   0.954  0.9589  1.2236  0.2942
 1416SOL    HW214583   2.244   7.547   0.826 -0.2533 -0.7810 -1.1605
 1417SOL     OW14584   9.115   9.710   0.622 -0.3635  0.0920 -0.0269
 1417SOL    HW114585   9.037   9.651   0.601  0.0414  0.1057 -1.5994
 1417SOL    HW214586   9.118   9.726   0.721 -3.2041  1.2509 -0.0635
 1418SOL     OW14587   2.461   9.724   0.861 -0.1770  0.2300 -0.1451
 1418SOL    HW114588   2.433   9.628   0.868 -2.0486  0.8371  0.9826
 1418SOL    HW214589   2.504   9.739   0.772 -2.4338 -1.0322 -1.5059
 1419SOL     OW14590   9.689   3.502   2.339 -0.5094 -0.5409  0.3945
 1419SOL    HW114591   9.676   3.540   2.247 -1.3797  1.9339  1.4952
 1419SOL    HW214592   9.635   3.418   2.349 -1.4760 -0.0785 -0.9084
 1420SOL     OW14593   9.337   2.261   3.160  0.2732 -0.0181 -0.4644
 1420SOL    HW114594   9.264   2.316   3.119  0.0796  0.7385  0.8568
 1420SOL    HW214595   9.319   2.164   3.144 -0.9333  0.1750 -0.2917
 1421SOL     OW14596   7.316   9.963   3.360  0.3835 -0.0934 -0.3054
 1421SOL    HW114597   7.294   9.893   3.427  0.3930  0.4195  0.2353
 1421SOL    HW214598   7.415   9.961   3.340  0.5160  0.2789  0.2960
 1422SOL     OW14599   0.202   2.891   2.787  0.6718  0.0422 -0.3982
 1422SOL    HW114600   0.166   2.800   2.766  0.3008 -0.0773  0.7293
 1422SOL    HW214601   0.147   2.932   2.860 -0.5729  2.0940 -2.4081
 1423SOL     OW14602   7.997   9.370   0.244 -0.6710  0.5589 -0.3675
 1423SOL    HW114603   8.087   9.397   0.276 -0.7361  0.5068 -0.1418
 1423SOL    HW214604   7.960   9.298   0.303 -1.0139  0.8340 -0.2462
 1424SOL     OW14605   1.010   7.493   1.325 -0.3755 -0.5339  0.2437
 1424SOL    HW114606   0.995   7.497   1.226 -0.1005 -0.4220  0.2089
 1424SOL    HW214607   0.940   7.548   1.371 -2.1433 -2.6822  0.2564
 1425SOL     OW14608   2.381   6.225   0.573  0.1354 -0.1141 -0.1083
 1425SOL    HW114609   2.466   6.274   0.595  1.0159 -2.4774  1.9695
 1425SOL    HW214610   2.392   6.178   0.485  0.2645  1.1579 -0.7848
 1426SOL     OW14611   2.515   4.421   2.657 -0.3754  0.3534  0.2693
 1426SOL    HW114612   2.494   4.514   2.688  1.6424  1.0805 -0.4578
 1426SOL    HW214613   2.543   4.366   2.736  0.4966  0.9705  0.4024
 1427SOL     OW14614   9.104   0.895   0.843 -0.1461  0.4157 -0.1339
 1427SOL    HW114615   9.083   0.958   0.917  0.2983  1.3975 -0.8233
 1427SOL    HW214616   9.177   0.833   0.871  0.5479  1.2759 -0.0023
 1428SOL     OW14617   2.177   3.925   3.029 -0.0822  0.3392 -0.3950
 1428SOL    HW114618   2.192   3.828   3.048  1.1012  0.6415  0.2787
 1428SOL    HW214619   2.146   3.971   3.113 -2.3699  0.2240 -1.1374
 1429SOL     OW14620   2.540   7.681   2.667  0.4036 -0.2850 -0.6229
 1429SOL    HW114621   2.448   7.697   2.631 -0.0513 -1.0987  0.1732
 1429SOL    HW214622   2.572   7.591   2.637  1.2094  0.2660 -1.4484
 1430SOL     OW14623   2.492   4.061   3.337 -0.0141 -0.1194  0.3346
 1430SOL    HW114624   2.412   4.088   3.284  0.2693  0.7154  0.3199
 1430SOL    HW214625   2.557   4.012   3.278 -0.2574 -0.2923  0.2122
 1431SOL     OW14626   3.901   0.264   2.576 -0.6232 -0.0991 -0.0946
 1431SOL    HW114627   3.907   0.219   2.487 -0.9582  2.0169 -1.2349
 1431SOL    HW214628   3.826   0.225   2.629 -1.4504 -0.2928 -1.3871
 1432SOL     OW14629   3.291   0.240   0.487 -0.3678 -0.2604 -0.1732
 1432SOL    HW114630   3.274   0.287   0.574  0.4056  2.4105 -1.4212
 1432SOL    HW214631   3.377   0.189   0.493  0.8622  1.7762 -0.0861
 1433SOL     OW14632   8.962   2.737   1.625  0.2057 -0.7643  0.8584
 1433SOL    HW114633   8.911   2.751   1.710 -0.5526 -0.4077  0.3571
 1433SOL    HW214634   8.911   2.674   1.566  0.0214  0.0915  0.0887
 1434SOL     OW14635   9.429   6.113   2.190 -0.2307 -0.1345 -0.5996
 1434SOL    HW114636   9.446   6.074   2.281  1.2268 -0.6772 -1.0757
 1434SOL    HW214637   9.405   6.039   2.127 -0.0005  0.0715 -0.9305
 1435SOL     OW14638   3.808   8.492   1.221  0.6589 -0.1897 -0.1088
 1435SOL    HW114639   3.850   8.493   1.312  0.6492 -0.4015 -0.1011
 1435SOL    HW214640   3.811   8.584   1.182 -1.1911  0.3385  0.9582
 1436SOL     OW14641   7.904   0.717   2.226 -0.0520  0.5730  0.1677
 1436SOL    HW114642   7.915   0.663   2.143  1.5400 -0.2448  0.8803
 1436SOL    HW214643   7.877   0.658   2.302  0.3253  1.0013  0.6415
 1437SOL     OW14644   8.782   5.604   2.986 -0.7239  0.7419 -0.4776
 1437SOL    HW114645   8.728   5.532   3.030  0.3023  0.6992  0.7349
 1437SOL    HW214646   8.852   5.563   2.928 -1.2071  0.7861 -1.0975
 1438SOL     OW14647   1.973   2.405   2.008 -1.0429  0.2668 -0.1634
 1438SOL    HW114648   1.973   2.497   2.047  0.9090 -0.4967  1.7613
 1438SOL    HW214649   2.027   2.404   1.924  0.9794  0.4277  1.0959
 1439SOL     OW14650   4.326   8.894   2.269 -1.2333 -0.5361  0.3178
 1439SOL    HW114651   4.241   8.862   2.310 -0.4193 -0.4696  2.1065
 1439SOL    HW214652   4.387   8.928   2.340  0.3559 -0.7195 -0.9180
 1440SOL     OW14653   1.524   2.594   1.296  0.3347 -0.0224 -0.1061
 1440SOL    HW114654   1.476   2.520   1.249 -1.2552 -0.4482  2.1387
 1440SOL    HW214655   1.465   2.674   1.302  0.4174 -0.0612  1.3880
 1441SOL     OW14656   2.490   9.400   2.064  0.0209  0.2443 -0.0631
 1441SOL    HW114657   2.442   9.446   1.990  2.4237  0.1363 -1.7355
 1441SOL    HW214658   2.467   9.444   2.151 -0.6491  2.1652 -1.1884
 1442SOL     OW14659   0.934   9.520   1.478 -0.1325 -0.3366  0.4367
 1442SOL    HW114660   1.032   9.515   1.458 -0.2672  0.6493 -0.5360
 1442SOL    HW214661   0.917   9.596   1.541 -0.2249 -0.7210  0.8708
 1443SOL     OW14662   8.353   5.158   1.170 -0.2343 -0.2422 -0.5692
 1443SOL    HW114663   8.415   5.234   1.189 -2.0957  1.6032 -1.6843
 1443SOL    HW214664   8.394   5.099   1.100  1.6382 -0.8420  0.9826
 1444SOL     OW14665   8.503   0.172   2.551 -0.4451 -0.4090 -0.4331
 1444SOL    HW114666   8.475   0.267   2.568  0.2597 -0.3690  0.5822
 1444SOL    HW214667   8.576   0.147   2.616 -2.0795 -2.3161  0.7382
 1445SOL     OW14668   8.300   5.948   2.528  0.1640 -0.4831  0.2210
 1445SOL    HW114669   8.352   6.033   2.527 -2.4159  1.1448  0.2513
 1445SOL    HW214670   8.272   5.926   2.622  2.2958 -2.3467  0.4724
 1446SOL     OW14671   9.479   7.662   2.060  0.0151  0.0593 -0.0092
 1446SOL    HW114672   9.578   7.646   2.066  0.2109  0.2164 -2.3576
 1446SOL    HW214673   9.448   7.710   2.142  2.1422  1.3560  0.0664
 1447SOL     OW14674   9.405   7.373   2.909  0.1666 -0.0249  0.2438
 1447SOL    HW114675   9.376   7.453   2.960 -0.9065 -1.2324  1.5712
 1447SOL    HW214676   9.378   7.383   2.813  1.0979  1.6951  0.1372
 1448SOL     OW14677   9.322   5.714   1.223  0.3741  0.2129  0.5592
 1448SOL    HW114678   9.404   5.769   1.211  0.9087 -0.7697 -0.4214
 1448SOL    HW214679   9.256   5.736   1.151  0.9759 -1.0703 -0.4220
 1449SOL     OW14680   8.818   0.012   3.404  0.1386 -0.2929  0.0441
 1449SOL    HW114681   8.731   0.061   3.399 -0.5347 -1.6508 -2.5337
 1449SOL    HW214682   8.814  -0.057   3.476 -0.2531  0.8507  1.1359
 1450SOL     OW14683   2.459   3.705   2.391  0.0894  0.1235  0.3420
 1450SOL    HW114684   2.365   3.675   2.372  0.6004 -0.9930 -0.5107
 1450SOL    HW214685   2.515   3.690   2.309  0.6655  2.2215  0.3403
 1451SOL     OW14686   9.280   4.239   2.573  0.4785  0.5173  0.7461
 1451SOL    HW114687   9.181   4.225   2.575  0.4252  0.9443  1.5548
 1451SOL    HW214688   9.303   4.310   2.507  0.4422 -1.0163 -0.9545
 1452SOL     OW14689   0.489   0.298   1.666 -0.0255  0.5206 -0.1321
 1452SOL    HW114690   0.562   0.310   1.734 -1.6423  2.4335  1.3483
 1452SOL    HW214691   0.526   0.311   1.574  1.2723  2.7751  0.6631
 1453SOL     OW14692   9.960   6.925   1.531 -0.3437  0.0065  0.0135
 1453SOL    HW114693   9.874   6.873   1.528 -1.4734  1.8180 -0.0157
 1453SOL    HW214694   9.957   6.988   1.608 -0.2654  2.1373 -1.6859
 1454SOL     OW14695   2.160   2.993   2.475  0.6669  0.4988  0.0203
 1454SOL    HW114696   2.140   3.057   2.400  0.2888  1.0834  0.6146
 1454SOL    HW214697   2.220   3.037   2.541  1.6230 -0.2853 -0.3248
 1455SOL     OW14698   2.734   9.552   3.093 -0.1536  0.2205  0.8502
 1455SOL    HW114699   2.716   9.458   3.121 -0.7621  0.1147  0.0977
 1455SOL    HW214700   2.796   9.552   3.014  0.3007  0.4690  1.2059
 1456SOL     OW14701   3.055   5.558   1.083  0.0616 -0.0517  0.2147
 1456SOL    HW114702   2.977   5.592   1.031  0.3304  0.0781 -0.1067
 1456SOL    HW214703   3.110   5.635   1.116 -0.0772 -0.1367  0.6383
 1457SOL     OW14704   9.358   3.976   1.898 -0.3143  0.2099 -0.1611
 1457SOL    HW114705   9.356   3.933   1.988 -0.0810 -0.5331 -0.5065
 1457SOL    HW214706   9.373   4.074   1.908 -0.9102  0.2201  0.6370
 1458SOL     OW14707   1.745   0.276   1.824  0.1957 -0.3024 -0.0486
 1458SOL    HW114708   1.745   0.176   1.833 -1.7319 -0.3303 -0.1182
 1458SOL    HW214709   1.829   0.313   1.865  0.7470 -1.9102  0.3288
 1459SOL     OW14710   1.689   1.248   0.305 -0.5383 -0.1728  0.0047
 1459SOL    HW114711   1.764   1.255   0.239 -0.1324 -1.6997  0.2864
 1459SOL    HW214712   1.708   1.307   0.383  0.8472 -1.2457  0.5051
 1460SOL     OW14713   0.946   9.891   2.794 -0.1055 -0.3131  0.0635
 1460SOL    HW114714   1.039   9.902   2.828  0.4544 -0.3220 -1.4138
 1460SOL    HW214715   0.908   9.981   2.770 -0.7815 -0.2250  1.4077
 1461SOL     OW14716   1.250   5.623   0.404 -0.5109 -0.5077 -0.2134
 1461SOL    HW114717   1.342   5.588   0.390 -1.4149 -2.5033 -1.4006
 1461SOL    HW214718   1.232   5.632   0.502  0.4865 -1.3609  0.0576
 1462SOL     OW14719   1.175   5.750   0.963  0.4259 -0.3128 -0.5554
 1462SOL    HW114720   1.123   5.686   1.019 -0.3295  0.8279  0.0630
 1462SOL    HW214721   1.273   5.738   0.980  0.1481  1.2759  2.4062
 1463SOL     OW14722   4.325   0.232   2.420  0.0704 -0.2816 -0.0779
 1463SOL    HW114723   4.282   0.300   2.480 -0.8511 -1.1573  0.2743
 1463SOL    HW214724   4.383   0.278   2.353  1.1212  0.7290  1.4824
 1464SOL     OW14725   0.541   0.093   1.016 -0.4850 -0.0367  0.2964
 1464SOL    HW114726   0.618   0.092   1.080  1.3106  0.9916 -1.7850
 1464SOL    HW214727   0.564   0.036   0.936 -2.0444 -0.0293 -0.1739
 1465SOL     OW14728   1.178   3.853   2.970  0.2263  0.3587  0.3291
 1465SOL    HW114729   1.173   3.825   2.874 -0.6472 -0.7297  0.6877
 1465SOL    HW214730   1.094   3.902   2.995 -0.9436 -2.1577  1.4040
 1466SOL     OW14731   8.941   0.100   1.928 -0.4206  0.1437 -0.2762
 1466SOL    HW114732   8.979   0.191   1.914  0.2784 -0.2689 -1.0941
 1466SOL    HW214733   8.975   0.038   1.857 -0.2690 -0.9418  0.7201
 1467SOL     OW14734   8.170   8.887   2.329  0.3313  0.2995 -0.1846
 1467SOL    HW114735   8.179   8.972   2.382  0.0610 -1.1352  2.2180
 1467SOL    HW214736   8.218   8.897   2.242  0.9581  2.6396  0.3944
 1468SOL     OW14737   8.514   4.587   0.694 -0.1770  0.6127  0.2238
 1468SOL    HW114738   8.566   4.573   0.610 -1.3640 -0.0616 -0.4135
 1468SOL    HW214739   8.568   4.555   0.772  0.4393  0.0909 -0.4095
 1469SOL     OW14740   0.095   5.899   0.556 -0.3223  0.2611 -0.0116
 1469SOL    HW114741   0.050   5.952   0.629  1.7534  1.3884  0.4929
 1469SOL    HW214742   0.142   5.820   0.597 -0.9791 -0.3413 -0.4109
 1470SOL     OW14743   3.169   1.980   1.129 -0.5913  0.0876  0.4720
 1470SOL    HW114744   3.235   2.016   1.061  0.1662 -1.7602  0.2083
 1470SOL    HW214745   3.136   2.056   1.185 -0.9626  1.6076 -1.7279
 1471SOL     OW14746   2.239   4.471   1.659 -0.2020 -0.1765  0.6634
 1471SOL    HW114747   2.261   4.557   1.704  0.2880 -0.1622  0.4078
 1471SOL    HW214748   2.313   4.405   1.675  0.8369  0.4026 -1.5805
 1472SOL     OW14749   0.965   3.510   0.164  0.4213 -0.0991  0.3655
 1472SOL    HW114750   0.920   3.550   0.084  0.0779 -2.0488 -0.4714
 1472SOL    HW214751   1.057   3.479   0.137  0.7961  0.3980  1.0694
 1473SOL     OW14752   2.753   3.699   0.506 -0.5773  0.1887  0.0389
 1473SOL    HW114753   2.795   3.733   0.422 -0.8905 -2.3178 -1.1599
 1473SOL    HW214754   2.821   3.650   0.561 -0.7122  0.6066  0.5895
 1474SOL     OW14755   2.403   7.892   0.915 -0.1293 -0.6258  0.0888
 1474SOL    HW114756   2.438   7.838   0.991  0.0593  2.3635  2.2015
 1474SOL    HW214757   2.320   7.940   0.944 -1.2419 -1.0475 -2.2595
 1475SOL     OW14758   4.067   8.675   1.375  0.3044  0.3884  0.4501
 1475SOL    HW114759   4.164   8.700   1.367  0.5113 -0.1606  1.1171
 1475SOL    HW214760   4.017   8.708   1.296  1.3088 -0.5757 -0.6102
 1476SOL     OW14761   1.856   3.910   3.151 -0.2461  0.1344  0.1856
 1476SOL    HW114762   1.835   3.824   3.105 -1.6209  0.4867  0.1140
 1476SOL    HW214763   1.932   3.896   3.214  0.3947 -0.8119 -0.7819
 1477SOL     OW14764   2.597   1.734   1.121  0.8088  0.1369 -0.1443
 1477SOL    HW114765   2.646   1.819   1.104  0.7265  0.4657  1.2379
 1477SOL    HW214766   2.542   1.742   1.204 -1.5423 -0.2583 -1.6242
 1478SOL     OW14767   0.658   3.674   3.025  0.0408 -0.3257 -0.1861
 1478SOL    HW114768   0.731   3.634   3.081 -0.2828 -1.4007 -0.5253
 1478SOL    HW214769   0.609   3.742   3.079  1.7997  0.9933 -0.2067
 1479SOL     OW14770   8.453   7.877   3.292 -0.1882  0.2281 -0.7174
 1479SOL    HW114771   8.438   7.976   3.285 -0.7625  0.4287  2.7464
 1479SOL    HW214772   8.546   7.856   3.262  0.8743  2.1857  1.0980
 1480SOL     OW14773   1.024   3.007   2.451 -0.5250 -0.1183 -0.5460
 1480SOL    HW114774   1.012   2.917   2.410 -0.1868 -0.3617 -0.1086
 1480SOL    HW214775   0.957   3.020   2.525  0.5036 -0.6520  0.4844
 1481SOL     OW14776   3.398   8.315   3.152 -0.4118 -0.1486 -1.0293
 1481SOL    HW114777   3.472   8.343   3.213 -2.6818  2.2879  0.6868
 1481SOL    HW214778   3.335   8.254   3.200 -0.6368 -0.6110 -1.8818
 1482SOL     OW14779   0.218   2.328   2.997 -0.5120 -0.0524 -0.4825
 1482SOL    HW114780   0.236   2.287   3.086 -1.9620  2.6410  1.1349
 1482SOL    HW214781   0.299   2.379   2.967 -0.5936  0.4584  0.1423
 1483SOL     OW14782   2.942   7.754   0.871  0.3560 -0.0243  0.5026
 1483SOL    HW114783   2.954   7.675   0.932  1.8535 -0.1277  0.0871
 1483SOL    HW214784   3.022   7.813   0.877 -0.8740  1.6360  1.0122
 1484SOL     OW14785   0.733   1.646   2.262 -0.5559 -0.2187 -0.3532
 1484SOL    HW114786   0.692   1.633   2.353 -0.8019 -0.3813 -0.4873
 1484SOL    HW214787   0.827   1.614   2.263 -0.5143 -0.0873 -0.1135
 1485SOL     OW14788   8.703   5.535   1.059 -0.5442  0.3077 -0.1051
 1485SOL    HW114789   8.670   5.518   1.152  0.1689 -1.0165 -0.0712
 1485SOL    HW214790   8.791   5.581   1.064 -0.0972 -0.5335 -0.0946
 1486SOL     OW14791   1.423   9.530   1.618  0.3804  0.6645  0.6943
 1486SOL    HW114792   1.520   9.514   1.637  0.3269  0.6704  0.9844
 1486SOL    HW214793   1.389   9.601   1.680  0.2402  0.8007  0.4579
 1487SOL     OW14794   0.513   3.965   0.460  0.1374  0.1936 -0.1299
 1487SOL    HW114795   0.448   4.034   0.490  0.4583 -0.7222  2.7825
 1487SOL    HW214796   0.537   3.905   0.536  2.4951 -1.0299 -1.7455
 1488SOL     OW14797   8.310   9.574   3.165  0.1552  0.2151 -0.5932
 1488SOL    HW114798   8.318   9.523   3.251  1.2683  1.4508  0.0640
 1488SOL    HW214799   8.345   9.667   3.179  1.2420  0.1318 -2.6304
 1489SOL     OW14800   4.311   9.121   0.946  0.3156  0.0956 -0.0814
 1489SOL    HW114801   4.316   9.200   0.885  0.8873  0.4273  0.3959
 1489SOL    HW214802   4.389   9.061   0.929 -0.5086 -0.7389 -0.9547
 1490SOL     OW14803   0.507   1.613   1.846  0.4457 -0.2779 -0.0621
 1490SOL    HW114804   0.542   1.602   1.754 -1.1818 -1.8384 -0.5262
 1490SOL    HW214805   0.469   1.526   1.878  2.2917 -0.1502  2.6483
 1491SOL     OW14806   3.501   0.291   0.903  0.0622  0.1604 -0.2703
 1491SOL    HW114807   3.427   0.291   0.835  0.5045 -0.0751 -0.7553
 1491SOL    HW214808   3.544   0.381   0.905 -0.9106  0.6121  0.7561
 1492SOL     OW14809   4.327   4.608   1.088 -0.0729 -0.6007 -0.8038
 1492SOL    HW114810   4.269   4.689   1.084  0.4403 -0.2042 -0.4440
 1492SOL    HW214811   4.276   4.531   1.127  0.1768  0.2293  1.2564
 1493SOL     OW14812   0.249   4.770   2.240 -0.1960  0.6845  0.2894
 1493SOL    HW114813   0.207   4.724   2.318 -0.6912  1.3054  0.4017
 1493SOL    HW214814   0.194   4.754   2.158  0.9508 -0.9149 -0.1733
 1494SOL     OW14815   1.172   6.090   1.188 -0.1226  0.1921  0.0463
 1494SOL    HW114816   1.135   6.177   1.158 -0.5568  0.8361  2.3262
 1494SOL    HW214817   1.114   6.052   1.260  0.5291 -1.5672 -0.3217
 1495SOL     OW14818   3.653   5.824   2.475  1.0708  0.0690 -0.5189
 1495SOL    HW114819   3.720   5.754   2.450  1.3279 -0.6788  2.1119
 1495SOL    HW214820   3.653   5.836   2.574 -0.0225  2.7661 -0.8031
 1496SOL     OW14821   0.962   6.192   2.627  0.8415 -0.3804  0.0294
 1496SOL    HW114822   1.057   6.222   2.615  1.1481 -0.8196  1.2470
 1496SOL    HW214823   0.924   6.165   2.539  1.4584  0.9410 -0.6524
 1497SOL     OW14824   9.617   1.446   2.217  0.2850 -0.0806 -0.0130
 1497SOL    HW114825   9.573   1.363   2.181 -0.3455  0.1552  0.2242
 1497SOL    HW214826   9.642   1.506   2.140 -2.8100  1.3156  0.0276
 1498SOL     OW14827   8.800   8.846   1.251 -0.1575 -0.3652  0.3108
 1498SOL    HW114828   8.741   8.922   1.224 -0.0266 -0.5963 -0.6492
 1498SOL    HW214829   8.799   8.836   1.350 -1.8165 -0.4337  0.2948
 1499SOL     OW14830   7.508   9.658   0.268  0.2230  0.0445 -0.5647
 1499SOL    HW114831   7.493   9.704   0.356 -0.8376  1.3020 -1.3865
 1499SOL    HW214832   7.577   9.586   0.280 -0.1549 -0.0389  1.3694
 1500SOL     OW14833   4.075   7.426   2.893 -0.1543 -0.3511 -0.1417
 1500SOL    HW114834   4.168   7.405   2.923 -0.0594  0.2357 -0.0197
 1500SOL    HW214835   4.079   7.489   2.815 -0.4614  0.0501  0.1662
 1501SOL     OW14836   5.060   2.713   2.009  0.2927 -0.1983 -0.1265
 1501SOL    HW114837   5.099   2.654   1.939 -2.9354  0.2278 -2.4363
 1501SOL    HW214838   5.013   2.658   2.077  1.0158 -0.4849  0.1417
 1502SOL     OW14839   2.438   0.220   0.033 -0.8369  0.2542 -0.1153
 1502SOL    HW114840   2.353   0.218   0.086  0.6610 -0.6355  2.3564
 1502SOL    HW214841   2.465   0.127   0.010  0.9820  0.3078  1.6882
 1503SOL     OW14842   2.891   0.978   3.252 -0.0150 -0.1152  0.0621
 1503SOL    HW114843   2.862   0.882   3.250 -0.8981  0.1627 -0.4160
 1503SOL    HW214844   2.872   1.016   3.342 -1.5743  0.2005 -0.3971
 1504SOL     OW14845   3.393   3.159   1.515  0.0291  0.1341  0.2999
 1504SOL    HW114846   3.327   3.098   1.558 -1.8419  1.3043 -0.8399
 1504SOL    HW214847   3.395   3.142   1.416 -0.0674  1.4768  0.0560
 1505SOL     OW14848   2.375   8.656   1.477 -0.0785 -0.2865  0.4524
 1505SOL    HW114849   2.406   8.597   1.551 -2.2361 -3.0280 -0.6892
 1505SOL    HW214850   2.451   8.674   1.414  1.6759  1.8105  3.1090
 1506SOL     OW14851   0.881   9.251   1.624 -0.3492 -0.0767 -0.0741
 1506SOL    HW114852   0.898   9.347   1.603  1.4895  0.2635  2.6450
 1506SOL    HW214853   0.790   9.242   1.665 -0.2932  0.6181  0.2145
 1507SOL     OW14854   0.986   6.743   0.486 -0.0055  0.2464  0.0368
 1507SOL    HW114855   1.061   6.810   0.493  0.3847  0.0837 -2.2326
 1507SOL    HW214856   0.925   6.769   0.411  1.3007 -3.0036 -2.2559
 1508SOL     OW14857   3.499   2.278   0.661 -0.1206 -0.2438  0.0927
 1508SOL    HW114858   3.564   2.352   0.645  0.5371 -0.9357 -0.5270
 1508SOL    HW214859   3.450   2.258   0.576 -1.8670  0.9464  0.8173
 1509SOL     OW14860   0.426   0.494   2.681 -0.9699 -0.1675  0.2151
 1509SOL    HW114861   0.368   0.413   2.671 -1.2094 -0.1682  1.6039
 1509SOL    HW214862   0.465   0.497   2.773  0.9354  0.0464 -0.5663
 1510SOL     OW14863   1.783   5.759   2.180  0.4724 -0.2030  0.1291
 1510SOL    HW114864   1.721   5.704   2.124  2.3233 -1.9888 -0.1978
 1510SOL    HW214865   1.729   5.821   2.237 -1.4983  1.2012 -3.0902
 1511SOL     OW14866   9.916   1.597   1.272  0.0428 -0.0333  0.7975
 1511SOL    HW114867   9.915   1.678   1.330  1.5549  0.3641  0.3011
 1511SOL    HW214868   9.878   1.620   1.182 -0.4855 -0.1513  0.9858
 1512SOL     OW14869   1.173   6.691   3.359 -0.1995  0.1859  0.0611
 1512SOL    HW114870   1.126   6.655   3.278 -0.0338  1.0421 -0.4245
 1512SOL    HW214871   1.196   6.787   3.344  1.1401 -0.0489  0.5479
 1513SOL     OW14872   2.449   9.035   3.071 -0.7705 -0.2610 -0.6892
 1513SOL    HW114873   2.487   8.945   3.095 -0.6586 -0.1129 -0.3080
 1513SOL    HW214874   2.508   9.079   3.004 -1.9311 -1.3551 -2.4694
 1514SOL     OW14875   8.312   8.200   2.618  0.0032 -0.4660  0.0513
 1514SOL    HW114876   8.268   8.110   2.610 -0.1909 -0.5617  1.8453
 1514SOL    HW214877   8.320   8.241   2.528  0.2853 -2.3750 -0.8278
 1515SOL     OW14878   4.833   9.214   2.496  0.2417 -0.1511 -0.2044
 1515SOL    HW114879   4.801   9.137   2.551 -0.9505  0.3959 -0.1226
 1515SOL    HW214880   4.882   9.279   2.554  1.4979 -0.9655 -0.3216
 1516SOL     OW14881   8.281   4.673   0.571 -0.1395  0.0579 -0.4625
 1516SOL    HW114882   8.214   4.604   0.546 -0.2789 -0.7402  1.9728
 1516SOL    HW214883   8.364   4.629   0.605  0.3022  1.0654 -0.2011
 1517SOL     OW14884   9.053   3.892   1.950 -0.8383 -0.4165  0.2928
 1517SOL    HW114885   9.140   3.938   1.931 -0.5859 -1.0006  0.0199
 1517SOL    HW214886   9.008   3.935   2.028 -1.0180  0.8566 -0.5057
 1518SOL     OW14887   9.476   7.409   1.634  0.0321 -0.1452  0.1487
 1518SOL    HW114888   9.421   7.455   1.704  0.2410 -0.0755  0.2684
 1518SOL    HW214889   9.439   7.317   1.618 -0.2515 -0.0188  0.0684
 1519SOL     OW14890   9.523   2.804   0.991  0.5760  0.2556 -0.0867
 1519SOL    HW114891   9.497   2.737   0.922 -1.0312  0.8530 -0.0732
 1519SOL    HW214892   9.449   2.869   1.004  1.6909  1.3930  0.6930
 1520SOL     OW14893   2.575   4.243   0.921 -0.4044 -0.0431 -0.6461
 1520SOL    HW114894   2.503   4.192   0.875 -0.7341 -0.2517  0.1054
 1520SOL    HW214895   2.654   4.252   0.859 -1.0553  0.1556 -1.4471
 1521SOL     OW14896   2.950   9.180   0.196 -0.2634 -0.9279  0.1563
 1521SOL    HW114897   2.872   9.118   0.187  0.0754 -1.1145 -1.8240
 1521SOL    HW214898   2.978   9.211   0.105  0.8570  0.5298  0.9797
 1522SOL     OW14899   3.967   0.903   2.017 -0.6734  0.2051 -0.7319
 1522SOL    HW114900   3.883   0.871   1.976 -1.3454 -0.7657  1.3210
 1522SOL    HW214901   3.955   0.912   2.116  1.1049  1.7371 -0.6100
 1523SOL     OW14902   3.918   4.903   0.039  0.3009  0.6237 -0.5648
 1523SOL    HW114903   3.956   4.991   0.011 -0.6712  1.0463 -0.5926
 1523SOL    HW214904   3.838   4.882  -0.017 -0.1787  0.2889  0.2279
 1524SOL     OW14905   4.566   0.328   2.852 -0.3885  0.3912  0.3502
 1524SOL    HW114906   4.608   0.279   2.929  0.5217  3.0373  1.6034
 1524SOL    HW214907   4.468   0.334   2.867 -0.1881  1.1174  1.4709
 1525SOL     OW14908   8.286   9.884   0.751  0.1338 -0.0397  0.6462
 1525SOL    HW114909   8.337   9.950   0.696  0.3266 -0.3896  0.4016
 1525SOL    HW214910   8.188   9.892   0.730  0.4358 -1.9794 -1.7439
 1526SOL     OW14911   2.863   9.424   0.749  0.5595 -0.3928  0.1986
 1526SOL    HW114912   2.882   9.333   0.713  0.4997 -0.0468 -0.7035
 1526SOL    HW214913   2.801   9.472   0.688  0.9987  0.4504  0.4139
 1527SOL     OW14914   2.501   7.650   1.512 -0.8963 -0.1628 -0.5208
 1527SOL    HW114915   2.544   7.740   1.510 -2.2705  0.4572 -2.7718
 1527SOL    HW214916   2.533   7.601   1.594  2.2865  1.1312 -0.8949
 1528SOL     OW14917   1.034   7.446   3.129 -0.5058  0.0010  0.0487
 1528SOL    HW114918   1.064   7.537   3.156 -0.9880 -0.0814  0.8821
 1528SOL    HW214919   0.959   7.454   3.063 -0.3824  0.2129 -0.0648
 1529SOL     OW14920   0.544   2.233   1.099  0.3151  0.0091  0.5565
 1529SOL    HW114921   0.577   2.142   1.073  1.6990  0.4137  0.8731
 1529SOL    HW214922   0.483   2.225   1.178  0.3987 -0.6481  0.5548
 1530SOL     OW14923   2.962   9.403   0.371 -0.4633 -0.6978 -0.0433
 1530SOL    HW114924   2.924   9.324   0.322 -0.9525 -0.3884 -0.1664
 1530SOL    HW214925   3.040   9.373   0.426 -1.0981 -1.4129  0.4879
 1531SOL     OW14926   4.073   9.346   0.826 -0.3768  0.0111  0.0781
 1531SOL    HW114927   4.172   9.358   0.818 -0.0792 -2.7389 -0.8900
 1531SOL    HW214928   4.031   9.360   0.736 -0.7000 -0.2358  0.1907
 1532SOL     OW14929   3.189   6.507   1.137 -0.3559  0.5304 -0.0560
 1532SOL    HW114930   3.104   6.533   1.181  0.2759  0.0104  1.4901
 1532SOL    HW214931   3.230   6.430   1.185  1.2796  1.1395 -0.4349
 1533SOL     OW14932   2.396   7.379   0.484  0.2967 -0.6550  0.0632
 1533SOL    HW114933   2.442   7.343   0.403 -0.9001 -0.5823 -0.6593
 1533SOL    HW214934   2.384   7.478   0.475 -0.1460 -0.6992  0.1755
 1534SOL     OW14935   8.820   2.158   3.437 -0.8671 -0.2082  0.3040
 1534SOL    HW114936   8.734   2.187   3.479 -1.4472 -1.4930  0.0359
 1534SOL    HW214937   8.888   2.230   3.448 -1.8311  0.6282  0.9525
 1535SOL     OW14938   1.663   5.388   0.624 -0.6777  0.1033 -0.1588
 1535SOL    HW114939   1.612   5.359   0.543 -1.0571  0.0399  0.1007
 1535SOL    HW214940   1.688   5.484   0.616  0.9892 -0.3919 -1.2354
 1536SOL     OW14941   3.181   1.722   0.310  0.3353 -0.6225  0.7793
 1536SOL    HW114942   3.113   1.651   0.329  1.1302 -2.1563 -1.8818
 1536SOL    HW214943   3.139   1.795   0.255  0.7637 -1.5016 -0.7447
 1537SOL     OW14944   8.998   4.792   0.570  0.0547 -0.8161  0.5176
 1537SOL    HW114945   8.899   4.786   0.576 -0.1219 -0.0813 -1.2877
 1537SOL    HW214946   9.039   4.760   0.655 -1.6993 -1.8801  0.9725
 1538SOL     OW14947   8.220   7.759   3.357  0.0322  0.2681  0.2722
 1538SOL    HW114948   8.305   7.807   3.336 -0.0204  0.8927  1.4491
 1538SOL    HW214949   8.240   7.672   3.401  0.0628  0.7225  1.1780
 1539SOL     OW14950   9.462   5.361   0.411 -0.5092 -0.2164  0.6752
 1539SOL    HW114951   9.407   5.278   0.419 -0.7627 -0.0955  0.1621
 1539SOL    HW214952   9.443   5.421   0.489 -2.2315  0.4994 -0.2866
 1540SOL     OW14953   0.122   6.693   0.269  0.5197 -0.5751  0.0198
 1540SOL    HW114954   0.040   6.662   0.221 -1.2750  1.3486  1.8002
 1540SOL    HW214955   0.146   6.626   0.340 -0.2221 -0.5114  0.3269
 1541SOL     OW14956   6.608   9.825   2.509 -0.4062 -0.3712  0.4522
 1541SOL    HW114957   6.704   9.821   2.481 -1.0317 -1.0438 -1.7198
 1541SOL    HW214958   6.595   9.900   2.574  1.4291  0.3067  0.0607
 1542SOL     OW14959   9.931   4.239   2.278 -0.3428 -0.0998 -0.1423
 1542SOL    HW114960   9.848   4.286   2.247  0.5156  1.6104  0.1023
 1542SOL    HW214961   9.944   4.157   2.222 -1.8107 -0.0152 -0.6548
 1543SOL     OW14962   1.624   0.114   2.780 -0.2287  0.3187 -0.6326
 1543SOL    HW114963   1.721   0.093   2.791 -0.1371  1.0597 -0.0415
 1543SOL    HW214964   1.569   0.046   2.829 -0.0011  0.1130 -0.6628
 1544SOL     OW14965   3.626   5.623   2.960  0.0691 -0.0670 -0.1205
 1544SOL    HW114966   3.530   5.634   2.987 -0.4369 -0.1510 -1.8197
 1544SOL    HW214967   3.684   5.676   3.021 -1.0995  0.2865  0.6967
 1545SOL     OW14968   0.571   6.861   2.400  0.3833 -0.3732 -0.6183
 1545SOL    HW114969   0.500   6.880   2.332  0.2948  0.0583 -0.4045
 1545SOL    HW214970   0.580   6.762   2.412  0.2622 -0.4461 -1.1150
 1546SOL     OW14971   3.453   1.471   1.119 -0.6603 -0.7227 -0.3751
 1546SOL    HW114972   3.390   1.548   1.132  1.0253  0.5042  0.6931
 1546SOL    HW214973   3.412   1.388   1.160  0.2181  0.9915  4.2871
 1547SOL     OW14974   3.465   0.246   1.469  0.3028  0.0796  0.7405
 1547SOL    HW114975   3.478   0.154   1.506  1.4620  0.4763  1.3748
 1547SOL    HW214976   3.429   0.241   1.377  0.8785 -1.0326  0.5718
 1548SOL     OW14977   3.396   1.712   3.306 -0.5806  0.3975 -0.0495
 1548SOL    HW114978   3.366   1.807   3.293 -0.2140  0.5637  0.3122
 1548SOL    HW214979   3.464   1.689   3.235  0.5081  0.9148  0.8077
 1549SOL     OW14980   0.678   9.359   0.522 -0.1526 -0.1303  0.7556
 1549SOL    HW114981   0.724   9.295   0.583  0.2486  2.0537  2.8033
 1549SOL    HW214982   0.581   9.363   0.544  0.1079  1.1513  1.7313
 1550SOL     OW14983   2.072   4.815   1.963 -0.3966 -0.2920 -0.0070
 1550SOL    HW114984   1.982   4.772   1.955 -0.3362 -0.3648 -0.3104
 1550SOL    HW214985   2.136   4.769   1.901 -0.9179  1.8029 -2.1798
 1551SOL     OW14986   1.372   0.242   0.433  0.7693 -0.0520 -0.3487
 1551SOL    HW114987   1.384   0.316   0.367 -0.3076  0.0264 -0.4673
 1551SOL    HW214988   1.458   0.227   0.482  1.4639  0.1681 -1.4680
 1552SOL     OW14989   2.751   2.335   3.046  0.1486 -0.4602 -0.1591
 1552SOL    HW114990   2.844   2.362   3.020  0.0995  1.3950  1.4658
 1552SOL    HW214991   2.694   2.417   3.055 -1.0060 -1.3843  1.2135
 1553SOL     OW14992   4.743   9.261   3.353 -0.2042  0.3267 -0.4482
 1553SOL    HW114993   4.803   9.198   3.303 -0.5521 -0.9490  0.7163
 1553SOL    HW214994   4.660   9.277   3.300  0.3394  0.6279 -1.2169
 1554SOL     OW14995   9.303   7.658   1.645  0.2627  0.2071  0.0697
 1554SOL    HW114996   9.236   7.627   1.577  0.0041 -1.3274  1.0047
 1554SOL    HW214997   9.366   7.722   1.602 -0.9105  0.5478 -1.2002
 1555SOL     OW14998   2.279   4.659   0.586 -0.3676  0.5416  0.1876
 1555SOL    HW114999   2.303   4.633   0.492 -0.3290  0.1019  0.3231
 1555SOL    HW215000   2.211   4.733   0.583 -0.9378  0.0018 -0.1846
 1556SOL     OW15001   2.292   8.412   3.216 -0.5878 -0.5556 -0.3309
 1556SOL    HW115002   2.255   8.491   3.169 -0.9353  0.0013  0.8661
 1556SOL    HW215003   2.392   8.411   3.207 -0.6964 -0.7528 -1.5221
 1557SOL     OW15004   0.819   3.383   0.352 -0.3938 -0.0302 -0.1153
 1557SOL    HW115005   0.728   3.421   0.340  0.1861  1.2651 -0.5416
 1557SOL    HW215006   0.880   3.419   0.281  0.0598 -2.1718 -0.8433
 1558SOL     OW15007   2.238   1.146   0.675  0.5720 -0.0222 -0.0060
 1558SOL    HW115008   2.194   1.059   0.651 -0.7388  0.9413 -1.1690
 1558SOL    HW215009   2.256   1.149   0.773  1.3348 -1.9295 -0.0727
 1559SOL     OW15010   1.068   6.037   1.994  0.2784 -0.1034  0.1785
 1559SOL    HW115011   0.991   6.074   1.942  0.5874 -0.1116 -0.2854
 1559SOL    HW215012   1.049   5.942   2.019  0.4500 -0.3315 -0.5574
 1560SOL     OW15013   1.909   1.195   2.429  0.3852 -0.2142  0.0142
 1560SOL    HW115014   1.995   1.197   2.481  0.1987  1.8397  0.2676
 1560SOL    HW215015   1.859   1.112   2.452  2.5727 -1.7655 -0.5986
 1561SOL     OW15016   2.605   5.522   0.686 -0.0965  0.2395  0.1715
 1561SOL    HW115017   2.697   5.560   0.672 -0.6880  0.8069 -2.4221
 1561SOL    HW215018   2.583   5.522   0.784  1.8457  2.0243  0.6309
 1562SOL     OW15019   7.724   1.324   0.676 -0.3407 -0.5768 -0.2580
 1562SOL    HW115020   7.779   1.295   0.597  0.9378  0.6054  0.1807
 1562SOL    HW215021   7.689   1.416   0.660  0.9802  0.1733  1.0825
 1563SOL     OW15022   3.742   4.438   0.323 -0.0028  0.2400  0.3507
 1563SOL    HW115023   3.777   4.366   0.263 -0.3896  0.4150 -0.0910
 1563SOL    HW215024   3.732   4.402   0.415 -1.6447 -0.7273 -0.1827
 1564SOL     OW15025   4.686   4.351   1.085 -0.3625  0.2660 -0.3983
 1564SOL    HW115026   4.659   4.412   1.011 -1.3991  1.4160  0.9240
 1564SOL    HW215027   4.643   4.379   1.171  0.4516 -1.3261  0.5725
 1565SOL     OW15028   9.001   8.669   1.029 -0.4629 -0.0711  0.2614
 1565SOL    HW115029   8.905   8.688   1.008 -0.8966 -1.8595  0.5797
 1565SOL    HW215030   9.049   8.755   1.049 -1.5034  1.0403 -1.9217
 1566SOL     OW15031   4.460   9.882   0.635 -0.3039 -0.0567  0.0158
 1566SOL    HW115032   4.402   9.961   0.616 -1.4934 -0.9067  0.0589
 1566SOL    HW215033   4.433   9.841   0.722 -0.1263 -0.8801 -0.3078
 1567SOL     OW15034   8.440   7.407   2.667 -0.1916  0.0062 -0.5416
 1567SOL    HW115035   8.392   7.329   2.628 -0.2813  0.5067 -1.4483
 1567SOL    HW215036   8.374   7.479   2.690 -0.0407  0.0918 -0.3783
 1568SOL     OW15037   3.778   8.286   0.599 -0.1598  0.1361  0.1145
 1568SOL    HW115038   3.834   8.299   0.518 -0.5639  3.6485  0.3167
 1568SOL    HW215039   3.813   8.209   0.653  3.5086  1.2667 -0.5492
 1569SOL     OW15040   8.062   0.793   0.752  0.1332  0.4677  0.1732
 1569SOL    HW115041   8.080   0.716   0.814  2.9927  0.7752 -0.2430
 1569SOL    HW215042   8.124   0.789   0.674 -0.7153  2.3785 -0.6314
 1570SOL     OW15043   9.207   8.369   1.551  0.3301 -0.3431  0.0970
 1570SOL    HW115044   9.289   8.425   1.559  0.1933 -0.0406 -0.5764
 1570SOL    HW215045   9.188   8.351   1.455 -0.5304 -0.2068  0.2337
 1571SOL     OW15046   0.353   1.007   2.155  0.4999  0.1711  0.6153
 1571SOL    HW115047   0.265   1.053   2.145  0.5719  0.2371  0.2968
 1571SOL    HW215048   0.343   0.910   2.130  1.0310  0.6735 -1.5989
 1572SOL     OW15049   9.165   3.888   0.347 -0.3620  0.9939  0.1827
 1572SOL    HW115050   9.208   3.899   0.436 -0.2829  2.4653 -0.0199
 1572SOL    HW215051   9.101   3.963   0.331 -0.6494  0.5411 -0.8353
 1573SOL     OW15052   9.009   7.648   1.845 -0.1545  0.2273 -0.2900
 1573SOL    HW115053   9.103   7.617   1.850 -0.7024 -1.7681 -1.7952
 1573SOL    HW215054   9.006   7.740   1.806  1.1015 -0.0040 -0.9427
 1574SOL     OW15055   1.920   9.352   0.588 -0.2081 -0.4584 -0.2118
 1574SOL    HW115056   1.887   9.422   0.524 -1.7204 -0.8979  0.0566
 1574SOL    HW215057   1.849   9.334   0.656  0.7848 -1.1260  0.6628
 1575SOL     OW15058   4.513   9.749   1.705 -0.1111 -0.3386 -0.5612
 1575SOL    HW115059   4.479   9.665   1.664 -2.9946  0.4871  0.0028
 1575SOL    HW215060   4.542   9.731   1.799 -0.5613 -0.7251 -0.4959
 1576SOL     OW15061   9.047   2.091   3.180 -0.3406 -0.1123  0.3252
 1576SOL    HW115062   9.129   2.054   3.137 -0.4462  1.1062 -0.9988
 1576SOL    HW215063   9.043   2.190   3.163 -1.1667  0.1412  1.9089
 1577SOL     OW15064   9.530   7.468   0.351  0.3486  0.2943  0.2136
 1577SOL    HW115065   9.568   7.509   0.267 -0.3087 -1.4973 -1.0021
 1577SOL    HW215066   9.571   7.377   0.364 -0.2953  0.1593  1.3034
 1578SOL     OW15067   3.558   7.310   1.167  0.0275  0.5860 -0.1605
 1578SOL    HW115068   3.518   7.224   1.134  0.1980  1.6556 -3.4025
 1578SOL    HW215069   3.591   7.298   1.260 -1.2625 -2.4348 -0.0228
 1579SOL     OW15070   0.957   3.340   1.342  0.4180  0.5750  0.0867
 1579SOL    HW115071   0.899   3.260   1.327  0.9880  0.6353 -2.7158
 1579SOL    HW215072   0.939   3.378   1.432 -2.7726 -0.3226 -0.1208
 1580SOL     OW15073   2.281   5.427   2.572 -0.0614 -0.1484 -0.2434
 1580SOL    HW115074   2.240   5.509   2.532 -0.1622 -0.6563 -1.1832
 1580SOL    HW215075   2.209   5.359   2.590  0.0213 -0.0415  0.5189
 1581SOL     OW15076   9.735   4.610   1.430 -0.1103  0.2506 -0.7332
 1581SOL    HW115077   9.643   4.617   1.390 -0.3813  0.1536 -0.1346
 1581SOL    HW215078   9.727   4.587   1.527  0.5757 -1.1343 -0.9964
 1582SOL     OW15079   3.860   1.151   2.328  0.0860 -0.1073  0.3952
 1582SOL    HW115080   3.927   1.185   2.262 -1.4000  0.7198 -0.7203
 1582SOL    HW215081   3.847   1.053   2.316  1.5935 -0.4004  1.0794
 1583SOL     OW15082   2.887   8.019   0.695 -0.3468 -0.3107 -0.7133
 1583SOL    HW115083   2.897   7.924   0.725  0.0609  0.1694  0.6805
 1583SOL    HW215084   2.977   8.060   0.683 -0.5253 -0.0125 -1.0436
 1584SOL     OW15085   9.215   9.091   0.766  0.4237 -0.1427  0.0946
 1584SOL    HW115086   9.155   9.017   0.796  1.5655 -0.3289  2.0271
 1584SOL    HW215087   9.244   9.145   0.846  2.0232  0.5377 -0.9148
 1585SOL     OW15088   0.337   6.607   1.417 -0.1088  0.4954 -0.2109
 1585SOL    HW115089   0.402   6.591   1.492 -0.4947  1.8593  0.4432
 1585SOL    HW215090   0.387   6.613   1.331  0.4456 -0.2294  0.0545
 1586SOL     OW15091   3.547   8.180   2.957  0.1634  0.5038 -0.0226
 1586SOL    HW115092   3.465   8.231   2.985  1.0200  2.0710 -0.3190
 1586SOL    HW215093   3.562   8.193   2.859 -0.4570 -1.5608 -0.4139
 1587SOL     OW15094   8.383   8.740   0.352  0.3799  0.4877 -0.0942
 1587SOL    HW115095   8.441   8.716   0.430 -0.5858 -0.8947  0.2095
 1587SOL    HW215096   8.427   8.813   0.300  1.9978  0.0333  0.5958
 1588SOL     OW15097   7.970   0.506   3.291 -0.4663 -0.7624 -0.2075
 1588SOL    HW115098   7.995   0.554   3.375 -3.3268 -0.2687  0.4113
 1588SOL    HW215099   7.908   0.562   3.238  0.6312 -1.4469 -2.2535
 1589SOL     OW15100   8.772   0.312   2.997  0.1920 -0.3771  0.2593
 1589SOL    HW115101   8.826   0.274   3.072 -0.0659  0.3633  0.8261
 1589SOL    HW215102   8.818   0.392   2.958  0.6536 -1.1547 -0.8266
 1590SOL     OW15103   1.569   4.897   2.291  0.1422  0.2463 -0.1427
 1590SOL    HW115104   1.629   4.969   2.256 -0.1204 -0.1193 -1.3783
 1590SOL    HW215105   1.602   4.808   2.257 -0.9598  0.0275 -0.6498
 1591SOL     OW15106   2.809   1.127   0.016  0.4368 -0.0295  0.1727
 1591SOL    HW115107   2.881   1.168   0.071  1.4767  0.0648 -1.2341
 1591SOL    HW215108   2.721   1.169   0.039  1.1812  1.5449  0.1743
 1592SOL     OW15109   1.316   6.556   2.517  0.1734 -0.3463  0.2947
 1592SOL    HW115110   1.367   6.628   2.564 -1.2661  0.4118  0.7445
 1592SOL    HW215111   1.335   6.560   2.419  0.2439  0.5319  0.3388
 1593SOL     OW15112   3.158   8.195   1.366 -0.0467 -0.3820 -0.3886
 1593SOL    HW115113   3.222   8.145   1.308  2.0994 -0.2308  1.7688
 1593SOL    HW215114   3.144   8.145   1.451  1.2353  2.0690  1.3272
 1594SOL     OW15115   4.218   4.602   1.534 -0.4846 -0.3170 -0.1484
 1594SOL    HW115116   4.169   4.617   1.448  0.1833  0.4272 -0.4130
 1594SOL    HW215117   4.205   4.680   1.595 -0.0066 -0.3114 -0.0459
 1595SOL     OW15118   1.582   3.331   3.302 -0.4404 -0.0795  0.0288
 1595SOL    HW115119   1.502   3.321   3.243 -0.5632 -0.9058  0.3238
 1595SOL    HW215120   1.644   3.399   3.263 -0.0269 -1.3560 -1.6297
 1596SOL     OW15121   0.190   9.992   3.096 -0.7334 -0.7494  0.1045
 1596SOL    HW115122   0.251  10.020   3.022  0.0683 -0.6096  0.8077
 1596SOL    HW215123   0.156  10.073   3.144 -3.0277 -0.7095 -1.4840
 1597SOL     OW15124   6.888   9.589   2.154  0.6091 -0.2496  0.0725
 1597SOL    HW115125   6.902   9.663   2.220 -1.0155 -1.0245  1.3149
 1597SOL    HW215126   6.799   9.600   2.110 -0.0963 -2.0165  1.0125
 1598SOL     OW15127   2.349   9.924   0.313 -1.1525 -0.5591  0.5432
 1598SOL    HW115128   2.349   9.887   0.221 -0.6923  1.6812 -0.4085
 1598SOL    HW215129   2.256   9.923   0.351 -1.7555  0.6030 -0.8582
 1599SOL     OW15130   4.803   0.105   3.030 -0.0672 -0.0406 -0.3722
 1599SOL    HW115131   4.863   0.179   2.998  0.0631  0.0110 -0.0123
 1599SOL    HW215132   4.824   0.022   2.978  1.0379 -0.2924  0.4469
 1600SOL     OW15133   2.609   7.465   1.301 -0.4605 -0.1050 -0.3665
 1600SOL    HW115134   2.563   7.395   1.355 -0.6520  1.6538  1.8919
 1600SOL    HW215135   2.570   7.555   1.324  1.5910  1.0193 -1.1284
 1601SOL     OW15136   3.824   9.426   2.826  0.2055 -0.3622 -0.0789
 1601SOL    HW115137   3.797   9.331   2.842  0.0205 -0.4031 -0.6103
 1601SOL    HW215138   3.761   9.487   2.874 -1.7786 -0.4116 -2.4761
 1602SOL     OW15139   7.463   0.014   0.274 -0.0304  0.3611 -0.3578
 1602SOL    HW115140   7.374   0.042   0.239  0.0704  0.8971 -0.1850
 1602SOL    HW215141   7.524  -0.008   0.197  0.2229  1.6376 -0.5375
 1603SOL     OW15142   9.593   5.191   2.612 -0.6411 -0.3712  0.6755
 1603SOL    HW115143   9.510   5.156   2.570 -0.6399  1.9299 -1.2983
 1603SOL    HW215144   9.593   5.291   2.609  1.4510 -0.2899  2.1339
 1604SOL     OW15145   8.355   1.881   1.364 -0.4261  0.0675  0.0873
 1604SOL    HW115146   8.280   1.882   1.430 -1.2609 -0.3164 -0.8442
 1604SOL    HW215147   8.398   1.791   1.363 -0.9149 -0.1613 -0.4484
 1605SOL     OW15148   1.719   2.368   2.383 -0.5225 -0.6003  0.3329
 1605SOL    HW115149   1.787   2.328   2.445  0.7934  1.9023  0.5840
 1605SOL    HW215150   1.726   2.323   2.294 -0.1056 -1.9059  0.9990
 1606SOL     OW15151   3.817   8.096   2.722 -0.1821  0.3439  0.4256
 1606SOL    HW115152   3.859   8.057   2.640  0.3837  2.3069 -0.2467
 1606SOL    HW215153   3.725   8.129   2.700 -0.3183  0.1941  0.7677
 1607SOL     OW15154   9.699   6.275   1.952  0.0462  0.1223 -0.4265
 1607SOL    HW115155   9.654   6.309   2.035  0.7562  0.6935 -0.2706
 1607SOL    HW215156   9.631   6.261   1.880 -0.4826  0.2609  0.0436
 1608SOL     OW15157   7.578   9.188   2.818  0.1530  0.1896  0.1737
 1608SOL    HW115158   7.574   9.218   2.722 -1.3635  0.9926  0.4732
 1608SOL    HW215159   7.636   9.252   2.870  0.1773  0.3161 -0.0070
 1609SOL     OW15160   2.155   5.093   1.936  0.2211  0.4296  0.3121
 1609SOL    HW115161   2.253   5.098   1.954  0.5547 -1.0318 -0.9476
 1609SOL    HW215162   2.123   5.000   1.951 -1.0319  0.9380  0.9046
 1610SOL     OW15163   4.398   7.880   0.261  0.0246  0.5056  0.0394
 1610SOL    HW115164   4.469   7.869   0.331 -1.2274 -1.6871  1.0207
 1610SOL    HW215165   4.343   7.960   0.282  1.8247  1.9172 -0.4336
 1611SOL     OW15166   9.971   6.918   0.864  0.4392  0.1703 -0.0435
 1611SOL    HW115167  10.014   6.870   0.940  2.1954 -0.4101 -1.3579
 1611SOL    HW215168  10.007   7.012   0.860  3.1991 -0.9127 -2.3437
 1612SOL     OW15169   0.736   5.478   0.307 -0.4686  0.5491 -0.2941
 1612SOL    HW115170   0.683   5.544   0.254  1.9590  0.3508 -3.0716
 1612SOL    HW215171   0.802   5.527   0.364 -0.0981  0.6024 -0.7677
 1613SOL     OW15172   9.220   4.729   1.055 -0.5045 -0.5063 -0.2549
 1613SOL    HW115173   9.215   4.658   1.125 -0.6255  1.6796  2.0219
 1613SOL    HW215174   9.315   4.746   1.031 -0.4358 -1.0204 -0.3370
 1614SOL     OW15175   2.177   0.745   1.256  0.8544  0.1726 -0.4508
 1614SOL    HW115176   2.257   0.710   1.209  1.2260  0.9636 -0.4236
 1614SOL    HW215177   2.122   0.799   1.192 -0.6879 -1.9599 -0.9861
 1615SOL     OW15178   0.783   1.756   2.724 -0.2638 -0.0604  0.1469
 1615SOL    HW115179   0.820   1.846   2.745  3.0314 -1.5478  0.9806
 1615SOL    HW215180   0.754   1.711   2.809  0.0245 -0.5989 -0.0385
 1616SOL     OW15181   4.686   8.872   1.526  0.8357 -0.0398  0.1478
 1616SOL    HW115182   4.713   8.793   1.471  0.2510 -1.8802  2.4206
 1616SOL    HW215183   4.625   8.930   1.472  0.9140 -1.3752 -1.4242
 1617SOL     OW15184   3.474   8.805   3.375  0.2895 -0.5627  0.6490
 1617SOL    HW115185   3.470   8.887   3.431  1.9734  0.7144 -1.0162
 1617SOL    HW215186   3.554   8.750   3.401  0.7767 -0.2319 -0.1452
 1618SOL     OW15187   1.209   8.919   0.476 -0.3451 -0.4876  0.3681
 1618SOL    HW115188   1.287   8.901   0.537  0.5763  3.1890  0.4441
 1618SOL    HW215189   1.243   8.962   0.392 -2.1092 -0.8462 -0.5346
 1619SOL     OW15190   2.805   4.278   0.803  0.1655 -0.0107 -0.1967
 1619SOL    HW115191   2.897   4.279   0.842  0.8663  2.3615 -1.8212
 1619SOL    HW215192   2.812   4.283   0.703 -1.7776  2.4010 -0.2347
 1620SOL     OW15193   2.050   6.920   2.869 -0.0007  0.0662 -0.5405
 1620SOL    HW115194   2.081   6.825   2.866  0.5746  0.1869  1.0056
 1620SOL    HW215195   2.088   6.970   2.791  1.6172 -0.4241 -0.0965
 1621SOL     OW15196   7.066   7.931   2.362 -0.1601  0.0648  0.3259
 1621SOL    HW115197   7.156   7.907   2.397  0.3549  0.3644 -0.7713
 1621SOL    HW215198   7.068   7.932   2.262 -1.5510 -0.5877  0.2748
 1622SOL     OW15199   1.688   9.132   1.619 -0.2406 -0.5897 -0.2870
 1622SOL    HW115200   1.629   9.052   1.631  0.2076 -0.7460  0.9484
 1622SOL    HW215201   1.748   9.141   1.699 -0.0013  0.7372 -0.6080
 1623SOL     OW15202   2.405   0.314   0.656 -0.3651  0.2030  0.0915
 1623SOL    HW115203   2.397   0.282   0.562  0.0128 -0.0619  0.1465
 1623SOL    HW215204   2.494   0.359   0.669 -1.1898  1.9458 -0.1776
 1624SOL     OW15205   0.669   9.950   0.366  0.7000 -0.4408  0.5424
 1624SOL    HW115206   0.656   9.869   0.423  2.0061 -1.0063  0.0662
 1624SOL    HW215207   0.760   9.988   0.383  0.6497  0.0703 -0.3121
 1625SOL     OW15208   8.969   9.173   1.114  0.6356  0.8883  0.1193
 1625SOL    HW115209   8.932   9.195   1.204  0.4634  1.4549 -0.0852
 1625SOL    HW215210   8.898   9.188   1.045  0.5631 -0.1754 -0.0426
 1626SOL     OW15211   9.403   5.019   1.552  0.0610  0.0568  0.2931
 1626SOL    HW115212   9.331   5.013   1.483  0.0233  1.0267  0.2400
 1626SOL    HW215213   9.485   5.059   1.511  1.0740 -2.2361  0.0158
 1627SOL     OW15214   4.008   8.898   2.496 -0.6414 -0.1485  0.1973
 1627SOL    HW115215   4.036   8.831   2.428 -0.9376  0.7733 -0.8455
 1627SOL    HW215216   3.972   8.979   2.450  1.5224  1.5373  1.3688
 1628SOL     OW15217   8.987   8.052   0.660 -0.1508 -0.5288 -0.3217
 1628SOL    HW115218   9.062   8.104   0.619 -0.4937 -0.0272 -0.3176
 1628SOL    HW215219   9.024   7.989   0.729  0.0809  1.2183  1.1986
 1629SOL     OW15220   8.625   8.377   2.312  0.3421  0.0359 -0.7556
 1629SOL    HW115221   8.698   8.427   2.359 -0.5372  1.0389 -0.4153
 1629SOL    HW215222   8.538   8.423   2.329 -0.2209 -0.5469 -2.0156
 1630SOL     OW15223   9.640   9.167   1.659 -1.0700 -0.1855 -0.2183
 1630SOL    HW115224   9.723   9.212   1.691 -0.8354 -0.5602 -0.2931
 1630SOL    HW215225   9.560   9.210   1.700 -0.8775  0.6785 -0.7403
 1631SOL     OW15226   1.638   9.724   1.987 -0.0734  0.1571  0.1730
 1631SOL    HW115227   1.698   9.645   1.973 -0.1307  0.2205 -0.4523
 1631SOL    HW215228   1.692   9.808   1.980 -0.0341  0.1830  0.7223
 1632SOL     OW15229   9.668   6.560   2.104  0.2545  0.5401 -0.0164
 1632SOL    HW115230   9.592   6.495   2.102  0.0063  0.8304 -0.0340
 1632SOL    HW215231   9.640   6.645   2.059  0.4312  0.8156  0.3918
 1633SOL     OW15232   2.183   6.771   1.263 -0.9128 -0.5194 -0.1911
 1633SOL    HW115233   2.267   6.813   1.230 -0.1191 -1.8310  0.1335
 1633SOL    HW215234   2.165   6.687   1.211 -2.7699  0.4757 -1.2090
 1634SOL     OW15235   9.016   0.827   2.273  0.0150  0.4015 -0.4547
 1634SOL    HW115236   8.983   0.823   2.179 -0.9588  1.2171 -0.1577
 1634SOL    HW215237   9.114   0.845   2.274 -0.2046  1.7284 -1.3033
 1635SOL     OW15238   9.444   8.477   1.200  0.0260 -0.1071 -0.4412
 1635SOL    HW115239   9.417   8.468   1.104  2.2897 -1.5314 -0.9921
 1635SOL    HW215240   9.543   8.492   1.206  0.0567 -0.9556  1.7011
 1636SOL     OW15241   9.141   5.836   1.053 -0.0364  0.4111 -0.0103
 1636SOL    HW115242   9.114   5.884   1.137 -1.8504  0.1604 -0.4284
 1636SOL    HW215243   9.148   5.902   0.978  1.8526  0.6775  0.3666
 1637SOL     OW15244   6.764   8.368   2.235 -0.1831  0.2566 -0.0763
 1637SOL    HW115245   6.698   8.294   2.251  0.1442 -0.1914 -0.7290
 1637SOL    HW215246   6.715   8.452   2.213 -0.5448 -0.2581 -1.3272
 1638SOL     OW15247   0.195   1.858   0.903 -0.0525 -0.3305  0.0228
 1638SOL    HW115248   0.179   1.778   0.961 -0.5939 -0.3170 -0.1094
 1638SOL    HW215249   0.108   1.898   0.876  0.2091  0.0028 -0.3353
 1639SOL     OW15250   2.923   2.774   1.051  0.1875  0.0776 -0.3542
 1639SOL    HW115251   2.929   2.719   1.134 -0.2107 -0.5647 -0.7492
 1639SOL    HW215252   2.957   2.866   1.070  1.7713 -0.5708  0.0447
 1640SOL     OW15253   3.649   4.961   3.146  0.0265  0.2665 -0.6113
 1640SOL    HW115254   3.624   4.941   3.241 -0.3755  0.4523 -0.6771
 1640SOL    HW215255   3.724   4.901   3.118  3.1530  3.1919  1.2124
 1641SOL     OW15256   9.872   3.286   0.927 -0.4694  0.5839  0.0529
 1641SOL    HW115257   9.890   3.193   0.895  0.2706  0.5993  0.4083
 1641SOL    HW215258   9.780   3.291   0.967  0.6339 -0.7768  2.8846
 1642SOL     OW15259   3.563   2.574   2.637  0.1543  0.3092  0.7386
 1642SOL    HW115260   3.561   2.480   2.669 -1.3436  0.7231  1.9158
 1642SOL    HW215261   3.497   2.629   2.689 -0.5835  1.5248 -1.4091
 1643SOL     OW15262   8.659   6.012   3.276 -0.3171  0.6691  0.0805
 1643SOL    HW115263   8.681   5.938   3.212  1.1439  0.8346  0.3832
 1643SOL    HW215264   8.742   6.040   3.324 -1.5051  0.1983  2.4578
 1644SOL     OW15265   8.626   5.332   0.181 -0.7461 -0.0302 -0.3682
 1644SOL    HW115266   8.663   5.353   0.272  0.8513  1.6138 -1.3426
 1644SOL    HW215267   8.527   5.334   0.184 -0.7048  2.4663  0.8376
 1645SOL     OW15268   1.372   0.927   0.202  0.3897  0.1544 -0.0744
 1645SOL    HW115269   1.434   0.857   0.236  0.6598  0.1011 -0.6734
 1645SOL    HW215270   1.402   1.017   0.235  0.8197  0.1345 -0.4085
 1646SOL     OW15271   3.009   1.721   2.946 -0.4962  0.4871  0.4479
 1646SOL    HW115272   3.081   1.663   2.909  0.3826  1.5400  0.4620
 1646SOL    HW215273   2.921   1.695   2.906 -0.0807 -0.6885  0.2878
 1647SOL     OW15274   0.986   0.859   1.726 -0.1144  0.2510  0.7089
 1647SOL    HW115275   1.009   0.796   1.652 -3.6891 -1.4972  0.9617
 1647SOL    HW215276   0.927   0.932   1.691  0.5986  1.1020  1.2567
 1648SOL     OW15277   1.371   2.132   3.112 -0.0432  0.0821  0.8144
 1648SOL    HW115278   1.444   2.124   3.044 -0.6728  3.0847 -0.2939
 1648SOL    HW215279   1.334   2.041   3.132  1.0758 -1.0158 -1.8480
 1649SOL     OW15280   1.550   7.187   2.564  0.0186 -0.4654 -0.1231
 1649SOL    HW115281   1.640   7.211   2.601 -0.4261  0.3391  0.4614
 1649SOL    HW215282   1.491   7.156   2.638 -0.6565  0.4687 -0.2504
 1650SOL     OW15283   1.138   0.087   0.457  0.2820 -0.1126 -0.0234
 1650SOL    HW115284   1.084   0.085   0.373 -1.3597  1.8222  0.9373
 1650SOL    HW215285   1.216   0.148   0.445 -0.2949  0.6522  0.0244
 1651SOL     OW15286   0.352   1.983   0.400  0.2314 -0.3222 -0.4982
 1651SOL    HW115287   0.345   2.050   0.327  2.1346 -0.4968 -0.8639
 1651SOL    HW215288   0.291   2.008   0.475 -0.2684  0.9189 -1.3163
 1652SOL     OW15289   0.542   5.420   1.725  0.0898 -0.9415 -0.4823
 1652SOL    HW115290   0.546   5.344   1.789 -2.7486 -2.1115 -1.6092
 1652SOL    HW215291   0.566   5.505   1.772  1.7958 -2.3029  1.1538
 1653SOL     OW15292   9.369   0.813   1.335 -0.0544  0.4371 -0.3503
 1653SOL    HW115293   9.273   0.837   1.323  0.1938  0.9713 -1.3355
 1653SOL    HW215294   9.393   0.815   1.432 -0.4718  2.4670 -0.2794
 1654SOL     OW15295   7.932   1.860   1.245  0.6163 -0.4974 -0.2439
 1654SOL    HW115296   8.026   1.880   1.217  0.5975 -0.2853 -0.1554
 1654SOL    HW215297   7.924   1.874   1.344  0.1337  0.8980 -0.4641
 1655SOL     OW15298   8.812   5.875   0.391  0.6760  0.1844  0.2278
 1655SOL    HW115299   8.764   5.955   0.356  1.9707  1.1650  0.6387
 1655SOL    HW215300   8.841   5.817   0.314 -0.6549 -0.1348 -0.0467
 1656SOL     OW15301   8.987   5.096   3.439 -0.2860  0.3358  0.0603
 1656SOL    HW115302   8.961   5.045   3.520 -0.0072 -1.0294 -0.6939
 1656SOL    HW215303   9.067   5.153   3.460 -0.2120 -0.0119  0.7322
 1657SOL     OW15304   2.519   4.101   1.441  0.2749 -0.2748 -0.3879
 1657SOL    HW115305   2.577   4.093   1.360  0.5588  1.4552 -0.3767
 1657SOL    HW215306   2.423   4.100   1.413  0.3633 -0.1783 -0.6995
 1658SOL     OW15307   2.602   6.892   1.384 -0.1990  0.1355  0.3736
 1658SOL    HW115308   2.668   6.923   1.453  0.2237  0.1263 -0.0259
 1658SOL    HW215309   2.584   6.795   1.397 -0.9693  0.3729  1.1691
 1659SOL     OW15310   7.963   1.130   1.952  0.2259 -0.1897  0.3014
 1659SOL    HW115311   7.942   1.168   2.042  1.3253 -0.4084  0.6552
 1659SOL    HW215312   8.031   1.187   1.907  2.3608 -2.0325  1.0976
 1660SOL     OW15313   3.886   0.838   2.295  0.5052 -0.9957 -0.2673
 1660SOL    HW115314   3.867   0.749   2.256  1.8701 -1.2588 -0.3409
 1660SOL    HW215315   3.959   0.830   2.363  1.2683  0.2080 -0.9326
 1661SOL     OW15316   1.703   3.494   1.672 -0.7531  0.2519  0.0769
 1661SOL    HW115317   1.616   3.465   1.633 -0.1989 -0.7394 -0.4315
 1661SOL    HW215318   1.769   3.510   1.599 -0.4473  0.8235  0.4693
 1662SOL     OW15319   0.733   6.377   3.057  0.2768 -0.1835  0.1717
 1662SOL    HW115320   0.720   6.457   2.998  2.0028 -0.4838 -0.6594
 1662SOL    HW215321   0.651   6.321   3.056 -0.4503  0.8742 -0.3308
 1663SOL     OW15322   6.661   9.095   2.584  0.1777  0.6446 -0.1231
 1663SOL    HW115323   6.690   9.189   2.565 -0.4532  1.2478  1.7565
 1663SOL    HW215324   6.716   9.058   2.659 -0.6241  0.0569  0.1773
 1664SOL     OW15325   2.356   2.696   3.079  0.2836  0.5741  0.1173
 1664SOL    HW115326   2.313   2.609   3.055  0.7877  0.5155 -0.5804
 1664SOL    HW215327   2.376   2.697   3.177 -0.6185  0.3007  0.3068
 1665SOL     OW15328   2.854   5.075   2.657 -0.3675  0.1906  0.2859
 1665SOL    HW115329   2.933   5.027   2.695 -0.3756 -0.5390 -0.6034
 1665SOL    HW215330   2.840   5.161   2.707  0.2880 -0.2236  1.1868
 1666SOL     OW15331   4.511   3.552   1.085 -0.0958 -0.6426 -0.1425
 1666SOL    HW115332   4.598   3.563   1.037  0.1603  0.6740  0.5933
 1666SOL    HW215333   4.502   3.623   1.155 -1.5346 -1.0768  0.1409
 1667SOL     OW15334   0.700   4.197   0.471 -0.1626  0.0432 -0.4351
 1667SOL    HW115335   0.789   4.166   0.505 -0.6770 -1.1943 -0.1607
 1667SOL    HW215336   0.652   4.120   0.429 -0.7344  0.9133 -1.3912
 1668SOL     OW15337   8.040   8.615   2.751  0.1234 -0.2998 -0.6531
 1668SOL    HW115338   8.036   8.618   2.851  0.2544  0.0618 -0.6565
 1668SOL    HW215339   8.058   8.522   2.721 -2.9720 -1.0176 -0.4569
 1669SOL     OW15340   9.763   4.980   2.614 -0.0229  0.1622 -0.4603
 1669SOL    HW115341   9.709   5.064   2.621  1.4128  0.9775  1.1491
 1669SOL    HW215342   9.716   4.906   2.663 -0.7814  0.2689 -1.0142
 1670SOL     OW15343   8.764   9.508   1.640 -0.1599 -0.0809 -0.3764
 1670SOL    HW115344   8.665   9.504   1.629 -0.2296 -0.7504  0.5134
 1670SOL    HW215345   8.792   9.454   1.719  0.6077  2.5559  1.2373
 1671SOL     OW15346   2.436   3.604   1.824 -0.1189 -0.2303 -0.1185
 1671SOL    HW115347   2.372   3.622   1.899 -0.5272  0.6195 -0.6643
 1671SOL    HW215348   2.529   3.594   1.860 -0.1003  1.5898  0.3479
 1672SOL     OW15349   4.258   0.039   2.601  0.6917  0.2565 -0.5951
 1672SOL    HW115350   4.271   0.090   2.516 -4.2039  0.7539 -1.1419
 1672SOL    HW215351   4.224   0.100   2.672 -0.3131 -1.2082  0.2058
 1673SOL     OW15352   1.731   2.610   0.432 -0.1929 -0.6496  0.1035
 1673SOL    HW115353   1.768   2.589   0.523  0.3251  0.5093  0.1768
 1673SOL    HW215354   1.636   2.639   0.442  0.8061  2.6972  0.7168
 1674SOL     OW15355   3.082   2.200   1.272  0.4052  0.1481 -0.6595
 1674SOL    HW115356   3.005   2.224   1.331  0.3646 -0.5993 -0.3981
 1674SOL    HW215357   3.089   2.267   1.198  0.1111  0.7687 -0.1284
 1675SOL     OW15358   9.789   6.515   1.735  0.0666 -0.0941  0.5211
 1675SOL    HW115359   9.862   6.578   1.762  0.0213 -0.2488  1.0018
 1675SOL    HW215360   9.812   6.422   1.763  0.4118 -0.3930 -0.7199
 1676SOL     OW15361   2.037   2.311   0.455  0.3352  0.0493  0.0854
 1676SOL    HW115362   2.129   2.336   0.426  0.1815  0.4211 -0.0805
 1676SOL    HW215363   1.973   2.323   0.379  0.1941 -0.4749  0.1183
 1677SOL     OW15364   2.961   6.733   1.905 -0.1085  0.1067  0.0270
 1677SOL    HW115365   2.893   6.742   1.978  0.6873  1.0657  0.6586
 1677SOL    HW215366   2.938   6.654   1.848 -2.2716  0.9711 -0.3221
 1678SOL     OW15367   1.871   1.584   2.987 -0.1949 -1.0559  0.0089
 1678SOL    HW115368   1.887   1.609   2.892 -1.6356 -0.6963 -0.1449
 1678SOL    HW215369   1.932   1.508   3.012  0.1351 -1.2037 -1.2167
 1679SOL     OW15370   8.768   8.802   0.547 -0.5542 -0.2146  0.3846
 1679SOL    HW115371   8.846   8.748   0.580  0.0960 -0.0821 -0.9139
 1679SOL    HW215372   8.766   8.800   0.447 -2.4362 -0.5154  0.4215
 1680SOL     OW15373   0.413   5.912   1.645 -0.4281 -0.1568 -0.6669
 1680SOL    HW115374   0.344   5.877   1.581 -1.5471  0.3838  0.2232
 1680SOL    HW215375   0.371   5.981   1.705  0.8413  0.0360  0.0147
 1681SOL     OW15376   3.267   6.170   2.903 -0.1851 -0.4755 -0.0127
 1681SOL    HW115377   3.186   6.113   2.905 -2.3324  2.3671 -1.4265
 1681SOL    HW215378   3.307   6.168   2.811 -2.2753  2.7973 -1.1025
 1682SOL     OW15379   0.503   9.676   2.809 -0.7576 -0.0597 -0.4200
 1682SOL    HW115380   0.425   9.652   2.867 -0.6345  2.0896  0.6898
 1682SOL    HW215381   0.471   9.688   2.715 -1.6726  0.2484 -0.0839
 1683SOL     OW15382   9.345   4.604   1.437  0.6557 -0.3322  0.1421
 1683SOL    HW115383   9.408   4.636   1.366 -0.3770  0.0916 -0.5926
 1683SOL    HW215384   9.354   4.663   1.517  0.9991 -0.1009 -0.0640
 1684SOL     OW15385   0.105   4.653   2.876 -0.0084  0.3221  0.0471
 1684SOL    HW115386   0.131   4.645   2.972 -3.7575 -1.5112  1.0304
 1684SOL    HW215387   0.070   4.745   2.858  0.1527  0.4854  0.5800
 1685SOL     OW15388   9.428   1.777   3.165  0.6492  0.3943  0.4704
 1685SOL    HW115389   9.456   1.705   3.102  0.1491 -0.0218  0.7179
 1685SOL    HW215390   9.477   1.767   3.251  0.6343  0.3900  0.4783
 1686SOL     OW15391   9.699   8.534   1.217  0.4156 -0.4161  0.2193
 1686SOL    HW115392   9.741   8.528   1.126  0.3051  0.9568  0.0698
 1686SOL    HW215393   9.740   8.609   1.268 -1.9580  1.0938 -0.0078
 1687SOL     OW15394   9.855   6.686   2.952  0.4564  0.0151  0.6119
 1687SOL    HW115395   9.817   6.593   2.950  1.7772 -0.5152 -0.4310
 1687SOL    HW215396   9.795   6.747   2.900 -0.0173 -0.4120  0.6499
 1688SOL     OW15397   0.921   4.266   3.076  0.6530 -0.4483 -0.0503
 1688SOL    HW115398   0.897   4.338   3.010  0.1265  0.4518  1.1112
 1688SOL    HW215399   0.840   4.243   3.131  0.7043 -2.2180 -0.6633
 1689SOL     OW15400   9.493   3.348   2.621 -0.0353  0.0595  0.5404
 1689SOL    HW115401   9.464   3.264   2.667 -1.2935  0.0348 -0.2646
 1689SOL    HW215402   9.412   3.402   2.595  0.6910  0.7306 -0.4018
 1690SOL     OW15403   9.388   4.824   2.100 -0.4270 -0.4884 -0.7004
 1690SOL    HW115404   9.326   4.886   2.052  0.5874  1.4752  0.4873
 1690SOL    HW215405   9.449   4.781   2.034  0.3007  1.4303 -1.3141
 1691SOL     OW15406   5.484   8.480   2.622 -0.6250 -0.3052 -0.2606
 1691SOL    HW115407   5.389   8.472   2.651 -0.6634 -0.6965 -0.4815
 1691SOL    HW215408   5.531   8.393   2.641  0.2590  0.6031  1.9003
 1692SOL     OW15409   8.649   8.674   2.832  0.2210  0.8347 -0.5028
 1692SOL    HW115410   8.668   8.577   2.820  0.0407  0.7581 -0.1815
 1692SOL    HW215411   8.686   8.705   2.919 -3.4408  0.0327  1.4638
 1693SOL     OW15412   9.663   9.737   3.026  0.2537  0.4441  0.3254
 1693SOL    HW115413   9.715   9.806   3.075 -0.3833  1.0383  0.1748
 1693SOL    HW215414   9.575   9.724   3.071 -0.0440  0.4750 -0.2466
 1694SOL     OW15415   0.517   2.155   3.357  0.0889  0.6492 -0.4036
 1694SOL    HW115416   0.531   2.089   3.431 -0.2398  1.8080  0.7233
 1694SOL    HW215417   0.590   2.146   3.289 -0.4163 -1.4392 -0.7167
 1695SOL     OW15418   4.281   1.335   3.056  0.2108 -0.3573  0.0610
 1695SOL    HW115419   4.185   1.317   3.036 -0.1913  0.9745  0.7506
 1695SOL    HW215420   4.310   1.278   3.133 -1.1742  2.1188  2.5039
 1696SOL     OW15421   7.804   9.830   3.299  0.3097 -0.1221 -1.0568
 1696SOL    HW115422   7.899   9.803   3.286  0.3746 -0.3798 -0.0602
 1696SOL    HW215423   7.767   9.785   3.381 -0.0535  1.5865 -0.2561
 1697SOL     OW15424   1.821   0.114   0.963  0.8133 -0.3073 -0.4328
 1697SOL    HW115425   1.835   0.032   1.018 -0.2838  0.6326  1.3271
 1697SOL    HW215426   1.727   0.146   0.976  1.8390  2.4253  0.6364
 1698SOL     OW15427   9.282   0.894   2.311 -0.1731 -0.1599  0.0793
 1698SOL    HW115428   9.274   0.951   2.394 -0.0955  1.2933 -0.8935
 1698SOL    HW215429   9.318   0.804   2.336  0.9229  0.6477  1.4830
 1699SOL     OW15430   8.861   6.476   1.581  0.4886 -0.0799 -0.4860
 1699SOL    HW115431   8.896   6.443   1.668 -0.2171 -2.9959 -1.2433
 1699SOL    HW215432   8.917   6.552   1.549  1.2147  0.5214  2.1279
 1700SOL     OW15433   3.754   3.092   0.666  1.1535 -0.0551  0.0928
 1700SOL    HW115434   3.673   3.082   0.608  1.4237 -0.2126 -0.2637
 1700SOL    HW215435   3.795   3.002   0.681  1.3009  0.0328  0.2119
 1701SOL     OW15436   7.615   1.893   0.035  0.0941  0.3407  0.1066
 1701SOL    HW115437   7.647   1.830  -0.036 -0.0618  0.5123 -0.1160
 1701SOL    HW215438   7.516   1.906   0.025  0.5250  2.7239 -1.5132
 1702SOL     OW15439   0.375   8.413   0.466  0.0581  0.1841  0.5735
 1702SOL    HW115440   0.466   8.372   0.465  0.0477  0.1374  1.4670
 1702SOL    HW215441   0.315   8.361   0.404  0.7374  0.4663 -0.3357
 1703SOL     OW15442   9.648   9.034   2.485  0.1992 -0.4112 -0.4176
 1703SOL    HW115443   9.716   9.074   2.547  3.0496 -1.8757 -2.4518
 1703SOL    HW215444   9.595   8.965   2.533  0.8278  0.0688  0.9829
 1704SOL     OW15445   9.605   9.644   0.566  0.4141 -0.2867  0.7682
 1704SOL    HW115446   9.614   9.623   0.469 -1.4793  1.4887  0.1658
 1704SOL    HW215447   9.605   9.743   0.578  0.0456 -0.4837  2.5166
 1705SOL     OW15448   8.740   8.308   3.050 -0.0310 -0.1477  0.1536
 1705SOL    HW115449   8.769   8.344   2.961  0.3598  0.1690  0.4134
 1705SOL    HW215450   8.656   8.254   3.037 -0.3845  0.5036 -0.2956
 1706SOL     OW15451   0.840   6.065   0.596  0.8186  0.1422  0.1556
 1706SOL    HW115452   0.840   6.165   0.591  1.0321  0.1326 -0.0635
 1706SOL    HW215453   0.885   6.028   0.515  0.1241 -0.1531 -0.0991
 1707SOL     OW15454   2.807   4.269   2.263 -0.6047 -0.4868  0.2154
 1707SOL    HW115455   2.862   4.350   2.284  0.7746 -1.6506  1.1696
 1707SOL    HW215456   2.716   4.280   2.302 -0.1454  0.2297  1.0956
 1708SOL     OW15457   8.480   1.690   1.040  0.1521  0.7877  0.0302
 1708SOL    HW115458   8.398   1.661   1.089  0.2107 -0.4933 -0.5883
 1708SOL    HW215459   8.459   1.697   0.942  0.8082  0.3012 -0.1476
 1709SOL     OW15460   1.783   3.207   1.649 -0.1364  0.4097  0.6655
 1709SOL    HW115461   1.787   3.124   1.705  0.3771 -0.8781 -1.2043
 1709SOL    HW215462   1.768   3.287   1.707 -0.7609 -1.0140  2.4900
 1710SOL     OW15463   8.595   6.066   0.287 -0.2601  0.0539  0.2374
 1710SOL    HW115464   8.557   6.112   0.367  0.9662 -2.0359  2.0614
 1710SOL    HW215465   8.521   6.040   0.225 -1.2227  1.6201  0.7055
 1711SOL     OW15466   0.103   2.775   2.479  0.2665  0.2639  0.7325
 1711SOL    HW115467   0.039   2.844   2.514 -2.3508 -1.4667 -0.4942
 1711SOL    HW215468   0.129   2.798   2.385  0.6377  0.3969  0.8655
 1712SOL     OW15469   2.833   3.830   2.474 -0.2364 -0.4333  0.3635
 1712SOL    HW115470   2.860   3.912   2.423 -1.2835 -0.3608 -0.0985
 1712SOL    HW215471   2.735   3.835   2.494 -0.3750 -1.7366  0.0346
 1713SOL     OW15472   1.357   0.862   2.741  0.0135 -0.5681 -0.5074
 1713SOL    HW115473   1.311   0.775   2.722 -3.7249  1.2577 -0.3478
 1713SOL    HW215474   1.329   0.929   2.673  2.8552  0.5673 -0.6274
 1714SOL     OW15475   1.561   8.883   1.616  0.3308 -0.2986  0.9149
 1714SOL    HW115476   1.650   8.838   1.613 -0.0279 -0.9379 -1.3811
 1714SOL    HW215477   1.491   8.817   1.645  0.0985 -0.7713 -0.6418
 1715SOL     OW15478   4.252   3.798   0.782  0.3669 -0.1691 -0.0011
 1715SOL    HW115479   4.216   3.795   0.689 -0.2174  3.4623  0.0309
 1715SOL    HW215480   4.342   3.756   0.784  0.9611  0.9062 -2.5120
 1716SOL     OW15481   4.493   9.147   1.610  0.0293 -0.4243 -0.8474
 1716SOL    HW115482   4.472   9.095   1.527  1.7888 -1.2028 -0.8252
 1716SOL    HW215483   4.522   9.239   1.585 -2.3164  0.3306 -0.9254
 1717SOL     OW15484   0.833   3.295   1.743 -0.3174 -0.3709  0.0872
 1717SOL    HW115485   0.822   3.362   1.669  0.2460 -0.1079  0.2438
 1717SOL    HW215486   0.746   3.287   1.793 -0.4882 -0.0176 -0.1481
 1718SOL     OW15487   2.166   2.329   2.621  0.3137 -0.4531  0.0123
 1718SOL    HW115488   2.237   2.267   2.654  0.8510 -0.5236 -1.2342
 1718SOL    HW215489   2.199   2.423   2.625 -0.1329 -0.3292  0.9608
 1719SOL     OW15490   0.893   0.607   1.188 -0.0401  0.3162  0.4462
 1719SOL    HW115491   0.834   0.687   1.188 -0.7935 -0.2341  1.9690
 1719SOL    HW215492   0.969   0.621   1.251 -0.8237 -0.6378  1.6105
 1720SOL     OW15493   2.914   8.688   3.353 -0.2347 -0.0909 -0.9334
 1720SOL    HW115494   2.895   8.770   3.408  1.4054 -0.7667  0.6968
 1720SOL    HW215495   3.011   8.665   3.359 -0.7331 -2.3881 -1.0221
 1721SOL     OW15496   0.407   9.369   0.256  0.1190  0.2757  0.1543
 1721SOL    HW115497   0.441   9.463   0.267 -0.2319  0.4907 -0.5528
 1721SOL    HW215498   0.414   9.343   0.159  0.2267 -0.4325  0.3502
 1722SOL     OW15499   4.143   0.057   3.156  0.1092  0.5932  0.4921
 1722SOL    HW115500   4.102  -0.034   3.169 -0.5003  0.3638 -2.5490
 1722SOL    HW215501   4.080   0.126   3.191 -1.8686  0.0840 -1.8626
 1723SOL     OW15502   1.637   6.134   1.642 -0.5078  0.1744  0.0783
 1723SOL    HW115503   1.648   6.042   1.678  1.7517  0.2880 -0.2491
 1723SOL    HW215504   1.611   6.196   1.716 -0.3351 -0.4130  0.6320
 1724SOL     OW15505   9.430   5.007   2.807  0.8105 -0.1498  0.0386
 1724SOL    HW115506   9.456   5.104   2.811  1.4533 -0.3623  1.1845
 1724SOL    HW215507   9.331   5.000   2.795  0.6454  0.6623  0.8721
 1725SOL     OW15508   2.008   0.263   3.413  0.1767 -0.2974  0.2186
 1725SOL    HW115509   2.010   0.165   3.391 -0.4779 -0.0549 -0.9569
 1725SOL    HW215510   2.089   0.308   3.376 -0.7503  0.0473 -1.4085
 1726SOL     OW15511   3.041   9.949   0.169 -0.1764 -0.1169  0.5256
 1726SOL    HW115512   2.952   9.994   0.162 -0.9420 -1.5888  0.6702
 1726SOL    HW215513   3.111  10.017   0.190 -1.1728  1.1365 -0.1770
 1727SOL     OW15514   0.721   0.804   2.633 -0.6168  0.3124 -0.7316
 1727SOL    HW115515   0.740   0.710   2.604 -2.0941 -0.5098  0.8407
 1727SOL    HW215516   0.764   0.821   2.721  1.3505  1.8073 -1.9499
 1728SOL     OW15517   4.277   4.398   1.677  0.5626 -0.6228  0.5598
 1728SOL    HW115518   4.315   4.325   1.620  0.5450 -0.0086 -0.2406
 1728SOL    HW215519   4.272   4.483   1.625  0.3640 -0.0963  1.4162
 1729SOL     OW15520   8.426   6.000   0.025  0.5730  0.1501  0.2177
 1729SOL    HW115521   8.442   5.971  -0.070 -3.5751 -0.5047 -0.3646
 1729SOL    HW215522   8.409   6.098   0.027  1.1606  0.2510  0.3678
 1730SOL     OW15523   1.180   4.946   0.550 -0.0234 -0.1923  0.0842
 1730SOL    HW115524   1.147   4.899   0.632 -1.3333  0.9494  0.2223
 1730SOL    HW215525   1.109   5.007   0.516  1.6997  1.8062 -0.0191
 1731SOL     OW15526   2.883   7.269   1.647 -0.2574  0.3032  0.1135
 1731SOL    HW115527   2.861   7.212   1.568  0.9134  0.5554 -0.4080
 1731SOL    HW215528   2.939   7.217   1.712  2.1816  1.3067 -1.1118
 1732SOL     OW15529   3.347   1.277   2.831 -0.0297 -0.7241  0.0336
 1732SOL    HW115530   3.406   1.249   2.756 -0.7992 -2.3195  0.0000
 1732SOL    HW215531   3.401   1.285   2.915  0.8823  1.3334 -0.7119
 1733SOL     OW15532   9.016   1.745   1.693 -0.0964 -0.0387 -1.2659
 1733SOL    HW115533   9.084   1.773   1.625 -0.3609 -0.2797 -1.6308
 1733SOL    HW215534   8.946   1.688   1.649 -0.7369  0.5162 -0.9657
 1734SOL     OW15535   1.527   5.914   0.196 -0.2046 -0.1001 -0.0699
 1734SOL    HW115536   1.456   5.984   0.180 -0.5747 -0.5035 -0.2006
 1734SOL    HW215537   1.550   5.912   0.293  1.3177  1.6580 -0.3767
 1735SOL     OW15538   0.066   3.229   0.056  0.0098 -0.0384  0.1007
 1735SOL    HW115539   0.127   3.229   0.136 -1.2001  1.1456  1.0358
 1735SOL    HW215540   0.007   3.149   0.059  0.6556 -0.5293 -0.1483
 1736SOL     OW15541   2.587   8.077   3.199  0.2411  0.3659 -0.3884
 1736SOL    HW115542   2.604   8.050   3.104  0.7686 -0.0751 -0.1723
 1736SOL    HW215543   2.536   8.005   3.246 -2.2868  1.6740 -1.0268
 1737SOL     OW15544   8.600   1.615   2.939  0.0044  0.2943 -0.2911
 1737SOL    HW115545   8.646   1.690   2.987 -0.8252  0.1872  0.6779
 1737SOL    HW215546   8.558   1.553   3.005 -0.5116 -0.2656 -1.1283
 1738SOL     OW15547   3.287   1.542   2.868 -0.2806 -0.3414  0.2491
 1738SOL    HW115548   3.302   1.445   2.847 -1.6057 -0.9097  1.8095
 1738SOL    HW215549   3.355   1.572   2.936 -0.9137 -0.6318  1.0132
 1739SOL     OW15550   9.603   5.703   1.053 -0.6724  0.2390  0.2853
 1739SOL    HW115551   9.695   5.722   1.021 -1.0216 -0.9860 -1.4822
 1739SOL    HW215552   9.605   5.679   1.150  1.0963 -1.7559 -0.2354
 1740SOL     OW15553   3.201   5.527   3.289 -0.6165  0.1063 -0.1174
 1740SOL    HW115554   3.169   5.614   3.327 -0.8459 -0.1718  0.3335
 1740SOL    HW215555   3.128   5.487   3.233  0.0453  0.9618 -1.6263
 1741SOL     OW15556   7.881   9.396   1.748  0.8427  0.3233 -0.7946
 1741SOL    HW115557   7.966   9.404   1.695  0.6602  0.5891 -1.0436
 1741SOL    HW215558   7.904   9.372   1.843  1.2088  0.5713 -0.8160
 1742SOL     OW15559   4.461   0.714   0.910  0.0826  0.3171  0.5116
 1742SOL    HW115560   4.441   0.731   0.814 -1.8247 -0.9965  0.6466
 1742SOL    HW215561   4.402   0.771   0.967 -0.9208 -1.0962  0.9051
 1743SOL     OW15562   0.591   3.786   0.277  0.7114  0.1457  0.0560
 1743SOL    HW115563   0.561   3.869   0.324  0.4292  0.6143 -0.9497
 1743SOL    HW215564   0.690   3.775   0.289  0.7349  0.5707  0.2568
 1744SOL     OW15565   9.902   2.953   2.515 -0.7502 -0.1957 -0.0994
 1744SOL    HW115566   9.873   3.046   2.536  1.2364  0.6388 -0.9066
 1744SOL    HW215567   9.863   2.925   2.427  1.6644  1.3522 -1.7478
 1745SOL     OW15568   4.521   1.330   2.617  0.1852  0.2937  0.1839
 1745SOL    HW115569   4.489   1.258   2.555 -0.3806  0.6433  0.0548
 1745SOL    HW215570   4.561   1.405   2.563  1.5615 -0.2988  0.3682
 1746SOL     OW15571   2.834   0.172   1.098 -0.1945  0.6315 -0.3248
 1746SOL    HW115572   2.793   0.194   1.187  0.7193  1.9560 -0.2088
 1746SOL    HW215573   2.933   0.190   1.102  0.1641 -1.0391 -1.0591
 1747SOL     OW15574   3.184   9.005   1.267  0.4097  0.5985 -0.0786
 1747SOL    HW115575   3.091   9.037   1.283  0.1997  0.1468 -0.3930
 1747SOL    HW215576   3.248   9.062   1.319 -0.0412  0.8921  0.1593
 1748SOL     OW15577   9.554   9.278   2.411 -0.7848 -0.3848 -0.1331
 1748SOL    HW115578   9.584   9.184   2.425  0.7708  0.2362  0.7209
 1748SOL    HW215579   9.604   9.339   2.472  0.4749  1.3861 -2.8693
 1749SOL     OW15580   8.854   1.182   2.913 -0.0097  0.0355  0.3324
 1749SOL    HW115581   8.842   1.215   2.820 -1.0453 -0.5411  0.2480
 1749SOL    HW215582   8.818   1.249   2.977 -0.1283  0.0317  0.2701
 1750SOL     OW15583   9.626   3.197   2.988 -0.0023  0.7707  0.4230
 1750SOL    HW115584   9.704   3.145   3.021 -0.9922 -0.9577  0.0776
 1750SOL    HW215585   9.652   3.249   2.907  0.9267  0.6284  0.6288
 1751SOL     OW15586   9.490   4.605   0.986 -0.0825  0.0154  0.4730
 1751SOL    HW115587   9.471   4.603   0.888  0.3056 -0.6029  0.4041
 1751SOL    HW215588   9.521   4.514   1.015 -2.1492 -0.3589  1.5582
 1752SOL     OW15589   3.825   4.910   1.243 -0.3016 -0.0221  0.6390
 1752SOL    HW115590   3.751   4.868   1.191  0.4543  0.7878 -1.1267
 1752SOL    HW215591   3.905   4.851   1.243 -0.2465  0.0500  0.7547
 1753SOL     OW15592   8.028   4.175   0.689  0.1568  0.0530  0.1182
 1753SOL    HW115593   7.971   4.156   0.609 -0.5291  0.1004  0.5872
 1753SOL    HW215594   7.983   4.140   0.771  1.1103 -0.4708  0.4181
 1754SOL     OW15595   9.495   2.556   2.718  0.3276  0.0914  0.0899
 1754SOL    HW115596   9.578   2.501   2.720 -0.4691 -1.0985  1.4526
 1754SOL    HW215597   9.509   2.638   2.774  0.4878 -0.2705  0.5896
 1755SOL     OW15598   0.062   5.905   2.556  0.3678 -0.8016  0.0127
 1755SOL    HW115599   0.059   5.896   2.656  0.2192 -0.3420  0.0487
 1755SOL    HW215600   0.001   5.838   2.515 -0.1555 -0.4813  0.2616
 1756SOL     OW15601   9.629   5.663   1.325  0.0103  0.1282  0.5500
 1756SOL    HW115602   9.615   5.761   1.340 -2.6364 -0.0863 -0.4210
 1756SOL    HW215603   9.580   5.611   1.395  2.8410 -0.5342  2.1483
 1757SOL     OW15604   8.787   5.820   3.152 -0.0504 -0.1594 -0.0719
 1757SOL    HW115605   8.786   5.746   3.085  1.7112  0.3242 -0.6665
 1757SOL    HW215606   8.871   5.815   3.206 -1.1804 -0.1898  1.7148
 1758SOL     OW15607   0.736   2.449   3.259 -0.1027  0.1125  0.1431
 1758SOL    HW115608   0.730   2.350   3.247  2.4873 -0.1455  0.5423
 1758SOL    HW215609   0.698   2.475   3.348 -1.0439 -0.4714 -0.0863
 1759SOL     OW15610   2.393   9.358   1.230  0.3781  0.1791 -0.4574
 1759SOL    HW115611   2.434   9.330   1.144  1.9354 -0.1126  0.3563
 1759SOL    HW215612   2.464   9.364   1.301 -1.2065 -2.0980  1.4271
 1760SOL     OW15613   1.458   0.433   0.249 -0.0577 -0.0872 -0.1044
 1760SOL    HW115614   1.471   0.490   0.167 -0.1898  0.8011  0.4878
 1760SOL    HW215615   1.546   0.394   0.276 -0.3324 -1.9655 -1.7949
 1761SOL     OW15616   2.322   3.265   0.880  0.4544  1.3315 -0.3342
 1761SOL    HW115617   2.244   3.306   0.928  0.6196  2.5334 -1.0616
 1761SOL    HW215618   2.291   3.184   0.830  0.4148 -0.3097  2.2858
 1762SOL     OW15619   5.174   8.371   1.875 -0.0580 -0.6994  0.1975
 1762SOL    HW115620   5.162   8.464   1.910  1.1052 -1.2546  2.1894
 1762SOL    HW215621   5.190   8.309   1.952 -0.5802 -2.5118 -1.1251
 1763SOL     OW15622   8.829   0.705   2.664  0.7273 -0.0512 -0.6689
 1763SOL    HW115623   8.762   0.759   2.613 -0.6536 -1.8493 -0.7952
 1763SOL    HW215624   8.920   0.722   2.626  0.1114  0.9494 -1.7544
 1764SOL     OW15625   0.082   9.236   1.789 -0.3718  0.0355  0.0662
 1764SOL    HW115626   0.086   9.300   1.713 -1.1389 -0.4721 -0.4123
 1764SOL    HW215627   0.035   9.278   1.866  1.3787  0.9386  0.6617
 1765SOL     OW15628   7.430   0.518   3.318  0.5586 -0.3658 -0.2321
 1765SOL    HW115629   7.349   0.483   3.365  1.0299 -0.3205  0.6274
 1765SOL    HW215630   7.471   0.592   3.372  2.1003 -1.4803  0.1811
 1766SOL     OW15631   0.389   3.522   2.578 -0.1975  0.4405  0.0541
 1766SOL    HW115632   0.462   3.475   2.528 -1.0197 -3.3073  2.2095
 1766SOL    HW215633   0.425   3.608   2.615  2.5207 -0.3048 -0.6822
 1767SOL     OW15634   8.200   1.363   1.357 -0.6778 -0.2362 -0.1502
 1767SOL    HW115635   8.195   1.434   1.287  0.9983 -0.8726 -0.9380
 1767SOL    HW215636   8.160   1.278   1.321  0.5127 -0.6657 -0.4734
 1768SOL     OW15637   2.313   1.376   0.510 -0.4970  0.5526 -0.2921
 1768SOL    HW115638   2.301   1.280   0.535 -0.1023  0.7711  0.7607
 1768SOL    HW215639   2.224   1.418   0.492 -1.1351  1.1873  3.7670
 1769SOL     OW15640   1.110   0.330   0.985 -0.3270  0.3467  0.2539
 1769SOL    HW115641   1.180   0.333   0.913  1.2367  1.2590  1.7799
 1769SOL    HW215642   1.098   0.236   1.016  0.6701  0.2609  0.3912
 1770SOL     OW15643   2.819   5.781   1.290 -0.6311  0.1239 -0.5676
 1770SOL    HW115644   2.851   5.863   1.241  1.9532 -1.2688 -1.2890
 1770SOL    HW215645   2.844   5.789   1.387 -1.6907  0.8313 -0.3442
 1771SOL     OW15646   7.946   1.750   3.018  0.0804  0.4426 -0.7528
 1771SOL    HW115647   8.008   1.733   3.095  0.1911 -1.1061 -1.1742
 1771SOL    HW215648   7.898   1.666   2.995 -1.4254  1.3884 -1.1019
 1772SOL     OW15649   0.297   8.780   1.759 -0.3387 -0.1110  0.1078
 1772SOL    HW115650   0.384   8.771   1.710  0.0383  1.4153  0.4548
 1772SOL    HW215651   0.282   8.699   1.816  1.3289  0.0167  0.7674
 1773SOL     OW15652   1.623   2.935   1.001  0.2170  0.3734  0.1688
 1773SOL    HW115653   1.665   2.844   0.998 -0.5627 -0.0473  1.6855
 1773SOL    HW215654   1.674   2.997   0.941  0.8562 -1.0110 -0.7444
 1774SOL     OW15655   2.638   1.479   3.201 -0.0404  0.4616  0.2543
 1774SOL    HW115656   2.631   1.578   3.214 -0.4422  0.5653 -0.7506
 1774SOL    HW215657   2.718   1.458   3.146 -0.1142  0.2426  0.2318
 1775SOL     OW15658   0.195   2.579   0.625 -0.5356 -0.1230 -0.0662
 1775SOL    HW115659   0.121   2.636   0.658 -1.1282  0.0423 -1.6442
 1775SOL    HW215660   0.211   2.505   0.690 -0.7255  0.9950  1.2713
 1776SOL     OW15661   7.219   9.218   2.910 -0.0567 -0.5997 -0.5586
 1776SOL    HW115662   7.251   9.181   2.823 -0.7696 -0.4276 -0.8953
 1776SOL    HW215663   7.238   9.153   2.983 -0.7970 -1.3785 -1.0610
 1777SOL     OW15664   0.571   7.633   3.181 -0.0234 -0.0378  0.1998
 1777SOL    HW115665   0.603   7.594   3.094 -0.5201 -0.7279  0.3242
 1777SOL    HW215666   0.489   7.585   3.211  0.9445 -0.7310  1.7680
 1778SOL     OW15667   4.247   3.806   1.992  0.7526 -0.0580  0.2397
 1778SOL    HW115668   4.154   3.774   1.974  0.7261 -0.4603  1.0688
 1778SOL    HW215669   4.243   3.896   2.036  0.7836  0.3532 -0.5946
 1779SOL     OW15670   4.600   9.927   1.448  0.1266 -0.3371  0.3911
 1779SOL    HW115671   4.509   9.886   1.437  0.4221 -0.9775  0.3239
 1779SOL    HW215672   4.590  10.026   1.457 -0.6763 -0.5189  1.6061
 1780SOL     OW15673   8.459   0.969   1.887  0.1714 -0.4763 -0.3432
 1780SOL    HW115674   8.501   0.912   1.818  0.4784  0.7121 -1.1470
 1780SOL    HW215675   8.522   0.981   1.964  0.6115 -0.1649 -0.7482
 1781SOL     OW15676   4.247   9.463   2.787  0.7475  0.0810 -0.6034
 1781SOL    HW115677   4.231   9.377   2.738 -0.7946  0.0740 -0.1098
 1781SOL    HW215678   4.249   9.538   2.721 -5.5153  0.6324 -0.4261
 1782SOL     OW15679   9.957   3.908   1.622  0.2391 -0.9156  0.4944
 1782SOL    HW115680   9.868   3.889   1.580  0.8136 -2.9105  0.1069
 1782SOL    HW215681  10.022   3.936   1.551 -0.6399  2.8075  1.0848
 1783SOL     OW15682   1.368   4.494   2.252  0.5322 -0.3088 -0.2810
 1783SOL    HW115683   1.334   4.528   2.340  0.9311  1.6758 -0.8636
 1783SOL    HW215684   1.407   4.403   2.265  1.2090  0.2304  1.7541
 1784SOL     OW15685   0.402   9.785   1.697  0.8477 -0.0210  0.3855
 1784SOL    HW115686   0.410   9.884   1.709 -0.4697  0.4427 -2.1525
 1784SOL    HW215687   0.487   9.748   1.660  0.2120  0.7198 -1.8580
 1785SOL     OW15688   3.348   4.303   1.217 -0.6078 -0.4697  0.0590
 1785SOL    HW115689   3.323   4.400   1.218  0.1687 -0.2670 -0.0482
 1785SOL    HW215690   3.265   4.247   1.220 -1.0383  0.1979  0.6594
 1786SOL     OW15691   1.848   2.426   0.628  0.5715 -0.0916  0.4278
 1786SOL    HW115692   1.891   2.461   0.711  1.9895  0.4934 -0.5386
 1786SOL    HW215693   1.918   2.406   0.559 -0.6011 -0.2737 -0.7375
 1787SOL     OW15694   2.326   4.267   1.943  0.3863 -0.7245 -0.0683
 1787SOL    HW115695   2.372   4.258   2.032  0.0338 -1.1192  0.0741
 1787SOL    HW215696   2.361   4.197   1.881 -0.5292 -1.4657  0.2549
 1788SOL     OW15697   1.275   6.490   1.816  0.0056 -0.3156  0.6216
 1788SOL    HW115698   1.176   6.501   1.825  0.2597  0.6819  2.5192
 1788SOL    HW215699   1.297   6.393   1.811 -1.0133 -0.5727  0.9731
 1789SOL     OW15700   9.594   4.426   2.476  0.1361 -0.2480 -0.2314
 1789SOL    HW115701   9.653   4.492   2.522 -1.6158  0.2873  1.3148
 1789SOL    HW215702   9.592   4.341   2.529  0.0441 -0.4985 -0.6360
 1790SOL     OW15703   9.473   0.389   3.383  0.0072 -0.2412 -0.0314
 1790SOL    HW115704   9.402   0.441   3.335  1.6443 -0.1114 -2.4480
 1790SOL    HW215705   9.538   0.453   3.425  1.1698 -0.2951 -1.6967
 1791SOL     OW15706   4.820   2.944   1.430 -0.0308 -0.0856 -0.8654
 1791SOL    HW115707   4.874   2.934   1.514 -1.2991 -0.3389 -0.0623
 1791SOL    HW215708   4.733   2.988   1.452 -0.6261 -0.7054 -1.9518
 1792SOL     OW15709   3.479   8.800   3.078  0.6946  0.3260 -0.3071
 1792SOL    HW115710   3.494   8.702   3.066 -0.4860 -0.0536  1.2024
 1792SOL    HW215711   3.443   8.818   3.170  2.9206  2.4042  0.2202
 1793SOL     OW15712   2.432   4.158   2.941  0.3506 -0.1074  0.0941
 1793SOL    HW115713   2.506   4.213   2.902  1.0793 -0.3073  1.1932
 1793SOL    HW215714   2.359   4.147   2.873  1.0949  0.5308 -0.8076
 1794SOL     OW15715   8.426   0.748   2.891  1.0626  0.0699  0.0471
 1794SOL    HW115716   8.403   0.835   2.848 -0.6087 -0.0062  0.7627
 1794SOL    HW215717   8.350   0.684   2.878  1.2516 -0.4910  1.6495
 1795SOL     OW15718   9.444   5.881   0.453  0.0142 -0.7589 -0.5007
 1795SOL    HW115719   9.507   5.805   0.437  0.2783 -0.3226 -1.6010
 1795SOL    HW215720   9.448   5.945   0.376 -2.0703 -0.9212 -0.7809
 1796SOL     OW15721   0.029   8.797   1.559 -0.1064  0.1001  0.6173
 1796SOL    HW115722   0.126   8.777   1.544 -0.1505  0.0436  0.4214
 1796SOL    HW215723   0.013   8.896   1.548 -0.3127 -0.0656 -0.6068
 1797SOL     OW15724   3.781   2.844   2.228 -0.5966 -0.3829 -0.0722
 1797SOL    HW115725   3.865   2.898   2.233  0.1944 -1.5809 -0.0415
 1797SOL    HW215726   3.702   2.903   2.240  0.2482  0.7647 -0.1025
 1798SOL     OW15727   2.975   2.513   3.051  0.9679 -0.0063  0.0273
 1798SOL    HW115728   3.063   2.545   3.086  0.2956 -0.2286  1.9796
 1798SOL    HW215729   2.905   2.525   3.121 -0.8610  1.4987 -2.0056
 1799SOL     OW15730   3.505   7.403   0.756 -0.6247  0.0370  0.2646
 1799SOL    HW115731   3.464   7.463   0.688 -2.0103  1.3112  2.1607
 1799SOL    HW215732   3.442   7.328   0.777 -0.8175  0.4254  1.1206
 1800SOL     OW15733   8.823   8.044   3.377 -0.1310 -0.0212  0.2795
 1800SOL    HW115734   8.910   8.079   3.341 -1.6993  2.2827 -1.4135
 1800SOL    HW215735   8.782   7.982   3.311 -0.4246 -0.0427  0.4815
 1801SOL     OW15736   2.447   9.200   1.565  0.5156  0.0000  0.0843
 1801SOL    HW115737   2.526   9.144   1.587  1.5051  1.1631 -0.4213
 1801SOL    HW215738   2.368   9.142   1.546  1.3309 -1.1749  0.2788
 1802SOL     OW15739   9.026   3.283   0.018 -0.4094  0.2868  0.4475
 1802SOL    HW115740   9.117   3.288  -0.024 -0.4847  2.7903  0.5272
 1802SOL    HW215741   9.027   3.212   0.089  0.6528 -1.6734 -1.4608
 1803SOL     OW15742   3.976   2.272   0.264  0.1072  0.3794 -0.1043
 1803SOL    HW115743   3.965   2.205   0.338 -1.7040 -0.4765 -1.1126
 1803SOL    HW215744   3.986   2.364   0.304  4.0312 -0.5729  1.3410
 1804SOL     OW15745   3.017   4.853   1.217  0.1973 -0.5035  0.2150
 1804SOL    HW115746   2.941   4.787   1.220  0.3624 -0.7115 -0.1210
 1804SOL    HW215747   3.044   4.876   1.310 -0.3006 -0.4047  0.3360
 1805SOL     OW15748   4.052   0.654   2.453  0.5019 -0.2842 -0.4908
 1805SOL    HW115749   4.000   0.623   2.533  0.5099  1.2066  0.1010
 1805SOL    HW215750   4.003   0.629   2.369 -0.4605 -0.1407  0.0289
 1806SOL     OW15751   8.136   6.477   0.915  0.0934 -0.7225 -0.2398
 1806SOL    HW115752   8.063   6.416   0.943  0.6900 -1.5783 -0.5437
 1806SOL    HW215753   8.164   6.534   0.993 -1.7055  0.4613 -0.4388
 1807SOL     OW15754   0.787   5.544   0.894 -0.4356 -0.4217  0.4619
 1807SOL    HW115755   0.724   5.614   0.929 -0.2771 -0.3194  0.5453
 1807SOL    HW215756   0.829   5.496   0.971  0.6232  0.4342  0.4396
 1808SOL     OW15757   4.043   4.644   2.137  0.5137 -0.0339  0.2682
 1808SOL    HW115758   3.972   4.696   2.089  0.8610  1.6493  1.5519
 1808SOL    HW215759   4.088   4.582   2.072 -0.0600  1.0861 -1.2329
 1809SOL     OW15760   1.472   2.335   3.350 -0.3378  0.5216 -0.8132
 1809SOL    HW115761   1.497   2.431   3.339 -0.2439  0.4698 -1.0434
 1809SOL    HW215762   1.486   2.286   3.264  0.6230  0.0784 -0.4182
 1810SOL     OW15763   9.882   5.536   1.523 -0.3067 -0.2296  0.2484
 1810SOL    HW115764   9.839   5.603   1.584 -1.9698 -0.1346 -1.0084
 1810SOL    HW215765   9.925   5.583   1.446  1.1621 -0.4070  0.9338
 1811SOL     OW15766   3.867   5.222   2.473  0.1963 -1.0161  0.7184
 1811SOL    HW115767   3.785   5.217   2.530  1.1845 -0.9499  2.1692
 1811SOL    HW215768   3.869   5.143   2.411 -2.4858  0.5388 -1.4832
 1812SOL     OW15769   0.394   5.859   3.099  0.3986 -0.0352 -0.2789
 1812SOL    HW115770   0.359   5.785   3.042  2.3741  0.5297 -2.3346
 1812SOL    HW215771   0.352   5.945   3.072  0.5689  0.0805 -0.1778
 1813SOL     OW15772   0.361   3.728   1.368  0.0132 -0.2466  0.1746
 1813SOL    HW115773   0.420   3.660   1.413 -0.9695 -1.0096  0.3345
 1813SOL    HW215774   0.317   3.686   1.289 -3.3178 -0.9002  2.2760
 1814SOL     OW15775   8.773   2.616   1.378  0.3495  0.6782  0.7298
 1814SOL    HW115776   8.748   2.712   1.386 -0.7732  0.5620 -1.0938
 1814SOL    HW215777   8.842   2.605   1.307  0.2006  0.0905  0.6712
 1815SOL     OW15778   2.260   8.077   3.122  0.8310  0.9578  0.0233
 1815SOL    HW115779   2.285   8.082   3.025 -0.5739  1.3677 -0.3273
 1815SOL    HW215780   2.169   8.117   3.135  0.5560 -0.0681  1.3432
 1816SOL     OW15781   2.902   6.538   2.534  0.5307  0.2915  0.7257
 1816SOL    HW115782   2.941   6.482   2.461  2.1135 -0.2576  1.9376
 1816SOL    HW215783   2.874   6.627   2.498 -0.7174 -0.7704 -0.9495
 1817SOL     OW15784   8.746   1.794   2.663 -0.7559  0.4174 -0.5132
 1817SOL    HW115785   8.674   1.785   2.731 -1.3443 -0.9803 -1.2870
 1817SOL    HW215786   8.717   1.857   2.592 -0.8773  0.5083 -0.3831
 1818SOL     OW15787   0.580   4.719   3.417 -0.0547 -0.0282  0.3863
 1818SOL    HW115788   0.518   4.763   3.353 -1.6189 -0.2353  1.7302
 1818SOL    HW215789   0.613   4.786   3.483  2.5753  0.4734 -1.3567
 1819SOL     OW15790   3.023   6.834   3.255 -0.0072 -0.4637 -0.3151
 1819SOL    HW115791   2.934   6.861   3.218  0.3519 -0.2033 -0.9922
 1819SOL    HW215792   3.084   6.810   3.180  0.6892 -0.0583  0.1211
 1820SOL     OW15793   8.844   7.504   0.623  0.3290  0.0934 -0.2133
 1820SOL    HW115794   8.803   7.428   0.574 -1.5146 -0.0526  1.4662
 1820SOL    HW215795   8.810   7.590   0.585 -0.9467 -0.0152  0.6277
 1821SOL     OW15796   2.627   0.836   2.295 -0.7283 -0.3477  0.2649
 1821SOL    HW115797   2.647   0.856   2.199  1.1676  0.3433  0.7748
 1821SOL    HW215798   2.554   0.897   2.328  0.1055  0.9065 -0.1622
 1822SOL     OW15799   1.420   2.183   0.774  0.2797  0.3880 -0.7961
 1822SOL    HW115800   1.519   2.190   0.771  0.5156 -2.1162 -0.4075
 1822SOL    HW215801   1.379   2.270   0.747  2.5690  1.9040  0.4050
 1823SOL     OW15802   1.836   9.926   1.549 -0.4292  0.2566  0.1399
 1823SOL    HW115803   1.778   9.845   1.558 -1.6473  0.7865 -2.4591
 1823SOL    HW215804   1.779  10.008   1.560  0.2400  0.7764 -0.2573
 1824SOL     OW15805   1.555   4.725   1.911 -0.2997  0.3946  0.4762
 1824SOL    HW115806   1.551   4.726   2.011 -0.5310 -1.0397  0.4906
 1824SOL    HW215807   1.462   4.724   1.875 -0.2114 -0.1122  0.2636
 1825SOL     OW15808   1.035   2.019   3.067 -0.1724  0.7903 -0.3770
 1825SOL    HW115809   1.021   1.920   3.076  0.6195  0.7490  0.5391
 1825SOL    HW215810   1.103   2.036   2.995 -0.3409  0.6653 -0.5646
 1826SOL     OW15811   9.879   2.861   1.656 -0.3886  0.2151 -0.2499
 1826SOL    HW115812   9.809   2.835   1.590 -0.1230  0.4196 -0.6136
 1826SOL    HW215813   9.960   2.805   1.643 -0.5517 -0.1491  0.2947
 1827SOL     OW15814   3.911   9.116   2.346 -0.0673  0.2640 -0.0619
 1827SOL    HW115815   3.987   9.102   2.283  0.0972  2.2737 -0.3438
 1827SOL    HW215816   3.828   9.137   2.293 -0.5248 -0.6160  0.2977
 1828SOL     OW15817   1.286   1.061   1.572 -0.1431  0.0792 -0.2401
 1828SOL    HW115818   1.289   1.021   1.480  2.5511 -0.0111 -0.1702
 1828SOL    HW215819   1.321   0.995   1.638  1.2135  1.3273  0.3367
 1829SOL     OW15820   5.088   9.582   3.367 -0.0013 -0.0378 -0.0176
 1829SOL    HW115821   4.989   9.592   3.361 -0.1413 -1.1092  0.4453
 1829SOL    HW215822   5.129   9.670   3.392 -0.6215  1.0307 -2.5431
 1830SOL     OW15823   3.344   7.883   2.844  0.7176  0.2330  0.2342
 1830SOL    HW115824   3.312   7.877   2.749  0.9332 -0.9862  0.2276
 1830SOL    HW215825   3.439   7.852   2.849  0.5800 -0.0979  0.9044
 1831SOL     OW15826   9.191   8.323   2.610  0.2041 -0.3080 -0.0414
 1831SOL    HW115827   9.215   8.277   2.525  0.8765  1.0074 -0.5706
 1831SOL    HW215828   9.267   8.316   2.674 -0.1968 -1.0569  0.3645
 1832SOL     OW15829   8.930   2.692   0.334  0.7902 -0.3299 -0.3875
 1832SOL    HW115830   8.977   2.711   0.420  0.4135  1.5869 -0.5830
 1832SOL    HW215831   8.997   2.675   0.262  1.1469  0.2746 -0.1995
 1833SOL     OW15832   3.475   6.959   2.897 -0.3393  0.4016  0.0064
 1833SOL    HW115833   3.473   7.017   2.816  0.3852  1.1471  0.5119
 1833SOL    HW215834   3.381   6.949   2.932 -0.6536  0.0794 -0.9045
 1834SOL     OW15835   2.986   6.553   1.327 -0.4856 -0.3672  0.1370
 1834SOL    HW115836   2.889   6.577   1.325 -0.0657  1.3531 -0.5920
 1834SOL    HW215837   3.039   6.635   1.351  0.7976 -1.2465  0.3010
 1835SOL     OW15838   0.301   3.925   3.124  0.2890 -0.8132 -0.2203
 1835SOL    HW115839   0.213   3.886   3.096 -1.1248  1.8344  0.4145
 1835SOL    HW215840   0.325   4.000   3.063  0.4125  0.7250  1.6916
 1836SOL     OW15841   9.129   2.020   0.626  0.5564  0.3565  0.0230
 1836SOL    HW115842   9.164   1.928   0.643 -0.6246 -0.2452 -0.7395
 1836SOL    HW215843   9.186   2.066   0.558 -1.0008 -1.1982 -2.4115
 1837SOL     OW15844   4.103   0.949   0.492 -0.2133 -0.4743 -0.0877
 1837SOL    HW115845   4.034   0.970   0.424 -0.1135 -0.6084 -0.2308
 1837SOL    HW215846   4.133   1.033   0.538  0.0608 -0.3288 -0.5351
 1838SOL     OW15847   4.228   1.372   2.310 -0.1491 -0.3323 -0.6296
 1838SOL    HW115848   4.273   1.444   2.257 -2.1939  0.1028 -1.8441
 1838SOL    HW215849   4.274   1.285   2.293  0.8083  0.2598 -1.1174
 1839SOL     OW15850   9.755   7.478   2.035  0.5903  0.1656  0.0800
 1839SOL    HW115851   9.726   7.566   2.072  1.1392  0.9951 -1.4145
 1839SOL    HW215852   9.836   7.491   1.976 -0.2058 -1.1000 -1.3399
 1840SOL     OW15853   3.442   7.073   1.016 -0.1688 -1.1375  0.4183
 1840SOL    HW115854   3.378   7.025   1.077 -1.6014 -0.2359 -0.3562
 1840SOL    HW215855   3.487   7.006   0.957 -0.9123 -1.7123  0.4825
 1841SOL     OW15856   5.824   8.634   1.883  0.4214 -0.0245 -0.2688
 1841SOL    HW115857   5.731   8.661   1.908  1.2778  1.1652  1.7598
 1841SOL    HW215858   5.831   8.534   1.884 -0.6853 -0.1053  0.1252
 1842SOL     OW15859   0.341   0.993   1.688 -0.1660  0.2570 -0.1101
 1842SOL    HW115860   0.389   1.008   1.602  0.3898 -0.1641  0.1285
 1842SOL    HW215861   0.407   0.985   1.762 -0.5315 -1.6476  0.0244
 1843SOL     OW15862   0.544   6.791   0.096 -0.4782 -0.4000  0.2326
 1843SOL    HW115863   0.560   6.734   0.177 -0.6089  0.8606  1.1614
 1843SOL    HW215864   0.631   6.810   0.051 -0.0544  1.2345  1.6976
 1844SOL     OW15865   3.575   8.986   2.084 -0.1378  0.0585 -0.4983
 1844SOL    HW115866   3.554   8.982   1.987  0.7748 -2.6813 -0.6122
 1844SOL    HW215867   3.536   8.907   2.131  1.4033  0.1006  0.9383
 1845SOL     OW15868   8.367   2.641   3.276  0.1863  0.3864  0.3658
 1845SOL    HW115869   8.356   2.731   3.318  0.6448 -0.7852  3.1442
 1845SOL    HW215870   8.280   2.591   3.281 -0.2067  0.8412 -1.6355
 1846SOL     OW15871   0.370   4.725   1.039  0.1327 -0.8824 -0.4221
 1846SOL    HW115872   0.292   4.682   1.085 -0.0399 -0.3570 -0.2210
 1846SOL    HW215873   0.447   4.731   1.102 -0.0929 -0.1931 -0.2124
 1847SOL     OW15874   5.192   1.180   2.298  0.7693 -0.0383 -1.1549
 1847SOL    HW115875   5.219   1.219   2.387 -0.0631  1.5493 -1.5828
 1847SOL    HW215876   5.128   1.105   2.314  2.0842 -1.0126 -0.3330
 1848SOL     OW15877   2.861   0.037   1.574 -0.0827 -0.2853  0.3768
 1848SOL    HW115878   2.957   0.010   1.567  0.1138  0.1634  1.2367
 1848SOL    HW215879   2.803  -0.043   1.567  0.3356 -0.5035 -0.6314
 1849SOL     OW15880   9.083   7.726   1.435 -0.0949 -0.0121 -0.1946
 1849SOL    HW115881   9.006   7.684   1.386  0.1350  0.7288 -1.2129
 1849SOL    HW215882   9.141   7.774   1.369  0.5386  0.5103  0.7469
 1850SOL     OW15883   0.830   6.544   3.270 -0.2906 -0.2396  0.2033
 1850SOL    HW115884   0.792   6.497   3.191  3.6939  1.1609 -2.7744
 1850SOL    HW215885   0.844   6.480   3.345  0.0737 -2.6385 -1.8688
 1851SOL     OW15886   2.345   1.761   0.908  0.4617  0.6172  0.3833
 1851SOL    HW115887   2.407   1.729   0.980 -1.0524 -0.5717  1.1977
 1851SOL    HW215888   2.298   1.683   0.868 -1.0645  1.5630  0.3004
 1852SOL     OW15889   2.853   3.287   2.212 -0.4321 -0.3159 -0.2726
 1852SOL    HW115890   2.951   3.265   2.215 -0.0307  1.4927  0.6275
 1852SOL    HW215891   2.810   3.237   2.137  0.6522 -3.1261  0.8897
 1853SOL     OW15892   2.380   6.703   1.507  0.9221  0.0715 -0.1807
 1853SOL    HW115893   2.318   6.762   1.455  0.5936  2.1505  2.4725
 1853SOL    HW215894   2.341   6.685   1.597  2.2602 -2.0833  0.0010
 1854SOL     OW15895   2.341   0.946   1.497 -0.0049 -0.1440 -0.1835
 1854SOL    HW115896   2.355   1.022   1.434  0.5714  1.2887  1.6151
 1854SOL    HW215897   2.243   0.925   1.502 -0.5137  2.2759  1.2715
 1855SOL     OW15898   3.122   1.386   0.939 -0.1741 -0.1074 -0.1017
 1855SOL    HW115899   3.036   1.432   0.914 -1.1369 -0.3845  2.5295
 1855SOL    HW215900   3.199   1.441   0.907 -1.2715 -0.4710 -3.6179
 1856SOL     OW15901   9.194   1.754   1.493 -0.0426  0.2426 -0.0100
 1856SOL    HW115902   9.246   1.839   1.495 -0.1621  0.3177 -0.0538
 1856SOL    HW215903   9.257   1.676   1.495  0.0392  0.3196  1.2443
 1857SOL     OW15904   4.012   3.478   1.518  0.0743  0.3084  0.3964
 1857SOL    HW115905   3.964   3.556   1.479 -0.7622 -0.4281 -0.0597
 1857SOL    HW215906   4.061   3.429   1.445 -1.1282 -0.8098  0.3346
 1858SOL     OW15907   4.473   0.094   0.916  0.8498 -0.1700 -0.0603
 1858SOL    HW115908   4.534   0.103   0.995  0.1936  0.4784  0.3752
 1858SOL    HW215909   4.504   0.155   0.843 -0.3276  1.5517  0.8354
 1859SOL     OW15910   8.405   9.341   1.693  0.2837  0.0575 -0.1635
 1859SOL    HW115911   8.410   9.384   1.783  2.6978  0.0248 -0.2550
 1859SOL    HW215912   8.388   9.410   1.623 -1.0699  0.1499  0.2282
 1860SOL     OW15913   8.593   7.213   3.140  0.1893 -0.1509  0.4205
 1860SOL    HW115914   8.592   7.209   3.240 -0.3495  0.0321  0.4232
 1860SOL    HW215915   8.685   7.234   3.108  0.5603 -1.0875  0.8479
 1861SOL     OW15916   1.692   9.379   2.651 -0.4018  0.1858  0.1711
 1861SOL    HW115917   1.594   9.360   2.652 -0.0414 -1.8811  3.0707
 1861SOL    HW215918   1.736   9.319   2.585 -0.9636  0.2907 -0.3024
 1862SOL     OW15919   1.116   8.922   2.482 -0.3199 -0.4663 -0.7130
 1862SOL    HW115920   1.025   8.946   2.518 -0.5432 -0.9734 -0.9328
 1862SOL    HW215921   1.110   8.837   2.431  0.6105 -1.3702  0.6567
 1863SOL     OW15922   8.525   3.098   1.378 -0.4342 -0.2627 -0.0254
 1863SOL    HW115923   8.545   3.188   1.418  1.0056 -0.5050 -0.1733
 1863SOL    HW215924   8.521   3.029   1.450 -0.3902 -0.2706 -0.0308
 1864SOL     OW15925   0.197   8.456   2.337 -0.2182 -0.3162 -0.5459
 1864SOL    HW115926   0.234   8.366   2.357  2.3871  0.6534 -0.7216
 1864SOL    HW215927   0.237   8.523   2.399 -1.0417  0.9291 -1.3304
 1865SOL     OW15928   3.639   7.653   3.100  0.6424  0.2653  0.2141
 1865SOL    HW115929   3.643   7.641   3.001 -0.0561 -1.0474  0.3224
 1865SOL    HW215930   3.694   7.582   3.144  0.4695  0.4787  0.7778
 1866SOL     OW15931   9.872   0.954   1.615 -0.5293 -1.1088 -0.4790
 1866SOL    HW115932   9.968   0.937   1.593 -0.3821  0.3863 -1.1131
 1866SOL    HW215933   9.828   0.999   1.537 -1.3856 -0.5380  0.3260
 1867SOL     OW15934   1.508   1.501   0.368 -0.3289  0.2610  0.0039
 1867SOL    HW115935   1.506   1.492   0.269  0.7034  1.5971 -0.1543
 1867SOL    HW215936   1.598   1.473   0.402 -1.6026 -2.9992  0.8832
 1868SOL     OW15937   1.818   9.917   1.232 -0.5090 -0.3610 -0.3464
 1868SOL    HW115938   1.859   9.838   1.186  1.1184 -1.4466  2.7756
 1868SOL    HW215939   1.756   9.884   1.304 -3.0042  1.2745 -1.6765
 1869SOL     OW15940   3.075   3.721   0.920  0.6392 -0.0438 -0.3997
 1869SOL    HW115941   3.128   3.668   0.986 -0.3603 -1.6562 -0.8449
 1869SOL    HW215942   2.978   3.718   0.946  0.1777 -1.0289 -2.1059
 1870SOL     OW15943   1.292   4.848   3.236 -0.1445  0.6624 -0.0223
 1870SOL    HW115944   1.378   4.855   3.286 -1.0322  4.0494  1.1305
 1870SOL    HW215945   1.282   4.928   3.177 -1.9375 -0.3306 -1.0881
 1871SOL     OW15946   8.775   0.027   0.610  0.2610 -0.0486  0.0671
 1871SOL    HW115947   8.777   0.038   0.510 -0.6327 -2.4007 -0.2360
 1871SOL    HW215948   8.712   0.094   0.649  1.1522  1.3530 -0.8755
 1872SOL     OW15949   8.230   6.264   2.374  0.6868  0.3235 -0.8762
 1872SOL    HW115950   8.273   6.247   2.462 -1.0157 -1.8679 -0.4279
 1872SOL    HW215951   8.276   6.340   2.328  1.3709  1.7166  2.0388
 1873SOL     OW15952   1.647   2.818   0.689 -0.1837 -0.3778  0.1722
 1873SOL    HW115953   1.577   2.812   0.618 -1.5987 -0.5864  1.5512
 1873SOL    HW215954   1.626   2.754   0.763  2.2826 -1.5013 -0.0658
 1874SOL     OW15955   8.156   1.709   3.170 -0.0189 -0.0427  0.0006
 1874SOL    HW115956   8.220   1.784   3.186 -0.2931  0.1545  0.1684
 1874SOL    HW215957   8.148   1.653   3.252 -0.6211  0.3584  0.2192
 1875SOL     OW15958   7.832   0.558   0.564  0.1130  0.1411  0.2095
 1875SOL    HW115959   7.802   0.616   0.641  0.6160  2.1063 -1.0441
 1875SOL    HW215960   7.916   0.510   0.590 -0.3944 -0.1775  1.3244
 1876SOL     OW15961   9.728   7.928   2.828  0.4666 -0.2578  0.3688
 1876SOL    HW115962   9.676   7.896   2.907 -0.7391 -0.2825 -0.4230
 1876SOL    HW215963   9.746   8.026   2.838  0.6800 -0.3465  0.8685
 1877SOL     OW15964   1.681   7.753   1.359 -0.0911  0.3890 -0.8084
 1877SOL    HW115965   1.632   7.801   1.432  1.0590  0.4311 -0.0519
 1877SOL    HW215966   1.729   7.819   1.302 -1.5539  0.4098 -2.0418
 1878SOL     OW15967   2.952   5.677   1.989  0.3690 -0.3604 -0.1319
 1878SOL    HW115968   2.878   5.674   2.056  1.9287 -0.1769  1.6112
 1878SOL    HW215969   2.921   5.633   1.904 -1.0494 -2.1321  1.2577
 1879SOL     OW15970   0.934   8.569   1.604  0.4991  0.0740  0.1071
 1879SOL    HW115971   0.958   8.475   1.581  0.1588 -0.3282  1.3556
 1879SOL    HW215972   0.847   8.593   1.562 -0.4629 -0.8851  1.4972
 1880SOL     OW15973   2.744   2.995   1.755 -0.1196 -0.1059  1.0234
 1880SOL    HW115974   2.776   3.079   1.711 -0.0438 -0.4052  0.4995
 1880SOL    HW215975   2.823   2.941   1.784 -0.1575 -0.2860  0.7976
 1881SOL     OW15976   0.578   1.666   1.593 -0.3368 -0.0985 -0.3403
 1881SOL    HW115977   0.583   1.763   1.614  1.4011 -0.5584  1.5471
 1881SOL    HW215978   0.642   1.644   1.519  0.2084 -0.0280  0.1106
 1882SOL     OW15979   8.236   1.556   1.154  0.3845 -0.1218  0.5866
 1882SOL    HW115980   8.139   1.563   1.128  1.2459  1.9018 -2.2662
 1882SOL    HW215981   8.275   1.473   1.113  0.0347 -0.6495  1.2922
 1883SOL     OW15982   9.484   3.649   1.199  0.2116  0.0960 -0.3815
 1883SOL    HW115983   9.419   3.715   1.237  2.7198  2.9863 -0.9103
 1883SOL    HW215984   9.471   3.560   1.243 -2.1219  1.3431  1.5804
 1884SOL     OW15985   8.653   6.908   0.282  0.2769 -0.0890 -0.2631
 1884SOL    HW115986   8.651   6.860   0.370  0.7093  0.9033  0.2877
 1884SOL    HW215987   8.690   6.847   0.212 -2.2360 -1.7258 -0.2769
 1885SOL     OW15988   1.960   0.830   1.965  0.2518  0.1064  0.0364
 1885SOL    HW115989   1.992   0.905   2.022  0.5941 -0.1996  0.2471
 1885SOL    HW215990   2.038   0.778   1.931  0.0646  0.5173 -1.0238
 1886SOL     OW15991   9.450   0.631   1.139  0.4505  0.3954 -0.3992
 1886SOL    HW115992   9.451   0.702   1.210 -2.1767 -0.9333  1.0273
 1886SOL    HW215993   9.366   0.638   1.086 -0.0474 -1.9201  0.0523
 1887SOL     OW15994   0.572   1.837   0.290 -0.2509 -0.3044 -0.1559
 1887SOL    HW115995   0.481   1.844   0.331 -0.0972 -1.2463  0.3734
 1887SOL    HW215996   0.642   1.859   0.359 -0.0787  0.3242 -0.5331
 1888SOL     OW15997   8.387   3.415   0.753 -0.4283 -0.0970  0.1483
 1888SOL    HW115998   8.479   3.451   0.768  0.0984 -0.4158 -2.0502
 1888SOL    HW215999   8.349   3.382   0.839  1.2814  0.5724  1.1812
 1889SOL     OW16000   8.939   5.272   3.067  0.0232  0.2678  0.5509
 1889SOL    HW116001   8.960   5.365   3.098 -0.9502  0.0393  1.9752
 1889SOL    HW216002   8.862   5.236   3.120 -1.4516 -0.3234 -1.8774
 1890SOL     OW16003   2.711   9.436   0.186 -0.2991  0.0968  0.2515
 1890SOL    HW116004   2.780   9.493   0.231  2.3041 -1.5652 -1.4350
 1890SOL    HW216005   2.695   9.354   0.242  2.0824 -1.4080 -1.1449
 1891SOL     OW16006   0.538   8.214   1.119  0.2550  0.2188 -0.2751
 1891SOL    HW116007   0.588   8.177   1.198 -1.6083  1.8105  1.7071
 1891SOL    HW216008   0.456   8.159   1.103 -0.0311  0.6505 -0.2937
 1892SOL     OW16009   9.260   5.424   2.560  0.5350 -0.2711 -0.3538
 1892SOL    HW116010   9.164   5.452   2.556  0.9865  1.1705 -1.7918
 1892SOL    HW216011   9.266   5.324   2.561 -1.0460 -0.4013  2.1529
 1893SOL     OW16012   0.427   7.772   1.164  0.8397 -0.5717 -0.2223
 1893SOL    HW116013   0.511   7.795   1.212  0.1806 -1.5379  1.4464
 1893SOL    HW216014   0.449   7.740   1.072  2.3172 -1.1206  0.3045
 1894SOL     OW16015   5.853   9.328   2.639 -0.4333  0.1942  0.3925
 1894SOL    HW116016   5.848   9.406   2.702  0.7719  1.8440 -1.4431
 1894SOL    HW216017   5.825   9.358   2.548  1.5525 -1.1030 -0.6850
 1895SOL     OW16018   0.418   8.680   0.528 -0.0663  0.5949 -0.1606
 1895SOL    HW116019   0.406   8.582   0.538 -0.1966  0.6422  0.1627
 1895SOL    HW216020   0.331   8.721   0.498 -0.6475  0.9023  1.8792
 1896SOL     OW16021   8.490   9.735   2.501 -0.3048 -0.5443 -0.4320
 1896SOL    HW116022   8.449   9.665   2.443  0.8978 -1.0091 -0.7396
 1896SOL    HW216023   8.516   9.695   2.589  1.0112 -0.6688 -0.8601
 1897SOL     OW16024   2.548   5.912   1.645 -0.2352 -0.1842 -0.1900
 1897SOL    HW116025   2.480   5.840   1.658 -0.8504  0.4345  0.0044
 1897SOL    HW216026   2.622   5.899   1.712 -0.0321 -0.9945 -0.5571
 1898SOL     OW16027   9.216   5.488   1.326 -0.2625 -0.7094 -0.2848
 1898SOL    HW116028   9.219   5.424   1.249 -3.7337  1.2302 -2.1494
 1898SOL    HW216029   9.243   5.579   1.295  0.4165 -0.3388  1.3430
 1899SOL     OW16030   7.456   0.241   2.352  0.2213 -0.2985 -0.4712
 1899SOL    HW116031   7.488   0.256   2.258  1.2002 -0.8848 -0.2310
 1899SOL    HW216032   7.400   0.158   2.355 -0.3435  0.0704 -0.6550
 1900SOL     OW16033   3.735   1.503   3.340 -0.6172  0.1458  0.2653
 1900SOL    HW116034   3.658   1.440   3.352 -0.4387 -0.0197  0.5411
 1900SOL    HW216035   3.779   1.484   3.252 -1.5092  0.9119 -0.3544
 1901SOL     OW16036   3.798   2.601   2.124  0.3987  0.3903 -0.0834
 1901SOL    HW116037   3.846   2.543   2.190  2.3328  1.1487 -0.7988
 1901SOL    HW216038   3.774   2.688   2.167  2.7693  1.3827 -0.6933
 1902SOL     OW16039   3.694   2.614   3.230  0.1024 -0.4743 -0.6660
 1902SOL    HW116040   3.671   2.518   3.215  2.0470 -0.8884 -1.1919
 1902SOL    HW216041   3.775   2.620   3.288  1.7164  0.7669 -2.9945
 1903SOL     OW16042   1.702   1.984   2.910  0.1952  0.5214 -1.1941
 1903SOL    HW116043   1.624   1.998   2.850 -0.3042  0.9732 -0.4468
 1903SOL    HW216044   1.785   2.017   2.865 -0.0377  0.0333 -1.9886
 1904SOL     OW16045   0.280   4.127   1.646 -0.1412  0.0239 -0.0710
 1904SOL    HW116046   0.332   4.081   1.574  0.9350  2.5684 -0.9800
 1904SOL    HW216047   0.183   4.125   1.623  0.1366  0.2754 -1.3258
 1905SOL     OW16048   9.691   0.525   0.451  0.2344  0.3086 -0.4005
 1905SOL    HW116049   9.781   0.569   0.449  0.6458 -0.4988  0.4117
 1905SOL    HW216050   9.698   0.436   0.495 -0.7568 -0.2444 -1.3458
 1906SOL     OW16051   0.697   2.876   1.135  0.2869 -0.0789 -0.0840
 1906SOL    HW116052   0.739   2.904   1.048 -0.0609  1.8036  0.3293
 1906SOL    HW216053   0.621   2.814   1.116  1.1834 -0.8950 -1.0318
 1907SOL     OW16054   7.675   1.606   0.113  0.0676 -0.2539  0.0167
 1907SOL    HW116055   7.605   1.649   0.169 -0.3462 -0.6969 -0.1631
 1907SOL    HW216056   7.693   1.664   0.033 -0.0425 -0.1080  0.0973
 1908SOL     OW16057   3.541   6.113   2.997 -0.2923  0.0830 -0.2789
 1908SOL    HW116058   3.565   6.093   2.902  0.4104 -0.6695  0.0578
 1908SOL    HW216059   3.453   6.162   2.999  0.2142  1.0606 -1.3740
 1909SOL     OW16060   9.908   3.621   2.767  0.1136 -0.0744  0.1107
 1909SOL    HW116061  10.005   3.601   2.777  0.1733  0.4284  0.5425
 1909SOL    HW216062   9.892   3.665   2.678  0.2797 -0.1701  0.0338
 1910SOL     OW16063   9.859   3.604   0.365  0.0770  0.2453 -0.0065
 1910SOL    HW116064   9.911   3.523   0.336  0.9971  1.0686 -0.6766
 1910SOL    HW216065   9.761   3.582   0.365  0.3557 -1.0879  0.5255
 1911SOL     OW16066   5.317   2.189   1.223  1.0658 -0.3942 -0.2554
 1911SOL    HW116067   5.331   2.246   1.142  0.4135  2.3849  1.5050
 1911SOL    HW216068   5.395   2.201   1.285  0.6455 -0.9624  0.3878
 1912SOL     OW16069   4.602   8.368   2.782 -0.6057  0.2729 -0.2647
 1912SOL    HW116070   4.543   8.368   2.702 -1.3183 -0.8414  0.2405
 1912SOL    HW216071   4.667   8.444   2.776 -1.6727  1.1331 -1.1315
 1913SOL     OW16072   1.345   5.936   0.548 -0.5896 -0.2625 -0.5744
 1913SOL    HW116073   1.329   5.847   0.591 -0.1658 -0.3760 -0.6560
 1913SOL    HW216074   1.300   6.007   0.602 -0.7438 -0.4986 -0.3875
 1914SOL     OW16075   4.436   8.146   1.020  0.0256  0.5915  0.0508
 1914SOL    HW116076   4.464   8.051   1.009  1.5165  0.9345  0.6856
 1914SOL    HW216077   4.348   8.161   0.976  0.4250 -0.7647 -1.2429
 1915SOL     OW16078   9.765   7.922   1.482 -0.3630  0.0140  0.0333
 1915SOL    HW116079   9.741   7.892   1.389 -0.6130 -1.1120  0.4421
 1915SOL    HW216080   9.704   7.996   1.510  0.1727  0.8312 -0.9654
 1916SOL     OW16081   3.964   1.327   0.177  0.0591 -0.2351 -0.3717
 1916SOL    HW116082   3.998   1.390   0.108  1.2447 -0.6206 -0.1583
 1916SOL    HW216083   3.945   1.377   0.262  0.7198 -0.1131 -0.2927
 1917SOL     OW16084   1.238   8.541   0.258 -0.1622 -0.3569  0.2940
 1917SOL    HW116085   1.324   8.580   0.292  0.2417 -0.8286 -0.1580
 1917SOL    HW216086   1.177   8.523   0.334  0.2048 -0.1527  0.6400
 1918SOL     OW16087   9.224   3.555   2.082  0.2915 -0.2095  0.6890
 1918SOL    HW116088   9.318   3.589   2.091  0.1544  0.3365  0.1185
 1918SOL    HW216089   9.198   3.554   1.986 -0.3459 -0.2014  0.8596
 1919SOL     OW16090   2.820   3.667   1.077  0.0865 -0.2263 -0.0312
 1919SOL    HW116091   2.825   3.672   1.177 -0.1386 -1.6476  0.0657
 1919SOL    HW216092   2.726   3.643   1.050  0.2177 -0.1234 -0.5756
 1920SOL     OW16093   4.490   3.501   0.343 -0.4525  0.2541  0.2158
 1920SOL    HW116094   4.455   3.439   0.272 -1.4197 -1.9305  2.5403
 1920SOL    HW216095   4.543   3.448   0.410  1.7539  2.5214  0.3385
 1921SOL     OW16096   3.599   4.255   1.280  0.1979 -0.1093 -0.2743
 1921SOL    HW116097   3.502   4.244   1.255  0.0661 -0.6442  0.4546
 1921SOL    HW216098   3.607   4.257   1.380  0.9637 -0.2800 -0.3336
 1922SOL     OW16099   2.369   5.217   0.638 -0.5011 -0.0555  0.1996
 1922SOL    HW116100   2.448   5.158   0.653 -1.0113 -0.3724  1.7739
 1922SOL    HW216101   2.357   5.277   0.718  0.0242  2.2043 -1.3741
 1923SOL     OW16102   4.147   2.551   1.853  0.0009 -0.6736  1.1853
 1923SOL    HW116103   4.064   2.567   1.799  0.8597  0.8198  0.2566
 1923SOL    HW216104   4.157   2.623   1.921  0.5798 -0.7770  1.2174
 1924SOL     OW16105   1.014   1.231   0.059  0.8498 -0.4004 -0.6727
 1924SOL    HW116106   0.937   1.209   0.119  0.6012 -0.1002 -0.8872
 1924SOL    HW216107   0.990   1.211  -0.036  0.8252  0.2551 -0.8060
 1925SOL     OW16108   1.163   5.437   2.470 -0.2316  0.1093  0.7203
 1925SOL    HW116109   1.136   5.424   2.375 -2.0913 -0.1195  1.2587
 1925SOL    HW216110   1.241   5.500   2.474 -1.2605  1.5302 -0.8491
 1926SOL     OW16111   1.940   1.060   1.723  0.2458  0.2832  0.1161
 1926SOL    HW116112   2.031   1.045   1.686  0.7878  3.9411 -0.2423
 1926SOL    HW216113   1.885   1.109   1.655 -0.2195  2.9366  2.3382
 1927SOL     OW16114   1.604   4.545   3.072  0.0172 -0.2727 -0.2135
 1927SOL    HW116115   1.628   4.640   3.095  0.2203 -0.7003  1.4398
 1927SOL    HW216116   1.506   4.532   3.085  0.0219 -0.3408 -0.2466
 1928SOL     OW16117   3.853   0.824   0.659  0.5595  0.1641 -0.4795
 1928SOL    HW116118   3.808   0.843   0.571 -0.1382  2.2124  0.2738
 1928SOL    HW216119   3.950   0.807   0.644  0.5911  1.2072 -1.5942
 1929SOL     OW16120   1.547   6.738   1.506 -0.2345  0.4332  0.2262
 1929SOL    HW116121   1.591   6.774   1.423 -1.4499  1.9329  0.2131
 1929SOL    HW216122   1.562   6.802   1.581  2.4865 -1.8123  1.7021
 1930SOL     OW16123   8.252   4.026   1.058  0.3152 -0.3837  0.0432
 1930SOL    HW116124   8.201   4.099   1.012 -1.0061 -1.3224 -0.0208
 1930SOL    HW216125   8.288   3.962   0.990  0.1482 -0.6243  0.1761
 1931SOL     OW16126   9.484   8.575   2.918  0.3890 -0.0313 -0.2189
 1931SOL    HW116127   9.560   8.638   2.902  0.1886  0.1268 -0.5856
 1931SOL    HW216128   9.432   8.604   2.998  0.2106  0.3559 -0.4743
 1932SOL     OW16129   3.702   9.325   1.824  0.6148 -0.0935 -0.2375
 1932SOL    HW116130   3.607   9.351   1.843  0.6544 -2.0040  2.9624
 1932SOL    HW216131   3.736   9.377   1.746 -2.6753  1.4943 -0.6883
 1933SOL     OW16132   1.291   4.400   1.122  0.2014 -0.1813  0.0667
 1933SOL    HW116133   1.279   4.356   1.033  0.1274 -0.5002  0.2302
 1933SOL    HW216134   1.353   4.478   1.113 -0.1236  0.0278 -0.3356
 1934SOL     OW16135   2.279   2.912   0.449 -0.0647 -0.5869  0.5349
 1934SOL    HW116136   2.236   2.861   0.524  0.7958  0.0217  1.4593
 1934SOL    HW216137   2.353   2.968   0.486 -1.1439  1.5170 -0.4474
 1935SOL     OW16138   2.677   8.715   1.371  0.1744  0.5010 -0.4670
 1935SOL    HW116139   2.680   8.631   1.317 -0.7791  0.7754 -0.9513
 1935SOL    HW216140   2.731   8.787   1.325 -0.6509  0.7397 -1.0667
 1936SOL     OW16141   3.931   9.707   1.831 -0.0892  0.2859 -0.6425
 1936SOL    HW116142   3.870   9.684   1.755 -2.1556  0.2734  0.9615
 1936SOL    HW216143   3.908   9.650   1.910  3.0145 -0.7352 -0.4377
 1937SOL     OW16144   2.019   5.284   2.159 -0.0802  0.4830 -0.2734
 1937SOL    HW116145   2.099   5.344   2.168  1.2721 -1.4279  0.7566
 1937SOL    HW216146   2.038   5.213   2.091 -0.7278 -0.2361  0.2930
 1938SOL     OW16147   7.636   7.513   2.620  0.1950 -0.0351 -0.5526
 1938SOL    HW116148   7.676   7.474   2.703 -0.7779 -0.7069 -0.3851
 1938SOL    HW216149   7.545   7.550   2.640  0.1385  0.2057 -1.2200
 1939SOL     OW16150   8.557   2.269   2.230 -0.0565  0.2791 -0.0413
 1939SOL    HW116151   8.510   2.280   2.142 -1.3340 -1.3919  0.4212
 1939SOL    HW216152   8.497   2.222   2.295  1.9620 -1.1966  0.8050
 1940SOL     OW16153   1.559   1.028   2.940 -0.4310  0.6941  0.0387
 1940SOL    HW116154   1.623   1.102   2.962  0.6632 -0.5340  1.0551
 1940SOL    HW216155   1.606   0.957   2.889 -0.8133 -0.4833  1.2895
 1941SOL     OW16156   2.192   6.178   1.040  0.1253 -0.3350 -0.2214
 1941SOL    HW116157   2.157   6.180   1.134 -1.9166  0.4290 -0.9620
 1941SOL    HW216158   2.167   6.092   0.997 -1.1042  0.3041 -0.8250
 1942SOL     OW16159   9.119   2.587   2.374  0.4629  0.0863 -0.6446
 1942SOL    HW116160   9.130   2.608   2.277  1.2108  0.7011 -0.4274
 1942SOL    HW216161   9.107   2.672   2.425 -0.2658 -0.2539 -0.2378
 1943SOL     OW16162   4.567   8.549   2.123 -0.2362 -0.3954  0.1953
 1943SOL    HW116163   4.545   8.518   2.031 -0.6483  0.8077 -0.1169
 1943SOL    HW216164   4.624   8.631   2.117  0.7107 -0.9879  1.0080
 1944SOL     OW16165   0.545   0.588   1.136  0.3165  0.5903  0.3087
 1944SOL    HW116166   0.557   0.489   1.131  1.0377  0.7568 -1.6071
 1944SOL    HW216167   0.509   0.613   1.226  1.0103 -1.3206  1.1357
 1945SOL     OW16168   9.210   3.080   0.836  0.6298 -0.0429  0.0309
 1945SOL    HW116169   9.142   3.049   0.770 -0.5097  2.9927 -0.2978
 1945SOL    HW216170   9.293   3.108   0.789  0.6830 -0.0739  0.1051
 1946SOL     OW16171   3.816   2.445   1.183  0.2263  0.1081  0.0663
 1946SOL    HW116172   3.886   2.432   1.113  1.2936 -0.3446  1.2040
 1946SOL    HW216173   3.727   2.417   1.147  0.9244 -1.0373 -0.7943
 1947SOL     OW16174   2.409   0.713   0.388 -1.0263  0.6441 -0.1845
 1947SOL    HW116175   2.408   0.752   0.296 -0.9773  0.6832 -0.1683
 1947SOL    HW216176   2.342   0.639   0.393  1.5679 -1.8688 -1.3579
 1948SOL     OW16177   3.399   5.284   2.588 -0.5604  0.4384 -0.7511
 1948SOL    HW116178   3.427   5.337   2.507  0.2991 -1.1687 -1.5279
 1948SOL    HW216179   3.299   5.278   2.591 -0.5989  0.3944 -1.7810
 1949SOL     OW16180   0.165   1.077   2.798 -0.2855 -0.2615 -0.0379
 1949SOL    HW116181   0.157   1.003   2.866  1.9221  0.2007  0.7615
 1949SOL    HW216182   0.205   1.040   2.714 -0.8598 -0.3384 -0.2823
 1950SOL     OW16183   3.428   7.152   0.393  0.4017  0.1150 -0.0753
 1950SOL    HW116184   3.428   7.109   0.302  0.9279  2.3406 -1.1632
 1950SOL    HW216185   3.334   7.180   0.416  0.2713 -0.4244  0.0396
 1951SOL     OW16186   9.430   6.611   1.883 -0.4361  0.6153 -0.2859
 1951SOL    HW116187   9.487   6.554   1.823  0.1829  1.6539 -0.7067
 1951SOL    HW216188   9.334   6.600   1.858 -0.2496  0.4095 -0.9294
 1952SOL     OW16189   0.080   8.597   0.759 -0.0940  0.6138  0.1040
 1952SOL    HW116190   0.134   8.514   0.755 -0.2160  0.4871  0.9207
 1952SOL    HW216191  -0.017   8.575   0.748  0.0162  0.8356 -1.3207
 1953SOL     OW16192   0.867   7.024   1.388  0.0917 -0.0096 -0.1945
 1953SOL    HW116193   0.768   7.015   1.388 -0.0038  0.9736 -0.7600
 1953SOL    HW216194   0.902   7.016   1.294  0.7392 -2.1922  0.1884
 1954SOL     OW16195   3.660   4.483   2.946 -0.2055  0.1026 -0.1527
 1954SOL    HW116196   3.675   4.420   3.023  0.7799  0.9784  0.3993
 1954SOL    HW216197   3.724   4.461   2.873  0.6204  0.8790  0.3194
 1955SOL     OW16198   1.577   7.496   2.791 -0.1201 -0.2193  0.0370
 1955SOL    HW116199   1.536   7.469   2.703 -1.5441 -0.1109  0.6606
 1955SOL    HW216200   1.558   7.592   2.809  0.8595 -0.0258  0.1041
 1956SOL     OW16201   9.154   4.775   1.861  0.1332 -0.1858  0.3404
 1956SOL    HW116202   9.132   4.691   1.909  0.4738 -0.9374 -0.7867
 1956SOL    HW216203   9.108   4.777   1.772 -0.4553  1.1563  0.6548
 1957SOL     OW16204   9.613   5.351   2.967 -0.2912 -0.0641  0.6175
 1957SOL    HW116205   9.523   5.328   2.929 -0.7569  0.4070  1.3944
 1957SOL    HW216206   9.633   5.447   2.949  0.9311 -0.6376 -1.2303
 1958SOL     OW16207   8.311   1.737   2.030  0.2961 -0.5281  0.4044
 1958SOL    HW116208   8.225   1.784   2.050  0.4704 -0.2856  0.5941
 1958SOL    HW216209   8.296   1.638   2.026 -0.9255 -0.2907 -4.1231
 1959SOL     OW16210   1.704   4.062   0.639 -0.0516  0.0619 -0.4920
 1959SOL    HW116211   1.798   4.096   0.634 -0.0787  0.2289  0.1184
 1959SOL    HW216212   1.682   4.013   0.555  1.0438 -1.1889 -0.0574
 1960SOL     OW16213   7.835   0.608   3.036  0.0327 -0.8929 -0.4115
 1960SOL    HW116214   7.752   0.558   3.061 -1.0995  1.1567  0.0069
 1960SOL    HW216215   7.859   0.588   2.941 -1.4557 -0.7989 -0.8204
 1961SOL     OW16216   2.650   8.519   0.611 -0.3126 -0.0112 -0.0197
 1961SOL    HW116217   2.610   8.534   0.702 -0.3460 -0.8098  0.1067
 1961SOL    HW216218   2.620   8.430   0.576  1.3111 -0.6141  0.0676
 1962SOL     OW16219   8.516   2.128   1.418 -0.2940 -0.0831 -0.0794
 1962SOL    HW116220   8.607   2.109   1.382 -0.0037 -0.8713  1.0354
 1962SOL    HW216221   8.450   2.063   1.380 -0.0025 -0.8674  0.7550
 1963SOL     OW16222   3.817   0.925   1.605  0.1512 -0.1219  0.5445
 1963SOL    HW116223   3.769   0.837   1.607 -1.6941  0.8120 -0.8943
 1963SOL    HW216224   3.808   0.965   1.513 -1.6699  2.9673  1.9979
 1964SOL     OW16225   1.458   1.056   1.930  0.1658 -0.0489  0.0387
 1964SOL    HW116226   1.369   1.054   1.975  0.5012 -0.2550  0.7010
 1964SOL    HW216227   1.449   1.019   1.837 -0.7933  1.6962 -0.5688
 1965SOL     OW16228   1.073   5.821   3.445 -0.1333  0.1600 -0.3813
 1965SOL    HW116229   1.125   5.742   3.411 -1.6011 -0.9339 -0.1529
 1965SOL    HW216230   1.113   5.853   3.531  1.0672  0.3042 -0.9767
 1966SOL     OW16231   1.985   3.697   2.372 -0.1178  0.3642  0.1501
 1966SOL    HW116232   1.913   3.643   2.328  0.1819  0.9124 -1.0367
 1966SOL    HW216233   1.958   3.718   2.466 -0.9148 -0.5571  0.1367
 1967SOL     OW16234   0.430   0.107   0.436 -0.5751  0.2928  0.6187
 1967SOL    HW116235   0.507   0.047   0.414  0.0370  1.4869 -0.5440
 1967SOL    HW216236   0.433   0.131   0.533 -0.9018 -1.6407  1.1299
 1968SOL     OW16237   6.928   8.159   2.670  0.0852 -0.2880 -0.3578
 1968SOL    HW116238   6.913   8.062   2.648  1.1316 -0.3290 -0.9120
 1968SOL    HW216239   6.974   8.166   2.758  0.1772 -0.3060 -0.4041
 1969SOL     OW16240   2.228   6.888   2.047  0.2431  0.1789 -0.4948
 1969SOL    HW116241   2.132   6.915   2.045  0.8245  2.2912 -1.1309
 1969SOL    HW216242   2.235   6.789   2.059 -2.0712 -0.4121 -3.5181
 1970SOL     OW16243   4.936   9.687   0.979  0.0234  0.7161 -0.3246
 1970SOL    HW116244   4.918   9.619   0.908 -1.1423  1.3409 -0.6379
 1970SOL    HW216245   4.850   9.728   1.008  0.8154  2.7490 -0.8132
 1971SOL     OW16246   3.681   7.293   2.306 -0.4583 -0.2668 -0.3267
 1971SOL    HW116247   3.734   7.219   2.347 -0.5297 -0.6041 -0.8356
 1971SOL    HW216248   3.665   7.365   2.374 -1.3706 -1.2404  0.5139
 1972SOL     OW16249   9.873   8.029   0.448 -0.3721  0.4160  0.1297
 1972SOL    HW116250   9.836   8.026   0.355 -1.1604  1.6867  0.3930
 1972SOL    HW216251   9.970   8.006   0.446 -0.9069 -1.9886 -0.6937
 1973SOL     OW16252   0.848   7.318   2.826  0.2383 -0.2963 -0.6808
 1973SOL    HW116253   0.825   7.277   2.738  0.2474  0.2545 -0.9344
 1973SOL    HW216254   0.940   7.291   2.852  0.3010 -0.3113 -0.9200
 1974SOL     OW16255   1.186   0.905   0.965 -0.0495  0.1322  0.3973
 1974SOL    HW116256   1.126   0.824   0.962  0.6059 -0.4292  1.9568
 1974SOL    HW216257   1.140   0.979   1.013 -1.5961  1.5324 -3.0762
 1975SOL     OW16258   8.025   9.237   1.113 -0.4967 -0.2824  0.1146
 1975SOL    HW116259   7.943   9.241   1.056 -0.5952  0.0408  0.2786
 1975SOL    HW216260   8.093   9.177   1.070 -0.1743  0.7606 -0.8696
 1976SOL     OW16261   8.204   6.470   0.040  0.0977 -0.2094 -0.0605
 1976SOL    HW116262   8.162   6.459   0.130 -0.2897 -0.0826 -0.2231
 1976SOL    HW216263   8.245   6.561   0.034  0.9241 -0.5614  0.3155
 1977SOL     OW16264   7.865   0.913   0.568  0.2465  0.2431  0.2172
 1977SOL    HW116265   7.927   0.879   0.639  0.2980  1.0878  0.5778
 1977SOL    HW216266   7.917   0.964   0.500 -0.0310  0.8090  0.4286
 1978SOL     OW16267   4.513   2.325   1.045  0.1607 -0.2759 -0.1778
 1978SOL    HW116268   4.430   2.325   1.102  0.2400  1.9604 -0.0228
 1978SOL    HW216269   4.492   2.284   0.956 -0.6797 -1.2048  0.4304
 1979SOL     OW16270   3.618   3.480   0.247 -0.4365  0.6200 -0.1061
 1979SOL    HW116271   3.597   3.576   0.266 -0.8257  0.5351 -0.1096
 1979SOL    HW216272   3.710   3.474   0.206  0.7052  0.7331  2.3664
 1980SOL     OW16273   9.963   5.440   3.361  0.3397 -0.1684 -0.6396
 1980SOL    HW116274   9.954   5.360   3.420 -2.3134  0.7187  0.2334
 1980SOL    HW216275  10.059   5.452   3.335  1.4820 -0.8343  3.0724
 1981SOL     OW16276   2.631   1.703   1.803 -0.5243  0.4035 -0.3551
 1981SOL    HW116277   2.569   1.640   1.756  0.0160 -0.1466 -0.3506
 1981SOL    HW216278   2.693   1.745   1.736  0.6379 -0.8311 -0.0879
 1982SOL     OW16279   0.973   2.817   0.194 -0.2811  0.0425 -0.7575
 1982SOL    HW116280   1.010   2.856   0.110  0.3394  0.5909 -0.2348
 1982SOL    HW216281   0.951   2.891   0.259  2.1314 -0.5147  0.7485
 1983SOL     OW16282   8.543   7.702   0.612  0.0129 -0.6214 -0.0782
 1983SOL    HW116283   8.619   7.762   0.589 -0.5174 -0.0419 -0.3219
 1983SOL    HW216284   8.547   7.677   0.708 -0.1446  0.3452  0.1834
 1984SOL     OW16285   2.616   2.230   3.256 -0.3646 -0.5700 -0.8964
 1984SOL    HW116286   2.578   2.314   3.296 -0.0232 -1.5878  1.6567
 1984SOL    HW216287   2.691   2.253   3.194  1.0426  0.9318  1.3117
 1985SOL     OW16288   9.810   8.975   1.950 -0.3112  0.0934 -0.5203
 1985SOL    HW116289   9.774   8.907   1.887 -1.9287  0.2779  0.1543
 1985SOL    HW216290   9.899   9.007   1.919  0.5839 -2.4873 -0.7211
 1986SOL     OW16291   8.578   7.290   1.535  0.3025 -0.2582 -0.3557
 1986SOL    HW116292   8.511   7.259   1.468 -0.6828  1.2631 -0.1056
 1986SOL    HW216293   8.625   7.371   1.499  1.6254 -0.9990 -0.2993
 1987SOL     OW16294   8.163   7.433   0.057 -0.0761 -0.0259  0.1652
 1987SOL    HW116295   8.189   7.379   0.137 -0.0831  0.0941  0.2497
 1987SOL    HW216296   8.072   7.472   0.072 -0.2791 -0.3967 -0.1036
 1988SOL     OW16297   0.755   4.122   0.021 -0.3784  0.8401  0.2745
 1988SOL    HW116298   0.736   4.214   0.056 -1.1164  0.9194 -0.3351
 1988SOL    HW216299   0.806   4.070   0.091  1.1258  2.1009  0.1513
 1989SOL     OW16300   9.538   6.484   2.819 -0.4006  0.4658 -0.1095
 1989SOL    HW116301   9.523   6.504   2.916 -2.3542 -0.9840 -0.0755
 1989SOL    HW216302   9.453   6.452   2.778  0.9608 -1.2719 -1.7048
 1990SOL     OW16303   3.243   4.413   0.114 -0.1344  0.7668  0.0500
 1990SOL    HW116304   3.276   4.437   0.023  1.1007 -0.6534  0.1129
 1990SOL    HW216305   3.237   4.496   0.170 -0.5759  1.5971 -1.2004
 1991SOL     OW16306   9.477   9.443   1.084  0.1350  0.0804 -0.2899
 1991SOL    HW116307   9.501   9.381   1.010  1.8663  0.7177 -0.3057
 1991SOL    HW216308   9.528   9.529   1.073 -0.1912  0.4877  1.1870
 1992SOL     OW16309   7.860   1.927   2.268 -0.1139  0.3281  0.1953
 1992SOL    HW116310   7.881   1.886   2.357  1.5440 -0.3952 -0.4854
 1992SOL    HW216311   7.851   2.026   2.278  1.9514  0.4814  0.8810
 1993SOL     OW16312   0.201   1.939   2.294  0.8401 -0.0196 -0.3784
 1993SOL    HW116313   0.240   1.852   2.264 -1.1748 -0.6072 -1.3869
 1993SOL    HW216314   0.188   1.936   2.393  2.2754 -0.2344 -0.1788
 1994SOL     OW16315   8.808   8.487   0.103  0.1812 -0.2500  0.5235
 1994SOL    HW116316   8.774   8.396   0.079  0.4147 -0.3943  0.7279
 1994SOL    HW216317   8.787   8.506   0.199  0.5029 -0.2596  0.5961
 1995SOL     OW16318   2.151   6.339   0.462 -0.3822  0.4309 -0.0039
 1995SOL    HW116319   2.190   6.399   0.392 -0.9259 -1.1720 -1.7440
 1995SOL    HW216320   2.225   6.298   0.516  0.3984 -1.9331 -2.7351
 1996SOL     OW16321   1.551   6.645   0.075 -0.0155  0.1241 -0.0358
 1996SOL    HW116322   1.590   6.670  -0.014  4.6794  2.7173  2.5194
 1996SOL    HW216323   1.563   6.547   0.090 -0.6326 -0.3030 -2.0850
 1997SOL     OW16324   2.640   9.248   1.371 -0.1323  0.2264 -0.2447
 1997SOL    HW116325   2.618   9.195   1.289 -0.6487  0.2171 -0.1055
 1997SOL    HW216326   2.567   9.235   1.439 -0.1008  0.8643 -0.0870
 1998SOL     OW16327   9.914   4.463   2.852 -0.1852 -0.6639 -0.2387
 1998SOL    HW116328   9.834   4.479   2.909 -0.7245 -1.0890 -0.8729
 1998SOL    HW216329   9.971   4.545   2.852 -0.7567 -0.2600 -0.0068
 1999SOL     OW16330   9.605   2.862   3.259 -0.1399  0.1030  0.5706
 1999SOL    HW116331   9.612   2.821   3.349  1.3327 -1.0107 -0.0215
 1999SOL    HW216332   9.648   2.802   3.191 -2.9927 -0.0558 -1.2027
 2000SOL     OW16333   4.829   3.204   1.995 -0.2677 -1.0217 -0.1697
 2000SOL    HW116334   4.859   3.212   2.090 -1.3116 -3.4608  0.4110
 2000SOL    HW216335   4.741   3.250   1.984  0.4487  0.3588 -0.2887
 2001SOL     OW16336   8.920   4.740   1.290 -0.0467  0.3175  0.1962
 2001SOL    HW116337   8.993   4.807   1.279  0.6165 -0.3147  0.7170
 2001SOL    HW216338   8.835   4.777   1.252  0.6448  0.8681 -0.8224
 2002SOL     OW16339   4.348   9.410   0.827  0.0616 -0.1347  0.1796
 2002SOL    HW116340   4.345   9.473   0.749 -0.2002 -1.2904 -0.7629
 2002SOL    HW216341   4.374   9.460   0.909  2.2099  0.7624 -1.0040
 2003SOL     OW16342   1.257   3.853   0.669 -0.1443 -0.1769 -0.1419
 2003SOL    HW116343   1.321   3.918   0.710  1.2337 -1.2391 -0.5687
 2003SOL    HW216344   1.163   3.888   0.677  0.2926  0.5631  2.1236
 2004SOL     OW16345   1.552   2.246   1.615 -0.3252 -0.5974 -0.1731
 2004SOL    HW116346   1.639   2.207   1.583 -0.0222 -0.1635  0.1112
 2004SOL    HW216347   1.540   2.226   1.712  0.6697  1.4711  0.4158
 2005SOL     OW16348   4.119   2.523   3.032 -0.2241  0.1605  0.2918
 2005SOL    HW116349   4.125   2.621   3.048 -0.2761 -0.0004  1.3560
 2005SOL    HW216350   4.170   2.475   3.103 -0.7807 -0.6096  0.1765
 2006SOL     OW16351   0.750   9.278   0.829  0.0662 -0.5548 -0.2374
 2006SOL    HW116352   0.839   9.298   0.872 -0.4439 -0.0588  0.5934
 2006SOL    HW216353   0.744   9.180   0.810  0.3054 -0.7823  0.8195
 2007SOL     OW16354   1.979   4.087   0.669  0.1281  0.2658  0.6721
 2007SOL    HW116355   2.039   4.097   0.590  0.8645 -0.5565  1.1176
 2007SOL    HW216356   1.956   4.177   0.705  0.6975  0.6044  0.2001
 2008SOL     OW16357   0.220   5.142   1.118  0.0180 -0.3636 -0.4024
 2008SOL    HW116358   0.258   5.148   1.210  1.7201  2.7218 -1.2538
 2008SOL    HW216359   0.141   5.203   1.111 -1.0859 -1.7774 -0.5726
 2009SOL     OW16360   4.552   2.821   1.664  0.6367 -0.4032  0.2912
 2009SOL    HW116361   4.495   2.891   1.708 -1.0757  0.2850 -2.8874
 2009SOL    HW216362   4.503   2.733   1.665 -0.3497  0.0698 -1.9541
 2010SOL     OW16363   2.695   3.396   1.668  0.0889 -0.2028 -0.2397
 2010SOL    HW116364   2.685   3.425   1.573  0.3605  1.1306  0.1313
 2010SOL    HW216365   2.770   3.331   1.675 -0.4238 -0.8910 -1.0603
 2011SOL     OW16366   1.998   4.704   2.479 -0.0558  0.2409  0.5472
 2011SOL    HW116367   1.918   4.666   2.526  0.4958 -0.4502  0.9331
 2011SOL    HW216368   1.970   4.739   2.389 -0.0603 -3.8271 -1.1518
 2012SOL     OW16369   0.100   1.437   1.826 -0.5101  0.2926 -0.5882
 2012SOL    HW116370   0.132   1.433   1.921 -2.0678  0.3740 -0.0470
 2012SOL    HW216371   0.026   1.371   1.813 -0.2563  0.2315 -1.7679
 2013SOL     OW16372   3.182   9.209   2.559 -0.4949  0.2455  0.0724
 2013SOL    HW116373   3.146   9.280   2.499 -1.6959  1.6137  2.3641
 2013SOL    HW216374   3.271   9.178   2.525 -0.4918  2.0157 -1.5792
 2014SOL     OW16375   1.603   1.295   1.344  0.4320 -0.0949 -0.4238
 2014SOL    HW116376   1.515   1.343   1.338  0.7993  0.6464  0.0854
 2014SOL    HW216377   1.625   1.255   1.256  0.4833  1.3163 -1.0656
 2015SOL     OW16378   0.531   0.534   2.920  0.5165 -0.3172 -0.1943
 2015SOL    HW116379   0.601   0.471   2.952  0.3990  0.1842  1.1000
 2015SOL    HW216380   0.536   0.619   2.973  0.3686  0.5786 -1.5845
 2016SOL     OW16381   9.582   9.135   1.056 -0.3648 -0.4443  0.3714
 2016SOL    HW116382   9.661   9.099   1.005 -0.5904 -1.4874  0.7459
 2016SOL    HW216383   9.500   9.085   1.029 -0.8133  0.3108  0.3432
 2017SOL     OW16384   9.225   6.182   1.017 -0.4483  0.0058 -0.0096
 2017SOL    HW116385   9.199   6.142   0.929 -0.5254  0.4778 -0.2094
 2017SOL    HW216386   9.184   6.273   1.024  1.6936  1.0484 -0.6242
 2018SOL     OW16387   4.379   2.634   2.932  0.0661 -1.0239 -0.0952
 2018SOL    HW116388   4.315   2.641   2.856  0.8985  2.2044 -0.5874
 2018SOL    HW216389   4.340   2.680   3.012  0.9847 -0.6440  0.1413
 2019SOL     OW16390   7.692   8.338   2.535 -0.2292 -0.2719 -0.1240
 2019SOL    HW116391   7.602   8.367   2.501 -1.7943 -1.7913  2.5562
 2019SOL    HW216392   7.690   8.336   2.635  3.1256  0.6124  0.0059
 2020SOL     OW16393   9.653   6.681   0.235 -0.4714  0.2346 -0.5550
 2020SOL    HW116394   9.732   6.743   0.234 -0.9492  0.8548  0.1832
 2020SOL    HW216395   9.578   6.723   0.285 -1.2666 -0.3792 -1.2223
 2021SOL     OW16396   2.199   1.629   2.201 -0.7669 -0.2338  0.7969
 2021SOL    HW116397   2.293   1.623   2.234 -0.9841  1.4168  1.7610
 2021SOL    HW216398   2.136   1.636   2.278 -1.6020 -0.3008  0.1364
 2022SOL     OW16399   1.480   7.639   3.205  0.3870 -0.2341 -0.5962
 2022SOL    HW116400   1.404   7.662   3.143  0.0648  1.1358  0.2629
 2022SOL    HW216401   1.557   7.700   3.186  1.2650 -1.5897 -1.4263
 2023SOL     OW16402   0.173   6.005   2.215 -0.7817 -0.0865 -0.0992
 2023SOL    HW116403   0.220   6.003   2.303 -2.7115 -0.1318  0.9626
 2023SOL    HW216404   0.074   5.998   2.230 -1.1566  0.2715 -2.2495
 2024SOL     OW16405   3.193   8.144   0.972  0.4295  0.2075  0.3081
 2024SOL    HW116406   3.148   8.065   1.014 -1.4308  0.2360 -1.5747
 2024SOL    HW216407   3.215   8.211   1.043 -1.9434 -0.0885  1.3909
 2025SOL     OW16408   3.784   8.904   1.544  0.2232 -0.0840  0.7184
 2025SOL    HW116409   3.744   8.838   1.481 -0.3879  0.4899  0.4938
 2025SOL    HW216410   3.824   8.980   1.493 -0.3249  0.4116  1.0166
 2026SOL     OW16411   1.205   1.294   2.480  0.1854 -0.2705 -0.5813
 2026SOL    HW116412   1.252   1.263   2.562  1.1337  0.1925 -0.9393
 2026SOL    HW216413   1.252   1.258   2.399  0.3466  0.7690 -0.9573
 2027SOL     OW16414   1.804   1.899   0.339  0.2024 -0.4147 -0.6256
 2027SOL    HW116415   1.724   1.957   0.352  0.7098  0.0012  0.7516
 2027SOL    HW216416   1.775   1.811   0.301 -0.9616 -0.4281  0.2621
 2028SOL     OW16417   0.533   7.622   0.918 -0.0528 -0.1485 -0.2637
 2028SOL    HW116418   0.453   7.564   0.905 -1.1611  0.8748  1.7524
 2028SOL    HW216419   0.510   7.716   0.893 -0.7134  0.8998  3.9616
 2029SOL     OW16420   1.206   5.872   0.264  0.0594  0.0854 -0.7067
 2029SOL    HW116421   1.259   5.936   0.320  0.3807  1.6202 -2.7292
 2029SOL    HW216422   1.228   5.778   0.292  2.4750  0.7393 -0.2464
 2030SOL     OW16423   4.350   2.988   1.875 -0.1963 -0.3915 -0.5267
 2030SOL    HW116424   4.428   3.001   1.936 -2.0433 -0.0850  1.8503
 2030SOL    HW216425   4.329   3.075   1.830 -0.2866 -0.0271  0.2116
 2031SOL     OW16426   9.736   7.809   3.333 -0.2523 -0.2308 -0.3986
 2031SOL    HW116427   9.762   7.852   3.246 -0.4192  0.4697 -0.1085
 2031SOL    HW216428   9.686   7.875   3.389  0.2868 -0.5212  0.4392
 2032SOL     OW16429   1.677   3.734   0.454  0.4156  0.1453  0.0716
 2032SOL    HW116430   1.620   3.811   0.424 -1.2540 -0.8653  0.5929
 2032SOL    HW216431   1.774   3.758   0.444 -0.0989  1.5744 -1.6099
 2033SOL     OW16432   0.476   1.160   2.498  0.1720 -0.1662 -0.0302
 2033SOL    HW116433   0.543   1.170   2.571  0.6580 -0.2446 -0.4661
 2033SOL    HW216434   0.513   1.197   2.413 -0.6258  0.4969 -0.1018
 2034SOL     OW16435   1.884   1.048   0.784  0.1289  0.0453  0.3788
 2034SOL    HW116436   1.799   1.073   0.740 -1.0558 -3.6105  0.4037
 2034SOL    HW216437   1.873   1.053   0.883  1.0659  2.8565  0.3904
 2035SOL     OW16438   2.856   8.843   0.833  0.0326 -0.1498  0.1171
 2035SOL    HW116439   2.900   8.783   0.900  0.7799 -0.1106 -0.3325
 2035SOL    HW216440   2.922   8.911   0.801 -0.5382  0.3074 -0.0942
 2036SOL     OW16441   9.495   9.284   1.326 -0.5065 -0.1272  0.0045
 2036SOL    HW116442   9.594   9.296   1.326 -0.2018 -2.3338  0.8276
 2036SOL    HW216443   9.460   9.301   1.234  0.8827 -1.0444 -0.7174
 2037SOL     OW16444   4.815   9.525   3.301  0.0766  0.3898 -0.0061
 2037SOL    HW116445   4.744   9.595   3.295  1.2874  1.5777 -0.7367
 2037SOL    HW216446   4.783   9.449   3.358 -2.0055  0.6220 -0.8319
 2038SOL     OW16447   7.866   0.141   1.575  0.5694  0.1259  0.0478
 2038SOL    HW116448   7.794   0.086   1.534 -0.1527  1.5288 -0.5865
 2038SOL    HW216449   7.842   0.162   1.670  1.0235 -0.9447  0.4095
 2039SOL     OW16450   3.613   7.548   0.000  0.4495 -0.1810 -0.0893
 2039SOL    HW116451   3.553   7.484   0.049 -0.5419 -0.2681 -1.3757
 2039SOL    HW216452   3.657   7.500  -0.076  1.5095  0.1028  0.3316
 2040SOL     OW16453   2.949   3.967   1.871 -0.0321  0.5202  0.0211
 2040SOL    HW116454   2.863   3.952   1.823 -0.0833  0.4224  0.1436
 2040SOL    HW216455   2.998   4.043   1.829 -0.4066  0.8965  0.2605
 2041SOL     OW16456   1.106   8.129   0.037  0.1623 -0.0682  0.3038
 2041SOL    HW116457   1.064   8.182  -0.037  1.7145  0.5174 -0.1751
 2041SOL    HW216458   1.144   8.044   0.001 -0.2158 -0.3870  0.6534
 2042SOL     OW16459   8.457   3.964   0.405  0.2581  0.1689 -0.5068
 2042SOL    HW116460   8.418   3.968   0.497  1.3704  1.2471 -0.0709
 2042SOL    HW216461   8.408   4.026   0.344 -0.1387 -0.1512 -0.5172
 2043SOL     OW16462   2.899   6.905   2.736 -0.9708 -0.1107  0.0321
 2043SOL    HW116463   2.992   6.885   2.705 -0.2971  1.3653  1.0624
 2043SOL    HW216464   2.899   6.987   2.793 -3.0894  0.6167 -0.9454
 2044SOL     OW16465   3.653   5.076   2.573 -0.0818  0.3668  0.0544
 2044SOL    HW116466   3.609   5.086   2.662  0.0034  0.1612  0.1190
 2044SOL    HW216467   3.691   4.984   2.564 -2.5354 -0.5397 -1.3127
 2045SOL     OW16468   6.110   7.973   2.344 -0.0207  0.7022 -0.3161
 2045SOL    HW116469   6.157   7.955   2.430  0.0306 -0.2289 -0.5394
 2045SOL    HW216470   6.046   7.899   2.324  1.4359 -0.1445 -2.0860
 2046SOL     OW16471   0.071   7.400   0.655  0.1334 -0.1224 -0.1613
 2046SOL    HW116472   0.051   7.315   0.605  1.6898 -0.6406  0.0648
 2046SOL    HW216473   0.102   7.377   0.747 -0.9639  0.7637  0.4330
 2047SOL     OW16474   3.027   0.670   0.391 -0.0151 -0.1355  0.2131
 2047SOL    HW116475   3.068   0.670   0.482 -1.1197  1.0314  0.7340
 2047SOL    HW216476   2.957   0.598   0.387  0.4680 -0.6013  0.0755
 2048SOL     OW16477   4.185   0.658   1.137  0.0729 -0.4041  0.1338
 2048SOL    HW116478   4.248   0.731   1.110 -1.0886  0.4040 -0.4329
 2048SOL    HW216479   4.235   0.571   1.144  1.7305  0.6541  2.0570
 2049SOL     OW16480   0.933   4.938   2.631  0.6568 -0.0519  0.6480
 2049SOL    HW116481   0.891   4.898   2.550  1.8165 -0.3563  0.1765
 2049SOL    HW216482   0.909   4.884   2.711 -0.5155  0.2629  0.5081
 2050SOL     OW16483   0.617   7.367   1.269 -0.1577 -0.5258 -0.1163
 2050SOL    HW116484   0.688   7.432   1.241 -0.2735  0.0368  0.8354
 2050SOL    HW216485   0.533   7.384   1.217  0.1127 -0.5665 -0.5688
 2051SOL     OW16486   4.333   9.515   1.668  0.4438 -0.0833 -0.0905
 2051SOL    HW116487   4.269   9.587   1.694 -0.3152 -0.5310 -0.6862
 2051SOL    HW216488   4.310   9.431   1.716  0.6125 -0.2393 -0.2819
 2052SOL     OW16489   4.858   7.991   0.071  0.0224  0.1838  0.6270
 2052SOL    HW116490   4.822   7.898   0.073 -0.0895  0.2353  1.1495
 2052SOL    HW216491   4.792   8.053   0.113  1.4894 -0.0079  3.3318
 2053SOL     OW16492   2.137   3.178   2.292  0.1594 -0.1325 -0.0167
 2053SOL    HW116493   2.062   3.130   2.247  0.0577  1.2622 -1.3351
 2053SOL    HW216494   2.203   3.209   2.224 -0.0532  2.0871  0.7586
 2054SOL     OW16495   1.594   4.095   1.575  0.7273  0.1835  0.2200
 2054SOL    HW116496   1.565   4.019   1.518 -0.3168  0.6020  0.1852
 2054SOL    HW216497   1.574   4.075   1.671 -1.4338  1.2337  0.0298
 2055SOL     OW16498   4.610   9.702   2.626  0.1255  0.6868  0.2997
 2055SOL    HW116499   4.541   9.730   2.694  1.0411  0.4495  1.3369
 2055SOL    HW216500   4.567   9.699   2.536 -1.2798  0.3837  0.9491
 2056SOL     OW16501   0.165   8.069   3.271  0.1598 -0.1834 -0.0243
 2056SOL    HW116502   0.093   8.061   3.203 -0.4698  0.0708  0.6053
 2056SOL    HW216503   0.255   8.071   3.226 -0.2304 -0.4019 -0.8091
 2057SOL     OW16504   0.934   3.600   2.620 -0.2048  0.2639  0.0592
 2057SOL    HW116505   0.938   3.674   2.553  0.5779 -0.4377 -0.6793
 2057SOL    HW216506   0.907   3.637   2.709 -0.8500  1.2657 -0.5419
 2058SOL     OW16507   4.165   2.106   0.712 -0.6022  0.7919  0.5900
 2058SOL    HW116508   4.160   2.152   0.800  2.0529  0.1665  1.1191
 2058SOL    HW216509   4.199   2.013   0.725 -1.2671  0.3088 -0.9853
 2059SOL     OW16510   9.383   7.325   0.076 -0.4113  0.1996 -0.7102
 2059SOL    HW116511   9.292   7.286   0.092 -1.9868  3.7835 -0.4290
 2059SOL    HW216512   9.434   7.328   0.162  0.6299 -3.1662 -1.1211
 2060SOL     OW16513   4.301   4.088   2.500 -0.4627  0.2891 -0.1607
 2060SOL    HW116514   4.245   4.166   2.474 -0.7313  0.3571  0.6400
 2060SOL    HW216515   4.244   4.006   2.505 -0.2018  0.0540 -0.8884
 2061SOL     OW16516   1.005   7.633   0.400  0.0674 -0.5147  0.4603
 2061SOL    HW116517   1.073   7.696   0.362  0.2818 -1.4657 -0.7725
 2061SOL    HW216518   1.001   7.551   0.343 -2.7442 -0.1142  0.0114
 2062SOL     OW16519   7.523   1.604   2.109 -0.1301  0.0240 -0.5667
 2062SOL    HW116520   7.523   1.617   2.208 -1.6095  0.3405 -0.5920
 2062SOL    HW216521   7.431   1.579   2.079  0.6825 -1.7635 -1.6579
 2063SOL     OW16522   9.027   6.245   1.383 -0.1142 -0.3130 -0.1961
 2063SOL    HW116523   9.027   6.233   1.482 -3.2288  0.0244 -0.0986
 2063SOL    HW216524   8.966   6.320   1.359  1.1495  0.0598 -2.3398
 2064SOL     OW16525   7.422   1.441   0.796 -0.5610 -0.0057  0.2241
 2064SOL    HW116526   7.336   1.462   0.842  0.7469  0.1799  2.6576
 2064SOL    HW216527   7.438   1.343   0.796 -0.0416  0.0807  1.1130
 2065SOL     OW16528   8.994   8.765   2.959  0.1662 -0.3926 -0.0074
 2065SOL    HW116529   8.961   8.832   2.893 -0.3591 -0.3712  0.2738
 2065SOL    HW216530   9.081   8.728   2.928  0.4961  0.4737 -0.1264
 2066SOL     OW16531   2.507   9.960   3.445  0.2567 -0.2290 -0.6066
 2066SOL    HW116532   2.591   9.910   3.467  0.1029  0.4530  1.5770
 2066SOL    HW216533   2.430   9.896   3.442  0.5159 -0.5420 -0.6408
 2067SOL     OW16534   5.226   3.677   0.407  0.5228  0.3771 -0.0198
 2067SOL    HW116535   5.196   3.772   0.397  1.1641  0.6911  0.9824
 2067SOL    HW216536   5.164   3.628   0.468  0.4295  0.2619 -0.2059
 2068SOL     OW16537   0.349   6.878   1.457  0.2808 -0.1151 -0.5962
 2068SOL    HW116538   0.347   6.781   1.432  1.3013  0.0149 -1.2057
 2068SOL    HW216539   0.294   6.930   1.391 -0.9438 -0.3732  0.2051
 2069SOL     OW16540   1.066   2.521   0.167 -0.6414  0.2287 -0.0711
 2069SOL    HW116541   1.056   2.621   0.161  1.9368  0.4380 -1.6393
 2069SOL    HW216542   1.086   2.496   0.262  1.9766  1.5972 -0.2131
 2070SOL     OW16543   0.749   3.617   1.330  0.3151  0.4162  0.1032
 2070SOL    HW116544   0.712   3.610   1.237  1.0740 -1.0180 -0.0999
 2070SOL    HW216545   0.687   3.572   1.394  1.8494 -2.3874 -0.2957
 2071SOL     OW16546   0.206   4.270   0.757  0.1517  0.1542  0.3111
 2071SOL    HW116547   0.265   4.351   0.760  1.2042 -0.6197  0.5930
 2071SOL    HW216548   0.131   4.281   0.823 -0.8173  1.7400 -1.0217
 2072SOL     OW16549   1.726   8.206   1.233  0.1573  0.0737 -0.4171
 2072SOL    HW116550   1.645   8.162   1.192 -1.3044  2.2931  0.0274
 2072SOL    HW216551   1.722   8.304   1.218  1.6205  0.4732  1.6064
 2073SOL     OW16552   0.276   8.032   2.566 -0.2884 -0.3377  0.0149
 2073SOL    HW116553   0.269   7.940   2.528 -0.3642  0.3193 -1.5988
 2073SOL    HW216554   0.193   8.083   2.546  0.6623  0.8080 -1.1006
 2074SOL     OW16555   1.441   3.000   2.567 -0.3411  0.1479  0.1722
 2074SOL    HW116556   1.452   2.908   2.605  1.7566  0.5308  0.4994
 2074SOL    HW216557   1.358   3.002   2.510 -1.7503 -1.2703  2.1217
 2075SOL     OW16558   0.212   9.508   2.090  0.5345 -0.0260  0.3642
 2075SOL    HW116559   0.299   9.460   2.076  1.2120  1.5762 -1.1171
 2075SOL    HW216560   0.211   9.591   2.034 -0.9458  1.2717  2.2575
 2076SOL     OW16561   0.561   8.358   1.545  0.1176  0.4567 -0.0927
 2076SOL    HW116562   0.623   8.280   1.539  1.1017  0.9996  2.4041
 2076SOL    HW216563   0.548   8.383   1.641 -3.1232  1.0443 -0.6160
 2077SOL     OW16564   3.789   8.056   0.734 -0.0325  0.2818 -0.0684
 2077SOL    HW116565   3.813   8.028   0.826 -0.1727 -0.0046 -0.1188
 2077SOL    HW216566   3.744   7.981   0.686 -0.0683  0.4666 -0.3304
 2078SOL     OW16567   8.538   8.657   0.554 -0.1625  0.2278  0.2943
 2078SOL    HW116568   8.525   8.598   0.634  0.1592 -1.5458 -0.9158
 2078SOL    HW216569   8.607   8.727   0.574  1.3831 -1.4323  0.9440
 2079SOL     OW16570   1.253   0.375   2.431 -0.3371 -0.0454  0.1582
 2079SOL    HW116571   1.229   0.310   2.359 -2.1586  0.3226  0.3930
 2079SOL    HW216572   1.319   0.334   2.493 -0.9584 -1.4272 -0.0767
 2080SOL     OW16573   3.404   0.343   2.551  0.1122  0.5978 -0.3129
 2080SOL    HW116574   3.466   0.264   2.556 -0.8547 -0.2488 -1.4995
 2080SOL    HW216575   3.418   0.401   2.631  0.7712 -0.8372  0.6351
 2081SOL     OW16576   9.439   4.421   3.148 -0.3974 -0.1948  0.0652
 2081SOL    HW116577   9.413   4.440   3.054 -2.2450  2.2439  0.9963
 2081SOL    HW216578   9.364   4.373   3.194  0.4150 -1.2011  0.3562
 2082SOL     OW16579   3.334   6.818   1.703 -0.2770  0.3380 -0.4056
 2082SOL    HW116580   3.329   6.781   1.610  0.7535  0.4852 -0.5279
 2082SOL    HW216581   3.364   6.913   1.699 -0.3956  0.3954  0.0740
 2083SOL     OW16582   1.880   1.803   0.839 -0.0802 -0.4358  0.1692
 2083SOL    HW116583   1.846   1.875   0.779  0.8809 -0.5795 -0.5643
 2083SOL    HW216584   1.979   1.813   0.850  0.1169 -1.8748 -0.2494
 2084SOL     OW16585   1.390   5.916   1.084  0.9364 -0.1994 -0.2622
 2084SOL    HW116586   1.464   5.900   1.150 -0.0314 -2.8591  0.2423
 2084SOL    HW216587   1.316   5.965   1.128  0.6087 -1.3103  0.4311
 2085SOL     OW16588   3.303   4.054   2.728  0.2498 -0.2518  0.1417
 2085SOL    HW116589   3.306   4.038   2.629  1.3869  1.8178 -0.1808
 2085SOL    HW216590   3.393   4.035   2.767  0.1769  0.2739  0.5646
 2086SOL     OW16591   3.472   9.368   1.563  0.0978 -0.1134 -0.0821
 2086SOL    HW116592   3.471   9.291   1.499  0.4171  0.2551 -0.5302
 2086SOL    HW216593   3.536   9.437   1.531  0.5436 -0.0939  0.8353
 2087SOL     OW16594   1.226   4.988   0.018 -0.2454  0.4511  0.2702
 2087SOL    HW116595   1.236   4.919  -0.053 -0.5370  0.5784  0.1076
 2087SOL    HW216596   1.138   5.035   0.009  0.4309  1.6326 -0.3231
 2088SOL     OW16597   3.042   5.726   2.286 -0.1792 -0.2526  0.3776
 2088SOL    HW116598   3.116   5.714   2.219  0.0236 -1.0314  0.7256
 2088SOL    HW216599   3.021   5.637   2.328 -1.3822 -0.0557  0.2149
 2089SOL     OW16600   0.065   7.573   1.576  0.1436  0.2979  0.3118
 2089SOL    HW116601  -0.034   7.562   1.579  0.0968  0.9865  1.4452
 2089SOL    HW216602   0.090   7.668   1.591  0.8995  0.5287 -2.1851
 2090SOL     OW16603   8.258   1.062   3.041  0.2055  0.7448  0.2896
 2090SOL    HW116604   8.288   1.157   3.041  1.5553  0.3379 -1.2741
 2090SOL    HW216605   8.201   1.046   2.960  1.2360 -0.1658 -0.2536
 2091SOL     OW16606   1.832   7.429   2.190 -0.0191  0.1020 -0.7538
 2091SOL    HW116607   1.752   7.370   2.198  0.6859 -0.5038  2.6537
 2091SOL    HW216608   1.810   7.509   2.134 -3.3307  0.5342  1.0877
 2092SOL     OW16609   9.401   2.694   0.457  0.1653 -0.8886  0.1303
 2092SOL    HW116610   9.320   2.726   0.506  0.0708 -1.7554  0.5479
 2092SOL    HW216611   9.378   2.674   0.362  0.5232  1.5948 -0.5303
 2093SOL     OW16612   2.480   9.990   0.891 -0.2978 -0.2308 -0.1163
 2093SOL    HW116613   2.485   9.891   0.897  0.5700 -0.1151  1.2816
 2093SOL    HW216614   2.535  10.031   0.964  0.5871  1.2821 -1.6186
 2094SOL     OW16615   9.056   4.148   0.608  0.0448 -0.2178 -0.4190
 2094SOL    HW116616   9.046   4.190   0.519  0.3603 -1.9183 -1.2783
 2094SOL    HW216617   9.089   4.054   0.598  2.7426  0.4443  1.6027
 2095SOL     OW16618   9.584   5.395   0.954  0.0730 -0.7115  0.2077
 2095SOL    HW116619   9.485   5.402   0.965  0.0612  0.5479 -0.6272
 2095SOL    HW216620   9.629   5.430   1.037 -0.1724 -0.5157  0.2588
 2096SOL     OW16621   2.858   8.562   0.264 -0.1328  0.1919 -0.0663
 2096SOL    HW116622   2.926   8.550   0.336  0.2119 -0.2951 -0.4695
 2096SOL    HW216623   2.770   8.585   0.304 -0.4372 -2.0964  0.6281
 2097SOL     OW16624   4.969   9.165   2.887  0.4925  0.2199 -0.4533
 2097SOL    HW116625   5.061   9.126   2.900  0.5866  0.9875  1.3227
 2097SOL    HW216626   4.974   9.239   2.819  0.6563 -1.5481 -2.4365
 2098SOL     OW16627   4.198   8.062   0.317 -0.3247 -0.0195 -0.1496
 2098SOL    HW116628   4.249   8.129   0.371  0.5071 -0.9712  0.2706
 2098SOL    HW216629   4.160   8.106   0.236 -0.1230  1.0437  0.3289
 2099SOL     OW16630   1.223   8.374   2.084  0.3140 -0.6253  0.1515
 2099SOL    HW116631   1.206   8.276   2.068  0.6602 -0.6302 -0.2214
 2099SOL    HW216632   1.319   8.394   2.061 -0.3299  0.2339 -1.8897
 2100SOL     OW16633   8.680   4.347   3.053 -0.3187 -0.0257 -0.3314
 2100SOL    HW116634   8.657   4.313   3.145  3.0173 -0.2598  0.4901
 2100SOL    HW216635   8.643   4.440   3.042 -0.4866  0.1267  1.3635
 2101SOL     OW16636   3.338   6.154   2.648  0.1682  0.1048 -0.1612
 2101SOL    HW116637   3.423   6.154   2.595  0.3242  2.1967  0.0087
 2101SOL    HW216638   3.261   6.172   2.588  0.6449  5.4677  0.5654
 2102SOL     OW16639   9.737   3.712   2.943 -0.0004 -0.5545  0.5658
 2102SOL    HW116640   9.816   3.694   2.884 -0.6218 -1.4082 -0.0156
 2102SOL    HW216641   9.736   3.646   3.018  1.3587  1.1499  2.1494
 2103SOL     OW16642   8.897   9.000   2.792 -0.6706  0.5305 -0.3656
 2103SOL    HW116643   8.988   9.036   2.770 -1.1648  1.5316 -0.8070
 2103SOL    HW216644   8.829   9.049   2.739 -1.2840 -1.8087 -1.8242
 2104SOL     OW16645   9.426   6.583   3.078 -0.2386 -0.6771  0.2709
 2104SOL    HW116646   9.422   6.679   3.051 -0.4728 -0.5212  0.8684
 2104SOL    HW216647   9.334   6.550   3.100 -0.7110 -1.9936 -3.2520
 2105SOL     OW16648   8.341   8.447   2.304  0.2667  0.2978 -0.1764
 2105SOL    HW116649   8.287   8.501   2.368 -0.3434 -0.6102  0.0813
 2105SOL    HW216650   8.296   8.446   2.215 -0.7233 -1.3419  0.3178
 2106SOL     OW16651   3.347   9.559   2.450  0.1675  0.3331  0.1215
 2106SOL    HW116652   3.274   9.609   2.497  0.2323 -0.5389  1.1702
 2106SOL    HW216653   3.314   9.529   2.360 -0.1403  1.5410 -0.1774
 2107SOL     OW16654   1.118   9.115   0.668 -0.2960  0.2685  0.5255
 2107SOL    HW116655   1.140   9.048   0.597 -0.7335  0.0795  0.5665
 2107SOL    HW216656   1.063   9.189   0.629 -2.5182 -1.0153  1.1500
 2108SOL     OW16657   1.753   5.693   0.919 -0.6909  0.3193 -0.0382
 2108SOL    HW116658   1.807   5.687   0.836  0.2366  0.2505  0.5588
 2108SOL    HW216659   1.727   5.789   0.936 -0.0661  0.4643  0.1038
 2109SOL     OW16660   0.360   0.048   1.431  0.1449  0.2733 -0.1368
 2109SOL    HW116661   0.450   0.013   1.405 -0.2272 -0.8113  0.0250
 2109SOL    HW216662   0.357   0.061   1.530  0.2339  0.6233 -0.1801
 2110SOL     OW16663   1.666   8.972   2.753 -0.2769  0.1068 -0.0901
 2110SOL    HW116664   1.620   8.984   2.841 -2.3986 -1.3338 -0.9509
 2110SOL    HW216665   1.633   9.040   2.688  0.8492  0.7960  0.0563
 2111SOL     OW16666   0.362   2.798   1.237 -0.7970  0.0368 -0.2307
 2111SOL    HW116667   0.422   2.735   1.286  0.0520  1.2452  0.2942
 2111SOL    HW216668   0.396   2.809   1.143  0.6259  1.7876  0.4672
 2112SOL     OW16669   3.635   4.222   1.563 -0.0866  0.0531  0.6662
 2112SOL    HW116670   3.590   4.261   1.643 -1.2332  0.1321 -0.0113
 2112SOL    HW216671   3.722   4.268   1.548 -0.1694  0.4776  1.4798
 2113SOL     OW16672   9.875   1.844   2.884 -0.2493  0.5043  0.3743
 2113SOL    HW116673   9.946   1.911   2.907  0.6429 -0.5264  0.6875
 2113SOL    HW216674   9.848   1.794   2.967 -0.5105  0.1035  0.0502
 2114SOL     OW16675   3.758   0.552   0.342 -0.2990  0.6497  0.1771
 2114SOL    HW116676   3.770   0.536   0.440 -1.6888 -1.0162  0.0902
 2114SOL    HW216677   3.816   0.489   0.291 -1.4065 -0.1529 -0.0961
 2115SOL     OW16678   9.656   0.158   1.573 -0.2080 -0.1547 -0.2800
 2115SOL    HW116679   9.628   0.134   1.666 -2.1062 -2.0537 -1.3206
 2115SOL    HW216680   9.581   0.202   1.525  0.2852 -0.5076 -1.3946
 2116SOL     OW16681   2.740   0.564   0.078 -0.0089  0.3413 -0.4048
 2116SOL    HW116682   2.770   0.469   0.085 -0.4609  0.2788  0.8223
 2116SOL    HW216683   2.657   0.569   0.023 -0.3476 -0.0660  0.0592
 2117SOL     OW16684   4.181   5.082   2.157 -0.0789 -0.2474  0.6018
 2117SOL    HW116685   4.132   5.028   2.225  0.7126  0.4425  1.7460
 2117SOL    HW216686   4.275   5.050   2.150 -0.2570 -0.5631 -0.4632
 2118SOL     OW16687   5.509   8.689   2.812 -0.1847  0.6781  0.4639
 2118SOL    HW116688   5.560   8.684   2.898 -0.4154  1.2931  0.6424
 2118SOL    HW216689   5.547   8.624   2.746  1.2675  1.6054  0.3669
 2119SOL     OW16690   1.408   3.073   1.907 -0.2068  0.0789 -0.4267
 2119SOL    HW116691   1.434   3.112   1.995 -2.0198 -2.0222  1.0915
 2119SOL    HW216692   1.468   2.997   1.884 -0.8814 -0.5633 -0.0907
 2120SOL     OW16693   4.546   9.027   0.104 -0.2905  0.1999 -0.0189
 2120SOL    HW116694   4.554   9.110   0.159 -1.4364 -0.8133  1.7418
 2120SOL    HW216695   4.630   8.974   0.111  0.1672  0.8429 -0.5609
 2121SOL     OW16696   8.032   8.791   2.043  0.0802 -0.2260 -0.2079
 2121SOL    HW116697   8.016   8.713   2.103 -1.2170  1.4736  1.7454
 2121SOL    HW216698   8.126   8.823   2.055  0.2928 -0.8398 -0.2207
 2122SOL     OW16699   4.652   0.568   2.296  0.0136  0.1621 -0.0386
 2122SOL    HW116700   4.647   0.665   2.274 -0.3993  0.1598  0.0415
 2122SOL    HW216701   4.693   0.556   2.387  2.8943  0.1129 -1.2708
 2123SOL     OW16702   0.269   4.243   2.266  0.1968 -0.0638  0.1524
 2123SOL    HW116703   0.246   4.185   2.344 -0.6354 -0.6542 -0.5137
 2123SOL    HW216704   0.342   4.306   2.291  0.7293 -1.0247  1.0688
 2124SOL     OW16705   0.769   0.377   2.987 -0.0368 -0.2064  0.3852
 2124SOL    HW116706   0.722   0.306   2.935 -2.2778  0.4934  1.3878
 2124SOL    HW216707   0.773   0.351   3.083  3.3183 -1.0968  0.0563
 2125SOL     OW16708   9.121   9.205   0.515  0.3365 -0.1912  0.5327
 2125SOL    HW116709   9.093   9.111   0.498  0.8687 -0.3164  0.3470
 2125SOL    HW216710   9.187   9.208   0.590  0.0547  0.0722  0.7749
 2126SOL     OW16711   0.095   8.681   2.750  0.1422 -0.3058 -0.3420
 2126SOL    HW116712   0.144   8.730   2.678  0.4393 -1.2423 -0.7845
 2126SOL    HW216713  -0.001   8.669   2.723  0.0105  0.2424 -0.1233
 2127SOL     OW16714   9.703   1.096   2.163  0.7121 -0.2059  0.0619
 2127SOL    HW116715   9.794   1.130   2.142  0.7530  0.0255  0.6028
 2127SOL    HW216716   9.650   1.088   2.079  1.4231 -0.9062 -0.3327
 2128SOL     OW16717   0.727   7.208   1.952 -0.2573  0.6112  0.2400
 2128SOL    HW116718   0.648   7.199   2.013 -0.8404  1.5496 -0.3699
 2128SOL    HW216719   0.700   7.181   1.860  0.2200  0.6596  0.0879
 2129SOL     OW16720   4.784   3.612   0.960 -0.1774 -0.2059  0.0920
 2129SOL    HW116721   4.775   3.512   0.966 -2.0479  0.0364  1.9418
 2129SOL    HW216722   4.878   3.636   0.938  0.5233 -2.3600  0.6390
 2130SOL     OW16723   9.096   8.437   1.789 -0.4098 -0.0898 -0.5209
 2130SOL    HW116724   9.090   8.396   1.698  0.7934  1.2183 -1.2181
 2130SOL    HW216725   9.049   8.526   1.788 -2.6357 -1.2216  0.8518
 2131SOL     OW16726   4.297   2.745   2.000 -0.0209 -0.3195  0.1137
 2131SOL    HW116727   4.287   2.772   2.096 -0.4346  0.4680 -0.1531
 2131SOL    HW216728   4.331   2.822   1.947 -0.6628 -0.4886 -0.5409
 2132SOL     OW16729   1.778   7.036   2.915 -0.1116 -0.2603 -0.0914
 2132SOL    HW116730   1.870   7.004   2.891 -0.0288 -0.1144  0.0244
 2132SOL    HW216731   1.716   6.958   2.922 -0.1751 -0.2872 -0.9263
 2133SOL     OW16732   2.243   8.971   1.584  0.2176 -0.2949  0.5606
 2133SOL    HW116733   2.272   8.888   1.632  1.7529 -0.0520  0.0784
 2133SOL    HW216734   2.166   8.950   1.524  0.5712 -1.3620  0.4655
 2134SOL     OW16735   0.814   5.760   3.337 -0.0679  0.1261  0.3123
 2134SOL    HW116736   0.900   5.794   3.373 -0.6787  1.9674  0.1236
 2134SOL    HW216737   0.819   5.755   3.237 -0.4215  1.0061  0.2409
 2135SOL     OW16738   0.991   2.082   2.241 -0.3128 -0.5252 -1.0248
 2135SOL    HW116739   1.004   2.121   2.150 -1.4307  1.3791 -0.4161
 2135SOL    HW216740   1.075   2.091   2.294 -0.4611  0.8231 -1.0003
 2136SOL     OW16741   4.628   0.939   3.243  0.2566 -0.2984 -0.5550
 2136SOL    HW116742   4.699   0.982   3.187  1.0578 -1.4523 -0.4425
 2136SOL    HW216743   4.610   0.847   3.209 -0.1277 -0.5548  0.3240
 2137SOL     OW16744   8.657   2.349   2.748  0.0191 -0.4682 -0.0680
 2137SOL    HW116745   8.630   2.440   2.717  0.3450 -0.6367 -0.8509
 2137SOL    HW216746   8.661   2.287   2.670 -3.9856 -2.1353  0.9417
 2138SOL     OW16747   9.640   1.332   0.431  0.5095 -0.0138  0.4298
 2138SOL    HW116748   9.564   1.343   0.367  0.7614 -0.8254 -0.0104
 2138SOL    HW216749   9.645   1.237   0.462  1.5306 -0.0364  0.2128
 2139SOL     OW16750   2.666   6.873   0.179 -0.2499 -0.4795  0.1415
 2139SOL    HW116751   2.595   6.816   0.222  0.8531 -0.4228  2.0740
 2139SOL    HW216752   2.733   6.899   0.248  1.9869 -1.0184 -1.8027
 2140SOL     OW16753   3.047   5.120   0.037  0.0120  0.2391  0.4042
 2140SOL    HW116754   2.959   5.073   0.048  0.1583  0.2786  1.8694
 2140SOL    HW216755   3.069   5.127  -0.060 -0.1924 -2.3641  0.1373
 2141SOL     OW16756   3.286   5.859   0.839 -0.1678  0.3033  0.3507
 2141SOL    HW116757   3.186   5.853   0.842 -0.2793 -0.1907 -2.4952
 2141SOL    HW216758   3.326   5.771   0.863 -0.5189 -0.2283 -0.9746
 2142SOL     OW16759   3.326   1.916   1.682  0.3859 -0.3152 -0.4096
 2142SOL    HW116760   3.239   1.966   1.673  0.3363 -0.2501  0.3827
 2142SOL    HW216761   3.354   1.916   1.777 -0.4729 -3.2370 -0.0946
 2143SOL     OW16762   4.678   3.354   0.981  0.3212  0.1170  0.4137
 2143SOL    HW116763   4.634   3.394   0.901  1.1545  0.2641  0.0235
 2143SOL    HW216764   4.670   3.254   0.976 -1.5947  0.2105  1.2969
 2144SOL     OW16765   4.444   7.396   3.152  0.2831 -0.3659  0.0995
 2144SOL    HW116766   4.408   7.348   3.072 -0.9597  1.7332 -0.6486
 2144SOL    HW216767   4.403   7.358   3.235 -0.7056 -0.5778 -0.4767
 2145SOL     OW16768   5.694   0.247   3.083  0.0393 -0.0644  0.1512
 2145SOL    HW116769   5.684   0.292   2.994 -0.3081  0.1032  0.2712
 2145SOL    HW216770   5.790   0.246   3.110  0.4975 -2.5091 -1.4538
 2146SOL     OW16771   0.058   2.984   3.005 -0.3427  0.0753 -0.1164
 2146SOL    HW116772   0.118   2.999   3.084  0.4144  2.2725 -1.0809
 2146SOL    HW216773  -0.037   3.001   3.033  0.0144  1.7624  0.1043
 2147SOL     OW16774   0.421   4.491   0.024 -0.2154  0.2289  0.7753
 2147SOL    HW116775   0.477   4.573   0.011 -0.9797  0.7977  1.0168
 2147SOL    HW216776   0.464   4.433   0.094  0.8861 -0.0987 -0.1501
 2148SOL     OW16777   0.123   0.414   2.375 -0.0944 -0.1251  0.6245
 2148SOL    HW116778   0.059   0.483   2.342  0.0322  0.0116  0.6663
 2148SOL    HW216779   0.128   0.416   2.474 -0.7161 -0.7529  0.6757
 2149SOL     OW16780   2.676   4.238   2.812  0.1409 -0.6978 -0.0616
 2149SOL    HW116781   2.761   4.282   2.783 -0.3941  0.2221 -0.2345
 2149SOL    HW216782   2.689   4.138   2.811  0.9414 -0.5989 -0.9387
 2150SOL     OW16783   8.059   6.411   0.280  0.6236  0.2782 -0.4003
 2150SOL    HW116784   8.087   6.321   0.246 -0.5256 -0.0947 -0.3572
 2150SOL    HW216785   7.980   6.401   0.340  0.4778  1.3257 -0.4146
 2151SOL     OW16786   1.958   1.810   3.420  0.1702  0.5011 -0.6125
 2151SOL    HW116787   1.898   1.790   3.497  2.2836 -1.7475  0.5151
 2151SOL    HW216788   1.903   1.828   3.338 -2.0484  0.8640  0.9141
 2152SOL     OW16789   0.331   2.179   1.315  0.7219  0.0226 -0.2486
 2152SOL    HW116790   0.248   2.204   1.366 -0.8741 -0.2914 -2.6061
 2152SOL    HW216791   0.377   2.104   1.361 -1.3818 -1.1024  0.0965
 2153SOL     OW16792   0.902   8.634   0.912 -0.1691 -0.4013 -0.0413
 2153SOL    HW116793   0.925   8.578   0.832 -0.1542  0.2503 -0.4964
 2153SOL    HW216794   0.985   8.672   0.951 -0.2675  0.1396 -0.3511
 2154SOL     OW16795   8.592   9.617   1.371 -0.0105 -0.0089  0.3014
 2154SOL    HW116796   8.681   9.644   1.408  0.5802 -1.3130 -0.1383
 2154SOL    HW216797   8.603   9.538   1.311 -1.0889  1.5521 -2.0132
 2155SOL     OW16798   0.992   4.105   1.796  0.8055  0.2391  0.3602
 2155SOL    HW116799   1.066   4.071   1.737  0.4114  1.7337 -1.0179
 2155SOL    HW216800   1.011   4.078   1.891  2.8870  0.2224 -0.0267
 2156SOL     OW16801   8.195   4.279   0.367  0.1459 -0.2478 -0.2847
 2156SOL    HW116802   8.254   4.352   0.401 -0.5884 -0.0834  0.6651
 2156SOL    HW216803   8.249   4.214   0.313  1.5065 -0.9122  1.8264
 2157SOL     OW16804   9.006   7.672   2.164  0.3529 -0.2785  0.0900
 2157SOL    HW116805   9.015   7.574   2.182  1.7502 -0.4478 -1.3903
 2157SOL    HW216806   9.095   7.708   2.136 -0.3118  1.2786 -0.0201
 2158SOL     OW16807   7.952   8.311   2.470 -0.4334 -0.5786  0.4193
 2158SOL    HW116808   7.860   8.339   2.498 -0.1861  1.3289 -0.5388
 2158SOL    HW216809   7.951   8.215   2.443 -2.7024 -0.0008 -1.8374
 2159SOL     OW16810   1.276   2.221   0.470 -0.1609 -0.0721 -0.1947
 2159SOL    HW116811   1.204   2.290   0.461 -1.0843 -1.0169 -0.2565
 2159SOL    HW216812   1.268   2.155   0.395  0.3591 -0.5499  0.1635
 2160SOL     OW16813   0.813   8.910   1.948 -0.1519  0.8947  0.0045
 2160SOL    HW116814   0.896   8.860   1.924 -0.6256  0.7475 -1.3823
 2160SOL    HW216815   0.733   8.858   1.916 -0.7669  1.1188  1.1736
 2161SOL     OW16816   9.950   9.274   0.056 -0.0726  0.2779 -0.9067
 2161SOL    HW116817   9.878   9.210   0.084  0.0217 -0.4524 -2.2665
 2161SOL    HW216818  10.017   9.283   0.130 -0.0647 -1.2511 -0.7058
 2162SOL     OW16819   4.032   8.282   1.802 -0.7557  0.0513  0.2517
 2162SOL    HW116820   4.106   8.302   1.866 -2.6689  2.0318  1.8847
 2162SOL    HW216821   4.014   8.362   1.745 -0.4302 -1.0372 -1.4361
 2163SOL     OW16822   4.360   9.900   1.295 -0.6198  0.3572 -0.5056
 2163SOL    HW116823   4.320   9.856   1.214  0.9915 -0.3032 -0.9698
 2163SOL    HW216824   4.290   9.952   1.343 -2.0057 -0.7036 -1.3392
 2164SOL     OW16825   0.654   0.772   0.723  0.1656  0.0564 -0.0993
 2164SOL    HW116826   0.672   0.791   0.820  1.6966 -0.9999 -0.1534
 2164SOL    HW216827   0.583   0.702   0.716  0.8922 -0.7315  0.3031
 2165SOL     OW16828   1.545   7.480   1.570  0.7366 -0.1049 -0.1007
 2165SOL    HW116829   1.557   7.385   1.599 -0.4308 -0.2234  0.0357
 2165SOL    HW216830   1.527   7.483   1.472  0.5645 -0.0402 -0.0669
 2166SOL     OW16831   1.528   3.491   0.674  0.3908  0.2626 -0.1911
 2166SOL    HW116832   1.441   3.443   0.682  0.8299 -0.7304 -1.1924
 2166SOL    HW216833   1.558   3.491   0.578  1.3436  0.8521  0.0923
 2167SOL     OW16834   9.737   8.004   2.145  0.0109 -0.3966  0.1771
 2167SOL    HW116835   9.653   8.041   2.106 -0.6017  0.2756  2.0603
 2167SOL    HW216836   9.757   8.052   2.231  0.6430 -2.6407  1.3081
 2168SOL     OW16837   1.905   3.499   0.955 -0.8367  0.2091 -0.3905
 2168SOL    HW116838   1.870   3.511   1.048  0.1809  0.7881 -0.0754
 2168SOL    HW216839   1.852   3.556   0.892 -0.3402  1.2521  0.1204
 2169SOL     OW16840   9.309   0.207   1.023  0.4391  0.1389  0.0773
 2169SOL    HW116841   9.240   0.216   0.952  1.4869 -0.5924 -1.0447
 2169SOL    HW216842   9.264   0.204   1.113 -0.8462  1.6011 -0.4930
 2170SOL     OW16843   8.145   1.659   0.741  0.1522 -0.1324 -0.1051
 2170SOL    HW116844   8.141   1.710   0.655  0.2988  0.2850  0.1363
 2170SOL    HW216845   8.098   1.710   0.813 -0.5376 -0.7804 -0.0836
 2171SOL     OW16846   2.783   8.943   1.286  0.1061 -0.4272  0.2325
 2171SOL    HW116847   2.699   8.997   1.277  0.8314  0.8230  0.7545
 2171SOL    HW216848   2.819   8.953   1.379  3.0452  2.4565 -1.0856
 2172SOL     OW16849   0.462   7.920   3.104  0.0762 -0.0644 -0.3617
 2172SOL    HW116850   0.499   7.839   3.149  1.8969  0.0044 -1.6686
 2172SOL    HW216851   0.364   7.908   3.089 -0.2504 -0.7476  2.1186
 2173SOL     OW16852   2.115   1.922   0.901 -0.2796  0.3225 -0.1736
 2173SOL    HW116853   2.143   2.014   0.926 -1.2104  0.5345  0.0992
 2173SOL    HW216854   2.196   1.866   0.884  0.2900  1.1177 -0.0877
 2174SOL     OW16855   1.173   2.429   2.160 -0.1373 -0.1874  0.3143
 2174SOL    HW116856   1.185   2.388   2.070 -0.7899 -0.4085  0.3232
 2174SOL    HW216857   1.262   2.450   2.200  0.1727 -0.6909 -0.1083
 2175SOL     OW16858   1.159   5.770   1.773  0.0586  0.2591 -0.2757
 2175SOL    HW116859   1.067   5.766   1.813 -0.0496  1.4818 -0.3871
 2175SOL    HW216860   1.175   5.688   1.718 -1.5964  0.7910 -1.5984
 2176SOL     OW16861   8.353   5.342   0.177 -0.2459  0.2826  0.2245
 2176SOL    HW116862   8.347   5.421   0.238 -0.6854  0.7006 -0.3511
 2176SOL    HW216863   8.278   5.278   0.199  0.1006  0.0280  0.6804
 2177SOL     OW16864   9.038   4.634   2.058 -0.4577 -0.5207 -0.1873
 2177SOL    HW116865   9.055   4.645   2.156 -1.0832 -0.0684 -0.1226
 2177SOL    HW216866   9.011   4.540   2.038  3.0626 -1.5547 -0.4417
 2178SOL     OW16867   0.301   2.928   2.357 -0.5238  0.2921  0.2876
 2178SOL    HW116868   0.271   3.003   2.298 -0.4044  0.5172  0.5124
 2178SOL    HW216869   0.308   2.960   2.451  0.2090  0.1849  0.2762
 2179SOL     OW16870   0.188   5.041   2.320 -0.1027  0.6746  0.8236
 2179SOL    HW116871   0.104   5.055   2.373  0.1974 -0.6572  1.6685
 2179SOL    HW216872   0.188   4.949   2.281  0.3543  1.1389 -0.2987
 2180SOL     OW16873   1.980   1.502   2.100  0.0554  0.8333 -0.0688
 2180SOL    HW116874   2.074   1.533   2.113  0.0747  0.6278  0.3016
 2180SOL    HW216875   1.971   1.457   2.011  0.8826 -1.2310  0.8545
 2181SOL     OW16876   4.237   9.689   2.599  0.3543  0.2715 -0.0746
 2181SOL    HW116877   4.248   9.785   2.573 -0.2404  0.4766  0.4296
 2181SOL    HW216878   4.151   9.677   2.648  1.6015 -0.0444  2.1226
 2182SOL     OW16879   2.489   3.326   2.422  0.5655 -0.1942  0.1503
 2182SOL    HW116880   2.487   3.231   2.391 -0.2518 -0.0990 -0.0805
 2182SOL    HW216881   2.503   3.386   2.343  1.3658 -0.1354  0.3295
 2183SOL     OW16882   9.440   9.706   3.164 -0.0354 -0.5351  0.7641
 2183SOL    HW116883   9.359   9.737   3.114  0.9486  2.2496  0.8022
 2183SOL    HW216884   9.451   9.762   3.247  2.4764 -0.1750  0.2296
 2184SOL     OW16885   8.477   2.702   3.040  0.1461 -0.1436  0.0386
 2184SOL    HW116886   8.468   2.800   3.022 -2.5321 -0.4246 -0.4490
 2184SOL    HW216887   8.448   2.682   3.133 -0.9593 -0.6557 -0.3988
 2185SOL     OW16888   0.561   4.890   0.539 -0.0354 -0.2534 -0.1019
 2185SOL    HW116889   0.465   4.905   0.564  0.0362  3.0534 -1.6444
 2185SOL    HW216890   0.617   4.965   0.574  2.0398 -2.1697  0.7972
 2186SOL     OW16891   6.870   9.792   2.775  0.1957 -0.2908  0.8628
 2186SOL    HW116892   6.854   9.883   2.813  1.7221 -0.2431  1.4191
 2186SOL    HW216893   6.968   9.779   2.759 -0.1668 -1.2362 -0.7396
 2187SOL     OW16894   8.855   3.297   1.130 -0.3410  0.1763  0.0724
 2187SOL    HW116895   8.869   3.375   1.192  0.5349 -1.0122  1.3733
 2187SOL    HW216896   8.905   3.313   1.046 -0.1589  1.0180  0.3273
 2188SOL     OW16897   1.239   4.319   1.917  0.0628  0.5574  0.5850
 2188SOL    HW116898   1.193   4.407   1.931  0.6331  1.0278 -0.3717
 2188SOL    HW216899   1.227   4.290   1.822  1.7235  0.7036  0.3044
 2189SOL     OW16900   9.999   2.254   3.323 -0.2186 -0.1939  0.2372
 2189SOL    HW116901  10.076   2.268   3.262  0.1097 -0.3780  0.6072
 2189SOL    HW216902   9.914   2.249   3.270 -0.1594  1.5316 -0.0529
 2190SOL     OW16903   0.771   3.380   0.982 -0.6027  0.1471 -0.3776
 2190SOL    HW116904   0.829   3.441   0.928 -3.0862  0.1631 -3.1645
 2190SOL    HW216905   0.776   3.287   0.946 -1.1894 -0.1447  0.2586
 2191SOL     OW16906   8.872   4.067   0.989 -0.1437 -0.5165  0.1366
 2191SOL    HW116907   8.930   4.003   1.039  1.3540 -2.0339 -3.4071
 2191SOL    HW216908   8.794   4.018   0.950  0.3121  0.0238 -1.5026
 2192SOL     OW16909   1.026   7.076   0.343  0.0535  0.6712 -0.1566
 2192SOL    HW116910   0.994   7.011   0.274 -0.7178  1.5272 -0.6205
 2192SOL    HW216911   1.113   7.045   0.381 -1.2468 -1.6117  1.0136
 2193SOL     OW16912   9.282   8.178   1.035 -0.0998 -0.4148  0.2507
 2193SOL    HW116913   9.266   8.083   1.009  0.8194 -1.2710  2.7300
 2193SOL    HW216914   9.381   8.194   1.043 -0.2550  0.7223 -0.0327
 2194SOL     OW16915   4.615   2.009   1.506 -0.1645 -0.2367 -0.6086
 2194SOL    HW116916   4.571   1.943   1.567 -0.2389 -0.9421 -1.4193
 2194SOL    HW216917   4.663   1.960   1.433 -1.4273  0.6258 -2.0434
 2195SOL     OW16918   6.849   9.823   2.381  0.4079 -0.0426  0.0855
 2195SOL    HW116919   6.842   9.898   2.315  0.6946  0.7617  0.9578
 2195SOL    HW216920   6.942   9.818   2.418  0.1786 -0.2962  0.6467
 2196SOL     OW16921   1.989   8.641   0.908  0.0652 -0.1674  0.7409
 2196SOL    HW116922   1.958   8.653   0.814  0.1751 -1.2396  0.5665
 2196SOL    HW216923   2.009   8.731   0.948 -1.3845  0.3848  0.2321
 2197SOL     OW16924   3.281   7.278   0.916 -0.5991 -0.1282 -0.0018
 2197SOL    HW116925   3.327   7.193   0.940  0.1047 -0.7133 -3.2140
 2197SOL    HW216926   3.188   7.258   0.884 -0.8388  0.4152  0.3529
 2198SOL     OW16927   1.540   1.352   2.216  0.5819  0.2543  0.7591
 2198SOL    HW116928   1.529   1.437   2.165 -0.3146 -0.1470  0.2793
 2198SOL    HW216929   1.598   1.369   2.296  1.3727  1.0505  0.0346
 2199SOL     OW16930   2.935   0.738   2.723  0.0429  0.6010  0.4834
 2199SOL    HW116931   2.924   0.758   2.626 -0.0792  0.4909  0.4754
 2199SOL    HW216932   3.030   0.758   2.751  0.5741 -1.1055 -0.0616
 2200SOL     OW16933   9.715   2.401   2.825  0.5724 -0.4799 -0.1834
 2200SOL    HW116934   9.750   2.308   2.818  0.7771 -0.5710  1.9856
 2200SOL    HW216935   9.654   2.408   2.903  0.9516  1.3384 -0.0326
 2201SOL     OW16936   2.612   2.546   0.240  0.3480  0.2107  0.1300
 2201SOL    HW116937   2.660   2.634   0.240 -0.6456  0.7839  1.5830
 2201SOL    HW216938   2.535   2.550   0.304 -0.2498 -1.4366 -0.4483
 2202SOL     OW16939   2.733   1.125   2.596 -0.4197  0.2757  0.1080
 2202SOL    HW116940   2.775   1.050   2.545  0.2305 -1.1561  2.6640
 2202SOL    HW216941   2.637   1.105   2.611 -0.5066  0.4883 -0.1597
 2203SOL     OW16942   0.318   8.996   2.165  0.2835 -0.2556 -0.1802
 2203SOL    HW116943   0.337   9.033   2.074 -3.0740  0.5112 -0.6512
 2203SOL    HW216944   0.243   9.047   2.207  0.9534 -1.4022  2.5279
 2204SOL     OW16945   8.622   9.195   1.730  0.7235 -0.0824  0.2704
 2204SOL    HW116946   8.532   9.237   1.715  0.7206 -0.7177 -1.7431
 2204SOL    HW216947   8.629   9.113   1.674  2.7450  0.2239  0.0417
 2205SOL     OW16948   8.409   7.340   2.939  0.4396 -0.3250 -0.0699
 2205SOL    HW116949   8.469   7.285   2.996  1.5965  1.4237  0.4370
 2205SOL    HW216950   8.443   7.341   2.845  1.9191  1.5980  0.4452
 2206SOL     OW16951   4.706   9.861   1.036 -0.2682  0.1176 -0.0485
 2206SOL    HW116952   4.700   9.949   1.084 -1.8511 -0.1860  0.3250
 2206SOL    HW216953   4.655   9.868   0.950  0.1542 -0.2348 -0.3250
 2207SOL     OW16954   0.646   5.603   0.635 -0.3473 -0.8452  0.2619
 2207SOL    HW116955   0.705   5.606   0.555 -0.8831  2.9334 -0.0905
 2207SOL    HW216956   0.697   5.636   0.715 -0.6174 -2.0249  0.9329
 2208SOL     OW16957   3.607   8.195   3.442 -0.1448  0.1101 -0.0185
 2208SOL    HW116958   3.598   8.102   3.405  0.7245  0.3109 -0.7335
 2208SOL    HW216959   3.545   8.205   3.520 -1.7397 -0.4231 -1.1948
 2209SOL     OW16960   8.370   6.572   0.585  0.4376  0.0167 -0.2087
 2209SOL    HW116961   8.347   6.475   0.588  0.6180 -0.0264 -0.2127
 2209SOL    HW216962   8.299   6.621   0.536  0.7382 -0.2299 -0.9031
 2210SOL     OW16963   0.297   1.730   3.105 -0.6386 -0.1519 -0.0264
 2210SOL    HW116964   0.233   1.795   3.146 -0.3629  0.4754 -0.5739
 2210SOL    HW216965   0.365   1.703   3.173 -0.1476  0.9290 -0.0643
 2211SOL     OW16966   0.308   9.339   0.975  0.1742 -0.1904 -0.6286
 2211SOL    HW116967   0.232   9.274   0.971 -0.0519  0.1355 -1.9744
 2211SOL    HW216968   0.394   9.292   0.958  0.2562 -0.5097  0.6079
 2212SOL     OW16969   2.026   6.294   3.354  0.3195  0.2653  0.1830
 2212SOL    HW116970   2.037   6.393   3.364  0.0488  0.4152 -0.9959
 2212SOL    HW216971   2.109   6.248   3.385 -0.0367  0.7811  1.9709
 2213SOL     OW16972   8.536   1.354   0.930 -0.5588  0.0252 -0.8943
 2213SOL    HW116973   8.501   1.261   0.919 -1.0868  0.0130  0.7293
 2213SOL    HW216974   8.592   1.378   0.851 -1.4642 -1.1964 -1.9307
 2214SOL     OW16975   7.814   0.080   2.048 -0.5424 -0.1599  0.4436
 2214SOL    HW116976   7.792  -0.017   2.043  0.2997 -0.3308 -0.0383
 2214SOL    HW216977   7.891   0.094   2.111 -1.5601  0.3535  1.6029
 2215SOL     OW16978   0.260   9.218   2.994  0.1461 -0.3557  0.1720
 2215SOL    HW116979   0.174   9.174   2.968  0.1978 -0.5394  0.3015
 2215SOL    HW216980   0.334   9.182   2.937  0.4752 -1.7044  1.3916
 2216SOL     OW16981   7.918   8.632   0.071 -0.4810  0.4075 -0.0884
 2216SOL    HW116982   7.917   8.532   0.063 -0.6819  0.0784  3.2196
 2216SOL    HW216983   7.889   8.673  -0.015 -2.0614 -2.4378 -0.9668
 2217SOL     OW16984   3.711   1.628   2.800 -0.2177 -0.4967 -0.0820
 2217SOL    HW116985   3.771   1.629   2.880 -1.2260  0.4002  0.6769
 2217SOL    HW216986   3.759   1.586   2.723  2.1434  2.0683 -0.0899
 2218SOL     OW16987   3.041   8.231   0.026 -0.0195 -0.8529 -0.1355
 2218SOL    HW116988   3.033   8.238   0.126 -1.4027 -0.6137 -0.2591
 2218SOL    HW216989   2.950   8.220  -0.014  0.4282  0.1744 -1.4557
 2219SOL     OW16990   7.172   8.970   0.126 -0.0788  0.2156  0.2408
 2219SOL    HW116991   7.087   8.983   0.177 -0.2733  0.0457 -0.0360
 2219SOL    HW216992   7.212   9.058   0.104 -0.1623  0.2934  0.4023
 2220SOL     OW16993   1.502   5.707   3.264 -0.0696 -0.2404  0.0447
 2220SOL    HW116994   1.481   5.751   3.177  1.5723  1.0940  0.3069
 2220SOL    HW216995   1.524   5.777   3.332  0.2015 -1.3544  1.1211
 2221SOL     OW16996   8.054   2.129   2.750 -0.2606  0.1093  0.2459
 2221SOL    HW116997   8.028   2.171   2.837  0.5940  0.3002  0.4051
 2221SOL    HW216998   8.093   2.039   2.766 -1.5725 -0.5312 -0.0592
 2222SOL     OW16999   3.146   8.080   0.715  0.3973  0.2447  0.0667
 2222SOL    HW117000   3.187   7.990   0.701  3.8573  2.0141 -1.7117
 2222SOL    HW217001   3.161   8.108   0.810  4.2293  1.2348 -0.7672
 2223SOL     OW17002   9.802   5.001   3.213 -0.0148 -0.4772  0.1461
 2223SOL    HW117003   9.775   5.094   3.191 -0.1255 -0.4258  0.5048
 2223SOL    HW217004   9.890   5.002   3.261  0.0687 -0.5691 -0.0047
 2224SOL     OW17005   0.652   8.868   0.974  0.5440  0.7080  0.1553
 2224SOL    HW117006   0.576   8.810   1.007 -0.1926  1.3963 -0.3206
 2224SOL    HW217007   0.693   8.826   0.894 -0.3360  1.1075 -0.5098
 2225SOL     OW17008   1.828   6.188   3.155 -0.1204 -0.2926 -0.5903
 2225SOL    HW117009   1.864   6.220   3.242  2.1492  0.2574 -1.6869
 2225SOL    HW217010   1.869   6.100   3.132 -0.5292 -0.3235 -1.2068
 2226SOL     OW17011   1.426   4.952   0.433  0.4350 -0.0644  0.1546
 2226SOL    HW117012   1.436   5.000   0.346  0.0099  1.5204  0.9635
 2226SOL    HW217013   1.333   4.964   0.468  1.0469  0.6661  1.5918
 2227SOL     OW17014   2.865   1.785   2.119 -0.1847 -0.0200  0.2892
 2227SOL    HW117015   2.849   1.701   2.069 -3.1016  0.3917  0.4411
 2227SOL    HW217016   2.841   1.772   2.215 -2.4584  1.4796 -0.0485
 2228SOL     OW17017   8.729   4.543   2.252  0.4449 -0.0235 -0.0445
 2228SOL    HW117018   8.821   4.583   2.244 -0.2969  2.1606  1.7118
 2228SOL    HW217019   8.670   4.580   2.180  0.6197 -0.4886 -0.4278
 2229SOL     OW17020   8.188   1.899   1.129  0.1170 -0.0474 -0.3950
 2229SOL    HW117021   8.231   1.949   1.054  2.7417 -1.8940 -0.2033
 2229SOL    HW217022   8.256   1.882   1.201 -1.3433 -1.7020  0.6306
 2230SOL     OW17023   0.537   2.407   0.709  0.1563 -0.1338 -0.6651
 2230SOL    HW117024   0.481   2.333   0.672 -1.2041 -0.1207  1.2913
 2230SOL    HW217025   0.513   2.493   0.662 -1.1443 -0.2174 -0.1745
 2231SOL     OW17026   2.166   4.438   0.948 -0.6973  0.1103  0.6418
 2231SOL    HW117027   2.177   4.339   0.940 -2.4249 -0.3298  3.2118
 2231SOL    HW217028   2.101   4.469   0.879  0.0025 -0.4851 -0.3114
 2232SOL     OW17029   2.601   3.747   0.022  0.7345 -0.3264  0.2123
 2232SOL    HW117030   2.641   3.661   0.054  0.6796 -0.6016 -0.4412
 2232SOL    HW217031   2.655   3.781  -0.056  0.1798 -0.2704 -0.1463
 2233SOL     OW17032   8.517   6.928   1.994  0.4651  0.4072  0.6300
 2233SOL    HW117033   8.602   6.978   2.009  1.4796 -0.6342 -1.4256
 2233SOL    HW217034   8.440   6.991   2.000  1.4726  1.6004  1.2789
 2234SOL     OW17035   0.944   6.792   1.684  0.2518 -0.0478  0.8249
 2234SOL    HW117036   0.939   6.696   1.656  1.1997  1.1077 -3.6610
 2234SOL    HW217037   1.036   6.827   1.666 -1.0241  2.5923 -0.9047
 2235SOL     OW17038   0.583   3.501   0.280  0.1370 -1.0337  0.2209
 2235SOL    HW117039   0.510   3.467   0.222 -0.7732 -0.4909  1.0176
 2235SOL    HW217040   0.599   3.598   0.261  0.7035 -1.1667 -0.0014
 2236SOL     OW17041   3.156   7.501   0.043 -0.0573 -0.4820 -0.5846
 2236SOL    HW117042   3.123   7.551  -0.036 -1.8960  0.0112  0.4672
 2236SOL    HW217043   3.178   7.565   0.117 -0.0049 -1.0458 -0.1044
 2237SOL     OW17044   3.495   1.669   3.002  0.1697  0.6355  0.8762
 2237SOL    HW117045   3.553   1.620   2.937 -0.4681  1.9369 -0.7054
 2237SOL    HW217046   3.532   1.760   3.017  0.2835  0.3638  2.3441
 2238SOL     OW17047   2.012   9.650   0.905 -0.3154  0.0207  0.1467
 2238SOL    HW117048   2.082   9.720   0.887 -0.6378  0.4330  0.4854
 2238SOL    HW217049   1.932   9.667   0.848 -0.2920 -0.2266  0.0395
 2239SOL     OW17050   4.355   3.558   2.471 -0.0886 -0.3055 -0.0248
 2239SOL    HW117051   4.342   3.615   2.391  0.7299 -0.4147 -0.2337
 2239SOL    HW217052   4.341   3.462   2.446 -0.1789 -0.3111  0.0447
 2240SOL     OW17053   3.053   3.445   0.811 -0.1005 -0.3099  0.3224
 2240SOL    HW117054   3.009   3.454   0.721 -0.2037 -0.0149  0.4016
 2240SOL    HW217055   3.138   3.498   0.811 -0.0393 -0.4101  0.3572
 2241SOL     OW17056   4.823   1.156   2.714  0.3506 -0.0987 -0.5948
 2241SOL    HW117057   4.830   1.089   2.788  1.0882  0.8690  0.2377
 2241SOL    HW217058   4.739   1.209   2.724  0.0976 -0.4568 -0.8581
 2242SOL     OW17059   9.527   1.043   1.938  0.1455  0.1690 -0.2437
 2242SOL    HW117060   9.498   1.135   1.961  2.4127  0.6979  0.5176
 2242SOL    HW217061   9.574   1.044   1.850  0.9816 -0.1179  0.2004
 2243SOL     OW17062   3.284   1.232   0.659  0.0308  0.3306  0.1255
 2243SOL    HW117063   3.262   1.142   0.622  1.8611 -0.1228  0.0704
 2243SOL    HW217064   3.290   1.298   0.584 -1.2052  0.4740  0.1541
 2244SOL     OW17065   0.456   6.603   0.292  0.2154 -0.4136  0.1348
 2244SOL    HW117066   0.436   6.531   0.225 -0.9019 -0.1995  0.2289
 2244SOL    HW217067   0.370   6.636   0.332  0.5302  2.4341 -1.4242
 2245SOL     OW17068   6.717   8.490   2.508 -0.2372 -0.0832  0.0048
 2245SOL    HW117069   6.682   8.582   2.491  0.5182  0.2701  0.3739
 2245SOL    HW217070   6.777   8.463   2.433 -0.3844 -0.2410 -0.0565
 2246SOL     OW17071   9.460   1.825   2.370 -0.4528 -0.0828 -0.0510
 2246SOL    HW117072   9.371   1.868   2.385  0.2352  0.1250  3.9921
 2246SOL    HW217073   9.530   1.876   2.418  1.4900 -1.7448 -1.0309
 2247SOL     OW17074   2.451   4.489   1.042 -0.4314  0.3336 -0.0226
 2247SOL    HW117075   2.517   4.424   1.004  1.9509  2.6517  0.0056
 2247SOL    HW217076   2.415   4.547   0.969 -0.4654  0.7697  0.3365
 2248SOL     OW17077   8.810   9.285   3.118  0.7645 -0.2266  0.2400
 2248SOL    HW117078   8.758   9.348   3.177 -0.2553  0.8541 -1.7602
 2248SOL    HW217079   8.769   9.194   3.122 -0.6670  0.3637 -0.4786
 2249SOL     OW17080   2.679   6.246   2.785  0.1256 -0.0812 -0.0003
 2249SOL    HW117081   2.677   6.300   2.870  2.1042  0.7508 -0.4650
 2249SOL    HW217082   2.607   6.278   2.724  0.4810  1.2061  0.2353
 2250SOL     OW17083   7.105   8.959   2.651  0.3650 -0.3999  0.3652
 2250SOL    HW117084   7.162   8.908   2.716 -1.0623 -0.5770  1.4972
 2250SOL    HW217085   7.012   8.965   2.686  0.3775  2.5343  0.0060
 2251SOL     OW17086   3.825   9.705   0.172  0.0896  0.0959  0.5291
 2251SOL    HW117087   3.915   9.680   0.207  0.8818  1.5863 -0.4098
 2251SOL    HW217088   3.835   9.750   0.083 -1.6361 -0.3737  0.0719
 2252SOL     OW17089   3.782   2.066   0.687  0.6466 -1.2116 -0.0761
 2252SOL    HW117090   3.690   2.030   0.703  0.0822 -0.3047 -1.2433
 2252SOL    HW217091   3.847   2.017   0.745 -0.9052 -0.1653  2.6624
 2253SOL     OW17092   9.015   2.334   1.052  0.5005  0.1454  0.3831
 2253SOL    HW117093   8.948   2.336   0.978 -0.6571  2.7258  1.4610
 2253SOL    HW217094   9.050   2.240   1.062 -2.2915 -1.0740 -0.7542
 2254SOL     OW17095   0.770   8.386   2.659  0.2602  0.4634 -0.0788
 2254SOL    HW117096   0.768   8.480   2.694 -0.8040  0.5313 -0.3105
 2254SOL    HW217097   0.831   8.381   2.580 -1.2124  1.4068 -1.2982
 2255SOL     OW17098   1.154   7.481   1.740 -0.0700  0.3638 -0.3551
 2255SOL    HW117099   1.087   7.544   1.699 -0.2701  0.6507  0.4151
 2255SOL    HW217100   1.229   7.467   1.676 -0.8679  0.0310 -1.2426
 2256SOL     OW17101   8.551   7.300   2.129 -0.1678 -0.0513  0.3513
 2256SOL    HW117102   8.530   7.249   2.046 -1.8783  0.2049  0.6064
 2256SOL    HW217103   8.526   7.246   2.209  0.7137  0.0234  0.6739
 2257SOL     OW17104   1.108   7.938   0.687 -0.1960  0.0065  0.0219
 2257SOL    HW117105   1.146   7.850   0.714 -2.0104 -0.8385 -0.1087
 2257SOL    HW217106   1.115   7.949   0.588 -0.1992 -0.0944  0.0113
 2258SOL     OW17107   2.400   4.095   0.515 -0.3663 -0.2265  0.3204
 2258SOL    HW117108   2.359   4.004   0.519 -1.7996  0.2982 -1.4964
 2258SOL    HW217109   2.354   4.156   0.578 -0.7565 -0.2656  0.0763
 2259SOL     OW17110   8.342   8.856   1.189 -0.4135 -0.3107  0.4525
 2259SOL    HW117111   8.390   8.882   1.105 -1.7524 -1.5607 -0.7367
 2259SOL    HW217112   8.329   8.937   1.246  2.2016  0.2200  0.3608
 2260SOL     OW17113   9.091   3.024   1.801  0.1203 -0.7999  0.0163
 2260SOL    HW117114   9.117   2.974   1.884  1.8940 -1.3155 -0.8163
 2260SOL    HW217115   9.115   3.121   1.813 -1.7689 -0.4377  0.9829
 2261SOL     OW17116   0.296   6.214   3.301 -0.2035  0.1069  0.1015
 2261SOL    HW117117   0.238   6.285   3.342 -1.4177  0.4564 -2.1541
 2261SOL    HW217118   0.297   6.134   3.360 -3.2939 -0.0369  0.0312
 2262SOL     OW17119   3.635   5.391   2.668  0.1168  0.1093  0.5984
 2262SOL    HW117120   3.633   5.368   2.765  0.4606  1.8428  1.0388
 2262SOL    HW217121   3.547   5.368   2.626  0.1383 -1.1009  1.2007
 2263SOL     OW17122   0.014   1.228   1.176  0.1972 -0.3808 -0.1147
 2263SOL    HW117123   0.102   1.244   1.132  0.4822 -0.9879  0.2289
 2263SOL    HW217124  -0.001   1.297   1.247  0.1199  0.0847 -0.5760
 2264SOL     OW17125   2.080   4.858   2.704  0.3539  0.1163  0.1650
 2264SOL    HW117126   2.027   4.937   2.674  0.4230 -0.2259 -0.8521
 2264SOL    HW217127   2.071   4.783   2.638  1.7994 -0.0796  0.1651
 2265SOL     OW17128   9.201   6.850   1.213  0.2741  0.4104 -0.2168
 2265SOL    HW117129   9.270   6.902   1.264 -0.8924 -0.1158  1.9962
 2265SOL    HW217130   9.113   6.898   1.219 -0.3036 -0.6602 -0.0930
 2266SOL     OW17131   0.582   0.154   2.964 -0.2610 -0.0911  0.0225
 2266SOL    HW117132   0.553   0.167   3.059  1.7409 -2.4263  1.0054
 2266SOL    HW217133   0.515   0.096   2.918 -1.0133  0.6836  0.1319
 2267SOL     OW17134   4.698   8.814   1.800  0.5948 -0.0863 -0.2109
 2267SOL    HW117135   4.694   8.826   1.700 -0.8231 -0.4542 -0.2040
 2267SOL    HW217136   4.731   8.722   1.821  1.3919  0.1636 -0.3255
 2268SOL     OW17137   8.796   9.832   0.168 -0.3080 -0.2729  0.7803
 2268SOL    HW117138   8.871   9.767   0.178  1.0909  1.3318  0.9567
 2268SOL    HW217139   8.729   9.818   0.241  0.5595 -0.7682  1.4905
 2269SOL     OW17140   1.193   0.525   3.020 -0.7412  0.2037  0.1566
 2269SOL    HW117141   1.141   0.482   2.947 -0.0976  2.0480 -1.4564
 2269SOL    HW217142   1.149   0.611   3.046 -0.2404  0.2142  0.9736
 2270SOL     OW17143   9.365   8.234   3.108  0.2247 -0.0953  0.0883
 2270SOL    HW117144   9.293   8.279   3.056  1.8836  1.6027 -0.7869
 2270SOL    HW217145   9.429   8.302   3.143  1.7349 -1.6141  0.3632
 2271SOL     OW17146   5.345   9.516   3.082  0.1848 -0.5231  0.2674
 2271SOL    HW117147   5.429   9.502   3.134  2.2947 -3.3362 -3.6683
 2271SOL    HW217148   5.270   9.469   3.128  1.6105 -1.4612  1.7017
 2272SOL     OW17149   1.983   9.313   2.323  0.2859  0.3705  0.4712
 2272SOL    HW117150   1.915   9.282   2.390 -0.1011 -1.5462 -0.7658
 2272SOL    HW217151   2.007   9.408   2.342 -1.1071  0.4004  2.2668
 2273SOL     OW17152   8.769   7.260   1.757  0.3156  0.0158  0.1436
 2273SOL    HW117153   8.702   7.272   1.683  0.0266 -0.1044  0.3849
 2273SOL    HW217154   8.861   7.268   1.719  0.1787 -0.5903 -0.3331
 2274SOL     OW17155   7.773   8.761   0.565  0.2131  0.3966 -0.0481
 2274SOL    HW117156   7.835   8.792   0.638 -0.2994  0.7797  0.2273
 2274SOL    HW217157   7.738   8.670   0.588  0.6044  0.2165 -0.1624
 2275SOL     OW17158   9.895   2.971   3.358 -0.4987  0.1814  0.0293
 2275SOL    HW117159   9.912   2.875   3.333 -4.4460  0.1246 -2.9490
 2275SOL    HW217160   9.840   2.974   3.442  1.3217 -0.0633  1.2522
 2276SOL     OW17161   0.513   8.693   1.602  0.1508  0.5527  0.3523
 2276SOL    HW117162   0.572   8.637   1.543  0.7371  0.5495  0.9438
 2276SOL    HW217163   0.538   8.789   1.592 -0.6246  0.6842 -0.3978
 2277SOL     OW17164   2.261   5.862   3.161  0.1072 -0.3704  0.0196
 2277SOL    HW117165   2.304   5.808   3.233 -1.2242 -1.2808  0.1635
 2277SOL    HW217166   2.269   5.814   3.074 -2.9852 -1.9676  0.5131
 2278SOL     OW17167   0.965   2.466   2.338  0.4133  0.0119 -0.5589
 2278SOL    HW117168   0.939   2.562   2.345  1.9424  0.2861  1.9739
 2278SOL    HW217169   1.038   2.455   2.271  0.4569  0.6893 -0.6227
 2279SOL     OW17170   2.815   2.719   0.288  0.1979  0.0907  0.6464
 2279SOL    HW117171   2.905   2.762   0.287  0.0567  0.3735 -0.3619
 2279SOL    HW217172   2.746   2.786   0.316 -0.0820  0.6599 -1.3455
 2280SOL     OW17173   2.013   1.030   2.219 -0.4436  0.1130  0.2488
 2280SOL    HW117174   1.951   0.952   2.214 -0.8193  0.5216 -2.0250
 2280SOL    HW217175   1.963   1.110   2.250 -0.5798 -0.0262  0.3901
 2281SOL     OW17176   9.745   0.605   3.022  0.0797 -0.2067  0.1501
 2281SOL    HW117177   9.694   0.651   2.949  1.4793  1.6710  0.2962
 2281SOL    HW217178   9.741   0.660   3.105  1.8278 -0.3056  0.3231
 2282SOL     OW17179   9.012   7.743   0.397  0.0684 -0.1523  0.0266
 2282SOL    HW117180   9.059   7.799   0.328  0.7497 -0.2956  0.3783
 2282SOL    HW217181   9.078   7.709   0.463 -0.1939 -2.1248 -0.6890
 2283SOL     OW17182   0.857   1.142   0.259  0.5109 -0.3420 -0.5845
 2283SOL    HW117183   0.903   1.086   0.327 -0.6461  0.1427  0.6102
 2283SOL    HW217184   0.791   1.087   0.209 -1.5780  0.2102  1.4862
 2284SOL     OW17185   8.056   0.942   2.542 -0.2148  0.3401 -0.3699
 2284SOL    HW117186   8.075   1.039   2.532  0.4611  0.0343 -2.2777
 2284SOL    HW217187   8.140   0.890   2.526 -0.3599 -0.5417  1.5127
 2285SOL     OW17188   1.837   2.116   1.665  0.3869  0.0420  0.2742
 2285SOL    HW117189   1.873   2.090   1.755  0.7239  0.3914  0.2408
 2285SOL    HW217190   1.896   2.186   1.624  0.6893 -0.7139 -0.5776
 2286SOL     OW17191   0.942   3.049   1.162  0.1723  0.0089 -0.4625
 2286SOL    HW117192   0.988   2.965   1.190  0.2924  0.7680  1.7423
 2286SOL    HW217193   0.876   3.076   1.232 -0.6065  1.1892 -1.6378
 2287SOL     OW17194   2.069   9.821   3.014  0.0409  0.1259 -0.4461
 2287SOL    HW117195   1.981   9.803   2.970 -0.3497 -1.9525  1.1218
 2287SOL    HW217196   2.142   9.780   2.960 -0.1319  0.3087 -0.8184
 2288SOL     OW17197   8.688   3.616   1.661 -0.1901 -0.2862  0.1708
 2288SOL    HW117198   8.653   3.685   1.725  0.6480  1.3664 -1.1028
 2288SOL    HW217199   8.731   3.662   1.583 -0.8180 -2.2684 -1.3827
 2289SOL     OW17200   9.268   3.461   2.492  0.1713 -1.0068  0.0953
 2289SOL    HW117201   9.300   3.550   2.459  2.5824 -1.2310  1.6892
 2289SOL    HW217202   9.175   3.469   2.527  1.5743  1.7844  3.5052
 2290SOL     OW17203   9.310   9.892   1.628 -0.0769 -0.0908  0.0161
 2290SOL    HW117204   9.273   9.809   1.670  1.0905 -1.1765 -1.0681
 2290SOL    HW217205   9.332   9.874   1.532  2.7018  0.6847  0.4645
 2291SOL     OW17206   3.387   2.394   0.341  0.4467 -0.3363  0.4615
 2291SOL    HW117207   3.449   2.418   0.416  2.1943 -2.0170 -0.4071
 2291SOL    HW217208   3.439   2.354   0.266 -1.6070 -1.1377 -0.5808
 2292SOL     OW17209   9.703   7.513   0.823 -0.2664  0.3299 -0.4605
 2292SOL    HW117210   9.682   7.518   0.725 -0.6088  0.3768 -0.3885
 2292SOL    HW217211   9.741   7.423   0.845 -0.5084  0.1971 -0.5778
 2293SOL     OW17212   1.467   3.805   3.395 -0.7159  0.1127  0.2094
 2293SOL    HW117213   1.434   3.735   3.330 -2.3075 -1.1352  2.2881
 2293SOL    HW217214   1.520   3.873   3.346 -3.1691  0.0576 -2.7118
 2294SOL     OW17215   2.673   2.107   0.828  0.1157  0.4737  0.2731
 2294SOL    HW117216   2.684   2.059   0.915 -0.5254  0.1495  0.1843
 2294SOL    HW217217   2.579   2.094   0.795  0.9081 -1.0251 -1.4311
 2295SOL     OW17218   8.735   5.525   0.010  0.6882  0.4142 -0.4618
 2295SOL    HW117219   8.708   5.442   0.058 -0.5505  1.0313 -0.0715
 2295SOL    HW217220   8.655   5.566  -0.035  1.1335  1.7896 -0.0327
 2296SOL     OW17221   1.099   1.546   0.527 -0.2962  0.2147  0.3662
 2296SOL    HW117222   1.130   1.527   0.620  1.2535 -1.4361 -0.4515
 2296SOL    HW217223   1.013   1.499   0.511 -0.4101  0.2466  0.8653
 2297SOL     OW17224   0.229   6.092   0.345  0.0085 -0.2539  0.1741
 2297SOL    HW117225   0.218   6.006   0.396  1.7517 -0.7483 -0.2485
 2297SOL    HW217226   0.225   6.169   0.409 -1.1034 -0.6805  0.6231
 2298SOL     OW17227   2.860   3.749   0.244 -0.7362 -0.2938  0.0617
 2298SOL    HW117228   2.854   3.649   0.244 -1.2243 -0.3013 -2.5966
 2298SOL    HW217229   2.898   3.780   0.157  1.3503  1.7570  1.6390
 2299SOL     OW17230   9.441   7.844   1.502  0.1188  0.1315  0.6338
 2299SOL    HW117231   9.527   7.860   1.552  1.1468  0.7474 -1.2762
 2299SOL    HW217232   9.444   7.892   1.415 -2.1613  0.0810  0.4908
 2300SOL     OW17233   4.698   1.320   2.301 -0.3093 -0.1213  0.1758
 2300SOL    HW117234   4.749   1.251   2.353  0.9502  1.0409  0.5101
 2300SOL    HW217235   4.681   1.399   2.359 -1.1505  0.1246 -0.4137
 2301SOL     OW17236   2.336   3.140   3.049 -0.1501 -0.6399 -0.0277
 2301SOL    HW117237   2.432   3.147   3.022 -1.2387  0.1776 -4.0627
 2301SOL    HW217238   2.286   3.221   3.016 -2.4623 -1.6235  0.9391
 2302SOL     OW17239   1.166   2.042   1.175 -0.0916 -0.5459 -0.5336
 2302SOL    HW117240   1.176   2.070   1.080 -2.9692 -0.3030 -0.8224
 2302SOL    HW217241   1.177   1.943   1.183 -1.3133 -0.7575 -1.3772
 2303SOL     OW17242   2.692   6.272   1.400 -0.9953 -0.4057  0.2506
 2303SOL    HW117243   2.666   6.255   1.495  0.4915 -1.1307  0.5373
 2303SOL    HW217244   2.709   6.369   1.387 -0.6896 -0.3730  0.8674
 2304SOL     OW17245   0.411   1.901   1.348  0.0569 -0.0981 -0.0715
 2304SOL    HW117246   0.333   1.842   1.330 -0.9240  1.2430 -0.2568
 2304SOL    HW217247   0.425   1.907   1.447 -0.0475 -0.3696 -0.0394
 2305SOL     OW17248   2.554   4.685   1.999  0.2198  0.1556  0.1836
 2305SOL    HW117249   2.616   4.665   1.923  2.4998  1.2217  1.7121
 2305SOL    HW217250   2.560   4.782   2.022 -1.4095  0.0958  0.9005
 2306SOL     OW17251   5.205   1.333   2.068  0.3859  0.5126  0.5404
 2306SOL    HW117252   5.277   1.399   2.092 -1.7289  3.0187  0.2710
 2306SOL    HW217253   5.188   1.272   2.145  0.7740  1.8194  1.6761
 2307SOL     OW17254   8.427   2.031   3.282 -0.0420  0.4642 -0.3836
 2307SOL    HW117255   8.476   1.958   3.235 -0.3523  0.4647 -0.7155
 2307SOL    HW217256   8.434   2.115   3.228  0.1983  0.6454 -0.0718
 2308SOL     OW17257   0.453   1.843   0.826  0.0325 -0.0608  0.4253
 2308SOL    HW117258   0.358   1.861   0.851  0.4496  2.4865  0.2999
 2308SOL    HW217259   0.455   1.801   0.735 -0.9251  0.8454 -0.0321
 2309SOL     OW17260   0.264   6.786   0.027  0.2897 -0.3151  0.2401
 2309SOL    HW117261   0.358   6.818   0.033 -0.5861  2.6904 -1.1965
 2309SOL    HW217262   0.229   6.768   0.120  1.7590  0.0447  0.8712
 2310SOL     OW17263   3.649   4.058   2.238 -0.2720  0.6899  0.3503
 2310SOL    HW117264   3.555   4.026   2.244 -0.4429  1.0868 -0.2122
 2310SOL    HW217265   3.711   3.980   2.228 -0.6277  0.4963 -0.3530
 2311SOL     OW17266   8.152   6.095   1.609 -0.5929  0.2073  0.0407
 2311SOL    HW117267   8.077   6.145   1.653 -0.1293  1.3388 -0.4489
 2311SOL    HW217268   8.233   6.098   1.667 -0.9795 -1.2250  0.6825
 2312SOL     OW17269   2.003   8.289   1.428 -0.1157 -0.7098 -0.3478
 2312SOL    HW117270   2.100   8.272   1.448 -0.2817  0.5433  1.7704
 2312SOL    HW217271   1.947   8.224   1.478 -0.4873  1.5444  2.3442
 2313SOL     OW17272   1.690   0.980   2.318  0.1613  0.1614 -0.4015
 2313SOL    HW117273   1.639   1.010   2.237 -0.4865  0.6611  0.1748
 2313SOL    HW217274   1.672   0.884   2.335 -0.9920  0.4523  0.0777
 2314SOL     OW17275   2.130   3.250   0.184  0.2845  0.2168  0.6466
 2314SOL    HW117276   2.214   3.283   0.227 -0.2060  0.0152  1.7642
 2314SOL    HW217277   2.085   3.183   0.243 -0.7353  0.4164  0.1189
 2315SOL     OW17278   1.400   7.163   3.196  0.5036  0.3873 -0.5337
 2315SOL    HW117279   1.458   7.225   3.142  0.2199 -0.7082 -2.1539
 2315SOL    HW217280   1.454   7.082   3.222  0.0881 -0.0036 -0.8841
 2316SOL     OW17281   9.792   2.180   0.790 -0.6342  0.3744  0.2611
 2316SOL    HW117282   9.730   2.169   0.712  0.7398 -0.2187 -0.7806
 2316SOL    HW217283   9.798   2.276   0.815 -1.6729  0.4800  0.1283
 2317SOL     OW17284   9.778   1.193   2.946  0.9163 -0.3323 -0.1063
 2317SOL    HW117285   9.808   1.116   3.002  1.6831 -1.7577 -2.4365
 2317SOL    HW217286   9.683   1.180   2.919  1.2048 -0.6911 -0.9273
 2318SOL     OW17287   9.219   7.927   0.962  0.2000  0.1947 -0.1617
 2318SOL    HW117288   9.276   7.858   1.008 -0.4914 -0.1567  0.1756
 2318SOL    HW217289   9.138   7.883   0.924  1.5933  0.1679 -3.2777
 2319SOL     OW17290   1.966   7.754   2.488  0.1795  0.4489  0.4806
 2319SOL    HW117291   1.935   7.796   2.402  1.2101  0.4663  0.1095
 2319SOL    HW217292   1.902   7.776   2.561  1.2759  3.5886  0.5344
 2320SOL     OW17293   9.898   8.187   3.053  0.2167 -0.4335 -0.5465
 2320SOL    HW117294   9.982   8.237   3.034 -0.5087  0.8126 -0.4944
 2320SOL    HW217295   9.819   8.248   3.043 -0.6172 -1.3424  0.3165
 2321SOL     OW17296   8.558   0.527   2.772 -0.1312 -0.2495 -0.2611
 2321SOL    HW117297   8.557   0.620   2.810 -2.0328 -0.8705  1.2908
 2321SOL    HW217298   8.608   0.466   2.834  0.1055 -0.4982 -0.6943
 2322SOL     OW17299   8.150   2.412   0.142 -0.3933  0.6482  0.2804
 2322SOL    HW117300   8.188   2.450   0.226  0.1784 -0.8508  0.7130
 2322SOL    HW217301   8.196   2.326   0.119 -1.2367  0.5102 -1.0116
 2323SOL     OW17302   0.111   8.097   1.024  0.1202 -0.0277 -0.1108
 2323SOL    HW117303   0.075   8.005   1.040  0.8737 -0.3345 -0.1586
 2323SOL    HW217304   0.037   8.163   1.027 -1.1031 -1.0697 -4.1914
 2324SOL     OW17305   3.955   3.259   0.034  0.5838 -0.2460  0.0679
 2324SOL    HW117306   3.955   3.307   0.121  1.2422 -0.2411  0.0683
 2324SOL    HW217307   3.970   3.325  -0.040  0.3658 -0.2980 -0.0239
 2325SOL     OW17308   3.909   4.758   0.908 -0.5864 -0.2234  0.0946
 2325SOL    HW117309   3.914   4.675   0.852  2.6866  0.0916 -0.1704
 2325SOL    HW217310   3.818   4.766   0.947 -1.0104 -3.8818  0.0430
 2326SOL     OW17311   9.547   6.418   1.723  0.1469 -0.2847 -0.1155
 2326SOL    HW117312   9.552   6.337   1.663  0.8709  0.1319 -0.6324
 2326SOL    HW217313   9.631   6.471   1.713 -0.3469  0.5589  0.1885
 2327SOL     OW17314   1.925   2.556   3.382  0.3756 -0.0371 -0.3433
 2327SOL    HW117315   1.897   2.587   3.472 -0.0423 -2.4928  0.4080
 2327SOL    HW217316   1.968   2.631   3.332  0.4772  1.3728  1.8360
 2328SOL     OW17317   7.685   9.095   2.100 -0.2471  0.3593 -0.2334
 2328SOL    HW117318   7.714   9.015   2.048  0.7279  0.8245 -0.4223
 2328SOL    HW217319   7.600   9.130   2.061  0.6532  0.9066 -1.7631
 2329SOL     OW17320   8.770   5.267   3.302 -0.4184 -0.5360 -0.0070
 2329SOL    HW117321   8.708   5.220   3.366 -0.4917  0.1389  0.4279
 2329SOL    HW217322   8.865   5.244   3.325 -0.4020  0.4230  0.9393
 2330SOL     OW17323   4.048   9.759   0.846 -0.0865 -0.1332 -0.0407
 2330SOL    HW117324   3.976   9.817   0.885  0.6855  1.0225 -0.2801
 2330SOL    HW217325   4.009   9.673   0.814 -1.4438  0.6750 -0.5807
 2331SOL     OW17326   2.469   6.651   2.387 -0.1740 -0.2013 -0.1265
 2331SOL    HW117327   2.457   6.598   2.304  0.0984  3.0877 -2.3337
 2331SOL    HW217328   2.522   6.597   2.453 -0.5200 -2.9053 -1.9703
 2332SOL     OW17329   4.074   9.119   2.116  0.4164  0.0289  0.1812
 2332SOL    HW117330   4.051   9.205   2.070 -1.7282 -0.2559  0.6769
 2332SOL    HW217331   4.155   9.079   2.073  2.2817  2.9740  0.8643
 2333SOL     OW17332   8.321   8.178   2.331  0.2285 -0.3440  0.5002
 2333SOL    HW117333   8.339   8.277   2.334  0.5017 -0.3782  0.0277
 2333SOL    HW217334   8.363   8.139   2.250 -0.8952 -0.6484  0.0575
 2334SOL     OW17335   2.973   3.160   0.835 -0.1052 -0.4280  0.5080
 2334SOL    HW117336   2.972   3.260   0.847  0.0504 -0.5204  1.3431
 2334SOL    HW217337   3.000   3.117   0.921 -0.4470 -1.2074  0.2266
 2335SOL     OW17338   1.061   9.710   1.752  0.6263  0.1524 -0.1914
 2335SOL    HW117339   1.092   9.740   1.843  3.5145 -0.8780 -0.7660
 2335SOL    HW217340   1.054   9.789   1.692 -1.8368  0.9191  1.0351
 2336SOL     OW17341   3.345   6.736   0.755  0.4279  0.1862  0.1495
 2336SOL    HW117342   3.341   6.680   0.672  0.1079  1.4508 -0.7101
 2336SOL    HW217343   3.346   6.833   0.729  1.8316  0.5672  1.5798
 2337SOL     OW17344   2.223   8.175   2.067  0.2304 -0.0026 -0.4580
 2337SOL    HW117345   2.312   8.140   2.038  1.4789  1.1450  1.8208
 2337SOL    HW217346   2.193   8.126   2.149 -0.4833  0.6915 -0.2952
 2338SOL     OW17347   1.268   1.925   1.461  0.2058 -0.6201  0.0681
 2338SOL    HW117348   1.249   1.858   1.533 -0.4567  0.0737  0.5476
 2338SOL    HW217349   1.220   2.010   1.482 -2.8225 -1.4832 -2.9212
 2339SOL     OW17350   7.710   9.042   1.777  0.0036  0.0234  0.3548
 2339SOL    HW117351   7.806   9.068   1.784  0.3791 -1.4009  0.6057
 2339SOL    HW217352   7.673   9.070   1.689  0.9931 -0.5329 -0.2360
 2340SOL     OW17353   7.709   1.073   0.292  0.2310 -0.2689  0.4261
 2340SOL    HW117354   7.654   1.026   0.361  1.6101 -1.5637  0.6579
 2340SOL    HW217355   7.712   1.018   0.209 -0.1467  0.5664 -0.1506
 2341SOL     OW17356   3.460   4.722   1.362 -0.1297 -0.0997  0.1062
 2341SOL    HW117357   3.417   4.655   1.301 -1.2713  0.8988 -0.2066
 2341SOL    HW217358   3.443   4.814   1.327  0.8354  0.3918  0.9089
 2342SOL     OW17359   3.439   5.366   1.715  0.2047 -0.0714  0.2082
 2342SOL    HW117360   3.408   5.445   1.767 -0.3736  0.2493 -0.6054
 2342SOL    HW217361   3.482   5.397   1.630 -0.6290 -0.6534 -0.4289
 2343SOL     OW17362   1.082   9.099   2.886 -0.2908 -0.3209  0.8195
 2343SOL    HW117363   1.069   9.090   2.985 -0.9638  0.6642  0.8296
 2343SOL    HW217364   1.144   9.176   2.867 -2.4698  1.3937  0.3895
 2344SOL     OW17365   7.713   9.460   0.261 -0.0125  0.0050 -0.2709
 2344SOL    HW117366   7.780   9.483   0.192  0.4163 -0.6359 -0.0786
 2344SOL    HW217367   7.681   9.366   0.246 -1.3827  0.5512 -0.7803
 2345SOL     OW17368   2.938   8.567   0.708  0.1533 -0.3726  0.3841
 2345SOL    HW117369   2.959   8.518   0.792  0.1485 -1.8697 -0.4606
 2345SOL    HW217370   2.839   8.566   0.692  0.0849  0.5324  0.7233
 2346SOL     OW17371   9.204   9.948   1.972 -0.0193  0.1475 -0.1541
 2346SOL    HW117372   9.228   9.985   1.882  0.6915 -0.2691 -0.1394
 2346SOL    HW217373   9.183  10.023   2.034  1.1303  0.5299 -0.2053
 2347SOL     OW17374   0.585   7.894   2.668  0.1577  0.0959 -0.5548
 2347SOL    HW117375   0.658   7.947   2.711  1.2029 -0.1254 -2.0313
 2347SOL    HW217376   0.497   7.918   2.710  0.9759  0.8905  0.7387
 2348SOL     OW17377   2.850   2.155   0.613 -0.5956 -0.3429  0.3872
 2348SOL    HW117378   2.812   2.158   0.706 -1.4501 -0.2096  0.0436
 2348SOL    HW217379   2.812   2.075   0.565 -0.4018 -0.2336  0.0558
 2349SOL     OW17380   7.381   0.263   0.084 -0.3837 -0.0238  0.0173
 2349SOL    HW117381   7.472   0.238   0.050 -0.3231 -1.1841  1.0155
 2349SOL    HW217382   7.337   0.182   0.123 -1.4836  0.7353  0.3530
 2350SOL     OW17383   0.338   8.044   1.171  0.1534 -0.6767 -0.0280
 2350SOL    HW117384   0.257   8.075   1.121 -0.8719 -0.1418  1.9219
 2350SOL    HW217385   0.342   7.944   1.168 -2.1667 -0.9068  2.1701
 2351SOL     OW17386   2.310   5.814   0.458  0.1244  0.2240  0.4266
 2351SOL    HW117387   2.401   5.772   0.466  0.2987  0.2207 -1.2939
 2351SOL    HW217388   2.250   5.753   0.405 -0.1121  1.3788 -0.6592
 2352SOL     OW17389   0.338   3.052   0.985 -0.7387  0.3731  0.3469
 2352SOL    HW117390   0.412   3.118   0.969 -0.0431  0.0205  2.0203
 2352SOL    HW217391   0.343   2.979   0.917 -0.1741  0.8890 -0.1674
 2353SOL     OW17392   0.659   9.421   1.233  0.3004 -0.2534 -0.3379
 2353SOL    HW117393   0.582   9.453   1.288  0.3565 -0.2739 -0.2464
 2353SOL    HW217394   0.687   9.330   1.264 -1.6397 -1.5947 -2.4008
 2354SOL     OW17395   8.160   1.867   1.600 -0.0146  0.3736 -0.3533
 2354SOL    HW117396   8.242   1.833   1.647 -0.3383 -0.3825 -0.3294
 2354SOL    HW217397   8.094   1.899   1.667  0.8569  2.4162 -0.4148
 2355SOL     OW17398   1.257   6.795   2.816  0.0443 -0.3082 -0.2164
 2355SOL    HW117399   1.254   6.860   2.892  2.8135  1.0845 -1.2140
 2355SOL    HW217400   1.234   6.704   2.849  2.3494  0.0431  2.6159
 2356SOL     OW17401   2.760   5.280   1.068 -0.0020  0.1994  0.1232
 2356SOL    HW117402   2.831   5.344   1.095  0.9560 -0.5988 -0.4933
 2356SOL    HW217403   2.796   5.215   1.001 -1.1935 -0.4517  0.0907
 2357SOL     OW17404   1.410   3.247   2.156 -0.1800 -0.0721  0.3963
 2357SOL    HW117405   1.504   3.249   2.191  0.2740 -0.7169 -0.7739
 2357SOL    HW217406   1.349   3.213   2.228  0.3124  1.3126  1.5038
 2358SOL     OW17407   9.064   0.408   2.349 -0.2099  0.1210 -0.3252
 2358SOL    HW117408   9.065   0.420   2.250  0.3999  1.8759 -0.1201
 2358SOL    HW217409   9.156   0.386   2.382 -0.1532  0.7800 -0.0223
 2359SOL     OW17410   8.954   1.143   1.388 -0.0481  0.0121  0.4028
 2359SOL    HW117411   8.955   1.047   1.418 -1.0572 -0.0436  0.2772
 2359SOL    HW217412   8.908   1.199   1.457 -0.7348  0.1714 -0.1732
 2360SOL     OW17413   2.141   5.356   1.434  0.1348 -0.4443  0.0749
 2360SOL    HW117414   2.092   5.319   1.356 -1.9598  1.3738  0.4652
 2360SOL    HW217415   2.238   5.365   1.412 -0.4782  0.3636 -2.4204
 2361SOL     OW17416   0.686   0.486   2.399 -0.1982 -0.7777 -0.5202
 2361SOL    HW117417   0.749   0.519   2.469 -0.9714  1.7001 -0.9548
 2361SOL    HW217418   0.600   0.457   2.443 -0.1910 -0.5012 -0.3241
 2362SOL     OW17419   8.544   0.058   3.167  0.0303 -0.1728 -0.2598
 2362SOL    HW117420   8.490   0.120   3.110  0.4948  0.7334  0.2712
 2362SOL    HW217421   8.557   0.099   3.257 -0.4202 -1.4473  0.3998
 2363SOL     OW17422   3.535   1.003   1.796  0.1873 -0.0573 -0.3397
 2363SOL    HW117423   3.615   0.944   1.804  0.3792  0.5961  3.4651
 2363SOL    HW217424   3.456   0.958   1.836  0.2231  2.0082  2.1592
 2364SOL     OW17425   4.224   8.255   3.279  0.4207 -0.2095 -1.0902
 2364SOL    HW117426   4.184   8.346   3.285 -2.0156 -1.2442 -1.2120
 2364SOL    HW217427   4.256   8.239   3.185  0.5893  0.3950 -1.1410
 2365SOL     OW17428   8.633   6.897   0.707 -0.4899  0.4459  0.1346
 2365SOL    HW117429   8.589   6.829   0.648  0.7280 -0.7064  0.5299
 2365SOL    HW217430   8.578   6.980   0.708 -1.2631 -0.0189 -1.5000
 2366SOL     OW17431   0.982   5.723   2.521 -0.5136  0.7577  0.7899
 2366SOL    HW117432   0.910   5.793   2.518  0.1444  1.4413  0.9504
 2366SOL    HW217433   1.069   5.765   2.546 -0.2055 -0.1972  1.3644
 2367SOL     OW17434   4.096   4.485   0.860  0.1118  0.2087 -0.3865
 2367SOL    HW117435   4.165   4.557   0.859 -0.6926  0.9727 -0.6123
 2367SOL    HW217436   4.038   4.492   0.779  0.1474 -0.8135 -0.5157
 2368SOL     OW17437   1.669   8.625   1.434  0.4456  0.2559 -0.4445
 2368SOL    HW117438   1.729   8.687   1.485 -0.4130  0.6789  0.0691
 2368SOL    HW217439   1.722   8.579   1.363  1.1172  1.5121 -0.7776
 2369SOL     OW17440   8.772   5.085   0.625  0.2720  0.0795 -0.4367
 2369SOL    HW117441   8.763   5.156   0.695  0.6443  0.0384 -0.3430
 2369SOL    HW217442   8.765   4.995   0.668  3.7514 -0.0168  0.0848
 2370SOL     OW17443   7.087   9.815   2.513  0.2370  0.2001  0.9119
 2370SOL    HW117444   7.170   9.864   2.541 -0.5488  0.7401  2.3730
 2370SOL    HW217445   7.075   9.734   2.571  0.3609 -0.5091 -0.0521
 2371SOL     OW17446   9.492   2.254   0.074 -0.0492 -0.4266  0.1160
 2371SOL    HW117447   9.468   2.332   0.016  0.4450 -0.0042  0.4715
 2371SOL    HW217448   9.467   2.274   0.169  0.2536 -0.6216  0.2390
 2372SOL     OW17449   8.737   3.515   2.282  0.9010  0.3009 -0.3263
 2372SOL    HW117450   8.709   3.541   2.190  1.9403 -0.5899 -0.9081
 2372SOL    HW217451   8.679   3.441   2.315 -1.3989  2.5576  0.9329
 2373SOL     OW17452   2.576   2.006   2.859 -0.3873 -0.0713  0.0272
 2373SOL    HW117453   2.657   2.062   2.844 -0.5095  0.0287 -0.2531
 2373SOL    HW217454   2.580   1.925   2.801 -0.6966  0.1494 -0.3013
 2374SOL     OW17455   0.393   0.698   2.339 -0.2507 -0.3580  0.7689
 2374SOL    HW117456   0.474   0.717   2.284 -1.5408  1.9454 -0.3533
 2374SOL    HW217457   0.410   0.727   2.433 -0.1975  1.2497  0.2735
 2375SOL     OW17458   3.631   0.808   0.090 -0.6521 -0.2894 -0.0791
 2375SOL    HW117459   3.715   0.858   0.070 -1.8742  1.3808 -1.1715
 2375SOL    HW217460   3.611   0.813   0.188 -0.4966  0.9306 -0.1049
 2376SOL     OW17461   1.253   3.212   1.742 -0.1771 -0.2610  0.1602
 2376SOL    HW117462   1.325   3.154   1.780  1.3628  1.7737  0.4195
 2376SOL    HW217463   1.181   3.226   1.811  0.4605 -0.1542  0.8080
 2377SOL     OW17464   4.073   4.851   1.650 -0.8178 -0.6312 -0.1853
 2377SOL    HW117465   4.114   4.902   1.725  0.0788 -0.2806 -0.9091
 2377SOL    HW217466   4.005   4.787   1.686  1.4231 -2.3053  1.1659
 2378SOL     OW17467   1.301   9.834   0.080 -0.3237  0.0031 -0.3970
 2378SOL    HW117468   1.381   9.845   0.138  0.1628 -0.3372 -0.9975
 2378SOL    HW217469   1.307   9.896   0.001 -0.6424 -0.0295 -0.4485
 2379SOL     OW17470   0.557   2.078   2.324  0.1578 -0.2799  0.2579
 2379SOL    HW117471   0.609   2.038   2.400  1.1559  0.4843 -0.0038
 2379SOL    HW217472   0.460   2.057   2.335  0.3278 -0.3952  1.6116
 2380SOL     OW17473   8.674   3.225   2.352  0.6309 -0.0288 -0.1887
 2380SOL    HW117474   8.772   3.236   2.362  0.7266 -0.6706 -0.3480
 2380SOL    HW217475   8.650   3.222   2.255  0.4498  0.1859 -0.1507
 2381SOL     OW17476   0.901   5.265   2.436  0.5319  0.2250  0.7722
 2381SOL    HW117477   0.805   5.258   2.462  0.3540 -1.7262 -0.3015
 2381SOL    HW217478   0.958   5.262   2.518 -0.2020 -1.6813  1.2400
 2382SOL     OW17479   0.772   7.948   2.225 -0.1063  0.2926  1.0222
 2382SOL    HW117480   0.834   8.014   2.268 -1.0503  1.9919 -0.1157
 2382SOL    HW217481   0.801   7.855   2.247  1.3115  1.0834  2.6148
 2383SOL     OW17482   0.434   8.357   0.829  0.1771  0.1187 -0.0786
 2383SOL    HW117483   0.458   8.388   0.921  0.4931  0.4643 -0.2772
 2383SOL    HW217484   0.512   8.371   0.768 -0.0833  0.0260 -0.4327
 2384SOL     OW17485   3.853   1.695   0.673 -0.1183  0.1945 -0.1331
 2384SOL    HW117486   3.846   1.763   0.746 -0.7540 -0.5591  0.5192
 2384SOL    HW217487   3.872   1.741   0.587 -0.3114  1.1850  0.3393
 2385SOL     OW17488   7.592   0.270   2.048  0.3825  0.4225  0.0297
 2385SOL    HW117489   7.647   0.190   2.074  0.5671  0.8860  1.1006
 2385SOL    HW217490   7.558   0.258   1.955  3.1655  0.5702 -1.0505
 2386SOL     OW17491   1.986   6.347   2.083  0.1785 -0.1372  0.1995
 2386SOL    HW117492   2.057   6.347   2.153 -0.1534 -1.8142  0.5764
 2386SOL    HW217493   1.896   6.340   2.126 -0.2474  2.2531 -0.2617
 2387SOL     OW17494   8.833   2.023   2.119  0.1069  0.0665 -0.2552
 2387SOL    HW117495   8.849   1.972   2.034  0.0815  2.9929 -2.0933
 2387SOL    HW217496   8.736   2.016   2.144  0.5455 -2.6957  0.8555
 2388SOL     OW17497   1.641   2.160   0.025 -0.1303 -0.1934 -0.0761
 2388SOL    HW117498   1.588   2.238  -0.008  0.0823  0.0434  0.1404
 2388SOL    HW217499   1.683   2.113  -0.053  0.4530  0.4255 -0.1454
 2389SOL     OW17500   4.159   4.788   1.046  0.8259 -0.2407  0.0903
 2389SOL    HW117501   4.173   4.883   1.075 -0.7970 -0.8074  2.9217
 2389SOL    HW217502   4.069   4.780   1.002  1.1811 -0.3897 -0.6196
 2390SOL     OW17503   2.782   5.887   1.849  0.1873  0.5894  0.3585
 2390SOL    HW117504   2.749   5.973   1.887 -2.5771 -0.3617  0.2191
 2390SOL    HW217505   2.827   5.834   1.921 -0.9724  0.7811  1.2420
 2391SOL     OW17506   3.895   7.640   1.038 -0.1862  0.2254  0.6778
 2391SOL    HW117507   3.809   7.604   1.001 -0.3546  1.9399 -0.7190
 2391SOL    HW217508   3.970   7.579   1.015 -0.4357  0.7803 -1.7820
 2392SOL     OW17509   4.428   1.070   1.193 -0.1431  0.0213 -0.0163
 2392SOL    HW117510   4.495   1.143   1.203 -0.4930  0.3683 -0.2109
 2392SOL    HW217511   4.357   1.078   1.263 -0.5445  0.2614 -0.4469
 2393SOL     OW17512   1.757   6.652   0.567 -0.1872  0.9365 -0.5135
 2393SOL    HW117513   1.739   6.723   0.634  1.0844  0.6172  0.1902
 2393SOL    HW217514   1.852   6.659   0.535  0.3037 -1.1005  0.4080
 2394SOL     OW17515   3.904   2.570   2.854  0.7036  0.3808 -0.3877
 2394SOL    HW117516   3.975   2.560   2.923  2.7511  0.3440 -2.4527
 2394SOL    HW217517   3.814   2.574   2.899  2.0749  1.8128  2.3493
 2395SOL     OW17518   4.429   1.571   1.587 -0.3741  0.0260  0.2418
 2395SOL    HW117519   4.472   1.484   1.564 -2.5449 -1.1340  0.3846
 2395SOL    HW217520   4.480   1.615   1.661  1.5666 -0.4168 -0.8139
 2396SOL     OW17521   9.960   6.164   1.353 -0.0244 -0.1771 -0.3467
 2396SOL    HW117522   9.936   6.222   1.276 -0.2718 -2.9262 -2.4131
 2396SOL    HW217523  10.043   6.200   1.397 -0.1889  1.7067 -1.5118
 2397SOL     OW17524   1.034   3.855   2.398  0.2157 -0.2061  0.0514
 2397SOL    HW117525   1.108   3.890   2.456 -0.7289  3.7128 -0.9238
 2397SOL    HW217526   1.068   3.839   2.305  0.1866  0.1763 -0.0260
 2398SOL     OW17527   3.984   0.850   3.262  0.1300 -0.2101  0.3361
 2398SOL    HW117528   4.039   0.783   3.312  0.4305  0.2521  0.6284
 2398SOL    HW217529   3.887   0.828   3.273  0.2532 -1.1081 -0.2934
 2399SOL     OW17530   3.707   1.949   2.562 -0.3038  0.4611 -0.2088
 2399SOL    HW117531   3.727   1.887   2.487 -0.5308 -0.1282  0.2172
 2399SOL    HW217532   3.620   1.924   2.605  0.1990  0.3084  0.7419
 2400SOL     OW17533   8.397   0.216   2.997 -0.2579  0.1825 -0.0182
 2400SOL    HW117534   8.311   0.194   3.043  0.0451  2.1729  1.6002
 2400SOL    HW217535   8.378   0.258   2.908 -0.9216 -0.9039 -0.3872
 2401SOL     OW17536   1.946   6.576   2.369  0.0778  0.2187 -0.0356
 2401SOL    HW117537   2.015   6.644   2.394 -0.5633  0.7802  0.2300
 2401SOL    HW217538   1.915   6.591   2.276  0.4128 -0.1210 -0.2039
 2402SOL     OW17539   2.192   8.416   2.864  0.2006 -0.4664 -0.0911
 2402SOL    HW117540   2.117   8.380   2.809  0.4908 -1.6789  0.2787
 2402SOL    HW217541   2.156   8.474   2.937 -0.4678 -1.6830  0.5804
 2403SOL     OW17542   7.874   0.449   2.302 -0.1943 -0.0334 -0.7856
 2403SOL    HW117543   7.805   0.447   2.375 -0.0960 -0.5921 -0.7046
 2403SOL    HW217544   7.963   0.472   2.341 -0.5310  1.8311 -1.0620
 2404SOL     OW17545   8.259   5.624   0.617 -0.3484 -0.1183 -0.7086
 2404SOL    HW117546   8.233   5.536   0.656 -2.5806  1.2426  0.9504
 2404SOL    HW217547   8.315   5.675   0.682 -0.7774  0.5446 -0.8571
 2405SOL     OW17548   8.743   8.701   0.900  0.3926  0.0556 -0.0635
 2405SOL    HW117549   8.778   8.667   0.812  1.3967 -0.2818  0.4570
 2405SOL    HW217550   8.671   8.768   0.883  1.9258  1.4951 -1.2149
 2406SOL     OW17551   2.451   2.437   2.874  0.4287 -0.2851  0.2869
 2406SOL    HW117552   2.433   2.349   2.918 -1.1038  0.9348  2.1653
 2406SOL    HW217553   2.540   2.471   2.902  0.3043 -0.4525  0.8939
 2407SOL     OW17554   3.319   6.296   1.277  0.3070  0.1237  0.2913
 2407SOL    HW117555   3.274   6.208   1.293  0.5676  0.3626  2.5262
 2407SOL    HW217556   3.380   6.288   1.198  0.9780 -1.9547  0.9860
 2408SOL     OW17557   4.148   8.950   2.923 -0.7487 -0.2736  0.2571
 2408SOL    HW117558   4.238   8.920   2.892  0.3068 -1.0829  3.8995
 2408SOL    HW217559   4.147   9.049   2.933 -0.5016 -0.1986 -0.4234
 2409SOL     OW17560   0.067   4.554   0.396 -0.0618  0.7846 -0.0723
 2409SOL    HW117561   0.131   4.571   0.470 -0.0618  2.1289 -0.3705
 2409SOL    HW217562   0.112   4.567   0.308 -0.6819  1.5095 -0.2859
 2410SOL     OW17563   3.762   7.436   3.240  0.4003  0.1284  0.5722
 2410SOL    HW117564   3.835   7.501   3.221  0.1328  0.0933 -0.6533
 2410SOL    HW217565   3.797   7.343   3.233  0.1579  0.1022 -0.4525
 2411SOL     OW17566   0.662   9.294   1.822 -0.0101  0.0753  0.1563
 2411SOL    HW117567   0.671   9.357   1.898  1.0455 -2.4244  2.1908
 2411SOL    HW217568   0.566   9.278   1.802 -0.2794  1.6145  0.1907
 2412SOL     OW17569   2.681   8.091   0.904  0.1729 -0.6461  0.0500
 2412SOL    HW117570   2.678   8.180   0.951 -0.8115 -0.6302 -0.0279
 2412SOL    HW217571   2.761   8.087   0.846  0.2526  0.1823  0.0926
 2413SOL     OW17572   9.339   4.438   2.389  0.3380 -0.1195 -0.1039
 2413SOL    HW117573   9.306   4.531   2.371 -1.8968 -0.4627  1.8697
 2413SOL    HW217574   9.435   4.441   2.415 -0.2137  1.9422  1.9237
 2414SOL     OW17575   2.993   5.920   2.531  0.3757  0.2830  0.1821
 2414SOL    HW117576   3.037   5.844   2.483  3.4005  1.4528  1.0167
 2414SOL    HW217577   2.962   5.890   2.621 -0.9163 -0.6287 -0.5429
 2415SOL     OW17578   8.355   3.120   1.168 -0.0396  0.5158 -0.5316
 2415SOL    HW117579   8.378   3.124   1.266 -0.4093 -0.0870 -0.4110
 2415SOL    HW217580   8.268   3.071   1.157 -0.1858  0.9112 -1.1341
 2416SOL     OW17581   1.237   2.877   0.702  0.6955  0.4305 -0.3605
 2416SOL    HW117582   1.148   2.893   0.746  0.4143 -0.0008 -0.7802
 2416SOL    HW217583   1.309   2.916   0.760  0.2361  0.8055 -0.0306
 2417SOL     OW17584   2.827   9.854   1.271  0.0355  0.6579 -0.1324
 2417SOL    HW117585   2.906   9.901   1.230 -0.0329  0.1866 -0.8262
 2417SOL    HW217586   2.743   9.894   1.235 -0.0291 -1.3476 -2.3859
 2418SOL     OW17587   3.374   2.734   2.745 -0.1178 -0.3167  0.1916
 2418SOL    HW117588   3.428   2.816   2.725 -1.0507  0.0663 -0.7898
 2418SOL    HW217589   3.279   2.760   2.760 -0.6260 -1.3466 -1.2291
 2419SOL     OW17590   3.539   0.704   1.256 -0.0101 -0.2242 -0.0703
 2419SOL    HW117591   3.623   0.747   1.223 -1.3248  1.4573 -1.3753
 2419SOL    HW217592   3.491   0.663   1.178 -1.1425  0.2000  0.3968
 2420SOL     OW17593   9.355   3.466   0.635 -0.6431 -0.0296 -0.1593
 2420SOL    HW117594   9.447   3.499   0.657 -0.2446 -1.3801  0.2221
 2420SOL    HW217595   9.289   3.511   0.695 -0.3847  1.8667 -1.2576
 2421SOL     OW17596   3.193   9.403   1.673  0.2691  0.1982 -0.0865
 2421SOL    HW117597   3.275   9.388   1.619  0.5243  0.7486  0.1449
 2421SOL    HW217598   3.129   9.327   1.659  0.6127  0.0097 -0.6363
 2422SOL     OW17599   1.778   4.315   0.414  0.2224  0.0778  0.0183
 2422SOL    HW117600   1.873   4.290   0.398 -0.6001 -1.9226 -2.0297
 2422SOL    HW217601   1.769   4.359   0.504  3.2745  1.6411 -0.3870
 2423SOL     OW17602   1.332   1.614   2.711  0.3097  0.5576  0.1178
 2423SOL    HW117603   1.313   1.523   2.748 -0.0487 -0.3291 -2.1889
 2423SOL    HW217604   1.421   1.644   2.744  1.4655 -1.6216 -0.8691
 2424SOL     OW17605   7.195   9.861   1.780  0.1205  0.4623 -0.4676
 2424SOL    HW117606   7.180   9.770   1.741  1.3921  0.2796 -0.5666
 2424SOL    HW217607   7.294   9.877   1.789 -0.1209  1.3080  0.7832
 2425SOL     OW17608   8.719   7.701   1.666 -0.1960 -0.0722  0.1042
 2425SOL    HW117609   8.730   7.628   1.733 -1.4420 -0.1563  0.2178
 2425SOL    HW217610   8.800   7.760   1.668 -0.7782  0.7049  2.6279
 2426SOL     OW17611   4.409   4.619   0.833 -0.4892 -0.3261 -0.0177
 2426SOL    HW117612   4.379   4.698   0.778  1.0654  0.5953  0.4471
 2426SOL    HW217613   4.356   4.616   0.918 -0.7030  0.0843 -0.1344
 2427SOL     OW17614   2.098   6.617   3.097  0.3687  0.1467 -0.7917
 2427SOL    HW117615   2.091   6.519   3.079  0.7788 -0.0684  0.1909
 2427SOL    HW217616   2.022   6.646   3.155  0.6720  0.2639 -0.4511
 2428SOL     OW17617   4.421   8.537   1.654  0.4774 -0.1728 -0.1818
 2428SOL    HW117618   4.432   8.507   1.559  0.6969 -0.4254 -0.0769
 2428SOL    HW217619   4.404   8.635   1.657  0.5772 -0.1482 -0.4763
 2429SOL     OW17620   0.098   8.743   3.025  0.5506 -0.0608  0.4950
 2429SOL    HW117621   0.107   8.713   2.930 -0.7764 -0.4723  0.4958
 2429SOL    HW217622   0.169   8.810   3.045  2.0721 -1.4147 -0.2110
 2430SOL     OW17623   8.803   7.219   0.508 -0.6086 -0.5715  0.2384
 2430SOL    HW117624   8.822   7.175   0.421 -2.4324  0.5130 -0.7369
 2430SOL    HW217625   8.711   7.193   0.539 -1.1261  1.3677  0.3686
 2431SOL     OW17626   8.207   0.614   1.731 -0.2309 -0.3463  0.1015
 2431SOL    HW117627   8.255   0.526   1.732 -0.0140 -0.2390 -0.6152
 2431SOL    HW217628   8.153   0.624   1.814  0.6173 -0.6810  0.6962
 2432SOL     OW17629   9.001   3.484   1.658  0.4249 -0.4942  0.6533
 2432SOL    HW117630   8.955   3.560   1.703  2.4867  0.6521  0.8648
 2432SOL    HW217631   8.935   3.435   1.600 -0.6606  2.1716 -0.4462
 2433SOL     OW17632   2.426   0.230   1.184  0.6410 -0.6639 -0.2033
 2433SOL    HW117633   2.429   0.317   1.135  0.0012 -1.3930 -1.5605
 2433SOL    HW217634   2.339   0.184   1.164  2.2827 -3.0662 -2.0527
 2434SOL     OW17635   2.291   7.377   3.299 -0.2504 -0.4838  0.3086
 2434SOL    HW117636   2.390   7.373   3.311 -0.1880  1.9634  0.9060
 2434SOL    HW217637   2.256   7.460   3.343 -2.6094 -1.5114  0.4260
 2435SOL     OW17638   0.944   1.924   3.431 -0.1761  0.4489  0.4947
 2435SOL    HW117639   1.009   1.972   3.490 -0.3260  0.8149  0.3640
 2435SOL    HW217640   0.868   1.889   3.486  1.9063 -3.1278  1.2266
 2436SOL     OW17641   9.676   8.878   1.233  0.1174  0.0952 -0.1030
 2436SOL    HW117642   9.699   8.797   1.286  1.7067  0.9691  0.5910
 2436SOL    HW217643   9.655   8.954   1.296  1.5800  1.0151 -0.6981
 2437SOL     OW17644   1.161   5.458   0.161 -0.0490 -0.4345 -0.4677
 2437SOL    HW117645   1.182   5.526   0.232  0.3693 -1.0698  0.0184
 2437SOL    HW217646   1.178   5.498   0.071  1.8410 -0.4406 -0.1399
 2438SOL     OW17647   8.401   2.213   3.084  0.5668  0.4555 -0.3522
 2438SOL    HW117648   8.476   2.253   3.030 -0.2625 -0.7606 -2.4552
 2438SOL    HW217649   8.316   2.261   3.063  0.2581  0.0361 -0.0596
 2439SOL     OW17650   0.874   6.943   2.718  0.0813 -0.0949 -0.0873
 2439SOL    HW117651   0.954   6.973   2.666 -0.4424  0.5268 -0.5283
 2439SOL    HW217652   0.841   6.856   2.682  0.1829 -0.0436 -0.3037
 2440SOL     OW17653   9.451   9.889   2.771  0.1675 -0.0492  0.1094
 2440SOL    HW117654   9.430   9.948   2.849 -0.2440 -1.4012  1.0316
 2440SOL    HW217655   9.424   9.795   2.792  0.1161 -0.4375 -1.6382
 2441SOL     OW17656   0.948   6.881   0.192  0.3904  0.3629  0.7615
 2441SOL    HW117657   0.901   6.793   0.196  1.2645 -0.1108  0.9225
 2441SOL    HW217658   0.965   6.905   0.096 -2.1781  1.6484  0.5866
 2442SOL     OW17659   3.202   2.055   2.697  0.0741 -0.2340  0.4570
 2442SOL    HW117660   3.284   2.064   2.641  0.4861 -1.8092  0.7705
 2442SOL    HW217661   3.130   2.009   2.644  0.3047 -1.2961  1.0547
 2443SOL     OW17662   2.230   1.496   1.214 -0.9389  0.0113  0.4091
 2443SOL    HW117663   2.254   1.469   1.307 -0.5108  0.6560  0.4942
 2443SOL    HW217664   2.155   1.563   1.217  0.9271  2.1872  0.4853
 2444SOL     OW17665   9.618   6.729   1.349  0.2399  0.6823 -0.1632
 2444SOL    HW117666   9.543   6.665   1.359 -0.8399  2.0107  0.3523
 2444SOL    HW217667   9.665   6.740   1.436  2.7361 -2.1404 -1.0507
 2445SOL     OW17668   9.538   7.046   3.385 -0.0950  0.1233  0.0851
 2445SOL    HW117669   9.445   7.082   3.375  0.0035 -0.0200 -1.3495
 2445SOL    HW217670   9.546   6.959   3.336  0.5091 -0.4083  1.0855
 2446SOL     OW17671   1.932   6.898   2.009 -0.6294  0.1705  0.1583
 2446SOL    HW117672   1.888   6.963   2.072  0.5534  2.0045 -0.8487
 2446SOL    HW217673   1.911   6.805   2.037 -0.1788  0.9360  3.2929
 2447SOL     OW17674   0.906   8.580   1.914  0.3929  0.6786  0.6452
 2447SOL    HW117675   0.868   8.673   1.918 -1.5053 -0.0167 -0.5951
 2447SOL    HW217676   0.963   8.571   1.833 -1.3324  0.0821 -0.5207
 2448SOL     OW17677   2.600   6.199   1.641 -0.1797  0.0264 -0.0713
 2448SOL    HW117678   2.602   6.099   1.629  1.1437  0.0353 -0.0520
 2448SOL    HW217679   2.604   6.221   1.738  0.9240  0.1148 -0.1345
 2449SOL     OW17680   0.351   1.421   1.340 -0.4401  0.0430  0.3861
 2449SOL    HW117681   0.317   1.362   1.266 -0.9060 -0.5127  1.0360
 2449SOL    HW217682   0.330   1.516   1.319  2.3518  0.2459 -1.8004
 2450SOL     OW17683   2.169   9.599   2.270  0.3354  0.2302  0.0878
 2450SOL    HW117684   2.122   9.622   2.184 -0.7229  1.9221  1.0826
 2450SOL    HW217685   2.104   9.603   2.345  1.3770 -0.7354  1.0515
 2451SOL     OW17686   2.805   7.350   0.422  0.2282 -0.0530  0.6491
 2451SOL    HW117687   2.715   7.348   0.379  0.2139  0.5852  0.6444
 2451SOL    HW217688   2.827   7.444   0.449  1.0977 -0.1222  0.2054
 2452SOL     OW17689   4.600   1.925   2.211 -0.5399  1.0653  0.5419
 2452SOL    HW117690   4.689   1.968   2.197 -0.1701  0.6171  1.4688
 2452SOL    HW217691   4.532   1.994   2.234  0.1844  1.1200  2.6464
 2453SOL     OW17692   9.477   2.604   0.811 -0.1726  0.2540  0.2254
 2453SOL    HW117693   9.491   2.549   0.728 -0.7213  0.2148  0.1580
 2453SOL    HW217694   9.413   2.557   0.871  0.2115  0.2911  0.6688
 2454SOL     OW17695   9.766   5.059   0.413  0.0826  0.0261  0.6302
 2454SOL    HW117696   9.746   5.034   0.318  0.2311  1.7922  0.1133
 2454SOL    HW217697   9.687   5.038   0.470 -0.9967  1.3188 -0.3423
 2455SOL     OW17698   4.823   9.026   1.976  0.3254 -0.2617  0.0733
 2455SOL    HW117699   4.847   9.123   1.968  0.2722 -0.1936  0.6880
 2455SOL    HW217700   4.793   8.991   1.887 -2.4510  1.0447  0.4137
 2456SOL     OW17701   9.453   6.374   2.139  0.9178 -0.3929  0.1463
 2456SOL    HW117702   9.381   6.420   2.191 -0.2100 -0.3783 -1.4162
 2456SOL    HW217703   9.446   6.275   2.151  0.5400 -0.3998 -0.1518
 2457SOL     OW17704   1.923   2.150   2.851  0.4831 -0.3062 -0.2456
 2457SOL    HW117705   1.926   2.250   2.858 -0.6157 -0.2174 -0.9248
 2457SOL    HW217706   2.015   2.116   2.832  0.5848  0.7279 -1.6955
 2458SOL     OW17707   9.467   6.277   0.653  0.0588 -0.1599 -0.0811
 2458SOL    HW117708   9.428   6.189   0.680  0.8712 -0.2425  0.8834
 2458SOL    HW217709   9.485   6.277   0.555  0.1503 -1.1178 -0.0726
 2459SOL     OW17710   4.533   9.613   3.391 -0.8474 -0.0328  0.5137
 2459SOL    HW117711   4.543   9.597   3.489 -1.6498 -0.3396  0.5488
 2459SOL    HW217712   4.591   9.690   3.363  0.8208 -1.1546  0.8754
 2460SOL     OW17713   1.522   5.408   2.179  0.3898 -0.3505 -0.3484
 2460SOL    HW117714   1.615   5.385   2.149  0.4067  0.5398 -0.9918
 2460SOL    HW217715   1.466   5.325   2.179  1.4563 -1.0732  1.0407
 2461SOL     OW17716   2.908   1.088   1.148  0.0917 -0.2053 -0.2550
 2461SOL    HW117717   2.910   1.171   1.092 -2.1632 -1.0571 -1.6958
 2461SOL    HW217718   2.956   1.015   1.101  2.6046  0.3979  1.2912
 2462SOL     OW17719   1.277   4.368   0.607 -0.3406  0.2283 -0.1263
 2462SOL    HW117720   1.185   4.396   0.636  0.6607  1.5807  1.8441
 2462SOL    HW217721   1.290   4.394   0.511 -1.1073  2.3989  0.3183
 2463SOL     OW17722   8.567   7.616   1.981  0.5308 -0.3409 -0.1404
 2463SOL    HW117723   8.652   7.563   1.973 -0.7412 -2.8443  2.1854
 2463SOL    HW217724   8.575   7.680   2.057  0.6941  0.1179 -0.5451
 2464SOL     OW17725   0.640   4.922   0.230  0.1673  0.0360  0.2126
 2464SOL    HW117726   0.730   4.959   0.208  0.6039  0.2996  2.3086
 2464SOL    HW217727   0.638   4.894   0.326 -1.8323 -0.4254  0.0627
 2465SOL     OW17728   9.105   8.719   0.071  0.3810 -0.3919  0.1002
 2465SOL    HW117729   9.150   8.678   0.151 -0.2307  2.1438  1.7953
 2465SOL    HW217730   9.136   8.814   0.061 -2.1399  0.3703 -0.6496
 2466SOL     OW17731   1.189   8.102   2.024  0.2075 -0.2885 -0.3355
 2466SOL    HW117732   1.245   8.035   2.073 -0.6469 -0.3015  0.6279
 2466SOL    HW217733   1.093   8.077   2.031 -0.2456  1.7739  1.1807
 2467SOL     OW17734   8.414   9.611   1.573  0.1168  0.0385  0.2984
 2467SOL    HW117735   8.459   9.629   1.486  0.3350  0.4417  0.4939
 2467SOL    HW217736   8.422   9.691   1.632 -0.8051  0.0933  0.3595
 2468SOL     OW17737   1.682   6.382   0.862  0.1346  1.3631 -0.1140
 2468SOL    HW117738   1.617   6.306   0.864  0.2746  1.2220 -0.8462
 2468SOL    HW217739   1.771   6.349   0.830  0.0541  1.9298 -0.9441
 2469SOL     OW17740   7.921   7.571   0.068 -0.0284  0.0116 -0.3160
 2469SOL    HW117741   7.946   7.667   0.055 -2.4184  1.0336  2.1523
 2469SOL    HW217742   7.856   7.544  -0.002  0.6511  0.1952 -1.0205
 2470SOL     OW17743   8.612   9.836   0.347 -0.1452 -0.1617 -0.0513
 2470SOL    HW117744   8.648   9.849   0.439 -1.4825  2.8511  0.0892
 2470SOL    HW217745   8.521   9.796   0.353  0.1571 -0.8746 -0.1265
 2471SOL     OW17746   1.340   7.229   0.969  0.3603  0.1087  0.7778
 2471SOL    HW117747   1.247   7.265   0.970  0.6441  0.8491  2.8854
 2471SOL    HW217748   1.338   7.131   0.992  0.0498 -0.0190  0.2052
 2472SOL     OW17749   3.351   4.862   0.029 -0.2449 -0.3740 -1.3645
 2472SOL    HW117750   3.311   4.792  -0.030 -1.5640 -0.8005 -0.0155
 2472SOL    HW217751   3.300   4.866   0.115  0.3262  1.6754 -1.0843
 2473SOL     OW17752   9.612   4.537   0.097 -0.3489  0.1844 -0.0114
 2473SOL    HW117753   9.622   4.461   0.032  0.2100 -0.0187  0.3125
 2473SOL    HW217754   9.701   4.558   0.138 -0.9602 -0.6688  1.8008
 2474SOL     OW17755   2.838   7.617   0.449 -0.1379  0.4594 -0.2929
 2474SOL    HW117756   2.788   7.669   0.380 -1.7550  1.1596  1.3699
 2474SOL    HW217757   2.922   7.666   0.473 -0.7804  1.4396 -0.0164
 2475SOL     OW17758   8.231   7.241   1.581  0.0256 -0.5266  0.1132
 2475SOL    HW117759   8.319   7.216   1.622  0.5361 -0.8359 -1.1638
 2475SOL    HW217760   8.241   7.328   1.532 -0.6981  0.0761  1.0240
 2476SOL     OW17761   2.152   2.207   0.911  0.0104 -0.3100 -0.7015
 2476SOL    HW117762   2.188   2.179   0.822 -0.6703 -0.4541 -0.9322
 2476SOL    HW217763   2.130   2.305   0.908  0.1149 -0.2856 -0.6523
 2477SOL     OW17764   3.885   4.359   2.091 -0.0965 -0.0570  0.2716
 2477SOL    HW117765   3.808   4.304   2.061  0.0191 -0.7833  1.2660
 2477SOL    HW217766   3.971   4.315   2.063 -0.0379  1.1447 -1.5149
 2478SOL     OW17767   3.370   1.844   1.933  0.3955 -0.4263 -0.0761
 2478SOL    HW117768   3.427   1.764   1.915  1.7520  0.1234  1.6164
 2478SOL    HW217769   3.279   1.815   1.961  1.1563 -1.4055  1.3975
 2479SOL     OW17770   0.196   6.593   0.586 -0.4191  0.2615  0.1368
 2479SOL    HW117771   0.112   6.615   0.635  0.5204  0.3526  1.7331
 2479SOL    HW217772   0.262   6.667   0.598  0.2659 -0.2779 -0.2358
 2480SOL     OW17773   3.926   8.928   1.898  0.2687 -0.0414  0.2264
 2480SOL    HW117774   3.935   8.983   1.981 -0.6911  0.4596  0.0131
 2480SOL    HW217775   3.834   8.941   1.859  1.7643  2.3751 -2.7575
 2481SOL     OW17776   2.082   8.823   3.299  0.2760  0.9169 -0.3180
 2481SOL    HW117777   2.178   8.814   3.327  0.0583  0.3559  0.2704
 2481SOL    HW217778   2.030   8.745   3.334 -0.1390  0.5514 -1.7480
 2482SOL     OW17779   8.449   9.668   0.762 -0.2697 -0.6643 -0.6400
 2482SOL    HW117780   8.392   9.749   0.766 -2.0036 -1.9119  0.6622
 2482SOL    HW217781   8.409   9.602   0.698  0.5693 -0.9248 -0.9107
 2483SOL     OW17782   9.600   8.191   1.097 -0.1342  0.2724 -0.0676
 2483SOL    HW117783   9.664   8.217   1.170 -0.0226 -0.4135  0.0838
 2483SOL    HW217784   9.650   8.184   1.011 -0.4368  2.0067 -0.4001
 2484SOL     OW17785   9.238   2.079   3.437 -0.2740  0.2450  0.0516
 2484SOL    HW117786   9.166   2.148   3.441 -0.0642  0.4157  1.0730
 2484SOL    HW217787   9.327   2.123   3.440 -0.1382 -0.1074  2.1015
 2485SOL     OW17788   9.320   3.718   2.411  0.4398 -0.0755 -0.0038
 2485SOL    HW117789   9.367   3.769   2.483  0.9610  1.0616 -1.1206
 2485SOL    HW217790   9.382   3.702   2.335  0.3531 -2.6256  0.4058
 2486SOL     OW17791   9.035   4.767   3.334 -0.0070 -0.0364  0.3408
 2486SOL    HW117792   9.001   4.843   3.278  0.8440  0.0582 -0.0508
 2486SOL    HW217793   8.957   4.719   3.374 -0.5348  1.4049  1.0771
 2487SOL     OW17794   5.190   2.914   1.900 -0.2829 -0.0297  0.1877
 2487SOL    HW117795   5.137   2.997   1.888 -1.3553 -0.7224  0.0899
 2487SOL    HW217796   5.135   2.845   1.948  1.1083 -0.1542  1.6623
 2488SOL     OW17797   1.811   8.942   3.058  0.7951  0.0233 -0.2646
 2488SOL    HW117798   1.712   8.935   3.047  1.0524 -1.6675 -1.5780
 2488SOL    HW217799   1.832   9.008   3.131 -1.2955  0.0807  0.2964
 2489SOL     OW17800   9.571   2.009   1.347  0.0176 -0.1319 -0.0432
 2489SOL    HW117801   9.499   1.993   1.415  0.4485  1.1874  0.7295
 2489SOL    HW217802   9.660   2.004   1.391  0.3129  0.4498 -0.5680
 2490SOL     OW17803   3.621   1.763   2.136  0.2291 -0.1168  0.2361
 2490SOL    HW117804   3.665   1.765   2.046 -0.7698 -0.6463 -0.2801
 2490SOL    HW217805   3.598   1.669   2.160 -2.2011  0.3027 -0.3091
 2491SOL     OW17806   3.941   8.282   2.910 -0.0394  0.7035  0.1638
 2491SOL    HW117807   3.872   8.298   2.981  1.2994 -1.1722  1.9474
 2491SOL    HW217808   3.924   8.194   2.866  1.6755 -0.2231  1.2581
 2492SOL     OW17809   0.810   2.284   1.841 -1.0224 -0.2542 -0.1589
 2492SOL    HW117810   0.811   2.359   1.907 -0.5086  2.3104 -2.9563
 2492SOL    HW217811   0.720   2.241   1.840 -1.5805  0.8725  0.8869
 2493SOL     OW17812   1.543   5.337   0.088  0.1397 -0.0792 -0.2361
 2493SOL    HW117813   1.524   5.416   0.030 -0.6018  1.1467  1.6262
 2493SOL    HW217814   1.633   5.347   0.131  0.7076 -1.0040 -1.1685
 2494SOL     OW17815   3.262   7.233   2.767 -0.2028 -0.6016 -0.2124
 2494SOL    HW117816   3.310   7.309   2.722  0.9531 -0.6543  0.9116
 2494SOL    HW217817   3.248   7.255   2.863 -2.5891 -0.5310 -0.5420
 2495SOL     OW17818   3.034   5.762   0.855 -0.1404 -0.0717  0.3837
 2495SOL    HW117819   3.010   5.835   0.790 -0.0750 -0.5690 -0.2051
 2495SOL    HW217820   2.963   5.756   0.925 -0.5866 -0.0170 -0.0566
 2496SOL     OW17821   8.859   7.493   3.331 -0.5931 -0.2701 -0.0836
 2496SOL    HW117822   8.766   7.526   3.320 -0.7092  0.7949  3.4862
 2496SOL    HW217823   8.858   7.405   3.379  0.2700 -0.0143  0.4067
 2497SOL     OW17824   2.177   7.725   2.191  0.2347 -0.0691  0.2188
 2497SOL    HW117825   2.128   7.812   2.194 -0.4361 -0.4169 -0.4148
 2497SOL    HW217826   2.210   7.702   2.282 -0.7800  0.1751  0.6559
 2498SOL     OW17827   1.085   8.841   1.920 -0.6921  0.6735 -0.2626
 2498SOL    HW117828   1.151   8.878   1.854 -1.2058  0.1565 -1.0772
 2498SOL    HW217829   1.094   8.889   2.007  1.1052  0.2488 -0.2080
 2499SOL     OW17830   9.443   2.357   0.316  0.2884 -0.3402  0.2954
 2499SOL    HW117831   9.387   2.439   0.316 -0.7338 -1.0378  0.1213
 2499SOL    HW217832   9.540   2.383   0.323 -0.1138  0.8154  1.7474
 2500SOL     OW17833   3.595   3.845   0.651  0.7693 -0.2125 -0.0849
 2500SOL    HW117834   3.647   3.762   0.632  0.6080 -0.3571  0.1011
 2500SOL    HW217835   3.499   3.831   0.624  0.9267  0.2175 -0.8638
 2501SOL     OW17836   7.884   0.976   2.308  0.2130 -0.7466 -0.0921
 2501SOL    HW117837   7.903   0.883   2.276  2.4494 -0.2475 -0.2300
 2501SOL    HW217838   7.913   0.986   2.403 -1.2566 -0.5653  0.3533
 2502SOL     OW17839   2.847   5.572   0.921  0.4062  0.1446  0.1713
 2502SOL    HW117840   2.757   5.529   0.912  0.8477 -0.8968  0.6408
 2502SOL    HW217841   2.904   5.548   0.842  0.8799 -0.6943  0.7616
 2503SOL     OW17842   3.248   3.320   1.790  0.3589  0.3868 -0.3502
 2503SOL    HW117843   3.218   3.375   1.868 -2.6142 -0.5665 -0.7433
 2503SOL    HW217844   3.251   3.377   1.708 -1.7944  0.2435 -0.5691
 2504SOL     OW17845   9.565   4.809   0.266 -0.3048  0.2661 -0.0933
 2504SOL    HW117846   9.550   4.711   0.278 -1.2762  0.2524 -1.3094
 2504SOL    HW217847   9.632   4.824   0.194 -0.4917  0.4990 -0.2200
 2505SOL     OW17848   0.321   0.610   1.624 -0.2239  0.6653 -0.5032
 2505SOL    HW117849   0.257   0.539   1.655  1.3807  0.1591  1.7641
 2505SOL    HW217850   0.275   0.699   1.625 -1.0953  0.2090  0.4404
 2506SOL     OW17851   9.441   9.023   0.318  0.2840  0.0348  0.5730
 2506SOL    HW117852   9.479   8.952   0.259 -0.8636  0.0451 -0.1788
 2506SOL    HW217853   9.503   9.038   0.396 -0.2648 -2.9712  1.6539
 2507SOL     OW17854   1.434   2.520   0.947 -0.6638 -0.4154 -0.2285
 2507SOL    HW117855   1.344   2.562   0.957 -1.1935 -1.7549  0.7907
 2507SOL    HW217856   1.435   2.464   0.864 -1.1880 -1.4108  0.4316
 2508SOL     OW17857   1.716   5.936   1.175 -0.4735 -0.6425  0.0060
 2508SOL    HW117858   1.795   5.876   1.168  1.3387  1.6834 -0.1747
 2508SOL    HW217859   1.685   5.961   1.083 -0.7524 -0.6833  0.0876
 2509SOL     OW17860   3.520   0.843   2.459  0.2644  0.6777  0.3115
 2509SOL    HW117861   3.590   0.776   2.485  0.0094  0.9485  1.7660
 2509SOL    HW217862   3.480   0.817   2.371 -1.4942 -2.4611  1.9377
 2510SOL     OW17863   9.817   1.502   2.696  0.0508 -0.0297 -0.4874
 2510SOL    HW117864   9.786   1.594   2.670 -0.8161 -0.2638 -0.3089
 2510SOL    HW217865   9.851   1.454   2.616  0.3785  0.4029 -0.6064
 2511SOL     OW17866   0.230   9.883   2.675 -0.0852  0.6396 -0.6002
 2511SOL    HW117867   0.137   9.916   2.657 -0.1202  0.4824 -0.7196
 2511SOL    HW217868   0.263   9.832   2.595  0.0248  0.5179 -0.4790
 2512SOL     OW17869   8.071   6.646   1.397 -0.0499  0.3800  0.0327
 2512SOL    HW117870   8.075   6.741   1.429  1.0947  0.1978  0.4717
 2512SOL    HW217871   8.052   6.586   1.475 -0.8676  0.2514 -0.2600
 2513SOL     OW17872   9.479   0.856   0.899  0.2576 -0.2348  0.1703
 2513SOL    HW117873   9.526   0.910   0.968  2.0430 -0.6380 -0.6866
 2513SOL    HW217874   9.401   0.809   0.940 -0.8437  2.3229  1.0973
 2514SOL     OW17875   0.041   4.288   0.073 -0.3255 -0.0069  0.2647
 2514SOL    HW117876   0.042   4.229  -0.009 -0.9828  0.1501  0.1409
 2514SOL    HW217877  -0.039   4.265   0.129  0.3136 -0.3525  1.0443
 2515SOL     OW17878   8.088   1.445   3.349  0.2117  0.3797 -0.3263
 2515SOL    HW117879   8.007   1.386   3.349 -0.4087  1.2186 -0.6752
 2515SOL    HW217880   8.129   1.445   3.440 -0.4801  0.3418 -0.0070
 2516SOL     OW17881   7.899   8.870   2.406 -0.0354  0.4818  0.1773
 2516SOL    HW117882   7.860   8.962   2.405  1.3796  1.0990  0.0374
 2516SOL    HW217883   7.994   8.874   2.375  0.1141 -0.9981  0.4067
 2517SOL     OW17884   2.284   3.066   2.703 -0.3619  0.1584  0.2182
 2517SOL    HW117885   2.270   3.164   2.718  0.6626  0.3083  0.2761
 2517SOL    HW217886   2.249   3.014   2.781 -0.2585  0.5322  0.5140
 2518SOL     OW17887   0.741   3.154   0.211 -0.2360 -0.2678 -0.0369
 2518SOL    HW117888   0.781   3.224   0.270 -1.0619  0.3845 -0.2455
 2518SOL    HW217889   0.717   3.074   0.265  0.4637 -0.2835  0.2484
 2519SOL     OW17890   8.883   8.864   2.121 -0.0369  0.1503  0.1603
 2519SOL    HW117891   8.845   8.868   2.213 -0.9483  0.9341 -0.2396
 2519SOL    HW217892   8.877   8.770   2.087  1.4054 -0.3881  1.3450
 2520SOL     OW17893   9.653   5.058   1.485 -0.2503  0.0918  0.0773
 2520SOL    HW117894   9.702   5.011   1.558 -0.1077 -0.3037 -0.2716
 2520SOL    HW217895   9.700   5.143   1.463  2.0130 -1.6734 -2.2992
 2521SOL     OW17896   3.129   8.914   2.585 -0.4748  0.3237 -0.1859
 2521SOL    HW117897   3.036   8.934   2.555 -0.4426  0.5579 -0.1315
 2521SOL    HW217898   3.186   8.994   2.570  0.1434 -0.4150 -1.9545
 2522SOL     OW17899   4.528   1.304   1.507 -0.3452  0.3270  0.5544
 2522SOL    HW117900   4.514   1.266   1.598 -2.1251  0.0309  0.1790
 2522SOL    HW217901   4.611   1.265   1.467  1.4129  1.7477  2.6886
 2523SOL     OW17902   9.787   3.390   0.119 -0.6587  0.2090  0.1903
 2523SOL    HW117903   9.873   3.339   0.109 -0.4667  0.5484  0.0927
 2523SOL    HW217904   9.797   3.479   0.076 -1.3571 -0.0868 -0.6056
 2524SOL     OW17905   9.767   1.395   0.137 -0.2315  0.2537  0.6954
 2524SOL    HW117906   9.827   1.316   0.152  0.0244  0.3891  0.3887
 2524SOL    HW217907   9.782   1.462   0.209  1.0123  0.9128 -0.1575
 2525SOL     OW17908   2.563   1.969   3.117 -0.1394  0.1300 -0.1369
 2525SOL    HW117909   2.558   1.979   3.018  1.1799  0.7725 -0.1519
 2525SOL    HW217910   2.613   2.047   3.156  0.2100 -0.6132  0.9276
 2526SOL     OW17911   1.785   0.768   2.987 -0.1667  0.0435  0.1033
 2526SOL    HW117912   1.730   0.754   2.905  0.3393  0.9657 -0.4095
 2526SOL    HW217913   1.747   0.715   3.063 -1.1574 -0.1216 -0.5019
 2527SOL     OW17914   1.912   9.059   0.542 -0.7094 -0.0104 -0.0577
 2527SOL    HW117915   1.882   9.019   0.455  1.0728 -1.2695 -0.1064
 2527SOL    HW217916   1.898   9.158   0.539  1.2716  0.2478 -2.6060
 2528SOL     OW17917   4.868   8.390   0.806  0.1142  0.3513 -0.0800
 2528SOL    HW117918   4.781   8.411   0.851  0.0041  0.4729 -0.3478
 2528SOL    HW217919   4.900   8.300   0.836 -0.6195 -0.1418 -0.7415
 2529SOL     OW17920   8.974   0.325   0.577  0.2976 -0.3542  0.0150
 2529SOL    HW117921   8.889   0.378   0.574 -0.5044 -1.6979 -1.5418
 2529SOL    HW217922   8.987   0.277   0.490  1.1210 -2.4910  1.2671
 2530SOL     OW17923   1.912   2.848   0.810  0.1308 -0.1457 -0.6481
 2530SOL    HW117924   1.831   2.803   0.773  0.1760 -0.6935 -0.0788
 2530SOL    HW217925   1.893   2.946   0.820 -0.1924 -0.1426 -1.2498
 2531SOL     OW17926   0.098   5.030   0.056  0.1235 -0.0529 -0.2225
 2531SOL    HW117927   0.167   5.079   0.003  1.1626 -0.6310  0.5868
 2531SOL    HW217928   0.028   5.095   0.087  0.0561  0.4588 -1.4140
 2532SOL     OW17929   2.059   1.641   1.609  0.2797 -0.5599 -0.2026
 2532SOL    HW117930   1.987   1.703   1.578  0.1779 -0.7665 -0.3787
 2532SOL    HW217931   2.085   1.665   1.702 -0.9746 -1.3416  0.3616
 2533SOL     OW17932   7.873   9.511   3.166 -0.5747 -0.1514  0.2252
 2533SOL    HW117933   7.902   9.480   3.257 -1.8541 -1.9201  0.0624
 2533SOL    HW217934   7.947   9.498   3.101 -0.7584 -2.0647  0.3605
 2534SOL     OW17935   1.231   6.935   3.284  0.2897  0.2954 -0.3378
 2534SOL    HW117936   1.328   6.942   3.308  0.6354 -0.3683 -1.5181
 2534SOL    HW217937   1.186   7.022   3.302  1.2335  0.7917 -0.3699
 2535SOL     OW17938   3.503   5.197   3.120  0.4638  0.2197 -0.2738
 2535SOL    HW117939   3.543   5.271   3.067  2.1786 -0.5156 -0.0491
 2535SOL    HW217940   3.572   5.126   3.136 -0.9886 -1.1794 -0.0261
 2536SOL     OW17941   0.973   2.537   1.171  0.3039 -0.5677  0.2731
 2536SOL    HW117942   0.894   2.592   1.195 -0.5886 -2.1177  0.9462
 2536SOL    HW217943   0.960   2.443   1.204  0.5851 -1.8882 -3.1967
 2537SOL     OW17944   0.575   8.480   3.195  0.1542  0.6150 -0.1668
 2537SOL    HW117945   0.644   8.441   3.256  0.0206  0.9421  0.1947
 2537SOL    HW217946   0.505   8.411   3.175 -0.7448  1.0363  1.4646
 2538SOL     OW17947   8.493   7.632   2.407 -0.1201  0.8494 -0.6922
 2538SOL    HW117948   8.421   7.589   2.352  0.2627  1.9778 -2.1146
 2538SOL    HW217949   8.450   7.687   2.479 -0.6779  1.1039 -1.2098
 2539SOL     OW17950   3.064   9.007   0.778 -0.0101 -0.0864 -0.8209
 2539SOL    HW117951   3.117   9.051   0.850 -1.1402 -1.6609  1.0353
 2539SOL    HW217952   3.120   8.938   0.733  1.1283  1.8261 -2.3959
 2540SOL     OW17953   3.517   5.430   0.776  0.3190  0.4005  0.3623
 2540SOL    HW117954   3.489   5.363   0.845 -0.3263  1.4438  1.1255
 2540SOL    HW217955   3.594   5.393   0.724 -0.4256 -1.1959  0.3545
 2541SOL     OW17956   2.415   6.657   1.862 -0.1150 -0.2041  0.0390
 2541SOL    HW117957   2.332   6.663   1.806  0.6730  2.2459 -0.9524
 2541SOL    HW217958   2.397   6.601   1.943 -1.9815 -1.7837 -1.4152
 2542SOL     OW17959   9.274   5.167   0.456  0.0971  0.3415 -0.2743
 2542SOL    HW117960   9.175   5.154   0.464  0.5100 -2.6780  0.3570
 2542SOL    HW217961   9.313   5.095   0.398  1.9098  1.6058 -0.6660
 2543SOL     OW17962   3.415   0.382   3.187  0.1384 -0.0177 -0.3667
 2543SOL    HW117963   3.360   0.461   3.159 -0.9832 -0.7160 -0.1723
 2543SOL    HW217964   3.512   0.403   3.175 -0.1376  1.4482 -0.1553
 2544SOL     OW17965   4.119   3.647   2.588  0.6871  0.1292  0.2458
 2544SOL    HW117966   4.075   3.584   2.652  1.4280  1.2653  1.8916
 2544SOL    HW217967   4.210   3.613   2.566  0.1777 -0.6120 -0.7469
 2545SOL     OW17968   9.808   2.450   1.651  0.2675 -0.2679 -0.8659
 2545SOL    HW117969   9.750   2.407   1.582 -0.7446 -1.6817  0.8238
 2545SOL    HW217970   9.765   2.535   1.682  1.2843  0.9809 -2.7524
 2546SOL     OW17971   2.727   9.793   0.053  0.1361 -0.1255 -0.6236
 2546SOL    HW117972   2.783   9.711   0.044  1.2968  0.7018 -1.0547
 2546SOL    HW217973   2.767   9.853   0.122  1.3075  1.6881 -2.8211
 2547SOL     OW17974   9.654   1.582   0.801  0.1178  0.1896 -0.2468
 2547SOL    HW117975   9.712   1.650   0.756  0.5671 -0.0727 -0.0648
 2547SOL    HW217976   9.592   1.541   0.734  1.0062 -0.4340 -0.6889
 2548SOL     OW17977   8.772   4.950   1.568 -0.2515  0.1279 -0.4756
 2548SOL    HW117978   8.703   4.880   1.590 -0.7945  0.6067 -0.6401
 2548SOL    HW217979   8.759   4.981   1.473  1.4058 -1.1620 -1.1501
 2549SOL     OW17980   8.623   0.183   3.422 -0.4394 -0.5397 -0.1541
 2549SOL    HW117981   8.645   0.280   3.417  0.2285 -0.6721  0.1523
 2549SOL    HW217982   8.573   0.165   3.507  0.2416 -0.6140  0.2367
 2550SOL     OW17983   2.915   0.239   0.106  0.2465  1.0453 -0.3604
 2550SOL    HW117984   3.002   0.287   0.119 -0.7288  3.1887 -1.4322
 2550SOL    HW217985   2.848   0.274   0.172 -0.3405  0.8154 -0.8299
 2551SOL     OW17986   0.857   7.444   2.352  0.4960  0.4658  0.0420
 2551SOL    HW117987   0.792   7.511   2.387  1.2063  0.1492  2.0043
 2551SOL    HW217988   0.811   7.356   2.339  0.5750  0.1828  1.6381
 2552SOL     OW17989   0.885   8.966   2.250  0.0803 -0.1487  0.3552
 2552SOL    HW117990   0.897   8.947   2.152 -2.1053 -0.7682  0.1891
 2552SOL    HW217991   0.808   8.913   2.285 -0.5254  1.7369  1.9294
 2553SOL     OW17992   6.707   9.570   2.798 -0.2981  0.2003  0.4603
 2553SOL    HW117993   6.764   9.653   2.795  0.6978 -0.4969 -0.3080
 2553SOL    HW217994   6.614   9.593   2.770 -0.0206  1.0557  0.2114
 2554SOL     OW17995   4.411   3.132   1.156  0.2612 -0.3180 -0.2439
 2554SOL    HW117996   4.490   3.119   1.096  2.3809 -0.0621  2.4138
 2554SOL    HW217997   4.409   3.226   1.190  0.0808 -0.9058  1.4316
 2555SOL     OW17998   3.572   1.183   1.384 -0.3586 -0.1133 -0.1561
 2555SOL    HW117999   3.582   1.283   1.391  0.0232 -0.2298  1.1572
 2555SOL    HW218000   3.649   1.139   1.431 -0.0734 -1.0308 -1.4561
 2556SOL     OW18001   9.439   0.818   1.604  0.0152 -1.0940 -0.1075
 2556SOL    HW118002   9.507   0.801   1.676  0.5067 -0.4375 -0.4148
 2556SOL    HW218003   9.427   0.917   1.592  0.9240 -1.1780 -1.8581
 2557SOL     OW18004   2.781   1.050   3.030 -0.4223 -0.7933 -0.0622
 2557SOL    HW118005   2.837   1.056   2.947 -1.0522  2.1521 -0.3486
 2557SOL    HW218006   2.838   1.024   3.108  0.6712 -1.0943 -0.9535
 2558SOL     OW18007   8.646   6.971   1.601  0.0911  0.5334  0.4432
 2558SOL    HW118008   8.741   6.955   1.575  0.2245  1.6172  0.2077
 2558SOL    HW218009   8.602   7.027   1.530 -0.9036 -0.4933  0.2342
 2559SOL     OW18010   3.287   2.756   3.324 -0.3529  0.4607 -0.4145
 2559SOL    HW118011   3.230   2.706   3.390  1.9789 -0.8382  0.6962
 2559SOL    HW218012   3.262   2.728   3.231  0.0769 -1.9333  0.1413
 2560SOL     OW18013   0.010   4.670   2.093 -0.1088  0.1458 -0.0613
 2560SOL    HW118014  -0.008   4.713   2.005  2.0578 -0.1903 -0.6918
 2560SOL    HW218015  -0.015   4.574   2.089  0.5438 -0.0060 -0.4956
 2561SOL     OW18016   0.082   6.799   2.902  0.0112 -0.0050  0.6624
 2561SOL    HW118017   0.099   6.848   2.817  0.4899  2.6168  2.1901
 2561SOL    HW218018  -0.011   6.763   2.901 -0.2793  0.7438 -0.6359
 2562SOL     OW18019   3.649   4.705   3.386  0.2274 -0.1496  0.8867
 2562SOL    HW118020   3.657   4.796   3.426 -0.1116 -0.0290  0.6774
 2562SOL    HW218021   3.601   4.645   3.450 -0.2381  0.0215  0.7019
 2563SOL     OW18022   0.414   9.330   2.487 -0.7756  0.0496 -0.2230
 2563SOL    HW118023   0.334   9.378   2.450 -1.3693 -1.0294 -0.3724
 2563SOL    HW218024   0.413   9.335   2.587 -0.7323  0.5117 -0.2461
 2564SOL     OW18025   9.579   3.235   1.447 -0.1589  0.5484 -0.1630
 2564SOL    HW118026   9.677   3.229   1.467 -0.2871 -0.5314  0.1885
 2564SOL    HW218027   9.542   3.142   1.438 -0.7128  0.9759 -2.4018
 2565SOL     OW18028   2.927   3.260   1.709 -0.3107  0.9588  0.3096
 2565SOL    HW118029   3.002   3.310   1.666 -0.8119 -0.2174 -2.0363
 2565SOL    HW218030   2.964   3.203   1.783  1.1347  0.4008 -0.8060
 2566SOL     OW18031   1.910   5.189   1.820 -0.1700  0.3008  0.5962
 2566SOL    HW118032   2.004   5.176   1.851 -0.9232  2.3105  4.0039
 2566SOL    HW218033   1.850   5.123   1.866 -0.5216 -0.6152 -1.1460
 2567SOL     OW18034   4.622   0.562   1.577  0.3236 -0.0532 -0.3769
 2567SOL    HW118035   4.614   0.579   1.675 -0.7175  1.5609 -0.7068
 2567SOL    HW218036   4.719   0.557   1.552  0.6006 -0.2012  0.6886
 2568SOL     OW18037   9.352   5.719   2.494  0.4534 -0.3054 -0.0249
 2568SOL    HW118038   9.315   5.626   2.498 -1.1893  0.2279 -1.7308
 2568SOL    HW218039   9.277   5.785   2.496  1.6637  1.0689  2.3838
 2569SOL     OW18040   8.468   5.875   1.823 -0.1487 -0.0105  0.3159
 2569SOL    HW118041   8.562   5.841   1.819  0.0294  0.5069  0.0455
 2569SOL    HW218042   8.408   5.803   1.859  0.0667 -0.9410 -1.1345
 2570SOL     OW18043   9.812   2.284   3.095  0.1199  0.5428 -0.0546
 2570SOL    HW118044   9.733   2.344   3.083 -2.4030 -2.8418 -1.1030
 2570SOL    HW218045   9.873   2.292   3.016 -1.4238 -0.0364 -1.3185
 2571SOL     OW18046   0.285   8.513   2.851  0.6999 -0.3180 -0.1882
 2571SOL    HW118047   0.328   8.566   2.924  1.1691  0.3757 -0.9547
 2571SOL    HW218048   0.218   8.569   2.803  0.0566 -0.9170  0.0061
 2572SOL     OW18049   0.119   0.826   1.675  0.0482  0.2730 -0.0673
 2572SOL    HW118050   0.186   0.900   1.681  0.2933  0.2350 -2.1338
 2572SOL    HW218051   0.101   0.790   1.767  2.0043  1.0319  0.6329
 2573SOL     OW18052   4.960   1.682   2.238 -0.0546  0.0088  0.2073
 2573SOL    HW118053   5.021   1.761   2.234  1.8613 -1.4566 -0.4574
 2573SOL    HW218054   4.943   1.649   2.145 -1.3136 -0.0100  0.4427
 2574SOL     OW18055   4.250   3.843   2.817  0.1423  0.5422  0.1404
 2574SOL    HW118056   4.181   3.886   2.759  0.9594  0.8709 -0.6057
 2574SOL    HW218057   4.327   3.814   2.761  0.5419  0.0256  0.9419
 2575SOL     OW18058   8.815   0.433   2.598 -0.5025  0.6260 -0.3037
 2575SOL    HW118059   8.796   0.529   2.621  0.3851  0.7653 -0.1100
 2575SOL    HW218060   8.910   0.412   2.622 -0.8819 -0.4874  0.2564
 2576SOL     OW18061   2.224   1.679   0.274 -0.7575 -0.2324  0.1382
 2576SOL    HW118062   2.212   1.741   0.196 -2.5084 -0.4059  0.2461
 2576SOL    HW218063   2.172   1.714   0.352 -1.8684 -1.8691  0.1671
 2577SOL     OW18064   8.664   5.114   0.049  0.4687  0.6938  0.1905
 2577SOL    HW118065   8.754   5.081   0.077  0.9127  1.6290 -0.1296
 2577SOL    HW218066   8.647   5.204   0.088 -0.2401  0.6165  0.0732
 2578SOL     OW18067   0.391   3.968   2.495 -0.0112 -0.5279 -0.0413
 2578SOL    HW118068   0.360   4.060   2.520 -0.5396 -0.9123  0.7396
 2578SOL    HW218069   0.440   3.928   2.572  0.6116 -0.7332 -0.5410
 2579SOL     OW18070   2.514   0.002   1.808 -0.4629  0.6352  0.4699
 2579SOL    HW118071   2.442  -0.013   1.740 -0.5392  0.9563  0.4820
 2579SOL    HW218072   2.574   0.076   1.779  1.2565 -1.1587 -0.6715
 2580SOL     OW18073   9.983   4.880   2.856  0.3771  0.7047  0.2017
 2580SOL    HW118074   9.894   4.886   2.811  0.7227 -0.1297 -0.5942
 2580SOL    HW218075  10.022   4.972   2.865 -1.5540  1.3491  2.5847
 2581SOL     OW18076   2.504   5.163   1.146  0.7191 -0.0502  0.0153
 2581SOL    HW118077   2.444   5.118   1.079  0.3639 -1.0407  0.9755
 2581SOL    HW218078   2.589   5.190   1.101 -0.0744  0.5475 -1.1543
 2582SOL     OW18079   2.017   5.746   1.861 -0.0839 -0.0445  0.5811
 2582SOL    HW118080   1.924   5.740   1.826  0.0858 -1.2868  0.3095
 2582SOL    HW218081   2.053   5.838   1.845 -0.9315  0.1702 -0.1398
 2583SOL     OW18082   0.377   5.553   0.697  0.0674 -0.0864 -0.5677
 2583SOL    HW118083   0.319   5.530   0.618 -1.3386  2.0775 -0.2238
 2583SOL    HW218084   0.468   5.579   0.665 -0.8535  1.9401 -1.6061
 2584SOL     OW18085   1.572   6.115   3.043  0.1237 -0.8295  0.1633
 2584SOL    HW118086   1.653   6.174   3.051  0.8968 -1.6733 -1.2835
 2584SOL    HW218087   1.498   6.153   3.099  1.9733 -0.8610  2.7541
 2585SOL     OW18088   8.319   9.406   0.378 -0.0141 -0.3971  0.4298
 2585SOL    HW118089   8.333   9.452   0.465  1.2236 -0.6114  0.3536
 2585SOL    HW218090   8.407   9.389   0.335 -0.6748  0.8051 -1.4462
 2586SOL     OW18091   4.157   1.186   1.867 -0.1180  0.1966  0.1108
 2586SOL    HW118092   4.243   1.148   1.901 -0.5115 -0.8939 -0.0649
 2586SOL    HW218093   4.176   1.259   1.802  0.6817 -0.4681 -0.4124
 2587SOL     OW18094   0.056   5.674   0.806  0.2448  0.4614  0.4399
 2587SOL    HW118095   0.082   5.605   0.873  1.6405 -0.7037 -1.2431
 2587SOL    HW218096  -0.028   5.645   0.759  0.4358  0.2276  0.2347
 2588SOL     OW18097   7.315   8.577   2.202 -0.3825  0.2096  0.6502
 2588SOL    HW118098   7.299   8.535   2.113 -0.0033  0.2336  0.5714
 2588SOL    HW218099   7.306   8.676   2.195 -1.5696  0.1296  0.8973
 2589SOL     OW18100   4.518   1.307   2.910 -0.0491 -0.2107  0.5997
 2589SOL    HW118101   4.428   1.313   2.953 -0.4688 -2.5323  0.0756
 2589SOL    HW218102   4.512   1.341   2.816 -0.5199 -0.9564  0.3579
 2590SOL     OW18103   0.709   8.237   0.675 -0.4913 -0.3963 -0.0556
 2590SOL    HW118104   0.694   8.263   0.580 -2.0899  0.3239  0.3732
 2590SOL    HW218105   0.728   8.139   0.681  1.9436 -0.0413 -1.3229
 2591SOL     OW18106   7.756   1.642   1.954 -0.3885  0.1167 -0.0514
 2591SOL    HW118107   7.680   1.631   2.018 -0.5270 -0.2008 -0.2659
 2591SOL    HW218108   7.731   1.602   1.865  0.1491 -0.2951 -0.0252
 2592SOL     OW18109   8.791   7.032   2.753  0.3105 -0.3976 -0.2790
 2592SOL    HW118110   8.861   6.988   2.810  0.8111 -0.9302 -1.2973
 2592SOL    HW218111   8.832   7.106   2.700 -0.8132  2.3749  2.5286
 2593SOL     OW18112   4.233   0.052   1.038 -0.3346 -0.0146 -0.3883
 2593SOL    HW118113   4.195   0.142   1.058 -1.7429 -0.1921 -2.0610
 2593SOL    HW218114   4.309   0.062   0.974  1.8197  0.2508  2.1430
 2594SOL     OW18115   1.632   4.812   3.136 -0.3266 -0.4078  0.8856
 2594SOL    HW118116   1.580   4.855   3.063  1.9812  0.7726 -0.1217
 2594SOL    HW218117   1.591   4.834   3.225 -0.6789  1.7183  0.2200
 2595SOL     OW18118   0.509   4.808   2.858 -0.2126  0.4746  0.0837
 2595SOL    HW118119   0.590   4.762   2.894  0.3950  0.7336 -0.9317
 2595SOL    HW218120   0.530   4.905   2.843  0.2337 -0.0342 -2.9712
 2596SOL     OW18121   4.544   8.442   1.865 -0.0912  0.6474 -0.3878
 2596SOL    HW118122   4.635   8.479   1.851 -0.5091  1.0844 -2.1087
 2596SOL    HW218123   4.485   8.468   1.788 -1.9259  1.1829  1.1430
 2597SOL     OW18124   7.875   9.665   1.667 -0.0509 -0.4015 -0.4432
 2597SOL    HW118125   7.862   9.566   1.676  0.3656 -0.3014  1.3802
 2597SOL    HW218126   7.937   9.697   1.739  1.0597  0.9455 -1.9609
 2598SOL     OW18127   0.669   4.221   1.352 -0.2072  0.1085 -0.4041
 2598SOL    HW118128   0.683   4.125   1.377  1.3762  0.6400  0.8594
 2598SOL    HW218129   0.644   4.227   1.256 -2.6985 -1.7347  0.0637
 2599SOL     OW18130   0.234   0.163   3.395  0.3279 -0.3946 -0.1543
 2599SOL    HW118131   0.299   0.181   3.469  1.0471  0.4608 -0.9818
 2599SOL    HW218132   0.141   0.164   3.430  0.6844 -0.2796  0.7895
 2600SOL     OW18133   1.898   7.369   1.637 -0.2276  0.2889 -0.3138
 2600SOL    HW118134   1.826   7.303   1.614 -0.9893  1.3840 -1.1164
 2600SOL    HW218135   1.880   7.455   1.590  1.6392  0.5609 -0.5499
 2601SOL     OW18136   3.857   0.591   2.228  0.1950 -0.4756  0.0127
 2601SOL    HW118137   3.791   0.552   2.292  1.1106 -1.7696  0.1789
 2601SOL    HW218138   3.837   0.561   2.135  1.5691 -2.3044  0.2795
 2602SOL     OW18139   3.161   3.211   2.165  0.3651 -0.3771  0.6319
 2602SOL    HW118140   3.179   3.308   2.181  0.0426 -0.1626 -0.2799
 2602SOL    HW218141   3.113   3.200   2.078  0.3346 -1.3497  0.7686
 2603SOL     OW18142   0.331   3.144   2.159 -0.2631  0.0732 -0.2479
 2603SOL    HW118143   0.417   3.131   2.208 -0.6381 -2.5423 -0.1916
 2603SOL    HW218144   0.326   3.238   2.124  1.9188  0.7012  1.0267
 2604SOL     OW18145   3.501   9.496   0.109  0.1854  0.2589  0.3219
 2604SOL    HW118146   3.417   9.541   0.079  0.5858  1.1725  0.5412
 2604SOL    HW218147   3.514   9.511   0.207  0.8518  0.5351  0.1967
 2605SOL     OW18148   8.412   8.170   3.272  0.6747 -0.1533  0.1054
 2605SOL    HW118149   8.314   8.151   3.267  0.6175 -0.2260  1.4152
 2605SOL    HW218150   8.431   8.223   3.354  1.5171  1.2607 -0.9766
 2606SOL     OW18151   1.939   4.273   2.615  0.1529 -0.1998 -0.2380
 2606SOL    HW118152   1.969   4.212   2.688 -1.5051  0.7633  1.2843
 2606SOL    HW218153   1.996   4.259   2.534  2.3152 -0.9450  1.3867
 2607SOL     OW18154   9.297   5.429   0.948  0.5551  0.1110  0.0194
 2607SOL    HW118155   9.297   5.523   0.912 -3.0172  0.4360  0.6927
 2607SOL    HW218156   9.276   5.365   0.874 -1.4221  0.2806  0.4141
 2608SOL     OW18157   9.951   3.884   2.566 -0.3579 -0.1143  0.2953
 2608SOL    HW118158   9.855   3.884   2.538 -0.4177  0.1499  0.4922
 2608SOL    HW218159  10.004   3.828   2.503 -0.3253  1.2805 -0.9568
 2609SOL     OW18160   9.971   7.600   1.904 -0.0251 -0.2355 -0.2138
 2609SOL    HW118161   9.988   7.568   1.810  0.0392 -1.5353  0.2296
 2609SOL    HW218162   9.979   7.700   1.907  1.1008 -0.2784 -1.3534
 2610SOL     OW18163   8.628   9.491   2.226  0.2777 -0.0603  0.4126
 2610SOL    HW118164   8.677   9.566   2.183  1.0938 -1.2795 -0.8470
 2610SOL    HW218165   8.661   9.478   2.319  0.2947  0.9833  0.5539
 2611SOL     OW18166   9.288   1.900   0.187 -0.1918 -0.0859 -0.4615
 2611SOL    HW118167   9.337   1.820   0.151  0.3811 -0.4874  1.1587
 2611SOL    HW218168   9.268   1.963   0.113  2.2206 -0.2329 -1.2861
 2612SOL     OW18169   9.707   2.930   0.720  0.2034 -0.4931 -0.4058
 2612SOL    HW118170   9.680   2.855   0.781  0.0639 -0.9367 -1.0012
 2612SOL    HW218171   9.685   2.905   0.625 -1.2937  0.9453 -0.4621
 2613SOL     OW18172   1.383   6.861   0.630 -0.3505 -0.1345 -0.2951
 2613SOL    HW118173   1.436   6.932   0.583 -0.8682  0.6710  0.3349
 2613SOL    HW218174   1.385   6.877   0.729 -0.8766 -0.7156 -0.1871
 2614SOL     OW18175   5.032   8.322   2.837 -0.1248 -0.1846  0.8777
 2614SOL    HW118176   5.037   8.410   2.885  0.3365  1.4503 -2.0433
 2614SOL    HW218177   4.943   8.281   2.852 -1.1319  1.8338  0.5954
 2615SOL     OW18178   3.343   5.597   3.014 -0.4379  0.4161  0.3787
 2615SOL    HW118179   3.275   5.533   2.979  0.6167 -0.3850 -0.2461
 2615SOL    HW218180   3.302   5.654   3.085 -1.8113  0.0920 -0.1339
 2616SOL     OW18181   8.975   6.631   1.226  0.1185 -0.0333  0.1128
 2616SOL    HW118182   8.883   6.647   1.190  0.8068 -2.2604 -2.8922
 2616SOL    HW218183   9.035   6.705   1.198 -0.4744  0.7868  0.9949
 2617SOL     OW18184   9.408   2.529   2.460  0.6546 -0.2274 -0.3719
 2617SOL    HW118185   9.427   2.532   2.558  3.0261 -0.4531 -0.8065
 2617SOL    HW218186   9.309   2.538   2.445  0.3353  0.5472  1.9893
 2618SOL     OW18187   3.663   8.560   2.731  0.0784 -0.3553 -0.1718
 2618SOL    HW118188   3.723   8.547   2.651  1.5522  0.3158  0.7915
 2618SOL    HW218189   3.698   8.506   2.807 -0.5181  0.0879  0.4131
 2619SOL     OW18190   2.102   3.917   1.164  0.2882  0.1359  0.2092
 2619SOL    HW118191   2.092   4.001   1.217  1.6037  0.8376 -0.6114
 2619SOL    HW218192   2.192   3.876   1.184  0.2027 -0.3548 -0.3996
 2620SOL     OW18193   8.422   5.336   0.545  0.7689 -0.2370 -0.1664
 2620SOL    HW118194   8.445   5.350   0.448 -0.4820  1.0670 -0.2958
 2620SOL    HW218195   8.464   5.408   0.600  0.9283 -0.5953  0.1811
 2621SOL     OW18196   1.631   0.236   3.236  0.2771  0.5872 -0.3337
 2621SOL    HW118197   1.664   0.142   3.240 -0.1279  0.4440 -0.2911
 2621SOL    HW218198   1.683   0.293   3.300 -0.6971  0.0096  0.9905
 2622SOL     OW18199   2.005   3.333   1.349 -1.1378  0.0714 -0.2630
 2622SOL    HW118200   2.097   3.372   1.351 -1.4045  0.7075 -0.5661
 2622SOL    HW218201   1.999   3.267   1.274 -0.6641 -0.6249  0.3022
 2623SOL     OW18202   4.278   8.973   0.459 -0.3422  0.4463 -0.0493
 2623SOL    HW118203   4.185   8.963   0.423 -0.5590  1.4891  0.1926
 2623SOL    HW218204   4.304   9.070   0.457 -0.3046  0.5282  2.4594
 2624SOL     OW18205   0.303   2.387   1.128 -0.1456 -0.4045  0.1843
 2624SOL    HW118206   0.288   2.327   1.207  0.1623  1.0641  1.3852
 2624SOL    HW218207   0.388   2.362   1.082  0.9001  0.2027  1.7283
 2625SOL     OW18208   2.251   3.901   0.096 -0.2119  0.3055 -0.1376
 2625SOL    HW118209   2.314   3.852   0.156  0.1928  0.6932 -0.2373
 2625SOL    HW218210   2.244   3.852   0.009  0.3567  0.5310 -0.3166
 2626SOL     OW18211   2.931   1.148   2.793 -0.6961  0.2499  0.4331
 2626SOL    HW118212   2.854   1.145   2.728 -0.5496 -1.0645  0.2990
 2626SOL    HW218213   3.010   1.103   2.752 -0.1591  0.6916  0.9771
 2627SOL     OW18214   8.759   8.134   0.510  0.3626 -0.2808 -0.5330
 2627SOL    HW118215   8.796   8.225   0.492  0.8243 -0.5658 -1.0621
 2627SOL    HW218216   8.825   8.082   0.564 -0.2974  0.0011  0.5604
 2628SOL     OW18217   3.877   4.779   1.970  0.3898  0.1923  0.0243
 2628SOL    HW118218   3.788   4.749   2.003  0.1283  0.3175 -0.5501
 2628SOL    HW218219   3.897   4.733   1.883  2.0332 -1.8360  1.4026
 2629SOL     OW18220   8.128   6.780   2.605 -0.3150  0.6684 -0.0511
 2629SOL    HW118221   8.175   6.777   2.517 -1.5915 -0.7214 -0.7253
 2629SOL    HW218222   8.166   6.711   2.666 -1.3273 -0.3281 -0.5313
 2630SOL     OW18223   2.413   1.126   1.268 -0.4821  0.1379  0.2240
 2630SOL    HW118224   2.504   1.124   1.309 -0.4661 -1.1015  0.1337
 2630SOL    HW218225   2.412   1.192   1.192  0.7029 -0.7941 -0.6224
 2631SOL     OW18226   9.291   0.954   0.420 -0.0242  0.3243  0.4351
 2631SOL    HW118227   9.282   0.883   0.349  1.1991 -0.2686  0.8665
 2631SOL    HW218228   9.232   1.031   0.396 -0.2711 -0.2186 -0.7987
 2632SOL     OW18229   9.724   5.872   0.662 -0.6283  0.2604 -0.5620
 2632SOL    HW118230   9.714   5.850   0.565 -0.3595  0.1164 -0.5584
 2632SOL    HW218231   9.788   5.948   0.672 -2.2379  1.6561 -0.6357
 2633SOL     OW18232   1.491   5.642   0.125 -0.7462  0.1071 -0.8153
 2633SOL    HW118233   1.503   5.740   0.143 -2.3880  0.4529 -1.5279
 2633SOL    HW218234   1.455   5.597   0.207  0.3076  0.0177 -0.3834
 2634SOL     OW18235   3.063   5.306   0.982  0.0439  0.5053  0.6230
 2634SOL    HW118236   3.085   5.236   1.050 -1.5923 -0.6173  0.0348
 2634SOL    HW218237   3.068   5.397   1.025  3.2616  0.1524  1.1179
 2635SOL     OW18238   8.750   8.553   1.250 -0.0553 -0.3412 -0.0834
 2635SOL    HW118239   8.839   8.529   1.288  0.2617 -1.0641 -1.2700
 2635SOL    HW218240   8.735   8.652   1.261  1.1900 -0.0983 -0.4887
 2636SOL     OW18241   6.338   8.596   2.080  0.1921  0.0715  0.5721
 2636SOL    HW118242   6.340   8.674   2.142 -2.3614  1.1465 -0.5776
 2636SOL    HW218243   6.295   8.624   1.994  0.6360 -2.2214 -0.4349
 2637SOL     OW18244   2.497   5.693   0.042 -0.0594  0.4949 -0.0226
 2637SOL    HW118245   2.403   5.727   0.048 -0.4058  0.4053 -3.7493
 2637SOL    HW218246   2.513   5.627   0.116 -3.1231  0.0583  0.3336
 2638SOL     OW18247   8.334   5.551   0.349 -0.0843 -0.1286  0.1234
 2638SOL    HW118248   8.315   5.559   0.447 -0.5800 -0.1204  0.0276
 2638SOL    HW218249   8.348   5.642   0.310 -0.8545 -0.0631 -0.0038
 2639SOL     OW18250   3.273   9.639   0.901  0.7696 -0.8871  0.4760
 2639SOL    HW118251   3.220   9.655   0.818 -2.3912 -0.3463  2.5066
 2639SOL    HW218252   3.296   9.727   0.943 -0.4525 -1.2002  1.8411
 2640SOL     OW18253   4.906   9.740   2.923  0.4438 -0.2245  0.1064
 2640SOL    HW118254   4.879   9.647   2.950  1.2549 -0.2370  0.8729
 2640SOL    HW218255   4.903   9.747   2.823 -2.2133 -0.2760  0.1345
 2641SOL     OW18256   1.792   0.896   0.175  0.5079 -0.1827  0.8388
 2641SOL    HW118257   1.744   0.954   0.109 -2.3608 -1.2010  1.9655
 2641SOL    HW218258   1.825   0.814   0.128  0.9825  0.4272  0.0878
 2642SOL     OW18259   0.432   1.246   0.232  0.2129  0.1896 -0.6248
 2642SOL    HW118260   0.415   1.265   0.329  0.0719  0.2517 -0.6619
 2642SOL    HW218261   0.497   1.313   0.196  0.7155 -0.1831 -0.4259
 2643SOL     OW18262   8.310   6.980   2.715 -0.3795  0.0727 -0.3970
 2643SOL    HW118263   8.366   6.919   2.771  1.2459  0.2268 -1.8103
 2643SOL    HW218264   8.218   6.943   2.708  0.1701 -1.4282  0.0479
 2644SOL     OW18265   0.522   5.698   1.389  0.1345  0.1713  0.1784
 2644SOL    HW118266   0.485   5.609   1.417  0.8508 -0.0097  0.5535
 2644SOL    HW218267   0.489   5.720   1.297 -0.4657 -0.2366  0.2884
 2645SOL     OW18268   7.780   9.111   2.372  0.2855  0.2801 -0.1439
 2645SOL    HW118269   7.768   9.109   2.273  0.9708 -0.0930 -0.2193
 2645SOL    HW218270   7.690   9.117   2.416  0.0004  0.8084 -0.7918
 2646SOL     OW18271   9.386   3.090   0.459 -0.8035  0.8336 -0.2502
 2646SOL    HW118272   9.435   3.152   0.399  0.7034 -0.7557 -0.6946
 2646SOL    HW218273   9.324   3.033   0.405  1.9687 -1.9514 -0.6464
 2647SOL     OW18274   1.440   0.850   1.705  1.2678 -0.3917  0.3955
 2647SOL    HW118275   1.383   0.769   1.689  0.0470  0.0439  2.4881
 2647SOL    HW218276   1.535   0.821   1.718  0.7969 -1.5210  1.3983
 2648SOL     OW18277   3.018   2.124   2.086 -0.2286  0.2140  0.1098
 2648SOL    HW118278   2.945   2.175   2.042 -0.6056 -0.0870  0.3877
 2648SOL    HW218279   3.103   2.177   2.082 -0.5198  0.6756  0.0254
 2649SOL     OW18280   9.875   3.428   1.828  0.1462  0.0169  0.2590
 2649SOL    HW118281   9.972   3.421   1.850  0.7288  0.6363 -1.9156
 2649SOL    HW218282   9.857   3.516   1.784 -1.3183 -0.2714  0.2394
 2650SOL     OW18283   3.997   7.943   2.182  0.3415  0.5163 -0.1939
 2650SOL    HW118284   4.040   7.864   2.139  0.8075  0.9652 -0.5559
 2650SOL    HW218285   3.947   7.996   2.113 -2.4985 -1.0780  0.5351
 2651SOL     OW18286   0.981   4.338   0.963  0.1877  0.0081  0.5689
 2651SOL    HW118287   1.072   4.325   0.925  0.1554  1.4425 -0.0000
 2651SOL    HW218288   0.988   4.350   1.062  0.4744 -1.3917  0.7289
 2652SOL     OW18289   8.384   5.442   2.018  0.2948 -0.1665 -0.0744
 2652SOL    HW118290   8.471   5.427   1.969 -0.3597 -0.7320 -1.0861
 2652SOL    HW218291   8.340   5.354   2.033 -0.2430  0.1496  0.1893
 2653SOL     OW18292   8.193   8.624   2.511  0.2853 -0.2340 -0.3352
 2653SOL    HW118293   8.186   8.703   2.450 -2.2586  0.5435  0.8839
 2653SOL    HW218294   8.137   8.640   2.593  1.3355 -2.4654  0.8790
 2654SOL     OW18295   4.044   3.493   0.594  0.3550 -0.0116  0.5348
 2654SOL    HW118296   4.047   3.407   0.646  1.5161 -0.5562 -0.4131
 2654SOL    HW218297   3.957   3.497   0.543  0.4137 -0.7698  0.3587
 2655SOL     OW18298   0.662   2.224   1.505 -0.0955 -0.0068  0.1994
 2655SOL    HW118299   0.627   2.274   1.426  1.3831 -0.8106 -0.9842
 2655SOL    HW218300   0.751   2.263   1.532 -0.6302  0.3189  1.5312
 2656SOL     OW18301   9.215   7.929   2.139  0.1196  0.2551 -0.1239
 2656SOL    HW118302   9.156   7.997   2.183 -1.9579 -1.0318 -0.8560
 2656SOL    HW218303   9.235   7.855   2.203 -0.0023  0.1185 -0.2449
 2657SOL     OW18304   8.094   8.347   2.692 -0.7567 -0.2325  0.1585
 2657SOL    HW118305   8.167   8.279   2.682 -0.3228  0.0718  1.1977
 2657SOL    HW218306   8.043   8.354   2.606  0.0304 -0.9082 -0.3716
 2658SOL     OW18307   3.604   9.583   1.425 -0.5929  0.3477 -0.0260
 2658SOL    HW118308   3.543   9.662   1.427  0.9421  1.5557 -0.5232
 2658SOL    HW218309   3.639   9.570   1.333 -1.2610 -1.2726 -0.0790
 2659SOL     OW18310   9.666   5.618   3.021 -0.5905  0.0908 -0.8161
 2659SOL    HW118311   9.753   5.663   3.000  0.3657 -1.8262 -1.0544
 2659SOL    HW218312   9.591   5.674   2.986  0.5584  1.4999 -1.1115
 2660SOL     OW18313   5.168   9.791   2.793  0.2605  0.4472  0.6982
 2660SOL    HW118314   5.204   9.884   2.794  1.3856  0.0157  0.3223
 2660SOL    HW218315   5.071   9.793   2.820 -0.4193  2.0234 -1.6838
 2661SOL     OW18316   2.102   9.096   2.168 -0.6562 -0.2665  0.6543
 2661SOL    HW118317   2.190   9.071   2.209 -0.6296 -0.6716  0.3554
 2661SOL    HW218318   2.065   9.177   2.214 -0.2097 -0.1996  0.8954
 2662SOL     OW18319   2.137   1.754   2.444  0.3844  0.4329  0.3053
 2662SOL    HW118320   2.092   1.841   2.425 -1.3574 -0.4764  0.0662
 2662SOL    HW218321   2.070   1.690   2.483  1.4239 -1.0370 -0.2617
 2663SOL     OW18322   2.327   2.215   1.851 -0.0785 -0.3995 -0.0356
 2663SOL    HW118323   2.346   2.118   1.836  1.3769 -0.3344  1.2285
 2663SOL    HW218324   2.405   2.256   1.898 -0.5347  1.4664 -0.8890
 2664SOL     OW18325   7.623   8.832   2.713  0.1046 -0.0811  0.1905
 2664SOL    HW118326   7.598   8.874   2.800 -0.4912 -1.5006  0.7180
 2664SOL    HW218327   7.721   8.810   2.714 -0.1408 -1.1859  0.9786
 2665SOL     OW18328   8.714   2.066   3.163 -0.0740  0.0336  0.2490
 2665SOL    HW118329   8.778   2.069   3.240  1.3385  0.6883 -0.9241
 2665SOL    HW218330   8.659   2.149   3.162 -0.8106 -0.4414  1.1510
 2666SOL     OW18331   3.849   4.707   0.302  0.5828 -0.2828  0.3040
 2666SOL    HW118332   3.839   4.609   0.317  0.5271 -0.5851 -1.5914
 2666SOL    HW218333   3.911   4.723   0.224  2.4588  1.2425  2.0489
 2667SOL     OW18334   2.388   6.945   1.211  0.4007  0.6769 -0.5706
 2667SOL    HW118335   2.471   6.953   1.267 -1.5229  2.3734  2.1875
 2667SOL    HW218336   2.373   7.030   1.161 -0.0819  0.6458 -0.4783
 2668SOL     OW18337   8.043   0.414   0.616 -0.1711 -0.3137  0.2500
 2668SOL    HW118338   8.141   0.436   0.618 -0.1347 -0.4299 -0.4155
 2668SOL    HW218339   8.021   0.354   0.693 -0.2082  1.7793  1.9425
 2669SOL     OW18340   1.525   2.329   0.482  0.2460  0.2295 -0.0873
 2669SOL    HW118341   1.549   2.411   0.431 -0.1123  0.7231  0.5356
 2669SOL    HW218342   1.431   2.303   0.460 -0.0364  0.6519  0.5805
 2670SOL     OW18343   3.838   3.935   2.840  0.6196 -0.1302 -0.6612
 2670SOL    HW118344   3.824   3.840   2.811  1.1127 -0.0547 -1.1515
 2670SOL    HW218345   3.866   3.937   2.936  2.1019 -0.5649 -1.0833
 2671SOL     OW18346   2.272   7.396   2.716  0.1762 -0.4501 -0.2055
 2671SOL    HW118347   2.296   7.401   2.812 -0.2373  2.0200 -0.2036
 2671SOL    HW218348   2.173   7.386   2.707  0.1560 -0.1226 -0.3707
 2672SOL     OW18349   2.253   5.771   0.051  0.0858  0.3276 -0.2707
 2672SOL    HW118350   2.215   5.718  -0.025  1.6206 -0.4108 -0.5560
 2672SOL    HW218351   2.192   5.846   0.073 -0.5844  0.3149 -1.9733
 2673SOL     OW18352   8.665   5.767   0.597  0.3034 -0.2062 -0.0799
 2673SOL    HW118353   8.715   5.822   0.531 -0.0001 -0.2512 -0.3510
 2673SOL    HW218354   8.599   5.825   0.645 -0.4030 -0.4483 -0.7563
 2674SOL     OW18355   9.666   0.869   2.347 -0.4914 -0.9609 -0.2199
 2674SOL    HW118356   9.746   0.812   2.364  0.6355  0.7130  0.1592
 2674SOL    HW218357   9.692   0.946   2.289 -1.8789 -0.5204 -0.2741
 2675SOL     OW18358   0.933   2.535   2.012  0.3806  0.3768 -0.0825
 2675SOL    HW118359   0.986   2.499   2.088  0.8669 -0.3278 -0.7480
 2675SOL    HW218360   0.981   2.517   1.926 -0.7451  0.0864 -0.6602
 2676SOL     OW18361   2.953   3.862   0.006  0.7247 -0.3621  0.1747
 2676SOL    HW118362   2.953   3.781  -0.054  1.2527  0.1150 -0.4814
 2676SOL    HW218363   2.957   3.944  -0.051 -0.9342  0.1581  0.8001
 2677SOL     OW18364   3.681   0.497   0.928 -0.5915  0.5145 -0.1753
 2677SOL    HW118365   3.776   0.465   0.926 -1.2700 -1.6711  0.9866
 2677SOL    HW218366   3.672   0.576   0.867  1.3940 -0.8859 -2.4078
 2678SOL     OW18367   3.646   3.956   0.411  0.1416 -0.3105 -0.0823
 2678SOL    HW118368   3.639   4.054   0.390  1.3215 -0.2160 -0.0958
 2678SOL    HW218369   3.630   3.941   0.508 -0.3274 -0.1322 -0.1337
 2679SOL     OW18370   2.899   0.312   2.111 -0.4819 -0.1602  0.5157
 2679SOL    HW118371   2.955   0.274   2.037 -0.4496  0.5061  0.1991
 2679SOL    HW218372   2.951   0.307   2.197  0.3643  1.1443  0.0892
 2680SOL     OW18373   8.625   7.992   1.113  0.2040 -0.5588  0.0449
 2680SOL    HW118374   8.606   8.068   1.051  0.9279  0.3880  0.9562
 2680SOL    HW218375   8.720   7.964   1.102 -0.0461 -1.2988 -0.2456
 2681SOL     OW18376   3.418   9.788   1.441  0.1281 -0.1076 -0.7176
 2681SOL    HW118377   3.422   9.839   1.354 -1.8333 -0.2941 -0.9319
 2681SOL    HW218378   3.326   9.792   1.478  0.7641 -0.7138  0.9787
 2682SOL     OW18379   8.813   2.181   1.240  0.1971  0.7225  0.2598
 2682SOL    HW118380   8.888   2.132   1.195 -1.2566 -1.0434 -0.3282
 2682SOL    HW218381   8.748   2.213   1.171 -0.2831  1.0213  0.8458
 2683SOL     OW18382   0.875   3.128   2.119  0.7757  0.1789  0.5485
 2683SOL    HW118383   0.878   3.223   2.151 -1.3162  1.1242 -1.8289
 2683SOL    HW218384   0.968   3.095   2.101  1.4552  2.2077  0.2415
 2684SOL     OW18385   4.014   7.959   0.962  0.1544  0.1294 -0.3207
 2684SOL    HW118386   3.968   8.003   1.039 -0.3465  2.1667 -1.7432
 2684SOL    HW218387   4.051   7.871   0.991 -0.9059  0.4058  1.9695
 2685SOL     OW18388   0.089   5.825   0.123  0.1133  0.3696 -0.3863
 2685SOL    HW118389   0.153   5.758   0.159 -0.0129  0.5002  0.0845
 2685SOL    HW218390   0.139   5.904   0.087  0.2494  0.1385 -0.7030
 2686SOL     OW18391   1.874   4.543   1.108 -0.0643 -0.6807  0.5338
 2686SOL    HW118392   1.874   4.443   1.115  1.6442 -0.8140 -1.1080
 2686SOL    HW218393   1.960   4.579   1.143 -0.4326  0.1706  0.5730
 2687SOL     OW18394   3.961   0.156   2.328 -0.5872  0.1744 -0.0150
 2687SOL    HW118395   4.028   0.086   2.355 -0.1898  1.7236  3.2870
 2687SOL    HW218396   3.989   0.197   2.241  1.2315 -1.1255 -0.0827
 2688SOL     OW18397   7.575   1.883   0.314  0.3808 -0.0143 -0.0574
 2688SOL    HW118398   7.610   1.883   0.221  0.3322  1.1306 -0.0925
 2688SOL    HW218399   7.522   1.800   0.331  1.6791 -0.9558 -0.5491
 2689SOL     OW18400   0.273   4.010   3.381  0.0141  0.4426  0.2508
 2689SOL    HW118401   0.358   4.000   3.433 -1.2086  0.5011  2.3208
 2689SOL    HW218402   0.286   3.975   3.288  0.7654 -4.7381  2.1473
 2690SOL     OW18403   1.045   6.016   1.698 -0.3509  0.5195  0.0011
 2690SOL    HW118404   1.096   6.045   1.617 -1.9737 -0.3421 -1.3741
 2690SOL    HW218405   1.089   5.935   1.737  0.9009  1.4145  0.4708
 2691SOL     OW18406   9.126   5.746   1.654  0.5599 -0.2782 -0.0800
 2691SOL    HW118407   9.211   5.798   1.657  1.1120 -0.9104 -3.5274
 2691SOL    HW218408   9.145   5.648   1.654 -0.2301 -0.4412 -0.0448
 2692SOL     OW18409   1.361   8.152   1.831 -0.2167  0.2508  0.1264
 2692SOL    HW118410   1.286   8.163   1.895  0.4983  0.5290  0.9310
 2692SOL    HW218411   1.403   8.062   1.843 -0.6643 -0.0542 -0.5857
 2693SOL     OW18412   2.344   2.969   1.954  0.2816  0.3971  0.8160
 2693SOL    HW118413   2.369   2.944   2.047  1.9767 -0.7319  0.0828
 2693SOL    HW218414   2.402   2.919   1.889 -2.0259 -0.1499 -0.8866
 2694SOL     OW18415   9.263   8.287   0.765 -0.2276  0.7471  0.1531
 2694SOL    HW118416   9.279   8.215   0.698 -1.1902  1.2117 -0.5881
 2694SOL    HW218417   9.250   8.246   0.856 -0.1927  0.0292 -0.1654
 2695SOL     OW18418   8.661   0.974   2.056  0.0159  0.1663 -0.2112
 2695SOL    HW118419   8.759   0.997   2.051  0.2167 -1.0143 -2.4056
 2695SOL    HW218420   8.649   0.892   2.111  0.5439 -1.1260 -2.0022
 2696SOL     OW18421   0.407   0.258   1.197 -0.5716  0.5547  0.0660
 2696SOL    HW118422   0.437   0.184   1.137  0.2545  0.5321  0.5046
 2696SOL    HW218423   0.346   0.320   1.146  1.2477  1.3337 -1.2231
 2697SOL     OW18424   1.688   3.690   0.810  0.4307 -0.0632  0.7095
 2697SOL    HW118425   1.765   3.739   0.770 -0.7957  1.0647 -0.2936
 2697SOL    HW218426   1.621   3.668   0.739  0.6282 -2.5999  1.2602
 2698SOL     OW18427   4.014   8.792   3.308 -0.2180 -0.1313  0.2563
 2698SOL    HW118428   3.978   8.863   3.248 -0.6923 -0.8561 -0.3248
 2698SOL    HW218429   4.075   8.833   3.375  0.2892  0.6928 -0.6965
 2699SOL     OW18430   8.772   3.575   2.956  0.6108 -0.7565  0.4695
 2699SOL    HW118431   8.840   3.580   2.884  1.2711 -1.1384  1.0586
 2699SOL    HW218432   8.812   3.606   3.043 -0.3956  0.4361  0.5174
 2700SOL     OW18433   2.096   6.004   0.019 -0.3883 -0.5231  0.0697
 2700SOL    HW118434   2.071   5.981  -0.075 -1.4827 -1.6081  0.6106
 2700SOL    HW218435   2.149   6.089   0.020 -2.7914  1.0702 -1.2859
 2701SOL     OW18436   0.707   3.936   1.417  0.0138  0.2104 -0.6421
 2701SOL    HW118437   0.754   3.903   1.335 -2.3009 -0.4898 -1.7035
 2701SOL    HW218438   0.686   3.860   1.477  0.9874  0.6326  0.2576
 2702SOL     OW18439   4.592   0.285   3.150 -0.1243 -0.4625 -0.5232
 2702SOL    HW118440   4.675   0.233   3.129 -0.3464 -1.2925  0.6225
 2702SOL    HW218441   4.617   0.366   3.204 -0.2603 -1.8193  1.6319
 2703SOL     OW18442   7.744   0.289   2.506  0.5083  0.2174 -0.3700
 2703SOL    HW118443   7.833   0.313   2.547  0.4417  0.6922 -0.5021
 2703SOL    HW218444   7.672   0.308   2.572  0.4979 -0.1029 -0.2891
 2704SOL     OW18445   3.111   2.173   0.727  0.1389  0.0535 -0.2172
 2704SOL    HW118446   3.175   2.200   0.656 -0.5430 -1.1394 -1.3239
 2704SOL    HW218447   3.031   2.130   0.684  0.4443 -2.1630  1.3267
 2705SOL     OW18448   3.542   3.015   1.042 -0.2248 -0.3520  0.5737
 2705SOL    HW118449   3.456   2.977   1.006 -1.5233  2.1885  0.9124
 2705SOL    HW218450   3.607   2.940   1.057 -1.3646 -2.0421 -2.3592
 2706SOL     OW18451   9.963   7.121   1.769  0.2624  0.0126 -0.2147
 2706SOL    HW118452   9.916   7.134   1.856 -0.9394 -1.9794 -0.5363
 2706SOL    HW218453  10.055   7.087   1.786  0.5905  1.1562  0.3277
 2707SOL     OW18454   1.212   3.181   2.340 -0.1306  0.3892 -0.1896
 2707SOL    HW118455   1.143   3.118   2.375  0.1554  0.2197  0.0747
 2707SOL    HW218456   1.196   3.273   2.377 -1.2426  0.7409 -1.4900
 2708SOL     OW18457   2.565   8.529   0.872  0.1292  0.4361  0.7341
 2708SOL    HW118458   2.469   8.502   0.873 -0.2900  1.7823 -0.7920
 2708SOL    HW218459   2.576   8.615   0.922  0.4207  0.6323  0.3339
 2709SOL     OW18460   2.253   8.546   0.040 -0.3316 -0.3271  0.6419
 2709SOL    HW118461   2.262   8.455  -0.002  0.9935  0.0854 -0.0010
 2709SOL    HW218462   2.265   8.616  -0.029  1.5593  0.3577  1.6057
 2710SOL     OW18463   2.592   5.475   0.970 -0.1506  0.7669 -0.4178
 2710SOL    HW118464   2.549   5.534   1.038 -0.2919  0.4832 -0.2618
 2710SOL    HW218465   2.628   5.394   1.015  0.0389  0.7309 -0.6354
 2711SOL     OW18466   1.599   2.599   1.853 -0.1082  0.5500 -0.2436
 2711SOL    HW118467   1.625   2.695   1.851  0.0868  0.5066  0.0606
 2711SOL    HW218468   1.596   2.563   1.760  2.0985  0.2589 -0.2283
 2712SOL     OW18469   2.385   5.289   1.839  0.2204  0.0207  0.6097
 2712SOL    HW118470   2.312   5.337   1.790 -1.0796 -2.2026  0.3421
 2712SOL    HW218471   2.468   5.291   1.783 -0.6042 -0.4757 -0.6600
 2713SOL     OW18472   1.409   9.346   0.751  0.1953  0.0213  0.1358
 2713SOL    HW118473   1.481   9.402   0.792 -0.0883  0.9399 -0.5907
 2713SOL    HW218474   1.321   9.371   0.791  0.1437 -0.3425  0.2517
 2714SOL     OW18475   1.692   4.940   0.755  0.5024 -0.0292 -0.9321
 2714SOL    HW118476   1.599   4.975   0.767 -0.1941 -1.9568 -0.6436
 2714SOL    HW218477   1.700   4.850   0.798  2.6434  0.3316 -0.5128
 2715SOL     OW18478   9.357   4.239   1.967 -0.6779  0.0971  0.1288
 2715SOL    HW118479   9.324   4.250   2.061 -0.4803 -0.6400  0.2852
 2715SOL    HW218480   9.285   4.266   1.903 -0.5278  1.3908  0.4968
 2716SOL     OW18481   9.290   1.537   0.390  0.2035 -0.0992  0.2005
 2716SOL    HW118482   9.217   1.590   0.345  1.1175 -0.4358 -1.7498
 2716SOL    HW218483   9.279   1.440   0.365  1.4293 -0.1183 -0.2684
 2717SOL     OW18484   3.319   4.265   0.832 -0.2875  0.1338 -0.5730
 2717SOL    HW118485   3.256   4.276   0.755 -0.8701 -0.0489 -0.1286
 2717SOL    HW218486   3.368   4.351   0.846 -0.6558  0.3763 -0.7349
 2718SOL     OW18487   0.213   1.401   2.084 -0.1472  0.3577 -0.9107
 2718SOL    HW118488   0.173   1.478   2.134 -1.1577 -0.1505 -0.9068
 2718SOL    HW218489   0.310   1.392   2.107 -0.2046  1.1684 -0.3383
 2719SOL     OW18490   8.764   7.675   2.829  0.1601  0.2790  0.2802
 2719SOL    HW118491   8.857   7.665   2.866  0.0243  2.5550  1.3169
 2719SOL    HW218492   8.707   7.600   2.863  0.5966  1.1023  2.9603
 2720SOL     OW18493   1.649   2.885   1.940  0.3182  0.1206 -0.6379
 2720SOL    HW118494   1.659   2.984   1.949 -0.6629  0.2000 -0.3873
 2720SOL    HW218495   1.737   2.845   1.914  0.5389  1.1471 -1.5281
 2721SOL     OW18496   0.345   2.371   2.712 -0.2579  0.2408  0.3984
 2721SOL    HW118497   0.413   2.374   2.639 -0.8913 -2.2288 -0.3347
 2721SOL    HW218498   0.254   2.389   2.674 -0.6579 -1.5604  0.4577
 2722SOL     OW18499   0.666   3.766   1.668 -0.4632  0.4402  0.5936
 2722SOL    HW118500   0.754   3.757   1.715  1.3177 -1.5256 -2.8565
 2722SOL    HW218501   0.599   3.708   1.713  1.2573 -1.6318  0.6003
 2723SOL     OW18502   9.329   8.036   2.904  0.1031 -0.0555  0.1768
 2723SOL    HW118503   9.302   8.088   2.985 -0.5385 -0.0617 -0.0256
 2723SOL    HW218504   9.373   7.951   2.931  2.1371  1.0780  0.5135
 2724SOL     OW18505   2.049   0.917   1.454  0.0072 -0.0202  0.7235
 2724SOL    HW118506   1.963   0.867   1.468 -0.5474  1.1741  1.7537
 2724SOL    HW218507   2.113   0.860   1.404 -2.0973 -0.2307 -1.8604
 2725SOL     OW18508   8.569   8.018   1.474  0.2482 -0.1075  0.5332
 2725SOL    HW118509   8.563   8.036   1.572  1.4268  0.0503  0.5795
 2725SOL    HW218510   8.650   8.064   1.436  0.0721 -0.5731 -0.4213
 2726SOL     OW18511   9.683   7.789   1.215 -0.9349  0.2919  0.1487
 2726SOL    HW118512   9.672   7.708   1.272 -0.5822 -0.0440 -0.2545
 2726SOL    HW218513   9.722   7.762   1.126  0.0444  1.0109  0.3487
 2727SOL     OW18514   0.172   9.798   0.491  0.1962  0.0647  0.1787
 2727SOL    HW118515   0.224   9.726   0.537  1.6015  1.3386  0.6083
 2727SOL    HW218516   0.075   9.774   0.491  0.4022 -0.8165  2.2022
 2728SOL     OW18517   3.285   7.749   1.243 -0.4831 -0.2173 -0.1519
 2728SOL    HW118518   3.220   7.770   1.316  0.0859  0.2091  0.2402
 2728SOL    HW218519   3.252   7.672   1.189 -2.2287  1.1621 -1.1095
 2729SOL     OW18520   9.226   8.236   0.102  0.1733 -0.4754  0.2224
 2729SOL    HW118521   9.280   8.184   0.036  1.1046  0.8000 -0.0315
 2729SOL    HW218522   9.198   8.323   0.061 -0.4336 -0.2928  1.0231
 2730SOL     OW18523   9.187   2.865   2.532  0.3867 -0.3769  0.7521
 2730SOL    HW118524   9.139   2.906   2.455 -0.2770 -1.2637  0.6817
 2730SOL    HW218525   9.285   2.880   2.522  0.1045  1.9287  1.1813
 2731SOL     OW18526   1.515   7.553   1.276 -0.1175 -0.3394 -0.5617
 2731SOL    HW118527   1.542   7.508   1.191  0.4401 -0.7861 -0.1575
 2731SOL    HW218528   1.584   7.622   1.300  0.3943 -1.0946  0.1843
 2732SOL     OW18529   3.072   6.914   1.667  0.1579  0.1391  0.0184
 2732SOL    HW118530   3.046   6.976   1.741  1.0543 -1.3884  1.6561
 2732SOL    HW218531   3.168   6.887   1.679 -0.1262 -1.2948 -0.8526
 2733SOL     OW18532   3.274   6.782   2.254 -0.6193 -0.4006 -0.6313
 2733SOL    HW118533   3.274   6.800   2.156 -0.3623 -0.4492 -0.6407
 2733SOL    HW218534   3.263   6.684   2.270  0.6526 -0.5512 -0.6431
 2734SOL     OW18535   0.374   7.387   1.127  0.4234 -0.0527 -0.2859
 2734SOL    HW118536   0.364   7.287   1.133  2.1575 -0.2469 -0.3351
 2734SOL    HW218537   0.330   7.429   1.206  0.0442 -0.8764 -0.0445
 2735SOL     OW18538   3.437   6.252   1.032  0.2249  0.2776 -0.2953
 2735SOL    HW118539   3.458   6.179   0.966  1.0701  0.6545 -0.4519
 2735SOL    HW218540   3.441   6.341   0.987 -1.2880  0.3976 -0.2135
 2736SOL     OW18541   9.806   6.422   2.866  0.0948  0.0811 -0.5036
 2736SOL    HW118542   9.716   6.452   2.835 -0.7476 -0.3316  1.4477
 2736SOL    HW218543   9.795   6.361   2.945  2.1510  1.3043  0.7751
 2737SOL     OW18544   3.414   0.347   1.739  0.0108 -0.9063  0.3562
 2737SOL    HW118545   3.464   0.298   1.811  2.9162  0.0962 -0.9175
 2737SOL    HW218546   3.447   0.318   1.650  0.5004  2.0322 -0.4613
 2738SOL     OW18547   8.513   6.214   0.492 -0.5433 -0.0197  0.1219
 2738SOL    HW118548   8.583   6.284   0.474 -0.6087  0.0647  0.1952
 2738SOL    HW218549   8.444   6.252   0.554  1.5092 -1.4054  3.4036
 2739SOL     OW18550   9.261   1.270   1.444 -0.2525  0.3045 -0.2333
 2739SOL    HW118551   9.195   1.239   1.375 -0.2503 -2.2801  0.8446
 2739SOL    HW218552   9.212   1.304   1.524 -0.2775  0.1022 -0.1622
 2740SOL     OW18553   2.376   4.222   2.516  0.4934 -0.0017  0.2448
 2740SOL    HW118554   2.438   4.285   2.563 -1.0751  0.8078  1.2819
 2740SOL    HW218555   2.328   4.272   2.444 -0.3246 -0.1565  0.6842
 2741SOL     OW18556   7.443   0.396   0.801  0.5033  0.1004 -0.3324
 2741SOL    HW118557   7.485   0.481   0.833  2.6784 -1.1525  0.2930
 2741SOL    HW218558   7.456   0.388   0.702 -1.6469  1.5085 -0.7574
 2742SOL     OW18559   1.307   1.081   3.009  0.1101  0.6273  0.2001
 2742SOL    HW118560   1.395   1.077   2.962  0.0771 -0.6390  0.2350
 2742SOL    HW218561   1.241   1.024   2.959 -1.0768  2.6840 -0.6394
 2743SOL     OW18562   2.814   3.593   2.671 -0.2503 -0.1481  0.0566
 2743SOL    HW118563   2.740   3.660   2.673 -0.6219 -0.4158 -2.3949
 2743SOL    HW218564   2.844   3.580   2.576  3.0496  0.0667  1.0018
 2744SOL     OW18565   9.861   0.145   2.150  0.3946  0.0683 -0.1166
 2744SOL    HW118566   9.889   0.141   2.054 -2.8356 -0.6860 -1.0669
 2744SOL    HW218567   9.833   0.238   2.173  1.3677  0.2961  0.1776
 2745SOL     OW18568   9.745   2.684   2.142 -0.3446  0.3609  0.1782
 2745SOL    HW118569   9.837   2.723   2.153 -0.3383  0.4306 -0.1376
 2745SOL    HW218570   9.720   2.683   2.046  0.3029 -1.9163  0.0094
 2746SOL     OW18571   4.815   0.258   0.417 -0.7990  0.2299 -0.3143
 2746SOL    HW118572   4.881   0.270   0.491 -0.7282 -0.9276 -0.1772
 2746SOL    HW218573   4.860   0.211   0.340 -1.7799 -1.7659  0.2881
 2747SOL     OW18574   9.632   5.679   0.476 -0.3187 -0.4593  0.0561
 2747SOL    HW118575   9.569   5.622   0.529  0.7244 -1.2796  0.4430
 2747SOL    HW218576   9.654   5.632   0.391  1.6901 -1.3393  1.0296
 2748SOL     OW18577   2.727   1.884   1.615 -0.2938  0.7276  0.4991
 2748SOL    HW118578   2.716   1.982   1.633  1.3835  1.2439 -1.0842
 2748SOL    HW218579   2.667   1.856   1.540  1.0511  1.1384 -0.7669
 2749SOL     OW18580   2.089   3.987   0.407 -0.0320 -0.3699 -0.2290
 2749SOL    HW118581   1.998   3.980   0.366 -0.0316 -0.7071 -0.1741
 2749SOL    HW218582   2.146   3.910   0.376  0.7367  0.6924 -1.5005
 2750SOL     OW18583   3.355   7.318   2.309  0.6167  0.0964 -0.4776
 2750SOL    HW118584   3.377   7.221   2.322  0.6643 -0.2898 -3.0360
 2750SOL    HW218585   3.404   7.352   2.228  0.1084  2.0891  0.0362
 2751SOL     OW18586   3.379   9.653   2.932  0.1326 -0.7284  0.0624
 2751SOL    HW118587   3.344   9.739   2.894  0.0865 -0.2360  1.1942
 2751SOL    HW218588   3.372   9.581   2.863  0.6551  0.2853 -1.0698
 2752SOL     OW18589   4.920   1.988   1.840  0.3247  0.2377  0.8418
 2752SOL    HW118590   5.017   2.012   1.850  0.2751  0.1895  1.5040
 2752SOL    HW218591   4.866   2.071   1.830  0.4614  0.2523  0.2318
 2753SOL     OW18592   9.050   1.879   1.294 -0.1285 -0.0752 -0.0357
 2753SOL    HW118593   8.952   1.863   1.289  0.0445 -1.3490  0.6157
 2753SOL    HW218594   9.085   1.847   1.382  0.9968 -0.3221 -0.5665
 2754SOL     OW18595   9.776   3.180   1.807 -0.3118 -0.0546  0.1078
 2754SOL    HW118596   9.847   3.111   1.824 -1.3314 -0.6632  1.9387
 2754SOL    HW218597   9.816   3.271   1.816  0.2799 -0.3924  0.9507
 2755SOL     OW18598   9.299   1.963   2.615  0.2929 -0.0735 -0.1568
 2755SOL    HW118599   9.231   1.915   2.560  0.7651  0.4957 -1.2516
 2755SOL    HW218600   9.326   2.048   2.569  0.4698  0.5623  1.1034
 2756SOL     OW18601   9.166   9.467   1.989  0.1583 -0.0034 -0.7219
 2756SOL    HW118602   9.075   9.428   2.007  0.1463 -0.0490 -0.8724
 2756SOL    HW218603   9.233   9.394   1.981  0.1364  0.0079 -1.0100
 2757SOL     OW18604   9.481   8.562   1.554 -0.1245  0.2468 -0.0298
 2757SOL    HW118605   9.515   8.651   1.584  3.4178 -0.2052 -2.4520
 2757SOL    HW218606   9.443   8.570   1.462 -2.0467 -0.3089  0.6842
 2758SOL     OW18607   3.284   7.418   3.025 -0.3990 -0.0853  0.2133
 2758SOL    HW118608   3.286   7.468   3.111  0.1328 -0.8202  0.6389
 2758SOL    HW218609   3.374   7.377   3.008  0.0210  1.5096 -1.5735
 2759SOL     OW18610   2.638   8.946   1.592 -0.1068  0.0881 -0.1067
 2759SOL    HW118611   2.576   8.888   1.646 -0.1187 -0.2145 -0.4481
 2759SOL    HW218612   2.717   8.893   1.562 -0.5251  0.0303 -1.1189
 2760SOL     OW18613   3.330   0.480   2.850  0.3447  0.0488  0.0965
 2760SOL    HW118614   3.259   0.411   2.834  1.2982 -0.5923 -1.6408
 2760SOL    HW218615   3.310   0.531   2.933 -1.8092 -0.5311 -0.0344
 2761SOL     OW18616   3.273   4.153   0.020 -0.3800 -0.0852 -0.7854
 2761SOL    HW118617   3.240   4.238   0.062 -1.6805 -0.8338 -0.2780
 2761SOL    HW218618   3.275   4.080   0.088  1.6723 -0.2466 -0.9794
 2762SOL     OW18619   2.717   0.838   0.084  0.5076 -0.4007  0.1945
 2762SOL    HW118620   2.796   0.895   0.059  0.9556 -1.1791 -0.1763
 2762SOL    HW218621   2.748   0.745   0.104 -0.2484 -0.5630  0.6256
 2763SOL     OW18622   8.594   5.121   2.685 -0.9351  0.0977  0.2350
 2763SOL    HW118623   8.606   5.028   2.721  0.0106  0.1584  0.0970
 2763SOL    HW218624   8.598   5.187   2.760 -1.6547  0.0246  0.3384
 2764SOL     OW18625   9.923   5.830   0.348 -0.1086  0.2480  0.1203
 2764SOL    HW118626   9.971   5.821   0.261  0.0630  1.6438  0.0589
 2764SOL    HW218627   9.976   5.888   0.410 -0.7421  0.1486  0.7688
 2765SOL     OW18628   0.073   9.393   1.569  0.3180  0.1341  0.4559
 2765SOL    HW118629   0.135   9.338   1.513  0.6439 -0.0552  1.0031
 2765SOL    HW218630   0.124   9.469   1.610  0.5716 -1.0054  2.2922
 2766SOL     OW18631   9.634   1.791   2.026 -0.0842  0.6287  0.5019
 2766SOL    HW118632   9.571   1.868   2.036 -1.2597 -0.5716  2.9236
 2766SOL    HW218633   9.688   1.781   2.110  0.4165 -0.8386  0.0188
 2767SOL     OW18634   1.550   3.944   0.888  0.0148 -0.1261 -0.2258
 2767SOL    HW118635   1.601   3.974   0.806  0.9830  0.2054  0.4856
 2767SOL    HW218636   1.599   3.868   0.931 -0.1867  0.0864  0.3741
 2768SOL     OW18637   0.580   0.862   1.734  0.6670 -0.5883 -0.5031
 2768SOL    HW118638   0.535   0.781   1.694 -1.1154  0.3098 -0.3468
 2768SOL    HW218639   0.633   0.908   1.663  0.3973 -1.0050 -0.9857
 2769SOL     OW18640   1.141   2.143   1.558  0.1474  0.2601 -0.7205
 2769SOL    HW118641   1.229   2.190   1.549  0.3602  0.6003  2.3857
 2769SOL    HW218642   1.074   2.207   1.596 -1.0623 -0.4258 -1.6661
 2770SOL     OW18643   8.578   8.932   2.758  0.6029 -0.0356 -0.6457
 2770SOL    HW118644   8.622   8.843   2.763 -0.3607 -0.5156 -0.5848
 2770SOL    HW218645   8.479   8.921   2.769  0.7069  1.3112  1.8827
 2771SOL     OW18646   2.983   5.166   1.340  0.4300 -0.3722  0.4216
 2771SOL    HW118647   3.061   5.149   1.279  0.8333  0.1906  0.7659
 2771SOL    HW218648   2.960   5.263   1.338 -2.0459 -0.9722 -1.7712
 2772SOL     OW18649   7.068   8.497   2.904 -0.2524  0.5883 -0.5261
 2772SOL    HW118650   7.082   8.544   2.991  1.3471 -1.4731  0.3707
 2772SOL    HW218651   6.992   8.540   2.856 -0.0289  2.9061  1.0559
 2773SOL     OW18652   9.968   5.294   0.874  0.7032 -0.2151 -0.2428
 2773SOL    HW118653   9.954   5.258   0.966  0.6003 -0.1221 -0.2215
 2773SOL    HW218654   9.908   5.246   0.810 -0.9962  1.3434  0.1132
 2774SOL     OW18655   1.392   4.304   1.362  0.2543  0.4458  0.4723
 2774SOL    HW118656   1.378   4.326   1.266  2.9336 -0.6738 -0.2046
 2774SOL    HW218657   1.409   4.205   1.372  3.7296  1.0728  1.5923
 2775SOL     OW18658   0.842   5.495   1.876  0.0762 -0.3420 -0.3284
 2775SOL    HW118659   0.873   5.590   1.867  0.2652 -0.3316  0.3499
 2775SOL    HW218660   0.744   5.494   1.896 -0.1728 -0.3380 -1.5181
 2776SOL     OW18661   4.975   8.543   2.579 -0.1393 -0.4801 -0.0899
 2776SOL    HW118662   4.995   8.626   2.526  1.5926 -0.1924  0.9560
 2776SOL    HW218663   5.060   8.508   2.618 -1.2850 -1.0809  1.9087
 2777SOL     OW18664   4.014   3.392   3.212  0.4143  0.5707  0.2366
 2777SOL    HW118665   3.961   3.374   3.129  0.7251  1.5028 -0.1669
 2777SOL    HW218666   4.105   3.425   3.188  0.0521  2.1352  0.9458
 2778SOL     OW18667   8.888   5.675   0.758 -0.6341 -0.4177  0.2190
 2778SOL    HW118668   8.812   5.677   0.693 -0.6118 -0.0332  0.2042
 2778SOL    HW218669   8.974   5.690   0.710 -0.7073  0.8604  0.4694
 2779SOL     OW18670   8.033   8.736   3.024  0.5948 -0.0260 -0.6536
 2779SOL    HW118671   8.092   8.765   3.099  0.2259  1.0270 -0.7480
 2779SOL    HW218672   7.949   8.697   3.061  0.0553  1.2496 -0.4990
 2780SOL     OW18673   1.332   3.617   1.846 -0.2790 -0.0357 -0.0924
 2780SOL    HW118674   1.240   3.607   1.807  0.6097 -0.0362 -2.2685
 2780SOL    HW218675   1.384   3.682   1.792  1.1504 -0.3523  0.8794
 2781SOL     OW18676   4.784   2.828   1.847 -0.3185 -0.0479 -0.0487
 2781SOL    HW118677   4.714   2.844   1.778 -0.0465 -0.0814 -0.3278
 2781SOL    HW218678   4.875   2.835   1.806 -0.1501  0.2846  0.3737
 2782SOL     OW18679   3.447   4.904   2.123 -0.7683 -0.0889  0.2815
 2782SOL    HW118680   3.493   4.991   2.105 -0.9313 -0.5526 -2.5736
 2782SOL    HW218681   3.371   4.920   2.187 -0.6874  1.8265 -0.0543
 2783SOL     OW18682   9.246   2.183   2.170 -0.1403 -0.1721  0.6907
 2783SOL    HW118683   9.240   2.257   2.238 -0.1953  0.2837  0.1952
 2783SOL    HW218684   9.328   2.196   2.114 -0.2102 -0.4271  0.5317
 2784SOL     OW18685   8.256   3.277   0.299  0.0120 -0.2023  0.0303
 2784SOL    HW118686   8.355   3.265   0.308  0.1277  0.1666 -0.7376
 2784SOL    HW218687   8.225   3.345   0.365  0.5099  0.8070 -0.7637
 2785SOL     OW18688   9.256   6.728   0.545 -0.4605  0.7218 -0.2685
 2785SOL    HW118689   9.267   6.776   0.632  1.2720 -0.6502  0.3093
 2785SOL    HW218690   9.314   6.647   0.545 -0.5751  0.6094 -2.6363
 2786SOL     OW18691   9.590   9.442   0.040 -0.0206 -0.0746  0.3427
 2786SOL    HW118692   9.532   9.504   0.093 -0.7279 -0.3270 -0.1141
 2786SOL    HW218693   9.672   9.490   0.010  0.7731 -0.1620  2.3320
 2787SOL     OW18694   7.686   1.721   3.289 -0.1495  0.1025 -0.1354
 2787SOL    HW118695   7.703   1.628   3.256  0.6727  0.1253  0.2070
 2787SOL    HW218696   7.741   1.785   3.236 -1.4203  0.4986 -0.9938
 2788SOL     OW18697   8.410   4.327   1.480  0.9463  0.2654 -0.3608
 2788SOL    HW118698   8.405   4.415   1.526 -0.5379  0.1182 -0.2163
 2788SOL    HW218699   8.384   4.338   1.384  0.1539 -0.1046 -0.1971
 2789SOL     OW18700   9.048   1.796   2.565 -0.0262  0.0410 -0.4603
 2789SOL    HW118701   9.007   1.885   2.585  2.2999  0.8722  0.7526
 2789SOL    HW218702   9.041   1.738   2.646 -0.2014 -0.3622 -0.7647
 2790SOL     OW18703   1.130   6.643   1.045  0.1973 -0.1718 -0.1957
 2790SOL    HW118704   1.175   6.698   1.115  1.3505 -0.8393 -0.3818
 2790SOL    HW218705   1.190   6.636   0.964 -0.7526 -0.1020 -0.9124
 2791SOL     OW18706   3.168   5.081   1.155  0.5941  0.2689 -0.4252
 2791SOL    HW118707   3.114   4.997   1.163 -0.3189  0.9584  0.9316
 2791SOL    HW218708   3.214   5.084   1.066  0.7868 -1.7475 -0.4065
 2792SOL     OW18709   3.883   0.900   0.906  0.6679 -0.1239 -0.0723
 2792SOL    HW118710   3.831   0.985   0.919  0.0737 -0.8403  2.4182
 2792SOL    HW218711   3.854   0.856   0.821 -0.3929  1.1940 -0.4050
 2793SOL     OW18712   2.185   8.772   1.310  0.1272  0.4331 -0.1252
 2793SOL    HW118713   2.238   8.737   1.387 -2.1641  0.0436  1.3248
 2793SOL    HW218714   2.155   8.865   1.329  0.6384  0.8095 -1.1240
 2794SOL     OW18715   3.361   6.293   0.623 -0.2105  0.1612  0.2442
 2794SOL    HW118716   3.292   6.271   0.691  0.3623  0.4046  0.9088
 2794SOL    HW218717   3.371   6.393   0.616 -0.4611  0.1446 -0.3906
 2795SOL     OW18718   7.664   8.489   1.548  0.1156 -0.1433 -0.2190
 2795SOL    HW118719   7.607   8.490   1.465  2.0062  1.3720 -1.5612
 2795SOL    HW218720   7.722   8.408   1.547 -0.0939 -0.2955 -0.2029
 2796SOL     OW18721   8.268   0.975   2.122  0.0719 -0.7288  0.4011
 2796SOL    HW118722   8.245   0.923   2.041 -2.7271 -1.0864  1.3796
 2796SOL    HW218723   8.285   1.071   2.097  1.4706 -1.2842 -0.8621
 2797SOL     OW18724   1.962   7.267   0.452 -0.5990 -0.2080  0.0461
 2797SOL    HW118725   2.033   7.205   0.483  0.2037 -0.3203 -1.9674
 2797SOL    HW218726   1.960   7.347   0.512  1.0724 -0.3077  0.2633
 2798SOL     OW18727   4.158   4.478   1.934 -0.0067 -0.5742  0.5094
 2798SOL    HW118728   4.231   4.466   1.867 -0.8882 -0.7898 -0.4243
 2798SOL    HW218729   4.111   4.391   1.948  0.1750 -0.5358  1.4265
 2799SOL     OW18730   7.712   8.732   2.294  0.0100 -0.2465 -0.0167
 2799SOL    HW118731   7.791   8.773   2.340 -0.6519 -0.3038  1.1956
 2799SOL    HW218732   7.743   8.661   2.231  0.9542 -0.0055  0.1685
 2800SOL     OW18733   9.697   8.012   0.701  0.4024 -0.1218 -0.1105
 2800SOL    HW118734   9.738   8.076   0.766  2.4110 -0.8399 -0.6153
 2800SOL    HW218735   9.763   7.992   0.628 -2.6127  2.6544 -3.8579
 2801SOL     OW18736   1.893   6.817   0.087 -0.0612 -0.4057 -0.1793
 2801SOL    HW118737   1.857   6.903   0.052  1.2816 -0.2841 -1.3089
 2801SOL    HW218738   1.838   6.787   0.165 -0.4401  1.5308  0.3229
 2802SOL     OW18739   9.175   0.569   0.696  0.2233 -0.0434  0.7069
 2802SOL    HW118740   9.119   0.502   0.647  1.3293  0.7006 -1.6444
 2802SOL    HW218741   9.267   0.571   0.657  1.0118  0.9143  2.5334
 2803SOL     OW18742   9.203   0.708   2.006  0.6138 -0.0179 -0.5330
 2803SOL    HW118743   9.213   0.806   2.022  1.0211 -0.2136  0.4916
 2803SOL    HW218744   9.167   0.692   1.914 -0.6158  1.1360 -0.2766
 2804SOL     OW18745   8.545   1.101   0.004  0.5007 -0.0115  0.1514
 2804SOL    HW118746   8.533   1.198   0.025 -1.0304  0.1617 -1.3572
 2804SOL    HW218747   8.642   1.081  -0.009  0.8399  1.2771  0.6631
 2805SOL     OW18748   9.480   6.826   0.397 -0.5100 -0.1285 -0.1302
 2805SOL    HW118749   9.442   6.911   0.361 -1.3500 -0.0125  1.0070
 2805SOL    HW218750   9.411   6.778   0.450  0.5037 -0.6358  0.7555
 2806SOL     OW18751   7.689   1.086   1.580 -0.1846 -0.5864 -0.1588
 2806SOL    HW118752   7.736   0.999   1.594  1.7767  0.3885 -0.4339
 2806SOL    HW218753   7.719   1.151   1.650 -1.2170  0.0263 -0.2784
 2807SOL     OW18754   0.483   5.396   2.121  0.6632 -0.4690  0.5751
 2807SOL    HW118755   0.527   5.465   2.178 -0.6688  0.5681  0.3681
 2807SOL    HW218756   0.404   5.437   2.074  1.5644 -1.3755 -1.7875
 2808SOL     OW18757   4.763   8.849   0.048 -0.6791 -0.0109 -0.2508
 2808SOL    HW118758   4.858   8.879   0.041 -1.7355  3.7675  0.2560
 2808SOL    HW218759   4.734   8.810  -0.040  0.7260  0.8052 -1.0976
 2809SOL     OW18760   1.150   1.450   2.088 -0.4604 -0.3356 -0.2041
 2809SOL    HW118761   1.248   1.468   2.075 -0.6239  0.1680 -0.7643
 2809SOL    HW218762   1.129   1.359   2.055 -0.7015  0.6010 -2.7507
 2810SOL     OW18763   2.160   6.546   1.123  0.2957 -0.3919  0.1415
 2810SOL    HW118764   2.203   6.477   1.180  1.9499  1.3941  1.0935
 2810SOL    HW218765   2.190   6.534   1.028  2.3203  0.3538  0.6658
 2811SOL     OW18766   4.368   2.624   1.684  0.2783  0.0051  0.1256
 2811SOL    HW118767   4.298   2.689   1.656  1.8229  0.9219 -1.7098
 2811SOL    HW218768   4.346   2.589   1.775 -2.4923  0.3261 -0.3770
 2812SOL     OW18769   4.318   9.868   1.876 -0.6014  0.5043  0.2674
 2812SOL    HW118770   4.303   9.809   1.956 -0.1253  1.3067  0.9609
 2812SOL    HW218771   4.365   9.816   1.804 -0.3764 -0.0236  0.7904
 2813SOL     OW18772   2.182   9.291   0.699 -0.2407 -0.3957  0.4813
 2813SOL    HW118773   2.196   9.233   0.619 -1.1415  0.7943 -0.5723
 2813SOL    HW218774   2.102   9.349   0.684  0.6347  1.1052  1.5005
 2814SOL     OW18775   2.466   5.217   3.139  0.1611  0.3236 -0.2794
 2814SOL    HW118776   2.426   5.127   3.155 -0.6885  0.6392 -0.5935
 2814SOL    HW218777   2.496   5.224   3.044  0.4165  0.2932 -0.1997
 2815SOL     OW18778   1.238   6.258   2.671  0.0269 -0.4994 -0.0387
 2815SOL    HW118779   1.281   6.178   2.629  1.0544 -0.4601  0.9139
 2815SOL    HW218780   1.291   6.340   2.648 -1.1247 -0.0468 -1.1633
 2816SOL     OW18781   0.020   4.150   2.512 -0.0753  0.5856  0.5550
 2816SOL    HW118782  -0.014   4.160   2.419 -0.2659  1.7888  0.7468
 2816SOL    HW218783   0.008   4.056   2.542 -1.4078  0.5438 -0.0947
 2817SOL     OW18784   9.132   9.485   2.560 -0.3196  0.0142 -0.4786
 2817SOL    HW118785   9.153   9.404   2.505  0.5722  0.8928 -1.4495
 2817SOL    HW218786   9.032   9.494   2.569 -0.4758 -0.3003 -1.7254
 2818SOL     OW18787   7.817   1.919   3.168 -0.1009 -0.0825  0.1819
 2818SOL    HW118788   7.839   1.870   3.083 -0.4202 -1.3188  0.8090
 2818SOL    HW218789   7.876   2.000   3.175  0.0847 -0.0868 -1.1037
 2819SOL     OW18790   2.122   9.175   0.964  0.2194 -0.0520 -0.0243
 2819SOL    HW118791   2.040   9.228   0.985  0.9692  1.1328 -0.0277
 2819SOL    HW218792   2.152   9.196   0.871 -0.2496 -1.5154 -0.5188
 2820SOL     OW18793   2.810   8.070   2.073 -0.5969  0.5063  0.1718
 2820SOL    HW118794   2.842   8.145   2.015  0.0800  1.3863  1.6633
 2820SOL    HW218795   2.818   7.984   2.023  0.9063  1.1265 -0.6866
 2821SOL     OW18796   0.092   9.890   2.285  0.0550 -0.4166  0.2245
 2821SOL    HW118797   0.071   9.977   2.329 -1.3933 -0.6784  0.0820
 2821SOL    HW218798   0.057   9.814   2.341  0.9285 -0.8821  0.1415
 2822SOL     OW18799   8.371   8.266   0.082 -0.1736  0.0876 -0.3178
 2822SOL    HW118800   8.366   8.356   0.126  0.0356  0.3487 -0.8215
 2822SOL    HW218801   8.430   8.206   0.137  0.0479  0.3965 -0.2117
 2823SOL     OW18802   2.423   5.341   1.347  0.2826  0.1661 -0.0401
 2823SOL    HW118803   2.469   5.421   1.309  1.8768 -1.1576 -0.9702
 2823SOL    HW218804   2.441   5.261   1.289  0.6843 -1.3849  2.1596
 2824SOL     OW18805   9.936   5.712   3.373 -0.1255 -0.5549 -0.3095
 2824SOL    HW118806   9.948   5.614   3.355 -0.0716 -0.5306 -0.4080
 2824SOL    HW218807   9.999   5.740   3.446 -1.2333 -0.9231  0.8063
 2825SOL     OW18808   4.390   7.651   2.698 -0.9658 -0.3452 -0.3307
 2825SOL    HW118809   4.373   7.740   2.740 -1.8214 -0.4761 -0.3830
 2825SOL    HW218810   4.488   7.639   2.682 -0.9119  0.8801 -0.9774
 2826SOL     OW18811   4.143   3.725   0.545 -0.8674  0.7406 -0.6570
 2826SOL    HW118812   4.103   3.642   0.583 -1.0022  0.7903 -0.6911
 2826SOL    HW218813   4.158   3.714   0.447  0.0150  0.3982 -0.4904
 2827SOL     OW18814   8.685   6.086   2.559  0.5771  0.2272  0.0471
 2827SOL    HW118815   8.689   6.062   2.462  0.7141  2.0529 -0.4122
 2827SOL    HW218816   8.777   6.082   2.598  0.8698  1.6610 -0.4573
 2828SOL     OW18817   9.129   5.599   2.146 -0.7780  0.0037  0.0282
 2828SOL    HW118818   9.058   5.658   2.108 -1.0358 -0.4423 -0.1876
 2828SOL    HW218819   9.191   5.571   2.072 -0.6069  0.0777  0.1450
 2829SOL     OW18820   0.823   3.127   0.534 -0.0063  0.1167  0.2056
 2829SOL    HW118821   0.907   3.156   0.579 -0.8904 -0.4054  2.2533
 2829SOL    HW218822   0.747   3.185   0.565 -0.9827 -1.5090  0.9085
 2830SOL     OW18823   2.204   6.726   2.421 -0.1496 -0.3214 -0.4656
 2830SOL    HW118824   2.302   6.729   2.404  0.4130  2.6626  2.7966
 2830SOL    HW218825   2.187   6.673   2.504 -1.1334  0.6194 -0.0606
 2831SOL     OW18826   3.270   3.336   3.443 -0.0060 -0.1097 -0.4298
 2831SOL    HW118827   3.306   3.370   3.530  0.3824 -0.0129 -0.6247
 2831SOL    HW218828   3.194   3.274   3.460  0.1057 -0.1328 -0.0172
 2832SOL     OW18829   2.923   8.763   1.105 -0.0447 -0.5935 -0.3264
 2832SOL    HW118830   2.978   8.773   1.188 -0.8201 -1.6683  0.3343
 2832SOL    HW218831   2.846   8.826   1.108  0.9106  0.6279 -1.0654
 2833SOL     OW18832   2.822   2.335   0.913 -0.2409 -0.7550 -0.8154
 2833SOL    HW118833   2.794   2.243   0.886  0.8506 -1.3261 -0.0568
 2833SOL    HW218834   2.774   2.402   0.857 -1.7958 -1.7451 -0.7078
 2834SOL     OW18835   0.591   4.539   2.308  0.3480  0.1759  0.1771
 2834SOL    HW118836   0.563   4.606   2.240 -1.2950  1.0568  1.7049
 2834SOL    HW218837   0.690   4.547   2.323  0.8961 -0.6351 -2.7140
 2835SOL     OW18838   6.966   9.315   3.045  0.8274  0.4085  0.0287
 2835SOL    HW118839   7.026   9.259   2.987  1.0773  1.6255 -0.8933
 2835SOL    HW218840   6.871   9.293   3.024  0.9023 -2.6929  2.6216
 2836SOL     OW18841   7.617   0.453   1.090  0.0857 -0.0773  0.0450
 2836SOL    HW118842   7.657   0.508   1.164  1.3911  0.3113 -0.9224
 2836SOL    HW218843   7.626   0.356   1.112  1.8949 -0.0050 -0.2981
 2837SOL     OW18844   9.788   9.255   1.200 -0.2364  0.0610  0.1581
 2837SOL    HW118845   9.710   9.238   1.140 -0.3168 -3.0690  1.0742
 2837SOL    HW218846   9.781   9.198   1.281  2.2420  0.8551  0.9841
 2838SOL     OW18847   1.092   6.488   0.156 -0.1751 -0.1761 -0.0102
 2838SOL    HW118848   1.150   6.559   0.196  0.2709  0.6547 -2.0421
 2838SOL    HW218849   1.147   6.431   0.095 -1.0847 -0.6104 -0.4314
 2839SOL     OW18850   2.767   2.673   1.526 -0.6469 -0.4129 -0.0046
 2839SOL    HW118851   2.679   2.641   1.561  1.4693 -3.5240  2.7263
 2839SOL    HW218852   2.840   2.615   1.561  2.7464  3.3868 -0.4470
 2840SOL     OW18853   3.176   7.668   2.905 -0.2876 -0.2325 -0.2955
 2840SOL    HW118854   3.181   7.595   2.974  1.0678 -1.4264 -1.5958
 2840SOL    HW218855   3.249   7.734   2.922 -1.4951  0.8003  0.8634
 2841SOL     OW18856   4.482   3.387   2.025 -0.0521  0.2175 -0.7231
 2841SOL    HW118857   4.544   3.454   2.065 -0.0645  0.9158 -1.8390
 2841SOL    HW218858   4.388   3.409   2.052 -0.1329  1.1018 -1.6690
 2842SOL     OW18859   7.800   0.236   1.834 -0.3683 -0.6155  0.3151
 2842SOL    HW118860   7.824   0.171   1.905 -0.1043  1.2341  1.9576
 2842SOL    HW218861   7.702   0.257   1.839 -0.2074  0.0874  0.6368
 2843SOL     OW18862   8.655   0.047   2.015 -0.1576 -0.0116 -0.2056
 2843SOL    HW118863   8.745   0.078   1.982  1.2322 -1.5549  1.9966
 2843SOL    HW218864   8.638   0.085   2.106 -0.0816 -2.6179  0.9486
 2844SOL     OW18865   8.175   0.056   1.871 -0.0232 -0.0641 -0.6778
 2844SOL    HW118866   8.241   0.037   1.944 -0.1583 -2.1114 -1.0538
 2844SOL    HW218867   8.149   0.152   1.873  2.5292  0.6493 -0.1485
 2845SOL     OW18868   8.678   6.972   2.306 -0.1647 -0.1774 -0.0272
 2845SOL    HW118869   8.611   7.036   2.268 -0.6825 -1.5846 -1.5538
 2845SOL    HW218870   8.677   6.978   2.405 -3.0136 -0.5547  0.0271
 2846SOL     OW18871   8.928   3.297   1.876 -0.0318 -0.7624 -0.6168
 2846SOL    HW118872   8.852   3.238   1.850 -0.5956 -0.4162  0.2264
 2846SOL    HW218873   8.950   3.358   1.800 -1.0579 -0.3913 -0.6209
 2847SOL     OW18874   9.683   2.520   2.342  0.4818 -0.6514  0.0336
 2847SOL    HW118875   9.610   2.565   2.393 -1.5346 -1.8125 -1.7403
 2847SOL    HW218876   9.711   2.578   2.266 -1.7695 -2.0841 -1.9557
 2848SOL     OW18877   2.644   4.858   1.703  0.4205 -0.7132 -0.4984
 2848SOL    HW118878   2.686   4.866   1.793 -0.4804  0.2545 -0.1501
 2848SOL    HW218879   2.623   4.762   1.684  0.4109 -0.9015  0.4194
 2849SOL     OW18880   5.197   9.115   3.144  0.6180 -0.0202 -0.0153
 2849SOL    HW118881   5.213   9.119   3.045 -0.4704  0.2148 -0.1876
 2849SOL    HW218882   5.165   9.204   3.176  0.7082 -0.1740  0.5009
 2850SOL     OW18883   1.950   0.115   0.699 -0.1896 -0.1262  0.1723
 2850SOL    HW118884   2.038   0.130   0.742  0.6732 -1.4696 -1.0704
 2850SOL    HW218885   1.877   0.133   0.765  1.0285  0.1035  1.4821
 2851SOL     OW18886   1.338   1.739   2.241  0.3634 -0.5581 -0.1928
 2851SOL    HW118887   1.248   1.722   2.200  0.2641  1.2177 -0.7752
 2851SOL    HW218888   1.355   1.673   2.314 -1.5293 -0.7590  0.0911
 2852SOL     OW18889   2.756   0.876   1.547 -0.8753  0.2523 -0.4304
 2852SOL    HW118890   2.741   0.794   1.603  0.5742 -0.1172 -0.5782
 2852SOL    HW218891   2.734   0.855   1.452  0.5232 -0.2938 -0.6475
 2853SOL     OW18892   2.242   9.375   0.173  0.2964  0.1160  0.0782
 2853SOL    HW118893   2.303   9.441   0.130 -0.1694  1.1605  0.9922
 2853SOL    HW218894   2.149   9.411   0.173  0.0289 -0.5657  0.5285
 2854SOL     OW18895   0.656   5.550   3.023 -0.1532 -0.2480  0.0357
 2854SOL    HW118896   0.718   5.627   3.037  0.6882 -1.0025  0.4919
 2854SOL    HW218897   0.677   5.505   2.937 -1.6510  0.9504 -0.9884
 2855SOL     OW18898   9.029   9.972   0.905 -0.3933  0.0197 -0.2436
 2855SOL    HW118899   9.072  10.042   0.848  0.2817 -1.6169 -1.8144
 2855SOL    HW218900   9.097   9.933   0.967 -0.9049  1.1530  1.0345
 2856SOL     OW18901   0.779   4.119   2.177 -0.0417 -0.2471  0.0340
 2856SOL    HW118902   0.755   4.194   2.116  1.8771 -0.1747 -0.6405
 2856SOL    HW218903   0.697   4.090   2.227 -0.6062  2.9379  1.0447
 2857SOL     OW18904   2.664   7.127   2.588 -0.4827 -0.1417 -0.2346
 2857SOL    HW118905   2.660   7.130   2.688  0.0047 -2.2886 -0.1369
 2857SOL    HW218906   2.638   7.036   2.556 -1.2623  0.7100 -2.1158
 2858SOL     OW18907   2.284   7.546   2.006  0.2009 -0.2666 -0.2114
 2858SOL    HW118908   2.219   7.471   2.015  0.2203 -0.1988  0.5477
 2858SOL    HW218909   2.246   7.629   2.048  0.3085  0.0679 -0.7643
 2859SOL     OW18910   3.649   0.268   2.352 -0.1293  0.2740  0.6202
 2859SOL    HW118911   3.619   0.210   2.428  1.8004  0.8580  1.8575
 2859SOL    HW218912   3.722   0.222   2.301 -0.0273  0.7355  0.3432
 2860SOL     OW18913   2.522   8.076   0.275  0.0526  0.3292 -0.4384
 2860SOL    HW118914   2.580   8.124   0.209  2.1962  0.7557  1.6682
 2860SOL    HW218915   2.576   8.056   0.357 -2.8177  0.8011  1.6357
 2861SOL     OW18916   3.578   3.204   0.353  0.3286 -0.6392 -0.5273
 2861SOL    HW118917   3.616   3.285   0.309  0.2205 -0.8160 -0.9565
 2861SOL    HW218918   3.577   3.128   0.287  0.9462 -1.1413  0.0415
 2862SOL     OW18919   1.901   1.506   2.572  0.3439 -0.0421  0.2024
 2862SOL    HW118920   1.823   1.462   2.617 -0.3564  1.9909  1.0456
 2862SOL    HW218921   1.884   1.511   2.474 -0.0844 -0.6098  0.2463
 2863SOL     OW18922   9.108   0.415   2.103  0.1090  0.5439 -0.0937
 2863SOL    HW118923   9.183   0.478   2.085  0.9445 -0.8009 -1.5333
 2863SOL    HW218924   9.053   0.403   2.020 -0.0965 -0.5331  0.1825
 2864SOL     OW18925   8.667   5.610   2.025 -0.0454  0.3634  0.3354
 2864SOL    HW118926   8.722   5.631   1.944 -0.4396 -1.8967 -0.5822
 2864SOL    HW218927   8.703   5.659   2.104  2.0950  0.4294 -0.6400
 2865SOL     OW18928   8.963   2.041   2.642 -0.4518  0.2221  0.2695
 2865SOL    HW118929   8.893   2.037   2.713 -0.5358 -1.5985  0.0890
 2865SOL    HW218930   8.923   2.077   2.558 -0.9181  0.1710  0.4674
 2866SOL     OW18931   5.211   8.129   2.718 -0.1696  0.2028  0.2340
 2866SOL    HW118932   5.142   8.071   2.675 -0.1636  0.8778 -0.6959
 2866SOL    HW218933   5.165   8.201   2.771 -0.1748  0.4346 -0.0875
 2867SOL     OW18934   2.894   7.752   2.663 -0.0393  0.0378  0.1619
 2867SOL    HW118935   2.880   7.660   2.626  1.0241  0.1160 -0.4380
 2867SOL    HW218936   2.870   7.752   2.760  0.4882 -1.0099  0.2988
 2868SOL     OW18937   2.004   0.108   2.483 -0.1834 -0.3099  0.1884
 2868SOL    HW118938   1.983   0.030   2.424 -0.2678 -0.2890  0.1912
 2868SOL    HW218939   2.047   0.075   2.567 -0.3970 -0.3727  0.2757
 2869SOL     OW18940   8.782   8.997   3.087  0.2845 -0.3847 -0.7985
 2869SOL    HW118941   8.833   9.016   3.004 -2.0049 -1.4947 -2.5263
 2869SOL    HW218942   8.756   8.901   3.090 -2.7481  0.3653 -0.6578
 2870SOL     OW18943   8.826   8.414   0.478 -0.4446 -0.0824 -0.2351
 2870SOL    HW118944   8.899   8.425   0.410 -0.9694  0.3650 -0.7294
 2870SOL    HW218945   8.737   8.419   0.433 -0.7963  0.1234  0.4776
 2871SOL     OW18946   2.027   2.659   2.072 -0.2193 -0.3628 -0.0643
 2871SOL    HW118947   1.988   2.660   2.164  0.7623 -0.4857  0.3573
 2871SOL    HW218948   2.124   2.633   2.076  0.4982  2.0090 -0.8557
 2872SOL     OW18949   3.640   0.703   0.761 -0.6390  0.2538  0.0599
 2872SOL    HW118950   3.562   0.750   0.802 -0.0321  1.0885  0.2491
 2872SOL    HW218951   3.710   0.769   0.735  0.3035 -0.5509  0.5026
 2873SOL     OW18952   9.669   8.275   0.500  0.6432  0.1139  0.2404
 2873SOL    HW118953   9.742   8.244   0.561  1.3370  0.0144 -0.6307
 2873SOL    HW218954   9.670   8.375   0.494  0.0041  0.1763  1.0858
 2874SOL     OW18955   4.633   8.220   1.997 -0.0851  0.1449  0.1236
 2874SOL    HW118956   4.548   8.178   2.027  0.6210 -2.3234 -1.2072
 2874SOL    HW218957   4.612   8.299   1.939 -1.4552  0.1360  0.5865
 2875SOL     OW18958   0.732   0.892   1.008  0.3289 -0.3876 -0.2659
 2875SOL    HW118959   0.756   0.978   1.052 -0.0992 -0.2333 -0.3259
 2875SOL    HW218960   0.638   0.867   1.033  0.1128 -0.3469 -1.0046
 2876SOL     OW18961   0.315   4.995   2.568 -0.0518 -0.0222  0.4012
 2876SOL    HW118962   0.279   5.013   2.477 -0.3099  2.4326  0.9631
 2876SOL    HW218963   0.284   4.905   2.599 -1.9592  0.1432 -0.9498
 2877SOL     OW18964   1.609   8.435   3.337 -0.2273 -0.3069 -0.1979
 2877SOL    HW118965   1.593   8.475   3.246  0.6724 -0.9173 -0.6318
 2877SOL    HW218966   1.603   8.507   3.406 -3.4852 -0.2689 -0.4454
 2878SOL     OW18967   0.120   3.975   1.402 -0.1155  0.2935 -0.4963
 2878SOL    HW118968   0.190   3.904   1.397 -0.2645 -0.0056  1.1812
 2878SOL    HW218969   0.059   3.969   1.323 -1.5015 -2.9250  0.7490
 2879SOL     OW18970   2.316   9.763   0.081  0.2766 -0.5245  0.3424
 2879SOL    HW118971   2.275   9.754  -0.010 -1.6821 -0.0760  1.1530
 2879SOL    HW218972   2.373   9.683   0.100  1.5360 -0.1403 -1.6713
 2880SOL     OW18973   8.784   1.161   3.247 -0.0148  0.1676  0.3947
 2880SOL    HW118974   8.755   1.239   3.192  0.0295  0.3801  0.6718
 2880SOL    HW218975   8.732   1.080   3.219 -0.5041  0.4317  0.5273
 2881SOL     OW18976   0.670   0.280   0.102  0.4839 -0.1836  0.5211
 2881SOL    HW118977   0.578   0.244   0.089  1.4851 -2.8891  0.6471
 2881SOL    HW218978   0.670   0.342   0.181 -1.4217  0.6822 -0.1242
 2882SOL     OW18979   0.963   9.462   2.898  0.3572 -0.0779 -0.2505
 2882SOL    HW118980   0.892   9.512   2.849 -0.4418 -0.7598  0.1921
 2882SOL    HW218981   1.035   9.435   2.834  0.3009  0.7528 -0.6739
 2883SOL     OW18982   1.770   0.018   0.457  0.7403  0.4368 -0.1096
 2883SOL    HW118983   1.803   0.078   0.385  1.4477 -0.2513 -0.3713
 2883SOL    HW218984   1.758  -0.075   0.421  1.1722  0.0714  0.6664
 2884SOL     OW18985   9.082   9.983   2.502 -0.3697  0.3391  0.0884
 2884SOL    HW118986   9.024  10.064   2.490 -0.0343  0.7736  1.3684
 2884SOL    HW218987   9.153   9.983   2.432 -1.2729  0.3568 -0.8496
 2885SOL     OW18988   6.998   9.770   0.721 -0.1253 -0.0832 -0.7279
 2885SOL    HW118989   7.031   9.859   0.752  0.7790 -0.3915 -0.7997
 2885SOL    HW218990   6.929   9.736   0.785  1.3293 -0.4653  0.6570
 2886SOL     OW18991   9.461   1.146   2.305  0.0245  0.0187  0.0627
 2886SOL    HW118992   9.556   1.147   2.272 -0.0489  0.5942 -0.1337
 2886SOL    HW218993   9.429   1.051   2.308  0.0625 -0.0639 -1.4523
 2887SOL     OW18994   9.204   1.878   2.869  0.1082 -0.5797  0.1471
 2887SOL    HW118995   9.136   1.805   2.879  0.3447 -0.7452  0.5800
 2887SOL    HW218996   9.247   1.872   2.779 -1.0245  0.0210 -0.4434
 2888SOL     OW18997   9.857   5.345   2.432 -0.2920 -0.2065 -0.0374
 2888SOL    HW118998   9.770   5.361   2.386 -0.3928  0.6502  0.4441
 2888SOL    HW218999   9.851   5.375   2.527  0.0712 -1.5028  0.4033
 2889SOL     OW19000   1.487   2.311   2.667 -0.1423  0.3352  0.1703
 2889SOL    HW119001   1.498   2.401   2.626 -0.8677 -0.3522 -1.6069
 2889SOL    HW219002   1.547   2.302   2.747  0.5067  2.0898 -0.1097
 2890SOL     OW19003   3.067   9.505   2.688 -0.1325 -0.0616 -0.0725
 2890SOL    HW119004   2.995   9.439   2.708 -0.6468  0.9017  1.3554
 2890SOL    HW219005   3.080   9.565   2.767  0.7860  1.1193 -1.0943
 2891SOL     OW19006   9.787   8.888   0.567  0.3673  0.5036 -0.0827
 2891SOL    HW119007   9.751   8.963   0.513 -0.7502 -0.5114 -0.7738
 2891SOL    HW219008   9.826   8.818   0.507  0.0096 -0.1757  0.4636
 2892SOL     OW19009   8.835   9.519   2.443 -0.1286  0.3731 -0.5216
 2892SOL    HW119010   8.815   9.536   2.540 -0.3726  0.9399 -0.6689
 2892SOL    HW219011   8.888   9.595   2.406  0.4172 -0.0922 -0.7033
 2893SOL     OW19012   7.948   1.013   2.815 -0.1716 -0.3331  0.5365
 2893SOL    HW119013   7.958   0.960   2.731 -1.7481 -1.2503  0.9153
 2893SOL    HW219014   7.873   0.976   2.869  0.9826  0.0796  2.4786
 2894SOL     OW19015   8.302   5.875   2.259  0.1009  0.2306  0.1475
 2894SOL    HW119016   8.282   5.880   2.356 -0.7324  1.1341 -0.0645
 2894SOL    HW219017   8.227   5.916   2.207  0.2209 -0.8433 -0.9115
 2895SOL     OW19018   1.258   6.178   0.667 -0.0078 -0.2565  0.9721
 2895SOL    HW119019   1.277   6.277   0.666  1.5675 -0.5545  0.8726
 2895SOL    HW219020   1.254   6.146   0.761 -0.7641 -0.0591  1.0113
 2896SOL     OW19021   0.145   9.124   1.072 -0.0030  0.5911 -0.1263
 2896SOL    HW119022   0.110   9.174   1.151 -1.2279  1.4626 -1.1943
 2896SOL    HW219023   0.144   9.026   1.092 -0.7772  0.7696  0.7599
 2897SOL     OW19024   2.444   1.934   0.689  0.1007  0.5042  0.2095
 2897SOL    HW119025   2.414   1.874   0.763  0.3975  0.9044  0.6503
 2897SOL    HW219026   2.537   1.909   0.661 -0.1148  0.1705 -0.2207
 2898SOL     OW19027   1.195   2.339   1.910 -0.5090 -0.1772  0.1877
 2898SOL    HW119028   1.128   2.266   1.920 -0.3429 -0.3753 -0.1237
 2898SOL    HW219029   1.274   2.305   1.859 -0.5842  0.3139 -0.2682
 2899SOL     OW19030   2.701   2.148   2.632 -0.2778 -0.2784 -0.2079
 2899SOL    HW119031   2.675   2.239   2.664  2.2121  0.7393 -0.9625
 2899SOL    HW219032   2.786   2.120   2.677 -1.0967 -2.3008  0.1307
 2900SOL     OW19033   9.124   4.613   0.371 -0.5529 -0.0526 -0.4592
 2900SOL    HW119034   9.155   4.537   0.427  2.4741  0.5118 -1.2711
 2900SOL    HW219035   9.114   4.695   0.428 -2.3666 -0.6720  0.1384
 2901SOL     OW19036   2.534   8.315   0.508 -0.0634  0.2225  0.1225
 2901SOL    HW119037   2.556   8.225   0.471  1.3658  0.3685  0.5847
 2901SOL    HW219038   2.439   8.316   0.540 -0.3528 -0.8454 -0.6830
 2902SOL     OW19039   9.150   6.908   2.695  0.3771 -0.0069  0.3941
 2902SOL    HW119040   9.132   6.937   2.789 -0.0089  0.0241  0.3124
 2902SOL    HW219041   9.078   6.845   2.666  0.7543 -0.3878  0.2833
 2903SOL     OW19042   8.349   5.300   2.325 -0.2584  0.9443 -0.2322
 2903SOL    HW119043   8.424   5.266   2.383 -0.0804  1.4968 -0.1309
 2903SOL    HW219044   8.369   5.394   2.298 -0.2105  0.5884 -1.4342
 2904SOL     OW19045   3.024   1.499   0.409 -0.2676  0.4077 -0.1468
 2904SOL    HW119046   3.028   1.442   0.490 -1.2400  2.9067  1.7290
 2904SOL    HW219047   2.941   1.478   0.357  0.3470 -1.1809 -0.5067
 2905SOL     OW19048   2.534   2.309   1.982  0.5199  0.1121 -0.3855
 2905SOL    HW119049   2.554   2.398   2.024  1.7068  0.0438 -0.7808
 2905SOL    HW219050   2.595   2.240   2.020  0.2592 -0.3370 -0.7815
 2906SOL     OW19051   8.101   8.924   0.202  0.2412 -0.2715 -0.3997
 2906SOL    HW119052   8.016   8.873   0.220 -0.2850  1.2830  1.8131
 2906SOL    HW219053   8.170   8.862   0.164 -0.8497 -2.2874  0.8167
 2907SOL     OW19054   2.943   2.658   0.794 -0.7338 -0.3850 -0.0429
 2907SOL    HW119055   2.846   2.635   0.787 -1.2051  1.8076 -1.1663
 2907SOL    HW219056   2.963   2.693   0.885 -1.1820  0.0316 -0.1076
 2908SOL     OW19057   0.810   4.789   2.427 -0.1434 -0.1087 -0.3070
 2908SOL    HW119058   0.712   4.808   2.431 -0.3648 -1.1167 -0.7784
 2908SOL    HW219059   0.830   4.705   2.477  0.2227 -0.8540 -1.6698
 2909SOL     OW19060   1.170   3.494   1.252 -0.5721 -0.7778  0.5499
 2909SOL    HW119061   1.075   3.512   1.229 -0.4172  0.0308  0.5187
 2909SOL    HW219062   1.180   3.400   1.284 -1.3363 -0.9345  0.3243
 2910SOL     OW19063   0.110   1.961   2.558 -0.3850 -0.0881  0.0390
 2910SOL    HW119064   0.071   2.050   2.581  1.7583  0.6507  0.9608
 2910SOL    HW219065   0.198   1.950   2.604  0.6509 -1.5720 -2.1909
 2911SOL     OW19066   7.978   8.840   1.780  0.1542 -0.2921 -0.4710
 2911SOL    HW119067   7.986   8.832   1.880 -0.0861 -1.1922 -0.5127
 2911SOL    HW219068   7.910   8.773   1.748  3.1816 -2.8850 -1.6952
 2912SOL     OW19069   3.240   2.903   2.512 -0.3469  0.5216  0.1571
 2912SOL    HW119070   3.189   2.891   2.597  0.9404  2.2726  1.1931
 2912SOL    HW219071   3.178   2.934   2.440 -0.9863  1.3805  1.0733
 2913SOL     OW19072   2.796   6.901   1.596 -0.2786  0.0381  0.1358
 2913SOL    HW119073   2.893   6.891   1.619 -0.2237  1.8027  0.7549
 2913SOL    HW219074   2.762   6.988   1.633 -2.0271 -0.4469 -0.3102
 2914SOL     OW19075   8.159   9.294   1.850  0.8637 -0.0437  0.3605
 2914SOL    HW119076   8.155   9.291   1.750 -1.1793  0.6329  0.4014
 2914SOL    HW219077   8.197   9.382   1.879  0.2308  0.2991  0.1792
 2915SOL     OW19078   2.720   2.101   1.970 -0.1154 -0.3385  0.2146
 2915SOL    HW119079   2.781   2.051   2.032 -0.1290 -2.7791 -1.6549
 2915SOL    HW219080   2.636   2.048   1.956 -0.1881  0.2460 -1.7177
 2916SOL     OW19081   7.679   0.212   0.323  0.4697  0.1752 -0.4608
 2916SOL    HW119082   7.617   0.133   0.327 -0.3624  0.7384 -1.6921
 2916SOL    HW219083   7.626   0.295   0.304  1.4877  0.8317 -0.4679
 2917SOL     OW19084   1.697   5.295   1.239  0.4971 -0.6418  0.4964
 2917SOL    HW119085   1.626   5.272   1.306  0.3475 -0.7093  0.3147
 2917SOL    HW219086   1.664   5.369   1.180  0.1680 -1.4056 -0.2762
 2918SOL     OW19087   4.096   1.520   0.033  0.6634  0.1562 -0.2719
 2918SOL    HW119088   4.114   1.525  -0.066 -0.6165 -2.3368 -0.6715
 2918SOL    HW219089   4.179   1.489   0.080  0.8257 -0.1669 -0.7577
 2919SOL     OW19090   2.264   0.244   1.743 -0.1378 -0.3604 -0.1240
 2919SOL    HW119091   2.255   0.148   1.717  0.7945 -0.3341 -0.5728
 2919SOL    HW219092   2.360   0.269   1.745 -0.2243 -0.1657  2.7543
 2920SOL     OW19093   8.978   2.950   3.073 -0.0024 -0.6199 -0.0252
 2920SOL    HW119094   9.047   3.022   3.065  0.3339 -0.8387  0.8849
 2920SOL    HW219095   8.910   2.961   3.000  0.0598  0.5964  0.0940
 2921SOL     OW19096   3.514   5.093   1.547 -0.1998  0.3174  0.2889
 2921SOL    HW119097   3.526   5.100   1.646  0.1415  0.2283  0.2545
 2921SOL    HW219098   3.579   5.153   1.501 -1.6518  1.8261  0.1622
 2922SOL     OW19099   3.069   9.417   2.325  0.3109  0.4295  0.2867
 2922SOL    HW119100   3.147   9.440   2.266 -0.9564 -0.5787 -1.8613
 2922SOL    HW219101   2.995   9.481   2.307 -1.4823 -2.2150 -2.1411
 2923SOL     OW19102   7.492   8.553   2.405 -0.0928 -0.1161  0.0057
 2923SOL    HW119103   7.575   8.605   2.385 -0.0149  1.0269  3.0721
 2923SOL    HW219104   7.432   8.555   2.325  0.8050  3.0211 -0.6532
 2924SOL     OW19105   9.260   1.593   1.101  0.6292  0.8580 -0.3226
 2924SOL    HW119106   9.326   1.520   1.118  0.1502  0.6792  0.8061
 2924SOL    HW219107   9.168   1.561   1.125  0.4249  1.8536  0.2153
 2925SOL     OW19108   8.093   9.470   3.028  0.2131 -0.2190  0.5653
 2925SOL    HW119109   8.164   9.516   3.081 -0.2344 -1.4142  2.2701
 2925SOL    HW219110   8.132   9.434   2.943  0.9504  1.7169  0.0655
 2926SOL     OW19111   9.183   6.435   0.765  0.1434 -0.2256 -0.5125
 2926SOL    HW119112   9.279   6.447   0.739  0.3254 -0.4816  0.0090
 2926SOL    HW219113   9.146   6.521   0.800  0.8594 -0.6490  1.3927
 2927SOL     OW19114   7.695   0.407   3.375  0.0795 -0.0946  0.2389
 2927SOL    HW119115   7.639   0.474   3.424  0.9148  0.6242  0.2195
 2927SOL    HW219116   7.641   0.366   3.301  0.1032  1.8070 -0.8537
 2928SOL     OW19117   8.375   8.813   1.725  0.2943  0.3405 -0.0507
 2928SOL    HW119118   8.309   8.777   1.792  0.3879 -0.7202 -0.5157
 2928SOL    HW219119   8.345   8.790   1.633  0.9290  0.4947 -0.2980
 2929SOL     OW19120   2.085   4.650   1.502  0.1372  0.6503  0.1098
 2929SOL    HW119121   2.132   4.737   1.511  0.7601  0.4273 -0.9033
 2929SOL    HW219122   2.128   4.582   1.562 -0.4990  1.0902  1.0779
 2930SOL     OW19123   8.681   0.148   2.268  0.1003 -0.3764 -0.0821
 2930SOL    HW119124   8.616   0.126   2.342 -0.2078 -0.7038 -0.4485
 2930SOL    HW219125   8.774   0.143   2.303 -0.0336 -0.8336  0.2084
 2931SOL     OW19126   2.355   0.449   2.003  0.0713 -0.2281 -0.3371
 2931SOL    HW119127   2.433   0.414   2.054  0.1194  0.2641 -0.0754
 2931SOL    HW219128   2.385   0.483   1.914  0.0831 -0.4804 -0.4302
 2932SOL     OW19129   8.732   3.997   0.410  0.2421  0.5609 -0.3385
 2932SOL    HW119130   8.785   3.916   0.386 -0.2200  0.1833 -0.0944
 2932SOL    HW219131   8.634   3.976   0.403  0.1222  1.4842 -1.5506
 2933SOL     OW19132   4.758   9.021   2.670 -0.2950 -0.6404 -0.0668
 2933SOL    HW119133   4.680   8.973   2.708 -0.3310 -0.4129  0.1446
 2933SOL    HW219134   4.834   8.957   2.656 -0.5925 -0.9017 -0.4805
 2934SOL     OW19135   6.204   8.373   2.104  0.0769 -0.2784 -0.6234
 2934SOL    HW119136   6.132   8.414   2.160  2.4631  0.0223  2.3568
 2934SOL    HW219137   6.278   8.439   2.091  0.5786 -1.1327 -2.2646
 2935SOL     OW19138   2.804   3.051   0.083 -0.1225  0.3182 -0.7746
 2935SOL    HW119139   2.832   3.056   0.179 -1.9355 -0.9207 -0.1398
 2935SOL    HW219140   2.723   3.108   0.070 -0.9213 -0.8961 -1.1566
 2936SOL     OW19141   1.740   1.627   0.672  0.0374 -0.1324  0.1396
 2936SOL    HW119142   1.654   1.674   0.656  0.7215  0.1763 -2.9659
 2936SOL    HW219143   1.807   1.692   0.708 -0.0391  0.4599 -0.7677
 2937SOL     OW19144   8.816   0.370   1.816 -0.2551  0.4915  0.2539
 2937SOL    HW119145   8.903   0.325   1.796 -0.0358  1.3159 -0.6900
 2937SOL    HW219146   8.792   0.354   1.912  2.5218  2.8418  1.4409
 2938SOL     OW19147   9.484   0.929   3.084  0.1244 -0.3560  0.1407
 2938SOL    HW119148   9.403   0.961   3.133  0.8327  0.3160  0.8827
 2938SOL    HW219149   9.504   0.991   3.008 -0.2553 -0.7116 -0.2502
 2939SOL     OW19150   8.569   2.964   2.982  0.4461 -0.3401 -0.2069
 2939SOL    HW119151   8.507   2.982   2.905  1.0183 -0.0692 -0.6054
 2939SOL    HW219152   8.658   2.935   2.947  0.0237 -2.4562  0.4010
 2940SOL     OW19153   0.738   0.139   1.207 -0.2432 -0.1076 -0.3867
 2940SOL    HW119154   0.793   0.220   1.225 -0.0438 -0.5447  1.0189
 2940SOL    HW219155   0.760   0.068   1.274 -0.8000 -1.1328 -1.2780
 2941SOL     OW19156   0.018   4.880   0.440 -0.2837 -0.5806 -0.3536
 2941SOL    HW119157  -0.033   4.952   0.394  0.6511  0.7838  0.6910
 2941SOL    HW219158   0.093   4.849   0.381  2.1658  2.5813  0.9478
 2942SOL     OW19159   0.335   8.319   0.084  0.6096  0.0823  0.0292
 2942SOL    HW119160   0.399   8.289   0.013  0.8705  0.1333  0.2453
 2942SOL    HW219161   0.269   8.383   0.044 -0.1440 -1.0149 -0.5090
 2943SOL     OW19162   0.180   9.635   1.601 -0.3392 -0.2581 -0.8337
 2943SOL    HW119163   0.258   9.693   1.627  0.0041 -0.8960 -0.4394
 2943SOL    HW219164   0.134   9.676   1.522 -1.1611  1.5125  0.5071
 2944SOL     OW19165   1.474   8.498   2.796  0.2972 -0.3152  0.4879
 2944SOL    HW119166   1.482   8.598   2.788 -0.4762 -0.2747  0.2048
 2944SOL    HW219167   1.431   8.475   2.883 -1.0785 -0.3289 -0.1882
 2945SOL     OW19168   2.201   6.124   2.996  0.8499  0.0349 -0.1833
 2945SOL    HW119169   2.185   6.061   3.071 -0.0758  0.4546 -0.0254
 2945SOL    HW219170   2.206   6.074   2.910  2.2369 -0.4848  0.1804
 2946SOL     OW19171   8.313   4.502   0.883 -0.2328 -0.0154 -0.0602
 2946SOL    HW119172   8.333   4.424   0.824  2.2116  0.3497  0.2605
 2946SOL    HW219173   8.349   4.585   0.842  0.8425  0.3460  1.5627
 2947SOL     OW19174   3.276   9.635   1.917 -0.4694 -0.5488 -0.3240
 2947SOL    HW119175   3.321   9.722   1.898  2.0023 -1.3688  1.4365
 2947SOL    HW219176   3.186   9.652   1.957  0.3833  1.2235  0.9275
 2948SOL     OW19177   2.466   9.530   0.134  0.2318 -0.8650 -0.6792
 2948SOL    HW119178   2.464   9.474   0.217  2.0466 -2.3280 -1.5765
 2948SOL    HW219179   2.559   9.528   0.095 -1.0880 -1.9653 -3.9296
 2949SOL     OW19180   9.825   4.848   0.640  0.3170  0.6520  0.4577
 2949SOL    HW119181   9.732   4.836   0.603 -0.1674  2.3104  1.0889
 2949SOL    HW219182   9.889   4.858   0.565 -0.2397  1.0828  0.0368
 2950SOL     OW19183   2.020   7.270   0.180 -0.3329  0.0334 -0.1603
 2950SOL    HW119184   2.098   7.208   0.168 -0.7738 -0.5363 -0.0959
 2950SOL    HW219185   2.003   7.284   0.278 -0.2365  0.2563 -0.1746
 2951SOL     OW19186   2.343   6.015   0.739 -0.2070 -0.4705  0.4398
 2951SOL    HW119187   2.331   6.109   0.707 -1.4514 -1.4887 -2.2216
 2951SOL    HW219188   2.439   5.989   0.729 -0.1868 -0.0642 -0.4252
 2952SOL     OW19189   4.490   9.506   2.938  0.5254  0.0937 -1.0318
 2952SOL    HW119190   4.552   9.438   2.899  0.3167 -0.1505 -0.9415
 2952SOL    HW219191   4.404   9.507   2.887 -0.5714 -1.7335  0.7056
 2953SOL     OW19192   4.572   0.672   3.151  0.1278  0.2151 -0.2363
 2953SOL    HW119193   4.481   0.641   3.121  0.8775 -2.1375 -0.1714
 2953SOL    HW219194   4.639   0.652   3.080  0.8890  0.3519  0.4415
 2954SOL     OW19195   0.001   0.187   0.120  0.0313 -0.6281 -0.3470
 2954SOL    HW119196  -0.002   0.110   0.185  0.1249 -1.3138 -1.1441
 2954SOL    HW219197   0.021   0.271   0.169 -1.2695 -0.9285  0.7128
 2955SOL     OW19198   0.657   3.407   2.109 -0.2806 -0.5413 -0.2185
 2955SOL    HW119199   0.754   3.420   2.129 -0.5393 -0.5216  1.0580
 2955SOL    HW219200   0.608   3.384   2.193 -1.5332  0.3271 -0.6874
 2956SOL     OW19201   0.969   2.260   1.247 -0.0540  0.0318 -0.4031
 2956SOL    HW119202   0.950   2.270   1.345 -1.5299  0.5662 -0.7325
 2956SOL    HW219203   1.038   2.188   1.234  0.3502  0.1363  1.0378
 2957SOL     OW19204   1.491   6.955   3.391 -0.5682  0.1725 -0.0460
 2957SOL    HW119205   1.471   6.944   3.488  0.5553 -2.7995 -0.1201
 2957SOL    HW219206   1.587   6.984   3.380 -0.8495  1.0406 -0.2686
 2958SOL     OW19207   2.537   6.706   3.228  0.0434 -0.0931  0.0743
 2958SOL    HW119208   2.438   6.717   3.227  0.2001  1.4379 -1.0162
 2958SOL    HW219209   2.560   6.609   3.222 -1.3934 -0.5616  1.9737
 2959SOL     OW19210   3.209   3.868   2.886 -0.4414 -0.2412 -0.6684
 2959SOL    HW119211   3.124   3.842   2.841 -0.6595 -0.4226 -0.1628
 2959SOL    HW219212   3.244   3.952   2.846 -3.2141  2.3669  2.0788
 2960SOL     OW19213   8.501   2.438   3.398 -0.2307 -0.1696  0.5651
 2960SOL    HW119214   8.473   2.471   3.488 -1.3341  0.1848  0.1037
 2960SOL    HW219215   8.470   2.503   3.328  0.4856 -0.5216 -0.0853
 2961SOL     OW19216   1.110   7.407   2.281 -0.2420  0.2226  0.2425
 2961SOL    HW119217   1.014   7.398   2.309 -0.2442 -0.5230 -0.0097
 2961SOL    HW219218   1.114   7.432   2.184 -0.1621 -0.9204 -0.0540
 2962SOL     OW19219   9.143   2.291   1.739  0.1064  0.1774  0.1183
 2962SOL    HW119220   9.180   2.384   1.747  1.1497 -0.3084  1.0627
 2962SOL    HW219221   9.074   2.277   1.809 -1.4769  0.8819 -1.2648
 2963SOL     OW19222   3.517   3.789   1.086  0.1925 -0.0703 -0.0334
 2963SOL    HW119223   3.477   3.860   1.144  0.8941  0.0292  0.3339
 2963SOL    HW219224   3.482   3.799   0.993 -1.0132 -0.2901  0.3801
 2964SOL     OW19225   0.673   8.587   2.954  0.2533 -0.1138  0.1062
 2964SOL    HW119226   0.652   8.550   3.044  1.1844 -1.9500 -0.3915
 2964SOL    HW219227   0.770   8.570   2.933  0.1198  0.5779 -1.1057
 2965SOL     OW19228   2.021   2.309   1.239 -0.3006  0.1260  0.0343
 2965SOL    HW119229   1.968   2.234   1.276 -0.1024  0.2971  0.6798
 2965SOL    HW219230   2.038   2.294   1.142 -1.1105 -0.1637 -0.0631
 2966SOL     OW19231   8.966   6.393   2.537  0.1437 -0.3140 -0.0788
 2966SOL    HW119232   8.935   6.358   2.625 -1.0038 -2.5018 -1.2900
 2966SOL    HW219233   8.889   6.437   2.490  0.0213 -1.5710 -1.0990
 2967SOL     OW19234   9.506   7.056   2.303  0.2095  0.3014 -0.4304
 2967SOL    HW119235   9.472   7.018   2.217  1.1583  1.7897 -1.4885
 2967SOL    HW219236   9.546   6.984   2.359 -2.7468 -1.1393 -0.0715
 2968SOL     OW19237   9.245   4.401   0.824  0.7264  0.1640 -0.0782
 2968SOL    HW119238   9.169   4.336   0.827  0.4978  0.4649  0.5017
 2968SOL    HW219239   9.331   4.351   0.836  0.5840 -0.0946 -0.1157
 2969SOL     OW19240   0.661   1.726   1.268 -0.4676 -0.0205  0.2166
 2969SOL    HW119241   0.613   1.811   1.290 -2.4802 -1.4949  1.7910
 2969SOL    HW219242   0.601   1.667   1.215  0.1514 -1.2610  0.8737
 2970SOL     OW19243   4.436   8.290   1.234  0.3457 -0.6146  0.2198
 2970SOL    HW119244   4.460   8.246   1.147 -1.1176  0.9244 -1.0047
 2970SOL    HW219245   4.377   8.230   1.287 -1.4634 -0.2567 -1.3367
 2971SOL     OW19246   9.434   6.535   0.694  0.3311 -0.5658  0.5518
 2971SOL    HW119247   9.447   6.442   0.660  4.2076  0.2967 -0.6243
 2971SOL    HW219248   9.471   6.541   0.787  0.2173 -0.1931  0.5736
 2972SOL     OW19249   8.229   6.853   0.276  0.4298  0.0743  0.0883
 2972SOL    HW119250   8.304   6.871   0.340  0.6095 -1.2104  0.2511
 2972SOL    HW219251   8.162   6.793   0.319  0.6254 -0.9198 -0.9690
 2973SOL     OW19252   4.038   5.441   2.494 -0.3469  0.4593 -0.6688
 2973SOL    HW119253   3.985   5.356   2.503  0.5421 -0.0164  0.1100
 2973SOL    HW219254   4.114   5.426   2.432 -0.1129  0.6501 -0.4255
 2974SOL     OW19255   8.418   4.524   1.155 -0.1109 -0.4317  0.0281
 2974SOL    HW119256   8.346   4.585   1.122  0.1145 -0.9252 -1.3667
 2974SOL    HW219257   8.379   4.433   1.174  0.1688 -0.7350 -0.8469
 2975SOL     OW19258   9.236   2.495   0.987 -0.3961 -0.3118  0.4520
 2975SOL    HW119259   9.248   2.570   1.051  0.6307 -0.5926  0.5887
 2975SOL    HW219260   9.172   2.428   1.025 -1.7882  0.7728  0.0734
 2976SOL     OW19261   0.425   0.979   0.369  0.4943  0.4690 -0.0144
 2976SOL    HW119262   0.462   0.989   0.462  0.2617  0.9050  0.0339
 2976SOL    HW219263   0.449   1.059   0.315 -0.1312  0.6267 -0.0656
 2977SOL     OW19264   0.153   0.405   2.637  0.3365  0.3247  0.0824
 2977SOL    HW119265   0.096   0.474   2.681  0.4693 -0.1958  1.0691
 2977SOL    HW219266   0.150   0.320   2.689  0.4079 -0.3372 -0.9697
 2978SOL     OW19267   1.597   7.660   1.759 -0.1025 -0.1031 -0.3175
 2978SOL    HW119268   1.692   7.692   1.753  0.1594 -0.7745  0.1149
 2978SOL    HW219269   1.582   7.589   1.690  0.0190 -0.7394  0.3026
 2979SOL     OW19270   2.610   7.857   2.453 -0.5558  0.1251  0.0929
 2979SOL    HW119271   2.683   7.924   2.456 -1.5897  1.2994 -0.4269
 2979SOL    HW219272   2.618   7.794   2.530  0.0934  1.1780  0.8879
 2980SOL     OW19273   7.403   8.651   2.663 -0.0372 -0.0411 -0.1570
 2980SOL    HW119274   7.470   8.705   2.714 -2.0944  2.2393  0.2765
 2980SOL    HW219275   7.448   8.605   2.587  2.1725  0.6931  0.6707
 2981SOL     OW19276   8.069   1.154   1.205 -0.0653  1.0017 -0.6617
 2981SOL    HW119277   8.061   1.081   1.137  0.6004  0.1229  0.1915
 2981SOL    HW219278   7.978   1.179   1.238 -0.1202 -2.2393  1.9432
 2982SOL     OW19279   2.068   0.665   2.457  0.2482 -0.8807  0.1787
 2982SOL    HW119280   2.002   0.664   2.382 -0.1348 -0.6631  0.5114
 2982SOL    HW219281   2.070   0.755   2.499  0.1769 -1.1135  0.6849
 2983SOL     OW19282   1.323   8.431   1.177 -0.1919  0.0979  0.4900
 2983SOL    HW119283   1.320   8.470   1.085  2.6344  0.8479  0.6547
 2983SOL    HW219284   1.349   8.502   1.242  3.2588 -1.5905  1.0592
 2984SOL     OW19285   2.627   8.488   2.334 -0.2156  0.2668  0.0251
 2984SOL    HW119286   2.598   8.481   2.238  1.3572 -1.0119 -0.3912
 2984SOL    HW219287   2.718   8.448   2.343 -1.3280 -1.7766  2.5039
 2985SOL     OW19288   9.050   8.443   0.285  0.4686 -0.4290  0.0177
 2985SOL    HW119289   9.112   8.364   0.290  1.6759  0.4626 -0.6755
 2985SOL    HW219290   9.012   8.449   0.193 -0.3608 -0.7489  0.3365
 2986SOL     OW19291   9.481   9.401   3.220  0.3318 -0.1536  0.5072
 2986SOL    HW119292   9.525   9.411   3.309 -2.1561 -0.3120  1.7789
 2986SOL    HW219293   9.445   9.490   3.191  0.6674 -0.2177 -0.1198
 2987SOL     OW19294   8.211   5.379   0.730  0.1314 -0.0235 -0.1840
 2987SOL    HW119295   8.287   5.332   0.686  0.7367 -0.9698  1.7975
 2987SOL    HW219296   8.223   5.375   0.829 -2.9487 -0.9091  0.1750
 2988SOL     OW19297   1.372   8.630   1.356 -0.2761 -0.2285  0.2534
 2988SOL    HW119298   1.467   8.619   1.385  0.0360  2.0283  0.1799
 2988SOL    HW219299   1.323   8.686   1.423 -0.8642  0.7995 -1.0129
 2989SOL     OW19300   8.317   9.453   0.652 -0.1486  0.4467  0.8140
 2989SOL    HW119301   8.379   9.399   0.709 -0.1379 -1.0607 -0.5776
 2989SOL    HW219302   8.225   9.416   0.658 -0.4396  1.2023  1.0132
 2990SOL     OW19303   2.312   5.075   0.219 -1.0860  0.4672 -0.5613
 2990SOL    HW119304   2.308   4.984   0.178 -2.2901 -0.2062  1.0165
 2990SOL    HW219305   2.388   5.078   0.285 -1.4892  0.3647 -0.0859
 2991SOL     OW19306   7.118   9.297   3.254 -0.4719 -0.2289 -0.1093
 2991SOL    HW119307   7.178   9.220   3.232 -0.4408 -0.3216  0.2977
 2991SOL    HW219308   7.062   9.319   3.174 -1.6991 -1.7741  0.2993
 2992SOL     OW19309   2.244   3.048   1.308 -0.5491  0.6705  0.6869
 2992SOL    HW119310   2.308   3.121   1.333 -0.8366  1.6948 -1.4083
 2992SOL    HW219311   2.184   3.081   1.235 -0.0286 -1.9859 -1.0110
 2993SOL     OW19312   3.835   7.623   0.328 -0.2084 -0.5132 -0.2967
 2993SOL    HW119313   3.790   7.539   0.298  0.0386 -0.7100 -0.1190
 2993SOL    HW219314   3.931   7.604   0.348 -0.5151 -0.5015  1.1782
 2994SOL     OW19315   2.658   8.100   2.845  0.1613  0.6328 -0.1039
 2994SOL    HW119316   2.742   8.133   2.802  1.0811 -0.7590  0.6018
 2994SOL    HW219317   2.585   8.168   2.831  1.1106  1.3728 -1.6098
 2995SOL     OW19318   9.903   0.908   3.312 -0.4616  0.3907 -0.5197
 2995SOL    HW119319   9.825   0.847   3.310 -0.8568  0.7230  2.9563
 2995SOL    HW219320   9.947   0.905   3.402  2.6102  1.3727 -1.8896
 2996SOL     OW19321   1.878   5.496   3.310  0.6214 -0.0611  0.5061
 2996SOL    HW119322   1.932   5.459   3.235  1.3648  1.2730  0.3677
 2996SOL    HW219323   1.905   5.452   3.396 -1.8580 -3.3212 -0.2476
 2997SOL     OW19324   4.875   8.072   1.738 -0.0724 -0.3447 -0.2571
 2997SOL    HW119325   4.898   7.975   1.732 -1.1760 -0.6767  0.6435
 2997SOL    HW219326   4.899   8.106   1.829 -1.7587 -0.3430  0.2045
 2998SOL     OW19327   8.915   5.393   1.805  0.6680 -0.1182 -0.3591
 2998SOL    HW119328   8.860   5.375   1.886  0.8337  0.1412 -0.1860
 2998SOL    HW219329   8.884   5.336   1.729  0.3268 -0.1510 -0.1927
 2999SOL     OW19330   0.630   3.384   2.920 -0.1081  0.6454 -0.0307
 2999SOL    HW119331   0.605   3.417   2.829  0.9474  2.3202  0.2576
 2999SOL    HW219332   0.691   3.451   2.964  0.9692 -1.0830  1.1410
 3000SOL     OW19333   7.908   8.924   1.092  0.1117  0.2765  0.6287
 3000SOL    HW119334   7.869   8.886   1.175  1.5608  0.5356  1.4467
 3000SOL    HW219335   7.918   9.023   1.101 -2.9061  0.8043 -1.1934
 3001SOL     OW19336   3.308   5.989   1.770  0.1015 -0.1960 -0.5038
 3001SOL    HW119337   3.326   5.953   1.862 -2.6259  0.5946  0.4087
 3001SOL    HW219338   3.268   5.917   1.714  0.1833 -0.2210 -0.5299
 3002SOL     OW19339   8.373   7.182   1.939  0.4152  0.5179 -0.0883
 3002SOL    HW119340   8.282   7.174   1.980 -0.2401 -0.6185 -1.7457
 3002SOL    HW219341   8.381   7.272   1.896 -0.1541  0.3871 -0.4794
 3003SOL     OW19342   1.392   5.583   2.585 -0.1754  0.2121 -0.7142
 3003SOL    HW119343   1.416   5.553   2.678 -3.6708 -1.4174 -0.2468
 3003SOL    HW219344   1.452   5.537   2.519  0.0861 -1.3119  0.5460
 3004SOL     OW19345   0.148   2.503   2.550  0.0412  0.1030  0.5358
 3004SOL    HW119346   0.156   2.598   2.520 -0.3336  0.3320  1.1383
 3004SOL    HW219347   0.084   2.454   2.491  2.1834 -0.4799 -1.3736
 3005SOL     OW19348   1.912   2.208   2.558  0.5909 -0.4291 -0.2096
 3005SOL    HW119349   2.006   2.237   2.579 -0.0077  0.8333  0.7785
 3005SOL    HW219350   1.869   2.174   2.641 -1.0746  2.5490  0.2277
 3006SOL     OW19351   3.588   7.263   1.781  0.5819 -0.3549  0.2720
 3006SOL    HW119352   3.523   7.230   1.849  1.7489 -0.1200  1.5212
 3006SOL    HW219353   3.680   7.228   1.803  0.8357 -0.9193 -1.6263
 3007SOL     OW19354   8.726   9.869   2.480 -0.2267 -0.3699 -0.1574
 3007SOL    HW119355   8.637   9.824   2.488  0.0371 -1.0932 -1.2279
 3007SOL    HW219356   8.785   9.815   2.420  0.8060  0.3120  0.2385
 3008SOL     OW19357   2.937   5.635   3.439 -0.1155  0.4865 -0.4873
 3008SOL    HW119358   3.024   5.603   3.478 -0.9179  1.8828  2.6372
 3008SOL    HW219359   2.866   5.566   3.454  0.2021 -0.1782 -2.0338
 3009SOL     OW19360   9.959   1.821   1.415  0.8895  0.1834 -0.4582
 3009SOL    HW119361   9.945   1.836   1.317 -0.2449  1.0419 -0.1646
 3009SOL    HW219362   9.888   1.868   1.467  0.9839 -0.9722  0.7489
 3010SOL     OW19363   4.397   8.105   2.089  0.1446 -0.7110 -0.3250
 3010SOL    HW119364   4.388   8.097   2.189  2.9363 -0.7856 -0.0299
 3010SOL    HW219365   4.339   8.180   2.056 -0.0347 -0.0227  1.4803
 3011SOL     OW19366   2.132   0.044   3.326 -0.0974 -0.2436  0.5609
 3011SOL    HW119367   2.106   0.097   3.246  1.7563  1.4589  1.0396
 3011SOL    HW219368   2.170  -0.044   3.297 -1.2350 -0.4444 -0.3366
 3012SOL     OW19369   2.116   1.983   2.668  0.1374 -0.8283  0.4771
 3012SOL    HW119370   2.196   2.043   2.672 -0.9101  0.5742  0.9555
 3012SOL    HW219371   2.141   1.896   2.625  1.4788  0.2585 -0.9690
 3013SOL     OW19372   1.238   6.391   3.353 -0.1298  0.6297 -0.2038
 3013SOL    HW119373   1.281   6.481   3.340 -2.0427  1.4911 -0.8135
 3013SOL    HW219374   1.304   6.319   3.330  1.1305  1.8895 -0.6580
 3014SOL     OW19375   2.506   3.430   2.077 -0.2874  0.8092 -0.0101
 3014SOL    HW119376   2.577   3.499   2.093 -0.3231  1.3885 -2.1451
 3014SOL    HW219377   2.537   3.367   2.005 -1.2656  0.0602  0.2172
 3015SOL     OW19378   7.722   9.467   2.372 -0.6821 -0.3133 -0.0258
 3015SOL    HW119379   7.691   9.562   2.369 -0.3158 -0.1691  0.5931
 3015SOL    HW219380   7.822   9.465   2.376 -0.6573 -0.7464 -0.8027
 3016SOL     OW19381   3.085   0.814   3.382  0.1041  0.6264 -0.2926
 3016SOL    HW119382   3.045   0.879   3.317  0.4145  1.1330  0.0173
 3016SOL    HW219383   3.180   0.796   3.357 -0.8593 -2.0834 -2.1710
 3017SOL     OW19384   9.750   1.793   2.275 -0.0704  0.2680  0.3315
 3017SOL    HW119385   9.816   1.868   2.268  0.2962 -0.1522 -0.9115
 3017SOL    HW219386   9.684   1.813   2.347 -0.0975  1.8944 -0.1241
 3018SOL     OW19387   9.022   4.192   0.338 -0.3283  0.4988 -0.1474
 3018SOL    HW119388   8.926   4.196   0.310  0.0110 -0.3138 -1.4824
 3018SOL    HW219389   9.078   4.243   0.273  0.0794  1.6660  1.0725
 3019SOL     OW19390   0.311   2.643   0.064  0.4257  0.1589  0.0370
 3019SOL    HW119391   0.296   2.709  -0.010 -0.1974 -0.0218  0.0012
 3019SOL    HW219392   0.335   2.554   0.024 -1.4564 -0.3382  0.0063
 3020SOL     OW19393   9.655   7.453   0.065  0.0263 -0.2121  0.1007
 3020SOL    HW119394   9.693   7.361   0.069  2.7975  0.9183  0.5789
 3020SOL    HW219395   9.613   7.469  -0.024 -1.1978 -2.2005  0.3099
 3021SOL     OW19396   8.203   2.218   1.640 -0.3009  0.3368 -0.2101
 3021SOL    HW119397   8.119   2.256   1.679  0.2133  1.0748  0.2012
 3021SOL    HW219398   8.234   2.140   1.695 -0.4077  0.4238 -0.0283
 3022SOL     OW19399   1.893   3.839   1.959 -0.0152 -0.1965 -0.5222
 3022SOL    HW119400   1.941   3.886   1.885 -0.1117 -2.7800 -2.2699
 3022SOL    HW219401   1.858   3.907   2.024 -0.4233  2.1447 -3.1140
 3023SOL     OW19402   0.232   5.566   0.453  0.0523  0.7363  0.2701
 3023SOL    HW119403   0.258   5.577   0.357  1.0674 -0.4679  0.3920
 3023SOL    HW219404   0.133   5.558   0.460  0.0313 -0.0253 -0.7735
 3024SOL     OW19405   7.662   1.879   1.737  0.0644 -0.5269  0.0298
 3024SOL    HW119406   7.611   1.793   1.736  1.6389 -1.5054  0.9037
 3024SOL    HW219407   7.633   1.934   1.815 -1.6297  0.1929 -1.0730
 3025SOL     OW19408   9.342   9.879   1.305 -1.0842  0.5704  0.1758
 3025SOL    HW119409   9.338   9.787   1.345 -0.2523  0.4597  0.0136
 3025SOL    HW219410   9.315   9.875   1.209 -1.0754  0.5049  0.1761
 3026SOL     OW19411   2.056   5.935   2.562  0.0513 -0.0179 -0.6331
 3026SOL    HW119412   1.978   5.986   2.528  0.4590  0.5579 -0.7170
 3026SOL    HW219413   2.050   5.840   2.531  0.3048  0.4397 -2.1370
 3027SOL     OW19414   9.182   1.076   1.777  0.3609  0.2819 -0.4815
 3027SOL    HW119415   9.188   1.175   1.781 -1.8659  0.4813 -1.1179
 3027SOL    HW219416   9.191   1.038   1.870 -2.2756  1.3651  0.2758
 3028SOL     OW19417   8.551   6.702   3.135 -0.5772  0.2828  0.1655
 3028SOL    HW119418   8.503   6.778   3.178 -0.9996  0.3437 -0.4222
 3028SOL    HW219419   8.524   6.694   3.039  0.7077  0.4249 -0.2155
 3029SOL     OW19420   3.515   3.782   0.231  0.0317 -0.4283 -0.4280
 3029SOL    HW119421   3.420   3.762   0.254 -0.1135  0.4686 -0.2451
 3029SOL    HW219422   3.555   3.839   0.303  1.0674 -1.8148  0.1078
 3030SOL     OW19423   4.670   8.598   2.529  0.2253  1.0835  0.0959
 3030SOL    HW119424   4.702   8.626   2.439  0.3934 -1.2431 -0.6060
 3030SOL    HW219425   4.744   8.604   2.595  0.9707 -0.1493 -0.6032
 3031SOL     OW19426   3.050   5.446   1.795  0.1685  0.1925  0.2267
 3031SOL    HW119427   3.066   5.396   1.709  0.5027  1.5140 -0.4874
 3031SOL    HW219428   2.974   5.510   1.782  1.2740  1.5546  0.4358
 3032SOL     OW19429   9.120   2.316   3.003 -0.2098 -0.5679  0.2137
 3032SOL    HW119430   9.076   2.405   2.993  0.9892  0.0708  0.5432
 3032SOL    HW219431   9.118   2.267   2.915 -1.0065 -0.2865  0.0743
 3033SOL     OW19432   9.091   8.778   2.576  0.2636  0.2197 -0.0523
 3033SOL    HW119433   9.167   8.831   2.541 -0.0188  0.8026  0.2181
 3033SOL    HW219434   9.028   8.757   2.501 -0.0268  0.9423 -0.0159
 3034SOL     OW19435   9.235   6.763   2.362 -0.0762 -0.2330  0.8632
 3034SOL    HW119436   9.298   6.777   2.439  0.2364 -2.2203  1.0045
 3034SOL    HW219437   9.144   6.743   2.397 -0.0196 -0.7549  0.7174
 3035SOL     OW19438   2.206   5.958   2.805 -0.9343  0.3676  0.2632
 3035SOL    HW119439   2.181   5.865   2.833  1.3855 -0.3447  0.0749
 3035SOL    HW219440   2.147   5.986   2.729 -0.5995 -1.6043 -0.7651
 3036SOL     OW19441   0.515   4.946   2.006  0.1340  0.1943  0.3329
 3036SOL    HW119442   0.516   4.855   2.047 -0.0512 -0.6004 -1.3473
 3036SOL    HW219443   0.496   4.938   1.908  3.4316  1.7285 -0.5269
 3037SOL     OW19444   3.503   5.122   1.811 -0.1531  0.2718 -0.0715
 3037SOL    HW119445   3.470   5.204   1.764 -2.3644  0.4274  1.6449
 3037SOL    HW219446   3.537   5.147   1.902 -2.2463 -0.8593  1.0626
 3038SOL     OW19447   9.676   3.335   1.124  0.0803 -0.6272 -0.2809
 3038SOL    HW119448   9.609   3.386   1.178  0.0787  1.0033 -1.7661
 3038SOL    HW219449   9.630   3.286   1.051  0.6166  1.6480 -2.1827
 3039SOL     OW19450   2.574   7.834   2.930 -0.0724 -0.0978  0.3029
 3039SOL    HW119451   2.576   7.750   2.876 -1.3718 -0.6639  1.1080
 3039SOL    HW219452   2.630   7.904   2.886 -0.5156 -0.7915 -1.3878
 3040SOL     OW19453   3.735   3.715   1.941  0.5483 -0.0935 -0.4211
 3040SOL    HW119454   3.713   3.618   1.938 -1.8185  0.4225 -0.9200
 3040SOL    HW219455   3.704   3.754   2.028  0.3611  0.4636 -0.7324
 3041SOL     OW19456   8.688   2.583   0.389  0.2875 -0.3690  0.2439
 3041SOL    HW119457   8.682   2.631   0.477  1.1328 -1.3875  0.8746
 3041SOL    HW219458   8.784   2.579   0.360  0.1866 -1.3799  0.0309
 3042SOL     OW19459   0.588   5.102   2.874 -0.1417 -0.2980  0.3437
 3042SOL    HW119460   0.573   5.103   2.973 -0.7608  3.9216  0.2754
 3042SOL    HW219461   0.686   5.112   2.855 -0.1760  0.3315  0.5046
 3043SOL     OW19462   2.857   9.051   2.524 -0.4164  0.0958  0.1140
 3043SOL    HW119463   2.773   9.009   2.559 -0.2924 -0.5162 -0.3017
 3043SOL    HW219464   2.858   9.043   2.424  1.8151 -3.1559  0.3122
 3044SOL     OW19465   0.885   1.203   3.182 -0.1632  0.2931 -0.9074
 3044SOL    HW119466   0.982   1.225   3.175 -0.3801  1.4125 -0.5843
 3044SOL    HW219467   0.874   1.111   3.219  0.7822 -0.0351 -1.4431
 3045SOL     OW19468   4.329   8.740   1.340 -0.4311  0.1790  0.0664
 3045SOL    HW119469   4.385   8.659   1.358 -1.1813 -0.2953  0.2724
 3045SOL    HW219470   4.321   8.752   1.241 -2.0178 -1.1949  0.0104
 3046SOL     OW19471   4.118   8.705   2.340 -0.2380 -0.2898  0.2677
 3046SOL    HW119472   4.053   8.629   2.346  0.3998 -0.8527  0.1205
 3046SOL    HW219473   4.174   8.695   2.258 -0.9951  1.0244 -0.4284
 3047SOL     OW19474   9.948   1.650   1.718 -0.3930 -0.5256  0.0788
 3047SOL    HW119475  10.022   1.707   1.682 -0.7777  1.5294  2.3974
 3047SOL    HW219476   9.988   1.572   1.767  0.1664 -0.9058 -0.9550
 3048SOL     OW19477   8.050   9.753   3.325 -0.3842  0.1490 -0.3450
 3048SOL    HW119478   8.074   9.661   3.296  0.4350 -0.0246  0.8463
 3048SOL    HW219479   8.131   9.799   3.360 -1.1439  0.6877  0.7442
 3049SOL     OW19480   8.073   8.132   1.763 -0.0793  0.7123 -0.5478
 3049SOL    HW119481   8.088   8.132   1.862  0.2116 -0.2909 -0.5871
 3049SOL    HW219482   8.121   8.054   1.722 -2.4588 -0.4657 -1.1461
 3050SOL     OW19483   9.446   7.146   0.298 -0.0568 -0.1070 -0.2671
 3050SOL    HW119484   9.472   7.093   0.217 -1.1954 -0.7755 -0.2075
 3050SOL    HW219485   9.524   7.153   0.360  0.6148 -0.1859 -1.1040
 3051SOL     OW19486   3.248   8.064   3.022 -0.0510 -0.5351  0.3479
 3051SOL    HW119487   3.277   8.054   3.117  2.0343 -1.3711 -0.3531
 3051SOL    HW219488   3.265   7.979   2.973 -1.8555 -0.3737 -0.6048
 3052SOL     OW19489   0.862   1.804   1.492  0.2250  0.8154  0.3615
 3052SOL    HW119490   0.841   1.871   1.421  0.1999  0.2876 -0.1257
 3052SOL    HW219491   0.828   1.838   1.580 -0.4670  1.0998 -0.0080
 3053SOL     OW19492   3.404   7.009   0.629 -0.1726 -0.1044 -0.3722
 3053SOL    HW119493   3.423   7.060   0.546  0.3982 -0.0996 -0.2409
 3053SOL    HW219494   3.320   7.044   0.672 -0.2061  0.2035 -0.6902
 3054SOL     OW19495   9.420   3.195   0.715 -0.6825  0.9133  0.5560
 3054SOL    HW119496   9.426   3.146   0.628  0.2123  0.0215  1.1094
 3054SOL    HW219497   9.379   3.285   0.700 -1.4722  0.3726 -0.6207
 3055SOL     OW19498   3.185   5.825   2.828 -0.1006  0.2786  0.4514
 3055SOL    HW119499   3.222   5.789   2.913 -1.8473  0.3736  1.2682
 3055SOL    HW219500   3.130   5.906   2.847 -0.0586  0.6198 -0.8319
 3056SOL     OW19501   4.208   0.369   1.601 -0.6346 -0.1401  0.2388
 3056SOL    HW119502   4.205   0.276   1.638 -0.4373 -0.0322  0.5276
 3056SOL    HW219503   4.299   0.388   1.565 -0.2577  0.4154  1.4342
 3057SOL     OW19504   1.615   5.153   2.846 -0.1503 -0.0306 -0.5152
 3057SOL    HW119505   1.632   5.238   2.896 -0.1965 -0.4590  0.2236
 3057SOL    HW219506   1.579   5.175   2.755 -0.0655  0.7424 -0.3642
 3058SOL     OW19507   2.138   4.442   2.792  0.0916 -0.2035  0.4022
 3058SOL    HW119508   2.150   4.508   2.866  1.8079  0.9857 -0.8947
 3058SOL    HW219509   2.047   4.453   2.752 -0.6590 -0.5273  2.0031
 3059SOL     OW19510   6.030   8.091   2.774  0.2432 -0.3301 -0.7093
 3059SOL    HW119511   6.064   8.030   2.702 -0.6932  0.8341 -2.1431
 3059SOL    HW219512   6.102   8.155   2.799  1.6724 -2.7295  1.6782
 3060SOL     OW19513   2.679   1.122   1.337 -0.5382 -0.0263 -0.0223
 3060SOL    HW119514   2.711   1.164   1.422  2.2121 -1.1978 -0.4127
 3060SOL    HW219515   2.750   1.129   1.267 -1.0691 -2.8242 -0.9144
 3061SOL     OW19516   9.914   5.960   2.271  0.9909 -0.1781  0.2254
 3061SOL    HW119517   9.922   5.861   2.270 -0.5955 -0.3236 -1.4149
 3061SOL    HW219518   9.863   5.990   2.190  0.3145  1.8571  1.3611
 3062SOL     OW19519   4.093   2.818   0.364 -0.0452 -0.1697  0.0021
 3062SOL    HW119520   4.128   2.842   0.455  0.5202  0.8156 -0.4632
 3062SOL    HW219521   4.017   2.879   0.341 -0.6093 -0.8447  0.0827
 3063SOL     OW19522   2.869   5.574   2.626 -0.0841 -0.5346  0.0645
 3063SOL    HW119523   2.892   5.653   2.683 -2.6649 -1.0735  1.9757
 3063SOL    HW219524   2.952   5.527   2.598  1.3449  1.0300  1.5725
 3064SOL     OW19525   0.264   2.167   3.262 -0.1738  0.1488  0.4695
 3064SOL    HW119526   0.235   2.077   3.232 -0.1461  0.7474 -1.4273
 3064SOL    HW219527   0.361   2.165   3.286  0.0267 -0.1640 -0.3399
 3065SOL     OW19528   2.737   1.486   1.046 -0.3137 -0.1499  0.5010
 3065SOL    HW119529   2.682   1.568   1.061  0.4060  0.7457 -1.5600
 3065SOL    HW219530   2.682   1.405   1.068 -1.9217  0.7727  0.0021
 3066SOL     OW19531   2.630   5.091   1.582 -0.3119  0.0840  0.7348
 3066SOL    HW119532   2.638   5.003   1.627  1.7084  0.4934  1.2023
 3066SOL    HW219533   2.645   5.080   1.483 -1.7677 -0.3345  0.5403
 3067SOL     OW19534   6.878   8.817   2.906 -0.2814  0.1942 -0.0486
 3067SOL    HW119535   6.895   8.742   2.842  2.4603  0.1629  0.6589
 3067SOL    HW219536   6.922   8.796   2.994 -0.7715  1.9438  0.6324
 3068SOL     OW19537   1.656   4.927   2.527  0.2503  0.2995 -0.1032
 3068SOL    HW119538   1.617   4.919   2.435 -0.2687 -0.8477  0.2091
 3068SOL    HW219539   1.621   5.008   2.572 -0.9939 -0.1762 -0.2087
 3069SOL     OW19540   8.498   4.503   3.266  0.6338  0.0883 -0.1020
 3069SOL    HW119541   8.430   4.469   3.202  0.1576 -0.1408  0.5210
 3069SOL    HW219542   8.540   4.586   3.230  0.4280 -0.0889 -0.7445
 3070SOL     OW19543   8.390   4.682   0.286 -0.3037 -0.0986  0.4692
 3070SOL    HW119544   8.366   4.642   0.375 -3.4873 -1.1317 -0.7864
 3070SOL    HW219545   8.390   4.610   0.216  0.7829  0.9478 -0.6307
 3071SOL     OW19546   2.787   8.543   2.710 -0.2741 -0.2794  0.2036
 3071SOL    HW119547   2.881   8.568   2.686 -1.2083  0.4202 -3.0473
 3071SOL    HW219548   2.759   8.592   2.793  1.0352  2.3841 -0.8636
 3072SOL     OW19549   2.916   5.473   0.321  0.4550 -0.0165  0.1301
 3072SOL    HW119550   2.988   5.475   0.252  0.1870 -0.0345 -0.1512
 3072SOL    HW219551   2.827   5.491   0.278  0.4760  1.6101  0.7133
 3073SOL     OW19552   1.214   5.369   0.831  0.2100  0.0511 -0.0974
 3073SOL    HW119553   1.238   5.278   0.797 -1.9436 -1.9779  3.4550
 3073SOL    HW219554   1.138   5.406   0.777 -0.3878 -1.2643 -0.1750
 3074SOL     OW19555   9.867   6.884   1.989 -0.0068  0.2395 -0.7517
 3074SOL    HW119556   9.780   6.852   1.951 -0.3825  1.6317 -1.1277
 3074SOL    HW219557   9.891   6.972   1.946 -0.7283  2.1646  2.6234
 3075SOL     OW19558   3.145   4.865   0.195 -0.5105 -0.2718 -0.4955
 3075SOL    HW119559   3.068   4.844   0.257 -0.0814 -1.3223 -0.3077
 3075SOL    HW219560   3.130   4.954   0.153 -1.2016  0.1087  0.5320
 3076SOL     OW19561   8.635   5.570   2.382 -0.3435  0.4471  0.3989
 3076SOL    HW119562   8.555   5.578   2.323  0.6331  0.3038 -0.9690
 3076SOL    HW219563   8.608   5.531   2.470 -1.8959  1.0948  0.2232
 3077SOL     OW19564   3.188   4.669   2.928  0.0130  0.6627  0.0745
 3077SOL    HW119565   3.154   4.664   2.834  0.3509  0.4173 -0.0343
 3077SOL    HW219566   3.288   4.667   2.927  0.0835  2.8626  0.2975
 3078SOL     OW19567   4.237   8.359   1.553  0.3646  0.0507 -0.1135
 3078SOL    HW119568   4.238   8.364   1.653  0.3414 -1.3341 -0.0344
 3078SOL    HW219569   4.304   8.425   1.516  1.1752 -0.2133  0.8502
 3079SOL     OW19570   0.790   0.145   1.889 -0.0027 -0.2384 -0.2428
 3079SOL    HW119571   0.699   0.186   1.892 -0.0213 -0.3457  2.1601
 3079SOL    HW219572   0.853   0.207   1.843 -1.6400 -0.9453 -3.5639
 3080SOL     OW19573   1.344   7.919   2.726  0.2840  0.4191 -0.2478
 3080SOL    HW119574   1.245   7.912   2.739  0.2982 -2.1240 -1.1649
 3080SOL    HW219575   1.365   7.994   2.664 -1.2020 -0.1479 -1.4587
 3081SOL     OW19576   8.265   5.810   0.221  0.0038  0.3528  0.1936
 3081SOL    HW119577   8.317   5.877   0.168 -0.4628 -0.2650 -1.0670
 3081SOL    HW219578   8.187   5.777   0.167 -0.2711 -0.5613  1.1216
 3082SOL     OW19579   7.363   8.832   1.639 -0.3167  0.0888  0.2281
 3082SOL    HW119580   7.351   8.928   1.612 -0.0538 -0.5302 -2.2630
 3082SOL    HW219581   7.274   8.792   1.660 -0.9062 -0.0895 -2.3657
 3083SOL     OW19582   8.564   6.027   2.846  0.2573 -0.0172 -0.2442
 3083SOL    HW119583   8.627   6.048   2.771 -1.1814 -0.5350 -1.6158
 3083SOL    HW219584   8.562   5.928   2.862  1.9338  0.2236  1.7288
 3084SOL     OW19585   1.646   6.546   2.841  0.5694  0.7602 -0.4813
 3084SOL    HW119586   1.654   6.583   2.748 -0.7978 -0.9162 -1.2889
 3084SOL    HW219587   1.690   6.456   2.845  0.1103  0.5715  0.3434
 3085SOL     OW19588   2.583   2.895   3.436  0.2527  0.1878  0.0911
 3085SOL    HW119589   2.556   2.939   3.350 -0.4881 -1.3157 -0.4660
 3085SOL    HW219590   2.682   2.904   3.448  0.7025 -1.3549 -1.9931
 3086SOL     OW19591   2.489   0.889   0.181  0.2085  0.1514 -0.0790
 3086SOL    HW119592   2.469   0.984   0.203  0.1792  0.3090 -0.7949
 3086SOL    HW219593   2.581   0.882   0.142  0.4818 -0.2063  0.6137
 3087SOL     OW19594   0.011   3.721   2.126  0.2170  0.1119 -0.1554
 3087SOL    HW119595  -0.015   3.626   2.147  0.6450  0.0129 -0.0698
 3087SOL    HW219596  -0.039   3.752   2.045 -1.1004  0.3392  0.7241
 3088SOL     OW19597   9.531   1.098   2.846 -0.3575  0.3182  0.1790
 3088SOL    HW119598   9.548   1.187   2.803  2.0314  0.1022  0.6142
 3088SOL    HW219599   9.543   1.026   2.779  0.9587  0.1312  0.6075
 3089SOL     OW19600   0.863   6.600   0.299 -0.3011  0.8811  0.0160
 3089SOL    HW119601   0.910   6.545   0.229 -1.2718  0.4775 -0.3244
 3089SOL    HW219602   0.930   6.630   0.368  0.5718  0.8414 -0.7944
 3090SOL     OW19603   3.270   7.796   2.064  0.4827  0.1090 -0.3001
 3090SOL    HW119604   3.234   7.707   2.039  0.9064 -0.1368 -0.0376
 3090SOL    HW219605   3.242   7.819   2.157  0.5657  0.1484 -0.2847
 3091SOL     OW19606   2.558   2.525   1.635 -0.2349 -0.3499 -0.3347
 3091SOL    HW119607   2.528   2.434   1.607 -0.7192  0.0071 -1.0149
 3091SOL    HW219608   2.495   2.562   1.703  0.3646 -0.8097  0.4694
 3092SOL     OW19609   8.308   8.742   3.126 -0.3769  0.4406  0.5242
 3092SOL    HW119610   8.303   8.698   3.036  0.5849  1.2319  0.0825
 3092SOL    HW219611   8.287   8.839   3.117  0.5287  0.6833  1.0393
 3093SOL     OW19612   9.079   5.910   0.483 -0.2868 -0.1987  0.2281
 3093SOL    HW119613   9.123   5.993   0.450 -0.1866 -0.2283  0.2859
 3093SOL    HW219614   8.980   5.917   0.470 -0.3573  0.2709  0.9800
 3094SOL     OW19615   2.638   3.002   1.264 -0.2281  0.4932 -0.3121
 3094SOL    HW119616   2.622   3.043   1.175  1.5563  0.0579 -0.8520
 3094SOL    HW219617   2.589   2.915   1.270 -2.6121  1.8189  0.2004
 3095SOL     OW19618   2.327   3.707   1.357 -0.5376 -0.3054 -0.2117
 3095SOL    HW119619   2.286   3.783   1.408 -0.1872 -0.3450  0.1346
 3095SOL    HW219620   2.390   3.658   1.417 -1.8438 -1.7454 -0.0019
 3096SOL     OW19621   1.296   6.682   0.163  0.4835  0.1163 -0.4603
 3096SOL    HW119622   1.394   6.664   0.153  0.1462 -1.5007 -0.8322
 3096SOL    HW219623   1.255   6.698   0.073  1.0310  4.3029 -0.0885
 3097SOL     OW19624   2.421   9.675   0.434 -0.2626  0.2987 -0.2026
 3097SOL    HW119625   2.346   9.637   0.488 -1.1716 -0.7424 -2.1504
 3097SOL    HW219626   2.396   9.766   0.401  0.2098  0.8487  0.9129
 3098SOL     OW19627   2.551   3.264   2.953  0.2049 -0.0361 -0.4148
 3098SOL    HW119628   2.651   3.260   2.959  0.2311  0.5557 -0.4337
 3098SOL    HW219629   2.524   3.265   2.856  0.1503 -0.8407 -0.4128
 3099SOL     OW19630   4.178   1.658   2.153  0.2336 -0.2166  0.0653
 3099SOL    HW119631   4.165   1.737   2.213  0.4850  0.0029 -0.1692
 3099SOL    HW219632   4.273   1.625   2.162  0.2033 -0.3305 -0.0321
 3100SOL     OW19633   2.078   5.922   0.550 -0.6353  0.0068 -0.1632
 3100SOL    HW119634   2.160   5.881   0.511 -0.4612  0.5762 -0.3968
 3100SOL    HW219635   2.057   6.007   0.501 -2.0455 -0.7469 -0.9075
 3101SOL     OW19636   9.036   4.098   1.305  0.6151 -0.2567 -0.0126
 3101SOL    HW119637   9.017   4.020   1.245  1.6097  0.6446 -1.5532
 3101SOL    HW219638   9.098   4.161   1.258  0.2925  1.1695  1.4395
 3102SOL     OW19639   2.301   2.434   3.388  0.4501 -0.2408 -0.2125
 3102SOL    HW119640   2.301   2.335   3.403 -3.7797 -0.3282 -0.0642
 3102SOL    HW219641   2.271   2.454   3.295  0.2982  0.9126  0.0726
 3103SOL     OW19642   1.712   5.652   2.566 -0.0429  0.0834  0.2638
 3103SOL    HW119643   1.670   5.564   2.544 -0.6172  0.3115  0.4568
 3103SOL    HW219644   1.703   5.713   2.487  1.1645 -0.3267 -0.2113
 3104SOL     OW19645   9.820   8.576   0.724  0.0331 -0.5324  0.2004
 3104SOL    HW119646   9.765   8.590   0.642  1.0013 -1.2599 -0.5919
 3104SOL    HW219647   9.766   8.597   0.805 -1.1646 -0.5042 -0.5983
 3105SOL     OW19648   7.959   0.135   2.333 -0.8390 -0.0580 -0.4007
 3105SOL    HW119649   7.912   0.219   2.308 -0.6602  0.3263  0.5493
 3105SOL    HW219650   8.047   0.157   2.376 -0.4386 -0.7405 -0.8635
 3106SOL     OW19651   2.694   6.934   2.201  0.1195 -0.0512  0.2700
 3106SOL    HW119652   2.768   6.997   2.176  0.8818 -0.8353  0.4960
 3106SOL    HW219653   2.698   6.914   2.299  1.9691 -2.9917 -0.3140
 3107SOL     OW19654   1.052   8.290   1.491 -0.6478  0.0777  0.5547
 3107SOL    HW119655   1.058   8.278   1.392 -2.1717  0.7211  0.3702
 3107SOL    HW219656   1.143   8.282   1.531 -0.0417 -0.3396 -0.8826
 3108SOL     OW19657   2.529   3.083   2.296 -0.2238  0.2143 -0.1026
 3108SOL    HW119658   2.607   3.088   2.235 -0.0775 -0.2289  0.0483
 3108SOL    HW219659   2.463   3.017   2.261 -0.7721  0.9613 -0.5013
 3109SOL     OW19660   8.566   1.965   2.198 -0.0119  0.1136 -0.2944
 3109SOL    HW119661   8.517   1.883   2.229 -0.3070  1.0458  1.7368
 3109SOL    HW219662   8.514   2.008   2.124 -1.4322  0.1810  0.7240
 3110SOL     OW19663   0.805   7.680   0.815  0.2529 -0.1126  0.1066
 3110SOL    HW119664   0.783   7.732   0.732  2.1004  0.1392 -0.2314
 3110SOL    HW219665   0.720   7.648   0.857 -0.7282  0.1611 -1.6169
 3111SOL     OW19666   0.671   9.782   2.353 -0.7196 -0.0753 -0.7686
 3111SOL    HW119667   0.692   9.688   2.381 -0.0568 -0.3541 -2.1279
 3111SOL    HW219668   0.682   9.790   2.254 -0.2973  1.5659 -0.6057
 3112SOL     OW19669   1.740   6.525   1.894  0.2879 -0.0010  0.1490
 3112SOL    HW119670   1.766   6.518   1.798 -0.9631  0.0626 -0.1986
 3112SOL    HW219671   1.673   6.455   1.917  1.1677 -0.5312  1.1904
 3113SOL     OW19672   9.662   7.678   2.746 -0.1786 -0.0562 -0.3433
 3113SOL    HW119673   9.704   7.767   2.763 -0.7353 -0.0129  0.8898
 3113SOL    HW219674   9.718   7.627   2.681  0.8576  0.6632 -0.0416
 3114SOL     OW19675   2.862   0.591   1.000  0.2205 -1.2248  0.2502
 3114SOL    HW119676   2.853   0.663   0.931 -1.5830  0.0073  1.7052
 3114SOL    HW219677   2.798   0.517   0.979 -0.0595 -1.0202  0.3633
 3115SOL     OW19678   8.827   5.244   0.870 -0.1488 -0.3027 -0.1104
 3115SOL    HW119679   8.822   5.332   0.917  1.4924  0.3071 -1.0250
 3115SOL    HW219680   8.839   5.171   0.937 -1.7231  0.1457  0.6662
 3116SOL     OW19681   1.616   9.501   0.867  0.0291 -0.5850 -0.3256
 3116SOL    HW119682   1.606   9.582   0.810 -1.9526 -1.0057 -0.6014
 3116SOL    HW219683   1.669   9.524   0.949 -3.3206  1.8700  1.2673
 3117SOL     OW19684   8.903   0.067   1.535  0.1136 -0.0793 -0.3789
 3117SOL    HW119685   8.963  -0.011   1.553  1.7149  0.8947 -1.3366
 3117SOL    HW219686   8.929   0.109   1.448 -2.2800  0.0961 -1.0379
 3118SOL     OW19687   0.718   6.425   1.143  0.0490  0.8630 -0.5839
 3118SOL    HW119688   0.622   6.419   1.114 -0.2668  0.6380  0.4926
 3118SOL    HW219689   0.774   6.458   1.066 -0.7467  0.1442 -1.4887
 3119SOL     OW19690   3.926   3.851   1.157 -0.4518  0.2320 -0.1106
 3119SOL    HW119691   3.865   3.924   1.185  1.4607  1.5968  0.6217
 3119SOL    HW219692   4.004   3.889   1.107  0.9544 -1.1996  0.9187
 3120SOL     OW19693   0.419   1.471   3.338 -0.0890  0.0523 -0.8968
 3120SOL    HW119694   0.494   1.432   3.391  1.7824  0.6064 -3.0562
 3120SOL    HW219695   0.444   1.563   3.308 -1.4426  0.0725 -2.0144
 3121SOL     OW19696   1.152   5.985   3.223 -0.0188 -0.3663  0.4970
 3121SOL    HW119697   1.135   5.926   3.302 -0.8129 -0.3400  0.3529
 3121SOL    HW219698   1.100   6.069   3.233  0.3007 -0.1328  0.2023
 3122SOL     OW19699   9.091   3.888   1.508 -0.4525  0.4170  0.0942
 3122SOL    HW119700   9.106   3.965   1.446  2.0619 -0.6303 -0.6806
 3122SOL    HW219701   9.172   3.878   1.567 -0.8102 -1.5613  0.2643
 3123SOL     OW19702   2.366   5.679   1.372  0.3535  0.3135  0.5251
 3123SOL    HW119703   2.275   5.663   1.332  0.0679  0.3404  1.1665
 3123SOL    HW219704   2.377   5.776   1.391  1.5651  0.7467 -2.0831
 3124SOL     OW19705   9.084   6.399   1.087 -0.7847 -0.3285 -0.5743
 3124SOL    HW119706   9.017   6.325   1.092 -2.0440  0.7975 -0.2571
 3124SOL    HW219707   9.044   6.483   1.125  0.3595  0.6852 -1.5393
 3125SOL     OW19708   9.846   3.577   0.970 -0.4937 -0.6472 -0.2868
 3125SOL    HW119709   9.804   3.487   0.985  0.0403 -1.2013 -2.0210
 3125SOL    HW219710   9.936   3.565   0.927 -0.5037  0.7371 -0.7135
 3126SOL     OW19711   9.501   3.308   0.050  0.3086 -0.4200 -0.4102
 3126SOL    HW119712   9.597   3.312   0.022 -0.0708  0.3205 -1.6383
 3126SOL    HW219713   9.461   3.400   0.044 -0.3147 -0.6196  0.6636
 3127SOL     OW19714   3.573   1.108   2.184 -0.1017  0.5180 -0.3317
 3127SOL    HW119715   3.559   1.139   2.278  0.4696  0.3727 -0.1953
 3127SOL    HW219716   3.636   1.171   2.137 -0.7248  0.8333 -0.7500
 3128SOL     OW19717   1.915   8.923   0.044  0.1261  0.1849 -0.5498
 3128SOL    HW119718   1.997   8.972   0.014 -0.4921  0.0537 -2.5317
 3128SOL    HW219719   1.887   8.860  -0.028 -2.0010  0.5885 -0.0859
 3129SOL     OW19720   4.076   8.705   0.327 -0.2076 -0.3210  0.0858
 3129SOL    HW119721   4.062   8.632   0.395  0.7029  1.0673  1.8198
 3129SOL    HW219722   4.084   8.665   0.236  0.1207 -2.3733  0.9899
 3130SOL     OW19723   2.130   0.867   2.706 -0.2947 -0.5902 -0.3958
 3130SOL    HW119724   2.212   0.917   2.676 -0.1407  0.8832  2.2598
 3130SOL    HW219725   2.158   0.785   2.756 -0.4200 -0.4312 -0.0580
 3131SOL     OW19726   0.950   5.200   2.731 -0.3067  0.5413 -0.1845
 3131SOL    HW119727   1.023   5.202   2.799 -0.6664 -1.7722  0.3411
 3131SOL    HW219728   0.934   5.105   2.702 -4.0564  0.7610  0.7982
 3132SOL     OW19729   1.563   9.991   3.395  0.7413  0.3999 -0.0226
 3132SOL    HW119730   1.493  10.006   3.326  0.8585  1.1864  0.0276
 3132SOL    HW219731   1.561  10.065   3.462  3.7003  2.2107 -1.7730
 3133SOL     OW19732   9.074   7.437   1.258 -0.5581 -0.1093  0.0463
 3133SOL    HW119733   9.000   7.502   1.243 -1.3863 -1.1638 -0.4531
 3133SOL    HW219734   9.161   7.479   1.229 -1.0301  0.8851  0.0371
 3134SOL     OW19735   7.280   8.491   1.933 -0.0737  0.2606  0.6738
 3134SOL    HW119736   7.244   8.574   1.890 -1.9094 -1.2647 -0.8464
 3134SOL    HW219737   7.380   8.493   1.930 -0.0895  2.3670  0.6010
 3135SOL     OW19738   8.219   1.295   1.014  0.2399  0.0613 -0.3016
 3135SOL    HW119739   8.155   1.253   1.078 -1.5505  0.8807 -1.5213
 3135SOL    HW219740   8.289   1.228   0.989 -0.6443 -1.1325  0.3614
 3136SOL     OW19741   1.974   2.111   0.026  0.1066 -0.0888 -0.1978
 3136SOL    HW119742   2.059   2.062   0.044  0.2429  0.6850  1.3616
 3136SOL    HW219743   1.904   2.047  -0.006  0.3819 -1.2408  1.4523
 3137SOL     OW19744   3.796   2.157   2.391 -0.8856  0.5347  0.6599
 3137SOL    HW119745   3.751   2.087   2.448  1.1711  0.1046  1.7925
 3137SOL    HW219746   3.858   2.112   2.326 -1.9269  1.1378 -0.7781
 3138SOL     OW19747   2.877   3.084   0.321 -0.2507  0.4161  0.0885
 3138SOL    HW119748   2.934   3.009   0.354  0.0346  1.5021  2.0997
 3138SOL    HW219749   2.914   3.171   0.352 -1.8880  1.2665 -0.2756
 3139SOL     OW19750   3.738   8.285   3.102 -0.2433  0.2043 -0.3003
 3139SOL    HW119751   3.693   8.339   3.174 -1.4871 -1.1224 -0.0759
 3139SOL    HW219752   3.669   8.233   3.051  0.9380 -1.1119 -0.5695
 3140SOL     OW19753   8.390   0.051   2.092  0.0196 -0.0629 -0.1657
 3140SOL    HW119754   8.386   0.014   2.185 -0.2244 -0.9404 -0.5215
 3140SOL    HW219755   8.472   0.016   2.046  0.1840  0.4364 -0.2573
 3141SOL     OW19756   1.494   4.638   1.120 -0.4829 -0.1369  0.9323
 3141SOL    HW119757   1.563   4.608   1.054 -3.3140 -0.7658 -1.9056
 3141SOL    HW219758   1.501   4.737   1.133  0.9705 -0.2036  0.7342
 3142SOL     OW19759   1.363   2.828   3.176  0.1122 -0.2570  0.2592
 3142SOL    HW119760   1.373   2.924   3.203  0.1930 -0.2632  0.2483
 3142SOL    HW219761   1.270   2.813   3.141 -0.1979 -0.3932  1.1326
 3143SOL     OW19762   1.544   2.831   1.622 -0.1426 -0.1115 -0.1577
 3143SOL    HW119763   1.639   2.860   1.632 -0.5760  1.1271  0.4366
 3143SOL    HW219764   1.541   2.733   1.605  1.2380 -0.1685 -0.1390
 3144SOL     OW19765   1.318   0.548   1.687 -0.5351  0.4992 -0.1137
 3144SOL    HW119766   1.355   0.477   1.627 -0.9909  0.4909 -0.3828
 3144SOL    HW219767   1.323   0.517   1.782 -0.4336  0.2412 -0.2026
 3145SOL     OW19768   0.812   5.876   1.716  0.5550 -0.0704  0.6177
 3145SOL    HW119769   0.894   5.934   1.713  1.4517 -1.2716  1.1017
 3145SOL    HW219770   0.827   5.795   1.659 -0.9941  0.5459 -0.6887
 3146SOL     OW19771   4.112   8.647   1.697  0.2554 -0.4656  0.0509
 3146SOL    HW119772   4.184   8.696   1.746  0.8166  0.5848 -1.7806
 3146SOL    HW219773   4.106   8.682   1.603 -2.4896 -0.6908  0.1107
 3147SOL     OW19774   8.963   7.388   2.210 -0.2347 -0.4276  0.1038
 3147SOL    HW119775   8.874   7.432   2.222  0.1952  0.5940 -0.3668
 3147SOL    HW219776   8.956   7.292   2.235 -1.6790 -0.5503 -0.7120
 3148SOL     OW19777   3.874   1.982   1.133  0.2019 -0.1096  0.2298
 3148SOL    HW119778   3.861   1.887   1.162 -1.1994 -0.5026 -1.5889
 3148SOL    HW219779   3.853   2.043   1.209 -2.5264 -1.1432  0.3622
 3149SOL     OW19780   0.795   1.829   3.166 -0.1148  0.0648 -0.0259
 3149SOL    HW119781   0.813   1.861   3.259 -0.6717 -0.6373  0.3253
 3149SOL    HW219782   0.781   1.908   3.105 -0.5516  0.5020  0.6383
 3150SOL     OW19783   1.579   0.206   1.044 -0.2190  0.7368  0.8072
 3150SOL    HW119784   1.564   0.304   1.060 -0.8479  0.8040 -0.1837
 3150SOL    HW219785   1.497   0.156   1.072 -0.9075  0.7478 -1.1152
 3151SOL     OW19786   8.767   1.617   2.244  0.3695  0.5718 -0.3793
 3151SOL    HW119787   8.670   1.635   2.261  0.5855  0.7703  0.6810
 3151SOL    HW219788   8.787   1.631   2.147 -0.0394  3.4634 -0.0777
 3152SOL     OW19789   8.791   8.188   1.359  0.0068  0.4316 -0.6264
 3152SOL    HW119790   8.853   8.228   1.292 -0.4626  0.5108 -1.0216
 3152SOL    HW219791   8.702   8.234   1.354 -0.5323 -0.6374 -1.0803
 3153SOL     OW19792   2.818   0.241   1.743 -0.0094 -0.0898 -0.2623
 3153SOL    HW119793   2.827   0.161   1.685 -0.1467 -1.0555  1.0188
 3153SOL    HW219794   2.862   0.223   1.832 -0.5393  1.0411  0.2472
 3154SOL     OW19795   8.131   7.715   3.077 -0.4334  0.1067 -0.0808
 3154SOL    HW119796   8.100   7.698   3.170 -0.5573  0.6417 -0.0208
 3154SOL    HW219797   8.200   7.788   3.078 -0.5509  0.2206 -0.4267
 3155SOL     OW19798   8.780   8.804   0.253 -0.7978  0.3872 -0.0960
 3155SOL    HW119799   8.810   8.745   0.179  0.2022 -0.7813  1.2213
 3155SOL    HW219800   8.706   8.863   0.221  0.4157  0.7309 -2.3496
 3156SOL     OW19801   3.986   8.818   0.765 -0.1720 -0.4452  0.0760
 3156SOL    HW119802   4.033   8.888   0.710  0.3978 -0.5398  0.4438
 3156SOL    HW219803   3.891   8.845   0.777 -0.4431 -0.6787 -1.4035
 3157SOL     OW19804   4.282   1.109   3.218 -0.0184 -0.5133 -0.8706
 3157SOL    HW119805   4.238   1.076   3.302 -0.0516 -0.3633 -0.8293
 3157SOL    HW219806   4.297   1.032   3.156  1.2171 -0.8399 -0.1842
 3158SOL     OW19807   4.214   0.707   1.883  0.0998 -0.1274 -0.2295
 3158SOL    HW119808   4.167   0.774   1.826  0.9901 -0.5484 -1.4828
 3158SOL    HW219809   4.170   0.618   1.873  0.3748 -0.2433 -0.4127
 3159SOL     OW19810   4.311   9.763   0.838  0.2614 -0.2689 -0.3343
 3159SOL    HW119811   4.314   9.728   0.932  0.1983  0.5341 -0.0283
 3159SOL    HW219812   4.219   9.748   0.800  0.1426 -0.1426 -0.0969
 3160SOL     OW19813   9.623   1.995   2.537 -0.5609 -0.4970 -0.5331
 3160SOL    HW119814   9.573   2.035   2.613  1.3094  1.1490 -0.1229
 3160SOL    HW219815   9.647   2.066   2.471 -1.1287 -1.7097 -2.0890
 3161SOL     OW19816   0.178   1.092   0.117  0.1936 -0.2846 -0.2377
 3161SOL    HW119817   0.189   0.995   0.098  0.1073 -0.6422  1.5023
 3161SOL    HW219818   0.252   1.123   0.177 -0.2749  0.5302 -0.0727
 3162SOL     OW19819   8.965   7.850   1.664 -0.1566 -0.0197  0.6500
 3162SOL    HW119820   9.001   7.944   1.667  0.5356 -0.3111  1.8956
 3162SOL    HW219821   9.014   7.798   1.595  1.1597 -0.1306  1.6402
 3163SOL     OW19822   9.572   4.422   0.669  0.2553  0.2278  0.1719
 3163SOL    HW119823   9.521   4.502   0.701  0.5129 -0.1049  1.4539
 3163SOL    HW219824   9.661   4.451   0.634  0.0637  0.5820 -0.0207
 3164SOL     OW19825   2.836   1.763   2.387  0.0335  0.3703  0.1183
 3164SOL    HW119826   2.772   1.838   2.404 -0.1769  0.3368 -0.5319
 3164SOL    HW219827   2.846   1.708   2.471 -0.9902  0.2163  0.1496
 3165SOL     OW19828   9.581   2.126   3.108 -0.2087  0.3208  0.0077
 3165SOL    HW119829   9.677   2.146   3.091 -0.0247  0.5934  1.3271
 3165SOL    HW219830   9.528   2.210   3.102 -0.3060  0.2406 -0.2828
 3166SOL     OW19831   8.830   8.238   1.063  0.0108 -0.2190  0.0160
 3166SOL    HW119832   8.738   8.252   1.027  0.1512 -2.4383 -1.2528
 3166SOL    HW219833   8.894   8.299   1.016 -0.3220 -0.8265 -1.2410
 3167SOL     OW19834   4.464   7.536   1.084  0.4875  0.1243  0.7881
 3167SOL    HW119835   4.420   7.620   1.115 -0.1285 -0.3045  1.0944
 3167SOL    HW219836   4.455   7.466   1.155 -0.0570 -0.5558  0.0611
 3168SOL     OW19837   7.732   1.207   1.840 -0.3887 -0.6794 -0.3355
 3168SOL    HW119838   7.812   1.170   1.888  0.6741 -0.5014 -1.9387
 3168SOL    HW219839   7.693   1.282   1.893  0.2953 -0.9879  0.6226
 3169SOL     OW19840   4.727   0.846   2.282 -0.1338 -0.2336 -0.2551
 3169SOL    HW119841   4.779   0.905   2.221 -1.5291  1.3386  0.0496
 3169SOL    HW219842   4.630   0.867   2.275 -0.6029 -2.0599  0.3435
 3170SOL     OW19843   7.269   8.333   2.354 -0.2567  0.3232  0.1075
 3170SOL    HW119844   7.291   8.429   2.369  0.2813  0.1634  0.3613
 3170SOL    HW219845   7.187   8.325   2.297  0.5621  0.9367 -1.1715
 3171SOL     OW19846   7.713   9.270   1.392 -0.3701 -0.4137 -0.5883
 3171SOL    HW119847   7.681   9.353   1.345 -0.2939  0.2242  0.4810
 3171SOL    HW219848   7.812   9.273   1.401  0.0409 -2.2663 -3.6487
 3172SOL     OW19849   5.478   0.042   2.547  0.4311 -0.1269 -0.3241
 3172SOL    HW119850   5.550   0.070   2.611  0.0832  0.7961 -0.3223
 3172SOL    HW219851   5.504  -0.043   2.502  0.9352 -0.4968  0.6418
 3173SOL     OW19852   3.719   2.774   2.509  0.2043  0.3061  0.2673
 3173SOL    HW119853   3.701   2.790   2.412  2.0044  0.2514 -0.0995
 3173SOL    HW219854   3.665   2.695   2.540 -0.8183  0.6743 -0.5263
 3174SOL     OW19855   9.509   8.638   0.795  0.1549 -0.0079  0.0958
 3174SOL    HW119856   9.485   8.561   0.854  1.3807  0.0155  0.6380
 3174SOL    HW219857   9.585   8.689   0.836  0.6445  0.3427 -1.2292
 3175SOL     OW19858   9.395   9.007   2.828  0.1366  0.6997  0.3192
 3175SOL    HW119859   9.333   8.932   2.847  0.6234  0.2740  0.2411
 3175SOL    HW219860   9.343   9.092   2.816 -0.5842  0.0098 -1.5759
 3176SOL     OW19861   0.478   6.977   3.190  0.5671  0.0268  0.0297
 3176SOL    HW119862   0.510   7.064   3.151  1.4757  0.0727  0.8489
 3176SOL    HW219863   0.386   6.957   3.156  0.4865  1.1426 -0.4385
 3177SOL     OW19864   0.898   9.076   0.372  0.2589 -0.4310  0.3703
 3177SOL    HW119865   0.800   9.086   0.390  0.4876  0.0037  1.4368
 3177SOL    HW219866   0.922   8.979   0.368 -0.4068 -0.5463 -1.0275
 3178SOL     OW19867   4.534   8.882   2.786 -0.2683  0.5020 -0.0259
 3178SOL    HW119868   4.573   8.888   2.878  2.0692 -1.2583 -0.8539
 3178SOL    HW219869   4.480   8.798   2.778  0.9687 -0.2475 -0.7426
 3179SOL     OW19870   1.054   2.628   1.715 -0.1657 -0.3780 -0.0646
 3179SOL    HW119871   1.077   2.599   1.622 -0.1368  0.0064 -0.1762
 3179SOL    HW219872   1.096   2.716   1.734  0.4911 -0.8255  0.5967
 3180SOL     OW19873   2.894   9.852   2.760  0.3784  0.5463  0.5722
 3180SOL    HW119874   2.947   9.931   2.791 -2.2758  1.9577  1.7752
 3180SOL    HW219875   2.857   9.870   2.669  0.5798  0.2998  0.4434
 3181SOL     OW19876   3.279   4.314   0.362  0.2817 -0.3802  0.5223
 3181SOL    HW119877   3.311   4.393   0.415 -0.2486 -0.6428  1.2352
 3181SOL    HW219878   3.254   4.344   0.270 -1.3454  0.5503  1.2551
 3182SOL     OW19879   4.036   9.091   1.707 -0.3517  0.2882 -0.3017
 3182SOL    HW119880   4.016   9.046   1.620  1.6938 -0.2958 -0.5072
 3182SOL    HW219881   4.006   9.032   1.782 -0.1539 -0.1956 -0.5987
 3183SOL     OW19882   3.329   4.413   3.284  0.1878  0.3001 -1.0243
 3183SOL    HW119883   3.355   4.400   3.188  0.9523 -0.2686 -0.7517
 3183SOL    HW219884   3.404   4.381   3.342 -1.1743 -1.4627 -0.2020
 3184SOL     OW19885   1.593   9.158   0.018  0.6962  0.1701 -0.4774
 3184SOL    HW119886   1.572   9.255   0.031  0.7426  0.0803  0.2893
 3184SOL    HW219887   1.508   9.107   0.002  0.5697  0.1732  0.1959
 3185SOL     OW19888   9.289   2.943   1.068 -0.4601 -0.3828 -0.2609
 3185SOL    HW119889   9.239   2.990   0.995 -1.6172  0.4391  1.0335
 3185SOL    HW219890   9.296   3.004   1.147  0.8164 -1.2541  0.3059
 3186SOL     OW19891   0.100   1.998   2.911 -0.0694 -0.3639 -0.5017
 3186SOL    HW119892   0.084   2.087   2.868 -0.1876 -1.1641 -2.1524
 3186SOL    HW219893   0.153   1.940   2.850  1.1116 -1.0023  1.0978
 3187SOL     OW19894   2.774   6.089   2.042  0.1994 -0.5960 -0.4295
 3187SOL    HW119895   2.808   6.182   2.036 -1.0802 -0.0469  0.6103
 3187SOL    HW219896   2.834   6.035   2.101 -0.2744  0.1540  0.7488
 3188SOL     OW19897   3.329   4.790   2.543 -0.0929  0.2032  0.2717
 3188SOL    HW119898   3.356   4.874   2.591 -0.1222  0.2352  0.2308
 3188SOL    HW219899   3.249   4.751   2.588 -0.2090  0.3120  0.1601
 3189SOL     OW19900   1.374   2.525   2.897 -0.0130 -0.0837  0.6778
 3189SOL    HW119901   1.463   2.483   2.920 -0.2075 -0.7864  0.1392
 3189SOL    HW219902   1.301   2.472   2.940 -0.0811  1.4518  2.5014
 3190SOL     OW19903   9.716   0.749   1.719 -0.5389 -0.2270 -0.5659
 3190SOL    HW119904   9.729   0.665   1.666 -2.6562 -0.5023 -0.6693
 3190SOL    HW219905   9.784   0.817   1.691 -0.0127 -1.2506 -1.8099
 3191SOL     OW19906   8.747   2.541   0.093  0.2914 -0.3036 -0.3846
 3191SOL    HW119907   8.713   2.561   0.185 -0.4758  1.1660 -0.9671
 3191SOL    HW219908   8.686   2.476   0.048 -0.4671  0.5323 -0.5794
 3192SOL     OW19909   1.479   9.783   1.098 -0.7036 -0.4985 -0.0187
 3192SOL    HW119910   1.549   9.714   1.079  1.4264  1.5011  0.3405
 3192SOL    HW219911   1.490   9.818   1.191 -0.6684  1.5060 -0.7433
 3193SOL     OW19912   2.740   5.449   0.034 -0.0343  0.0217 -0.7257
 3193SOL    HW119913   2.662   5.447  -0.029 -0.5437  0.9139 -0.1172
 3193SOL    HW219914   2.724   5.385   0.109 -0.7684  1.1772  0.1027
 3194SOL     OW19915   0.611   1.191   2.740 -0.0836 -0.2672  0.5749
 3194SOL    HW119916   0.690   1.202   2.800 -1.2223  1.7071  1.7392
 3194SOL    HW219917   0.546   1.126   2.781 -0.5300  0.5314  1.1270
 3195SOL     OW19918   8.578   3.349   1.139  0.2857  0.0266 -0.6630
 3195SOL    HW119919   8.670   3.312   1.142  0.3960  0.3777  0.5436
 3195SOL    HW219920   8.511   3.275   1.133  0.5567 -0.3064  0.4995
 3196SOL     OW19921   8.499   1.647   2.241  0.0355  0.8155  0.2107
 3196SOL    HW119922   8.446   1.696   2.172  0.2510  0.4912 -0.1894
 3196SOL    HW219923   8.437   1.607   2.309 -0.1443  1.5852  0.5031
 3197SOL     OW19924   8.751   2.836   2.314  0.1461 -0.0411 -0.0076
 3197SOL    HW119925   8.714   2.851   2.222 -0.9908  0.8519  0.5918
 3197SOL    HW219926   8.765   2.738   2.329 -0.6232 -0.2681 -0.7621
 3198SOL     OW19927   8.057   9.457   2.143 -0.1554 -0.3541 -0.3019
 3198SOL    HW119928   8.029   9.482   2.236  0.9130 -1.3920  0.3139
 3198SOL    HW219929   7.981   9.413   2.096 -0.5878 -0.1619  0.2097
 3199SOL     OW19930   9.235   1.256   2.223  0.0755 -0.5927  0.0301
 3199SOL    HW119931   9.308   1.204   2.268 -1.1601 -0.9014  1.7443
 3199SOL    HW219932   9.243   1.353   2.249 -0.3625 -0.6964  0.5714
 3200SOL     OW19933   2.730   7.543   1.087 -0.7359 -0.2115 -0.0482
 3200SOL    HW119934   2.675   7.516   1.166 -1.1403  0.3404 -0.1378
 3200SOL    HW219935   2.752   7.640   1.094 -0.3019 -0.2902 -0.3346
 3201SOL     OW19936   2.904   0.564   1.940 -0.0076 -0.4088 -0.6531
 3201SOL    HW119937   2.935   0.556   1.845 -0.4234 -0.6761 -0.7705
 3201SOL    HW219938   2.969   0.520   2.001 -1.0986 -2.6550 -1.0738
 3202SOL     OW19939   3.718   2.580   0.829 -0.1063  0.0203 -0.2502
 3202SOL    HW119940   3.699   2.635   0.910 -0.2948 -0.0186 -0.2666
 3202SOL    HW219941   3.762   2.494   0.856 -0.0903  0.0453 -0.1973
 3203SOL     OW19942   2.361   9.587   1.894  0.3399 -0.2714 -0.2589
 3203SOL    HW119943   2.273   9.618   1.929 -0.0584 -2.6079  0.8831
 3203SOL    HW219944   2.426   9.664   1.895 -1.1967  1.0584  0.4347
 3204SOL     OW19945   3.062   2.471   0.645  0.1381 -0.5030  0.1849
 3204SOL    HW119946   3.045   2.375   0.665 -1.9439 -0.2068 -0.0222
 3204SOL    HW219947   3.006   2.529   0.705  2.4259  0.6286  1.2834
 3205SOL     OW19948   3.141   3.623   0.194 -0.1740 -0.3272 -0.1538
 3205SOL    HW119949   3.212   3.553   0.187 -0.0358 -0.0907 -1.2493
 3205SOL    HW219950   3.062   3.597   0.138 -0.0614  0.4542 -0.6898
 3206SOL     OW19951   0.288   0.664   0.957  0.4299 -0.3835 -0.1197
 3206SOL    HW119952   0.251   0.696   1.044  0.2802 -0.5773 -0.1116
 3206SOL    HW219953   0.254   0.723   0.883 -0.1301 -0.7297 -0.1463
 3207SOL     OW19954   0.074   0.843   2.914  0.5291  0.2784  0.0184
 3207SOL    HW119955   0.078   0.756   2.962  0.6878  0.0882 -0.3392
 3207SOL    HW219956   0.038   0.829   2.822  1.1901  0.4834 -0.2794
 3208SOL     OW19957   3.146   8.586   2.447 -0.2357  0.3316 -0.1365
 3208SOL    HW119958   3.167   8.684   2.438  0.6090  0.0415 -1.4248
 3208SOL    HW219959   3.097   8.570   2.533  1.5611  1.5749  1.1441
 3209SOL     OW19960   9.395   4.657   0.723  0.8311  0.2054 -0.0519
 3209SOL    HW119961   9.383   4.755   0.737  1.3207 -0.0755  2.5553
 3209SOL    HW219962   9.331   4.625   0.653 -0.1787  2.1441 -0.0470
 3210SOL     OW19963   2.273   8.240   1.417 -0.1243 -0.6326  0.0462
 3210SOL    HW119964   2.291   8.300   1.339 -2.1230  1.1734  0.9347
 3210SOL    HW219965   2.317   8.277   1.499 -1.0744 -0.5327  0.5240
 3211SOL     OW19966   1.756   5.067   2.162  0.5278 -0.3950 -0.3474
 3211SOL    HW119967   1.715   5.052   2.072 -0.4509 -1.7788  0.3069
 3211SOL    HW219968   1.786   5.162   2.169 -0.1947 -0.0342 -1.8056
 3212SOL     OW19969   2.519   3.098   1.015 -0.3907  0.5807  0.1111
 3212SOL    HW119970   2.459   3.155   0.960 -1.2416  0.4981  0.9305
 3212SOL    HW219971   2.483   3.005   1.018 -0.3841  0.5945  0.8398
 3213SOL     OW19972   1.887   3.846   1.041 -0.4754  0.4440  0.0617
 3213SOL    HW119973   1.839   3.781   1.100  2.4722 -1.9307 -0.0274
 3213SOL    HW219974   1.968   3.880   1.087 -0.5148  2.0038 -0.9629
 3214SOL     OW19975   2.332   7.933   1.242 -0.1051 -0.1104 -0.3582
 3214SOL    HW119976   2.244   7.889   1.223 -0.3445  0.0792  0.2914
 3214SOL    HW219977   2.317   8.029   1.265  0.3834  0.2263 -1.3911
 3215SOL     OW19978   9.104   7.517   0.719  0.7432  0.8096  0.7716
 3215SOL    HW119979   9.005   7.513   0.707  0.7838 -0.8278  0.9736
 3215SOL    HW219980   9.143   7.574   0.647 -0.2637  0.8129  0.2179
 3216SOL     OW19981   9.477   8.411   0.929 -0.1490  0.0439  0.4569
 3216SOL    HW119982   9.562   8.363   0.951 -0.5357 -0.8545  0.0025
 3216SOL    HW219983   9.426   8.359   0.860 -0.3822  1.3142 -0.3354
 3217SOL     OW19984   7.936   9.913   1.327  0.1192  0.0912  0.1943
 3217SOL    HW119985   7.959  10.009   1.309 -1.0680  0.1007 -1.3570
 3217SOL    HW219986   7.842   9.896   1.299  0.3102 -1.5224  0.5091
 3218SOL     OW19987   1.468   0.041   0.775  0.1966 -0.3499  0.3232
 3218SOL    HW119988   1.395   0.021   0.711  0.7886  1.4378 -0.9494
 3218SOL    HW219989   1.432   0.038   0.869 -1.7287  1.4303 -0.3280
 3219SOL     OW19990   7.095   9.143   2.024 -0.3322  0.2447  1.0061
 3219SOL    HW119991   7.073   9.240   2.036 -0.4821  0.2276  0.8869
 3219SOL    HW219992   7.067   9.092   2.105  0.1381  0.3651  1.2445
 3220SOL     OW19993   0.867   0.859   1.405  0.5875  0.1577  0.4731
 3220SOL    HW119994   0.863   0.956   1.380  0.6975 -0.1931 -0.9420
 3220SOL    HW219995   0.957   0.822   1.380  0.9075 -0.0650  1.9379
 3221SOL     OW19996   2.035   2.039   0.596 -0.1783 -0.0989 -0.1122
 3221SOL    HW119997   1.959   2.002   0.649  1.5362 -1.4639  1.4683
 3221SOL    HW219998   2.008   2.126   0.556 -2.9708 -1.1346 -0.6109
 3222SOL     OW19999   3.032   8.991   3.159  0.0795 -0.4269  0.4831
 3222SOL    HW120000   2.947   9.009   3.209 -0.4466  0.8668 -0.8166
 3222SOL    HW220001   3.104   9.053   3.191 -0.6636  1.4391 -1.3190
 3223SOL     OW20002   8.330   9.469   2.620  0.1455 -0.1719 -0.4225
 3223SOL    HW120003   8.321   9.526   2.537  2.5196 -0.4876 -0.9224
 3223SOL    HW220004   8.363   9.526   2.695 -1.8490  0.0746  0.3120
 3224SOL     OW20005   4.748   8.769   0.322 -0.0775  0.1591 -0.1335
 3224SOL    HW120006   4.761   8.795   0.227 -2.5054  0.2280 -0.4642
 3224SOL    HW220007   4.741   8.669   0.328 -0.2803  0.1772 -0.0635
 3225SOL     OW20008   8.766   4.353   0.075 -0.1742  0.0463 -0.2419
 3225SOL    HW120009   8.767   4.304   0.162 -1.5162  0.3758 -0.0287
 3225SOL    HW220010   8.766   4.287  -0.000  0.7970 -0.2401  0.0001
 3226SOL     OW20011   8.834   1.349   1.174 -0.2855 -0.4902 -0.2749
 3226SOL    HW120012   8.823   1.250   1.166  1.5791 -0.7187 -0.2349
 3226SOL    HW220013   8.908   1.369   1.238 -0.4822  0.9323 -0.4747
 3227SOL     OW20014   8.425   7.414   1.825  0.0851 -0.1288  0.3304
 3227SOL    HW120015   8.329   7.440   1.816  0.4238  0.6050 -1.1545
 3227SOL    HW220016   8.476   7.489   1.867  0.3525  0.1778 -0.5385
 3228SOL     OW20017   1.912   2.911   2.776 -0.0293  0.3747 -0.3249
 3228SOL    HW120018   1.996   2.918   2.829 -0.2468 -0.5980  0.1637
 3228SOL    HW220019   1.933   2.875   2.685  0.0050 -0.5369  0.0348
 3229SOL     OW20020   5.074   1.077   2.612 -0.0007 -0.3038  0.5544
 3229SOL    HW120021   4.987   1.117   2.640 -0.2251 -0.5266  0.1726
 3229SOL    HW220022   5.068   0.977   2.615 -0.2802 -0.3420 -1.0356
 3230SOL     OW20023   2.887   5.086   0.518 -0.1615 -0.7850  0.3131
 3230SOL    HW120024   2.926   5.125   0.601  0.6990 -1.9232  0.4511
 3230SOL    HW220025   2.933   5.126   0.438 -1.2460  0.5879  0.3483
 3231SOL     OW20026   9.905   0.606   1.167  0.5094  0.0652 -0.6040
 3231SOL    HW120027   9.995   0.594   1.209  0.0351 -3.6105 -0.4609
 3231SOL    HW220028   9.916   0.621   1.068  1.2711 -0.1960 -0.5619
 3232SOL     OW20029   2.432   9.471   1.618 -0.5051  0.2644  0.1902
 3232SOL    HW120030   2.429   9.380   1.577 -1.0724  0.5510 -0.4162
 3232SOL    HW220031   2.375   9.472   1.701  1.7145 -0.6800  1.7724
 3233SOL     OW20032   3.318   2.831   0.988 -0.1051  0.6840  0.1905
 3233SOL    HW120033   3.304   2.782   0.902  1.4639  2.4002 -1.0897
 3233SOL    HW220034   3.231   2.839   1.037 -1.1465  0.3210 -1.5739
 3234SOL     OW20035   1.866   8.326   3.421  0.5330  0.3348  0.2709
 3234SOL    HW120036   1.775   8.340   3.382 -0.2927  0.8213  2.3149
 3234SOL    HW220037   1.864   8.249   3.485  1.3151  0.9476  1.0556
 3235SOL     OW20038   1.519   9.003   1.333  0.1518 -0.2555  0.6993
 3235SOL    HW120039   1.560   8.983   1.421 -1.3017  0.3252  1.5256
 3235SOL    HW220040   1.447   9.072   1.344  1.6841  1.7875 -1.3220
 3236SOL     OW20041   9.859   5.209   2.100 -0.2950  0.0130 -0.7745
 3236SOL    HW120042   9.871   5.113   2.125  0.9866  0.1428 -0.8469
 3236SOL    HW220043   9.944   5.258   2.117 -1.4633  1.5091  0.8702
 3237SOL     OW20044   9.858   9.696   1.881  0.7161 -0.2538  0.0320
 3237SOL    HW120045   9.793   9.643   1.936 -1.8264  2.1277 -0.5783
 3237SOL    HW220046   9.927   9.736   1.940 -0.9765  0.8618  1.3029
 3238SOL     OW20047   9.254   6.856   0.849 -0.4762  0.0248  0.2189
 3238SOL    HW120048   9.173   6.907   0.877 -0.7077  0.1889 -0.7279
 3238SOL    HW220049   9.256   6.768   0.898 -1.2116  0.0286  0.2592
 3239SOL     OW20050   4.155   9.342   1.355  0.7884 -0.1983 -0.2260
 3239SOL    HW120051   4.183   9.323   1.450 -1.5356 -0.4009  0.4330
 3239SOL    HW220052   4.175   9.437   1.333  1.6686 -0.2428  0.3242
 3240SOL     OW20053   1.325   2.345   1.183 -0.4644 -0.4032 -0.0929
 3240SOL    HW120054   1.367   2.406   1.116 -0.2659  0.2039  0.5742
 3240SOL    HW220055   1.294   2.262   1.138 -0.6332  0.1441 -0.9978
 3241SOL     OW20056   1.896   6.804   1.721  0.6603 -0.0445  0.6376
 3241SOL    HW120057   1.960   6.846   1.657  0.3436  0.6374  0.7619
 3241SOL    HW220058   1.926   6.821   1.815  2.7387 -3.5306  0.7009
 3242SOL     OW20059   9.840   8.624   2.081  0.2037 -0.3661 -0.2396
 3242SOL    HW120060   9.847   8.535   2.125  2.1614 -0.2214 -0.2434
 3242SOL    HW220061   9.931   8.662   2.066 -0.4845  0.5036 -2.5438
 3243SOL     OW20062   9.760   9.100   1.432  0.0049 -0.3034 -0.1708
 3243SOL    HW120063   9.695   9.106   1.508 -1.4971  0.0308 -1.4434
 3243SOL    HW220064   9.850   9.074   1.467 -0.3043  1.2282  1.8999
 3244SOL     OW20065   9.177   8.974   1.977  0.0676 -0.0370  0.2723
 3244SOL    HW120066   9.228   9.059   1.967 -0.0744  0.0637  0.4059
 3244SOL    HW220067   9.233   8.898   1.945  0.1301  0.1259 -0.0041
 3245SOL     OW20068   8.934   1.682   0.735 -0.2795  0.0957  0.1434
 3245SOL    HW120069   8.874   1.683   0.815 -0.1753 -2.1709  0.2960
 3245SOL    HW220070   9.026   1.711   0.761 -0.2757 -0.5126  0.8436
 3246SOL     OW20071   3.378   2.161   2.502 -0.1174 -0.2964  0.0043
 3246SOL    HW120072   3.330   2.235   2.455  0.3876  0.4803  0.6982
 3246SOL    HW220073   3.430   2.108   2.435 -0.3099  0.1034 -0.4694
 3247SOL     OW20074   4.411   1.775   1.388  0.1572  0.1317 -0.2139
 3247SOL    HW120075   4.399   1.688   1.436  0.6986  0.3780  0.3652
 3247SOL    HW220076   4.324   1.824   1.386 -0.2587 -0.6222 -0.9359
 3248SOL     OW20077   1.448   3.609   1.498  0.4834  0.3754 -0.0107
 3248SOL    HW120078   1.416   3.656   1.416  0.8331  3.4531  1.5450
 3248SOL    HW220079   1.400   3.522   1.507 -1.0404  0.9150 -2.3738
 3249SOL     OW20080   0.959   8.797   1.334 -1.0528 -0.2897 -0.1895
 3249SOL    HW120081   0.952   8.865   1.407 -0.7513 -1.0790  0.5749
 3249SOL    HW220082   1.012   8.719   1.366  3.1506  1.3382 -2.7575
 3250SOL     OW20083   1.486   5.401   0.885 -0.3206 -0.6422  0.5857
 3250SOL    HW120084   1.548   5.403   0.807  0.6748 -1.7954  1.3196
 3250SOL    HW220085   1.392   5.409   0.853  0.0812 -1.1058 -0.7347
 3251SOL     OW20086   4.136   8.393   2.333 -0.0953  0.5210  0.4465
 3251SOL    HW120087   4.236   8.401   2.326 -0.1216 -0.2140 -0.8409
 3251SOL    HW220088   4.113   8.305   2.374 -0.2477  0.0616 -0.6102
 3252SOL     OW20089   8.158   9.338   2.793  0.7498 -0.1448  0.2683
 3252SOL    HW120090   8.068   9.320   2.753  0.7263  0.3658  0.0901
 3252SOL    HW220091   8.212   9.392   2.729  1.5961 -1.4013 -0.1047
 3253SOL     OW20092   8.939   2.557   1.979 -0.4474 -0.0888 -0.2093
 3253SOL    HW120093   8.958   2.482   1.915 -0.4352  0.2882 -0.6537
 3253SOL    HW220094   8.841   2.577   1.979 -0.4359 -0.0304 -0.1779
 3254SOL     OW20095   3.945   5.288   2.953  0.0961  0.1052 -0.2098
 3254SOL    HW120096   3.969   5.352   2.880  0.9750 -0.8665 -0.7868
 3254SOL    HW220097   3.979   5.323   3.041  1.2366  0.0680 -0.6298
 3255SOL     OW20098   1.857   0.498   1.594  0.4276  0.3992 -0.0359
 3255SOL    HW120099   1.937   0.440   1.584  1.2587  1.4445  0.4398
 3255SOL    HW220100   1.832   0.504   1.691  0.5713  1.1072 -0.0342
 3256SOL     OW20101   4.570   9.200   2.401 -0.2937  0.2126  0.6394
 3256SOL    HW120102   4.544   9.215   2.306 -0.5699  0.2550  0.7215
 3256SOL    HW220103   4.667   9.221   2.413 -0.0995 -0.4114  0.2241
 3257SOL     OW20104   0.205   6.614   3.275  0.7668 -0.5029 -0.4783
 3257SOL    HW120105   0.117   6.567   3.278 -0.0021  0.9694  0.8025
 3257SOL    HW220106   0.213   6.674   3.354  2.1106  0.8047 -1.5793
 3258SOL     OW20107   0.179   3.342   0.718 -0.0485  0.5212 -0.7533
 3258SOL    HW120108   0.177   3.262   0.779 -1.2123  0.5954 -0.6823
 3258SOL    HW220109   0.120   3.325   0.639  0.3619  0.9830 -1.1597
 3259SOL     OW20110   3.247   9.776   0.281  0.0794  0.0254 -0.3939
 3259SOL    HW120111   3.211   9.859   0.237 -1.0804  0.6221  1.5946
 3259SOL    HW220112   3.213   9.696   0.233 -0.3332  0.6770 -1.2068
 3260SOL     OW20113   5.070   0.299   2.611 -0.5616  0.7454  0.0143
 3260SOL    HW120114   5.113   0.222   2.564 -1.5569 -0.2392  0.6911
 3260SOL    HW220115   4.978   0.273   2.641 -0.8548  2.1535  0.3769
 3261SOL     OW20116   1.627   7.786   0.706 -0.2558  0.0066  0.7538
 3261SOL    HW120117   1.578   7.752   0.626  3.1588 -1.2214 -0.9076
 3261SOL    HW220118   1.655   7.710   0.764  1.5024  0.5037  0.5837
 3262SOL     OW20119   3.572   1.556   2.513  0.2737  0.1771  0.3158
 3262SOL    HW120120   3.476   1.540   2.533  0.1319  0.4387 -0.1441
 3262SOL    HW220121   3.621   1.469   2.516  0.4141  0.3215  2.5582
 3263SOL     OW20122   9.191   1.693   3.327  0.0597  0.1288  0.2933
 3263SOL    HW120123   9.237   1.690   3.238 -2.4039 -0.7928 -0.9903
 3263SOL    HW220124   9.142   1.780   3.336 -0.9896 -0.4334  0.0626
 3264SOL     OW20125   6.968   9.603   2.968  0.3071  0.4513  0.1193
 3264SOL    HW120126   6.974   9.521   3.025  3.6438 -0.0441 -0.8599
 3264SOL    HW220127   6.886   9.655   2.994 -1.0555 -2.3715  1.7809
 3265SOL     OW20128   0.026   8.472   3.158 -0.4440 -0.6121 -0.1651
 3265SOL    HW120129   0.032   8.559   3.109  3.9687 -0.1545  1.0146
 3265SOL    HW220130   0.089   8.407   3.117  0.1344 -1.5819  2.2147
 3266SOL     OW20131   7.532   9.346   2.555  0.5167 -0.3279  0.4695
 3266SOL    HW120132   7.594   9.382   2.486  2.6204 -1.4459  1.7264
 3266SOL    HW220133   7.457   9.412   2.570  0.2055  0.0900 -2.5418
 3267SOL     OW20134   2.686   2.407   1.205  0.2643  0.1102 -0.1402
 3267SOL    HW120135   2.757   2.379   1.141 -0.6738  1.3705 -1.7544
 3267SOL    HW220136   2.698   2.504   1.228 -0.7266  0.2445 -0.1743
 3268SOL     OW20137   0.690   4.538   0.217 -0.3819  0.1811  0.0820
 3268SOL    HW120138   0.627   4.584   0.279  0.0316 -0.1775  0.7652
 3268SOL    HW220139   0.675   4.439   0.222 -0.6109  0.1717 -0.6718
 3269SOL     OW20140   3.612   8.821   2.407 -0.0461 -0.0891 -0.0306
 3269SOL    HW120141   3.634   8.725   2.425  1.6596 -0.0396 -1.7908
 3269SOL    HW220142   3.655   8.879   2.477 -0.0072 -0.4854  0.2743
 3270SOL     OW20143   2.826   0.893   2.481 -0.7689  0.4322  0.3601
 3270SOL    HW120144   2.917   0.860   2.453 -1.3553 -0.3345 -0.6705
 3270SOL    HW220145   2.756   0.840   2.434 -1.7593  0.9919  1.1980
 3271SOL     OW20146   0.432   2.493   2.942  0.5807  0.0564 -0.1706
 3271SOL    HW120147   0.417   2.471   2.846  1.1608 -0.4699 -0.1404
 3271SOL    HW220148   0.405   2.588   2.959  0.1687  0.0474 -0.7799
 3272SOL     OW20149   3.211   5.787   1.634  0.8491 -0.1084 -0.4005
 3272SOL    HW120150   3.259   5.713   1.682  2.5632  1.6023  0.6162
 3272SOL    HW220151   3.113   5.768   1.631  1.0306 -1.4728  1.5629
 3273SOL     OW20152   2.691   8.254   1.680  0.3026  0.1139  0.4765
 3273SOL    HW120153   2.595   8.259   1.707  0.0479  3.3647 -0.8645
 3273SOL    HW220154   2.703   8.180   1.613 -1.5510  0.6820 -0.4959
 3274SOL     OW20155   9.513   2.885   1.718 -0.5240 -0.2178  0.1345
 3274SOL    HW120156   9.446   2.826   1.672 -0.0423  0.6836 -1.7956
 3274SOL    HW220157   9.565   2.936   1.649 -0.4213  1.9092  1.7311
 3275SOL     OW20158   3.526   3.412   0.580 -0.0452  0.5085 -0.4846
 3275SOL    HW120159   3.440   3.370   0.611  0.1170  0.1507 -0.5162
 3275SOL    HW220160   3.567   3.355   0.510  1.1592 -0.3105  0.8541
 3276SOL     OW20161   2.196   0.877   3.238 -0.1288  0.4380 -0.1772
 3276SOL    HW120162   2.179   0.935   3.317  0.2683  0.1987  0.0861
 3276SOL    HW220163   2.145   0.912   3.159 -0.0243  1.0393  0.0216
 3277SOL     OW20164   8.425   2.152   0.447  0.3057 -0.2808 -0.0986
 3277SOL    HW120165   8.521   2.133   0.464  0.1319  0.3082  1.6248
 3277SOL    HW220166   8.414   2.249   0.425 -0.1627  0.1468  1.9490
 3278SOL     OW20167   4.460   3.781   0.324 -0.0079  0.0641  0.2615
 3278SOL    HW120168   4.528   3.817   0.389  0.6807 -0.4737 -0.1508
 3278SOL    HW220169   4.440   3.686   0.347  1.2142 -0.5346 -1.0863
 3279SOL     OW20170   9.803   5.606   0.726 -0.6368 -0.7644  0.2719
 3279SOL    HW120171   9.777   5.580   0.819  1.0324  1.0803  1.3086
 3279SOL    HW220172   9.747   5.684   0.696 -1.4656 -1.6294 -0.4442
 3280SOL     OW20173   0.743   6.619   2.923  0.1273  0.2598  0.0060
 3280SOL    HW120174   0.684   6.665   2.989 -0.8654 -0.8399 -0.0951
 3280SOL    HW220175   0.749   6.675   2.840 -1.1808  0.1716 -0.1703
 3281SOL     OW20176   0.026   0.200   1.218 -0.1861  0.2483  0.0937
 3281SOL    HW120177   0.033   0.193   1.318  0.3567 -0.1277  0.0279
 3281SOL    HW220178   0.094   0.265   1.185  0.2088 -0.2718 -0.1179
 3282SOL     OW20179   8.067   8.307   2.225  0.0621 -0.1519  0.3639
 3282SOL    HW120180   7.988   8.284   2.168  0.1646  1.3643 -0.4146
 3282SOL    HW220181   8.036   8.328   2.317 -0.6983  2.4248 -0.4445
 3283SOL     OW20182   0.006   4.769   3.415  0.1338  0.3090 -0.4175
 3283SOL    HW120183   0.062   4.842   3.453  1.4053 -0.9744  0.2282
 3283SOL    HW220184   0.033   4.682   3.456 -2.5832 -0.2971  0.1799
 3284SOL     OW20185   3.911   9.400   1.560  0.3207  0.2157  0.5070
 3284SOL    HW120186   3.879   9.489   1.595  0.4111  0.2389  0.5295
 3284SOL    HW220187   3.952   9.413   1.470  0.1413  0.1631  0.4167
 3285SOL     OW20188   3.427   9.407   1.866  0.1073 -0.0614  0.0751
 3285SOL    HW120189   3.371   9.488   1.857 -4.3892 -2.6952  2.6341
 3285SOL    HW220190   3.423   9.354   1.781 -0.4818  0.2803 -0.1114
 3286SOL     OW20191   9.830   1.029   1.098 -0.6747 -1.0270 -0.3468
 3286SOL    HW120192   9.791   0.976   1.173  0.1755 -1.1053  0.0387
 3286SOL    HW220193   9.885   1.104   1.135 -1.9752  0.2139 -0.8820
 3287SOL     OW20194   2.603   6.222   3.375 -0.2852  0.1473 -0.6191
 3287SOL    HW120195   2.663   6.260   3.446 -0.7939  0.1170 -0.1754
 3287SOL    HW220196   2.656   6.159   3.318  0.1146  0.1279 -0.2324
 3288SOL     OW20197   3.397   8.128   2.327 -0.2759 -0.6709  0.6113
 3288SOL    HW120198   3.328   8.107   2.258 -0.2717 -2.9393  1.2420
 3288SOL    HW220199   3.364   8.099   2.417 -0.4243  2.5438  1.6774
 3289SOL     OW20200   8.527   2.158   0.066 -0.1509  0.4478  0.3958
 3289SOL    HW120201   8.502   2.255   0.058  3.9545  1.4837 -1.1935
 3289SOL    HW220202   8.497   2.108  -0.015 -0.6537  0.7559  0.3888
 3290SOL     OW20203   3.965   9.540   2.256 -0.1588 -0.2609 -0.3079
 3290SOL    HW120204   3.948   9.525   2.353 -0.7797 -0.3984 -0.4307
 3290SOL    HW220205   3.915   9.471   2.202  1.3040 -1.0487 -0.6763
 3291SOL     OW20206   8.257   1.534   2.373 -0.3187  0.2453  0.4685
 3291SOL    HW120207   8.170   1.497   2.340 -1.2120  1.7076  1.1466
 3291SOL    HW220208   8.247   1.563   2.469  0.3465  2.2382 -0.0474
 3292SOL     OW20209   8.284   0.497   0.404 -0.3476 -0.0053  0.5676
 3292SOL    HW120210   8.341   0.506   0.486 -1.5462  1.6111  1.2485
 3292SOL    HW220211   8.276   0.585   0.359 -0.8683 -0.5957 -0.5020
 3293SOL     OW20212   9.436   8.727   0.440 -0.6802 -0.0457 -0.2611
 3293SOL    HW120213   9.357   8.718   0.380 -0.8901  0.0317  0.0039
 3293SOL    HW220214   9.423   8.806   0.500 -0.8425 -0.6130  0.4570
 3294SOL     OW20215   3.284   1.566   2.607  0.5887 -0.1400 -0.2837
 3294SOL    HW120216   3.200   1.516   2.587  0.3676  0.0429  0.1740
 3294SOL    HW220217   3.300   1.565   2.706  2.7542 -2.8101 -0.6060
 3295SOL     OW20218   4.325   0.373   2.048 -0.0613 -0.1104  0.0153
 3295SOL    HW120219   4.227   0.388   2.064  0.2117  2.0193 -0.1799
 3295SOL    HW220220   4.358   0.438   1.980  1.4847 -0.8743  0.0150
 3296SOL     OW20221   1.595   2.894   2.201  0.7989  0.4795 -0.1422
 3296SOL    HW120222   1.593   2.864   2.106 -0.0794  2.3712 -0.7491
 3296SOL    HW220223   1.637   2.985   2.206 -1.8296  1.6760  0.8886
 3297SOL     OW20224   3.141   1.272   1.975 -0.1132 -0.0115  0.0776
 3297SOL    HW120225   3.047   1.249   1.999 -0.8275  1.6481 -1.0686
 3297SOL    HW220226   3.151   1.371   1.968  1.9937 -0.1023  1.2580
 3298SOL     OW20227   4.889   9.506   1.297  0.2950  0.7066 -0.3099
 3298SOL    HW120228   4.969   9.513   1.238  0.3442 -2.0711 -0.6597
 3298SOL    HW220229   4.851   9.597   1.313  4.1507  2.2312  0.7919
 3299SOL     OW20230   7.733   1.996   1.124 -0.1502 -0.1678  0.1561
 3299SOL    HW120231   7.732   1.956   1.032  2.0117  0.2925 -0.0928
 3299SOL    HW220232   7.794   1.943   1.183 -0.2450  0.5169  0.8826
 3300SOL     OW20233   9.781   2.344   1.098 -0.3954  0.1406 -0.1491
 3300SOL    HW120234   9.749   2.418   1.157 -0.4441  0.6166 -0.7623
 3300SOL    HW220235   9.708   2.317   1.035 -0.3598 -0.3901  0.0387
 3301SOL     OW20236   4.600   3.565   2.180 -0.2820  0.5319 -0.2435
 3301SOL    HW120237   4.523   3.622   2.209  1.1280  2.3361  0.0491
 3301SOL    HW220238   4.673   3.570   2.249  0.2675 -0.7994 -0.7241
 3302SOL     OW20239   2.921   6.205   0.541  0.3404  0.2716  0.4528
 3302SOL    HW120240   2.974   6.240   0.464  0.1672 -0.1478  0.1353
 3302SOL    HW220241   2.971   6.129   0.583 -0.2199 -0.4325 -0.1427
 3303SOL     OW20242   3.403   5.167   0.672 -0.1557  0.6538  0.2008
 3303SOL    HW120243   3.343   5.122   0.606 -0.3074  0.6244  0.3585
 3303SOL    HW220244   3.415   5.263   0.646  0.1528  0.5299 -0.1242
 3304SOL     OW20245   8.912   1.007   2.460  0.8474  0.6865 -0.4059
 3304SOL    HW120246   8.964   0.989   2.543  0.8166  0.8253 -0.3572
 3304SOL    HW220247   8.924   0.931   2.396 -1.1147 -0.5769  0.7009
 3305SOL     OW20248   0.661   7.961   3.432  0.4078 -0.1063 -0.2305
 3305SOL    HW120249   0.736   7.933   3.372  1.3038  1.3995  0.1559
 3305SOL    HW220250   0.576   7.917   3.402  1.2233 -0.9653 -1.3464
 3306SOL     OW20251   8.055   0.978   0.988 -0.1071 -0.2466  0.4363
 3306SOL    HW120252   8.006   1.040   0.926  0.9139 -0.7662 -0.9196
 3306SOL    HW220253   8.047   0.884   0.953  1.6159 -0.3655  0.3456
 3307SOL     OW20254   4.177   0.392   0.379 -0.0664  0.1207 -0.6327
 3307SOL    HW120255   4.255   0.412   0.320  0.9232  1.7344  1.1685
 3307SOL    HW220256   4.135   0.477   0.410 -0.6489 -0.6990  0.8893
 3308SOL     OW20257   9.947   2.414   2.388 -0.4630 -0.5023 -0.0794
 3308SOL    HW120258   9.982   2.388   2.298 -0.4112  0.1879 -0.2605
 3308SOL    HW220259   9.856   2.454   2.378  0.3206  1.3690 -0.0615
 3309SOL     OW20260   4.159   1.627   1.180  0.0893 -0.6632  0.0036
 3309SOL    HW120261   4.141   1.540   1.226  0.9353 -0.2141  1.2114
 3309SOL    HW220262   4.130   1.702   1.239  1.0824 -0.0818 -0.2368
 3310SOL     OW20263   3.432   1.948   2.269 -0.0503  0.1260 -0.0354
 3310SOL    HW120264   3.416   1.890   2.349  0.2390  0.0857 -0.0028
 3310SOL    HW220265   3.481   1.895   2.199  1.2361  0.6495  0.4488
 3311SOL     OW20266   2.817   7.269   0.716  0.0241  0.1468 -0.4244
 3311SOL    HW120267   2.742   7.326   0.750  0.4874  0.3229  0.3315
 3311SOL    HW220268   2.801   7.246   0.620  0.3855  2.4971 -1.0740
 3312SOL     OW20269   2.277   5.615   0.712  0.2325 -0.1937 -0.8513
 3312SOL    HW120270   2.320   5.688   0.659 -1.0289  1.6692  0.6322
 3312SOL    HW220271   2.226   5.555   0.650  1.7175 -0.1633 -2.1472
 3313SOL     OW20272   9.672   5.337   1.575  0.2209  0.1322  0.0656
 3313SOL    HW120273   9.744   5.393   1.534  2.1422 -1.2212  1.4989
 3313SOL    HW220274   9.694   5.321   1.671 -0.7810 -2.2774 -0.0839
 3314SOL     OW20275   3.466   4.567   1.892  0.7240 -0.6584 -0.7634
 3314SOL    HW120276   3.521   4.619   1.957  0.2008 -1.8595  0.6654
 3314SOL    HW220277   3.464   4.615   1.804  1.2096  1.1286  0.1756
 3315SOL     OW20278   8.064   2.829   0.295 -0.1169  0.0471  0.7990
 3315SOL    HW120279   8.085   2.900   0.228 -0.6248  0.5457  1.1616
 3315SOL    HW220280   8.039   2.744   0.249  0.1467  0.2051  0.3648
 3316SOL     OW20281   9.828   5.411   0.304  0.2940  0.2977 -0.1368
 3316SOL    HW120282   9.752   5.383   0.363  1.0929 -1.4138  0.1274
 3316SOL    HW220283   9.903   5.447   0.361  1.1399 -1.5298 -0.0649
 3317SOL     OW20284   9.390   2.179   2.477  0.0115  0.3560 -0.7436
 3317SOL    HW120285   9.468   2.218   2.428 -0.3276  0.5204 -1.1549
 3317SOL    HW220286   9.306   2.227   2.451 -0.0433  1.0866  0.7294
 3318SOL     OW20287   1.375   6.150   3.237  0.3618  0.8242 -0.4743
 3318SOL    HW120288   1.287   6.105   3.254  0.1232  0.7783 -1.7788
 3318SOL    HW220289   1.443   6.115   3.301 -0.0000 -0.8739 -0.9893
 3319SOL     OW20290   9.256   6.505   2.274  0.0840 -0.6564 -0.2874
 3319SOL    HW120291   9.299   6.596   2.275 -0.4598 -0.4050  1.1193
 3319SOL    HW220292   9.158   6.515   2.262 -0.3165 -0.9009  2.5295
 3320SOL     OW20293   8.928   4.313   1.422  0.0367 -0.1206  0.1187
 3320SOL    HW120294   8.861   4.305   1.348  1.5584  1.9877 -1.5596
 3320SOL    HW220295   9.007   4.254   1.401  0.5822  0.6761 -0.0872
 3321SOL     OW20296   3.830   8.123   1.711 -0.3324 -0.0724 -1.2125
 3321SOL    HW120297   3.901   8.185   1.745 -1.1589  0.1917  0.0619
 3321SOL    HW220298   3.761   8.176   1.661 -0.7776 -0.0300 -0.5540
 3322SOL     OW20299   3.890   2.215   1.959  0.6613  0.3802 -0.0059
 3322SOL    HW120300   3.819   2.285   1.958 -0.0043 -0.2434  1.3079
 3322SOL    HW220301   3.953   2.231   2.035  1.3446  0.3646 -0.5615
 3323SOL     OW20302   2.798   4.276   1.124  0.2458  0.2489  0.2146
 3323SOL    HW120303   2.788   4.263   1.025 -0.9856  0.1922  0.3356
 3323SOL    HW220304   2.724   4.228   1.172  0.6590  0.5275  1.1473
 3324SOL     OW20305   2.573   1.796   2.667  0.4274 -0.0182  0.2963
 3324SOL    HW120306   2.511   1.739   2.720  0.1141  1.1321  1.1982
 3324SOL    HW220307   2.549   1.791   2.570 -0.3244 -0.5077  0.5071
 3325SOL     OW20308   9.700   4.363   2.231  0.2966  0.6429  0.2623
 3325SOL    HW120309   9.683   4.411   2.145  0.7719  2.3033  1.0826
 3325SOL    HW220310   9.684   4.425   2.308  0.3303 -0.6874  1.3636
 3326SOL     OW20311   3.527   8.773   1.412  0.0517 -0.6433 -0.6771
 3326SOL    HW120312   3.522   8.679   1.447 -1.7468  0.1143  1.1851
 3326SOL    HW220313   3.481   8.778   1.324  0.5926 -1.6145 -1.0235
 3327SOL     OW20314   9.454   9.011   1.443 -0.7341 -0.3224 -0.1053
 3327SOL    HW120315   9.482   9.083   1.378 -0.3499 -0.2393  0.1533
 3327SOL    HW220316   9.402   9.052   1.517  0.6797 -0.1018  0.7866
 3328SOL     OW20317   1.083   4.781   1.263 -0.0904 -0.2599 -0.0032
 3328SOL    HW120318   1.162   4.779   1.325 -0.2119 -0.4268  0.1466
 3328SOL    HW220319   1.086   4.865   1.209 -0.2187  0.0940  0.5405
 3329SOL     OW20320   1.473   5.865   3.028 -0.3748 -0.1394 -0.5364
 3329SOL    HW120321   1.509   5.958   3.040 -0.4021  0.0607 -2.0086
 3329SOL    HW220322   1.377   5.870   3.001  0.0477 -0.5463 -2.1564
 3330SOL     OW20323   9.044   9.230   3.245 -0.4601 -0.7076 -0.2112
 3330SOL    HW120324   8.959   9.244   3.195 -0.5274  0.1122  0.1212
 3330SOL    HW220325   9.122   9.241   3.184 -0.6005 -1.8559 -0.6048
 3331SOL     OW20326   8.398   8.579   2.928 -0.0834 -0.2023 -0.3821
 3331SOL    HW120327   8.405   8.485   2.894 -0.1626 -0.7345  1.0025
 3331SOL    HW220328   8.484   8.627   2.914  0.1343 -0.6614 -0.6099
 3332SOL     OW20329   8.383   2.553   0.944  0.2249 -0.7490 -0.0044
 3332SOL    HW120330   8.356   2.579   1.037  0.7335 -0.6629  0.1183
 3332SOL    HW220331   8.377   2.633   0.884  0.7725 -0.5909  0.1491
 3333SOL     OW20332   8.618   7.857   2.125  0.1760 -0.3967 -0.0596
 3333SOL    HW120333   8.664   7.904   2.050 -2.4969  1.2269 -0.7649
 3333SOL    HW220334   8.676   7.857   2.206  1.6235  1.0130 -1.0804
 3334SOL     OW20335   0.008   3.747   1.820  0.1133 -0.1429 -0.1712
 3334SOL    HW120336   0.101   3.711   1.821 -0.6763 -2.3708 -1.9524
 3334SOL    HW220337  -0.011   3.787   1.731 -1.5458 -2.2993 -0.8221
 3335SOL     OW20338   9.211   5.527   0.340 -0.3182  0.2644  0.2514
 3335SOL    HW120339   9.164   5.446   0.303 -2.2846 -0.1673  3.5193
 3335SOL    HW220340   9.298   5.500   0.379  0.4534  0.2746 -1.3904
 3336SOL     OW20341   1.217   8.513   2.532 -0.1232  0.4393 -0.1764
 3336SOL    HW120342   1.300   8.458   2.522 -0.2150 -0.0313  1.6337
 3336SOL    HW220343   1.242   8.607   2.557 -0.1217  0.4847 -0.3420
 3337SOL     OW20344   3.617   8.428   3.300 -0.0678 -0.4316  0.2682
 3337SOL    HW120345   3.557   8.500   3.335 -0.9397 -0.9665 -0.1226
 3337SOL    HW220346   3.619   8.352   3.365  1.4664  0.2591  1.0576
 3338SOL     OW20347   8.194   8.172   1.996 -0.3657 -0.7605  0.4833
 3338SOL    HW120348   8.148   8.222   2.070 -0.9381 -2.3659  1.2274
 3338SOL    HW220349   8.285   8.143   2.026 -0.4980 -1.1970  0.4590
 3339SOL     OW20350   9.958   8.620   1.001 -0.2809 -0.9897 -0.4619
 3339SOL    HW120351  10.040   8.566   1.018 -0.0045 -0.7864 -1.1114
 3339SOL    HW220352   9.949   8.637   0.903  0.7069  1.8116 -0.1023
 3340SOL     OW20353   9.999   3.017   1.824 -0.4386  0.3092 -0.4051
 3340SOL    HW120354   9.941   2.965   1.761  0.3606  0.3171 -1.1619
 3340SOL    HW220355  10.092   3.020   1.788 -0.1362  0.9422  0.4204
 3341SOL     OW20356   3.930   3.912   3.087  0.3370  0.0317  0.2432
 3341SOL    HW120357   3.930   3.844   3.160 -0.4647  2.0581  2.2189
 3341SOL    HW220358   4.017   3.962   3.089  0.5108 -0.2446 -0.5120
 3342SOL     OW20359   7.848   9.088   3.252 -0.7124 -0.1705  0.8475
 3342SOL    HW120360   7.885   9.127   3.336 -1.4366 -1.8011  1.9472
 3342SOL    HW220361   7.915   9.098   3.179  0.7327 -0.5158  2.0944
 3343SOL     OW20362   9.660   0.564   0.066  0.2969  0.2064  0.0153
 3343SOL    HW120363   9.687   0.506   0.143 -1.0789 -0.0763  0.3102
 3343SOL    HW220364   9.677   0.660   0.089 -0.1783  0.1320  0.7276
 3344SOL     OW20365   2.127   9.699   1.999  0.4071 -0.2798 -0.5835
 3344SOL    HW120366   2.118   9.765   2.074 -0.1598 -1.6423  0.5780
 3344SOL    HW220367   2.071   9.728   1.921 -1.6971 -0.5626  0.7728
 3345SOL     OW20368   9.376   5.113   3.437 -0.8146 -0.1297 -0.2978
 3345SOL    HW120369   9.368   5.014   3.431  0.2429 -0.1899 -0.7586
 3345SOL    HW220370   9.375   5.152   3.345  0.9549  0.0995 -0.2464
 3346SOL     OW20371   0.524   9.124   0.905  0.1335 -0.1860 -0.4354
 3346SOL    HW120372   0.581   9.206   0.895  0.9633 -0.8161 -1.0302
 3346SOL    HW220373   0.583   9.045   0.922 -0.6102 -0.7775 -0.5917
 3347SOL     OW20374   0.139   9.260   0.234 -0.2982 -0.4957  0.3285
 3347SOL    HW120375   0.150   9.245   0.333  0.9754 -1.7649  0.0171
 3347SOL    HW220376   0.203   9.330   0.203 -1.9445  1.1930  0.7049
 3348SOL     OW20377   0.004   2.686   0.786  0.5313 -0.3568 -0.3041
 3348SOL    HW120378  -0.026   2.595   0.815 -0.6964 -0.5455 -2.1473
 3348SOL    HW220379   0.003   2.747   0.865 -1.9141 -1.0898  0.2757
 3349SOL     OW20380   3.886   1.833   0.432  0.1159 -0.6933  0.3478
 3349SOL    HW120381   3.931   1.916   0.464 -0.3197 -0.1538 -0.4016
 3349SOL    HW220382   3.919   1.811   0.340 -0.2796 -0.9547  0.2665
 3350SOL     OW20383   8.639   0.952   3.178 -0.6510  0.3710 -0.0845
 3350SOL    HW120384   8.649   0.975   3.081  0.2764  0.0159 -0.0794
 3350SOL    HW220385   8.587   0.866   3.186  0.0429 -0.0778 -0.3143
 3351SOL     OW20386   9.815   5.460   2.698  0.5392 -0.1916 -0.4878
 3351SOL    HW120387   9.820   5.537   2.762  0.3662 -0.4799 -0.1284
 3351SOL    HW220388   9.719   5.442   2.675  0.5673 -0.4207 -0.4260
 3352SOL     OW20389   4.709   9.343   0.754 -0.3129  0.3348  0.0677
 3352SOL    HW120390   4.668   9.257   0.724 -0.7874  0.5753  0.0155
 3352SOL    HW220391   4.690   9.358   0.851  3.1957 -1.5788  1.1268
 3353SOL     OW20392   0.787   1.368   2.590  0.4412  0.3398 -0.0379
 3353SOL    HW120393   0.743   1.451   2.557  1.8283  1.0752 -0.0755
 3353SOL    HW220394   0.718   1.306   2.626 -0.4946  2.0662  1.2104
 3354SOL     OW20395   9.533   1.647   1.236 -0.3069 -0.5682  0.4775
 3354SOL    HW120396   9.435   1.654   1.221 -0.2234 -2.0084 -0.8518
 3354SOL    HW220397   9.555   1.673   1.330 -1.8620  0.4447  0.5689
 3355SOL     OW20398   9.645   4.794   2.791 -0.3565 -0.0663 -0.2068
 3355SOL    HW120399   9.670   4.753   2.879  1.7094  0.1848 -0.6618
 3355SOL    HW220400   9.565   4.852   2.803 -2.4506 -2.9964  0.7578
 3356SOL     OW20401   2.046   8.088   0.152  0.5734 -0.5706 -0.0651
 3356SOL    HW120402   2.000   8.057   0.235  1.4111 -0.6045  0.3933
 3356SOL    HW220403   2.068   8.185   0.161 -0.1535 -0.3521 -0.6282
 3357SOL     OW20404   9.273   7.425   2.653 -0.2012  0.0898  0.1419
 3357SOL    HW120405   9.237   7.512   2.618  0.6596  0.3116 -0.2114
 3357SOL    HW220406   9.299   7.367   2.576  2.3340  0.8434  0.3732
 3358SOL     OW20407   0.080   1.585   2.230  0.5415  0.1671  0.2379
 3358SOL    HW120408   0.100   1.621   2.322  1.0151  0.2648  0.0982
 3358SOL    HW220409   0.024   1.650   2.180 -0.0807 -0.0794  0.6141
 3359SOL     OW20410   9.887   9.157   3.179 -0.4350  0.2579 -0.1468
 3359SOL    HW120411   9.902   9.090   3.252  0.0610  0.0187 -0.4664
 3359SOL    HW220412   9.953   9.142   3.106 -1.0786  0.3396 -0.7535
 3360SOL     OW20413   8.777   1.255   0.507  0.4642  0.1166 -0.1356
 3360SOL    HW120414   8.795   1.161   0.535  2.7590  0.2730 -0.9383
 3360SOL    HW220415   8.862   1.308   0.513 -1.1297  2.5680  1.8996
 3361SOL     OW20416   0.685   9.703   1.838  0.0220 -0.0508 -0.0894
 3361SOL    HW120417   0.712   9.796   1.812 -0.0681 -0.1840 -0.6758
 3361SOL    HW220418   0.675   9.648   1.755 -0.3077 -0.4787  0.2384
 3362SOL     OW20419   8.145   0.550   3.016  0.1105 -0.2050  0.4574
 3362SOL    HW120420   8.094   0.536   3.101 -1.0988  0.0616 -0.2078
 3362SOL    HW220421   8.125   0.641   2.979 -1.8867 -1.4816 -1.7504
 3363SOL     OW20422   0.187   3.787   2.396  0.0940  0.5937  0.1402
 3363SOL    HW120423   0.145   3.837   2.320 -1.2397  0.7682  0.9709
 3363SOL    HW220424   0.254   3.846   2.441 -0.8107  1.3260  0.5497
 3364SOL     OW20425   2.919   7.137   2.919 -0.6427  0.3635 -0.5949
 3364SOL    HW120426   2.947   7.233   2.920 -0.1364  0.2128 -0.1595
 3364SOL    HW220427   2.895   7.109   3.012  1.5204 -0.5937 -0.2964
 3365SOL     OW20428   8.323   1.019   0.148 -0.4856 -0.5107 -0.2186
 3365SOL    HW120429   8.394   1.046   0.084  0.6190 -0.1219  1.1460
 3365SOL    HW220430   8.272   1.099   0.178 -1.9568 -0.8585 -1.6779
 3366SOL     OW20431   4.077   7.558   2.635 -0.9458 -0.2939 -0.2789
 3366SOL    HW120432   4.158   7.525   2.587 -0.2023 -0.1230  0.8439
 3366SOL    HW220433   4.072   7.658   2.628 -1.1436 -0.3173 -0.4769
 3367SOL     OW20434   0.954   5.906   0.390  0.5108  0.3227  0.2003
 3367SOL    HW120435   1.053   5.889   0.382  0.8388  1.4931  1.6101
 3367SOL    HW220436   0.927   5.974   0.322  0.7798  0.3960  0.1628
 3368SOL     OW20437   8.975   3.313   2.989  0.3718  0.0057 -0.5543
 3368SOL    HW120438   8.927   3.299   3.076  0.9107  3.2146  0.3201
 3368SOL    HW220439   9.064   3.269   2.993 -0.1073 -0.9227  0.0513
 3369SOL     OW20440   0.195   5.746   1.545  0.6615  0.5325 -0.2095
 3369SOL    HW120441   0.155   5.721   1.633 -0.2798  0.4486 -0.6659
 3369SOL    HW220442   0.243   5.667   1.506 -0.9804 -0.1215 -0.9128
 3370SOL     OW20443   0.837   4.835   2.877  0.2537  0.0205  0.4772
 3370SOL    HW120444   0.809   4.739   2.890 -0.2634  0.3327  1.8110
 3370SOL    HW220445   0.848   4.878   2.967  0.1139  1.3174 -0.1214
 3371SOL     OW20446   9.560   0.102   0.986 -0.5101 -0.2165 -0.4910
 3371SOL    HW120447   9.479   0.158   1.000 -0.7530 -0.4708 -0.8603
 3371SOL    HW220448   9.611   0.094   1.072  0.7172  2.3850 -0.9305
 3372SOL     OW20449   3.748   0.423   0.579  0.3756  0.0619 -0.3788
 3372SOL    HW120450   3.668   0.464   0.624  2.3058  3.1616  0.3259
 3372SOL    HW220451   3.735   0.324   0.574 -2.4360  0.2280  1.8971
 3373SOL     OW20452   1.020   1.037   0.463 -0.4305 -0.4276 -0.1155
 3373SOL    HW120453   1.052   1.101   0.533 -0.4467 -0.8123  0.2449
 3373SOL    HW220454   0.989   0.952   0.506  1.1989 -1.3568 -0.6862
 3374SOL     OW20455   2.186   4.358   1.254 -0.6633  0.1231  0.1651
 3374SOL    HW120456   2.195   4.421   1.177  1.8470  1.1137  1.2244
 3374SOL    HW220457   2.105   4.382   1.307 -0.2832  1.8242  0.0008
 3375SOL     OW20458   9.235   0.983   2.041  0.0202 -0.2803 -0.1909
 3375SOL    HW120459   9.328   0.983   2.004 -0.0312 -0.3757 -0.3174
 3375SOL    HW220460   9.238   0.962   2.139  0.1899  0.3238 -0.0611
 3376SOL     OW20461   9.215   5.767   3.406 -0.5411  0.2826 -0.1466
 3376SOL    HW120462   9.310   5.737   3.398 -1.2430 -2.7447  1.7187
 3376SOL    HW220463   9.192   5.779   3.503 -1.6195  2.6223 -0.6579
 3377SOL     OW20464   9.982   3.713   0.582  0.5381 -0.2233 -0.1506
 3377SOL    HW120465   9.918   3.670   0.518 -1.3052  2.4314 -0.1534
 3377SOL    HW220466  10.052   3.762   0.531 -0.6029  1.4138 -0.1903
 3378SOL     OW20467   2.565   3.431   3.211 -0.4567  0.1176 -0.7479
 3378SOL    HW120468   2.652   3.480   3.212 -0.3524 -0.0730  0.2125
 3378SOL    HW220469   2.575   3.348   3.157 -0.1541  0.2931 -0.9672
 3379SOL     OW20470   4.484   8.505   1.397  0.3339 -0.1411  0.0004
 3379SOL    HW120471   4.476   8.417   1.350  0.7034 -0.1354 -0.0730
 3379SOL    HW220472   4.574   8.545   1.378  1.6921 -1.5472  3.1324
 3380SOL     OW20473   8.141   2.866   0.759 -0.4611  0.3276 -0.2660
 3380SOL    HW120474   8.099   2.846   0.670 -0.8493  1.2435 -0.2930
 3380SOL    HW220475   8.104   2.952   0.794  1.6453  1.3100 -0.4363
 3381SOL     OW20476   1.320   2.674   1.999  0.3435  0.1789 -0.3087
 3381SOL    HW120477   1.256   2.675   1.923 -1.8413 -1.9501  1.4370
 3381SOL    HW220478   1.378   2.592   1.993 -0.4479 -0.4722  0.7920
 3382SOL     OW20479   0.295   7.263   2.892  0.4820  0.5316 -0.3274
 3382SOL    HW120480   0.248   7.235   2.808  0.6625 -0.9228  0.0443
 3382SOL    HW220481   0.390   7.233   2.889  0.6895  1.1396  0.0721
 3383SOL     OW20482   1.490   8.186   0.566 -0.3016 -0.5198  0.5373
 3383SOL    HW120483   1.468   8.140   0.479 -2.0874  2.6761 -0.7985
 3383SOL    HW220484   1.428   8.154   0.637 -2.3202  0.6321 -0.6639
 3384SOL     OW20485   1.068   7.886   2.732  0.4410 -0.2979  0.7200
 3384SOL    HW120486   1.031   7.798   2.703  1.2469 -0.0551 -1.0871
 3384SOL    HW220487   1.008   7.959   2.702  0.4046 -0.1467  1.1541
 3385SOL     OW20488   8.444   0.490   3.417 -0.3964  0.3286 -0.1640
 3385SOL    HW120489   8.387   0.408   3.429  0.3009  0.0135  1.0564
 3385SOL    HW220490   8.385   0.569   3.399 -1.2016 -0.0825  0.6128
 3386SOL     OW20491   9.493   6.913   1.151  0.3433 -0.0083  0.1490
 3386SOL    HW120492   9.520   6.880   1.242  1.5768 -0.0872 -0.2349
 3386SOL    HW220493   9.571   6.905   1.089 -0.4255  0.2817 -0.8541
 3387SOL     OW20494   2.998   3.226   3.407 -0.0132  0.1950  0.4239
 3387SOL    HW120495   3.005   3.139   3.457 -1.8366  1.0339  2.2312
 3387SOL    HW220496   2.935   3.287   3.456  0.9808  2.4162 -0.9994
 3388SOL     OW20497   2.314   8.789   1.768  0.4623  0.3362  0.3222
 3388SOL    HW120498   2.398   8.782   1.821  0.5121  0.2101  0.2265
 3388SOL    HW220499   2.278   8.697   1.751  0.2857  0.3915  0.3968
 3389SOL     OW20500   5.004   7.905   1.245 -0.4750  0.0893  0.0208
 3389SOL    HW120501   4.969   7.962   1.319  0.4264 -0.7941  1.1416
 3389SOL    HW220502   5.069   7.958   1.190 -1.6632  0.9592 -0.5639
 3390SOL     OW20503   9.481   1.693   0.346  0.1164  0.2379 -0.1405
 3390SOL    HW120504   9.400   1.636   0.358 -0.3549  1.1177  1.0811
 3390SOL    HW220505   9.517   1.683   0.253 -1.3315 -0.2319 -0.6527
 3391SOL     OW20506   1.576   0.149   0.191  0.0590  0.0518  0.4022
 3391SOL    HW120507   1.526   0.228   0.156  2.2362  0.4411 -1.9737
 3391SOL    HW220508   1.664   0.178   0.228  0.0703 -1.0294  1.2588
 3392SOL     OW20509   8.320   6.727   0.024 -0.0726 -0.2617  0.5144
 3392SOL    HW120510   8.354   6.791  -0.044 -1.4805 -1.4075 -1.3219
 3392SOL    HW220511   8.285   6.778   0.103  3.1359  1.0213  1.1986
 3393SOL     OW20512   2.411   2.251   0.659 -0.8394  0.0409 -0.4528
 3393SOL    HW120513   2.368   2.179   0.605 -0.9659  0.3505 -0.7628
 3393SOL    HW220514   2.485   2.293   0.607 -0.2852 -0.3574  0.0032
 3394SOL     OW20515   3.829   3.524   2.288 -0.6155 -0.2320 -0.3935
 3394SOL    HW120516   3.870   3.523   2.379  0.3644 -1.8698 -0.8353
 3394SOL    HW220517   3.731   3.542   2.296 -0.2014  1.5217  0.8362
 3395SOL     OW20518   2.572   8.199   2.084 -0.1697  0.3368  0.1240
 3395SOL    HW120519   2.648   8.135   2.097 -0.9592 -1.1044 -2.1643
 3395SOL    HW220520   2.506   8.187   2.159  1.4604  1.0811  1.7138
 3396SOL     OW20521   1.534   0.030   2.534  0.1674  0.7772 -0.3859
 3396SOL    HW120522   1.543   0.113   2.478  1.1801  0.3591 -0.8451
 3396SOL    HW220523   1.601   0.033   2.608  0.5797  0.0999 -0.7341
 3397SOL     OW20524   2.505   9.949   2.233  0.3610  0.2589 -0.3981
 3397SOL    HW120525   2.583  10.006   2.257 -0.0277  1.0086 -0.8790
 3397SOL    HW220526   2.433  10.006   2.193 -0.2565 -0.4880 -0.3679
 3398SOL     OW20527   9.470   5.519   0.614 -0.1527 -0.2802  0.4326
 3398SOL    HW120528   9.409   5.586   0.658 -2.4177 -1.1184 -1.3369
 3398SOL    HW220529   9.494   5.448   0.680  0.6257  1.1671  1.7448
 3399SOL     OW20530   1.669   9.263   2.038 -0.0807 -0.5728  0.3778
 3399SOL    HW120531   1.703   9.207   1.962 -0.7534 -0.4831  0.0076
 3399SOL    HW220532   1.623   9.203   2.104 -1.2080 -0.4030 -0.2459
 3400SOL     OW20533   0.415   6.478   0.803  0.1501  0.1454  0.2665
 3400SOL    HW120534   0.400   6.436   0.714  0.6869 -2.7004  1.4782
 3400SOL    HW220535   0.469   6.562   0.791 -1.0018  0.5878 -2.1958
 3401SOL     OW20536   2.613   6.498   2.584 -0.5539  0.5631 -0.2465
 3401SOL    HW120537   2.649   6.579   2.630  1.1777 -0.4853  0.2906
 3401SOL    HW220538   2.687   6.454   2.532 -1.4249 -0.7738 -0.3709
 3402SOL     OW20539   8.860   7.943   1.364 -0.3176 -0.5872 -0.3987
 3402SOL    HW120540   8.857   8.043   1.368  1.9910 -0.5153  0.6618
 3402SOL    HW220541   8.882   7.907   1.455  0.9227 -1.9191 -1.1999
 3403SOL     OW20542   2.880   0.429   0.442  0.3880  0.5076  0.5655
 3403SOL    HW120543   2.783   0.451   0.452  0.6390  1.9553 -0.0421
 3403SOL    HW220544   2.900   0.342   0.487 -0.8974  0.9373  1.9984
 3404SOL     OW20545   0.515   4.134   0.834  0.6420  0.1236  0.1347
 3404SOL    HW120546   0.425   4.093   0.850  0.1092  1.0623 -0.3802
 3404SOL    HW220547   0.505   4.233   0.824  1.7825  0.2756  0.4133
 3405SOL     OW20548   0.205   3.021   1.223 -0.3617 -0.4170  0.0985
 3405SOL    HW120549   0.235   3.061   1.137  0.9824 -0.0342  0.7322
 3405SOL    HW220550   0.269   2.950   1.252 -0.9317 -0.7061  0.6660
 3406SOL     OW20551   3.684   5.143   1.233 -0.0402  0.2592 -0.3405
 3406SOL    HW120552   3.758   5.085   1.199  2.8215  3.9236 -0.7120
 3406SOL    HW220553   3.709   5.178   1.324 -2.9144 -1.1588  1.0514
 3407SOL     OW20554   3.359   0.791   3.365  0.4731 -0.0549 -0.5353
 3407SOL    HW120555   3.399   0.712   3.412  1.1132  1.2293  1.0997
 3407SOL    HW220556   3.419   0.820   3.291  0.7368 -0.4387 -0.4734
 3408SOL     OW20557   7.287   9.486   2.938 -0.2564  0.1142  0.4446
 3408SOL    HW120558   7.224   9.527   2.871  1.0755 -0.0101 -0.9146
 3408SOL    HW220559   7.289   9.387   2.925 -0.8173 -0.0277  1.4052
 3409SOL     OW20560   8.195   0.545   1.352  0.1409 -0.5939 -0.4129
 3409SOL    HW120561   8.160   0.488   1.427  0.5790 -1.6264 -0.9839
 3409SOL    HW220562   8.219   0.636   1.388  0.3322 -1.0693  0.7026
 3410SOL     OW20563   8.942   5.968   2.623  0.1394 -0.2457  0.1082
 3410SOL    HW120564   9.004   6.028   2.572 -0.6824 -0.5632 -1.2796
 3410SOL    HW220565   8.911   5.893   2.565 -1.3861 -0.2100  0.8335
 3411SOL     OW20566   1.848   5.271   2.368 -0.2555  0.1785  0.3878
 3411SOL    HW120567   1.866   5.201   2.438 -0.0774  0.8094  0.9759
 3411SOL    HW220568   1.930   5.283   2.312 -0.0530  0.3990  0.7232
 3412SOL     OW20569   4.577   3.739   1.555 -0.2255 -0.0455 -0.5391
 3412SOL    HW120570   4.550   3.643   1.553 -2.8987  0.6724 -0.5977
 3412SOL    HW220571   4.561   3.777   1.647  2.9320 -0.1971  0.1312
 3413SOL     OW20572   2.859   6.664   1.087 -0.0941 -0.1261 -0.0269
 3413SOL    HW120573   2.877   6.743   1.146 -0.3645 -0.1310  0.0591
 3413SOL    HW220574   2.774   6.620   1.115  1.0932 -1.6624  1.2310
 3414SOL     OW20575   0.277   6.616   2.805  0.1739 -0.0615 -0.3610
 3414SOL    HW120576   0.193   6.665   2.826 -0.7846 -1.0310 -1.8076
 3414SOL    HW220577   0.282   6.533   2.860  0.0378 -0.1338 -0.4557
 3415SOL     OW20578   0.169   4.558   1.155 -0.1947 -0.2296 -0.0174
 3415SOL    HW120579   0.127   4.492   1.093 -0.4373  0.3909 -0.5123
 3415SOL    HW220580   0.114   4.641   1.159 -0.1402 -0.2371  0.9742
 3416SOL     OW20581   3.284   2.557   1.870 -0.7072 -0.0130  0.0803
 3416SOL    HW120582   3.260   2.483   1.807 -0.3447  0.7737 -1.0127
 3416SOL    HW220583   3.319   2.518   1.955 -1.2531 -1.0997 -0.1745
 3417SOL     OW20584   8.090   6.598   0.677  0.2931  0.2901  0.2136
 3417SOL    HW120585   8.089   6.534   0.754  0.3526  0.4134  0.3177
 3417SOL    HW220586   8.043   6.682   0.703 -1.8011 -0.5660 -0.6779
 3418SOL     OW20587   4.186   5.236   1.932  0.2246  0.4484  0.0962
 3418SOL    HW120588   4.164   5.202   2.023  1.5039  0.8981  0.5806
 3418SOL    HW220589   4.143   5.177   1.863  3.8190 -3.3456  0.8526
 3419SOL     OW20590   3.073   9.578   0.160 -0.5889  0.1523  0.8899
 3419SOL    HW120591   3.032   9.508   0.219 -0.9125 -0.2554  0.1825
 3419SOL    HW220592   3.018   9.589   0.078  0.0108  0.5310  0.5324
 3420SOL     OW20593   3.869   2.074   1.706 -0.2607  0.2823  0.4482
 3420SOL    HW120594   3.853   2.123   1.791  0.4679  0.8198  0.2834
 3420SOL    HW220595   3.962   2.093   1.673 -0.1967 -0.6865  0.0373
 3421SOL     OW20596   1.273   9.003   1.625  0.1478 -0.6336 -1.5583
 3421SOL    HW120597   1.331   9.001   1.707 -0.7488  0.6782 -0.8754
 3421SOL    HW220598   1.302   9.078   1.566 -0.8020 -0.0419 -1.2655
 3422SOL     OW20599   2.357   3.465   2.968  0.3153  0.2688  0.5907
 3422SOL    HW120600   2.444   3.416   2.974 -0.0069 -0.4895 -0.9854
 3422SOL    HW220601   2.294   3.416   2.908 -1.2661  0.7426  1.8242
 3423SOL     OW20602   9.456   3.619   0.897 -0.5335  0.2735 -0.5997
 3423SOL    HW120603   9.517   3.656   0.967 -0.7477 -1.8110  0.7198
 3423SOL    HW220604   9.507   3.607   0.811  1.1840 -2.3100  0.7345
 3424SOL     OW20605   0.500   8.002   1.405 -0.3830  0.4735 -0.1497
 3424SOL    HW120606   0.566   7.944   1.357 -1.3660  0.0263 -0.9726
 3424SOL    HW220607   0.457   8.065   1.341  1.0273  2.5083  0.8180
 3425SOL     OW20608   1.848   7.619   3.118  0.6666 -0.5047  0.4289
 3425SOL    HW120609   1.832   7.662   3.029 -0.5208  1.7131  1.6663
 3425SOL    HW220610   1.892   7.531   3.105 -0.8616 -0.8997 -2.4496
 3426SOL     OW20611   1.085   6.342   1.072  0.7264  0.4983 -0.1185
 3426SOL    HW120612   1.116   6.302   0.986  2.4744  0.3033  0.5954
 3426SOL    HW220613   1.099   6.441   1.070  0.0406  0.5933 -0.3561
 3427SOL     OW20614   1.488   9.627   0.471  0.3480  0.4398  0.2151
 3427SOL    HW120615   1.552   9.576   0.413  1.4790  1.4237  0.6029
 3427SOL    HW220616   1.465   9.713   0.427  0.8897  1.0099  1.0516
 3428SOL     OW20617   8.193   2.138   3.367 -0.1620  0.1940 -0.0129
 3428SOL    HW120618   8.267   2.081   3.331 -0.7823  0.6061 -1.9995
 3428SOL    HW220619   8.166   2.104   3.458  0.6439 -1.6148 -0.4276
 3429SOL     OW20620   2.024   1.013   0.265  0.3396 -0.2970 -0.8258
 3429SOL    HW120621   1.942   0.961   0.239 -0.6114  0.5435  0.4727
 3429SOL    HW220622   2.024   1.028   0.363  1.1117  1.3310 -1.0635
 3430SOL     OW20623   3.979   8.060   2.453 -0.2104 -0.0207 -0.7372
 3430SOL    HW120624   4.023   8.016   2.374 -1.3307  0.5207 -1.6899
 3430SOL    HW220625   3.911   8.125   2.420 -1.2353 -0.3471  0.7011
 3431SOL     OW20626   4.032   7.782   3.184 -0.1760  0.3034 -0.6064
 3431SOL    HW120627   4.116   7.819   3.225 -0.4922  0.3100  0.0423
 3431SOL    HW220628   3.960   7.780   3.253 -1.0460  1.4012 -1.4856
 3432SOL     OW20629   1.268   3.981   0.953 -0.7514  0.2095  0.1844
 3432SOL    HW120630   1.211   3.902   0.931 -1.7290  1.0760 -0.4185
 3432SOL    HW220631   1.365   3.956   0.945 -1.0496 -1.0154  0.3356
 3433SOL     OW20632   8.469   3.571   1.026 -0.2451  0.3095  0.8825
 3433SOL    HW120633   8.384   3.519   1.013 -0.6349  0.6557  1.9597
 3433SOL    HW220634   8.535   3.514   1.074  0.3039 -0.1129 -0.3489
 3434SOL     OW20635   9.022   2.255   1.981  0.3614 -0.0429 -0.1253
 3434SOL    HW120636   9.088   2.225   2.050  0.7061  0.2515 -0.3282
 3434SOL    HW220637   8.930   2.227   2.009  0.2973  1.5366  1.2776
 3435SOL     OW20638   4.366   3.688   2.253  0.6650  0.2912 -0.0504
 3435SOL    HW120639   4.400   3.771   2.297 -0.2291  0.8424 -0.3971
 3435SOL    HW220640   4.295   3.712   2.188  1.4367 -0.5973 -1.2383
 3436SOL     OW20641   7.899   1.157   0.833  0.2577  0.2165 -0.5285
 3436SOL    HW120642   7.808   1.159   0.793 -0.1919  1.4635  0.5066
 3436SOL    HW220643   7.929   1.251   0.853  0.5460 -0.3326  1.7965
 3437SOL     OW20644   8.457   4.445   0.102 -0.5929 -0.3741 -0.4303
 3437SOL    HW120645   8.451   4.472   0.006  0.6459  0.6228 -0.2440
 3437SOL    HW220646   8.547   4.405   0.119 -0.5231  0.1804  0.4964
 3438SOL     OW20647   0.981   5.519   0.696  0.2001  0.2925  0.3805
 3438SOL    HW120648   0.977   5.424   0.666  0.0759  0.1388  0.8809
 3438SOL    HW220649   0.909   5.535   0.764  0.7097  0.5509  0.8572
 3439SOL     OW20650   1.558   9.786   2.389  0.1079 -0.6244  0.4073
 3439SOL    HW120651   1.523   9.870   2.430 -0.4461  1.5547 -4.1907
 3439SOL    HW220652   1.481   9.731   2.355  0.6594  0.6422 -3.1358
 3440SOL     OW20653   0.989   5.968   2.784 -0.2938  0.1279  0.1047
 3440SOL    HW120654   1.000   6.054   2.733 -0.0388 -1.1070 -1.9926
 3440SOL    HW220655   0.903   5.926   2.758  0.1696 -0.8641  0.1655
 3441SOL     OW20656   3.182   3.915   1.151 -0.0937  0.5400 -0.3480
 3441SOL    HW120657   3.181   4.007   1.190  2.3777  0.5777 -0.3293
 3441SOL    HW220658   3.210   3.920   1.055 -1.4713 -0.0626 -0.8014
 3442SOL     OW20659   8.976   8.705   1.814 -0.1093  0.5068 -0.5753
 3442SOL    HW120660   8.893   8.677   1.862  0.1161  1.1595  0.1908
 3442SOL    HW220661   8.998   8.799   1.837  0.0473  0.8090 -1.8895
 3443SOL     OW20662   1.541   8.758   2.636  0.2469  0.4989 -0.0986
 3443SOL    HW120663   1.615   8.711   2.587 -0.6195  0.6630 -1.6149
 3443SOL    HW220664   1.579   8.835   2.687  1.4803 -1.0125  1.3049
 3444SOL     OW20665   9.305   9.412   1.569  0.0045 -0.1635  0.5095
 3444SOL    HW120666   9.348   9.370   1.489  0.3165  0.5485  0.2883
 3444SOL    HW220667   9.371   9.415   1.644 -0.5056 -1.4509  1.0196
 3445SOL     OW20668   2.933   5.458   3.027 -0.0201 -0.0813 -0.5515
 3445SOL    HW120669   3.014   5.413   2.990  1.7312  0.4902  2.4256
 3445SOL    HW220670   2.919   5.545   2.980  0.3876 -0.7350 -1.8943
 3446SOL     OW20671   8.114   1.076   0.410 -0.1021  0.6896  0.3693
 3446SOL    HW120672   8.117   1.100   0.313  0.0620  0.9365  0.4365
 3446SOL    HW220673   8.191   1.017   0.433  1.2414  2.6100  0.8876
 3447SOL     OW20674   5.010   0.065   2.221 -0.3363  0.1527 -0.4045
 3447SOL    HW120675   4.945   0.116   2.165  1.7703  0.5021 -2.5882
 3447SOL    HW220676   5.080   0.025   2.163  1.8451  0.3996  1.9767
 3448SOL     OW20677   3.123   5.500   0.167 -0.1171  0.1964 -0.7069
 3448SOL    HW120678   3.199   5.454   0.121 -0.9718 -0.1278 -1.8114
 3448SOL    HW220679   3.158   5.550   0.247  1.0400 -1.1625 -0.3271
 3449SOL     OW20680   1.989   7.463   2.441  0.2374 -0.2905 -0.0019
 3449SOL    HW120681   1.967   7.447   2.344  0.2486  0.2108 -0.0877
 3449SOL    HW220682   1.994   7.561   2.458  1.5938 -0.3879  0.2073
 3450SOL     OW20683   2.510   8.757   3.153  0.1143 -0.3180 -0.3279
 3450SOL    HW120684   2.598   8.711   3.165 -0.9152 -1.9687  1.2690
 3450SOL    HW220685   2.471   8.731   3.065  0.8293 -0.2658 -0.6665
 3451SOL     OW20686   4.011   3.230   0.455  0.2249 -0.2955 -0.3144
 3451SOL    HW120687   3.948   3.210   0.530 -0.7086 -1.0426 -1.2854
 3451SOL    HW220688   4.105   3.223   0.488 -0.1863  0.8054  1.1438
 3452SOL     OW20689   0.432   0.049   1.733 -0.0948  0.0601  0.3780
 3452SOL    HW120690   0.421   0.036   1.831  0.4608  1.3166  0.6157
 3452SOL    HW220691   0.448   0.145   1.713 -0.4301 -0.1471 -0.9714
 3453SOL     OW20692   1.230   5.694   0.652  0.1497 -0.3971  0.2585
 3453SOL    HW120693   1.311   5.716   0.708 -0.7700 -0.0882  1.5004
 3453SOL    HW220694   1.168   5.637   0.705  0.0209 -1.5063 -1.0692
 3454SOL     OW20695   3.329   4.375   3.008  0.6537 -0.4746 -0.0183
 3454SOL    HW120696   3.398   4.302   3.004  1.3834  0.2318 -0.4496
 3454SOL    HW220697   3.363   4.456   2.960 -0.4227 -0.0687 -0.1081
 3455SOL     OW20698   0.725   5.209   0.342  0.0150 -0.0207  0.2605
 3455SOL    HW120699   0.689   5.186   0.252 -0.9057  0.0759  0.5961
 3455SOL    HW220700   0.748   5.306   0.345 -1.2625  0.2791  0.5590
 3456SOL     OW20701   0.609   5.257   2.482 -0.1374  0.1679 -0.1538
 3456SOL    HW120702   0.532   5.252   2.545  0.5442  0.6150  0.7252
 3456SOL    HW220703   0.609   5.178   2.422 -1.7642  0.5924 -0.7189
 3457SOL     OW20704   3.913   7.882   1.599 -0.4456 -0.2424 -0.6144
 3457SOL    HW120705   3.879   7.964   1.644 -0.9845 -0.7795 -0.0237
 3457SOL    HW220706   3.856   7.863   1.518 -0.6954 -0.3740 -0.4074
 3458SOL     OW20707   3.248   8.847   2.338  0.0756 -0.3245  0.1663
 3458SOL    HW120708   3.270   8.905   2.417 -0.6682  0.9382 -0.5426
 3458SOL    HW220709   3.168   8.883   2.291 -0.8143 -2.3409  0.0999
 3459SOL     OW20710   1.108   7.368   0.959  0.0361  0.1353 -0.5835
 3459SOL    HW120711   1.149   7.458   0.975 -1.1424  0.5087  0.4180
 3459SOL    HW220712   1.008   7.378   0.957 -0.0946 -1.1578 -0.4687
 3460SOL     OW20713   3.967   1.247   2.772  0.1831  0.6072  0.1663
 3460SOL    HW120714   3.958   1.341   2.737 -0.6241  0.8017  0.8821
 3460SOL    HW220715   3.901   1.188   2.724  1.0490  0.2910 -0.6546
 3461SOL     OW20716   3.522   3.586   2.825  0.8836 -0.7924  0.2544
 3461SOL    HW120717   3.520   3.566   2.923 -0.9063  0.3657  0.4772
 3461SOL    HW220718   3.436   3.559   2.783  1.0919  0.0038 -0.7236
 3462SOL     OW20719   4.688   9.949   0.158  0.1830 -0.4575  0.4280
 3462SOL    HW120720   4.646   9.929   0.247  0.0944 -2.2741  0.0042
 3462SOL    HW220721   4.626   9.921   0.085  1.6180 -2.1199 -0.1975
 3463SOL     OW20722   8.341   9.129   1.297 -0.1158 -0.4283 -0.2292
 3463SOL    HW120723   8.297   9.075   1.369  2.5576  1.6660  3.0694
 3463SOL    HW220724   8.272   9.183   1.250 -1.6483 -0.1118  2.2823
 3464SOL     OW20725   7.794   0.705   0.795  0.3869  0.0429 -0.3909
 3464SOL    HW120726   7.820   0.642   0.868 -1.0806  0.3325  0.4058
 3464SOL    HW220727   7.865   0.775   0.784  0.3500  0.3461  1.1640
 3465SOL     OW20728   1.863   0.608   0.620  0.0802  0.0730  0.2293
 3465SOL    HW120729   1.828   0.691   0.664 -0.6089  0.2360 -0.6109
 3465SOL    HW220730   1.962   0.615   0.611  0.1084  0.4870  0.8283
 3466SOL     OW20731   1.076   3.601   1.752  0.4915 -0.1193  0.1608
 3466SOL    HW120732   1.004   3.666   1.777 -0.2665 -0.5157 -0.9351
 3466SOL    HW220733   1.074   3.523   1.814  0.1619  0.0049  0.3093
 3467SOL     OW20734   9.884   9.228   0.932  0.4922 -0.0030  0.5048
 3467SOL    HW120735   9.914   9.213   1.027 -0.2501  0.0928  0.7538
 3467SOL    HW220736   9.843   9.144   0.896  1.7717 -0.3819 -0.1064
 3468SOL     OW20737   3.996   4.616   3.444 -0.0066 -0.3912 -0.2311
 3468SOL    HW120738   3.980   4.714   3.457 -2.2060 -0.5087 -1.7177
 3468SOL    HW220739   4.027   4.600   3.350 -2.7819 -1.4124 -1.0234
 3469SOL     OW20740   9.796   0.028   3.390  0.2723  0.1978  0.1562
 3469SOL    HW120741   9.874   0.088   3.404 -0.5934  2.0716 -2.5387
 3469SOL    HW220742   9.714   0.083   3.374 -1.2324 -1.7301  1.0181
 3470SOL     OW20743   1.549   1.743   1.294 -0.4122 -0.2112 -0.3810
 3470SOL    HW120744   1.489   1.680   1.244 -0.5843  0.4352 -0.9982
 3470SOL    HW220745   1.639   1.701   1.306 -0.4204 -0.4448 -1.0984
 3471SOL     OW20746   3.458   8.500   1.449 -0.3291 -0.4375  0.8737
 3471SOL    HW120747   3.446   8.459   1.359 -0.2243 -1.5852  1.3729
 3471SOL    HW220748   3.370   8.505   1.496 -0.5509  1.0593  0.3486
 3472SOL     OW20749   4.663   8.774   0.601  0.8407  0.2882 -0.3471
 3472SOL    HW120750   4.734   8.707   0.622 -0.3668 -0.8223  0.3223
 3472SOL    HW220751   4.680   8.814   0.511  2.1456 -0.1731 -0.3114
 3473SOL     OW20752   8.585   1.376   0.651 -0.1270 -0.1065  0.1778
 3473SOL    HW120753   8.661   1.352   0.591  0.8358  2.1542  0.4490
 3473SOL    HW220754   8.503   1.326   0.623  1.2458 -1.9775 -0.6084
 3474SOL     OW20755   4.892   9.784   2.655 -0.0415 -0.0102 -0.0713
 3474SOL    HW120756   4.798   9.762   2.628 -0.0815 -2.2809  1.8384
 3474SOL    HW220757   4.953   9.765   2.579 -0.8330 -0.9268 -0.4963
 3475SOL     OW20758   9.939   5.080   2.442  0.3720  0.0110  0.6987
 3475SOL    HW120759   9.885   5.043   2.518  0.0462  0.8284  0.8754
 3475SOL    HW220760   9.918   5.177   2.431  2.4505  0.5511  1.3232
 3476SOL     OW20761   0.455   5.548   1.020  0.7477 -0.2488 -0.1358
 3476SOL    HW120762   0.440   5.454   1.050 -1.2715  0.5746  1.5349
 3476SOL    HW220763   0.411   5.561   0.931 -1.6379 -0.0840  1.0270
 3477SOL     OW20764   0.838   2.155   3.387  0.4063 -0.9752 -0.1185
 3477SOL    HW120765   0.905   2.205   3.331 -0.8991  0.3264 -0.5656
 3477SOL    HW220766   0.872   2.063   3.406  1.6428 -0.8542 -1.6281
 3478SOL     OW20767   2.407   1.114   3.352 -0.2364 -0.4180 -0.0840
 3478SOL    HW120768   2.465   1.082   3.277  1.5441 -0.5858  1.3475
 3478SOL    HW220769   2.438   1.204   3.382 -1.3080 -0.1022  0.0933
 3479SOL     OW20770   9.294   7.531   1.906  0.6358 -0.2438  0.0158
 3479SOL    HW120771   9.281   7.566   1.814 -0.8428 -0.9662 -0.0709
 3479SOL    HW220772   9.373   7.575   1.948 -0.4394  2.3116 -0.5219
 3480SOL     OW20773   0.372   4.865   3.272  0.3287 -0.5192  0.1187
 3480SOL    HW120774   0.312   4.926   3.324  0.6136 -0.0963 -0.0473
 3480SOL    HW220775   0.316   4.804   3.214  0.0734  0.0907 -0.2761
 3481SOL     OW20776   3.459   7.864   0.546  0.2855 -0.7168 -0.2571
 3481SOL    HW120777   3.520   7.943   0.533  1.0613 -0.9181  1.9077
 3481SOL    HW220778   3.511   7.780   0.532  0.0996 -0.8671 -0.0385
 3482SOL     OW20779   9.654   7.568   3.006 -0.0484  0.0413 -0.0696
 3482SOL    HW120780   9.706   7.483   3.014 -0.0408 -0.0316 -0.8368
 3482SOL    HW220781   9.636   7.587   2.910  0.2091  1.0733  0.0824
 3483SOL     OW20782   9.036   5.401   3.346  0.1424  0.2428 -0.7352
 3483SOL    HW120783   8.948   5.432   3.382 -0.2420 -2.1560  0.4784
 3483SOL    HW220784   9.097   5.379   3.422  1.0300 -0.1973 -1.5747
 3484SOL     OW20785   3.199   4.765   2.254 -0.2154 -0.5493 -0.1513
 3484SOL    HW120786   3.272   4.762   2.323 -0.0104 -0.5921 -0.3700
 3484SOL    HW220787   3.222   4.702   2.180 -0.7500 -0.9887  0.0523
 3485SOL     OW20788   0.702   7.690   2.506  0.1953  0.7049  0.0254
 3485SOL    HW120789   0.623   7.671   2.447  0.5557  0.6638 -0.4519
 3485SOL    HW220790   0.683   7.772   2.561 -0.5899  0.0892  0.6825
 3486SOL     OW20791   3.001   6.974   0.950 -0.3033  0.4525  1.2325
 3486SOL    HW120792   3.059   6.912   1.004  0.6536  0.8526  0.6747
 3486SOL    HW220793   2.907   6.968   0.983 -0.6748 -2.9522 -0.2658
 3487SOL     OW20794   9.835   4.109   3.058  0.2698  0.0498  0.4518
 3487SOL    HW120795   9.868   4.182   2.998 -0.3654  0.9201  1.1560
 3487SOL    HW220796   9.752   4.140   3.105  0.4580 -0.8344  1.3566
 3488SOL     OW20797   0.408   1.656   2.467  0.1429  0.4393 -0.3536
 3488SOL    HW120798   0.401   1.636   2.370 -1.4396 -0.3098 -0.0885
 3488SOL    HW220799   0.345   1.598   2.519  1.6686  0.1285  1.2250
 3489SOL     OW20800   2.669   6.718   2.749 -0.1467 -0.5498  0.1167
 3489SOL    HW120801   2.752   6.763   2.714 -1.3606  1.2579 -0.5541
 3489SOL    HW220802   2.591   6.780   2.738 -1.2819 -1.5121  2.4123
 3490SOL     OW20803   3.020   1.134   0.460  0.2976 -0.7598  0.0097
 3490SOL    HW120804   3.001   1.158   0.365  1.6368 -1.5034 -0.4627
 3490SOL    HW220805   2.979   1.202   0.521 -1.1307 -0.6312 -1.0658
 3491SOL     OW20806   2.260   3.649   3.108  0.2203 -0.5537 -0.5470
 3491SOL    HW120807   2.300   3.639   3.199  1.2308 -0.4966 -0.9781
 3491SOL    HW220808   2.297   3.578   3.047 -0.9877 -1.0442 -0.7378
 3492SOL     OW20809   5.218   9.735   2.003  0.7040 -0.1025 -0.0115
 3492SOL    HW120810   5.121   9.751   1.987  0.7728  0.6583  0.3139
 3492SOL    HW220811   5.267   9.740   1.916  0.9718  3.2708  0.2770
 3493SOL     OW20812   7.089   9.594   2.682  0.3431 -0.8004  0.3905
 3493SOL    HW120813   7.019   9.598   2.752  0.7179 -0.8427  0.7700
 3493SOL    HW220814   7.061   9.530   2.610 -0.4036 -0.1565  0.0922
 3494SOL     OW20815   8.344   9.577   2.348  0.3506  0.4651  0.6867
 3494SOL    HW120816   8.327   9.610   2.255  2.4180  0.1768  0.1610
 3494SOL    HW220817   8.317   9.481   2.354  3.5247 -0.5934 -0.7268
 3495SOL     OW20818   5.684   9.133   2.725  0.0484 -0.1255 -0.4799
 3495SOL    HW120819   5.731   9.217   2.699  0.3929 -0.7379 -1.8624
 3495SOL    HW220820   5.751   9.062   2.746 -0.2456 -0.2034  0.2118
 3496SOL     OW20821   9.795   7.756   0.946  0.6580  0.3975 -0.1624
 3496SOL    HW120822   9.797   7.692   0.870  2.5233 -0.0789  0.2614
 3496SOL    HW220823   9.764   7.845   0.913  0.0937 -0.1683 -1.1874
 3497SOL     OW20824   2.771   9.778   3.229  0.7462  0.0609  0.3180
 3497SOL    HW120825   2.728   9.789   3.318 -0.0795  0.1570 -0.0863
 3497SOL    HW220826   2.758   9.684   3.197  0.0738  0.3217 -0.1906
 3498SOL     OW20827   2.098   1.901   2.997  0.0714 -0.2677 -0.1158
 3498SOL    HW120828   2.105   1.876   2.900  0.3289 -0.3950 -0.0657
 3498SOL    HW220829   2.003   1.894   3.026  0.2002 -1.6611  0.0196
 3499SOL     OW20830   3.091   7.245   0.002 -0.5193  0.0074 -0.2602
 3499SOL    HW120831   2.995   7.247   0.030 -0.3752  0.2895  0.2275
 3499SOL    HW220832   3.132   7.335   0.017  0.2636 -0.5692  1.1384
 3500SOL     OW20833   1.801   9.715   3.272 -0.1418  0.4597 -0.0727
 3500SOL    HW120834   1.851   9.634   3.241  0.5693  1.1423 -0.7072
 3500SOL    HW220835   1.782   9.706   3.370  0.2018 -0.3243 -0.0686
 3501SOL     OW20836   2.271   0.487   0.134  0.7803  0.1630 -0.1711
 3501SOL    HW120837   2.213   0.546   0.190 -0.7547  0.0627 -1.5978
 3501SOL    HW220838   2.267   0.393   0.169 -1.9202 -0.3373 -1.6706
 3502SOL     OW20839   3.025   5.230   0.326 -0.3698 -0.5432  0.1437
 3502SOL    HW120840   2.979   5.318   0.342  0.1764 -0.2991  0.3727
 3502SOL    HW220841   3.019   5.206   0.229 -1.5738 -0.8411  0.2818
 3503SOL     OW20842   9.724   9.126   0.424  0.1865  0.3715  0.1508
 3503SOL    HW120843   9.685   9.152   0.335  1.0120  3.4246  0.6314
 3503SOL    HW220844   9.794   9.192   0.450  0.6229 -1.0290  2.6580
 3504SOL     OW20845   1.601   9.772   3.070  0.3702 -0.0533 -0.0134
 3504SOL    HW120846   1.517   9.742   3.115  0.2932  0.7215  0.3593
 3504SOL    HW220847   1.678   9.764   3.133  0.9731 -2.8437 -1.0329
 3505SOL     OW20848   8.173   6.898   2.168  0.0993 -0.1520 -0.0105
 3505SOL    HW120849   8.110   6.823   2.146 -0.2564  0.6670 -1.8591
 3505SOL    HW220850   8.132   6.985   2.140  1.4951  0.5118 -0.0167
 3506SOL     OW20851   0.889   6.157   0.903  0.4946 -0.3766 -0.3952
 3506SOL    HW120852   0.863   6.137   0.809 -0.5251 -0.5096 -0.0847
 3506SOL    HW220853   0.877   6.255   0.921 -0.7193 -0.5977  0.0339
 3507SOL     OW20854   4.336   9.112   3.340  0.2569  0.1518  0.1079
 3507SOL    HW120855   4.367   9.063   3.259 -0.3217  0.3269 -0.2213
 3507SOL    HW220856   4.404   9.102   3.413 -0.0726 -1.5516  0.2000
 3508SOL     OW20857   9.150   4.549   1.262  0.2520 -0.3449 -0.9666
 3508SOL    HW120858   9.219   4.570   1.331 -0.3223 -0.6889 -0.2763
 3508SOL    HW220859   9.059   4.569   1.298 -0.0047  0.2082 -1.9103
 3509SOL     OW20860   9.647   1.065   0.468 -0.2463  0.2402  0.0915
 3509SOL    HW120861   9.590   1.016   0.534  1.3945  0.4794  1.7239
 3509SOL    HW220862   9.667   1.005   0.390 -0.0200 -0.9833  1.0640
 3510SOL     OW20863   8.817   2.075   2.893  0.4516 -0.6149  0.8031
 3510SOL    HW120864   8.764   2.107   2.973  1.4074  2.0257  0.4367
 3510SOL    HW220865   8.911   2.108   2.901  0.1932  0.9236 -2.1119
 3511SOL     OW20866   2.246   7.125   0.079  0.1438  0.5669  0.3077
 3511SOL    HW120867   2.334   7.111   0.125  0.4436  0.1718 -0.3831
 3511SOL    HW220868   2.261   7.150  -0.017 -0.4905  0.8962  0.2862
 3512SOL     OW20869   1.809   9.986   3.205 -0.5240  0.1059  0.6357
 3512SOL    HW120870   1.900  10.008   3.171 -1.6243  0.6515 -2.0608
 3512SOL    HW220871   1.806   9.891   3.234  0.6781 -0.1484 -0.0631
 3513SOL     OW20872   4.399   4.193   1.213  0.0285 -0.1878  0.1672
 3513SOL    HW120873   4.385   4.238   1.125  1.3697 -0.0861 -0.0026
 3513SOL    HW220874   4.439   4.258   1.277 -0.9988 -0.2436  0.8843
 3514SOL     OW20875   3.728   3.654   3.292 -0.4255  0.4054 -0.4190
 3514SOL    HW120876   3.828   3.662   3.300 -0.5469 -0.2257  2.3089
 3514SOL    HW220877   3.697   3.574   3.344 -2.3540  0.5552 -1.3041
 3515SOL     OW20878   8.530   5.216   0.826  0.1533  0.2602  0.5383
 3515SOL    HW120879   8.618   5.257   0.851 -0.4666  1.3822  0.9126
 3515SOL    HW220880   8.493   5.263   0.745  1.0574 -1.8372 -1.1474
 3516SOL     OW20881   2.753   9.995   0.304  0.3624 -0.0947 -0.1904
 3516SOL    HW120882   2.803   9.979   0.389  2.5094 -1.0749 -1.5869
 3516SOL    HW220883   2.663  10.034   0.324  0.0552 -2.1437  2.6259
 3517SOL     OW20884   0.151   3.510   2.426 -0.3545  0.5393  0.5455
 3517SOL    HW120885   0.173   3.587   2.366 -1.6013  1.2820  1.0203
 3517SOL    HW220886   0.227   3.493   2.489  1.1285 -0.4743 -1.4547
 3518SOL     OW20887   0.201   0.175   2.115  0.1021 -0.2753 -0.0149
 3518SOL    HW120888   0.176   0.254   2.059  3.0310 -0.5451 -1.8188
 3518SOL    HW220889   0.191   0.198   2.212 -0.2623  1.8756 -0.5470
 3519SOL     OW20890   3.155   8.426   3.327 -0.3417 -0.3985  0.1313
 3519SOL    HW120891   3.131   8.391   3.236 -1.0367  0.6583 -0.1070
 3519SOL    HW220892   3.111   8.371   3.397  2.6621 -3.1675 -0.0147
 3520SOL     OW20893   3.307   2.577   0.756  0.3227 -0.3248  0.3324
 3520SOL    HW120894   3.227   2.532   0.716  0.0511  0.2533  0.2199
 3520SOL    HW220895   3.362   2.619   0.684 -0.3847  1.0669  0.5945
 3521SOL     OW20896   9.065   7.368   3.186  0.0732  0.1602 -0.8548
 3521SOL    HW120897   8.986   7.428   3.195  0.6922  0.6461  1.6528
 3521SOL    HW220898   9.149   7.421   3.203  0.6952 -1.1695  0.2694
 3522SOL     OW20899   4.673   2.550   1.577 -0.4170  0.0492  0.0037
 3522SOL    HW120900   4.732   2.525   1.653 -1.0194 -2.2933 -0.2386
 3522SOL    HW220901   4.577   2.544   1.606 -0.5966  2.5670  0.0345
 3523SOL     OW20902   8.676   3.613   2.029 -0.3181  0.2345  0.0392
 3523SOL    HW120903   8.596   3.660   1.992 -0.4108  0.5332  0.5999
 3523SOL    HW220904   8.753   3.622   1.966 -0.5221  0.5850 -0.1626
 3524SOL     OW20905   1.987   8.316   2.743 -0.5726 -0.0110 -0.3741
 3524SOL    HW120906   1.961   8.222   2.725 -1.8073 -0.4550  3.2969
 3524SOL    HW220907   1.951   8.375   2.670 -3.9982 -1.7703 -0.2070
 3525SOL     OW20908   2.085   5.647   1.241  0.0674 -0.3315 -0.5731
 3525SOL    HW120909   2.045   5.558   1.221 -1.7364 -0.3353  2.6457
 3525SOL    HW220910   2.034   5.719   1.194 -1.0733 -0.6892  0.0984
 3526SOL     OW20911   9.630   4.711   2.028 -0.0301  0.6118  0.1687
 3526SOL    HW120912   9.592   4.627   1.989 -1.1777  1.1239  0.1526
 3526SOL    HW220913   9.629   4.705   2.128  1.3775 -0.0328  0.1523
 3527SOL     OW20914   0.966   0.386   2.761  0.2619 -0.0890  0.7955
 3527SOL    HW120915   0.908   0.413   2.838 -1.8180  0.7715 -1.0009
 3527SOL    HW220916   0.955   0.288   2.744  0.6154 -0.2522  1.4978
 3528SOL     OW20917   3.093   8.024   0.359  0.5709 -0.4631  0.7601
 3528SOL    HW120918   3.160   8.028   0.285  0.4889 -0.6102  0.6776
 3528SOL    HW220919   3.089   8.112   0.406  0.4409 -0.2911  0.4267
 3529SOL     OW20920   8.392   8.059   1.258 -0.5110 -0.3028 -0.0906
 3529SOL    HW120921   8.426   8.018   1.343 -2.5475 -0.5319  0.6199
 3529SOL    HW220922   8.463   8.052   1.188  0.4866 -1.8237  1.0387
 3530SOL     OW20923   2.553   6.182   1.171  0.2643 -0.2119  0.5548
 3530SOL    HW120924   2.524   6.088   1.150  2.7122 -0.4110 -2.2634
 3530SOL    HW220925   2.635   6.179   1.229 -0.1613  0.2190  1.1822
 3531SOL     OW20926   2.006   4.599   0.775  0.2563  0.9068  0.0363
 3531SOL    HW120927   1.912   4.602   0.740  0.0635 -0.2595  0.4371
 3531SOL    HW220928   2.057   4.678   0.740 -0.5061  0.8438 -1.2388
 3532SOL     OW20929   2.141   5.118   3.404 -0.2421 -0.0015 -0.4240
 3532SOL    HW120930   2.042   5.118   3.418 -0.2645 -1.5302 -0.4224
 3532SOL    HW220931   2.188   5.108   3.492 -0.1050  0.0634 -0.4892
 3533SOL     OW20932   8.761   9.952   0.875  0.2681  0.1377 -0.1155
 3533SOL    HW120933   8.859   9.963   0.890 -0.0250  1.7005  0.7505
 3533SOL    HW220934   8.743   9.947   0.777  1.2622 -0.7141 -0.2661
 3534SOL     OW20935   9.629   3.556   2.019  0.2782  0.0029 -0.2199
 3534SOL    HW120936   9.671   3.469   1.992  0.2970  0.2596 -1.0529
 3534SOL    HW220937   9.596   3.603   1.937  2.3694  1.8649 -0.0211
 3535SOL     OW20938   2.414   9.494   2.320 -0.3290 -0.1231  0.3465
 3535SOL    HW120939   2.464   9.564   2.369 -0.7124  1.1596 -1.0412
 3535SOL    HW220940   2.319   9.525   2.306 -0.9053 -1.5481  0.9963
 3536SOL     OW20941   3.028   6.095   1.633 -0.0181 -0.6874 -0.2466
 3536SOL    HW120942   3.002   6.188   1.609 -0.3593 -1.2392 -2.0791
 3536SOL    HW220943   3.122   6.077   1.604 -1.0525 -1.9500 -2.9216
 3537SOL     OW20944   0.301   5.567   1.928  0.6416  0.2927  0.1904
 3537SOL    HW120945   0.232   5.612   1.871  0.9264  2.3298  1.4235
 3537SOL    HW220946   0.388   5.615   1.918  1.0266 -0.1762  1.3107
 3538SOL     OW20947   8.386   4.952   0.266 -0.3265  0.6687  0.3124
 3538SOL    HW120948   8.388   4.853   0.280  1.5389  0.5537 -0.7071
 3538SOL    HW220949   8.323   4.994   0.333 -0.8619 -1.1482  0.9634
 3539SOL     OW20950   7.959   1.539   1.205  0.7085  0.3903 -0.3818
 3539SOL    HW120951   7.936   1.610   1.273  0.1941  1.2984 -1.4880
 3539SOL    HW220952   7.929   1.450   1.239  2.6615  0.4802  1.6694
 3540SOL     OW20953   6.379   9.911   2.881  0.4826  0.1718 -0.8482
 3540SOL    HW120954   6.415   9.970   2.809  1.0225 -0.2661 -0.9342
 3540SOL    HW220955   6.311   9.848   2.843 -0.9272  1.4787 -0.5596
 3541SOL     OW20956   2.104   1.147   1.271 -0.3555 -0.0838  0.0364
 3541SOL    HW120957   2.079   1.107   1.359  0.1198  2.1666  1.2523
 3541SOL    HW220958   2.203   1.161   1.267 -0.5025  0.9745 -0.3204
 3542SOL     OW20959   9.182   9.899   0.423  0.4087 -0.0145  0.2148
 3542SOL    HW120960   9.270   9.945   0.412  0.2020  0.0300 -1.3574
 3542SOL    HW220961   9.174   9.864   0.517  1.4045  1.4065  0.8514
 3543SOL     OW20962   2.542   4.519   2.239  0.6279  0.3404  0.1834
 3543SOL    HW120963   2.547   4.573   2.155 -0.0430 -0.0422 -0.1082
 3543SOL    HW220964   2.524   4.424   2.216 -0.2548  0.3496  0.7839
 3544SOL     OW20965   1.076   6.489   1.541  0.0415 -0.0445  0.4101
 3544SOL    HW120966   1.026   6.457   1.460 -0.2995 -0.3072  0.7194
 3544SOL    HW220967   1.171   6.509   1.517 -0.0106 -0.3080 -0.0118
 3545SOL     OW20968   6.343   8.770   2.273  0.5070 -0.1108 -0.2689
 3545SOL    HW120969   6.342   8.718   2.359  0.7546 -1.4613 -1.0663
 3545SOL    HW220970   6.286   8.851   2.282 -0.5663 -0.9640  0.7408
 3546SOL     OW20971   1.986   1.366   0.810  0.5162  0.2672 -0.3549
 3546SOL    HW120972   1.908   1.395   0.864 -1.0022 -2.5448 -0.9380
 3546SOL    HW220973   1.988   1.266   0.804  3.1006  0.3465 -1.9049
 3547SOL     OW20974   0.972   5.299   2.015 -0.4239 -0.7502 -0.6378
 3547SOL    HW120975   1.027   5.235   1.960 -0.4132  0.2455 -1.8004
 3547SOL    HW220976   0.939   5.373   1.957 -1.2080 -0.1846  0.5162
 3548SOL     OW20977   3.335   3.576   0.772 -0.3586 -0.1841 -0.2142
 3548SOL    HW120978   3.420   3.538   0.735  0.5884  0.1333  1.6040
 3548SOL    HW220979   3.315   3.663   0.725  2.2182  1.5398  1.7349
 3549SOL     OW20980   3.097   5.317   2.636 -0.1283  0.5387  0.4655
 3549SOL    HW120981   3.035   5.238   2.634  0.4591  0.0757  0.3441
 3549SOL    HW220982   3.085   5.371   2.553  1.3443 -0.8920 -0.7034
 3550SOL     OW20983   8.268   8.703   1.511 -0.1279 -0.6610  0.9167
 3550SOL    HW120984   8.330   8.678   1.436  0.5712 -1.7934  1.8615
 3550SOL    HW220985   8.197   8.633   1.519 -0.2388 -0.5029  1.2783
 3551SOL     OW20986   4.017   7.477   3.442  0.1555  0.9076  0.0045
 3551SOL    HW120987   4.066   7.436   3.518 -0.1834 -0.7756 -0.6638
 3551SOL    HW220988   4.077   7.481   3.362 -0.4503 -0.2257 -0.5219
 3552SOL     OW20989   8.955   1.493   2.759 -0.4216  0.7170 -0.4082
 3552SOL    HW120990   9.025   1.445   2.813 -2.4143 -0.4659  1.2058
 3552SOL    HW220991   8.949   1.587   2.791 -0.6880  0.3722  0.5974
 3553SOL     OW20992   0.331   9.016   0.743  0.2593 -0.3379  0.1997
 3553SOL    HW120993   0.274   8.950   0.792  1.5902 -0.7290  1.2319
 3553SOL    HW220994   0.391   9.064   0.807  0.5711  0.6203 -0.7765
 3554SOL     OW20995   0.122   1.936   3.182  0.1650 -0.4410  0.1540
 3554SOL    HW120996   0.089   1.947   3.088 -2.9386 -0.0885  1.2172
 3554SOL    HW220997   0.061   1.873   3.232  2.1263 -1.1161  1.7664
 3555SOL     OW20998   3.318   9.330   0.877 -0.3294 -0.3191  0.3587
 3555SOL    HW120999   3.336   9.422   0.912  0.4711 -0.7902  1.1980
 3555SOL    HW221000   3.357   9.320   0.785  0.0865 -0.0078  0.5023
 3556SOL     OW21001   3.318   3.849   1.896 -0.6908 -0.1712  0.0309
 3556SOL    HW121002   3.275   3.791   1.827 -0.3082 -0.1615 -0.2170
 3556SOL    HW221003   3.346   3.936   1.854  3.6861 -1.9139 -0.9419
 3557SOL     OW21004   8.515   1.272   2.763 -0.0814 -0.0375 -0.0363
 3557SOL    HW121005   8.517   1.367   2.731 -1.5964 -0.0760 -0.2859
 3557SOL    HW221006   8.592   1.222   2.724  0.8099  1.1194  0.2026
 3558SOL     OW21007   8.901   6.364   2.830 -0.4485  0.2027 -0.1052
 3558SOL    HW121008   8.980   6.422   2.851  0.1143 -0.7615  0.5129
 3558SOL    HW221009   8.894   6.292   2.898 -0.4231 -1.1629 -1.5065
 3559SOL     OW21010   9.712   8.200   2.760 -0.7071 -0.0984  0.0394
 3559SOL    HW121011   9.724   8.248   2.847  1.4822  1.1613 -0.9116
 3559SOL    HW221012   9.729   8.264   2.684 -0.9449 -1.5843 -1.2880
 3560SOL     OW21013   4.983   2.928   1.634 -0.1242 -0.3448  0.1338
 3560SOL    HW121014   4.982   2.992   1.710  0.5691 -1.2252  0.8960
 3560SOL    HW221015   5.068   2.875   1.635  0.9881  1.2665 -2.6605
 3561SOL     OW21016   1.720   7.014   1.744 -0.3616  0.1439  0.1294
 3561SOL    HW121017   1.688   7.036   1.836 -1.9548  0.9278 -0.5938
 3561SOL    HW221018   1.780   6.934   1.748 -0.4256  0.1636  1.8419
 3562SOL     OW21019   2.629   7.821   0.365 -0.3671  0.3686 -0.0354
 3562SOL    HW121020   2.699   7.820   0.294 -1.3295 -1.4609 -1.0089
 3562SOL    HW221021   2.641   7.902   0.423  0.5988  1.7695 -2.1135
 3563SOL     OW21022   1.726   2.235   3.080  0.1499  0.1082  0.3242
 3563SOL    HW121023   1.810   2.237   3.134 -0.5474  0.8884  1.3853
 3563SOL    HW221024   1.713   2.142   3.044  1.2862 -0.1027  0.4082
 3564SOL     OW21025   8.391   8.516   0.188  0.1541  0.2474 -0.8616
 3564SOL    HW121026   8.396   8.605   0.233  0.0140  0.6033 -1.5296
 3564SOL    HW221027   8.304   8.509   0.138 -1.0254 -1.3228  1.3492
 3565SOL     OW21028   4.603   8.360   0.927 -0.4328 -0.0477  0.1905
 3565SOL    HW121029   4.569   8.435   0.984 -3.3593  0.4559 -2.0770
 3565SOL    HW221030   4.578   8.272   0.969  1.1943  0.2419  1.8051
 3566SOL     OW21031   3.662   9.958   2.439  0.0822 -0.5051  0.0235
 3566SOL    HW121032   3.758   9.931   2.437  0.6652  1.5418 -2.6012
 3566SOL    HW221033   3.615   9.918   2.361 -0.5410  0.7930 -0.2742
 3567SOL     OW21034   2.623   6.401   2.109 -0.2719  0.0867 -0.1575
 3567SOL    HW121035   2.559   6.352   2.051 -0.0664 -1.0856  0.5976
 3567SOL    HW221036   2.716   6.387   2.076 -0.2722  0.6039 -0.3910
 3568SOL     OW21037   0.798   1.343   0.903 -0.9713 -0.2545  0.2034
 3568SOL    HW121038   0.798   1.431   0.856 -2.0218 -0.5225 -0.3044
 3568SOL    HW221039   0.828   1.272   0.840  1.8382 -0.0126  1.1473
 3569SOL     OW21040   4.292   1.942   2.466  0.2124 -0.9090  0.4797
 3569SOL    HW121041   4.220   1.884   2.505 -1.9004  0.3332 -1.4898
 3569SOL    HW221042   4.265   2.038   2.472  0.7950 -0.5500 -2.0773
 3570SOL     OW21043   0.347   6.449   0.088 -0.1164  0.4082  0.7980
 3570SOL    HW121044   0.260   6.420   0.128  0.5407 -0.0647  1.9030
 3570SOL    HW221045   0.330   6.498   0.002 -1.4232 -0.3966  0.5919
 3571SOL     OW21046   8.929   6.571   0.304  0.1778 -0.7176 -0.0832
 3571SOL    HW121047   8.945   6.636   0.379 -0.4850 -1.3968  0.6654
 3571SOL    HW221048   8.850   6.600   0.251 -0.2890 -1.0472  0.4207
 3572SOL     OW21049   1.701   6.561   1.212 -0.7323  0.3332  0.0275
 3572SOL    HW121050   1.749   6.494   1.268 -1.2436 -0.8158 -0.8856
 3572SOL    HW221051   1.604   6.561   1.236 -0.3544  2.4624  1.6862
 3573SOL     OW21052   3.453   6.069   0.832  0.7252  0.1924 -0.2928
 3573SOL    HW121053   3.399   5.986   0.824  2.5848 -1.3878  2.3775
 3573SOL    HW221054   3.475   6.105   0.741  0.0117 -2.3285 -1.4877
 3574SOL     OW21055   2.500   5.462   2.769  0.3291  0.4899  0.5490
 3574SOL    HW121056   2.424   5.440   2.707  0.4955 -0.6008  0.7242
 3574SOL    HW221057   2.559   5.530   2.726 -0.6034  1.1503  0.2968
 3575SOL     OW21058   3.941   2.518   0.394 -0.0197  0.0839 -0.2322
 3575SOL    HW121059   3.950   2.608   0.436  2.9963 -0.0980 -0.3380
 3575SOL    HW221060   3.878   2.522   0.317  0.0893  2.0996 -0.2285
 3576SOL     OW21061   9.125   6.039   1.227  0.1552  0.2397 -0.0748
 3576SOL    HW121062   9.061   6.099   1.275 -1.0012  0.6877 -2.1639
 3576SOL    HW221063   9.170   6.089   1.154  0.5450 -0.9493 -0.6642
 3577SOL     OW21064   7.468   9.967   2.099  0.2350 -0.3138 -0.0337
 3577SOL    HW121065   7.551   9.915   2.117  0.3150  0.2507  1.3370
 3577SOL    HW221066   7.411   9.967   2.182 -0.4876  0.4597 -0.5265
 3578SOL     OW21067   4.117   1.066   0.942  0.0652  0.6100 -0.0158
 3578SOL    HW121068   4.091   1.145   0.997  1.3936  0.2492  1.1729
 3578SOL    HW221069   4.035   1.017   0.912 -0.7219  1.8633  0.0857
 3579SOL     OW21070   3.036   1.138   0.188 -0.2149 -0.3036  0.2731
 3579SOL    HW121071   3.085   1.167   0.106 -2.1178  0.1453 -0.7399
 3579SOL    HW221072   3.050   1.041   0.204  0.0808 -0.4108 -0.6476
 3580SOL     OW21073   4.417   1.534   2.190  0.1421 -0.6342  0.1208
 3580SOL    HW121074   4.442   1.599   2.261 -2.2904 -0.6580  1.0588
 3580SOL    HW221075   4.497   1.511   2.136  1.5222  1.2967  1.2842
 3581SOL     OW21076   9.854   9.651   1.145  0.1037 -0.0319 -0.6650
 3581SOL    HW121077   9.764   9.643   1.101  0.8976  0.3048 -2.3821
 3581SOL    HW221078   9.923   9.608   1.087  0.9220 -1.1566  1.1050
 3582SOL     OW21079   6.901   8.590   2.730  0.7069  0.1237  0.2574
 3582SOL    HW121080   6.963   8.529   2.681 -0.8519 -2.5893  1.5718
 3582SOL    HW221081   6.814   8.596   2.680  0.3294  0.1131  0.9125
 3583SOL     OW21082   1.039   6.521   2.619 -0.1041  0.1271 -0.1360
 3583SOL    HW121083   1.124   6.502   2.570 -0.4703 -1.8224 -0.0471
 3583SOL    HW221084   1.053   6.504   2.717 -0.0010  1.8876  0.1736
 3584SOL     OW21085   3.628   1.827   1.410  0.2920 -0.7720  0.3643
 3584SOL    HW121086   3.577   1.907   1.442  0.7530  0.2245 -1.3504
 3584SOL    HW221087   3.590   1.744   1.452 -1.4838  0.1468  0.6154
 3585SOL     OW21088   8.978   3.564   2.490  0.4473  0.3800 -0.0374
 3585SOL    HW121089   8.967   3.549   2.589 -0.8351 -1.0300 -0.3763
 3585SOL    HW221090   8.914   3.633   2.459 -1.2517 -1.2967 -0.3808
 3586SOL     OW21091   8.542   0.066   1.506  0.7986  0.1069 -0.1022
 3586SOL    HW121092   8.599   0.148   1.514  1.6073 -0.3155 -1.3813
 3586SOL    HW221093   8.601  -0.015   1.501  0.0175 -0.5074  0.5464
 3587SOL     OW21094   8.272   9.548   1.874  0.1797 -0.1121 -0.4121
 3587SOL    HW121095   8.248   9.607   1.950  0.6257  1.3027 -1.3497
 3587SOL    HW221096   8.268   9.600   1.788 -1.2944 -1.9161 -1.4815
 3588SOL     OW21097   0.584   5.950   2.176 -0.1167  0.1542 -0.0051
 3588SOL    HW121098   0.562   5.908   2.264  0.0452 -1.0579 -0.5426
 3588SOL    HW221099   0.603   6.047   2.190 -3.2233  0.7098  0.8831
 3589SOL     OW21100   8.402   0.977   0.455  0.0736 -0.3951 -0.2543
 3589SOL    HW121101   8.464   0.942   0.384  3.2959 -1.0206  2.7625
 3589SOL    HW221102   8.411   1.076   0.460  1.0592 -0.5120  0.3671
 3590SOL     OW21103   2.988   7.910   3.410 -0.3868  0.4066 -0.6575
 3590SOL    HW121104   2.980   7.859   3.324  0.7850  1.0957 -1.1846
 3590SOL    HW221105   2.953   8.003   3.398 -0.7584  0.3318 -0.2156
 3591SOL     OW21106   2.440   9.863   2.644 -0.2244 -0.3143  1.0624
 3591SOL    HW121107   2.435   9.924   2.724 -1.4273  0.1575  0.6471
 3591SOL    HW221108   2.487   9.909   2.569  1.4929 -0.9989  1.6928
 3592SOL     OW21109   1.756   9.229   1.141 -0.1778  0.6725  0.7554
 3592SOL    HW121110   1.697   9.180   1.076  1.1986 -1.4992  1.1042
 3592SOL    HW221111   1.812   9.295   1.091 -1.7393  1.6154  0.2168
 3593SOL     OW21112   2.411   3.733   0.259  0.0953 -0.0555  0.2814
 3593SOL    HW121113   2.443   3.741   0.354  0.4079 -1.0044  0.2611
 3593SOL    HW221114   2.479   3.772   0.198 -0.5359  1.4292  0.5089
 3594SOL     OW21115   2.297   2.561   2.667  0.7066 -0.4096 -0.4003
 3594SOL    HW121116   2.375   2.519   2.713  1.1346  0.5190 -0.2737
 3594SOL    HW221117   2.223   2.576   2.733  1.4809  1.3212  0.0941
 3595SOL     OW21118   0.014   4.235   1.511 -0.3223 -0.1234  0.1620
 3595SOL    HW121119  -0.034   4.151   1.485  0.9559 -0.8587  0.1143
 3595SOL    HW221120   0.099   4.242   1.458  0.9549 -0.2360  2.1429
 3596SOL     OW21121   1.964   3.249   0.916 -0.0411 -0.0042  0.6739
 3596SOL    HW121122   1.921   3.224   0.829  0.1023 -0.1972  0.6573
 3596SOL    HW221123   1.939   3.342   0.941 -0.0883  0.0479  0.4292
 3597SOL     OW21124   7.724   7.740   2.480 -0.3799  0.2484  0.1682
 3597SOL    HW121125   7.648   7.795   2.514 -1.2612 -0.6849 -0.2376
 3597SOL    HW221126   7.715   7.646   2.514  2.1191  0.7513  2.3662
 3598SOL     OW21127   1.618   8.468   0.552  1.2039 -0.0169  0.1623
 3598SOL    HW121128   1.569   8.382   0.539  0.8869  0.0834  0.6751
 3598SOL    HW221129   1.565   8.527   0.613  1.0877  0.8234 -0.7501
 3599SOL     OW21130   0.503   2.114   0.637 -0.2174 -0.5029  0.4642
 3599SOL    HW121131   0.529   2.039   0.576 -1.5451 -1.4769  1.0773
 3599SOL    HW221132   0.404   2.116   0.648 -0.0594  0.1486  1.9525
 3600SOL     OW21133   2.520   5.004   0.428  0.4536  0.0393 -0.2394
 3600SOL    HW121134   2.521   4.933   0.498 -1.9216 -0.9252 -1.1186
 3600SOL    HW221135   2.596   5.066   0.442  1.7491 -1.8577  1.4161
 3601SOL     OW21136   1.786   3.981   2.413  0.6216 -0.0758  0.5309
 3601SOL    HW121137   1.850   4.029   2.353  0.4567  0.6890  0.9540
 3601SOL    HW221138   1.835   3.913   2.467  0.7344 -0.9443 -0.6348
 3602SOL     OW21139   1.981   7.960   3.347  0.5525 -0.4160 -0.1789
 3602SOL    HW121140   1.992   8.012   3.431 -0.1071 -2.3450  1.1490
 3602SOL    HW221141   1.939   7.871   3.368  1.8346 -1.5774 -2.3323
 3603SOL     OW21142   2.059   5.464   3.100 -0.2196  0.2617  0.1906
 3603SOL    HW121143   2.147   5.429   3.068 -0.6258 -2.0840  1.5070
 3603SOL    HW221144   1.997   5.473   3.023  0.7350  0.5912 -0.5502
 3604SOL     OW21145   4.189   8.615   2.057  0.6243  0.0222 -0.1733
 3604SOL    HW121146   4.090   8.622   2.062  0.6087 -0.2070 -0.1505
 3604SOL    HW221147   4.229   8.706   2.064  0.4144  0.1183 -0.2201
 3605SOL     OW21148   1.994   4.889   0.779  0.0327 -0.8316 -0.3041
 3605SOL    HW121149   2.045   4.897   0.864  0.2628 -0.4348 -0.4770
 3605SOL    HW221150   1.903   4.928   0.790  0.6297  0.7203 -0.7072
 3606SOL     OW21151   1.303   1.146   2.260 -0.6645  0.8812 -0.0914
 3606SOL    HW121152   1.378   1.205   2.231  1.4733 -2.1179 -0.9920
 3606SOL    HW221153   1.233   1.144   2.189 -0.8191  2.4191  0.0124
 3607SOL     OW21154   1.949   5.740   0.700  0.6850  0.5823 -0.3432
 3607SOL    HW121155   1.978   5.815   0.640 -0.6363  0.7792 -0.7436
 3607SOL    HW221156   2.021   5.670   0.702  1.6860  1.5900 -0.4091
 3608SOL     OW21157   2.331   0.526   3.049  1.2963  0.0848 -0.4115
 3608SOL    HW121158   2.349   0.606   3.106  1.9285 -2.1019  2.5472
 3608SOL    HW221159   2.407   0.462   3.056  1.1144 -0.5280 -3.2943
 3609SOL     OW21160   7.683   9.578   1.918 -0.3320  0.1046 -0.1397
 3609SOL    HW121161   7.722   9.489   1.940 -1.0509 -0.0091  0.7120
 3609SOL    HW221162   7.588   9.581   1.949 -0.8370  0.5811 -1.6501
 3610SOL     OW21163   2.687   5.669   3.174  0.2656 -0.3417 -0.2102
 3610SOL    HW121164   2.771   5.631   3.215  0.2208  0.8920  1.0808
 3610SOL    HW221165   2.610   5.609   3.195  0.7120 -1.1514 -0.8562
 3611SOL     OW21166   3.442   3.875   2.285  0.2929 -0.1829 -0.0112
 3611SOL    HW121167   3.486   3.836   2.366 -0.5699 -0.8404  0.1415
 3611SOL    HW221168   3.393   3.959   2.311 -0.6684 -0.8389  0.3100
 3612SOL     OW21169   5.473   8.956   2.701  0.3808 -0.6656 -0.1242
 3612SOL    HW121170   5.560   9.005   2.703  0.9422 -1.6504 -0.3672
 3612SOL    HW221171   5.486   8.862   2.733 -0.7333 -0.5970  0.5532
 3613SOL     OW21172   4.333   8.635   3.351  0.4768 -0.4909  0.2828
 3613SOL    HW121173   4.341   8.598   3.259  3.3341 -1.8291  1.0076
 3613SOL    HW221174   4.284   8.570   3.409  0.0454 -0.3424  0.0895
 3614SOL     OW21175   7.435   9.420   3.434  0.3162 -0.3039  0.2813
 3614SOL    HW121176   7.348   9.467   3.423 -0.5874 -1.9720  0.1996
 3614SOL    HW221177   7.509   9.481   3.406 -0.6976  1.6535  1.7730
 3615SOL     OW21178   1.447   1.329   1.624  0.0261  0.3710 -0.5856
 3615SOL    HW121179   1.539   1.325   1.585  1.0299 -1.0180  1.7332
 3615SOL    HW221180   1.404   1.239   1.616 -0.6344  0.6823 -0.5450
 3616SOL     OW21181   1.235   3.480   0.976  0.1782  0.2705 -0.1979
 3616SOL    HW121182   1.182   3.407   1.019 -0.8905  1.0624 -0.1422
 3616SOL    HW221183   1.191   3.568   0.994  0.6944  0.7904 -1.4323
 3617SOL     OW21184   8.807   3.333   1.545 -0.0285 -0.0017 -0.3167
 3617SOL    HW121185   8.734   3.359   1.609  0.5546  1.1426 -0.1095
 3617SOL    HW221186   8.832   3.237   1.560  0.1851  0.2897  1.2555
 3618SOL     OW21187   1.346   8.723   3.151  0.1491  0.0193 -0.2902
 3618SOL    HW121188   1.327   8.787   3.077 -1.4868 -0.6135 -0.4323
 3618SOL    HW221189   1.266   8.716   3.211  0.7905 -0.8743  0.4820
 3619SOL     OW21190   7.498   0.152   3.220  0.2722 -0.0076 -0.0651
 3619SOL    HW121191   7.405   0.158   3.186  0.1512 -2.0599 -0.1811
 3619SOL    HW221192   7.554   0.101   3.155  1.2982  0.5646  0.3523
 3620SOL     OW21193   1.268   0.022   1.015 -0.3426 -0.4571  0.1696
 3620SOL    HW121194   1.259  -0.076   0.994 -0.2434 -0.1809 -1.1869
 3620SOL    HW221195   1.189   0.051   1.069 -1.1645 -0.9417 -0.7543
 3621SOL     OW21196   2.942   4.845   0.371  0.0213 -0.2200  0.2550
 3621SOL    HW121197   2.891   4.764   0.402 -0.2797 -0.1591 -0.0740
 3621SOL    HW221198   2.917   4.923   0.429  1.2854 -0.6464  1.3976
 3622SOL     OW21199   1.218   2.263   2.648  0.1071  0.1894  0.0092
 3622SOL    HW121200   1.314   2.290   2.651 -0.0564  0.8186 -0.1407
 3622SOL    HW221201   1.162   2.338   2.684 -0.3909  0.2165 -0.7970
 3623SOL     OW21202   3.216   6.113   2.168 -0.2426  1.0326 -0.3514
 3623SOL    HW121203   3.202   6.204   2.131  2.8514  0.9856 -1.8662
 3623SOL    HW221204   3.286   6.116   2.240  1.3339 -0.3584 -1.7617
 3624SOL     OW21205   3.596   4.393   0.621  0.2769  0.0102  0.2875
 3624SOL    HW121206   3.567   4.313   0.675  2.1372 -1.5937 -1.0087
 3624SOL    HW221207   3.682   4.428   0.657  0.7179 -0.0907 -0.6715
 3625SOL     OW21208   8.616   0.467   0.241  0.5209  0.3476  0.2961
 3625SOL    HW121209   8.590   0.542   0.181  1.5002  0.7083  0.3143
 3625SOL    HW221210   8.534   0.416   0.268  0.2479 -1.0999 -3.0260
 3626SOL     OW21211   3.729   5.260   1.496 -0.1486 -0.5068 -0.1221
 3626SOL    HW121212   3.792   5.186   1.517 -0.0239 -0.1226  0.8669
 3626SOL    HW221213   3.778   5.347   1.494 -0.4469 -0.3421 -0.4445
 3627SOL     OW21214   0.015   3.942   2.831  0.3624  0.1078 -0.0225
 3627SOL    HW121215  -0.034   4.029   2.837  0.3959  0.2422 -1.3600
 3627SOL    HW221216  -0.001   3.901   2.741  1.2180 -0.7419  0.1961
 3628SOL     OW21217   1.834   7.793   2.910  0.4378  0.1254  0.5923
 3628SOL    HW121218   1.788   7.829   2.991  1.1115  1.2726  0.4735
 3628SOL    HW221219   1.931   7.818   2.912  0.1614  1.5395 -1.3295
 3629SOL     OW21220   1.486   4.942   2.963  0.2540 -0.0543 -0.1627
 3629SOL    HW121221   1.532   5.019   2.918 -0.9956  1.6306  1.3611
 3629SOL    HW221222   1.395   4.972   2.993  0.3905 -1.6671  1.8981
 3630SOL     OW21223   9.743   1.666   1.046 -0.4842  0.1158  0.2127
 3630SOL    HW121224   9.709   1.643   0.955 -2.2427  1.4308  0.4901
 3630SOL    HW221225   9.666   1.699   1.102  1.1499  2.5178  1.1002
 3631SOL     OW21226   1.537   2.019   1.340 -0.1714  0.1308  1.0509
 3631SOL    HW121227   1.446   2.039   1.376 -0.1576 -0.7820  1.6116
 3631SOL    HW221228   1.539   1.925   1.306  0.1848  0.5759 -0.1788
 3632SOL     OW21229   8.034   9.150   2.233 -0.2903  0.5364 -0.2080
 3632SOL    HW121230   7.990   9.169   2.146 -1.7767  1.3484  0.6878
 3632SOL    HW221231   7.964   9.127   2.301  1.0875 -3.6191 -0.0794
 3633SOL     OW21232   9.323   3.801   3.116 -0.1768 -0.1035  0.4077
 3633SOL    HW121233   9.308   3.855   3.033  0.4539  2.0560  1.6420
 3633SOL    HW221234   9.344   3.707   3.092  3.1440  1.1806 -2.0614
 3634SOL     OW21235   4.017   5.493   2.810  0.0222  0.4263 -0.3508
 3634SOL    HW121236   4.110   5.519   2.786 -0.5927  1.9414 -1.1737
 3634SOL    HW221237   3.952   5.552   2.762 -1.3972 -1.4088 -0.7542
 3635SOL     OW21238   8.812   6.362   2.143  0.3120 -0.1157  0.1548
 3635SOL    HW121239   8.717   6.392   2.154  0.2021 -0.6637  0.6861
 3635SOL    HW221240   8.817   6.263   2.154  1.2090  0.1124  1.8645
 3636SOL     OW21241   2.222   8.855   3.003  0.4897  0.1350  0.4550
 3636SOL    HW121242   2.262   8.918   3.070  1.7293 -0.9772  0.7774
 3636SOL    HW221243   2.294   8.817   2.946 -0.3999 -0.0638 -0.5484
 3637SOL     OW21244   3.089   8.341   3.071  0.0887 -0.4000  0.0658
 3637SOL    HW121245   3.132   8.252   3.059  0.8795 -0.0213  0.1069
 3637SOL    HW221246   3.140   8.410   3.021  0.1200  0.2271  0.9534
 3638SOL     OW21247   9.628   2.242   2.348  0.1055 -0.3210 -0.2707
 3638SOL    HW121248   9.612   2.207   2.256 -1.4752  0.2140 -0.2124
 3638SOL    HW221249   9.650   2.339   2.344  1.6067 -0.6406 -0.1946
 3639SOL     OW21250   8.261   8.976   0.466 -0.5505 -0.2243  0.1537
 3639SOL    HW121251   8.319   8.900   0.437 -1.2105 -0.7354  0.1581
 3639SOL    HW221252   8.209   9.010   0.388  0.2855  0.7088 -0.0086
 3640SOL     OW21253   8.486   1.789   1.783  0.5949  0.2169 -0.0239
 3640SOL    HW121254   8.441   1.759   1.867 -0.5260 -1.0936 -1.0628
 3640SOL    HW221255   8.542   1.714   1.746 -0.1422  0.2514 -1.2533
 3641SOL     OW21256   7.887   2.360   3.422  0.3112 -0.1819 -0.0434
 3641SOL    HW121257   7.829   2.302   3.480  0.0966 -0.4207 -0.4984
 3641SOL    HW221258   7.972   2.380   3.471  0.1821 -0.4774  0.3106
 3642SOL     OW21259   2.288   0.974   2.029 -0.2379 -0.1273 -0.2165
 3642SOL    HW121260   2.247   0.891   2.067 -0.4689  0.4495  0.7861
 3642SOL    HW221261   2.387   0.965   2.029 -0.2515 -0.2815  0.1660
 3643SOL     OW21262   2.453   1.883   2.285  0.5582 -0.4172  0.4343
 3643SOL    HW121263   2.532   1.901   2.343  1.0425 -0.2490 -0.2825
 3643SOL    HW221264   2.374   1.932   2.322  0.9651  0.0335  0.7121
 3644SOL     OW21265   0.336   7.094   1.159  0.3922 -0.1035 -0.2447
 3644SOL    HW121266   0.255   7.054   1.204  1.5314 -0.7075  1.3098
 3644SOL    HW221267   0.396   7.021   1.128  1.1888  0.3601  0.1940
 3645SOL     OW21268   3.437   7.622   2.268  0.1340 -0.3319  0.6288
 3645SOL    HW121269   3.485   7.535   2.254 -0.9640 -0.7826 -0.4377
 3645SOL    HW221270   3.490   7.697   2.229 -0.0212 -0.8321 -0.5812
 3646SOL     OW21271   9.243   9.228   1.012  0.1711  0.0818 -0.8187
 3646SOL    HW121272   9.156   9.202   1.053 -0.8890  1.7159 -1.9234
 3646SOL    HW221273   9.294   9.285   1.076  0.4407 -0.8972 -0.1585
 3647SOL     OW21274   2.278   3.440   1.273 -0.2247  0.0236 -0.1437
 3647SOL    HW121275   2.332   3.365   1.311 -1.9804 -0.2515  1.9130
 3647SOL    HW221276   2.297   3.524   1.323  0.3810  0.5661 -1.2610
 3648SOL     OW21277   8.445   1.620   0.738  0.4576 -0.6422  0.3825
 3648SOL    HW121278   8.348   1.620   0.761  0.3322 -0.4395 -0.1336
 3648SOL    HW221279   8.482   1.528   0.748 -0.1960 -1.0804 -1.1066
 3649SOL     OW21280   2.625   0.535   0.458  0.1993 -0.3618 -0.0710
 3649SOL    HW121281   2.562   0.608   0.429  0.1343 -0.5519 -0.4027
 3649SOL    HW221282   2.626   0.462   0.390  0.8591 -0.3133 -0.1197
 3650SOL     OW21283   3.675   4.044   0.061 -0.4376 -0.1538  0.0365
 3650SOL    HW121284   3.624   3.982   0.001 -1.1304 -0.1593  0.6221
 3650SOL    HW221285   3.628   4.051   0.149  0.4899 -0.0287  0.5261
 3651SOL     OW21286   1.690   0.550   0.839  0.2170  0.2327 -0.0825
 3651SOL    HW121287   1.722   0.553   0.933  0.7876  1.9374 -0.3240
 3651SOL    HW221288   1.759   0.505   0.782  0.2117 -0.0895  0.1602
 3652SOL     OW21289   6.838   9.059   2.783  0.3263  0.0889 -0.2008
 3652SOL    HW121290   6.858   8.980   2.841 -0.6324 -0.3801 -0.5038
 3652SOL    HW221291   6.797   9.131   2.838 -0.1214 -0.1678 -0.1953
 3653SOL     OW21292   2.423   7.019   2.188  0.9589  0.1673  0.0483
 3653SOL    HW121293   2.519   7.021   2.159  0.2209  1.5860 -2.4416
 3653SOL    HW221294   2.372   6.955   2.129  0.2370 -0.0726  0.9225
 3654SOL     OW21295   8.877   7.564   0.252 -0.0763  0.0978  0.3808
 3654SOL    HW121296   8.905   7.623   0.328 -2.3896 -1.8229  2.8137
 3654SOL    HW221297   8.858   7.620   0.171 -1.6586  2.6543  2.4551
 3655SOL     OW21298   4.761   0.928   2.857  0.1816  0.6560  0.2785
 3655SOL    HW121299   4.684   0.894   2.805  0.0276 -1.0567  1.5903
 3655SOL    HW221300   4.828   0.855   2.871  0.5990  1.2889  1.7728
 3656SOL     OW21301   9.478   0.988   1.162 -0.3509  0.3994  0.1645
 3656SOL    HW121302   9.430   0.921   1.219 -1.3202  1.9143  1.1549
 3656SOL    HW221303   9.418   1.018   1.088  0.3867 -0.4457 -0.7979
 3657SOL     OW21304   8.278   2.571   1.242  0.7895  0.0080  0.0436
 3657SOL    HW121305   8.366   2.577   1.288  0.3478 -0.4101  0.9390
 3657SOL    HW221306   8.238   2.481   1.257 -0.4308  0.6670  0.8125
 3658SOL     OW21307   9.499   8.826   2.609 -0.1274 -0.1248 -0.0167
 3658SOL    HW121308   9.424   8.876   2.566 -0.4933 -0.3156  0.3871
 3658SOL    HW221309   9.511   8.859   2.703  2.1166  1.8303 -0.9600
 3659SOL     OW21310   1.515   3.660   1.034  0.3626  0.3473  0.2240
 3659SOL    HW121311   1.585   3.668   0.963 -0.9758 -0.3438 -1.1926
 3659SOL    HW221312   1.517   3.568   1.072 -1.7969 -0.6831 -2.0039
 3660SOL     OW21313   0.410   4.598   1.886 -0.2253 -0.5609  0.0529
 3660SOL    HW121314   0.356   4.514   1.895 -0.5266 -0.1129  3.2183
 3660SOL    HW221315   0.484   4.584   1.821 -1.0900 -2.8473 -0.4808
 3661SOL     OW21316   9.275   8.521   0.595  0.1282  0.3236 -0.0727
 3661SOL    HW121317   9.260   8.455   0.669  1.4347  0.4612  0.3364
 3661SOL    HW221318   9.354   8.578   0.617  1.1283 -0.2491 -2.0001
 3662SOL     OW21319   7.522   2.977   0.271 -0.0256  0.2403 -0.1213
 3662SOL    HW121320   7.566   3.040   0.207 -2.0943  0.5854 -1.2195
 3662SOL    HW221321   7.438   3.018   0.307  0.2222 -0.6384  1.5303
 3663SOL     OW21322   2.186   2.916   2.916  0.5220  0.1002 -0.1998
 3663SOL    HW121323   2.237   2.834   2.942 -0.3324 -0.6476 -0.8410
 3663SOL    HW221324   2.214   2.992   2.974  1.4599 -0.6019  0.2839
 3664SOL     OW21325   0.193   6.891   3.118 -0.3805  0.2560  0.1600
 3664SOL    HW121326   0.156   6.883   3.026 -1.4276  0.6719  0.5327
 3664SOL    HW221327   0.167   6.811   3.172 -1.0925  0.7313  0.5384
 3665SOL     OW21328   0.827   1.269   1.368  0.9277 -0.1863  0.0556
 3665SOL    HW121329   0.758   1.290   1.437  0.5053 -0.9567 -0.1170
 3665SOL    HW221330   0.913   1.246   1.413  0.4451 -1.4342  0.3694
 3666SOL     OW21331   8.407   7.636   3.051  0.4900  0.0839 -0.4968
 3666SOL    HW121332   8.307   7.629   3.049  0.3546  1.0314  1.3326
 3666SOL    HW221333   8.447   7.545   3.045 -0.4907 -0.3285 -0.9446
 3667SOL     OW21334   3.599   0.050   0.882  0.2437 -0.1497 -0.5132
 3667SOL    HW121335   3.691   0.026   0.910 -0.3511  0.2130  1.8326
 3667SOL    HW221336   3.577   0.142   0.913 -0.3714  0.3789 -2.4114
 3668SOL     OW21337   4.372   2.585   0.594  0.2732 -0.2753  0.3875
 3668SOL    HW121338   4.409   2.623   0.509 -0.5319  0.3609  0.3171
 3668SOL    HW221339   4.446   2.542   0.646  0.6784 -1.2414 -0.9289
 3669SOL     OW21340   8.108   7.186   3.367  0.6162 -0.2430  0.1228
 3669SOL    HW121341   8.137   7.253   3.436  1.9264 -0.2509 -0.4070
 3669SOL    HW221342   8.092   7.098   3.412  2.6699 -0.5737  0.2655
 3670SOL     OW21343   4.412   3.381   1.256 -0.4639 -0.1741  0.0737
 3670SOL    HW121344   4.445   3.444   1.186  2.4823 -0.4237  1.1654
 3670SOL    HW221345   4.428   3.420   1.346 -0.3034 -1.6975  0.7165
 3671SOL     OW21346   8.143   0.603   0.937 -0.0218  0.4035 -0.4553
 3671SOL    HW121347   8.095   0.574   1.020  0.8077 -1.3790 -0.5636
 3671SOL    HW221348   8.198   0.527   0.902  0.5817  1.5029 -1.9737
 3672SOL     OW21349   0.633   9.405   2.891  0.3536  0.3198  0.1016
 3672SOL    HW121350   0.733   9.407   2.888  0.2963  0.9544 -1.6598
 3672SOL    HW221351   0.598   9.498   2.894 -0.2158  0.1079  0.1128
 3673SOL     OW21352   2.687   0.656   1.720  0.4453 -0.7927  0.0400
 3673SOL    HW121353   2.655   0.584   1.659 -0.4820 -1.9650  1.8797
 3673SOL    HW221354   2.773   0.628   1.763 -0.3723 -1.2284  1.4388
 3674SOL     OW21355   8.038   6.997   0.097 -0.0904  0.3678  0.4891
 3674SOL    HW121356   8.111   6.987   0.165 -0.0313 -2.9817 -0.0085
 3674SOL    HW221357   7.976   6.919   0.102 -2.0238  1.7525 -1.0560
 3675SOL     OW21358   9.910   3.381   2.458  0.1491  0.4291  0.4763
 3675SOL    HW121359   9.842   3.447   2.427  1.0142  1.1776  0.1622
 3675SOL    HW221360  10.001   3.420   2.448  0.7612 -1.2901 -0.9649
 3676SOL     OW21361   2.282   2.165   0.033 -0.2389 -0.1384  0.4996
 3676SOL    HW121362   2.287   2.075  -0.011  0.6394  0.2087 -0.1020
 3676SOL    HW221363   2.317   2.157   0.127  0.3287 -0.3076  0.2734
 3677SOL     OW21364   3.965   0.574   3.136 -0.1305 -0.2419 -0.1198
 3677SOL    HW121365   4.037   0.581   3.204 -1.0454  1.7347  0.6774
 3677SOL    HW221366   3.882   0.619   3.169 -0.8228  0.1292 -2.2443
 3678SOL     OW21367   9.443   9.275   0.497  0.2316  0.1597  0.0736
 3678SOL    HW121368   9.404   9.232   0.416  0.3991 -0.5246  0.3565
 3678SOL    HW221369   9.398   9.363   0.512  0.4555  0.4559 -0.9671
 3679SOL     OW21370   4.826   8.211   1.531  0.4862 -0.4304  0.1375
 3679SOL    HW121371   4.784   8.166   1.452 -0.3032  0.9581 -0.2526
 3679SOL    HW221372   4.840   8.144   1.604 -1.1991 -1.2045 -0.2110
 3680SOL     OW21373   2.613   2.584   3.022  0.0764 -0.1859  0.4002
 3680SOL    HW121374   2.691   2.646   3.033  1.0053 -0.9254 -1.6245
 3680SOL    HW221375   2.529   2.637   3.010  0.9046  0.7284 -1.6015
 3681SOL     OW21376   2.917   8.928   1.523  0.3165 -0.2037  0.0770
 3681SOL    HW121377   2.993   8.973   1.571 -0.0242 -1.4621  1.8827
 3681SOL    HW221378   2.929   8.829   1.529 -2.2645 -0.4749  1.8119
 3682SOL     OW21379   9.028   7.315   1.015 -0.2116  0.2316 -0.2015
 3682SOL    HW121380   9.101   7.333   0.949 -1.0848  1.3313 -0.8933
 3682SOL    HW221381   9.058   7.343   1.106 -0.0781  1.5659 -0.6333
 3683SOL     OW21382   1.820   8.282   2.275 -0.3515 -0.2147  0.1419
 3683SOL    HW121383   1.722   8.299   2.269  0.0056  1.6931 -0.8292
 3683SOL    HW221384   1.859   8.340   2.346  0.4094  0.7328 -1.0314
 3684SOL     OW21385   8.687   7.437   2.566  0.1061 -0.5963 -0.3527
 3684SOL    HW121386   8.593   7.429   2.599  0.1524  0.3905  0.0519
 3684SOL    HW221387   8.688   7.441   2.467 -0.3898  0.6482 -0.3130
 3685SOL     OW21388   8.329   7.783   1.875 -0.0361  0.0657 -0.6831
 3685SOL    HW121389   8.315   7.806   1.972 -2.7794  0.8886 -1.2435
 3685SOL    HW221390   8.423   7.749   1.863  0.5674  0.5449  2.1354
 3686SOL     OW21391   8.612   4.876   2.366  0.7614  0.0756 -0.2489
 3686SOL    HW121392   8.561   4.849   2.284  0.3525  0.3757 -0.0974
 3686SOL    HW221393   8.624   4.797   2.425  1.4056 -0.2319 -0.7817
 3687SOL     OW21394   2.428   8.940   0.124  0.0267  0.2436 -0.3048
 3687SOL    HW121395   2.398   9.026   0.083 -0.4342  0.9891  1.5545
 3687SOL    HW221396   2.508   8.957   0.182 -0.9328 -0.3138  1.2086
 3688SOL     OW21397   0.450   9.099   1.286 -0.2229  0.3700 -0.1237
 3688SOL    HW121398   0.366   9.106   1.232 -0.2495  1.7555  0.0865
 3688SOL    HW221399   0.528   9.124   1.229  0.1649 -1.6854 -0.5557
 3689SOL     OW21400   4.426   3.725   1.806 -0.2904 -0.3760 -0.0700
 3689SOL    HW121401   4.338   3.728   1.760  0.0698  0.7406 -0.7257
 3689SOL    HW221402   4.416   3.754   1.901 -0.5152  0.4794 -0.3502
 3690SOL     OW21403   1.040   0.630   0.912 -0.1701 -0.1041 -0.0971
 3690SOL    HW121404   0.964   0.572   0.943  2.4856 -3.5019  0.3376
 3690SOL    HW221405   1.035   0.640   0.813 -1.0162 -0.5421 -0.1099
 3691SOL     OW21406   9.251   2.867   2.935  0.6788  0.1247 -0.2135
 3691SOL    HW121407   9.239   2.859   3.034  0.6592  2.9597  0.0775
 3691SOL    HW221408   9.166   2.841   2.890  0.2387  0.0722  0.6227
 3692SOL     OW21409   0.940   8.865   0.646 -0.1605  0.1726 -0.4627
 3692SOL    HW121410   0.960   8.785   0.702 -0.9977 -0.9919 -1.8184
 3692SOL    HW221411   1.019   8.927   0.648  0.6077 -0.8134  0.3651
 3693SOL     OW21412   8.564   8.292   2.042  0.6154 -0.0968  0.0956
 3693SOL    HW121413   8.641   8.341   2.000 -0.5353  1.9781  0.3429
 3693SOL    HW221414   8.569   8.302   2.142  1.2462 -1.8322  0.2456
 3694SOL     OW21415   3.288   2.137   0.931  0.0839 -0.7118  0.5568
 3694SOL    HW121416   3.325   2.229   0.950 -0.6315 -0.3669  0.2924
 3694SOL    HW221417   3.214   2.144   0.865 -0.0127 -1.4818  0.5822
 3695SOL     OW21418   1.164   9.449   0.839 -0.1147  0.1687 -0.0633
 3695SOL    HW121419   1.131   9.542   0.822  0.5151  0.4612  0.3036
 3695SOL    HW221420   1.098   9.400   0.896 -0.7140  0.2100 -0.7178
 3696SOL     OW21421   3.231   8.500   1.589 -0.4244 -0.8590  0.8347
 3696SOL    HW121422   3.160   8.430   1.597  0.1734 -1.7582 -1.3297
 3696SOL    HW221423   3.246   8.543   1.678 -2.5748 -1.7276  1.6482
 3697SOL     OW21424   0.393   3.087   0.507 -0.5986  0.0744  0.4611
 3697SOL    HW121425   0.315   3.036   0.545 -0.8855  0.2322  0.0867
 3697SOL    HW221426   0.428   3.039   0.426  0.2620 -0.4716  1.1391
 3698SOL     OW21427   0.610   8.690   1.865  0.0458 -0.3489  0.2404
 3698SOL    HW121428   0.580   8.613   1.921 -0.4320  0.6078  1.3291
 3698SOL    HW221429   0.591   8.671   1.769 -0.1145 -1.5582  0.4970
 3699SOL     OW21430   0.842   6.842   0.768 -0.0182 -0.5204  0.5569
 3699SOL    HW121431   0.777   6.910   0.803  0.1221 -0.1603  0.1197
 3699SOL    HW221432   0.799   6.790   0.695  1.0780  1.5608 -1.6236
 3700SOL     OW21433   1.121   8.128   2.990 -0.3142  0.0351 -0.4018
 3700SOL    HW121434   1.220   8.145   2.989 -0.3373  0.3458  1.6866
 3700SOL    HW221435   1.094   8.090   2.902  1.7405 -0.4544 -0.8588
 3701SOL     OW21436   8.232   0.777   0.544  0.5249 -0.3333  0.0767
 3701SOL    HW121437   8.177   0.765   0.461  0.7366  2.0581 -0.4391
 3701SOL    HW221438   8.311   0.836   0.523 -0.7909  2.4076  2.5421
 3702SOL     OW21439   8.604   0.677   1.004 -0.3887  0.1259 -0.6469
 3702SOL    HW121440   8.641   0.699   0.914  1.3753  1.7609  0.4333
 3702SOL    HW221441   8.519   0.727   1.019  0.0467  0.9309 -0.8620
 3703SOL     OW21442   7.967   2.898   0.530  0.1011 -0.5372  0.3461
 3703SOL    HW121443   7.993   2.890   0.434 -0.1558  0.9804  0.1332
 3703SOL    HW221444   7.871   2.925   0.537  0.2770 -0.0462  1.0050
 3704SOL     OW21445   9.251   2.457   2.751  0.0637  0.0260  0.6118
 3704SOL    HW121446   9.234   2.359   2.762 -0.7007  0.0221 -0.5049
 3704SOL    HW221447   9.349   2.472   2.736  0.2881 -0.4949  1.5350
 3705SOL     OW21448   1.619   4.404   0.906 -0.7644 -0.5327  0.0370
 3705SOL    HW121449   1.551   4.346   0.861 -0.6810 -0.2073 -0.5210
 3705SOL    HW221450   1.660   4.355   0.982 -2.2294 -0.4217  0.9104
 3706SOL     OW21451   0.147   7.026   1.320  0.6950  0.2446 -0.4476
 3706SOL    HW121452   0.134   7.125   1.321  0.4842  0.2098  0.4258
 3706SOL    HW221453   0.092   6.984   1.392  1.0064 -0.4845 -0.6241
 3707SOL     OW21454   1.123   3.681   3.176  0.4288 -0.1680 -0.2366
 3707SOL    HW121455   1.086   3.712   3.264 -1.0661 -0.6278 -0.6815
 3707SOL    HW221456   1.136   3.760   3.116 -0.5763 -0.0702 -0.3373
 3708SOL     OW21457   1.572   1.377   0.992  0.0998 -0.1171 -0.1737
 3708SOL    HW121458   1.649   1.440   0.987  0.4883 -0.6801 -1.4627
 3708SOL    HW221459   1.519   1.382   0.907 -0.0535 -1.2701 -0.1587
 3709SOL     OW21460   2.928   2.639   1.282  0.5062  0.5356 -0.3826
 3709SOL    HW121461   2.857   2.672   1.344 -0.6604  0.6271 -1.7253
 3709SOL    HW221462   3.018   2.648   1.325 -0.3220  0.1160  1.4628
 3710SOL     OW21463   3.613   7.758   2.816  0.5189  0.6182 -0.1428
 3710SOL    HW121464   3.690   7.779   2.756 -0.0049  0.2638 -0.9430
 3710SOL    HW221465   3.551   7.694   2.770  1.3699 -1.6197  1.7106
 3711SOL     OW21466   3.150   7.604   3.229 -0.3295  0.1499 -0.6582
 3711SOL    HW121467   3.249   7.607   3.243 -0.5322  0.6071  0.7564
 3711SOL    HW221468   3.118   7.692   3.194 -0.4015  0.4264  0.0911
 3712SOL     OW21469   2.574   8.778   0.961  0.6869 -0.5910 -0.2069
 3712SOL    HW121470   2.493   8.790   1.019  0.6985 -1.2283 -0.0493
 3712SOL    HW221471   2.600   8.865   0.921  1.9543  0.3025  2.4518
 3713SOL     OW21472   4.507   2.341   1.810  0.0158  0.1002 -0.0437
 3713SOL    HW121473   4.545   2.417   1.863 -0.1955 -0.6156  1.1408
 3713SOL    HW221474   4.411   2.328   1.834 -0.1957  0.0398 -0.9129
 3714SOL     OW21475   0.723   4.586   2.860  0.2719  0.2289  0.1471
 3714SOL    HW121476   0.770   4.501   2.837  0.2030 -0.3393  2.0435
 3714SOL    HW221477   0.709   4.592   2.959 -2.2366  1.1209 -0.2024
 3715SOL     OW21478   1.095   0.649   1.557  0.0188 -0.0510 -0.4400
 3715SOL    HW121479   1.115   0.673   1.462  0.7240  1.1185  0.0000
 3715SOL    HW221480   1.178   0.611   1.599  0.2217  1.1166  0.2281
 3716SOL     OW21481   2.126   1.278   3.312  0.0962  0.2350 -0.4082
 3716SOL    HW121482   2.190   1.206   3.337  1.1893  0.8981 -1.2604
 3716SOL    HW221483   2.149   1.362   3.361 -1.1206  0.0415  0.5135
 3717SOL     OW21484   2.627   9.266   0.376  0.3083 -0.1661 -0.2209
 3717SOL    HW121485   2.531   9.239   0.368 -0.4572  2.0594  0.7225
 3717SOL    HW221486   2.678   9.194   0.421 -1.1770 -0.9308  0.2906
 3718SOL     OW21487   9.187   7.613   0.035 -0.4545  0.2086  0.0956
 3718SOL    HW121488   9.210   7.568  -0.051  1.2704  1.4107 -0.1120
 3718SOL    HW221489   9.151   7.546   0.100  1.0949 -1.2760 -0.5470
 3719SOL     OW21490   8.011   1.822   0.930  0.1838 -0.0305  0.7274
 3719SOL    HW121491   8.076   1.838   1.004 -0.9603  0.3096  1.6765
 3719SOL    HW221492   7.955   1.903   0.916  0.7394  0.0943 -0.8839
 3720SOL     OW21493   8.563   5.157   2.436  0.6409 -0.1265 -0.0484
 3720SOL    HW121494   8.610   5.080   2.393  0.8007 -1.5657  2.6310
 3720SOL    HW221495   8.553   5.140   2.534 -1.5928  2.1311  0.1620
 3721SOL     OW21496   0.383   8.779   1.061  0.2615  0.2114 -0.8835
 3721SOL    HW121497   0.330   8.795   0.978 -0.9458  2.6533  0.2964
 3721SOL    HW221498   0.329   8.805   1.141  1.1445 -2.7046  0.7700
 3722SOL     OW21499   9.693   9.881   0.914 -0.1153  0.0518 -1.0720
 3722SOL    HW121500   9.783   9.895   0.954  0.8677 -3.0394 -2.0797
 3722SOL    HW221501   9.633   9.958   0.938  2.0948  1.0279  1.4876
 3723SOL     OW21502   8.419   1.759   0.470  0.1455  0.7334 -0.4872
 3723SOL    HW121503   8.452   1.733   0.560 -0.3882 -0.2891 -0.5871
 3723SOL    HW221504   8.487   1.817   0.425  1.3351 -0.4680 -0.2630
 3724SOL     OW21505   3.403   7.608   3.222  0.3009 -0.1384 -0.1551
 3724SOL    HW121506   3.449   7.670   3.158 -1.7318 -0.4451 -1.9755
 3724SOL    HW221507   3.472   7.559   3.276  2.0663  0.0518 -2.1673
 3725SOL     OW21508   3.374   4.880   1.816  0.5896 -0.4786  0.0138
 3725SOL    HW121509   3.415   4.971   1.810 -1.1814  0.3282 -0.1356
 3725SOL    HW221510   3.406   4.834   1.899 -0.5845  1.3416  1.5167
 3726SOL     OW21511   2.618   9.163   2.876 -0.7834 -0.7364  0.5051
 3726SOL    HW121512   2.696   9.218   2.849 -1.1663  0.6501  2.1535
 3726SOL    HW221513   2.558   9.148   2.797  0.2263 -0.2977 -0.3422
 3727SOL     OW21514   1.155   7.896   0.423 -0.2398 -0.1740  0.5273
 3727SOL    HW121515   1.237   7.909   0.366  0.7961 -0.6459  1.8846
 3727SOL    HW221516   1.077   7.939   0.379  0.4379 -0.9769 -1.5201
 3728SOL     OW21517   3.726   6.664   3.068  0.6381 -0.2383  0.4637
 3728SOL    HW121518   3.660   6.732   3.035  2.2848  0.8399 -0.7155
 3728SOL    HW221519   3.797   6.709   3.121  0.7646 -1.3020  1.2089
 3729SOL     OW21520   4.007   0.750   1.331 -0.0329  0.4776  0.5230
 3729SOL    HW121521   4.071   0.731   1.257 -1.5398 -0.1223 -0.6682
 3729SOL    HW221522   4.054   0.795   1.406  1.5456  1.0040 -0.7648
 3730SOL     OW21523   6.603   8.504   2.850  0.0561  0.4176 -0.3375
 3730SOL    HW121524   6.652   8.588   2.874 -0.3034  0.6296 -0.3368
 3730SOL    HW221525   6.666   8.440   2.807  0.5394  0.3136  0.5290
 3731SOL     OW21526   3.156   0.988   0.654 -0.1421  0.5819  0.5017
 3731SOL    HW121527   3.114   1.022   0.570 -2.7341  1.8040  2.2010
 3731SOL    HW221528   3.142   0.890   0.662  0.2689  0.4366 -0.5874
 3732SOL     OW21529   4.662   2.339   2.322 -0.2727  0.0009 -0.0875
 3732SOL    HW121530   4.755   2.314   2.295  0.2676  0.3796  1.3823
 3732SOL    HW221531   4.642   2.432   2.291 -0.4404 -0.3366 -1.0345
 3733SOL     OW21532   8.547   0.430   3.102 -0.1110 -0.2426 -0.4337
 3733SOL    HW121533   8.641   0.430   3.070 -0.0598  3.4270 -0.4635
 3733SOL    HW221534   8.502   0.345   3.074  2.5307 -1.0916 -2.2503
 3734SOL     OW21535   2.693   0.358   0.942  0.4631  0.3629 -0.1091
 3734SOL    HW121536   2.659   0.332   0.852  0.8870 -1.7361  0.3275
 3734SOL    HW221537   2.741   0.282   0.984  2.3270  2.0544  0.9371
 3735SOL     OW21538   9.851   4.168   0.265  0.7530  0.1831 -0.1644
 3735SOL    HW121539   9.886   4.079   0.236 -0.6752  0.3460 -2.5656
 3735SOL    HW221540   9.752   4.162   0.278  0.8181  1.1287  0.8373
 3736SOL     OW21541   0.655   2.409   2.637  0.1094 -0.8516 -0.0490
 3736SOL    HW121542   0.731   2.363   2.593  0.4917  0.0660 -0.3712
 3736SOL    HW221543   0.676   2.425   2.733 -0.3810 -2.1070  0.2771
 3737SOL     OW21544   0.868   4.777   0.618  0.3962 -0.5655  0.7715
 3737SOL    HW121545   0.790   4.841   0.618  0.0249 -1.0035 -0.3952
 3737SOL    HW221546   0.950   4.825   0.650  0.3783  0.8241 -1.1728
 3738SOL     OW21547   9.930   2.692   3.310 -0.3719  0.0215 -0.2112
 3738SOL    HW121548   9.914   2.642   3.395  2.6745 -0.0972  0.3482
 3738SOL    HW221549  10.008   2.652   3.262 -0.7805  1.3846 -2.0750
 3739SOL     OW21550   2.128   4.910   1.125 -0.5461  0.7522 -0.1408
 3739SOL    HW121551   2.060   4.967   1.080  0.7750  2.8040  0.3770
 3739SOL    HW221552   2.167   4.960   1.202  0.8628 -0.7518  0.1511
 3740SOL     OW21553   8.045   9.917   1.587  0.5461 -0.7848  0.4216
 3740SOL    HW121554   8.010   9.869   1.507 -0.5121 -0.9977  1.0122
 3740SOL    HW221555   8.004  10.008   1.591 -0.0767 -1.0999  1.2119
 3741SOL     OW21556   9.806   5.053   1.722  0.0837 -0.4821 -0.0364
 3741SOL    HW121557   9.786   4.989   1.796 -0.3063 -0.8964 -0.4912
 3741SOL    HW221558   9.808   5.146   1.757  0.2373 -0.7089  0.5550
 3742SOL     OW21559   3.957   3.937   0.455  0.0401  0.0686  0.3891
 3742SOL    HW121560   3.940   3.863   0.520 -0.8426  0.6389  0.8217
 3742SOL    HW221561   3.920   4.022   0.492  3.6951  1.3882  1.3116
 3743SOL     OW21562   1.065   4.019   1.278  0.2068  0.3637 -0.0762
 3743SOL    HW121563   1.016   4.021   1.191  2.2556  0.0608 -1.2602
 3743SOL    HW221564   1.027   4.089   1.339 -1.2095  0.6141 -1.2113
 3744SOL     OW21565   1.917   6.352   1.645  0.0619 -0.1557  0.0420
 3744SOL    HW121566   1.869   6.277   1.599  2.1189 -0.0008 -2.4585
 3744SOL    HW221567   1.871   6.438   1.624  0.4267 -0.1999 -0.9938
 3745SOL     OW21568   0.108   0.735   0.187 -0.5032 -0.3306  0.0478
 3745SOL    HW121569   0.157   0.751   0.273 -0.5726  0.0727  0.0146
 3745SOL    HW221570   0.165   0.766   0.111 -0.9868  0.5450  0.0385
 3746SOL     OW21571   3.812   1.725   1.220 -0.6427  0.0311  0.0223
 3746SOL    HW121572   3.771   1.671   1.147 -1.1678  0.7660 -0.2322
 3746SOL    HW221573   3.741   1.761   1.280 -0.3249  0.7975 -0.0593
 3747SOL     OW21574   2.740   6.327   2.370 -0.0829 -0.8480 -0.7092
 3747SOL    HW121575   2.716   6.245   2.423  1.2054 -1.7733 -1.5394
 3747SOL    HW221576   2.695   6.323   2.280 -1.9209  0.5123  0.1203
 3748SOL     OW21577   0.081   3.187   2.822  0.1303  0.0431  0.2404
 3748SOL    HW121578   0.067   3.108   2.882 -2.9368  1.3635  1.3801
 3748SOL    HW221579   0.021   3.179   2.742  3.1833 -1.0033 -2.0511
 3749SOL     OW21580   8.259   2.172   0.184  0.4434  0.2145 -0.2118
 3749SOL    HW121581   8.350   2.135   0.166  0.0521 -1.3409  0.9191
 3749SOL    HW221582   8.231   2.148   0.277 -1.4926 -0.0878 -0.8626
 3750SOL     OW21583   2.577   2.989   3.171  0.8324 -0.9253  0.0153
 3750SOL    HW121584   2.483   3.005   3.142  1.0908 -0.6028 -0.6463
 3750SOL    HW221585   2.622   2.926   3.107  1.7262  0.6123 -0.9060
 3751SOL     OW21586   9.648   6.383   1.186 -0.2723  0.6178  0.3163
 3751SOL    HW121587   9.652   6.474   1.229  2.3456  1.4427 -1.5403
 3751SOL    HW221588   9.741   6.348   1.173 -0.8741  0.4608 -4.6901
 3752SOL     OW21589   9.374   3.516   3.061 -0.4523 -0.1747  0.1441
 3752SOL    HW121590   9.460   3.468   3.044  0.3324  0.1362  2.9412
 3752SOL    HW221591   9.330   3.478   3.142 -1.0780  2.0914  0.9127
 3753SOL     OW21592   2.111   3.951   2.329 -0.3335  0.5103  0.6360
 3753SOL    HW121593   2.091   3.853   2.329 -0.8322  0.5800 -1.8399
 3753SOL    HW221594   2.207   3.966   2.308  0.0256  0.5434  2.2045
 3754SOL     OW21595   8.707   1.325   2.277 -0.5301  0.1283  0.1351
 3754SOL    HW121596   8.802   1.292   2.282 -0.6766  0.0128  4.2786
 3754SOL    HW221597   8.707   1.424   2.270 -0.1020  0.0151 -1.5436
 3755SOL     OW21598   2.738   3.989   2.752 -0.2369 -0.1438 -0.3876
 3755SOL    HW121599   2.692   3.900   2.743 -0.0980 -0.6519  3.1272
 3755SOL    HW221600   2.816   3.992   2.691 -1.5436 -1.5569 -2.1893
 3756SOL     OW21601   9.434   2.842   2.012 -0.3046 -0.5847 -0.4533
 3756SOL    HW121602   9.450   2.904   1.934  0.3861 -0.5295 -0.2746
 3756SOL    HW221603   9.486   2.875   2.091 -1.9131  0.0051  0.3733
 3757SOL     OW21604   0.405   3.151   3.312  0.1006  0.4809  0.4304
 3757SOL    HW121605   0.447   3.135   3.223 -0.3242  0.3545  0.2512
 3757SOL    HW221606   0.475   3.183   3.377  0.5410 -0.0567  0.2263
 3758SOL     OW21607   1.235   5.644   3.333 -0.1344  0.6309 -0.2016
 3758SOL    HW121608   1.210   5.669   3.240  0.8280  2.6660  0.0736
 3758SOL    HW221609   1.331   5.619   3.337  0.1446  1.7684  0.4715
 3759SOL     OW21610   1.465   2.633   0.592  0.1080  0.9413  0.3181
 3759SOL    HW121611   1.397   2.705   0.597 -1.5652 -0.3196 -3.0069
 3759SOL    HW221612   1.434   2.554   0.646 -0.8878  0.5532 -0.7947
 3760SOL     OW21613   9.393   5.425   2.817  0.0496  0.2531  0.5718
 3760SOL    HW121614   9.322   5.433   2.747  0.5911 -0.6635 -0.0944
 3760SOL    HW221615   9.364   5.472   2.900 -0.3565  1.8323 -0.4514
 3761SOL     OW21616   9.447   5.996   2.779  0.0876  0.4339 -0.4182
 3761SOL    HW121617   9.486   6.088   2.792 -0.6820  0.9197 -1.5283
 3761SOL    HW221618   9.505   5.944   2.717  0.5928  0.1241  0.3117
 3762SOL     OW21619   2.901   8.153   2.320  0.4227  0.2554 -0.0984
 3762SOL    HW121620   2.869   8.126   2.229 -0.5240  3.4277 -0.7471
 3762SOL    HW221621   2.870   8.086   2.388  0.9412 -2.0256 -2.0304
 3763SOL     OW21622   4.024   4.213   1.613  0.0883  0.1992 -0.1948
 3763SOL    HW121623   4.117   4.245   1.633  0.1746  1.4828 -2.4163
 3763SOL    HW221624   4.024   4.114   1.603  1.2121  0.1913 -0.1720
 3764SOL     OW21625   9.303   7.603   3.021  0.7167 -0.1061  0.2130
 3764SOL    HW121626   9.290   7.673   3.091  0.1671  0.0128 -0.0080
 3764SOL    HW221627   9.331   7.647   2.935  0.5159 -0.1717  0.1135
 3765SOL     OW21628   8.788   7.502   1.894  0.1419  0.2688 -0.7145
 3765SOL    HW121629   8.882   7.530   1.874  0.2114  0.0170 -0.7523
 3765SOL    HW221630   8.773   7.410   1.858 -0.2414  0.4624 -1.0563
 3766SOL     OW21631   4.708   1.817   1.320 -0.6528  0.1401 -0.0562
 3766SOL    HW121632   4.698   1.875   1.239 -0.9596 -2.1168 -1.6754
 3766SOL    HW221633   4.618   1.784   1.348 -0.2214 -1.7397 -0.8094
 3767SOL     OW21634   2.275   2.990   1.590 -0.2524  0.4017  0.2498
 3767SOL    HW121635   2.371   3.005   1.613 -0.0231 -1.3992  0.6200
 3767SOL    HW221636   2.264   2.987   1.491 -0.3180  2.8093  0.1588
 3768SOL     OW21637   8.825   9.948   2.735 -0.2445 -0.6752 -0.1492
 3768SOL    HW121638   8.776  10.035   2.733 -0.2636 -0.6519  1.0113
 3768SOL    HW221639   8.814   9.902   2.647  0.6390  0.9629 -1.1617
 3769SOL     OW21640   9.530   4.965   2.288 -0.3405 -0.1676  0.4034
 3769SOL    HW121641   9.567   5.040   2.234 -1.4328 -0.4148 -0.7145
 3769SOL    HW221642   9.484   4.900   2.227 -0.4997 -1.0902  1.4961
 3770SOL     OW21643   1.201   9.532   1.427  0.7969 -0.1503  0.3770
 3770SOL    HW121644   1.205   9.598   1.352 -0.1459 -0.3484  0.1468
 3770SOL    HW221645   1.283   9.541   1.484  1.9966 -0.6888 -1.2384
 3771SOL     OW21646   8.454   8.361   1.585 -0.2758 -0.2481  0.0995
 3771SOL    HW121647   8.490   8.349   1.492 -1.8136 -1.5501 -0.3440
 3771SOL    HW221648   8.480   8.282   1.641 -1.3284 -0.5896  0.1208
 3772SOL     OW21649   8.048   1.251   0.142 -0.3824 -0.6113 -0.4159
 3772SOL    HW121650   8.058   1.178   0.075 -2.1476  1.1750 -2.7491
 3772SOL    HW221651   7.951   1.272   0.154  0.0822  1.4590  0.0145
 3773SOL     OW21652   9.305   9.187   3.110 -0.5379 -0.8668  0.1798
 3773SOL    HW121653   9.371   9.205   3.182  0.3671 -3.5703  0.0585
 3773SOL    HW221654   9.306   9.263   3.044  1.1459 -0.0632  1.1090
 3774SOL     OW21655   3.136   3.271   2.520  0.1235  0.3796 -0.3366
 3774SOL    HW121656   3.061   3.212   2.489 -0.7197  1.0590  0.3758
 3774SOL    HW221657   3.119   3.298   2.615  2.6115 -1.5914  0.7380
 3775SOL     OW21658   9.614   6.803   1.909 -0.1773 -0.5999 -0.4259
 3775SOL    HW121659   9.550   6.876   1.932  0.1609 -0.1582 -0.9015
 3775SOL    HW221660   9.564   6.717   1.898 -0.4727 -0.6363  1.0248
 3776SOL     OW21661   3.461   9.162   1.406  0.4195 -0.4531 -0.7265
 3776SOL    HW121662   3.435   9.089   1.468  0.8924 -2.1892 -2.5253
 3776SOL    HW221663   3.508   9.124   1.327 -0.6076  1.6437 -2.4134
 3777SOL     OW21664   9.228   1.343   0.651  0.1908  0.1078  0.5406
 3777SOL    HW121665   9.153   1.371   0.590  0.3634 -0.5359  0.0335
 3777SOL    HW221666   9.203   1.365   0.746 -0.6133 -0.0416  0.3678
 3778SOL     OW21667   3.555   2.233   2.997  0.1634 -0.1336  0.3299
 3778SOL    HW121668   3.526   2.147   2.955 -2.2386  0.5694  0.4739
 3778SOL    HW221669   3.570   2.302   2.926 -1.6000  0.3807  0.4293
 3779SOL     OW21670   0.449   9.267   2.729  0.1507 -0.0754 -0.4525
 3779SOL    HW121671   0.445   9.167   2.733 -1.9724  0.0389  0.6680
 3779SOL    HW221672   0.517   9.300   2.794  0.8032 -0.7741 -0.7668
 3780SOL     OW21673   4.610   0.865   2.632  0.9529 -0.6193 -0.2867
 3780SOL    HW121674   4.516   0.855   2.664  1.5938 -2.4454  1.0619
 3780SOL    HW221675   4.612   0.858   2.532 -0.1229 -2.2990 -0.2000
 3781SOL     OW21676   7.944   0.625   1.869  0.5055 -0.2889 -0.6924
 3781SOL    HW121677   7.889   0.571   1.932 -2.0132  1.3326 -1.3871
 3781SOL    HW221678   7.932   0.590   1.776 -0.7892  1.1191 -1.0833
 3782SOL     OW21679   8.498   4.598   2.952  0.2199 -0.3419 -0.0785
 3782SOL    HW121680   8.430   4.550   2.896  1.0239 -0.5492 -0.8924
 3782SOL    HW221681   8.474   4.695   2.958  0.9498 -0.0122 -2.0806
 3783SOL     OW21682   2.629   5.045   2.460 -0.0286 -0.2008 -0.0848
 3783SOL    HW121683   2.656   5.047   2.556  0.6073 -0.4734 -0.2572
 3783SOL    HW221684   2.628   4.950   2.428 -0.7095 -0.1552 -0.2180
 3784SOL     OW21685   2.434   7.979   0.667 -0.2690 -0.6789  0.4820
 3784SOL    HW121686   2.436   7.947   0.762  1.8964 -0.7788  0.4163
 3784SOL    HW221687   2.339   7.981   0.635 -1.1218  0.2522  2.9495
 3785SOL     OW21688   9.824   1.590   2.023  0.0731 -0.2062 -0.2562
 3785SOL    HW121689   9.914   1.631   2.040  0.4421 -0.0741 -2.4798
 3785SOL    HW221690   9.754   1.661   2.023  0.5407  0.2684 -2.7785
 3786SOL     OW21691   1.768   5.941   1.838 -0.0348 -0.1400  0.2358
 3786SOL    HW121692   1.735   5.848   1.820  2.1452 -0.9602  0.3863
 3786SOL    HW221693   1.698   5.991   1.889 -1.1184 -1.7834  0.4164
 3787SOL     OW21694   8.209   6.165   1.929 -0.2769 -0.0267 -0.2179
 3787SOL    HW121695   8.188   6.100   2.002  0.2860  1.9421  1.7413
 3787SOL    HW221696   8.287   6.132   1.876  0.0660 -0.8830  0.8118
 3788SOL     OW21697   8.999   2.601   2.995 -0.4851  0.4163  0.2639
 3788SOL    HW121698   8.995   2.659   3.076 -1.8553  1.9621 -0.8729
 3788SOL    HW221699   9.035   2.654   2.918  0.3549 -0.9001 -0.2544
 3789SOL     OW21700   3.971   9.933   0.017 -0.0358 -0.0727 -0.4242
 3789SOL    HW121701   3.917   9.965   0.094  1.3395  0.5679  0.2934
 3789SOL    HW221702   4.018   9.848   0.041  2.3234  1.3842  0.3422
 3790SOL     OW21703   8.868   1.611   1.989  0.0044  0.3003  0.0508
 3790SOL    HW121704   8.839   1.703   1.964 -0.0380 -0.0457 -1.2187
 3790SOL    HW221705   8.962   1.614   2.023  0.0111  0.8186 -0.0115
 3791SOL     OW21706   3.788   7.927   0.287 -0.6246  0.0894 -0.7127
 3791SOL    HW121707   3.809   7.956   0.194 -0.4194 -0.2396 -0.7711
 3791SOL    HW221708   3.808   7.830   0.297  0.8371  0.4641  0.1090
 3792SOL     OW21709   1.302   4.272   1.650  0.0141  0.0856  0.2596
 3792SOL    HW121710   1.379   4.289   1.587 -1.9888  0.5099 -2.1405
 3792SOL    HW221711   1.253   4.190   1.621 -0.5713 -0.0887  1.6970
 3793SOL     OW21712   0.261   6.033   0.060 -0.4796  0.3365  0.0278
 3793SOL    HW121713   0.209   6.116   0.081 -1.4066  0.2518 -1.7574
 3793SOL    HW221714   0.326   6.014   0.133 -1.2351  1.8554  1.1183
 3794SOL     OW21715   8.344   5.741   3.114  0.3232  0.5631 -0.0197
 3794SOL    HW121716   8.253   5.703   3.126 -0.1477  2.0482  1.3826
 3794SOL    HW221717   8.373   5.731   3.019 -2.1843  1.9391 -0.9759
 3795SOL     OW21718   4.998   2.329   1.128 -0.0819  0.7147  0.5982
 3795SOL    HW121719   5.028   2.248   1.179  1.4151  0.0046 -1.3215
 3795SOL    HW221720   4.899   2.330   1.120 -0.1575 -0.4914  1.3570
 3796SOL     OW21721   2.701   8.456   1.228 -0.5574  0.3715  0.3416
 3796SOL    HW121722   2.613   8.410   1.221 -0.6322  0.8807 -2.7365
 3796SOL    HW221723   2.772   8.390   1.251 -1.4611 -0.3038  1.2624
 3797SOL     OW21724   8.834   6.710   1.923 -0.3024 -0.1292  0.2759
 3797SOL    HW121725   8.739   6.740   1.929 -0.5232 -0.6708 -0.4461
 3797SOL    HW221726   8.865   6.716   1.828  1.0455  2.0108  0.8161
 3798SOL     OW21727   1.864   0.108   2.217  0.1675 -0.2624  0.6407
 3798SOL    HW121728   1.822   0.197   2.237  1.4964  0.1689  1.6110
 3798SOL    HW221729   1.951   0.122   2.169 -0.9437 -1.1568 -1.7388
 3799SOL     OW21730   9.966   4.066   2.051 -0.5545 -0.0512 -0.6608
 3799SOL    HW121731   9.903   3.989   2.043 -0.6828  0.1928 -2.1470
 3799SOL    HW221732   9.981   4.106   1.960  0.7073  0.7124 -0.1245
 3800SOL     OW21733   4.810   3.662   1.448  0.1913  0.0468  0.2968
 3800SOL    HW121734   4.797   3.603   1.368 -1.6735 -0.5190  0.9936
 3800SOL    HW221735   4.721   3.685   1.488  1.0928  0.0602  2.3960
 3801SOL     OW21736   0.487   7.463   1.501  0.5248  0.3456  0.3411
 3801SOL    HW121737   0.461   7.372   1.534  1.5939 -0.4798 -1.0403
 3801SOL    HW221738   0.530   7.455   1.412  1.1401  2.1668  0.4529
 3802SOL     OW21739   9.509   6.186   1.564  0.3419 -0.5330 -0.2280
 3802SOL    HW121740   9.465   6.232   1.487  0.3290  1.5138  0.9656
 3802SOL    HW221741   9.580   6.123   1.530 -0.4217 -0.4757 -1.9348
 3803SOL     OW21742   9.496   0.432   0.956 -0.2603 -0.2468  0.8546
 3803SOL    HW121743   9.463   0.504   1.017 -2.4150 -1.2615  0.9210
 3803SOL    HW221744   9.443   0.349   0.970 -0.2770 -0.7466 -1.8719
 3804SOL     OW21745   0.514   6.181   0.432 -0.1248  0.0900  0.4750
 3804SOL    HW121746   0.434   6.133   0.397  1.8019 -2.8507 -0.1333
 3804SOL    HW221747   0.527   6.158   0.529 -0.4736  1.2172  0.7925
 3805SOL     OW21748   0.717   2.508   1.409  0.4787 -0.0067 -0.2540
 3805SOL    HW121749   0.745   2.598   1.376  0.2199  0.2266  0.1494
 3805SOL    HW221750   0.733   2.502   1.508  1.5090 -0.7926 -0.4626
 3806SOL     OW21751   9.703   3.791   1.110  0.5074  0.0512  0.4738
 3806SOL    HW121752   9.631   3.748   1.164  2.7457 -1.5281  2.3148
 3806SOL    HW221753   9.754   3.720   1.061  0.8338  1.1428 -0.7798
 3807SOL     OW21754   0.856   4.336   2.799 -0.0213  0.1911  0.1202
 3807SOL    HW121755   0.929   4.315   2.734 -0.2504  1.2863 -0.5051
 3807SOL    HW221756   0.775   4.283   2.775  0.2978 -0.3772  0.2928
 3808SOL     OW21757   8.557   2.791   2.533  0.2080  0.1710 -0.2510
 3808SOL    HW121758   8.607   2.796   2.447 -0.4230  1.4111 -0.5536
 3808SOL    HW221759   8.459   2.803   2.515  0.1359  1.1003  0.7067
 3809SOL     OW21760   9.414   0.569   2.120 -0.7899  0.0800  0.0510
 3809SOL    HW121761   9.437   0.599   2.213 -0.7322  1.3447 -0.3633
 3809SOL    HW221762   9.346   0.631   2.081 -0.9706 -0.5743 -0.6777
 3810SOL     OW21763   2.719   5.318   1.766  0.4460  0.8139 -0.2332
 3810SOL    HW121764   2.736   5.234   1.714 -3.0985 -0.3389  0.3708
 3810SOL    HW221765   2.728   5.300   1.863  0.0587  1.2308 -0.1161
 3811SOL     OW21766   9.010   1.416   3.250 -0.2182 -0.3817 -0.1626
 3811SOL    HW121767   8.961   1.330   3.239  1.7369 -1.5455 -0.1068
 3811SOL    HW221768   8.958   1.476   3.311 -1.5404 -1.5720 -0.0820
 3812SOL     OW21769   0.928   4.597   2.597  0.2340 -0.1128 -0.1735
 3812SOL    HW121770   0.980   4.623   2.678  1.6542  0.8447 -1.3731
 3812SOL    HW221771   0.957   4.506   2.567 -0.1008 -0.3526  0.2228
 3813SOL     OW21772   0.917   4.026   1.032 -0.1911  0.0052  0.7716
 3813SOL    HW121773   0.950   4.044   0.939 -0.0842 -0.6223  0.6897
 3813SOL    HW221774   0.817   4.029   1.033 -0.2198 -0.7533  0.4799
 3814SOL     OW21775   3.048   8.483   0.456  0.4597  0.5652 -0.3192
 3814SOL    HW121776   3.002   8.510   0.541  1.9399 -0.3863  0.8139
 3814SOL    HW221777   3.087   8.392   0.467  2.2709  1.1873 -1.3785
 3815SOL     OW21778   3.099   2.218   3.247  0.3563 -0.2514  0.2876
 3815SOL    HW121779   3.181   2.242   3.194  1.9961  0.3792  2.9573
 3815SOL    HW221780   3.089   2.119   3.250  0.7230 -0.3172 -0.4999
 3816SOL     OW21781   4.401   8.238   0.462 -0.4982  0.6433  0.0179
 3816SOL    HW121782   4.321   8.232   0.521 -1.0928  1.3182 -0.7250
 3816SOL    HW221783   4.480   8.267   0.517 -0.8225  0.2714  0.6860
 3817SOL     OW21784   2.153   6.553   2.617  0.7066 -0.3128  0.9047
 3817SOL    HW121785   2.207   6.472   2.594  0.5463 -0.6712  1.7841
 3817SOL    HW221786   2.056   6.531   2.610  0.6517  0.7137 -2.0294
 3818SOL     OW21787   9.451   8.759   0.049 -0.0340  0.3162  0.9500
 3818SOL    HW121788   9.394   8.677   0.050  1.4403 -0.7314  0.6089
 3818SOL    HW221789   9.394   8.839   0.031 -1.2545 -0.8457 -0.4855
 3819SOL     OW21790   0.633   2.357   2.335  0.3696  0.1786 -0.2214
 3819SOL    HW121791   0.623   2.260   2.358  1.7531 -0.0558 -0.5973
 3819SOL    HW221792   0.642   2.410   2.420  0.5717 -0.1274 -0.0494
 3820SOL     OW21793   0.258   5.177   3.367 -0.0874  0.0652  0.3810
 3820SOL    HW121794   0.221   5.211   3.280  1.5439  1.5788  0.2576
 3820SOL    HW221795   0.322   5.243   3.404  0.7176 -1.4671  1.7801
 3821SOL     OW21796   8.446   7.773   1.561  0.0652  0.6608  0.2758
 3821SOL    HW121797   8.462   7.860   1.514  1.2759  0.1228 -0.3193
 3821SOL    HW221798   8.533   7.736   1.594 -0.4855 -0.1678  0.8163
 3822SOL     OW21799   0.090   3.784   3.056 -0.1582  0.2287  0.0140
 3822SOL    HW121800   0.111   3.689   3.031 -2.4787 -0.3276  0.0571
 3822SOL    HW221801   0.051   3.831   2.976 -2.0381  0.1819  0.8768
 3823SOL     OW21802   4.481   1.106   2.456 -0.1002  0.7730 -0.3360
 3823SOL    HW121803   4.443   1.110   2.363 -1.9784  1.3268  0.4453
 3823SOL    HW221804   4.581   1.098   2.450 -0.1420  1.4164 -2.4060
 3824SOL     OW21805   1.152   1.427   1.458 -0.4755  0.1068 -0.1219
 3824SOL    HW121806   1.075   1.471   1.504 -0.1907  1.3838 -0.8452
 3824SOL    HW221807   1.208   1.378   1.525  0.7856  3.1855  1.1845
 3825SOL     OW21808   1.172   3.057   1.500  0.2702 -0.1571 -0.1833
 3825SOL    HW121809   1.175   3.101   1.590 -1.1232  1.6838 -1.0004
 3825SOL    HW221810   1.193   3.125   1.429  0.0446 -1.2809 -1.3320
 3826SOL     OW21811   2.545   3.346   0.700  0.1699  0.6027 -0.3030
 3826SOL    HW121812   2.476   3.337   0.771 -1.0633  0.2373 -1.5248
 3826SOL    HW221813   2.543   3.439   0.662 -0.3604  0.3046 -1.0292
 3827SOL     OW21814   0.459   0.734   2.595 -0.3638  0.0243  0.4919
 3827SOL    HW121815   0.550   0.759   2.627  0.1054 -1.4959  0.4006
 3827SOL    HW221816   0.434   0.644   2.631 -1.0036 -0.4527 -1.0804
 3828SOL     OW21817   7.437   8.898   0.224  0.0913  0.1558  0.1511
 3828SOL    HW121818   7.507   8.902   0.153 -1.2208  1.4102 -1.1008
 3828SOL    HW221819   7.350   8.928   0.186 -1.3969 -2.4699  1.3878
 3829SOL     OW21820   8.190   2.323   1.317  0.7491 -0.4246  0.1982
 3829SOL    HW121821   8.217   2.265   1.240  0.0442 -0.8547  0.2719
 3829SOL    HW221822   8.237   2.294   1.400  2.1720  0.5837 -0.2414
 3830SOL     OW21823   3.612   2.112   1.236 -0.0736  0.3062  1.1587
 3830SOL    HW121824   3.601   2.104   1.335 -0.4116 -0.6835  1.0483
 3830SOL    HW221825   3.583   2.027   1.192 -0.9284  1.1048  0.1303
 3831SOL     OW21826   8.458   8.082   1.721  0.8975 -0.1197  0.0035
 3831SOL    HW121827   8.533   8.028   1.760 -0.1069 -0.2994  1.7598
 3831SOL    HW221828   8.371   8.046   1.754  0.0817  0.6359 -1.3191
 3832SOL     OW21829   4.292   2.803   2.251  0.7947  0.6192 -0.3347
 3832SOL    HW121830   4.331   2.886   2.290  0.0083  0.2077  1.3433
 3832SOL    HW221831   4.266   2.740   2.324  1.5625 -1.2027 -1.5824
 3833SOL     OW21832   2.764   7.073   1.903  0.2268 -0.0072  0.7068
 3833SOL    HW121833   2.695   7.135   1.942 -0.7891  0.3359 -1.5429
 3833SOL    HW221834   2.720   6.986   1.878  0.3663  0.5732 -1.6597
 3834SOL     OW21835   1.658   2.757   2.690  0.3620 -0.1125 -0.1330
 3834SOL    HW121836   1.733   2.815   2.656  0.0694  0.0487 -0.5136
 3834SOL    HW221837   1.647   2.771   2.788 -0.6387  1.5667 -0.4558
 3835SOL     OW21838   0.561   5.702   1.809  0.3903 -0.2754 -0.1112
 3835SOL    HW121839   0.572   5.717   1.907 -1.7553 -2.0890  0.4413
 3835SOL    HW221840   0.541   5.789   1.764  2.6657  0.7792  0.8316
 3836SOL     OW21841   1.795   7.952   0.867  0.1959  0.6236  0.1144
 3836SOL    HW121842   1.743   7.894   0.804  1.5961 -0.7663  0.2079
 3836SOL    HW221843   1.864   8.003   0.816  0.9696 -0.0933  0.4239
 3837SOL     OW21844   8.275   6.243   3.091 -0.0799 -0.2089  0.1289
 3837SOL    HW121845   8.263   6.254   2.992  0.6574  1.4433  0.2065
 3837SOL    HW221846   8.358   6.291   3.120  1.0731 -2.7678  1.1803
 3838SOL     OW21847   3.367   8.153   1.730  0.1905 -0.4418  0.1017
 3838SOL    HW121848   3.365   8.249   1.760  1.2660  0.0269 -1.2782
 3838SOL    HW221849   3.396   8.095   1.806 -0.6206  0.3029  0.9975
 3839SOL     OW21850   0.098   1.330   0.688 -0.1322  0.4396 -0.4911
 3839SOL    HW121851   0.176   1.392   0.700  0.5438 -0.1919 -1.5409
 3839SOL    HW221852   0.069   1.331   0.593 -0.7559 -0.1038 -0.3094
 3840SOL     OW21853   2.721   7.528   2.139  0.9772  0.0904 -0.6188
 3840SOL    HW121854   2.695   7.551   2.045  0.1903  1.1799 -0.1414
 3840SOL    HW221855   2.642   7.487   2.186  1.1966  0.1005 -0.2440
 3841SOL     OW21856   3.363   4.512   0.521  0.0726 -0.0694  0.3651
 3841SOL    HW121857   3.342   4.570   0.600 -0.9867 -0.8612  0.6792
 3841SOL    HW221858   3.441   4.453   0.543 -0.4436 -0.5373  0.9471
 3842SOL     OW21859   1.832   2.543   0.196  0.3868  0.0797 -0.6967
 3842SOL    HW121860   1.791   2.568   0.284  1.8076  0.1268 -0.0338
 3842SOL    HW221861   1.856   2.445   0.197  2.1267  0.4870 -0.3076
 3843SOL     OW21862   0.779   2.221   0.797  0.4319  0.0335 -0.6452
 3843SOL    HW121863   0.736   2.163   0.866  0.1669  1.6009  0.5481
 3843SOL    HW221864   0.708   2.270   0.746  0.6758 -0.1740 -1.1864
 3844SOL     OW21865   8.527   6.702   2.161 -0.4364  0.1024 -0.9307
 3844SOL    HW121866   8.528   6.793   2.120 -1.4482  0.1698 -0.8193
 3844SOL    HW221867   8.504   6.709   2.258  0.7015 -0.1719 -0.6277
 3845SOL     OW21868   9.007   9.655   1.245 -0.3669 -0.2557  0.5343
 3845SOL    HW121869   8.976   9.649   1.150  0.3437 -0.7663  0.3210
 3845SOL    HW221870   8.969   9.579   1.297 -1.8682  0.8038  0.9988
 3846SOL     OW21871   1.630   8.540   3.069 -0.1985  0.5290  0.0255
 3846SOL    HW121872   1.642   8.607   2.995  0.5716  1.3391  0.8696
 3846SOL    HW221873   1.720   8.517   3.107 -0.3920 -1.4919 -0.6875
 3847SOL     OW21874   5.065   2.558   1.266  0.6433  0.5866 -0.2237
 3847SOL    HW121875   5.018   2.478   1.229  0.3517  1.3451 -1.5264
 3847SOL    HW221876   5.002   2.611   1.322 -0.3661  2.0818 -2.6890
 3848SOL     OW21877   1.451   4.170   1.925  0.0418  0.4650 -0.2928
 3848SOL    HW121878   1.363   4.215   1.938 -0.6605 -0.8686 -0.3306
 3848SOL    HW221879   1.520   4.238   1.902 -1.0938  1.4677 -0.7991
 3849SOL     OW21880   3.909   1.909   0.861 -0.0621  0.0477  0.4305
 3849SOL    HW121881   3.876   1.962   0.939 -0.7724  0.7407 -0.3449
 3849SOL    HW221882   4.002   1.876   0.881  0.0323  0.8101  1.2788
 3850SOL     OW21883   4.218   2.813   0.615  0.0396 -0.5773 -0.7293
 3850SOL    HW121884   4.263   2.853   0.694 -0.1006 -1.4746 -0.1843
 3850SOL    HW221885   4.266   2.728   0.589  1.1388  0.5820 -2.6638
 3851SOL     OW21886   4.558   3.470   0.746  0.4695 -0.6311  0.6274
 3851SOL    HW121887   4.569   3.429   0.655 -2.0595 -1.5824  0.7274
 3851SOL    HW221888   4.572   3.569   0.739 -1.1823 -0.4884 -1.1211
 3852SOL     OW21889   2.409   3.148   0.515  0.2577  0.1802 -0.0455
 3852SOL    HW121890   2.415   3.194   0.427 -1.3473  2.1322  0.8043
 3852SOL    HW221891   2.457   3.202   0.584 -0.3348 -0.1950  0.6672
 3853SOL     OW21892   2.681   3.128   2.032  0.2255  0.7146 -0.7406
 3853SOL    HW121893   2.714   3.042   1.991  2.0062  1.4086 -0.8031
 3853SOL    HW221894   2.597   3.156   1.986 -1.5163 -2.0566  0.6473
 3854SOL     OW21895   7.323   9.984   2.381  0.2299  0.1271  0.2558
 3854SOL    HW121896   7.325   9.997   2.480  1.3331  0.9506  0.1289
 3854SOL    HW221897   7.334   9.887   2.360 -1.6479 -0.2739  0.9799
 3855SOL     OW21898   2.388   5.703   1.661 -0.3991 -0.1061  0.0708
 3855SOL    HW121899   2.379   5.682   1.564 -1.2067  0.4125  0.0273
 3855SOL    HW221900   2.310   5.666   1.711 -1.4938  2.0957  0.0909
 3856SOL     OW21901   8.824   6.918   0.957 -0.2771 -0.0237 -0.2440
 3856SOL    HW121902   8.821   6.841   1.020 -2.5317  1.1838  1.1802
 3856SOL    HW221903   8.759   6.903   0.882 -0.1256  0.1441 -0.4106
 3857SOL     OW21904   2.050   2.246   1.564 -0.1380 -0.9064  0.6968
 3857SOL    HW121905   2.087   2.296   1.485 -0.6295  0.8423  1.5565
 3857SOL    HW221906   2.104   2.164   1.579  1.1545 -0.2590 -0.2842
 3858SOL     OW21907   3.581   9.259   3.228 -0.1214 -0.3850 -0.4129
 3858SOL    HW121908   3.583   9.199   3.308  1.5625 -1.0480 -0.9327
 3858SOL    HW221909   3.522   9.338   3.248 -1.0603 -1.3686  0.8590
 3859SOL     OW21910   3.103   2.827   2.746 -0.6817 -0.0534 -0.3867
 3859SOL    HW121911   3.042   2.763   2.699 -1.1837 -0.3991  0.7139
 3859SOL    HW221912   3.064   2.851   2.835  1.9772 -2.2447  1.4655
 3860SOL     OW21913   9.957   3.442   2.142  0.1396 -0.0496  0.7891
 3860SOL    HW121914   9.893   3.366   2.152 -1.8020  1.4810  0.3517
 3860SOL    HW221915  10.028   3.417   2.076 -0.2451 -1.6138  0.9429
 3861SOL     OW21916   8.426   2.581   1.717  0.0175  0.0950 -0.0848
 3861SOL    HW121917   8.390   2.518   1.648 -1.0203 -0.6753  1.1438
 3861SOL    HW221918   8.517   2.553   1.745 -0.6651 -1.2114  0.8726
 3862SOL     OW21919   2.202   5.700   2.902 -0.0822  0.2100 -0.0095
 3862SOL    HW121920   2.136   5.626   2.914  0.2056 -0.5227 -2.5201
 3862SOL    HW221921   2.294   5.666   2.920 -0.0915  0.3699  0.3416
 3863SOL     OW21922   0.762   1.765   0.083 -0.3729  0.0823 -0.0275
 3863SOL    HW121923   0.685   1.764   0.147 -0.0624  0.6980  0.3601
 3863SOL    HW221924   0.770   1.675   0.040 -1.5603  0.1316 -0.3796
 3864SOL     OW21925   4.038   3.002   0.084  0.2124 -0.1524 -0.6211
 3864SOL    HW121926   4.102   2.960   0.019  2.1723  0.3204  0.9503
 3864SOL    HW221927   4.019   3.096   0.056  2.5997  0.7095  0.4881
 3865SOL     OW21928   9.969   7.019   3.326 -0.5897 -0.0332  0.5559
 3865SOL    HW121929   9.912   6.938   3.310 -2.2869  1.5835 -2.0552
 3865SOL    HW221930  10.039   7.025   3.254  0.9129 -0.3101  1.9657
 3866SOL     OW21931   9.406   8.705   3.144 -0.1665  0.2033 -0.9294
 3866SOL    HW121932   9.323   8.735   3.192  0.2665  2.2186 -1.4027
 3866SOL    HW221933   9.471   8.781   3.140  1.1588 -0.9637 -1.7662
 3867SOL     OW21934   1.392   0.514   3.194  0.2185 -0.2393  0.6008
 3867SOL    HW121935   1.482   0.523   3.152  0.6022 -1.0907  1.2302
 3867SOL    HW221936   1.322   0.517   3.122  0.6748  1.4679  0.2198
 3868SOL     OW21937   8.624   5.411   3.128 -0.3139  0.0110  0.1423
 3868SOL    HW121938   8.672   5.339   3.178 -0.3233 -0.5035 -0.5615
 3868SOL    HW221939   8.571   5.467   3.191  0.7229  0.2042  0.8496
 3869SOL     OW21940   1.409   1.539   1.157  0.6085 -0.3111 -0.0876
 3869SOL    HW121941   1.477   1.498   1.097  0.5917 -0.5080  0.0280
 3869SOL    HW221942   1.330   1.479   1.165  0.5648 -0.2367  0.0459
 3870SOL     OW21943   2.005   0.983   0.523  0.0588  0.1181  0.2123
 3870SOL    HW121944   1.977   1.008   0.616 -1.3941  0.1927 -0.2444
 3870SOL    HW221945   1.925   0.961   0.468  1.0467 -1.9488 -0.4635
 3871SOL     OW21946   3.487   2.052   1.538 -0.0328 -0.3603  0.3386
 3871SOL    HW121947   3.402   2.023   1.582 -0.9671  1.2271 -0.3691
 3871SOL    HW221948   3.493   2.151   1.539  1.2202 -0.4106 -0.7084
 3872SOL     OW21949   1.551   8.317   2.219  0.2282 -0.3917 -0.2101
 3872SOL    HW121950   1.500   8.232   2.221  0.7477 -0.7072 -0.2096
 3872SOL    HW221951   1.530   8.367   2.135 -0.1229 -0.4909 -0.1808
 3873SOL     OW21952   8.572   6.720   0.482  0.4646 -0.4381  0.0234
 3873SOL    HW121953   8.659   6.672   0.494  0.4705  0.4702  4.4010
 3873SOL    HW221954   8.497   6.660   0.510 -0.1363 -0.3453 -1.3521
 3874SOL     OW21955   3.593   2.496   0.501 -0.0661 -0.2868 -0.0914
 3874SOL    HW121956   3.674   2.503   0.443 -0.3421  1.1320 -0.3104
 3874SOL    HW221957   3.585   2.578   0.558 -1.9634  0.1101 -0.8798
 3875SOL     OW21958   3.907   7.196   3.155  0.4532 -0.0730  0.1501
 3875SOL    HW121959   3.861   7.107   3.145 -2.0530  1.1671  0.2683
 3875SOL    HW221960   3.967   7.211   3.077  0.8797 -1.8514  0.1112
 3876SOL     OW21961   9.190   6.706   3.210 -0.3576 -0.2569  0.4317
 3876SOL    HW121962   9.091   6.710   3.223 -0.2298  1.9227  1.0707
 3876SOL    HW221963   9.225   6.799   3.200  2.1365 -0.6665  4.2989
 3877SOL     OW21964   7.233   0.242   0.443 -0.4208  0.3116  0.1008
 3877SOL    HW121965   7.326   0.254   0.480 -0.3357  0.8477 -0.2942
 3877SOL    HW221966   7.188   0.331   0.436 -0.4207  0.2195 -1.1429
 3878SOL     OW21967   2.875   1.381   3.123  0.4293  0.1495 -0.6842
 3878SOL    HW121968   2.816   1.300   3.117  1.4347 -0.7747  1.3236
 3878SOL    HW221969   2.964   1.360   3.083  0.9067  0.0362  0.4179
 3879SOL     OW21970   8.936   1.974   0.859  0.0496  0.2986 -0.1071
 3879SOL    HW121971   8.938   1.879   0.889 -2.6418  0.1824 -0.1779
 3879SOL    HW221972   8.987   1.983   0.774  2.1969 -0.6201  1.0332
 3880SOL     OW21973   4.057   0.909   1.745  0.4638  0.2033 -0.4734
 3880SOL    HW121974   4.044   0.927   1.843 -1.1829 -2.2050 -0.2113
 3880SOL    HW221975   3.970   0.883   1.704  1.8631 -2.9165 -1.6507
 3881SOL     OW21976   2.337   5.784   0.927 -0.3444  0.3731  0.3109
 3881SOL    HW121977   2.318   5.872   0.884 -0.3227 -0.2708 -1.0407
 3881SOL    HW221978   2.306   5.710   0.867 -0.7428 -0.5406  1.6098
 3882SOL     OW21979   0.859   0.580   2.586  0.1714 -0.3881  0.1883
 3882SOL    HW121980   0.883   0.511   2.653  2.1645  0.0497 -0.0583
 3882SOL    HW221981   0.939   0.602   2.530 -1.1564  0.0533 -1.6130
 3883SOL     OW21982   4.575   4.000   1.187  0.2224 -0.0081  0.3650
 3883SOL    HW121983   4.642   4.025   1.116  1.5205  0.8623  1.8540
 3883SOL    HW221984   4.510   4.074   1.199 -0.3535 -0.3974 -0.3121
 3884SOL     OW21985   8.755   2.930   0.372  0.0525  0.0145 -0.0009
 3884SOL    HW121986   8.808   3.004   0.331  0.8214  0.6339  2.0667
 3884SOL    HW221987   8.805   2.844   0.363  0.1334  0.1185 -0.5198
 3885SOL     OW21988   4.012   5.646   3.047 -0.0990 -0.1871 -0.1230
 3885SOL    HW121989   3.992   5.592   2.964 -2.2997  2.8616 -1.6747
 3885SOL    HW221990   4.052   5.733   3.021  1.2547 -0.0887  2.2123
 3886SOL     OW21991   3.499   3.612   1.702 -0.1947  0.3474 -0.2237
 3886SOL    HW121992   3.546   3.629   1.616  0.6168 -0.4533  0.0613
 3886SOL    HW221993   3.563   3.574   1.769 -1.0420  0.0576  0.4325
 3887SOL     OW21994   8.730   7.073   1.968 -0.4265 -0.2370 -0.0566
 3887SOL    HW121995   8.809   7.099   2.023 -1.5087 -0.7552  1.8011
 3887SOL    HW221996   8.725   7.131   1.887 -0.0677  2.1418  1.5490
 3888SOL     OW21997   3.906   2.367   1.425 -0.0900  0.5264  0.4373
 3888SOL    HW121998   3.891   2.396   1.331 -0.5559  0.1824  0.4053
 3888SOL    HW221999   4.001   2.337   1.435 -0.4766 -1.0419 -0.3642
 3889SOL     OW22000   9.195   4.266   3.210  0.0254 -0.3173 -0.2860
 3889SOL    HW122001   9.115   4.232   3.160  0.5501 -0.0243 -1.3410
 3889SOL    HW222002   9.166   4.336   3.274 -0.1385  2.4309 -3.2295
 3890SOL     OW22003   9.863   0.379   3.000  0.0119  0.0239  0.0877
 3890SOL    HW122004   9.787   0.315   2.989  0.9675 -1.2867  1.0602
 3890SOL    HW222005   9.826   0.471   3.019 -1.3211 -0.9741  2.5458
 3891SOL     OW22006   8.837   8.391   2.021 -0.3638  0.0739  0.2217
 3891SOL    HW122007   8.872   8.300   2.041 -0.7656 -0.2776 -0.6649
 3891SOL    HW222008   8.872   8.422   1.932 -1.6317  0.0638 -0.2895
 3892SOL     OW22009   0.108   7.554   0.006 -0.4109  0.3671 -0.4245
 3892SOL    HW122010   0.105   7.634   0.065 -1.5267  0.0787 -0.0754
 3892SOL    HW222011   0.021   7.543  -0.041  0.0092 -0.1753 -1.0984
 3893SOL     OW22012   8.620   7.466   0.184  0.1488 -0.3785 -0.1761
 3893SOL    HW122013   8.563   7.534   0.230  0.3922 -0.2761 -0.0287
 3893SOL    HW222014   8.716   7.486   0.200  0.2023 -1.2134  0.5205
 3894SOL     OW22015   2.402   4.001   2.348  0.0034  0.1050  0.6846
 3894SOL    HW122016   2.417   4.069   2.419  1.8060 -0.7198  1.1400
 3894SOL    HW222017   2.431   3.911   2.381  0.6990 -0.3252 -1.0032
 3895SOL     OW22018   1.320   2.822   2.250 -0.1754  0.6119 -0.6032
 3895SOL    HW122019   1.315   2.757   2.174  1.0478 -0.9817  0.6508
 3895SOL    HW222020   1.412   2.860   2.255  0.0761 -0.1288  0.7241
 3896SOL     OW22021   9.927   6.220   2.734  0.2185 -0.0726 -0.0416
 3896SOL    HW122022   9.897   6.302   2.781 -2.0739 -2.3697  2.7007
 3896SOL    HW222023  10.026   6.211   2.743  0.7405  3.1853 -1.8406
 3897SOL     OW22024   8.621   9.179   2.033  0.0765  0.1659 -0.2767
 3897SOL    HW122025   8.580   9.264   2.000  0.8006 -0.0025 -1.6512
 3897SOL    HW222026   8.689   9.147   1.966  1.0475 -0.5745  1.0477
 3898SOL     OW22027   0.248   3.616   1.153  0.2618  0.0085  0.1931
 3898SOL    HW122028   0.222   3.671   1.074 -0.5175  0.9415  1.0912
 3898SOL    HW222029   0.268   3.522   1.123  1.7870  0.8001 -1.3663
 3899SOL     OW22030   1.955   2.407   2.898  0.4235  0.0040 -0.6155
 3899SOL    HW122031   1.916   2.437   2.985  3.8170  0.4837  0.8197
 3899SOL    HW222032   1.992   2.486   2.849  2.5729 -0.8297 -0.3814
 3900SOL     OW22033   8.618   7.354   1.209  0.0689  0.3181  0.0276
 3900SOL    HW122034   8.528   7.319   1.234  0.9135 -1.7552  0.2263
 3900SOL    HW222035   8.661   7.396   1.289 -0.5368  0.9122  0.0426
 3901SOL     OW22036   1.631   7.221   1.573  0.2870  0.5979 -0.6088
 3901SOL    HW122037   1.652   7.162   1.650  0.0802  0.0892 -0.9371
 3901SOL    HW222038   1.689   7.196   1.495 -1.5700 -0.9113 -1.5711
 3902SOL     OW22039   3.633   9.198   2.962 -0.9410  0.0538 -0.0109
 3902SOL    HW122040   3.591   9.225   3.048 -1.4558  0.4263 -0.3794
 3902SOL    HW222041   3.692   9.118   2.977 -0.7420  0.3384  0.7539
 3903SOL     OW22042   1.737   0.198   1.528 -0.3159 -0.6236  0.7312
 3903SOL    HW122043   1.776   0.223   1.440 -0.2812  0.3253  1.0148
 3903SOL    HW222044   1.737   0.277   1.589 -1.8500 -0.8447  1.0428
 3904SOL     OW22045   1.590   1.591   2.411  0.1483 -0.0940  1.0482
 3904SOL    HW122046   1.651   1.539   2.470  0.5536  0.3729  1.0469
 3904SOL    HW222047   1.502   1.544   2.404  0.4656 -0.7025  1.1514
 3905SOL     OW22048   1.984   1.625   1.223 -0.3815 -0.0010 -0.1290
 3905SOL    HW122049   1.948   1.713   1.195 -0.0466  0.1795  0.0018
 3905SOL    HW222050   1.922   1.584   1.290  0.2494  0.8471  0.9914
 3906SOL     OW22051   1.661   4.386   2.743  0.4616 -0.8062  0.3537
 3906SOL    HW122052   1.730   4.385   2.671  1.4955 -1.4327  1.3453
 3906SOL    HW222053   1.701   4.353   2.828 -0.4592  0.9332  1.4839
 3907SOL     OW22054   7.799   1.968   1.518  0.2877  0.3670 -0.6934
 3907SOL    HW122055   7.742   2.039   1.476  1.5484  1.8492  0.0331
 3907SOL    HW222056   7.747   1.922   1.590  0.2480  2.2857  0.5415
 3908SOL     OW22057   8.294   8.942   2.739 -0.0908 -0.1484 -0.0051
 3908SOL    HW122058   8.283   8.976   2.646 -0.3960  1.0277  0.4638
 3908SOL    HW222059   8.214   8.967   2.794  0.0574 -0.8959  0.5639
 3909SOL     OW22060   3.259   6.987   1.207  0.2706 -0.1419  0.1369
 3909SOL    HW122061   3.237   6.902   1.160 -1.9256  0.4048  0.1143
 3909SOL    HW222062   3.227   6.982   1.301  1.2954  0.1797  0.5083
 3910SOL     OW22063   1.172   6.972   1.934 -0.2701 -0.3151  0.2301
 3910SOL    HW122064   1.094   7.034   1.939 -1.0467 -1.3218  0.5955
 3910SOL    HW222065   1.173   6.928   1.844 -0.6142 -0.9481  0.5372
 3911SOL     OW22066   1.558   3.056   1.259  0.4288 -0.1649  0.0625
 3911SOL    HW122067   1.612   2.994   1.202 -0.7383 -0.1824 -1.0461
 3911SOL    HW222068   1.618   3.125   1.298  1.6292 -1.5509  0.7286
 3912SOL     OW22069   4.849   2.048   2.130 -0.6188 -0.2978 -0.3676
 3912SOL    HW122070   4.881   2.142   2.130  0.0801 -0.5204  0.7853
 3912SOL    HW222071   4.888   1.999   2.052 -0.3134  0.1474 -0.4965
 3913SOL     OW22072   3.702   9.726   3.344 -0.1154 -0.0178 -0.1714
 3913SOL    HW122073   3.631   9.775   3.396  0.9405 -1.0670  2.3109
 3913SOL    HW222074   3.691   9.628   3.358 -1.4890 -0.5328 -4.1910
 3914SOL     OW22075   3.180   0.476   0.246 -0.1763 -0.1824  0.2990
 3914SOL    HW122076   3.108   0.530   0.290 -0.5362 -0.3533 -0.0781
 3914SOL    HW222077   3.240   0.439   0.316 -0.7373 -0.4342  0.6569
 3915SOL     OW22078   7.507   0.381   2.575  0.4495  0.1568  0.2462
 3915SOL    HW122079   7.413   0.361   2.601  0.0051  1.8358 -0.0049
 3915SOL    HW222080   7.521   0.354   2.480  0.2593 -0.1750  0.3088
 3916SOL     OW22081   3.148   2.297   1.745 -0.2619 -0.1081  0.6328
 3916SOL    HW122082   3.247   2.284   1.750 -0.3318 -0.1593  1.9920
 3916SOL    HW222083   3.102   2.212   1.770 -0.6549  0.0860  0.5756
 3917SOL     OW22084   4.502   3.359   1.753  0.4493  0.2071 -0.8123
 3917SOL    HW122085   4.528   3.404   1.838  0.9927 -2.7072  0.6536
 3917SOL    HW222086   4.579   3.360   1.689  0.0048  2.4964 -1.3227
 3918SOL     OW22087   1.555   7.407   1.056  0.0453  0.2056 -0.3447
 3918SOL    HW122088   1.482   7.339   1.049 -1.4324  1.8340 -1.0137
 3918SOL    HW222089   1.618   7.397   0.979 -0.0768 -0.4832 -0.3558
 3919SOL     OW22090   2.830   9.953   3.047  0.1157  0.2840  0.4154
 3919SOL    HW122091   2.803   9.888   3.118 -0.7108  0.6916  0.4845
 3919SOL    HW222092   2.807   9.917   2.957 -0.1054  0.3721  0.4376
 3920SOL     OW22093   9.533   7.567   0.591 -0.2080 -0.0429  0.4334
 3920SOL    HW122094   9.486   7.653   0.573 -0.1796 -0.1397 -0.1388
 3920SOL    HW222095   9.545   7.518   0.505  1.0040  0.0147  0.5621
 3921SOL     OW22096   0.600   2.899   0.068  0.0325  0.0328 -0.0093
 3921SOL    HW122097   0.640   2.809   0.081 -0.7870 -0.6627 -2.1494
 3921SOL    HW222098   0.596   2.920  -0.029  0.0964  2.3320  0.4548
 3922SOL     OW22099   8.763   9.172   0.170 -0.2887  0.5327  0.3520
 3922SOL    HW122100   8.710   9.128   0.098 -0.4039  0.1526  0.6687
 3922SOL    HW222101   8.852   9.128   0.177  0.2376  1.4580 -0.4767
 3923SOL     OW22102   9.621   2.732   0.073 -0.3492  0.0291 -0.0925
 3923SOL    HW122103   9.548   2.668   0.049 -0.9059  0.8452 -0.5854
 3923SOL    HW222104   9.706   2.681   0.087 -1.4749 -1.2111  2.6619
 3924SOL     OW22105   1.057   5.055   1.157 -0.2848  0.1124  0.1872
 3924SOL    HW122106   0.982   5.078   1.218 -1.4971  0.7405 -1.4958
 3924SOL    HW222107   1.111   5.137   1.137 -0.4426  0.0947 -0.3154
 3925SOL     OW22108   1.869   2.478   0.944  0.1742 -0.2982 -0.7373
 3925SOL    HW122109   1.965   2.505   0.952 -0.1947  0.2638  2.3365
 3925SOL    HW222110   1.856   2.387   0.984 -0.8368  0.3009  0.3234
 3926SOL     OW22111   9.355   1.992   1.539  0.1590  0.3625 -0.8202
 3926SOL    HW122112   9.435   2.045   1.568  0.3355 -0.0093 -0.6175
 3926SOL    HW222113   9.273   2.033   1.578  0.3444  0.1798 -0.2241
 3927SOL     OW22114   9.476   4.194   0.590  0.1302  0.1246 -0.8152
 3927SOL    HW122115   9.536   4.267   0.622 -1.1008  1.6813 -1.9706
 3927SOL    HW222116   9.411   4.170   0.662  1.1006 -0.4633 -0.1251
 3928SOL     OW22117   2.923   1.633   1.248 -0.4510 -0.4664 -0.3550
 3928SOL    HW122118   2.959   1.714   1.201  1.8040 -0.3923  1.4266
 3928SOL    HW222119   2.929   1.554   1.187 -0.8651  0.3239 -1.4301
 3929SOL     OW22120   3.392   8.571   1.813  0.0580  0.0818 -0.4241
 3929SOL    HW122121   3.344   8.507   1.873  0.8194 -1.2376 -1.2007
 3929SOL    HW222122   3.490   8.552   1.816  0.3519  1.5545 -0.2757
 3930SOL     OW22123   0.670   5.997   1.490  0.4735  0.2240 -0.5659
 3930SOL    HW122124   0.624   5.980   1.577  0.7036  1.2878 -0.2224
 3930SOL    HW222125   0.616   5.957   1.415 -0.9987  1.3955 -0.1643
 3931SOL     OW22126   8.998   1.439   0.504  0.6370  0.2735 -0.1047
 3931SOL    HW122127   9.001   1.484   0.414 -1.6097  1.8983  0.5926
 3931SOL    HW222128   8.997   1.509   0.576 -0.1006 -0.9734  1.1069
 3932SOL     OW22129   8.643   3.192   0.788  0.0013  0.2178 -0.1496
 3932SOL    HW122130   8.572   3.189   0.858 -1.3121 -1.2215 -1.4923
 3932SOL    HW222131   8.697   3.276   0.798 -1.4397  0.9947  1.3150
 3933SOL     OW22132   2.338   5.321   3.334 -0.8291  0.3510  0.0567
 3933SOL    HW122133   2.272   5.250   3.360  1.4732 -1.2796  1.7191
 3933SOL    HW222134   2.379   5.297   3.246 -1.8977  1.0007 -0.6353
 3934SOL     OW22135   1.879   8.079   3.096  0.3291  0.4086  0.0828
 3934SOL    HW122136   1.905   8.019   3.172  0.0017  0.9386  0.6166
 3934SOL    HW222137   1.915   8.171   3.112  2.6749 -0.1386 -1.7646
 3935SOL     OW22138   6.527   9.975   3.132 -0.5828 -0.3721 -0.2840
 3935SOL    HW122139   6.477   9.941   3.052 -1.0210  0.0249 -0.1784
 3935SOL    HW222140   6.491  10.064   3.158  0.1387 -0.1154 -0.1658
 3936SOL     OW22141   4.879   0.059   2.728  0.4650  0.0454 -0.2658
 3936SOL    HW122142   4.977   0.050   2.749  0.1594 -0.3879  0.9800
 3936SOL    HW222143   4.835  -0.030   2.733 -0.3393  0.5016  0.9348
 3937SOL     OW22144   2.501   8.343   2.896 -0.6196 -0.5838 -0.0354
 3937SOL    HW122145   2.542   8.367   2.984 -0.5062 -4.2340  0.9879
 3937SOL    HW222146   2.402   8.333   2.907 -0.7686  0.2067 -0.6256
 3938SOL     OW22147   3.722   0.479   1.992 -0.4347  0.3914  0.3708
 3938SOL    HW122148   3.774   0.539   1.931 -3.4276  1.0364 -1.6508
 3938SOL    HW222149   3.692   0.397   1.942 -2.3026  0.5653  1.1353
 3939SOL     OW22150   8.267   6.334   0.683  0.4163 -0.4450 -0.0465
 3939SOL    HW122151   8.247   6.393   0.762  0.3732 -0.6810  0.1217
 3939SOL    HW222152   8.203   6.257   0.683  0.2954 -0.3398 -0.4237
 3940SOL     OW22153   8.997   9.589   3.371  0.3527  0.1849  0.3126
 3940SOL    HW122154   8.897   9.595   3.374  0.3826  0.7395  0.3916
 3940SOL    HW222155   9.028   9.511   3.424 -0.1698 -1.3666 -1.6252
 3941SOL     OW22156   1.185   2.156   0.926  0.3017 -0.4812  0.4656
 3941SOL    HW122157   1.257   2.173   0.859 -1.0072 -0.2550 -0.9208
 3941SOL    HW222158   1.114   2.226   0.917 -0.6337 -1.3298  1.0603
 3942SOL     OW22159   2.429   8.204   0.860  0.1160  0.1097  0.1867
 3942SOL    HW122160   2.411   8.209   0.958  1.2043 -0.6308  0.4261
 3942SOL    HW222161   2.499   8.135   0.842 -1.4319 -1.1339 -1.2903
 3943SOL     OW22162   1.049   1.609   1.053  0.5740 -0.2687 -0.1737
 3943SOL    HW122163   1.102   1.674   1.107 -0.6872  2.5615 -2.1951
 3943SOL    HW222164   0.970   1.578   1.105  0.8080  0.3548  0.5606
 3944SOL     OW22165   3.267   0.148   3.043  0.0480  0.7042  0.3530
 3944SOL    HW122166   3.294   0.223   3.104 -0.5775  0.4670  0.9310
 3944SOL    HW222167   3.186   0.103   3.080  1.8369 -1.8221  1.3086
 3945SOL     OW22168   3.757   4.451   0.879 -0.4739  0.1902  0.5626
 3945SOL    HW122169   3.780   4.354   0.877 -0.5586  0.1776  0.1439
 3945SOL    HW222170   3.752   4.482   0.974  0.6721  0.0525  0.6740
 3946SOL     OW22171   1.467   4.588   0.646 -0.0362  0.3169  0.2120
 3946SOL    HW122172   1.429   4.495   0.654  0.9638 -0.2844 -1.6754
 3946SOL    HW222173   1.475   4.612   0.550 -0.1025  2.3168  0.6929
 3947SOL     OW22174   0.123   8.462   3.427 -0.4025 -0.1354 -0.0970
 3947SOL    HW122175   0.061   8.420   3.494 -1.6536  1.1285 -0.4612
 3947SOL    HW222176   0.075   8.476   3.341  0.8124 -0.4627 -0.8452
 3948SOL     OW22177   9.671   0.174   3.023 -0.0421 -0.1170  0.7398
 3948SOL    HW122178   9.639   0.178   2.929  1.9654 -0.9777 -0.0137
 3948SOL    HW222179   9.718   0.087   3.038  1.1898  0.7567  2.0182
 3949SOL     OW22180   4.051   2.272   2.763 -0.0964  0.2363  0.0016
 3949SOL    HW122181   4.030   2.367   2.784  1.9196  0.8567 -0.7252
 3949SOL    HW222182   4.101   2.231   2.839 -1.7360 -0.5497  0.7071
 3950SOL     OW22183   0.979   9.116   3.153  0.2568 -0.3855  0.0386
 3950SOL    HW122184   0.881   9.104   3.141  0.0263  0.8246  0.5768
 3950SOL    HW222185   1.003   9.099   3.249  1.2215 -4.6572 -0.8909
 3951SOL     OW22186   1.441   2.527   0.263 -0.1188  0.1266 -0.3577
 3951SOL    HW122187   1.387   2.600   0.306 -1.0296 -0.5759 -0.2857
 3951SOL    HW222188   1.482   2.562   0.179 -0.0068  0.9137  0.0117
 3952SOL     OW22189   5.010   8.901   2.142  0.2921  0.0104 -0.3087
 3952SOL    HW122190   4.957   8.958   2.080 -1.0519 -0.1912  0.6273
 3952SOL    HW222191   5.063   8.959   2.204 -0.5901  0.2364  0.2351
 3953SOL     OW22192   2.128   1.423   0.182  0.2006  0.1979 -0.5229
 3953SOL    HW122193   2.200   1.355   0.197  0.1335 -0.0841 -1.4443
 3953SOL    HW222194   2.168   1.514   0.188 -0.2186  0.2175  3.5265
 3954SOL     OW22195   3.681   7.488   1.651  0.5859 -0.2167 -0.4716
 3954SOL    HW122196   3.621   7.410   1.673 -1.7056  1.2996 -1.1266
 3954SOL    HW222197   3.710   7.481   1.556  0.7252 -0.4882 -0.4106
 3955SOL     OW22198   8.244   6.009   2.808 -0.0036 -0.7649 -0.5616
 3955SOL    HW122199   8.211   5.985   2.900  1.6641 -2.3076 -0.3222
 3955SOL    HW222200   8.341   6.032   2.813  0.0714 -0.7643 -1.9380
 3956SOL     OW22201   2.190   8.205   0.684  0.2422 -0.1376  0.0371
 3956SOL    HW122202   2.214   8.274   0.616  0.4193 -1.4054 -1.2025
 3956SOL    HW222203   2.271   8.183   0.739  0.3637  0.1405 -0.0332
 3957SOL     OW22204   8.038   6.636   3.281  0.1959 -0.8519 -0.2061
 3957SOL    HW122205   8.020   6.544   3.247  2.2234 -1.0234 -0.9100
 3957SOL    HW222206   8.129   6.639   3.323  0.9387  1.2578 -1.8747
 3958SOL     OW22207   8.459   4.005   0.692  0.3721  0.1791 -0.1653
 3958SOL    HW122208   8.555   4.026   0.675  0.3806 -0.3447 -0.7488
 3958SOL    HW222209   8.452   3.932   0.760  0.4022 -0.5539 -0.9546
 3959SOL     OW22210   3.445   2.684   0.226 -0.8902 -0.2755  0.3660
 3959SOL    HW122211   3.469   2.714   0.134 -2.1541 -1.1441 -0.2741
 3959SOL    HW222212   3.411   2.590   0.222  0.4670 -0.8437  1.9442
 3960SOL     OW22213   1.621   7.175   1.944 -0.0632  0.6606  0.3323
 3960SOL    HW122214   1.540   7.164   2.002 -1.3920  1.8376 -1.2551
 3960SOL    HW222215   1.597   7.228   1.863  1.5681 -1.5691 -1.6884
 3961SOL     OW22216   4.008   2.424   0.911  0.0203 -0.2674 -0.1029
 3961SOL    HW122217   3.928   2.366   0.895 -0.0955 -0.1841  0.1667
 3961SOL    HW222218   4.071   2.417   0.833 -0.6656  0.3687 -0.7239
 3962SOL     OW22219   8.278   1.133   2.480 -0.2435 -0.2843 -0.9344
 3962SOL    HW122220   8.323   1.071   2.415 -0.5670 -0.0837 -1.3549
 3962SOL    HW222221   8.316   1.225   2.470  1.9753 -0.8916  1.3852
 3963SOL     OW22222   2.880   1.513   0.821 -0.5576  0.7031 -0.2439
 3963SOL    HW122223   2.803   1.515   0.884 -1.1691  0.1021 -0.9497
 3963SOL    HW222224   2.861   1.574   0.743 -0.6978 -0.0746 -0.8276
 3964SOL     OW22225   1.793   4.733   0.380 -0.1748 -0.2993 -0.4786
 3964SOL    HW122226   1.889   4.747   0.354  0.2383 -1.4809  0.3738
 3964SOL    HW222227   1.748   4.677   0.311 -0.0598 -0.3616 -0.5033
 3965SOL     OW22228   2.197   5.058   1.344 -0.2338 -0.4017 -0.1316
 3965SOL    HW122229   2.256   5.068   1.424 -0.0776 -0.0947 -0.2815
 3965SOL    HW222230   2.106   5.094   1.366 -0.7427 -2.0589  0.5107
 3966SOL     OW22231   9.534   6.921   0.784  0.3262  0.0139 -0.3483
 3966SOL    HW122232   9.520   7.020   0.779  1.1866  0.1548 -0.0320
 3966SOL    HW222233   9.445   6.875   0.790 -0.0326  0.8805  1.5138
 3967SOL     OW22234   5.338   9.795   2.223 -0.2880  0.2726 -0.3038
 3967SOL    HW122235   5.311   9.759   2.134 -4.1474  2.9309 -0.3413
 3967SOL    HW222236   5.285   9.749   2.294  0.8819 -0.0140  0.3843
 3968SOL     OW22237   1.608   3.227   2.758  0.0672 -0.7122  0.6120
 3968SOL    HW122238   1.560   3.254   2.841 -1.6163 -2.5896  0.2967
 3968SOL    HW222239   1.547   3.173   2.700  1.3380  0.2453 -1.6813
 3969SOL     OW22240   9.767   3.398   0.659  0.6063  0.3286 -0.2221
 3969SOL    HW122241   9.749   3.352   0.745 -0.4096 -1.5319 -1.3996
 3969SOL    HW222242   9.859   3.375   0.627  1.2038  1.4837  0.6309
 3970SOL     OW22243   8.471   6.783   1.080 -0.4201  0.2353  0.3143
 3970SOL    HW122244   8.452   6.722   1.004  1.9050  2.1074 -1.8468
 3970SOL    HW222245   8.408   6.862   1.076 -1.2460 -0.3592  1.2088
 3971SOL     OW22246   0.401   0.606   0.486 -0.1444 -0.5242 -0.3143
 3971SOL    HW122247   0.404   0.579   0.582  1.6984 -0.9152 -0.4645
 3971SOL    HW222248   0.373   0.529   0.430  0.2009 -0.7181 -0.2238
 3972SOL     OW22249   8.240   2.432   0.395  0.8238 -0.1777 -0.2102
 3972SOL    HW122250   8.173   2.358   0.406  1.1166 -0.2964  0.8539
 3972SOL    HW222251   8.205   2.515   0.439  0.7305  0.1771 -0.9410
 3973SOL     OW22252   0.152   2.086   2.075 -0.3876 -0.4944  0.2590
 3973SOL    HW122253   0.134   2.184   2.084  3.5665  0.2991  0.4955
 3973SOL    HW222254   0.180   2.049   2.163 -1.9372 -1.9171  0.1893
 3974SOL     OW22255   1.852   8.819   2.596  0.2235 -0.3559  0.0148
 3974SOL    HW122256   1.823   8.850   2.687  1.2295  1.6491 -0.3212
 3974SOL    HW222257   1.795   8.743   2.567 -0.2218 -0.9127  2.2649
 3975SOL     OW22258   7.970   8.494   1.920  0.3378  0.1989 -0.3015
 3975SOL    HW122259   7.899   8.523   1.856  0.0855 -0.3348 -0.2621
 3975SOL    HW222260   8.059   8.495   1.873  0.0328 -1.0534 -0.9242
 3976SOL     OW22261   1.752   3.086   0.796 -0.4822 -0.2397 -0.2445
 3976SOL    HW122262   1.682   3.155   0.814 -0.8225 -0.1349 -1.9338
 3976SOL    HW222263   1.720   3.021   0.727  0.1772 -1.5879  0.6845
 3977SOL     OW22264   1.488   6.604   0.580  0.0175  0.4284 -0.0753
 3977SOL    HW122265   1.588   6.610   0.569 -0.1438  0.0501 -1.8983
 3977SOL    HW222266   1.450   6.697   0.588  0.5504  0.5590  1.0308
 3978SOL     OW22267   2.709   2.510   0.743  0.6043 -0.0725  0.3305
 3978SOL    HW122268   2.679   2.478   0.653  0.3316  1.2977 -0.0706
 3978SOL    HW222269   2.646   2.580   0.777  1.1012 -0.0704  1.2753
 3979SOL     OW22270   0.515   1.716   3.266  0.2407  0.5531  0.1551
 3979SOL    HW122271   0.498   1.786   3.335 -0.1315  3.0920 -2.4140
 3979SOL    HW222272   0.612   1.715   3.242  0.3363 -0.1832  0.5475
 3980SOL     OW22273   4.351   8.522   0.270  0.1148 -0.0583 -0.2163
 3980SOL    HW122274   4.347   8.597   0.336 -0.7824  0.9516 -1.4103
 3980SOL    HW222275   4.436   8.471   0.284  0.1126  0.3587  1.4741
 3981SOL     OW22276   9.728   7.831   1.745 -0.5954  0.0048  0.0244
 3981SOL    HW122277   9.750   7.871   1.656 -0.7544  0.4344  0.1757
 3981SOL    HW222278   9.802   7.851   1.809 -0.5027 -0.2636  0.0024
 3982SOL     OW22279   9.967   4.195   2.778  0.7656  0.1916 -0.5389
 3982SOL    HW122280   9.956   4.282   2.826 -0.4176  0.3200 -1.0223
 3982SOL    HW222281  10.002   4.212   2.686  3.8049 -0.1132  0.5107
 3983SOL     OW22282   8.784   7.359   2.812 -0.0500 -0.2464  0.0008
 3983SOL    HW122283   8.750   7.404   2.729  0.1062  1.0949  0.6687
 3983SOL    HW222284   8.881   7.337   2.800 -0.2610 -0.9387 -0.5392
 3984SOL     OW22285   7.992   9.155   0.033 -0.7465  0.5728 -0.3783
 3984SOL    HW122286   8.029   9.078   0.085  1.2364  1.1081 -0.9373
 3984SOL    HW222287   7.992   9.237   0.090 -4.2763 -0.1178  0.7138
 3985SOL     OW22288   9.340   3.163   1.243  0.5381 -0.0307  0.1510
 3985SOL    HW122289   9.396   3.242   1.216 -0.8520  1.0405  0.3191
 3985SOL    HW222290   9.247   3.194   1.262 -0.1169 -1.7950 -0.1435
 3986SOL     OW22291   0.811   2.742   1.358 -0.1644  0.2075 -0.1451
 3986SOL    HW122292   0.877   2.807   1.395 -1.6682  0.2325  2.6218
 3986SOL    HW222293   0.755   2.789   1.289  1.8816  0.4963 -1.6531
 3987SOL     OW22294   9.107   1.139   2.802  0.1864 -0.2310  0.2166
 3987SOL    HW122295   9.017   1.136   2.846 -0.0942 -1.3580 -0.4312
 3987SOL    HW222296   9.144   1.047   2.794  1.6055  0.2515  0.8560
 3988SOL     OW22297   9.031   1.595   0.290  0.2401  0.0247 -0.4574
 3988SOL    HW122298   9.069   1.536   0.218  1.1028  1.4356 -1.1817
 3988SOL    HW222299   8.989   1.675   0.247 -0.3237  0.2683  0.5559
 3989SOL     OW22300   0.027   2.607   2.767  0.6717 -0.0467 -0.6014
 3989SOL    HW122301   0.071   2.572   2.685  1.3228 -1.1195  0.1949
 3989SOL    HW222302  -0.052   2.663   2.742 -0.7491 -2.5666 -1.8628
 3990SOL     OW22303   0.888   3.741   2.870 -0.1706  0.2637 -0.0046
 3990SOL    HW122304   0.925   3.831   2.890  2.7172 -1.1066  1.1667
 3990SOL    HW222305   0.797   3.732   2.910  0.1896  2.0885  1.2630
 3991SOL     OW22306   1.018   1.556   2.321  0.1947  0.2385 -0.3421
 3991SOL    HW122307   1.044   1.530   2.228  2.0324  1.0264 -0.0717
 3991SOL    HW222308   1.068   1.500   2.387  0.2335  0.8704  0.1794
 3992SOL     OW22309   2.942   4.516   2.334  0.4257  0.5273  0.3543
 3992SOL    HW122310   2.952   4.609   2.297 -2.1357  0.4962 -0.5291
 3992SOL    HW222311   2.863   4.513   2.396 -1.3137 -1.6930 -1.8717
 3993SOL     OW22312   9.974   9.547   0.680 -0.0385  0.2235 -0.7775
 3993SOL    HW122313   9.935   9.637   0.660 -0.6856  0.2075  0.3961
 3993SOL    HW222314  10.012   9.547   0.772 -1.1203 -1.0849 -0.3278
 3994SOL     OW22315   2.662   8.044   0.541 -0.1008  0.0084 -0.2534
 3994SOL    HW122316   2.586   8.012   0.597  0.1628 -0.5630 -0.2144
 3994SOL    HW222317   2.747   8.036   0.593  0.2157 -1.0178 -0.9110
 3995SOL     OW22318   3.373   8.408   2.449 -0.3632  0.3180  0.6575
 3995SOL    HW122319   3.387   8.329   2.389 -0.3692  0.3884  0.5627
 3995SOL    HW222320   3.288   8.454   2.424  1.0740  2.0722 -1.2174
 3996SOL     OW22321   0.615   3.058   1.710  0.6387 -0.4976  0.4076
 3996SOL    HW122322   0.574   3.125   1.772  1.4719 -0.3188  0.7696
 3996SOL    HW222323   0.707   3.036   1.741  1.0108 -0.5055 -0.7063
 3997SOL     OW22324   6.352   8.437   2.765  0.0750  0.4575 -0.0743
 3997SOL    HW122325   6.434   8.487   2.793  0.5738 -0.3356 -0.1135
 3997SOL    HW222326   6.372   8.386   2.681  0.0002 -0.9369  0.7419
 3998SOL     OW22327   2.256   9.126   1.213 -0.0275 -0.1546  0.3669
 3998SOL    HW122328   2.278   9.216   1.251 -2.1189 -0.4015  2.2537
 3998SOL    HW222329   2.206   9.138   1.127 -0.6375  0.4952  0.8046
 3999SOL     OW22330   7.956   9.110   1.885 -0.4689  0.2983  0.2519
 3999SOL    HW122331   8.026   9.179   1.900 -0.1671 -0.0569  0.4976
 3999SOL    HW222332   7.999   9.023   1.859 -0.7548 -0.1317  1.1742
 4000SOL     OW22333   1.724   7.079   0.378  0.3495 -0.0769  0.3701
 4000SOL    HW122334   1.707   7.151   0.311  0.3040  0.3602  0.8493
 4000SOL    HW222335   1.811   7.096   0.424  1.2445 -1.3260 -0.8060
 4001SOL     OW22336   2.130   2.502   0.937  0.0957 -0.0688  0.1403
 4001SOL    HW122337   2.198   2.498   0.864  0.3791 -0.6231  0.4324
 4001SOL    HW222338   2.122   2.597   0.970  0.1076  0.1463 -0.4683
 4002SOL     OW22339   1.788   2.522   3.124 -0.0132  0.7666 -0.3390
 4002SOL    HW122340   1.799   2.499   3.221 -1.4064 -3.3603 -1.0500
 4002SOL    HW222341   1.691   2.524   3.101  0.3269  1.1366 -1.7856
 4003SOL     OW22342   2.934   9.934   2.488 -0.2213  0.2159  0.6421
 4003SOL    HW122343   2.970  10.019   2.525  1.2513 -0.2186  0.2669
 4003SOL    HW222344   2.948   9.932   2.389  0.1276 -0.6214  0.6988
 4004SOL     OW22345   5.699   8.354   2.403 -0.0002  0.0367  0.5738
 4004SOL    HW122346   5.620   8.298   2.379 -0.4294  1.2899 -1.0414
 4004SOL    HW222347   5.679   8.450   2.382  1.5491  0.5094  1.1920
 4005SOL     OW22348   3.626   8.431   0.962  0.0508  0.3682 -0.2105
 4005SOL    HW122349   3.710   8.379   0.950 -1.0703 -1.7045  0.6818
 4005SOL    HW222350   3.553   8.370   0.994 -1.2276  2.5486  1.1330
 4006SOL     OW22351   5.479   9.292   2.892 -0.6438 -0.4645  0.4567
 4006SOL    HW122352   5.491   9.199   2.857 -0.1106 -0.3937  0.4517
 4006SOL    HW222353   5.519   9.298   2.983 -1.8288 -0.5862  0.9960
 4007SOL     OW22354   3.571   3.563   2.360  0.2210  0.5896  0.9047
 4007SOL    HW122355   3.556   3.466   2.379 -0.2057  0.8953  2.2030
 4007SOL    HW222356   3.484   3.606   2.337  0.6129  0.3981 -1.0335
 4008SOL     OW22357   3.094   3.005   1.109  0.7853  0.3450 -0.4010
 4008SOL    HW122358   3.185   3.039   1.134  0.9498  1.5674 -2.5251
 4008SOL    HW222359   3.025   3.073   1.134  0.3446 -0.9414  1.9682
 4009SOL     OW22360   8.194   9.009   3.179  0.1709  0.2363 -0.3008
 4009SOL    HW122361   8.267   9.069   3.212 -0.2708 -0.6029  2.3492
 4009SOL    HW222362   8.130   9.062   3.123  1.2832  1.5947 -0.3246
 4010SOL     OW22363   3.744   5.058   0.673 -0.3774  0.0817  0.8335
 4010SOL    HW122364   3.729   5.151   0.708  0.9395  0.2069  1.1048
 4010SOL    HW222365   3.658   5.020   0.641 -0.9998  1.2571  1.0840
 4011SOL     OW22366   8.573   3.030   2.691  0.0045  0.3672 -0.0630
 4011SOL    HW122367   8.595   2.942   2.650 -0.5187  0.1386  0.1516
 4011SOL    HW222368   8.645   3.096   2.668  0.2590 -0.0421 -0.4457
 4012SOL     OW22369   4.076   5.886   2.938 -0.1677  0.7874  0.2687
 4012SOL    HW122370   4.025   5.881   2.852 -1.8726  0.5694  1.2678
 4012SOL    HW222371   4.078   5.981   2.970 -0.2977  0.7370  0.4293
 4013SOL     OW22372   3.955   7.841   2.929 -0.0382 -0.0945 -0.2967
 4013SOL    HW122373   3.879   7.889   2.974 -0.4021 -0.4121 -0.5715
 4013SOL    HW222374   4.016   7.804   2.999 -0.6296 -0.6249 -0.0602
 4014SOL     OW22375   4.236   1.176   1.456  0.0534  0.1363  0.4255
 4014SOL    HW122376   4.187   1.092   1.476 -2.0237  1.3337  0.5049
 4014SOL    HW222377   4.248   1.229   1.540 -0.5834  0.9259  0.0257
 4015SOL     OW22378   3.224   8.550   2.938 -0.1001 -0.0082 -0.1683
 4015SOL    HW122379   3.211   8.644   2.970  1.6827  0.3684 -0.5012
 4015SOL    HW222380   3.246   8.551   2.841  3.6417 -0.4578  0.5996
 4016SOL     OW22381   2.074   1.501   0.550  0.8140 -0.4494  0.3731
 4016SOL    HW122382   2.054   1.599   0.556  2.3780 -0.0781 -0.3677
 4016SOL    HW222383   2.043   1.456   0.634  0.2912  0.7057  0.8118
 4017SOL     OW22384   1.776   7.912   1.152  0.1296 -0.3473 -0.0081
 4017SOL    HW122385   1.775   7.920   1.053  0.3609  1.8584  0.1405
 4017SOL    HW222386   1.774   8.003   1.193  1.4601 -1.1776  2.0053
 4018SOL     OW22387   1.638   2.382   2.864  0.2131  0.3254 -0.6692
 4018SOL    HW122388   1.713   2.420   2.809  0.2901  1.1531 -0.0028
 4018SOL    HW222389   1.675   2.346   2.949 -0.0128 -0.2064 -0.7976
 4019SOL     OW22390   3.831   4.229   0.171 -0.1377  0.2837  0.0944
 4019SOL    HW122391   3.910   4.276   0.133 -0.6060  0.9465 -0.0656
 4019SOL    HW222392   3.807   4.152   0.113  1.2505 -0.7757  0.8943
 4020SOL     OW22393   1.251   2.782   3.419 -0.6675 -0.9054  0.1005
 4020SOL    HW122394   1.161   2.822   3.406 -1.0160 -2.0258 -1.0758
 4020SOL    HW222395   1.306   2.795   3.336 -0.9926 -3.3105 -0.5442
 4021SOL     OW22396   9.279   1.991   3.094 -0.2911  0.2360 -0.0209
 4021SOL    HW122397   9.253   1.962   3.002 -1.0985  0.6324  0.0734
 4021SOL    HW222398   9.333   1.920   3.138 -0.2124 -0.1072 -0.6698
 4022SOL     OW22399   9.290   2.569   0.252  0.4453  0.0507  0.6509
 4022SOL    HW122400   9.346   2.618   0.186  2.0568  0.5252  2.3206
 4022SOL    HW222401   9.193   2.577   0.227  0.8176  2.5340 -0.1379
 4023SOL     OW22402   2.528   8.446   2.652 -0.7170  0.2264  0.3923
 4023SOL    HW122403   2.506   8.405   2.740 -0.3890  0.0572  0.3997
 4023SOL    HW222404   2.623   8.479   2.653 -0.8915  0.7417  0.2952
 4024SOL     OW22405   0.406   1.322   1.890 -0.0614  0.4116 -0.5900
 4024SOL    HW122406   0.473   1.346   1.960 -0.2786 -1.5704  0.3442
 4024SOL    HW222407   0.315   1.316   1.931 -0.2565 -0.3336 -1.1122
 4025SOL     OW22408   1.384   3.674   0.245  0.3616 -0.0608  0.4372
 4025SOL    HW122409   1.482   3.685   0.226  0.8566 -0.4170  2.5928
 4025SOL    HW222410   1.370   3.678   0.344 -1.9435  1.0029  0.0781
 4026SOL     OW22411   7.983   1.630   1.587  0.2510  0.1444 -0.1527
 4026SOL    HW122412   8.019   1.722   1.567  0.1038  0.1263 -0.5156
 4026SOL    HW222413   8.044   1.583   1.651  0.4675  0.3982 -0.1723
 4027SOL     OW22414   2.240   1.469   2.730  0.5153 -0.8057  0.3060
 4027SOL    HW122415   2.296   1.398   2.774  0.3854 -1.1848 -0.1421
 4027SOL    HW222416   2.161   1.490   2.787  0.4829 -1.1163  0.3736
 4028SOL     OW22417   4.509   9.622   2.377  0.2267 -0.1474  0.0431
 4028SOL    HW122418   4.410   9.635   2.374  0.4307  1.7910  0.8621
 4028SOL    HW222419   4.554   9.694   2.324  1.2337 -0.3583  0.5920
 4029SOL     OW22420   1.647   6.429   2.452 -0.2733  0.0421  0.0626
 4029SOL    HW122421   1.653   6.529   2.463 -1.6920  0.7347 -4.6782
 4029SOL    HW222422   1.557   6.405   2.418  0.6261 -2.7035 -0.4607
 4030SOL     OW22423   3.573   4.145   0.748  0.1867  0.3003 -0.1843
 4030SOL    HW122424   3.492   4.186   0.790  0.6995  0.8535  0.2789
 4030SOL    HW222425   3.557   4.047   0.734  0.0225  0.0864  1.3827
 4031SOL     OW22426   1.946   5.154   1.374 -0.7172  0.3494 -0.8506
 4031SOL    HW122427   1.881   5.227   1.353 -1.5451  0.2318  1.2401
 4031SOL    HW222428   1.905   5.091   1.440  1.7838  0.6735  1.0517
 4032SOL     OW22429   9.963   6.492   3.258  0.3904 -0.2194 -0.5927
 4032SOL    HW122430   9.936   6.570   3.313  2.3649  0.5079 -0.6425
 4032SOL    HW222431   9.883   6.432   3.245 -0.9377  1.3513  0.1025
 4033SOL     OW22432   3.352   0.226   2.312 -0.1355 -0.1098  0.0285
 4033SOL    HW122433   3.356   0.253   2.409 -1.6775 -0.4703  0.2070
 4033SOL    HW222434   3.399   0.295   2.257 -2.6010  2.1671  0.6392
 4034SOL     OW22435   1.738   4.985   0.498  0.1084 -0.1120  0.0520
 4034SOL    HW122436   1.682   4.922   0.445 -0.4261 -0.6175  1.1972
 4034SOL    HW222437   1.754   4.946   0.589  2.2220  0.0675 -0.2222
 4035SOL     OW22438   3.839   7.679   3.388 -0.2330  0.5636  0.6301
 4035SOL    HW122439   3.752   7.649   3.427  0.3821 -1.0424  0.7956
 4035SOL    HW222440   3.908   7.608   3.401  0.4726  0.7681 -1.6918
 4036SOL     OW22441   4.092   7.563   0.412 -0.2618 -1.0577 -0.0316
 4036SOL    HW122442   4.074   7.565   0.510  1.6266 -0.2703  0.3227
 4036SOL    HW222443   4.186   7.592   0.394 -0.1970 -2.3219 -1.9880
 4037SOL     OW22444   1.054   8.682   2.370 -0.4145 -0.2107  0.4615
 4037SOL    HW122445   1.080   8.592   2.405 -0.2710  0.0731  1.0976
 4037SOL    HW222446   1.098   8.697   2.281  0.4730 -0.3097  0.8756
 4038SOL     OW22447   4.635   8.844   2.097 -0.9808 -0.5708 -0.5131
 4038SOL    HW122448   4.717   8.873   2.048  0.7202 -0.3351  2.3273
 4038SOL    HW222449   4.576   8.923   2.114  0.3627  0.0878  1.2610
 4039SOL     OW22450   1.698   9.429   0.368  0.2589  0.4103 -0.0206
 4039SOL    HW122451   1.659   9.374   0.442 -0.0666 -1.5000 -1.5847
 4039SOL    HW222452   1.642   9.419   0.286  1.4390  1.3514 -0.9616
 4040SOL     OW22453   0.834   0.567   1.858  0.2752 -0.3012 -0.1759
 4040SOL    HW122454   0.748   0.578   1.808 -0.0724  0.1832  0.5249
 4040SOL    HW222455   0.861   0.654   1.897  1.2616 -0.3839 -0.6641
 4041SOL     OW22456   1.754   7.627   1.042 -0.2830  0.1130 -0.4788
 4041SOL    HW122457   1.779   7.715   1.083  0.2617 -0.2982  0.0878
 4041SOL    HW222458   1.784   7.553   1.103 -0.5169 -0.4690 -1.0715
 4042SOL     OW22459   2.786   9.281   3.122 -0.4778 -0.0977 -0.1008
 4042SOL    HW122460   2.819   9.221   3.049  0.5961 -2.6816  2.4320
 4042SOL    HW222461   2.706   9.240   3.165  0.1232  0.3905  1.5156
 4043SOL     OW22462   3.360   9.912   0.915 -0.3985  0.0142 -0.4563
 4043SOL    HW122463   3.311   9.920   0.828 -0.6997  1.3942 -0.1772
 4043SOL    HW222464   3.446   9.964   0.909 -0.1079 -0.4237 -0.1372
 4044SOL     OW22465   3.882   0.880   0.250 -0.1496 -0.0966  0.5384
 4044SOL    HW122466   3.796   0.912   0.289 -0.0541 -0.0236  0.6868
 4044SOL    HW222467   3.945   0.956   0.239  1.1258 -0.6464  3.5509
 4045SOL     OW22468   9.229   8.299   1.273 -0.1983 -0.1993  0.2578
 4045SOL    HW122469   9.310   8.357   1.276 -1.2479  1.2795  0.9892
 4045SOL    HW222470   9.226   8.249   1.187  1.4661 -0.2622  0.2244
 4046SOL     OW22471   9.060   4.916   2.151 -0.5798 -0.3043 -0.2289
 4046SOL    HW122472   9.110   5.002   2.162 -1.5835  0.1138  1.1068
 4046SOL    HW222473   9.078   4.879   2.059  0.1362  1.1362 -0.6884
 4047SOL     OW22474   3.200   8.368   1.889 -0.4155 -0.0923 -0.2868
 4047SOL    HW122475   3.120   8.425   1.871 -0.6351  0.0072  0.9903
 4047SOL    HW222476   3.172   8.272   1.891 -0.7245  0.0178  1.3143
 4048SOL     OW22477   0.390   1.720   2.180  0.3862  0.3504 -0.2036
 4048SOL    HW122478   0.484   1.694   2.157  0.3746 -0.4172  0.5902
 4048SOL    HW222479   0.330   1.703   2.101  1.0203  1.4704 -0.9337
 4049SOL     OW22480   8.494   8.571   2.579 -0.0290  0.1166  0.3652
 4049SOL    HW122481   8.396   8.586   2.570 -0.1556 -0.7736  0.3047
 4049SOL    HW222482   8.515   8.543   2.673  0.0006 -1.0304  0.0198
 4050SOL     OW22483   0.957   9.594   2.362 -0.0385 -0.1233  0.1744
 4050SOL    HW122484   0.973   9.653   2.441  0.2566  0.0447 -0.0112
 4050SOL    HW222485   0.912   9.510   2.393  1.4361 -0.7247  0.7478
 4051SOL     OW22486   7.525   8.962   2.482  0.5449 -0.2379 -0.4148
 4051SOL    HW122487   7.546   8.907   2.562  1.4375  1.7846  0.7829
 4051SOL    HW222488   7.580   8.932   2.404  2.2180 -0.0019  0.6568
 4052SOL     OW22489   0.648   6.527   2.279 -0.1394 -0.1565  0.4099
 4052SOL    HW122490   0.549   6.510   2.274  0.0886 -1.4221  0.0854
 4052SOL    HW222491   0.681   6.504   2.370  0.1782 -1.5515 -0.0452
 4053SOL     OW22492   2.579   2.443   3.435  0.1416  0.1326  0.3660
 4053SOL    HW122493   2.488   2.403   3.438 -0.4915  1.5819  1.3583
 4053SOL    HW222494   2.601   2.482   3.524  2.1443 -1.0713  0.4171
 4054SOL     OW22495   3.572   8.220   2.087  0.2537 -0.2155 -0.2294
 4054SOL    HW122496   3.524   8.303   2.056  0.9136  0.6908  1.1402
 4054SOL    HW222497   3.556   8.207   2.185  1.0815 -1.0814 -0.2086
 4055SOL     OW22498   8.038   2.437   1.027  0.0913 -0.4082 -0.1160
 4055SOL    HW122499   8.087   2.478   1.104 -0.9936  1.4406 -0.3836
 4055SOL    HW222500   8.104   2.406   0.958  0.8879  2.4014 -0.6491
 4056SOL     OW22501   0.944   1.465   2.991 -0.1059  0.0478 -0.0905
 4056SOL    HW122502   0.860   1.517   2.973  0.0135 -0.6599 -2.8384
 4056SOL    HW222503   0.924   1.390   3.054 -1.1861  0.8606  0.5487
 4057SOL     OW22504   2.943   9.201   1.283  0.3806  0.6709 -0.4574
 4057SOL    HW122505   2.922   9.238   1.374  1.3948 -0.4837  0.2600
 4057SOL    HW222506   2.884   9.123   1.264  0.2540  0.8344 -0.7349
 4058SOL     OW22507   4.350   8.697   0.481 -0.2020 -0.2584 -0.1298
 4058SOL    HW122508   4.282   8.770   0.471 -1.7013 -1.5860  0.2123
 4058SOL    HW222509   4.440   8.737   0.497 -0.7560  1.5455 -1.4106
 4059SOL     OW22510   6.596   8.606   2.183 -0.1373 -0.0037 -0.0796
 4059SOL    HW122511   6.509   8.595   2.134 -1.2240  1.5104  1.4049
 4059SOL    HW222512   6.577   8.643   2.275  2.0640  0.1431  0.3340
 4060SOL     OW22513   4.175   8.127   1.400 -0.5865  0.0001  0.4273
 4060SOL    HW122514   4.189   8.211   1.452 -2.5338  0.5543  0.0785
 4060SOL    HW222515   4.171   8.049   1.462 -0.6457  0.3901  0.9160
 4061SOL     OW22516   7.748   9.961   1.108 -0.0908 -0.6161  0.4094
 4061SOL    HW122517   7.664   9.908   1.096 -0.3074 -0.5619  1.5987
 4061SOL    HW222518   7.725  10.054   1.137  0.3220 -0.1236 -0.8197
 4062SOL     OW22519   2.049   8.309   3.179 -0.8367  0.1363 -0.2723
 4062SOL    HW122520   2.141   8.345   3.195 -0.7857  0.3902 -1.1214
 4062SOL    HW222521   1.994   8.320   3.263 -0.0387 -0.2092  0.3032
 4063SOL     OW22522   1.398   2.836   2.870 -0.4222 -0.2477 -0.0244
 4063SOL    HW122523   1.352   2.747   2.863 -1.5690  0.4235 -1.3730
 4063SOL    HW222524   1.491   2.823   2.903 -1.4387 -1.6719  2.4186
 4064SOL     OW22525   1.922   1.425   1.821  0.6418 -0.2842 -0.0462
 4064SOL    HW122526   1.953   1.414   1.726 -0.8920  1.4744 -0.7886
 4064SOL    HW222527   1.913   1.335   1.864  1.5131 -1.0899 -1.5034
 4065SOL     OW22528   7.473   1.643   0.371 -0.2878  0.3635  0.4958
 4065SOL    HW122529   7.550   1.623   0.430 -0.6586  0.3893  0.9916
 4065SOL    HW222530   7.388   1.617   0.417 -0.4412 -2.0020 -1.0259
 4066SOL     OW22531   2.829   6.822   2.481 -0.0015 -0.1054 -0.5942
 4066SOL    HW122532   2.878   6.870   2.555 -0.2995  0.2907 -0.6527
 4066SOL    HW222533   2.887   6.818   2.400  0.0407  0.1267 -0.5772
 4067SOL     OW22534   2.090   3.210   1.632  0.4147 -0.3933  0.5758
 4067SOL    HW122535   2.007   3.218   1.577  0.4303 -0.7076  0.5108
 4067SOL    HW222536   2.133   3.121   1.617 -1.2354 -1.7379  3.4283
 4068SOL     OW22537   0.449   8.513   1.079  0.2271  0.2165 -0.0718
 4068SOL    HW122538   0.403   8.601   1.067 -1.6820 -0.5374  1.4854
 4068SOL    HW222539   0.521   8.521   1.147 -1.3013  0.1102  1.5739
 4069SOL     OW22540   3.075   3.087   1.909  0.6628 -0.5749 -0.2612
 4069SOL    HW122541   3.169   3.104   1.880  0.3102 -0.8057 -1.5917
 4069SOL    HW222542   3.051   2.992   1.891 -0.2180 -0.2049 -1.0844
 4070SOL     OW22543   2.750   6.039   2.429  0.6418  0.5054 -0.6461
 4070SOL    HW122544   2.848   6.023   2.421  1.1418  2.6630  0.5604
 4070SOL    HW222545   2.699   5.967   2.382  2.7526 -1.7091  0.4003
 4071SOL     OW22546   2.824   2.102   2.898 -0.4562  0.6017  0.2232
 4071SOL    HW122547   2.817   2.194   2.938 -1.2523  0.0572  1.3459
 4071SOL    HW222548   2.894   2.050   2.946 -1.4856 -0.0877  0.9992
 4072SOL     OW22549   3.274   8.225   2.788  0.0945  0.0694 -0.0460
 4072SOL    HW122550   3.268   8.183   2.879 -0.1726  0.8980  0.3229
 4072SOL    HW222551   3.323   8.312   2.795  0.4255 -0.0529 -0.7669
 4073SOL     OW22552   9.887   2.596   0.122  0.5850  0.6525  0.3249
 4073SOL    HW122553   9.910   2.499   0.118 -1.9365  0.0750 -0.8922
 4073SOL    HW222554   9.884   2.625   0.217  0.0460 -0.7935  0.7688
 4074SOL     OW22555   2.278   2.379   1.403  0.5300  0.1066  0.0942
 4074SOL    HW122556   2.348   2.317   1.440  2.8481  1.9395 -1.1099
 4074SOL    HW222557   2.250   2.348   1.312 -0.6102 -0.8743  0.7525
 4075SOL     OW22558   1.505   8.649   0.771 -0.1000  0.4170  0.6605
 4075SOL    HW122559   1.446   8.579   0.810  1.0195 -0.2747  1.1398
 4075SOL    HW222560   1.528   8.716   0.841 -0.8702  1.0579  0.2982
 4076SOL     OW22561   4.424   7.995   2.781  0.2142  0.1133 -0.2649
 4076SOL    HW122562   4.332   7.956   2.778  0.0083  0.7004 -1.6106
 4076SOL    HW222563   4.429   8.061   2.856 -0.9631  1.3262 -1.2470
 4077SOL     OW22564   1.021   5.736   1.485  0.1242 -0.7476  0.9166
 4077SOL    HW122565   1.091   5.678   1.528  0.7050 -1.1866 -0.5820
 4077SOL    HW222566   0.937   5.683   1.472 -0.2717 -0.4179  2.1079
 4078SOL     OW22567   1.160   7.495   2.836 -0.0027  0.0482  0.4019
 4078SOL    HW122568   1.155   7.395   2.833 -1.9992  0.1269  0.2529
 4078SOL    HW222569   1.125   7.533   2.750 -1.4813  0.9200  1.3778
 4079SOL     OW22570   9.933   4.516   0.796  0.8299 -0.0346  0.1426
 4079SOL    HW122571   9.897   4.581   0.862 -1.8427 -2.6872  1.3753
 4079SOL    HW222572   9.972   4.566   0.718  1.5375  3.0541  2.4015
 4080SOL     OW22573   3.707   8.940   0.204 -0.1706 -0.3959  0.2859
 4080SOL    HW122574   3.782   8.951   0.270 -1.3894 -0.3759  1.6854
 4080SOL    HW222575   3.725   8.998   0.124  1.2642 -0.3357  0.6353
 4081SOL     OW22576   1.888   8.428   2.973  0.2821  0.2877 -0.4346
 4081SOL    HW122577   1.897   8.382   2.885 -1.6449  0.4763 -0.7475
 4081SOL    HW222578   1.948   8.384   3.040  1.2230 -0.3087 -1.6545
 4082SOL     OW22579   8.250   2.301   2.274  0.2044 -0.3452 -0.4608
 4082SOL    HW122580   8.222   2.393   2.250  0.4858  0.0386  0.6192
 4082SOL    HW222581   8.207   2.235   2.214 -2.1152  0.3026  0.4561
 4083SOL     OW22582   9.812   9.467   2.429 -0.2189  0.0744  0.5664
 4083SOL    HW122583   9.809   9.566   2.420 -1.6807 -0.0459 -0.3957
 4083SOL    HW222584   9.890   9.441   2.486  0.4995  1.7340  0.3700
 4084SOL     OW22585   0.774   0.921   2.372 -0.0583  0.0815 -0.7188
 4084SOL    HW122586   0.751   0.900   2.467 -0.9568  0.3941 -0.8597
 4084SOL    HW222587   0.861   0.970   2.369 -0.0668  0.1449 -0.0456
 4085SOL     OW22588   3.871   4.215   2.676 -0.4966  0.0372  0.0545
 4085SOL    HW122589   3.957   4.190   2.632 -0.9288 -0.8420 -0.3186
 4085SOL    HW222590   3.836   4.137   2.728 -0.5079  0.7446  1.1293
 4086SOL     OW22591   2.389   0.487   1.521 -0.2245  0.2259 -0.5499
 4086SOL    HW122592   2.434   0.400   1.502 -0.3489 -0.1592  0.8506
 4086SOL    HW222593   2.290   0.476   1.509  0.0191  1.2289 -4.2224
 4087SOL     OW22594   3.359   3.434   0.257 -0.7311  0.4169  0.5003
 4087SOL    HW122595   3.456   3.460   0.253 -0.4196 -0.9336 -1.0013
 4087SOL    HW222596   3.338   3.401   0.349  0.8072 -1.3846  0.2423
 4088SOL     OW22597   0.517   8.534   0.154 -0.4168 -0.0161  0.0968
 4088SOL    HW122598   0.511   8.536   0.254  0.8857 -2.0532  0.2685
 4088SOL    HW222599   0.459   8.461   0.119 -0.7991  0.6375 -0.6276
 4089SOL     OW22600   2.175   2.647   1.419  0.2056 -0.1463  0.0747
 4089SOL    HW122601   2.235   2.566   1.420 -0.9082 -0.9919 -0.6128
 4089SOL    HW222602   2.080   2.617   1.411 -0.1125  1.2966 -1.7019
 4090SOL     OW22603   8.608   0.876   2.540 -0.4783  0.0329  0.1831
 4090SOL    HW122604   8.624   0.932   2.459  1.0803  0.7270  0.9455
 4090SOL    HW222605   8.552   0.797   2.516 -0.3037  0.4097 -1.4959
 4091SOL     OW22606   0.951   3.411   2.199  0.7114 -0.3135  0.0144
 4091SOL    HW122607   0.943   3.510   2.203  0.0712 -0.3511 -0.3205
 4091SOL    HW222608   1.006   3.379   2.277 -2.0334  0.0001  2.1716
 4092SOL     OW22609   3.898   2.989   2.571  0.6201  0.0111  0.1140
 4092SOL    HW122610   3.840   2.909   2.558 -0.8990  0.9465  1.0034
 4092SOL    HW222611   3.883   3.054   2.497  0.6357  0.1939  0.2704
 4093SOL     OW22612   9.051   2.286   1.372  0.6024  0.1009 -0.0912
 4093SOL    HW122613   9.077   2.285   1.276 -0.8663 -2.1097 -0.5223
 4093SOL    HW222614   9.081   2.201   1.416 -2.0932 -0.6523  0.4081
 4094SOL     OW22615   8.414   7.477   3.404 -0.3741  0.6401 -0.1421
 4094SOL    HW122616   8.472   7.458   3.483 -0.6424  0.6736  0.0647
 4094SOL    HW222617   8.319   7.459   3.428 -0.5519  1.5114 -0.1812
 4095SOL     OW22618   0.355   3.059   2.606  0.1192 -0.6058  0.0082
 4095SOL    HW122619   0.300   3.005   2.670 -1.1882 -1.9830 -2.1850
 4095SOL    HW222620   0.367   3.152   2.640 -1.9284 -0.8605  1.4555
 4096SOL     OW22621   3.466   6.691   2.869 -0.2733  0.0199  0.2500
 4096SOL    HW122622   3.488   6.667   2.775 -2.4335  0.3737 -0.3735
 4096SOL    HW222623   3.500   6.783   2.888 -0.0538  0.0509 -0.2758
 4097SOL     OW22624   3.447   3.096   2.484 -0.3346 -0.0109 -0.8065
 4097SOL    HW122625   3.393   3.022   2.524  0.3515  0.0466  0.2512
 4097SOL    HW222626   3.398   3.134   2.406 -1.9639  0.2136  0.2870
 4098SOL     OW22627   1.099   1.883   0.423 -0.5447 -0.1976  0.6790
 4098SOL    HW122628   1.143   1.932   0.348 -1.0178 -1.1723 -0.2457
 4098SOL    HW222629   1.165   1.870   0.497  0.4818 -0.8751 -0.3293
 4099SOL     OW22630   0.298   5.602   0.176 -0.3893  0.0260  0.8754
 4099SOL    HW122631   0.296   5.579   0.079 -1.9594  1.4365  0.5356
 4099SOL    HW222632   0.390   5.628   0.203  0.0014 -0.1279 -0.2930
 4100SOL     OW22633   3.297   5.898   0.574 -0.2769  0.2343 -0.0574
 4100SOL    HW122634   3.327   5.879   0.667 -1.0967  0.2610  0.2090
 4100SOL    HW222635   3.355   5.969   0.534 -0.1337  0.4516  0.5406
 4101SOL     OW22636   9.493   0.369   3.090 -0.0527 -0.4859 -0.4169
 4101SOL    HW122637   9.571   0.307   3.104  0.4500 -0.2362 -2.0029
 4101SOL    HW222638   9.527   0.460   3.067 -0.8216 -0.0861  0.0008
 4102SOL     OW22639   2.310   9.451   2.589  0.3126 -0.3753 -0.0777
 4102SOL    HW122640   2.369   9.444   2.508  1.0400 -0.2119  0.4361
 4102SOL    HW222641   2.218   9.419   2.566  0.0147  1.3905 -1.4876
 4103SOL     OW22642   2.250   0.430   0.839  0.6890  0.0069 -0.0102
 4103SOL    HW122643   2.304   0.411   0.758  1.3146 -1.3135  0.6946
 4103SOL    HW222644   2.310   0.439   0.918 -0.0029  0.1494  0.5125
 4104SOL     OW22645   3.831   7.811   2.669  0.3769  0.1255  0.0774
 4104SOL    HW122646   3.867   7.870   2.741  1.8955  0.6791 -1.1155
 4104SOL    HW222647   3.906   7.779   2.611 -1.1276  2.0508 -3.0298
 4105SOL     OW22648   2.406   3.389   0.138  1.1985 -0.0552  0.2703
 4105SOL    HW122649   2.368   3.438   0.060  0.0920  0.2937  1.0168
 4105SOL    HW222650   2.376   3.433   0.223  0.9894 -1.4427  0.9339
 4106SOL     OW22651   0.426   7.089   3.430 -0.2051 -0.4373  0.0381
 4106SOL    HW122652   0.508   7.086   3.487  0.1764 -0.0713 -0.4946
 4106SOL    HW222653   0.436   7.025   3.354 -0.3205 -0.2226 -0.1549
 4107SOL     OW22654   2.715   2.839   2.987 -0.2056 -0.1873 -0.0398
 4107SOL    HW122655   2.685   2.874   2.899 -0.7158 -1.2686 -0.3097
 4107SOL    HW222656   2.814   2.850   2.995 -0.0853 -0.5247 -0.9592
 4108SOL     OW22657   2.870   3.938   2.999  0.1192 -0.0948  0.2647
 4108SOL    HW122658   2.845   3.997   2.922  0.7357  0.3509  0.4031
 4108SOL    HW222659   2.889   3.846   2.965  0.2927  0.0760 -0.1059
 4109SOL     OW22660   9.534   6.806   3.265 -0.4808 -0.0956 -0.2151
 4109SOL    HW122661   9.453   6.796   3.207 -0.3211 -0.9200 -0.2982
 4109SOL    HW222662   9.524   6.749   3.347  0.6938 -1.4162 -0.9748
 4110SOL     OW22663   3.878   4.454   2.353 -0.0472 -0.1489 -0.4669
 4110SOL    HW122664   3.822   4.382   2.392 -1.3638  0.5645 -1.0116
 4110SOL    HW222665   3.878   4.447   2.254 -2.0362  1.9198 -0.6488
 4111SOL     OW22666   8.048   0.856   1.410 -0.7015 -0.2547  0.0042
 4111SOL    HW122667   8.143   0.872   1.437 -1.1058 -0.7242  1.7340
 4111SOL    HW222668   8.007   0.943   1.382  0.6769 -0.2900 -2.2975
 4112SOL     OW22669   1.717   2.776   1.346  0.6698  0.3030 -0.4193
 4112SOL    HW122670   1.663   2.703   1.306  0.6187 -0.0390  0.2563
 4112SOL    HW222671   1.680   2.799   1.436  2.7761 -1.2671  0.9045
 4113SOL     OW22672   9.694   1.765   1.747 -0.0125  0.4102  0.6537
 4113SOL    HW122673   9.687   1.790   1.843 -0.2992 -3.1075  1.6332
 4113SOL    HW222674   9.774   1.706   1.733 -0.8610 -0.4219 -0.9186
 4114SOL     OW22675   0.225   6.738   2.415  0.1447 -0.0446 -0.1300
 4114SOL    HW122676   0.179   6.650   2.415 -0.5517  0.3069 -1.2409
 4114SOL    HW222677   0.265   6.755   2.325 -2.2566  2.0392 -0.8739
 4115SOL     OW22678   0.038   2.695   1.516  0.5015 -0.2660  0.1795
 4115SOL    HW122679   0.132   2.720   1.535  0.5894 -0.3236 -0.1667
 4115SOL    HW222680   0.032   2.654   1.424  0.1743 -0.4402  0.2754
 4116SOL     OW22681   8.177   3.982   1.308 -0.3447 -0.3327  0.7092
 4116SOL    HW122682   8.235   4.020   1.380  0.0715  0.1573  0.1194
 4116SOL    HW222683   8.211   4.012   1.219 -1.7732  0.3428  0.3732
 4117SOL     OW22684   2.635   0.788   2.991  0.1788  0.3225 -0.1445
 4117SOL    HW122685   2.554   0.774   3.048  1.2781  0.7974  1.5854
 4117SOL    HW222686   2.677   0.876   3.012  0.2204  0.8315 -2.2204
 4118SOL     OW22687   0.649   0.566   0.014 -0.2943  0.3919 -0.1575
 4118SOL    HW122688   0.634   0.469   0.034  1.5331  0.3444  1.1437
 4118SOL    HW222689   0.584   0.622   0.066 -0.5432 -0.0929  0.0548
 4119SOL     OW22690   9.374   6.081   3.038 -0.2788  0.1154  0.4666
 4119SOL    HW122691   9.450   6.077   3.103  0.5308  1.6308 -0.3418
 4119SOL    HW222692   9.390   6.016   2.964  0.4676  0.7039  0.0907
 4120SOL     OW22693   8.388   1.483   1.553  0.0312  0.1993  0.1784
 4120SOL    HW122694   8.343   1.456   1.467  0.4807  0.8773 -0.2832
 4120SOL    HW222695   8.318   1.511   1.619 -0.3153 -0.2387  0.0001
 4121SOL     OW22696   0.043   1.762   2.014 -0.5393 -0.0734  0.1232
 4121SOL    HW122697   0.121   1.764   1.952 -1.5166 -0.6397 -1.1695
 4121SOL    HW222698   0.025   1.853   2.049  0.7953  0.0286  0.5580
 4122SOL     OW22699   0.542   5.668   2.603  0.2789 -0.4364 -0.7394
 4122SOL    HW122700   0.464   5.615   2.636  1.3679 -1.0390  0.9548
 4122SOL    HW222701   0.607   5.606   2.557  1.1261 -0.4501  0.4456
 4123SOL     OW22702   3.032   1.137   0.871 -0.0069 -0.3020 -0.1759
 4123SOL    HW122703   3.102   1.088   0.820 -0.9951  0.9113 -2.7541
 4123SOL    HW222704   3.070   1.221   0.908  0.5988 -0.9759  0.7588
 4124SOL     OW22705   2.084   9.562   1.655  0.3679  0.4879 -0.1865
 4124SOL    HW122706   2.035   9.516   1.582 -1.3291 -0.7125  1.6565
 4124SOL    HW222707   2.133   9.641   1.618 -1.7730  0.8614 -2.3466
 4125SOL     OW22708   8.950   9.681   1.728 -0.5354  0.1481  0.4013
 4125SOL    HW122709   8.869   9.626   1.707  1.2402 -1.9210 -1.3945
 4125SOL    HW222710   8.982   9.725   1.644  1.6731 -1.1893  0.4853
 4126SOL     OW22711   2.600   9.605   1.185  0.0236 -0.2930  0.2895
 4126SOL    HW122712   2.657   9.523   1.174  1.1240  0.3564  1.0627
 4126SOL    HW222713   2.631   9.676   1.123 -0.3112 -0.1245  0.3121
 4127SOL     OW22714   3.254   3.977   0.907 -0.1115  0.4602  0.1373
 4127SOL    HW122715   3.254   4.067   0.864  0.4569 -0.6277 -2.2334
 4127SOL    HW222716   3.209   3.911   0.846 -1.5012 -0.6601  2.3102
 4128SOL     OW22717   8.693   9.078   0.985  0.1752  0.4874  0.3566
 4128SOL    HW122718   8.638   8.998   0.964  1.6136 -0.4066 -0.0674
 4128SOL    HW222719   8.765   9.089   0.916  0.8362  1.3470  1.1595
 4129SOL     OW22720   1.429   5.080   0.194  0.7943  0.2258  0.0230
 4129SOL    HW122721   1.464   5.164   0.153 -0.6407  0.6262 -0.4219
 4129SOL    HW222722   1.365   5.036   0.131  1.4713 -1.1667  0.2875
 4130SOL     OW22723   8.636   3.896   1.007  0.5089  0.1392  0.2752
 4130SOL    HW122724   8.659   3.812   1.055 -1.0037 -0.4333  0.0015
 4130SOL    HW222725   8.569   3.877   0.935  2.2121  1.0930 -1.6470
 4131SOL     OW22726   8.479   6.427   3.152 -0.4381  0.1596  0.8389
 4131SOL    HW122727   8.523   6.516   3.165 -0.5860  0.3758 -0.0591
 4131SOL    HW222728   8.549   6.360   3.126 -0.4850  0.2661  0.4358
 4132SOL     OW22729   0.578   9.624   0.240  0.1041  0.6986  0.1650
 4132SOL    HW122730   0.664   9.579   0.263  0.6950  2.0827  0.7212
 4132SOL    HW222731   0.580   9.654   0.144  0.8041  1.9589  0.5658
 4133SOL     OW22732   9.819   8.773   1.744  0.1003 -0.0676  0.6259
 4133SOL    HW122733   9.904   8.776   1.691 -0.2687  0.9636  0.0869
 4133SOL    HW222734   9.802   8.679   1.773  1.0905 -0.3924  0.1962
 4134SOL     OW22735   3.744   9.748   2.140 -0.5642 -0.4271  0.0147
 4134SOL    HW122736   3.829   9.710   2.175 -0.1065  0.0687 -0.5468
 4134SOL    HW222737   3.666   9.697   2.178  0.0119 -1.4174 -0.1198
 4135SOL     OW22738   0.310   6.849   0.559  0.7314 -0.2631  0.1415
 4135SOL    HW122739   0.328   6.897   0.646 -0.1984  0.0792  0.1493
 4135SOL    HW222740   0.357   6.897   0.485 -1.5202  1.6586 -0.1028
 4136SOL     OW22741   4.539   1.435   1.017 -0.1901  0.4546  0.1558
 4136SOL    HW122742   4.537   1.529   0.984  0.2982  0.5499  0.3791
 4136SOL    HW222743   4.483   1.428   1.100  2.8239  1.4494  2.3547
 4137SOL     OW22744   3.315   6.420   1.556  0.4254 -0.0384  0.2303
 4137SOL    HW122745   3.336   6.376   1.469 -0.6761 -0.3499  0.1143
 4137SOL    HW222746   3.353   6.366   1.631  1.8334  0.5087 -0.0734
 4138SOL     OW22747   3.066   8.648   2.697  0.8033  0.4438  0.5805
 4138SOL    HW122748   3.084   8.720   2.630  0.3268 -1.1161 -1.2667
 4138SOL    HW222749   3.031   8.689   2.781  1.6245  2.4559 -0.0220
 4139SOL     OW22750   0.942   9.510   1.192 -0.1796 -0.8772  0.2349
 4139SOL    HW122751   0.854   9.552   1.170 -0.8987 -1.4292  1.9594
 4139SOL    HW222752   0.944   9.484   1.289  2.1383 -0.2634  0.3923
 4140SOL     OW22753   1.723   5.701   2.838  0.5123 -0.1738 -0.0040
 4140SOL    HW122754   1.710   5.698   2.739  3.6391  0.3656 -0.4797
 4140SOL    HW222755   1.635   5.720   2.882 -0.4846  2.0759 -2.7889
 4141SOL     OW22756   9.962   7.541   3.095  0.4698  0.1854  0.4343
 4141SOL    HW122757   9.946   7.574   3.188 -0.3785  0.3126  0.2467
 4141SOL    HW222758  10.028   7.466   3.097  0.3408  0.0890  1.1526
 4142SOL     OW22759   3.572   4.362   3.432  0.1096  0.1850 -0.0055
 4142SOL    HW122760   3.581   4.440   3.493  1.9884 -0.1121  0.1387
 4142SOL    HW222761   3.567   4.278   3.486  0.0444  0.0542 -0.2139
 4143SOL     OW22762   1.166   1.401   1.186 -0.3465 -0.1029 -0.2739
 4143SOL    HW122763   1.137   1.405   1.281  0.9163  1.1969  0.0827
 4143SOL    HW222764   1.103   1.454   1.129 -0.0275  0.7255  0.1372
 4144SOL     OW22765   9.274   6.627   1.027  0.1217 -0.4900  0.3565
 4144SOL    HW122766   9.285   6.692   1.102  0.5373 -0.2224  0.0632
 4144SOL    HW222767   9.212   6.553   1.056 -0.7453  0.2925  0.5211
 4145SOL     OW22768   1.828   9.133   1.409  0.4161 -0.3143  0.2448
 4145SOL    HW122769   1.776   9.136   1.494 -0.2725  1.9060 -0.2291
 4145SOL    HW222770   1.766   9.129   1.331  0.8952  2.0990 -0.3140
 4146SOL     OW22771   0.529   6.481   1.582  0.1156 -0.4239  0.3643
 4146SOL    HW122772   0.600   6.505   1.517 -0.9834 -0.2977 -0.8079
 4146SOL    HW222773   0.556   6.398   1.632  1.2679 -0.1206  0.2509
 4147SOL     OW22774   0.210   4.629   2.472  0.4229  0.2378  0.0233
 4147SOL    HW122775   0.128   4.590   2.515 -1.2181  1.9607 -1.4535
 4147SOL    HW222776   0.262   4.679   2.541  0.5045 -1.2547  1.0792
 4148SOL     OW22777   9.393   6.820   2.152 -0.1594  0.0799 -0.6120
 4148SOL    HW122778   9.354   6.796   2.241  0.2719 -0.6190 -0.6096
 4148SOL    HW222779   9.375   6.746   2.087 -1.5595  1.1307 -1.4399
 4149SOL     OW22780   1.410   6.505   1.282  0.6858 -0.3333 -0.0862
 4149SOL    HW122781   1.358   6.580   1.242 -0.4664 -1.3323 -0.5079
 4149SOL    HW222782   1.396   6.504   1.381 -0.1158 -0.6045 -0.2009
 4150SOL     OW22783   3.476   5.636   2.649 -0.1780 -0.6760  0.0845
 4150SOL    HW122784   3.522   5.714   2.690 -0.1530 -0.6466  0.0016
 4150SOL    HW222785   3.512   5.551   2.688  0.4946 -0.6788 -0.5374
 4151SOL     OW22786   4.168   0.103   2.863  0.3082 -0.2086  0.0475
 4151SOL    HW122787   4.192   0.091   2.960  1.0699  2.4342  0.2257
 4151SOL    HW222788   4.073   0.079   2.849 -0.0428  0.1747  1.6432
 4152SOL     OW22789   3.576   4.701   2.561  0.0985 -0.5318 -0.0377
 4152SOL    HW122790   3.580   4.606   2.592 -1.0881 -0.5647  0.0411
 4152SOL    HW222791   3.481   4.725   2.541  0.3186  0.8128  0.5063
 4153SOL     OW22792   9.232   1.413   2.839 -0.1893  0.0917 -0.1910
 4153SOL    HW122793   9.208   1.338   2.778  0.1595 -0.7457  0.6905
 4153SOL    HW222794   9.297   1.474   2.794  0.3517 -0.7252 -0.5055
 4154SOL     OW22795   0.368   9.868   2.227 -0.0617 -0.3734  0.4933
 4154SOL    HW122796   0.270   9.883   2.242 -0.3380 -1.3600 -0.2467
 4154SOL    HW222797   0.402   9.801   2.292 -0.3755 -1.6619 -0.6401
 4155SOL     OW22798   9.985   0.557   2.788 -0.3201  0.5648 -0.3205
 4155SOL    HW122799   9.971   0.564   2.887 -0.5705  0.0497 -0.3188
 4155SOL    HW222800   9.980   0.648   2.747 -0.8102  0.7135  0.0652
 4156SOL     OW22801   7.107   9.748   3.288 -0.2442 -0.5043  0.1072
 4156SOL    HW122802   7.041   9.801   3.341  0.8275  0.5433  0.4036
 4156SOL    HW222803   7.146   9.676   3.345 -0.9021 -0.9454  0.0129
 4157SOL     OW22804   2.674   3.516   0.257 -0.2442 -0.1224 -0.1146
 4157SOL    HW122805   2.596   3.476   0.208 -0.4041 -0.0127  0.0524
 4157SOL    HW222806   2.665   3.496   0.354  0.5858 -1.1955 -0.2522
 4158SOL     OW22807   0.950   2.572   2.618 -0.0994  0.1742  0.6902
 4158SOL    HW122808   0.988   2.560   2.527 -0.8710  0.9760  0.2555
 4158SOL    HW222809   0.894   2.493   2.643  2.9892 -1.7244  1.9316
 4159SOL     OW22810   3.119   4.187   1.833 -0.3748  0.2488  0.1121
 4159SOL    HW122811   3.165   4.156   1.750 -1.0581  1.0483 -0.5665
 4159SOL    HW222812   3.140   4.283   1.849  0.0303  0.0051  1.0552
 4160SOL     OW22813   3.493   1.522   1.741  0.2196  0.2619  0.3353
 4160SOL    HW122814   3.437   1.574   1.677  1.7340  2.1830  0.5548
 4160SOL    HW222815   3.535   1.444   1.694  1.1720  1.5514 -0.9797
 4161SOL     OW22816   0.599   8.933   1.487 -0.7831  0.6885 -0.5488
 4161SOL    HW122817   0.667   8.887   1.429 -0.1668  1.4413 -0.4522
 4161SOL    HW222818   0.541   8.991   1.429 -0.2314  1.3641 -0.4410
 4162SOL     OW22819   2.718   9.227   2.019  0.0931  0.0892  0.1187
 4162SOL    HW122820   2.649   9.294   1.991  0.7009  1.2863  1.3923
 4162SOL    HW222821   2.759   9.185   1.938 -2.3155 -0.8437 -0.6478
 4163SOL     OW22822   9.120   6.387   0.442 -0.0340 -0.0064 -0.4834
 4163SOL    HW122823   9.042   6.443   0.411  0.7172  1.1824 -0.2761
 4163SOL    HW222824   9.118   6.380   0.541  0.2945  0.2949 -0.4540
 4164SOL     OW22825   0.801   5.881   0.796 -0.5039  0.4541 -0.5960
 4164SOL    HW122826   0.875   5.834   0.843 -1.6356 -0.3792  0.3751
 4164SOL    HW222827   0.839   5.939   0.724  1.0092 -0.7821 -0.8194
 4165SOL     OW22828   2.614   3.769   0.817  0.1139 -0.0933  0.0627
 4165SOL    HW122829   2.604   3.684   0.869 -0.4077 -0.3232 -0.4101
 4165SOL    HW222830   2.701   3.768   0.769  0.3928 -0.0817  0.5631
 4166SOL     OW22831   3.435   9.237   0.027  0.1192 -0.2308 -0.1756
 4166SOL    HW122832   3.465   9.326   0.061 -0.1379 -0.6022  1.0775
 4166SOL    HW222833   3.378   9.250  -0.054  2.4906  0.5437 -1.7464
 4167SOL     OW22834   9.760   5.916   3.022 -0.1827 -0.3961  0.0493
 4167SOL    HW122835   9.736   5.940   2.927 -0.3411  0.0973  0.2101
 4167SOL    HW222836   9.706   5.972   3.085 -0.3820 -1.0219  0.4394
 4168SOL     OW22837   6.898   0.292   0.022 -0.4074  0.1408 -0.3646
 4168SOL    HW122838   6.892   0.361  -0.050  0.0977  1.1326  0.5205
 4168SOL    HW222839   6.950   0.213  -0.011  0.1072  0.7300 -0.9664
 4169SOL     OW22840   9.659   5.546   3.287  0.5648 -0.2095 -0.0814
 4169SOL    HW122841   9.739   5.486   3.287 -0.2756 -1.3898 -1.9738
 4169SOL    HW222842   9.643   5.581   3.195 -1.1202 -0.0517  0.2451
 4170SOL     OW22843   9.137   2.522   0.746 -0.0635 -0.1267  1.2866
 4170SOL    HW122844   9.047   2.480   0.738 -0.6442  1.1135  1.0778
 4170SOL    HW222845   9.165   2.525   0.842 -0.2443 -0.5321  1.3484
 4171SOL     OW22846   2.820   5.594   1.757 -0.6381  0.0561 -0.1210
 4171SOL    HW122847   2.801   5.496   1.768 -2.0664  0.4777  1.2165
 4171SOL    HW222848   2.743   5.638   1.710 -0.5666  0.7830  0.4448
 4172SOL     OW22849   9.725   1.918   3.273 -0.3494 -0.0154  0.0150
 4172SOL    HW122850   9.675   1.995   3.231 -1.0980 -1.3196 -1.5166
 4172SOL    HW222851   9.725   1.840   3.211  2.6296 -0.4426  0.4941
 4173SOL     OW22852   8.930   5.008   2.922  0.1881 -0.2079 -0.8244
 4173SOL    HW122853   8.876   4.926   2.943  0.0994  0.0760  0.0533
 4173SOL    HW222854   8.926   5.072   2.999  2.0604 -0.3321 -0.5980
 4174SOL     OW22855   8.279   8.873   2.060 -0.0727 -0.0124 -0.9831
 4174SOL    HW122856   8.356   8.811   2.049  0.7765  1.0203 -0.9622
 4174SOL    HW222857   8.305   8.965   2.028 -1.3463  0.3075 -1.1546
 4175SOL     OW22858   9.098   2.687   0.542 -0.0775 -0.2444 -0.2571
 4175SOL    HW122859   9.115   2.618   0.612 -2.1369  0.2028  0.7184
 4175SOL    HW222860   9.074   2.774   0.586 -1.1538  0.0999 -1.5031
 4176SOL     OW22861   8.738   1.267   0.207  0.2692 -0.5013  0.3249
 4176SOL    HW122862   8.733   1.318   0.293 -1.3167 -0.2117  0.0820
 4176SOL    HW222863   8.824   1.287   0.160  0.3229  0.7697  0.9604
 4177SOL     OW22864   9.737   5.999   2.051 -0.8106 -0.3112 -0.0896
 4177SOL    HW122865   9.660   5.937   2.042 -0.3632 -0.7796 -0.7304
 4177SOL    HW222866   9.711   6.091   2.023 -0.9308 -0.6235 -0.9963
 4178SOL     OW22867   9.873   1.511   3.363  0.4926 -0.2689  0.2200
 4178SOL    HW122868   9.800   1.464   3.412 -0.7823 -0.4701 -1.8106
 4178SOL    HW222869   9.957   1.457   3.369  0.2685 -0.4726  1.8102
 4179SOL     OW22870   1.922   9.477   3.175  0.5018 -0.1698 -0.6351
 4179SOL    HW122871   2.021   9.491   3.179  0.4815 -0.1115 -0.2068
 4179SOL    HW222872   1.902   9.380   3.166  0.5927 -0.2180 -0.3238
 4180SOL     OW22873   1.513   9.414   0.162 -0.7449  0.1743 -0.1730
 4180SOL    HW122874   1.425   9.391   0.204 -0.0698  0.9099  1.7247
 4180SOL    HW222875   1.499   9.477   0.087 -1.9803 -1.0057 -0.9576
 4181SOL     OW22876   9.474   8.541   2.590  0.0186  0.0515  0.1712
 4181SOL    HW122877   9.380   8.509   2.593  0.0493  0.0202  1.1588
 4181SOL    HW222878   9.475   8.641   2.588 -0.0292  0.1403  2.7593
 4182SOL     OW22879   6.581   9.682   2.234  0.7128  0.5621  0.4341
 4182SOL    HW122880   6.556   9.585   2.240 -1.3986  1.0717  0.1943
 4182SOL    HW222881   6.584   9.722   2.326 -0.3279  0.7279  0.4005
 4183SOL     OW22882   3.498   1.864   1.123 -0.0728  0.1043 -0.2445
 4183SOL    HW122883   3.546   1.819   1.047  2.1124  1.2381  0.4198
 4183SOL    HW222884   3.423   1.806   1.154  0.4085 -1.3978 -1.7829
 4184SOL     OW22885   0.711   7.239   1.049 -0.0975  0.1887 -0.3079
 4184SOL    HW122886   0.673   7.271   1.136  0.1850 -0.3020  0.0039
 4184SOL    HW222887   0.675   7.293   0.974 -0.2230  0.7208  0.1363
 4185SOL     OW22888   2.953   2.121   2.363 -0.0786  0.0415 -0.2787
 4185SOL    HW122889   2.983   2.197   2.420  1.6795 -0.6912 -0.2055
 4185SOL    HW222890   2.976   2.140   2.267  1.4526 -0.8985 -0.1170
 4186SOL     OW22891   9.157   5.488   1.675  0.7779  0.1066 -0.2555
 4186SOL    HW122892   9.066   5.456   1.703  1.0494  0.1315  0.6639
 4186SOL    HW222893   9.207   5.413   1.632  0.1973  0.1855 -1.0848
 4187SOL     OW22894   9.237   1.330   3.105  0.3648  0.3657  0.0253
 4187SOL    HW122895   9.231   1.365   3.012  0.5660  0.2769 -0.0192
 4187SOL    HW222896   9.175   1.383   3.164 -1.6251 -1.1659 -0.6358
 4188SOL     OW22897   2.935   6.090   1.344 -0.0211 -0.2836  0.4938
 4188SOL    HW122898   2.948   6.158   1.272  1.6832 -0.0630  1.0047
 4188SOL    HW222899   2.865   6.122   1.408  0.2779  0.6761  0.3424
 4189SOL     OW22900   2.266   6.226   1.774  0.0411  0.4351  0.2243
 4189SOL    HW122901   2.202   6.299   1.797 -1.3010 -0.3211 -0.9637
 4189SOL    HW222902   2.271   6.217   1.674  0.0611 -1.1851  0.3538
 4190SOL     OW22903   9.410   1.717   0.026 -0.4814  0.0647  0.2955
 4190SOL    HW122904   9.441   1.622   0.028  0.2464  0.3046  1.1275
 4190SOL    HW222905   9.322   1.723  -0.021 -1.5990 -1.3377  2.1251
 4191SOL     OW22906   1.438   1.503   0.115  0.4656 -0.2707  0.4814
 4191SOL    HW122907   1.362   1.441   0.095  0.0290 -0.1646  1.7597
 4191SOL    HW222908   1.512   1.487   0.051 -0.7836 -0.1217 -1.0362
 4192SOL     OW22909   0.265   6.619   1.880 -0.2729 -0.0775  0.2235
 4192SOL    HW122910   0.316   6.675   1.814 -2.4048 -0.4612 -1.8140
 4192SOL    HW222911   0.257   6.526   1.844 -0.5502 -0.5674  1.5401
 4193SOL     OW22912   9.004   5.999   2.895  0.3589 -0.0467 -0.3074
 4193SOL    HW122913   8.975   5.965   2.805  0.1395 -0.5936 -0.0314
 4193SOL    HW222914   9.094   5.961   2.917  0.4431  0.1406 -0.3238
 4194SOL     OW22915   1.375   5.176   2.169  0.4982  0.6714 -0.6939
 4194SOL    HW122916   1.285   5.196   2.206  1.2760 -0.1826  1.7039
 4194SOL    HW222917   1.397   5.079   2.181  1.8657  0.9278 -0.9634
 4195SOL     OW22918   3.021   2.575   2.366  0.3226  0.3377  0.0372
 4195SOL    HW122919   3.092   2.524   2.414  0.2825  1.3517  1.1949
 4195SOL    HW222920   3.001   2.660   2.415 -2.0720 -0.1823  0.0295
 4196SOL     OW22921   0.470   5.799   1.138  0.0165 -0.7085  0.2199
 4196SOL    HW122922   0.458   5.710   1.094  1.1570 -1.4009  1.2691
 4196SOL    HW222923   0.545   5.848   1.095 -2.1649  0.8123 -1.9698
 4197SOL     OW22924   1.343   3.499   2.677 -0.2349 -0.0346  0.1214
 4197SOL    HW122925   1.294   3.475   2.593 -2.4431  0.6409  1.1909
 4197SOL    HW222926   1.390   3.586   2.664 -0.0028 -0.2696 -0.6344
 4198SOL     OW22927   5.235   0.027   2.090 -0.2451 -0.1886 -0.2707
 4198SOL    HW122928   5.242   0.122   2.120 -2.0976 -0.4588  1.1856
 4198SOL    HW222929   5.301  -0.028   2.141  0.4619  0.2361 -0.7263
 4199SOL     OW22930   3.539   5.151   2.349  0.3237 -0.1403  0.7358
 4199SOL    HW122931   3.445   5.123   2.366  0.0431 -0.5736 -1.3644
 4199SOL    HW222932   3.598   5.118   2.423 -0.8306 -1.7709  0.9511
 4200SOL     OW22933   1.786   8.647   2.854 -0.0625  0.2283 -0.5457
 4200SOL    HW122934   1.814   8.564   2.902 -1.6358  1.5194  2.8002
 4200SOL    HW222935   1.861   8.714   2.856 -0.3855  0.5555  0.8126
 4201SOL     OW22936   8.634   6.390   1.296 -0.3291 -0.6021 -0.0534
 4201SOL    HW122937   8.630   6.472   1.355 -2.5100 -0.1184 -0.8129
 4201SOL    HW222938   8.600   6.311   1.348 -0.6338 -0.5139 -0.1171
 4202SOL     OW22939   0.845   0.832   1.959  0.0145  0.2250 -0.4277
 4202SOL    HW122940   0.785   0.908   1.979 -0.4037  0.3952 -2.2173
 4202SOL    HW222941   0.898   0.852   1.876  1.9539 -0.2487  0.6655
 4203SOL     OW22942   9.816   8.693   2.508  0.3693  0.1478 -0.9447
 4203SOL    HW122943   9.898   8.732   2.464  0.2991 -1.1272 -2.2242
 4203SOL    HW222944   9.741   8.691   2.443  0.0011 -0.9323 -0.4933
 4204SOL     OW22945   0.473   7.410   1.881  0.2746 -0.5271 -0.7049
 4204SOL    HW122946   0.466   7.346   1.804  1.3726 -0.8414 -0.5502
 4204SOL    HW222947   0.490   7.359   1.965  0.6908 -0.0715 -0.5109
 4205SOL     OW22948   1.525   0.886   0.527 -0.2399 -0.3620 -0.7944
 4205SOL    HW122949   1.461   0.956   0.496  0.5949  1.3502  1.2704
 4205SOL    HW222950   1.474   0.811   0.569 -0.9788  0.4727 -0.1744
 4206SOL     OW22951   8.172   9.659   1.444  0.6388  0.3313  0.0576
 4206SOL    HW122952   8.146   9.752   1.472 -1.2538  0.3750 -1.7106
 4206SOL    HW222953   8.261   9.636   1.484  0.7139  2.5523  1.2704
 4207SOL     OW22954   3.400   4.875   0.497 -0.5052 -0.1205 -0.7273
 4207SOL    HW122955   3.335   4.939   0.457  0.0069 -0.0127 -1.3922
 4207SOL    HW222956   3.483   4.872   0.441 -0.1418 -0.6412 -0.1700
 4208SOL     OW22957   1.775   1.934   2.199  0.6892  0.2455 -0.8326
 4208SOL    HW122958   1.798   1.840   2.223 -0.0714  0.4051  0.6118
 4208SOL    HW222959   1.677   1.942   2.183  0.5256  1.0661  0.4653
 4209SOL     OW22960   2.611   4.586   3.314 -0.0844  0.0926  0.3136
 4209SOL    HW122961   2.578   4.614   3.224  1.2788  0.7663 -0.0025
 4209SOL    HW222962   2.553   4.514   3.351 -0.4181 -0.4646 -1.2791
 4210SOL     OW22963   9.072   2.056   1.085  0.1185 -0.1530  0.3610
 4210SOL    HW122964   9.039   2.005   1.006  0.5333 -0.4891  0.4009
 4210SOL    HW222965   9.092   1.992   1.160 -1.2995  0.2503  1.1157
 4211SOL     OW22966   3.348   8.032   1.254 -0.0834 -0.0435  0.6209
 4211SOL    HW122967   3.340   7.935   1.234 -1.4595  0.0623  0.6649
 4211SOL    HW222968   3.403   8.044   1.337  1.5691 -0.6894 -0.3497
 4212SOL     OW22969   2.387   3.914   0.913  0.4469 -0.1683 -0.1197
 4212SOL    HW122970   2.350   3.854   0.984 -0.8496  0.4969 -0.2195
 4212SOL    HW222971   2.471   3.874   0.876 -0.0629 -1.6062  0.2477
 4213SOL     OW22972   2.217   5.285   2.922 -0.0686 -0.4209  0.0197
 4213SOL    HW122973   2.284   5.335   2.978 -0.4083  0.6562 -0.5184
 4213SOL    HW222974   2.265   5.218   2.865  0.4845 -0.1653  0.1787
 4214SOL     OW22975   1.962   9.382   1.461  0.6402 -0.0149 -0.2769
 4214SOL    HW122976   2.009   9.430   1.387  2.8690 -1.9745 -0.2109
 4214SOL    HW222977   1.924   9.296   1.426 -0.2548  0.1236  0.3571
 4215SOL     OW22978   9.821   7.944   2.574 -0.1567 -0.8280  0.5821
 4215SOL    HW122979   9.818   7.853   2.534  0.1775 -1.1378  1.2465
 4215SOL    HW222980   9.784   7.940   2.668 -0.7196 -0.1644  0.3963
 4216SOL     OW22981   2.638   2.147   1.288 -0.4636 -0.5203 -0.6586
 4216SOL    HW122982   2.561   2.087   1.265 -1.3963  0.0304  0.9389
 4216SOL    HW222983   2.622   2.239   1.252 -1.1425 -0.0886  0.7226
 4217SOL     OW22984   8.083   8.088   0.226  0.2681  0.6758 -0.0663
 4217SOL    HW122985   8.083   8.187   0.242  0.6491  0.6467  0.1272
 4217SOL    HW222986   8.166   8.048   0.266 -0.2197  0.1782  0.4420
 4218SOL     OW22987   4.079   0.302   1.038 -0.7391  0.2098 -0.0978
 4218SOL    HW122988   4.157   0.339   1.089 -0.2392 -1.4273  0.3533
 4218SOL    HW222989   4.037   0.375   0.984  0.4709  1.3347  0.4496
 4219SOL     OW22990   1.948   2.275   3.247  0.4784  0.0041 -0.0882
 4219SOL    HW122991   1.951   2.218   3.329  1.0446 -0.0248 -0.1322
 4219SOL    HW222992   1.931   2.370   3.274 -0.6237 -0.1998 -0.0265
 4220SOL     OW22993   1.220   6.180   1.543 -0.1352 -0.3485  0.1443
 4220SOL    HW122994   1.201   6.273   1.512  0.0941 -0.2536  0.2837
 4220SOL    HW222995   1.289   6.138   1.483 -0.0601 -0.3419  0.2247
 4221SOL     OW22996   2.601   6.018   0.185 -0.0951 -0.0042 -0.7393
 4221SOL    HW122997   2.521   6.016   0.245  0.9409 -0.2853  0.6723
 4221SOL    HW222998   2.648   5.930   0.189  0.8051  0.4675 -0.8229
 4222SOL     OW22999   9.800   4.057   1.358  0.0518 -0.2726 -0.0127
 4222SOL    HW123000   9.834   4.033   1.267  0.7305  1.5479 -0.2503
 4222SOL    HW223001   9.755   3.977   1.398  1.6556 -1.7519 -1.0608
 4223SOL     OW23002   3.759   0.000   0.634 -0.4051  0.0209  0.7903
 4223SOL    HW123003   3.755  -0.098   0.651  1.9954  0.1414  2.3638
 4223SOL    HW223004   3.815   0.043   0.705 -0.2271  2.3246 -0.7138
 4224SOL     OW23005   3.688   8.709   1.086  0.4291 -0.5243 -0.3897
 4224SOL    HW123006   3.655   8.631   1.032 -0.1602  0.3803 -1.3661
 4224SOL    HW223007   3.615   8.740   1.147  0.4393 -0.3259 -0.4791
 4225SOL     OW23008   0.302   9.790   3.257 -0.0687 -0.2372 -0.6618
 4225SOL    HW123009   0.247   9.757   3.334 -0.0581 -1.9241 -1.3421
 4225SOL    HW223010   0.254   9.864   3.211  1.0960  2.6115  2.5069
 4226SOL     OW23011   2.612   8.609   0.367  0.0560 -0.0763  0.4880
 4226SOL    HW123012   2.620   8.589   0.465 -0.5456  0.8015  0.7238
 4226SOL    HW223013   2.517   8.593   0.339  0.4036 -1.0744 -0.1248
 4227SOL     OW23014   9.263   2.687   1.162 -0.5273 -0.5706  0.3914
 4227SOL    HW123015   9.246   2.785   1.152  0.4536 -0.3477  0.8412
 4227SOL    HW223016   9.345   2.672   1.218  1.2451 -1.5900 -2.3708
 4228SOL     OW23017   6.310   8.613   2.503 -0.3233 -0.0398 -0.0102
 4228SOL    HW123018   6.336   8.599   2.599  1.0670  1.2189 -0.1892
 4228SOL    HW223019   6.226   8.562   2.484 -0.7610 -0.0917  1.9406
 4229SOL     OW23020   9.488   7.977   1.255 -0.0025 -0.4952 -0.3525
 4229SOL    HW123021   9.496   8.070   1.217  0.6451 -0.8792 -1.1773
 4229SOL    HW223022   9.564   7.921   1.220 -0.0031 -1.1437  0.6882
 4230SOL     OW23023   4.086   3.179   3.022  0.2882 -0.4605  0.3319
 4230SOL    HW123024   3.997   3.134   3.034  1.0324 -1.1815  3.7592
 4230SOL    HW223025   4.151   3.113   2.984 -0.2266 -0.3914 -0.6865
 4231SOL     OW23026   1.247   9.738   2.348 -0.7939 -0.4393  0.0937
 4231SOL    HW123027   1.240   9.833   2.377 -3.6776 -0.3969 -0.5604
 4231SOL    HW223028   1.280   9.734   2.254 -1.2021 -0.0324 -0.0718
 4232SOL     OW23029   8.642   1.058   1.501  0.5301  0.1560  0.2359
 4232SOL    HW123030   8.586   1.125   1.452 -0.5474 -1.4651 -0.8087
 4232SOL    HW223031   8.688   0.999   1.435  1.8121  0.1350  1.1352
 4233SOL     OW23032   0.217   5.692   2.212 -0.2145  0.2862 -0.1210
 4233SOL    HW123033   0.245   5.778   2.170 -3.1514  0.6709 -1.4197
 4233SOL    HW223034   0.250   5.616   2.156  1.5827  0.5668  0.5274
 4234SOL     OW23035   0.656   0.707   2.246  0.3697  0.0039  0.7767
 4234SOL    HW123036   0.704   0.791   2.273 -0.4415  0.3132  1.3190
 4234SOL    HW223037   0.661   0.641   2.321 -1.4433  0.6664  1.5302
 4235SOL     OW23038   4.239   2.339   1.166  0.5175  0.0691  0.2375
 4235SOL    HW123039   4.209   2.244   1.174  0.8512  0.0568  1.4936
 4235SOL    HW223040   4.225   2.371   1.072  0.0167 -1.0853 -0.0889
 4236SOL     OW23041   3.603   9.270   2.704  0.1059  0.3137  0.4876
 4236SOL    HW123042   3.697   9.254   2.676  0.1062  1.6683 -0.3419
 4236SOL    HW223043   3.593   9.252   2.802  1.3107  0.5103  0.6515
 4237SOL     OW23044   0.450   0.148   3.214  0.4154 -0.1794 -0.2790
 4237SOL    HW123045   0.471   0.052   3.196  1.3201  0.1530 -1.0356
 4237SOL    HW223046   0.377   0.154   3.281  0.9806 -1.3956  0.4620
 4238SOL     OW23047   8.533   8.129   3.035  0.3160 -0.1552  0.3951
 4238SOL    HW123048   8.561   8.033   3.030 -2.3015 -0.9551  0.4451
 4238SOL    HW223049   8.480   8.144   3.119 -0.7643  0.9165 -0.4684
 4239SOL     OW23050   7.572   8.787   1.805 -0.0636  0.0955 -0.0769
 4239SOL    HW123051   7.491   8.804   1.748  0.0212 -1.7437 -0.7701
 4239SOL    HW223052   7.632   8.867   1.801 -0.9468  0.7275 -1.0861
 4240SOL     OW23053   9.613   9.733   1.733 -0.1530  0.2366  0.0218
 4240SOL    HW123054   9.703   9.774   1.746 -0.8876  1.9460 -0.1891
 4240SOL    HW223055   9.594   9.726   1.635  0.3538 -1.5160  0.0236
 4241SOL     OW23056   1.714   0.645   3.205  0.1110  0.0149  0.0070
 4241SOL    HW123057   1.725   0.557   3.251  0.4560 -0.8977 -1.7667
 4241SOL    HW223058   1.662   0.707   3.263 -1.9240 -2.0348  0.4425
 4242SOL     OW23059   1.458   3.916   1.829 -0.5242  0.4988 -0.3999
 4242SOL    HW123060   1.510   3.866   1.898  1.8876  0.4967 -2.1628
 4242SOL    HW223061   1.434   4.006   1.864 -0.6619 -0.0552  0.9727
 4243SOL     OW23062   1.958   5.452   0.322 -0.1658  0.1776 -0.6993
 4243SOL    HW123063   1.878   5.501   0.287  0.2837  1.8517  0.5997
 4243SOL    HW223064   1.928   5.367   0.366 -1.3682  1.5094  1.0630
 4244SOL     OW23065   0.628   1.405   1.472  0.1082  0.1584  0.6848
 4244SOL    HW123066   0.584   1.350   1.543  1.1450 -5.0028 -2.3981
 4244SOL    HW223067   0.558   1.446   1.414 -0.7116 -1.4700  0.5031
 4245SOL     OW23068   3.468   1.298   0.831  0.1022 -0.5889  0.2799
 4245SOL    HW123069   3.489   1.396   0.837  0.3080 -0.7751  3.0297
 4245SOL    HW223070   3.411   1.281   0.751  1.5320  1.5122 -1.2346
 4246SOL     OW23071   0.652   9.753   3.391 -0.1602  0.0853  0.2583
 4246SOL    HW123072   0.741   9.708   3.380 -0.9975 -1.3623 -0.7983
 4246SOL    HW223073   0.630   9.804   3.308 -0.6385 -0.1515  0.2398
 4247SOL     OW23074   9.041   1.090   3.358  0.1568 -0.1530 -0.6973
 4247SOL    HW123075   8.969   1.136   3.307 -0.0645 -0.1408 -0.3777
 4247SOL    HW223076   9.017   0.994   3.371  0.0791 -0.0940 -0.3822
 4248SOL     OW23077   3.669   9.095   1.213  0.0533  0.4635 -0.8503
 4248SOL    HW123078   3.657   9.150   1.131  0.4606 -0.2133 -1.3676
 4248SOL    HW223079   3.752   9.040   1.205  0.6182  1.1194  0.4367
 4249SOL     OW23080   4.729   7.721   1.540  0.1949  0.2659 -0.5635
 4249SOL    HW123081   4.787   7.767   1.608  0.4851  0.3113 -0.8416
 4249SOL    HW223082   4.748   7.759   1.450 -0.1403  0.1546 -0.6795
 4250SOL     OW23083   8.830   0.564   2.904  0.1446  0.5516  0.0354
 4250SOL    HW123084   8.879   0.605   2.981 -0.3964  1.4955 -0.1130
 4250SOL    HW223085   8.827   0.629   2.828 -1.7027  0.6812  0.1925
 4251SOL     OW23086   9.331   3.827   1.343  0.1166 -0.2689  0.1631
 4251SOL    HW123087   9.323   3.826   1.443  0.1686  1.1712  0.2018
 4251SOL    HW223088   9.312   3.920   1.309  0.4665 -0.6555 -1.1302
 4252SOL     OW23089   4.399   7.566   0.588  0.1658 -0.0419  1.1332
 4252SOL    HW123090   4.307   7.541   0.619  0.0594  0.9267  1.6412
 4252SOL    HW223091   4.394   7.603   0.495  0.2602 -1.4338  0.5661
 4253SOL     OW23092   0.963   8.087   2.368 -0.2352  0.3714  0.3595
 4253SOL    HW123093   0.931   8.134   2.451 -1.2936  0.4130 -0.0597
 4253SOL    HW223094   1.055   8.052   2.383  0.0479  1.4209  1.1437
 4254SOL     OW23095   0.972   4.883   1.844  0.1133 -0.5223  0.2289
 4254SOL    HW123096   0.974   4.819   1.767 -0.3452  1.1334 -1.2043
 4254SOL    HW223097   0.915   4.845   1.917 -0.8829 -1.3566 -0.9521
 4255SOL     OW23098   0.918   8.409   0.681  0.3578  0.4244  0.4027
 4255SOL    HW123099   0.853   8.333   0.687 -0.0711  0.8672  1.5782
 4255SOL    HW223100   1.011   8.375   0.692  0.4218 -0.3475 -2.3000
 4256SOL     OW23101   8.304   1.255   0.262 -0.5767  0.2301 -0.7059
 4256SOL    HW123102   8.381   1.275   0.201  0.6250  1.8161  1.2816
 4256SOL    HW223103   8.218   1.275   0.215  0.2577 -0.1016 -2.4265
 4257SOL     OW23104   9.620   8.821   1.561 -0.0047  0.3161  0.0646
 4257SOL    HW123105   9.657   8.851   1.649  2.6815  0.2396 -0.9828
 4257SOL    HW223106   9.559   8.891   1.524 -0.5666  0.6660  1.6199
 4258SOL     OW23107   1.865   1.839   1.608  0.3212  0.1304  0.0618
 4258SOL    HW123108   1.875   1.938   1.623  0.3287 -0.2514  2.8846
 4258SOL    HW223109   1.769   1.817   1.599  0.2582  0.2935  0.3147
 4259SOL     OW23110   9.241   3.906   2.872 -0.1544 -0.1184  0.1895
 4259SOL    HW123111   9.317   3.967   2.850 -2.0912  1.8104 -1.3855
 4259SOL    HW223112   9.155   3.957   2.867 -1.6187 -2.4021  1.2966
 4260SOL     OW23113   1.674   0.458   0.475  0.2006 -0.0453 -0.2222
 4260SOL    HW123114   1.720   0.512   0.546 -1.3017  1.6883 -0.5345
 4260SOL    HW223115   1.650   0.368   0.512 -0.1159  0.6634  1.3220
 4261SOL     OW23116   0.104   3.389   3.310 -0.1427 -0.1382  0.0041
 4261SOL    HW123117   0.071   3.324   3.378  0.7184  0.0524  0.6101
 4261SOL    HW223118   0.152   3.464   3.355 -0.1332  0.3269 -0.7642
 4262SOL     OW23119   4.513   0.319   2.242  0.7918 -0.4767 -0.5578
 4262SOL    HW123120   4.448   0.325   2.166 -0.5108 -0.7912  0.5187
 4262SOL    HW223121   4.565   0.404   2.247 -1.2215  0.7560  0.0463
 4263SOL     OW23122   9.808   0.192   2.517 -0.6634  0.5100  0.2341
 4263SOL    HW123123   9.900   0.177   2.480 -0.6091  0.2057  0.4869
 4263SOL    HW223124   9.740   0.153   2.453 -0.4907 -1.4174  1.1742
 4264SOL     OW23125   3.322   2.144   0.473 -0.5457  0.4161 -0.1111
 4264SOL    HW123126   3.332   2.185   0.382 -1.3898 -0.8471 -0.8010
 4264SOL    HW223127   3.324   2.044   0.465 -2.2038  0.2567  1.0344
 4265SOL     OW23128   2.349   5.380   0.850 -0.3051  0.1769 -0.6143
 4265SOL    HW123129   2.437   5.409   0.889 -1.9027  0.8114  2.6789
 4265SOL    HW223130   2.306   5.456   0.802 -0.8984  1.0936  1.3119
 4266SOL     OW23131   1.988   8.691   0.612 -0.3165 -0.7650  0.6412
 4266SOL    HW123132   1.952   8.602   0.585 -1.2467 -0.4215  0.6965
 4266SOL    HW223133   2.042   8.730   0.537 -0.2857 -1.1772  0.4523
 4267SOL     OW23134   3.004   3.887   1.486 -0.1315  0.7936  0.1819
 4267SOL    HW123135   2.966   3.923   1.401  1.2076  0.7568 -0.4332
 4267SOL    HW223136   3.091   3.842   1.468 -0.3991 -0.2557  1.3906
 4268SOL     OW23137   8.143   1.513   1.779 -0.2584  0.4451  0.5930
 4268SOL    HW123138   8.212   1.444   1.800 -1.8244 -1.0026  1.0549
 4268SOL    HW223139   8.099   1.543   1.863 -1.7125 -0.2361  0.0777
 4269SOL     OW23140   0.680   2.464   1.155 -1.0592  0.4161 -0.2082
 4269SOL    HW123141   0.675   2.475   1.255 -2.7906  0.5148 -0.2919
 4269SOL    HW223142   0.641   2.376   1.129  2.5926 -1.2096 -0.5316
 4270SOL     OW23143   4.579   9.694   1.992  0.3974  0.0402 -0.2151
 4270SOL    HW123144   4.592   9.597   2.013 -0.1052  0.3266  1.4765
 4270SOL    HW223145   4.646   9.748   2.044  0.0662  0.6607 -0.4351
 4271SOL     OW23146   9.830   1.362   0.834  0.0453 -0.0459  0.2102
 4271SOL    HW123147   9.917   1.372   0.786  0.3636 -0.0115  0.7797
 4271SOL    HW223148   9.767   1.434   0.806  0.6721  0.7349  0.7833
 4272SOL     OW23149   8.487   2.887   1.521 -0.3102 -0.2579  0.7514
 4272SOL    HW123150   8.563   2.860   1.463  0.6962  1.1962  1.3530
 4272SOL    HW223151   8.416   2.817   1.519  0.3723 -0.9147 -1.0210
 4273SOL     OW23152   7.907   0.567   2.782  0.2143  0.3706 -0.3578
 4273SOL    HW123153   7.876   0.583   2.688  0.3650 -0.9775 -0.6479
 4273SOL    HW223154   7.989   0.509   2.780  0.1614  0.2569  0.6132
 4274SOL     OW23155   1.453   8.644   0.384  0.1040  0.1614 -0.0003
 4274SOL    HW123156   1.526   8.579   0.404 -0.2805 -0.9037 -1.9542
 4274SOL    HW223157   1.458   8.720   0.449  2.8754  0.0550 -0.0160
 4275SOL     OW23158   4.499   8.862   3.328 -0.1025 -0.0346  0.0213
 4275SOL    HW123159   4.433   8.789   3.345 -0.2332 -0.1683 -1.0416
 4275SOL    HW223160   4.514   8.913   3.413 -3.4658  1.5783 -0.2549
 4276SOL     OW23161   0.050   7.409   0.920  0.1834 -0.9136  0.0338
 4276SOL    HW123162  -0.035   7.411   0.972 -1.0735 -2.4985 -1.9019
 4276SOL    HW223163   0.115   7.474   0.960 -1.9019  0.2997  1.5475
 4277SOL     OW23164   3.126   9.860   3.340  0.6978 -0.4945 -0.0788
 4277SOL    HW123165   3.142   9.881   3.437  2.1284 -1.6448 -0.0424
 4277SOL    HW223166   3.086   9.939   3.295 -1.3669 -0.4216  1.7837
 4278SOL     OW23167   5.440   0.020   2.971  0.0869  0.2096 -0.1054
 4278SOL    HW123168   5.407  -0.064   3.014  2.7080 -0.4575  0.6792
 4278SOL    HW223169   5.423   0.097   3.032  0.2662 -0.1761  0.4391
 4279SOL     OW23170   4.044   1.860   2.008  0.1276 -0.2658  0.1493
 4279SOL    HW123171   3.964   1.834   1.953  1.6074 -0.4245 -1.9831
 4279SOL    HW223172   4.097   1.778   2.030  0.9955  0.1054 -0.5210
 4280SOL     OW23173   1.446   5.001   0.918 -0.6884  0.0384  0.1508
 4280SOL    HW123174   1.407   4.919   0.875 -1.4105  0.5104 -0.1090
 4280SOL    HW223175   1.422   5.001   1.015 -1.4630  0.3953 -0.0363
 4281SOL     OW23176   7.230   0.477   0.054  0.3320  0.5268 -0.1936
 4281SOL    HW123177   7.286   0.396   0.075  0.6620  0.5941 -0.8226
 4281SOL    HW223178   7.136   0.460   0.083  0.5030  0.0966  0.1147
 4282SOL     OW23179   3.695   4.173   1.998 -0.0391  0.0399 -0.9055
 4282SOL    HW123180   3.726   4.103   1.932  0.8983 -0.5680  0.1509
 4282SOL    HW223181   3.699   4.135   2.091  0.5779  1.5347 -0.3086
 4283SOL     OW23182   8.594   1.960   0.268  0.0129 -0.1506  0.6440
 4283SOL    HW123183   8.641   1.998   0.348 -1.0999 -1.4592  1.9670
 4283SOL    HW223184   8.573   2.033   0.204  1.2824  0.8759  1.3635
 4284SOL     OW23185   1.965   4.362   3.228  0.4015  0.1167  0.5599
 4284SOL    HW123186   1.985   4.297   3.301 -1.3744 -0.5536  0.4920
 4284SOL    HW223187   2.050   4.397   3.190  1.3645 -0.7703  1.8387
 4285SOL     OW23188   1.810   8.249   1.751 -0.2122  0.1306  0.2505
 4285SOL    HW123189   1.847   8.169   1.799 -1.6110 -0.1723  0.8529
 4285SOL    HW223190   1.792   8.224   1.655  0.8454  0.1929  0.0322
 4286SOL     OW23191   0.017   9.431   3.224  0.2789  0.0362 -0.8011
 4286SOL    HW123192   0.117   9.437   3.215  0.3736  0.5027  0.4207
 4286SOL    HW223193  -0.010   9.335   3.230  0.7580 -0.0587 -0.1084
 4287SOL     OW23194   0.389   2.655   2.126  0.6912 -0.6035 -0.0820
 4287SOL    HW123195   0.455   2.720   2.086 -0.3359 -0.6882 -1.9494
 4287SOL    HW223196   0.393   2.662   2.226  2.2599  0.6642 -0.1989
 4288SOL     OW23197   0.446   2.955   1.973  0.2572 -0.3986 -0.5897
 4288SOL    HW123198   0.372   3.001   2.021  1.6260  0.0791  1.1436
 4288SOL    HW223199   0.448   2.984   1.878 -2.1615 -0.9200 -0.8364
 4289SOL     OW23200   7.952   2.608   0.161 -0.5773  0.6802 -0.2097
 4289SOL    HW123201   8.027   2.546   0.136 -0.3565  1.3736 -1.2918
 4289SOL    HW223202   7.865   2.567   0.133 -0.3768  1.1719 -1.6046
 4290SOL     OW23203   4.985   8.035   2.570 -0.1121  0.3179 -0.5213
 4290SOL    HW123204   4.984   8.090   2.486 -0.9573  1.1607  0.0257
 4290SOL    HW223205   4.912   8.066   2.631  1.0602  0.3303  0.9146
 4291SOL     OW23206   9.755   8.228   0.844  0.3609  0.2641  0.1604
 4291SOL    HW123207   9.803   8.223   0.756 -0.2023  0.8881 -0.1867
 4291SOL    HW223208   9.798   8.298   0.901  1.2367 -0.7102  0.6958
 4292SOL     OW23209   2.866   4.561   0.903 -0.2637  0.1558 -0.7479
 4292SOL    HW123210   2.942   4.547   0.966 -1.6976 -1.7121  0.6151
 4292SOL    HW223211   2.833   4.473   0.869 -1.3741  0.9726 -1.8736
 4293SOL     OW23212   1.210   7.204   1.560  0.3156  0.3963 -0.0337
 4293SOL    HW123213   1.226   7.270   1.633 -0.4095 -0.3676  0.8322
 4293SOL    HW223214   1.129   7.231   1.508  0.2166  0.3622  0.1043
 4294SOL     OW23215   1.878   9.361   0.166  0.7346  0.1041  0.2088
 4294SOL    HW123216   1.824   9.391   0.245 -0.6791 -1.1208 -0.2786
 4294SOL    HW223217   1.930   9.280   0.191 -0.4276 -0.8361 -0.3746
 4295SOL     OW23218   1.761   0.384   3.404  0.0096 -0.0790  0.4552
 4295SOL    HW123219   1.760   0.451   3.478  0.1390  0.2932  0.1263
 4295SOL    HW223220   1.846   0.332   3.408  0.5960  0.8119 -0.1907
 4296SOL     OW23221   1.899   3.390   0.384  0.0291  0.4638 -0.1062
 4296SOL    HW123222   1.915   3.455   0.458 -2.3513  0.0521  0.8389
 4296SOL    HW223223   1.942   3.303   0.406  0.9423  0.9138 -0.1036
 4297SOL     OW23224   0.414   0.645   1.367 -0.0249 -0.7254  0.0765
 4297SOL    HW123225   0.392   0.619   1.461 -0.7135  1.1094  0.4396
 4297SOL    HW223226   0.332   0.682   1.322  0.5661 -0.5774 -0.8972
 4298SOL     OW23227   1.132   0.892   3.352 -0.2174 -0.3089 -0.2115
 4298SOL    HW123228   1.120   0.902   3.450  2.1080 -2.2442  0.3106
 4298SOL    HW223229   1.218   0.934   3.324  0.2175 -1.7379 -1.0529
 4299SOL     OW23230   2.990   2.445   1.581 -0.1726 -0.4844 -0.2064
 4299SOL    HW123231   3.058   2.395   1.636  2.0716 -0.6880 -3.0448
 4299SOL    HW223232   2.948   2.382   1.516  0.0761  0.5754 -1.3964
 4300SOL     OW23233   9.166   7.740   2.580  0.4566  0.2359 -0.5611
 4300SOL    HW123234   9.120   7.808   2.638 -1.7195 -2.5619  1.1188
 4300SOL    HW223235   9.102   7.707   2.510  0.8211 -1.5982 -0.0465
 4301SOL     OW23236   8.716   0.253   1.569 -0.5830 -0.1815 -0.2987
 4301SOL    HW123237   8.787   0.184   1.557 -0.0069  0.0416  1.6037
 4301SOL    HW223238   8.738   0.310   1.648 -0.9219  2.3379 -1.9327
 4302SOL     OW23239   4.047   4.353   0.042  0.1703  0.2461 -0.5810
 4302SOL    HW123240   4.010   4.306  -0.038 -0.3610 -0.0328 -0.1675
 4302SOL    HW223241   4.031   4.452   0.033 -0.1494  0.1862 -0.6827
 4303SOL     OW23242   2.717   3.938   2.152 -0.2268 -0.5664  0.0740
 4303SOL    HW123243   2.667   3.953   2.067 -0.4072 -1.4323  0.0235
 4303SOL    HW223244   2.732   4.025   2.198 -0.6093 -0.1581 -0.5745
 4304SOL     OW23245   1.538   4.890   3.379 -0.3869 -0.0459 -0.4111
 4304SOL    HW123246   1.511   4.826   3.451 -2.1832  2.4196  1.1900
 4304SOL    HW223247   1.627   4.929   3.400 -0.8767  0.6156  0.4528
 4305SOL     OW23248   9.201   2.755   3.201 -0.2797 -0.3006 -0.4023
 4305SOL    HW123249   9.207   2.847   3.242  0.1053 -0.1835 -0.7202
 4305SOL    HW223250   9.112   2.716   3.222 -1.2821  1.0066 -2.0663
 4306SOL     OW23251   0.995   4.322   0.608 -0.1461  0.2860 -0.4065
 4306SOL    HW123252   0.971   4.412   0.571  1.9518  0.5600 -1.1726
 4306SOL    HW223253   0.949   4.309   0.696 -0.8619  1.9049 -0.5181
 4307SOL     OW23254   7.766   1.336   0.123 -0.2034  0.3136 -0.4598
 4307SOL    HW123255   7.712   1.279   0.184 -0.7145 -1.4205 -2.4593
 4307SOL    HW223256   7.739   1.431   0.133 -2.5735 -0.3482 -0.3506
 4308SOL     OW23257   0.675   7.097   0.130 -0.0020 -0.4282 -0.1265
 4308SOL    HW123258   0.761   7.072   0.086  1.3407  0.7443  1.7814
 4308SOL    HW223259   0.677   7.070   0.226 -1.5125  0.2046  0.0996
 4309SOL     OW23260   3.938   8.402   3.264  0.0536  0.4378  0.9984
 4309SOL    HW123261   3.944   8.494   3.224  2.0376 -0.9480 -2.0842
 4309SOL    HW223262   3.880   8.344   3.206  3.2733 -1.7152 -0.1930
 4310SOL     OW23263   3.480   6.097   0.516 -0.9431  0.6080 -0.2375
 4310SOL    HW123264   3.506   6.115   0.421  1.7759  2.6083  0.8013
 4310SOL    HW223265   3.428   6.175   0.551 -0.0756  0.8430  0.5430
 4311SOL     OW23266   1.262   1.915   3.245 -0.0383  0.2445  0.5608
 4311SOL    HW123267   1.206   1.986   3.288 -0.9612  0.8618 -1.5971
 4311SOL    HW223268   1.204   1.839   3.217  0.4200  0.2416 -0.3834
 4312SOL     OW23269   8.856   3.763   1.438 -0.1489  0.1442  1.2258
 4312SOL    HW123270   8.941   3.797   1.477 -2.0645  3.5915  2.6213
 4312SOL    HW223271   8.787   3.835   1.440 -3.4604 -2.8555  1.2262
 4313SOL     OW23272   1.761   6.294   2.229 -0.0347  0.6382  0.2352
 4313SOL    HW123273   1.691   6.303   2.157  1.2075  2.7748 -0.7641
 4313SOL    HW223274   1.726   6.331   2.315 -1.6949 -2.3361  0.8895
 4314SOL     OW23275   1.935   8.426   2.494  0.4091  0.3589 -0.3100
 4314SOL    HW123276   1.892   8.510   2.460 -0.5804 -0.3765 -0.9031
 4314SOL    HW223277   2.022   8.413   2.448  0.7539  1.2649  0.0698
 4315SOL     OW23278   2.501   4.711   3.056 -0.2319 -0.4497  0.6176
 4315SOL    HW123279   2.590   4.705   3.010 -0.2942 -0.4723  0.4973
 4315SOL    HW223280   2.428   4.706   2.987 -0.3107  0.4474  0.6416
 4316SOL     OW23281   3.044   6.379   1.541  0.2895 -0.2171  0.0433
 4316SOL    HW123282   3.144   6.388   1.546  0.1629  0.9217  0.7058
 4316SOL    HW223283   3.011   6.422   1.457  0.2200  0.6373  0.5089
 4317SOL     OW23284   1.535   6.037   1.953  0.0182  0.5727 -0.0735
 4317SOL    HW123285   1.486   6.006   2.034  1.0692  0.3086  0.4637
 4317SOL    HW223286   1.499   5.990   1.872  0.3789 -0.7321  0.5109
 4318SOL     OW23287   4.297   0.578   3.100 -0.3428  0.0686 -0.7624
 4318SOL    HW123288   4.250   0.517   3.164  0.8765 -2.5461 -2.2526
 4318SOL    HW223289   4.233   0.644   3.062 -1.8183 -0.6205  0.4888
 4319SOL     OW23290   2.466   3.328   2.711  0.0052 -0.1234  0.3007
 4319SOL    HW123291   2.389   3.391   2.703 -1.2617 -1.6195  0.5143
 4319SOL    HW223292   2.514   3.322   2.624  0.1175  1.0991  0.2706
 4320SOL     OW23293   0.299   5.261   1.366 -0.0940 -0.3992 -0.4150
 4320SOL    HW123294   0.357   5.198   1.418  0.8868  0.7124 -0.1325
 4320SOL    HW223295   0.214   5.278   1.417  0.1215 -0.6377  0.0232
 4321SOL     OW23296   2.707   8.889   1.990 -0.0905  0.1241 -0.0332
 4321SOL    HW123297   2.657   8.806   1.966 -0.7501  0.0364  1.5812
 4321SOL    HW223298   2.650   8.969   1.971 -1.1680 -0.0002  2.3980
 4322SOL     OW23299   9.870   7.424   0.267 -0.3094  0.4376  1.0660
 4322SOL    HW123300   9.855   7.471   0.354 -0.9253  1.5739  0.3699
 4322SOL    HW223301   9.819   7.472   0.195  1.1017  0.1918 -0.1213
 4323SOL     OW23302   1.755   5.612   0.225  0.2511 -0.0971  0.0595
 4323SOL    HW123303   1.792   5.700   0.252  0.3573 -0.2264  0.3411
 4323SOL    HW223304   1.664   5.624   0.184 -0.1374  0.0512  0.9476
 4324SOL     OW23305   8.201   0.036   0.377 -0.3751  0.7136 -0.1460
 4324SOL    HW123306   8.121  -0.011   0.340  0.1167 -0.1675 -0.0868
 4324SOL    HW223307   8.206   0.128   0.339 -2.4746  1.4499  1.2571
 4325SOL     OW23308   3.896   0.662   2.868  0.1236  0.0804 -0.2473
 4325SOL    HW123309   3.819   0.606   2.899 -0.5008  0.4276 -1.1554
 4325SOL    HW223310   3.961   0.673   2.943 -0.9532  0.1962  0.6873
 4326SOL     OW23311   2.527   7.222   1.961 -0.2820  0.0662 -0.5873
 4326SOL    HW123312   2.465   7.191   2.032  0.1960  0.3375 -0.0484
 4326SOL    HW223313   2.477   7.232   1.875 -0.8664 -0.2279 -0.2835
 4327SOL     OW23314   3.218   6.959   2.973  0.0532  0.3695  0.6449
 4327SOL    HW123315   3.181   6.875   3.013  0.5180 -1.1804 -2.0759
 4327SOL    HW223316   3.147   7.028   2.969 -0.7808 -0.4268  1.3972
 4328SOL     OW23317   5.135   8.122   2.307  0.0859 -0.0065  0.3072
 4328SOL    HW123318   5.215   8.067   2.331  1.4469  1.3090 -1.1158
 4328SOL    HW223319   5.121   8.120   2.208 -0.7050  1.0591  0.3862
 4329SOL     OW23320   4.897   3.879   0.656  0.2501 -0.1738 -0.3484
 4329SOL    HW123321   4.824   3.937   0.693  2.3164  2.4702 -0.2161
 4329SOL    HW223322   4.934   3.820   0.727  0.9542  1.4210  0.6323
 4330SOL     OW23323   1.212   4.241   0.088  0.4152 -0.1653  0.2431
 4330SOL    HW123324   1.262   4.305   0.030 -0.2301  0.7385  0.6518
 4330SOL    HW223325   1.117   4.273   0.098  0.0522 -1.2468  0.3698
 4331SOL     OW23326   4.465   9.362   1.254 -0.0608 -0.5124  0.5878
 4331SOL    HW123327   4.427   9.271   1.242  0.4335 -0.4979 -1.2930
 4331SOL    HW223328   4.504   9.370   1.346  0.3976 -2.3883  0.5757
 4332SOL     OW23329   3.073   0.858   0.201 -0.5886 -0.1993  0.0728
 4332SOL    HW123330   3.060   0.815   0.111  0.5629 -0.6161  0.0997
 4332SOL    HW223331   3.059   0.790   0.273  1.8632 -0.7128  0.0974
 4333SOL     OW23332   2.672   5.965   2.802  0.0115  0.7071 -0.2532
 4333SOL    HW123333   2.647   5.953   2.898 -0.2487  0.3871 -0.3570
 4333SOL    HW223334   2.692   6.061   2.784  0.4390  0.7031  0.2121
 4334SOL     OW23335   3.014   1.911   2.606  0.3130  0.0421  0.4817
 4334SOL    HW123336   2.946   1.843   2.637  0.1254 -0.7926 -1.6954
 4334SOL    HW223337   3.056   1.880   2.521  1.7761  1.6706  0.5824
 4335SOL     OW23338   7.321   9.726   0.084 -0.0997 -0.0862  0.1479
 4335SOL    HW123339   7.290   9.633   0.062 -1.5492  0.2213  0.8038
 4335SOL    HW223340   7.389   9.722   0.157  0.3261 -0.6752 -0.2742
 4336SOL     OW23341   0.178   7.804   1.654  0.2987  0.1144  0.1406
 4336SOL    HW123342   0.265   7.758   1.635  0.5194  0.2533  0.7899
 4336SOL    HW223343   0.181   7.844   1.746  0.4979  2.2694 -0.7660
 4337SOL     OW23344   1.280   2.426   0.718  0.8957  0.2796 -0.0203
 4337SOL    HW123345   1.212   2.494   0.743  0.3652  0.0174 -0.7291
 4337SOL    HW223346   1.267   2.400   0.622  0.5977 -1.3949  0.4610
 4338SOL     OW23347   3.074   4.199   2.905  0.1217 -0.1019  0.3133
 4338SOL    HW123348   3.061   4.104   2.931  0.1588 -1.0942 -3.0495
 4338SOL    HW223349   3.158   4.208   2.852 -1.4113  1.2144 -1.9877
 4339SOL     OW23350   1.397   0.777   1.110  0.5983  0.0184  0.4886
 4339SOL    HW123351   1.483   0.825   1.127  1.1600 -0.5733 -0.6629
 4339SOL    HW223352   1.331   0.840   1.069  0.6369  0.3396  0.9120
 4340SOL     OW23353   0.569   2.635   0.579 -0.1080  0.3172 -0.2687
 4340SOL    HW123354   0.667   2.646   0.566 -0.0879 -1.4679 -1.8683
 4340SOL    HW223355   0.528   2.723   0.604  2.0416  0.8319  1.5628
 4341SOL     OW23356   0.088   7.147   0.912 -0.5843  0.3121  0.0328
 4341SOL    HW123357   0.103   7.245   0.906  1.9624  0.0919  1.7421
 4341SOL    HW223358   0.166   7.104   0.960 -1.3808 -2.5862 -1.1338
 4342SOL     OW23359   0.208   3.315   1.640 -0.2577  0.2250  0.5049
 4342SOL    HW123360   0.221   3.217   1.656  0.4149  0.2252 -0.0088
 4342SOL    HW223361   0.182   3.329   1.544  0.6459  0.6315  0.3181
 4343SOL     OW23362   0.168   9.495   1.180 -0.1538 -0.2345  0.2898
 4343SOL    HW123363   0.213   9.581   1.202  0.4909 -0.7764  1.1551
 4343SOL    HW223364   0.220   9.448   1.108  0.5498 -0.7414  1.1116
 4344SOL     OW23365   7.972   9.899   0.696 -0.2480 -0.1947 -0.4125
 4344SOL    HW123366   7.982   9.965   0.770 -0.2368  0.1695 -0.7382
 4344SOL    HW223367   7.909   9.827   0.724  1.0089 -0.9255  0.5543
 4345SOL     OW23368   2.370   9.313   3.123  0.0444 -0.7208  0.4792
 4345SOL    HW123369   2.338   9.218   3.130 -1.4486 -0.2358  0.3839
 4345SOL    HW223370   2.387   9.335   3.027 -1.4274 -0.3044  0.3166
 4346SOL     OW23371   4.833   9.492   3.032 -0.1487 -0.3334 -0.1298
 4346SOL    HW123372   4.799   9.510   3.124  0.7702  0.3706  0.0855
 4346SOL    HW223373   4.778   9.421   2.988 -1.5181  0.3955  0.4066
 4347SOL     OW23374   9.669   4.207   2.630 -0.2002  0.5122  0.5800
 4347SOL    HW123375   9.766   4.205   2.657 -0.0003 -0.8262 -0.1896
 4347SOL    HW223376   9.649   4.128   2.572 -2.2414 -0.3441  2.3841
 4348SOL     OW23377   1.220   0.432   0.107 -0.5753 -0.4461 -0.0763
 4348SOL    HW123378   1.290   0.455   0.175 -0.4523 -0.2139 -0.2832
 4348SOL    HW223379   1.149   0.503   0.108  0.2866  0.4678 -1.3896
 4349SOL     OW23380   8.825   0.857   3.385 -0.2399  0.1366 -0.1508
 4349SOL    HW123381   8.784   0.840   3.475 -1.6924  1.0010 -0.6392
 4349SOL    HW223382   8.753   0.867   3.317  0.8736 -1.2726 -1.5646
 4350SOL     OW23383   1.102   4.843   0.790  0.2305  0.2802  0.3714
 4350SOL    HW123384   1.052   4.849   0.876  0.0219  0.2673  0.2504
 4350SOL    HW223385   1.182   4.783   0.802 -0.9869 -1.4650 -0.0142
 4351SOL     OW23386   5.829   8.678   2.738  0.2825 -0.2293  0.0798
 4351SOL    HW123387   5.811   8.581   2.753 -1.8241 -0.1170 -1.5052
 4351SOL    HW223388   5.882   8.689   2.654  1.4592 -0.0810  0.8445
 4352SOL     OW23389   2.098   9.921   0.404 -0.4240  0.8008  0.1244
 4352SOL    HW123390   2.019   9.863   0.385 -1.3656  1.0018  3.1611
 4352SOL    HW223391   2.076   9.985   0.477  1.6190  2.9037 -1.0306
 4353SOL     OW23392   2.183   3.408   0.605  0.3859  0.3692  0.1690
 4353SOL    HW123393   2.141   3.499   0.608  1.6688  0.9906 -0.5934
 4353SOL    HW223394   2.192   3.373   0.698 -1.7274  0.2606  0.3636
 4354SOL     OW23395   9.069   1.387   1.628  0.4735 -0.0924  0.0776
 4354SOL    HW123396   9.009   1.320   1.672  0.5171 -0.4473 -0.4019
 4354SOL    HW223397   9.119   1.438   1.698 -2.7377  2.4310  0.6701
 4355SOL     OW23398   0.436   8.994   1.907  0.2954 -0.0568 -0.3485
 4355SOL    HW123399   0.420   8.899   1.883  1.4803 -0.4802  0.5026
 4355SOL    HW223400   0.510   9.000   1.973 -1.4612  1.2379  1.5928
 4356SOL     OW23401   9.715   1.029   0.119 -0.4941 -0.3315 -0.4907
 4356SOL    HW123402   9.737   1.092   0.044  1.8442 -0.3166  0.1420
 4356SOL    HW223403   9.787   0.960   0.126  1.2972  1.7105  3.8704
 4357SOL     OW23404   5.456   8.237   2.469  0.2291  0.1626 -0.2816
 4357SOL    HW123405   5.420   8.152   2.507 -0.2580  1.5702  2.5455
 4357SOL    HW223406   5.381   8.292   2.432  0.1938  0.5409  0.3441
 4358SOL     OW23407   0.533   6.718   0.809 -0.0126 -0.2022  0.2523
 4358SOL    HW123408   0.566   6.748   0.899  0.4396  3.6537 -1.0947
 4358SOL    HW223409   0.609   6.714   0.745 -0.8041  0.1235 -0.7191
 4359SOL     OW23410   7.397   9.742   2.294 -0.4703 -0.1045 -0.2772
 4359SOL    HW123411   7.495   9.758   2.302 -0.6183  0.5909  0.0993
 4359SOL    HW223412   7.379   9.689   2.211  0.1242  0.6010 -0.8604
 4360SOL     OW23413   2.574   9.470   0.564  0.2902  0.4557 -0.2293
 4360SOL    HW123414   2.508   9.528   0.517 -1.2092 -0.8911  0.1834
 4360SOL    HW223415   2.606   9.399   0.502  0.8459  0.6884 -0.2156
 4361SOL     OW23416   3.048   6.022   0.680 -0.1301 -0.1202 -0.6620
 4361SOL    HW123417   3.111   6.082   0.730 -1.2948  2.3299 -2.0340
 4361SOL    HW223418   3.099   5.954   0.629  1.2794  0.3822  0.0624
 4362SOL     OW23419   3.520   3.989   1.453  0.3740 -0.9621  0.0412
 4362SOL    HW123420   3.547   3.893   1.452  1.4594 -0.6708 -2.0522
 4362SOL    HW223421   3.592   4.044   1.495  1.1514 -0.7214 -1.5521
 4363SOL     OW23422   1.144   9.441   3.224 -0.1409  0.4047 -0.2190
 4363SOL    HW123423   1.061   9.394   3.196  1.0413 -1.4503 -0.6994
 4363SOL    HW223424   1.128   9.490   3.310 -1.9563  0.8059 -0.7700
 4364SOL     OW23425   3.023   2.387   3.432  0.9811  0.0611 -0.1234
 4364SOL    HW123426   3.047   2.320   3.362  0.3232  1.9136 -2.1545
 4364SOL    HW223427   2.953   2.449   3.397  0.4013  0.8362  2.2914
 4365SOL     OW23428   9.861   9.920   1.726 -0.3911  0.3297 -0.2975
 4365SOL    HW123429   9.905   9.874   1.649 -1.2792 -0.8136 -0.1369
 4365SOL    HW223430   9.876   9.867   1.810  1.7989  2.2938  0.6318
 4366SOL     OW23431   9.161   0.820   3.043  0.3912 -0.2179  0.0961
 4366SOL    HW123432   9.241   0.781   2.998  0.9421  1.7095 -0.6304
 4366SOL    HW223433   9.185   0.909   3.083 -1.2995  0.2137  0.1712
 4367SOL     OW23434   0.565   0.339   1.422  0.3802  0.1023  0.0588
 4367SOL    HW123435   0.651   0.383   1.398 -1.4714  3.0976 -1.4162
 4367SOL    HW223436   0.543   0.269   1.355  0.8876  0.4113 -0.4302
 4368SOL     OW23437   2.933   6.324   2.700  0.3532 -0.4707 -0.0388
 4368SOL    HW123438   2.836   6.305   2.716 -0.0001  1.9016  0.8724
 4368SOL    HW223439   2.942   6.399   2.634  1.5416 -0.4822  0.0946
 4369SOL     OW23440   1.487   2.190   1.882 -0.3024 -0.7956 -0.2804
 4369SOL    HW123441   1.503   2.092   1.892  0.4644 -0.7468 -0.9672
 4369SOL    HW223442   1.479   2.232   1.972  0.3234 -1.3350  0.0323
 4370SOL     OW23443   0.637   9.122   0.390 -0.1961 -0.1596 -0.0801
 4370SOL    HW123444   0.577   9.067   0.447  0.5924 -1.7272 -0.7460
 4370SOL    HW223445   0.594   9.211   0.374 -1.4338 -0.5225  1.0884
 4371SOL     OW23446   1.995   4.733   3.357 -0.2946  0.1261 -0.2645
 4371SOL    HW123447   1.956   4.642   3.374  0.1780 -0.3897 -1.8285
 4371SOL    HW223448   2.004   4.747   3.259  2.7860  0.5204  0.0281
 4372SOL     OW23449   7.028   8.355   2.229 -0.2343  0.1872  0.7295
 4372SOL    HW123450   6.928   8.361   2.235 -0.2401 -0.3055  1.1780
 4372SOL    HW223451   7.067   8.447   2.228 -0.8187  0.4306 -1.9023
 4373SOL     OW23452   9.788   4.721   3.207 -0.5227 -0.2710  0.3631
 4373SOL    HW123453   9.778   4.820   3.195  0.5055 -0.3583 -1.2859
 4373SOL    HW223454   9.855   4.702   3.279  1.2878  0.2384 -1.1529
 4374SOL     OW23455   7.668   0.210   1.277 -0.3748  0.3098  0.1932
 4374SOL    HW123456   7.744   0.274   1.269  0.3666 -0.8096 -2.3304
 4374SOL    HW223457   7.690   0.142   1.348  0.6302  0.4705  0.0507
 4375SOL     OW23458   8.730   4.701   0.508  0.0510 -0.4013  0.4280
 4375SOL    HW123459   8.687   4.792   0.506  0.5952 -0.0850  1.8697
 4375SOL    HW223460   8.808   4.699   0.445 -0.9397 -0.3942 -0.8176
 4376SOL     OW23461   1.733   3.303   3.045 -0.6077 -0.2627  0.1503
 4376SOL    HW123462   1.752   3.245   3.124 -0.5298 -0.6178 -0.1279
 4376SOL    HW223463   1.758   3.255   2.961  1.5202  1.0147  0.0268
 4377SOL     OW23464   1.361   3.016   0.907  0.1080  0.3766 -0.7574
 4377SOL    HW123465   1.363   3.116   0.902 -1.4637  0.4180 -0.6836
 4377SOL    HW223466   1.446   2.983   0.948  0.9189  1.6384 -1.3915
 4378SOL     OW23467   0.308   4.334   1.885 -0.0465 -0.2362 -0.3897
 4378SOL    HW123468   0.279   4.292   1.799  1.8480  0.2515 -1.3158
 4378SOL    HW223469   0.381   4.280   1.926 -0.3313  0.0101  0.4615
 4379SOL     OW23470   4.009   7.526   3.146 -0.8335  0.2597 -0.0840
 4379SOL    HW123471   4.054   7.512   3.058 -0.0435  0.0084  0.3506
 4379SOL    HW223472   4.017   7.622   3.172 -2.3834  0.6395 -0.9913
 4380SOL     OW23473   9.207   5.296   0.082  0.0478  0.4803  0.1544
 4380SOL    HW123474   9.188   5.278   0.178  0.1070  0.6557  0.1996
 4380SOL    HW223475   9.279   5.235   0.050  0.4111  0.7921  0.3698
 4381SOL     OW23476   5.720   8.200   2.643  0.1359 -0.2185  0.1037
 4381SOL    HW123477   5.761   8.109   2.635  0.8640  0.0591  0.5670
 4381SOL    HW223478   5.711   8.240   2.552  0.8408 -0.3186 -0.0188
 4382SOL     OW23479   0.466   5.109   0.917 -0.1109 -0.0128  0.5152
 4382SOL    HW123480   0.480   5.193   0.864 -0.3422 -0.0962  0.3193
 4382SOL    HW223481   0.377   5.113   0.962 -1.0067 -1.0098 -1.1134
 4383SOL     OW23482   1.357   7.231   0.051  0.2268 -0.1373 -0.4097
 4383SOL    HW123483   1.280   7.244   0.113 -0.2428  1.0234 -1.2150
 4383SOL    HW223484   1.338   7.156  -0.012  0.2435 -0.6058  0.1450
 4384SOL     OW23485   2.325   8.808   1.086 -0.7189  0.2171  0.1244
 4384SOL    HW123486   2.283   8.792   1.176 -1.8440  0.2165 -0.3932
 4384SOL    HW223487   2.293   8.896   1.050 -1.3993 -0.4452 -0.9088
 4385SOL     OW23488   2.854   0.626   2.972 -0.0673  0.1554 -0.7309
 4385SOL    HW123489   2.765   0.666   2.993 -1.5278 -2.0427 -2.5815
 4385SOL    HW223490   2.883   0.655   2.881  0.8962  0.4352 -0.3489
 4386SOL     OW23491   0.535   0.241   1.995 -0.2495  0.6998 -0.3494
 4386SOL    HW123492   0.467   0.314   2.008 -1.4986 -0.6314  0.7319
 4386SOL    HW223493   0.488   0.155   1.978  1.0963 -0.6555  2.5534
 4387SOL     OW23494   4.951   8.136   0.889  0.0685 -0.0800  0.0400
 4387SOL    HW123495   4.881   8.064   0.896 -0.5263  0.4267 -0.6275
 4387SOL    HW223496   5.023   8.118   0.956 -1.2872  0.0261  1.5611
 4388SOL     OW23497   0.683   1.974   1.625 -0.3203 -0.2442  0.4139
 4388SOL    HW123498   0.706   2.055   1.571 -0.3431 -0.5630 -0.0756
 4388SOL    HW223499   0.694   1.994   1.722  2.5802 -0.5587  0.1701
 4389SOL     OW23500   9.775   4.722   0.932 -0.2932 -0.0889  0.2600
 4389SOL    HW123501   9.687   4.694   0.970  0.8023 -0.3768  2.6898
 4389SOL    HW223502   9.847   4.701   0.997  1.4371  1.3656 -1.1345
 4390SOL     OW23503   0.742   0.930   0.120 -0.1601 -0.7181  0.3859
 4390SOL    HW123504   0.783   0.937   0.029  0.1747  0.3889  0.6101
 4390SOL    HW223505   0.668   0.863   0.118  0.2700 -1.1823 -0.5386
 4391SOL     OW23506   2.450   6.326   0.207  0.1881  0.0394  0.0235
 4391SOL    HW123507   2.549   6.339   0.203  0.1834  0.0395 -0.0771
 4391SOL    HW223508   2.431   6.230   0.229  0.2094  0.0116 -0.0766
 4392SOL     OW23509   8.814   7.804   0.565 -0.1185 -0.3630  0.4375
 4392SOL    HW123510   8.887   7.809   0.496 -0.8033  2.2761 -0.1483
 4392SOL    HW223511   8.841   7.856   0.646 -1.7166  1.5648 -0.2032
 4393SOL     OW23512   8.311   2.200   1.085 -0.1052 -0.3089  0.5205
 4393SOL    HW123513   8.285   2.268   1.016 -3.9864 -1.0423  1.1325
 4393SOL    HW223514   8.382   2.140   1.047  0.0540  1.2061 -1.6898
 4394SOL     OW23515   3.883   0.017   2.977 -0.2087 -0.4655  0.1574
 4394SOL    HW123516   3.886   0.115   2.995  1.8803 -0.6287  0.7538
 4394SOL    HW223517   3.888  -0.034   3.063 -2.8459 -1.1122 -0.0230
 4395SOL     OW23518   0.878   0.128   2.697 -0.4656  0.0460  0.3060
 4395SOL    HW123519   0.912   0.141   2.604  0.3197 -1.9439  0.2847
 4395SOL    HW223520   0.785   0.163   2.704  0.0677  1.7102 -0.7844
 4396SOL     OW23521   9.957   1.393   0.456 -0.0437  0.1333  0.3178
 4396SOL    HW123522   9.954   1.336   0.374 -0.2409  0.2979  0.2098
 4396SOL    HW223523   9.865   1.401   0.494  0.2299 -0.9234  1.2329
 4397SOL     OW23524   0.514   2.674   2.715  0.2536  0.0997  0.3740
 4397SOL    HW123525   0.452   2.664   2.637 -1.1420  1.3690  1.2866
 4397SOL    HW223526   0.609   2.663   2.684 -0.4076 -1.7128 -1.0726
 4398SOL     OW23527   0.570   2.509   1.818 -0.3991  0.3569 -0.3107
 4398SOL    HW123528   0.649   2.536   1.764  1.7462 -1.2119  1.9084
 4398SOL    HW223529   0.596   2.504   1.915 -2.5653 -2.4595  0.2035
 4399SOL     OW23530   9.110   8.942   0.480  0.3627  0.4736  0.1259
 4399SOL    HW123531   9.070   8.851   0.485 -1.1050  1.0982 -0.1039
 4399SOL    HW223532   9.206   8.938   0.508  0.7612 -1.4143 -1.4472
 4400SOL     OW23533   3.648   0.234   0.245 -0.6429 -0.0988 -0.2060
 4400SOL    HW123534   3.574   0.301   0.245 -1.7017 -1.2368 -0.7189
 4400SOL    HW223535   3.621   0.155   0.301  0.6440 -0.0457  0.5131
 4401SOL     OW23536   1.802   4.379   2.999  0.1517 -0.7602  0.4598
 4401SOL    HW123537   1.871   4.369   3.071  0.4478 -0.2068  0.2536
 4401SOL    HW223538   1.725   4.432   3.034  0.4287 -0.2349  0.2820
 4402SOL     OW23539   3.200   5.640   2.628 -0.2680  0.1924 -0.0396
 4402SOL    HW123540   3.181   5.696   2.709 -1.4160  2.2485 -1.6638
 4402SOL    HW223541   3.298   5.641   2.609 -0.1172  0.5455  0.7504
 4403SOL     OW23542   8.271   6.299   1.428 -0.6049  0.4725  0.6961
 4403SOL    HW123543   8.224   6.214   1.453 -0.0944  0.0373  0.2097
 4403SOL    HW223544   8.239   6.373   1.486 -0.9485 -0.0891  1.2327
 4404SOL     OW23545   2.926   5.833   1.625 -0.1476  0.2634 -0.1327
 4404SOL    HW123546   2.959   5.923   1.598  0.7905 -0.0344  0.0268
 4404SOL    HW223547   2.882   5.839   1.715  2.7167 -0.0277  1.3178
 4405SOL     OW23548   3.168   7.482   2.152  0.3132  0.3122  0.2299
 4405SOL    HW123549   3.204   7.459   2.062  0.2545  1.1377 -0.0042
 4405SOL    HW223550   3.224   7.438   2.222  1.9339  1.7536 -0.1151
 4406SOL     OW23551   0.643   5.690   2.093 -0.0522 -0.0765  0.0457
 4406SOL    HW123552   0.620   5.777   2.137  1.7350  0.8607 -0.7983
 4406SOL    HW223553   0.671   5.624   2.162  1.3424  0.9317  0.4848
 4407SOL     OW23554   7.784   8.540   2.863  0.1408  0.1737  0.6721
 4407SOL    HW123555   7.732   8.460   2.832  1.1163 -0.7938  1.5171
 4407SOL    HW223556   7.853   8.563   2.795  2.0907 -1.7759  1.9238
 4408SOL     OW23557   9.236   4.710   2.320  0.4206 -0.0402  0.0486
 4408SOL    HW123558   9.247   4.773   2.397 -0.9476  0.5614 -0.2391
 4408SOL    HW223559   9.288   4.745   2.242 -0.3157  0.7340 -0.1063
 4409SOL     OW23560   2.681   0.903   1.076  0.0774  0.1103  0.1287
 4409SOL    HW123561   2.680   0.835   1.149 -0.1618  0.4014  0.3979
 4409SOL    HW223562   2.723   0.987   1.109 -1.0560  0.6278  0.2818
 4410SOL     OW23563   8.371   0.816   0.997 -0.2533 -0.7667  0.2856
 4410SOL    HW123564   8.395   0.848   0.905  0.2648 -0.3395  0.5644
 4410SOL    HW223565   8.282   0.770   0.995 -0.3744 -0.5038 -0.3736
 4411SOL     OW23566   1.994   0.564   1.315 -0.0484  0.0965  0.3822
 4411SOL    HW123567   2.067   0.630   1.299 -1.3011  2.4033  3.6681
 4411SOL    HW223568   1.970   0.564   1.412 -2.2768 -2.9251 -0.0929
 4412SOL     OW23569   7.851   8.809   0.297  0.4500  0.4277 -0.7635
 4412SOL    HW123570   7.822   8.788   0.390 -1.7267 -0.3945 -1.5940
 4412SOL    HW223571   7.834   8.730   0.238  1.9596  0.8782 -1.8452
 4413SOL     OW23572   3.818   8.693   1.758  0.2767  0.0292 -0.1153
 4413SOL    HW123573   3.902   8.663   1.803  0.8462  1.0121 -0.5025
 4413SOL    HW223574   3.837   8.774   1.702 -0.8329 -0.0098 -0.5680
 4414SOL     OW23575   8.123   0.442   2.032 -0.7365 -0.9636 -0.5410
 4414SOL    HW123576   8.173   0.417   1.948 -0.0578 -0.5012 -0.2790
 4414SOL    HW223577   8.025   0.442   2.013 -0.5526 -0.0201 -1.5708
 4415SOL     OW23578   3.202   1.869   0.716  0.0847  0.1476  0.0319
 4415SOL    HW123579   3.251   1.882   0.629  0.5993  0.1646  0.3226
 4415SOL    HW223580   3.211   1.951   0.772 -1.0291  0.4919 -0.2738
 4416SOL     OW23581   7.884   0.251   3.180  1.1987  0.3996 -0.4160
 4416SOL    HW123582   7.935   0.332   3.209  0.1499  0.4154  1.5104
 4416SOL    HW223583   7.804   0.279   3.127  1.0614  0.6173 -0.0996
 4417SOL     OW23584   4.416   7.932   1.482  0.3898  0.5650 -0.1255
 4417SOL    HW123585   4.399   7.867   1.407  1.2902  1.2304 -0.9210
 4417SOL    HW223586   4.333   7.941   1.536  0.0395 -0.7345 -0.4045
 4418SOL     OW23587   0.770   2.822   0.843 -0.0312 -0.1977  0.4850
 4418SOL    HW123588   0.749   2.725   0.852 -0.3210 -0.3160 -1.2469
 4418SOL    HW223589   0.723   2.859   0.762 -0.0444  1.4170  1.2032
 4419SOL     OW23590   2.543   7.480   1.881 -0.6056  0.0621  0.0774
 4419SOL    HW123591   2.454   7.522   1.900 -1.2649 -0.2338 -2.1552
 4419SOL    HW223592   2.557   7.403   1.942 -1.5420  0.5860  0.9672
 4420SOL     OW23593   3.991   2.094   0.515 -0.1536  0.2483  0.3810
 4420SOL    HW123594   4.070   2.133   0.562  0.6200  0.5845 -1.1665
 4420SOL    HW223595   3.909   2.103   0.572  0.3641  2.5135  0.7820
 4421SOL     OW23596   8.752   4.653   3.146  0.0242 -0.0471  0.0677
 4421SOL    HW123597   8.701   4.734   3.176  1.7774  1.6557 -1.4544
 4421SOL    HW223598   8.803   4.615   3.223 -0.1723  0.7710  0.6019
 4422SOL     OW23599   3.606   0.509   1.482 -0.1371 -0.3783  0.0209
 4422SOL    HW123600   3.543   0.433   1.469  0.7826 -1.0628 -0.4312
 4422SOL    HW223601   3.622   0.555   1.395 -1.4971  0.9902  0.4638
 4423SOL     OW23602   1.224   2.843   1.752  0.0634  0.0826 -0.2225
 4423SOL    HW123603   1.313   2.850   1.708  0.1478 -1.0551 -0.2439
 4423SOL    HW223604   1.215   2.915   1.821  0.7263  0.6149 -0.6845
 4424SOL     OW23605   0.202   4.015   2.167  0.8628 -0.1799 -0.7172
 4424SOL    HW123606   0.112   4.021   2.124  0.3566 -1.5862  0.1208
 4424SOL    HW223607   0.241   4.106   2.175 -0.5415  0.4550 -0.9693
 4425SOL     OW23608   0.232   0.954   1.000  0.0985 -0.0204 -0.8935
 4425SOL    HW123609   0.156   1.004   0.958 -0.3753  1.3333  1.4763
 4425SOL    HW223610   0.198   0.869   1.041  0.2572 -0.4882 -1.7241
 4426SOL     OW23611   0.184   8.240   0.331  0.4809 -0.5659 -0.2149
 4426SOL    HW123612   0.162   8.146   0.358 -0.2121 -0.5880 -0.8249
 4426SOL    HW223613   0.235   8.240   0.245 -0.1086 -0.3578 -0.5693
 4427SOL     OW23614   0.697   9.528   0.991 -0.1188 -0.3401 -0.0987
 4427SOL    HW123615   0.693   9.464   0.914 -1.4932  0.8472 -1.0321
 4427SOL    HW223616   0.685   9.477   1.076 -1.0249 -1.3728 -0.8239
 4428SOL     OW23617   9.393   6.831   2.963 -0.1483  0.0773 -0.2999
 4428SOL    HW123618   9.472   6.887   2.938 -0.2365 -1.1142 -3.4229
 4428SOL    HW223619   9.311   6.870   2.923 -1.0679  0.7562  2.1299
 4429SOL     OW23620   3.062   7.181   0.804 -0.2389  0.0178  0.2125
 4429SOL    HW123621   3.038   7.102   0.859 -2.0418 -0.6634 -1.4984
 4429SOL    HW223622   2.979   7.221   0.764  0.8685  1.4029 -0.7821
 4430SOL     OW23623   8.525   1.356   0.060  0.3086 -0.2523  0.1855
 4430SOL    HW123624   8.470   1.440   0.062 -0.9406 -1.0398 -0.3126
 4430SOL    HW223625   8.604   1.367   0.120 -0.6712  0.7238  1.3362
 4431SOL     OW23626   3.302   1.268   2.208  0.3781 -0.0661  0.0094
 4431SOL    HW123627   3.362   1.347   2.194 -0.2999  0.1639 -1.7001
 4431SOL    HW223628   3.252   1.249   2.124  1.1679 -2.8719  0.1111
 4432SOL     OW23629   9.152   6.603   1.849 -0.4535 -0.4062 -0.2978
 4432SOL    HW123630   9.102   6.590   1.935  0.3061 -0.3498  0.1494
 4432SOL    HW223631   9.143   6.520   1.793  0.7510 -1.2288  0.7095
 4433SOL     OW23632   2.290   9.730   1.548 -0.4067 -0.7235 -0.3534
 4433SOL    HW123633   2.322   9.770   1.462 -2.2752  0.5341 -0.4861
 4433SOL    HW223634   2.333   9.641   1.561  1.0929 -0.2453 -1.8197
 4434SOL     OW23635   4.933   3.454   2.671 -0.0648 -0.0288  0.7285
 4434SOL    HW123636   4.865   3.444   2.744 -1.2183 -1.5579 -0.5482
 4434SOL    HW223637   5.023   3.471   2.713 -0.9765  0.6998  2.4579
 4435SOL     OW23638   8.426   9.500   2.926 -0.4544 -0.0058 -0.6912
 4435SOL    HW123639   8.367   9.531   3.000 -0.5759 -2.3689  0.2351
 4435SOL    HW223640   8.416   9.401   2.914  1.5371 -0.0773 -2.0997
 4436SOL     OW23641   1.138   6.516   2.890 -0.2108  0.2813  0.1469
 4436SOL    HW123642   1.068   6.542   2.956 -1.1901  1.4984 -1.3426
 4436SOL    HW223643   1.172   6.425   2.912 -1.1050  0.3447  1.8404
 4437SOL     OW23644   2.707   6.562   1.398  0.1640  0.1740 -0.1959
 4437SOL    HW123645   2.640   6.589   1.468 -1.3957 -0.7504 -1.2799
 4437SOL    HW223646   2.663   6.564   1.308  1.6463 -0.3249 -0.9416
 4438SOL     OW23647   0.830   3.740   0.629  0.0415 -0.4534  0.7978
 4438SOL    HW123648   0.731   3.754   0.637 -0.0445 -0.6515  0.1018
 4438SOL    HW223649   0.848   3.652   0.584  0.5136  0.3768 -0.6646
 4439SOL     OW23650   0.879   7.747   2.984  0.0290  0.1337  0.0149
 4439SOL    HW123651   0.810   7.679   2.959  0.9221 -1.6719  2.2956
 4439SOL    HW223652   0.930   7.774   2.902 -1.6778 -0.3863 -1.2653
 4440SOL     OW23653   3.565   7.857   2.374  0.6658  0.0597 -0.4220
 4440SOL    HW123654   3.653   7.885   2.411  0.8235  0.2203 -0.9200
 4440SOL    HW223655   3.519   7.936   2.334 -0.2609  0.2480  0.9468
 4441SOL     OW23656   3.593   1.130   2.748 -0.1181  0.1162  0.6524
 4441SOL    HW123657   3.639   1.165   2.830  0.0086 -0.5715  0.8803
 4441SOL    HW223658   3.659   1.081   2.691 -0.2054  0.5990  0.1284
 4442SOL     OW23659   2.733   8.768   2.873  0.0198  0.1493 -0.6304
 4442SOL    HW123660   2.734   8.736   2.968 -1.6968  0.3488 -0.5325
 4442SOL    HW223661   2.803   8.838   2.861 -0.5459  0.9822  0.8080
 4443SOL     OW23662   4.188   3.704   0.212 -0.7832  0.0785 -0.1238
 4443SOL    HW123663   4.173   3.605   0.212 -0.8507  0.0886 -0.1153
 4443SOL    HW223664   4.285   3.723   0.195 -0.8835  0.0320 -0.7438
 4444SOL     OW23665   9.084   3.183   1.325  0.1941  0.1265 -0.1860
 4444SOL    HW123666   9.029   3.185   1.242  2.0479  0.6829 -1.4122
 4444SOL    HW223667   9.069   3.096   1.373 -0.6484 -0.3196 -1.2449
 4445SOL     OW23668   8.565   5.520   0.688 -0.5893 -0.6691 -0.3053
 4445SOL    HW123669   8.587   5.610   0.650  0.9909 -1.0006 -0.2145
 4445SOL    HW223670   8.529   5.530   0.781  0.2274 -0.1774 -0.0426
 4446SOL     OW23671   1.008   2.141   1.954  0.9382 -0.4442 -0.0349
 4446SOL    HW123672   1.041   2.081   1.881  0.6974  0.2909 -0.7496
 4446SOL    HW223673   0.925   2.188   1.924  0.1888 -0.9896  1.1285
 4447SOL     OW23674   9.738   5.303   1.837 -0.6274 -0.0731  0.5458
 4447SOL    HW123675   9.814   5.296   1.902 -1.1390 -1.1095  1.0597
 4447SOL    HW223676   9.656   5.332   1.886 -1.0340 -0.9297  0.3845
 4448SOL     OW23677   9.777   4.951   1.205 -0.5030 -0.2671  0.3028
 4448SOL    HW123678   9.701   4.906   1.252 -1.1303 -0.1423 -0.5850
 4448SOL    HW223679   9.741   5.018   1.141  0.3405 -0.5936 -0.5150
 4449SOL     OW23680   3.238   1.211   3.385 -0.5329 -0.1741  0.2605
 4449SOL    HW123681   3.212   1.143   3.317 -1.4503  0.5802 -0.1500
 4449SOL    HW223682   3.229   1.302   3.346 -0.0175  0.2187  1.0452
 4450SOL     OW23683   9.598   4.096   0.381  0.2288 -0.0726 -0.0952
 4450SOL    HW123684   9.619   4.001   0.405 -0.7666 -0.2743  0.0173
 4450SOL    HW223685   9.557   4.142   0.460 -0.8406 -0.0485 -0.6467
 4451SOL     OW23686   3.964   0.405   0.172  0.5149  0.2726  0.2216
 4451SOL    HW123687   4.004   0.481   0.223 -1.2517  0.0861  1.9356
 4451SOL    HW223688   4.022   0.324   0.180 -0.2327 -0.0392  2.7887
 4452SOL     OW23689   8.805   4.278   1.189  0.1774  0.7084  0.1460
 4452SOL    HW123690   8.841   4.209   1.126 -0.7236 -0.0255  0.4380
 4452SOL    HW223691   8.815   4.369   1.147 -0.0111  0.2700 -0.8759
 4453SOL     OW23692   0.222   7.402   2.565 -0.1963 -0.3676 -0.6942
 4453SOL    HW123693   0.247   7.312   2.601 -0.7425 -0.4447 -0.5181
 4453SOL    HW223694   0.241   7.472   2.633 -0.1874 -0.3926 -0.6706
 4454SOL     OW23695   3.931   8.860   2.756 -0.6785 -0.3245 -0.3627
 4454SOL    HW123696   3.969   8.900   2.672  0.9763  0.6297  0.7986
 4454SOL    HW223697   3.991   8.883   2.833 -1.1989 -2.7167  0.7923
 4455SOL     OW23698   8.376   6.633   0.848 -0.1062  0.0320  0.1640
 4455SOL    HW123699   8.368   6.535   0.868  0.9628  0.0909  0.9584
 4455SOL    HW223700   8.392   6.646   0.750 -0.3669 -0.5808  0.0369
 4456SOL     OW23701   2.080   7.251   1.810 -0.2760 -0.4927  0.4065
 4456SOL    HW123702   2.017   7.300   1.749  0.8331 -0.2564 -0.5517
 4456SOL    HW223703   2.062   7.279   1.904 -1.1146  0.1284  0.0767
 4457SOL     OW23704   3.557   2.320   1.547 -0.2958  0.3233  0.3264
 4457SOL    HW123705   3.507   2.402   1.519  1.4003  1.0124 -0.7594
 4457SOL    HW223706   3.654   2.332   1.528  0.1538 -1.4210  1.4081
 4458SOL     OW23707   1.997   2.807   2.566 -0.4163  0.3369 -0.4691
 4458SOL    HW123708   2.058   2.870   2.517 -1.1882  0.5876 -1.1334
 4458SOL    HW223709   1.966   2.736   2.503 -0.0868 -0.3225  0.1049
 4459SOL     OW23710   2.441   7.659   2.383  0.3610  0.4567 -0.0577
 4459SOL    HW123711   2.380   7.644   2.462  1.3124 -0.6648  0.4826
 4459SOL    HW223712   2.514   7.722   2.409  0.7761 -0.0517  0.0141
 4460SOL     OW23713   2.903   8.075   1.080 -0.0134  0.8048 -0.3055
 4460SOL    HW123714   2.824   8.080   1.020  0.7266  2.7047 -1.1616
 4460SOL    HW223715   2.960   7.997   1.055 -0.7285  0.4355 -0.7878
 4461SOL     OW23716   1.933   8.635   0.241 -0.3596  0.7484  0.3357
 4461SOL    HW123717   1.912   8.565   0.309 -0.4976  1.4435  1.0176
 4461SOL    HW223718   1.991   8.596   0.169 -1.4560 -0.3698  0.0565
 4462SOL     OW23719   4.949   8.444   2.240 -0.1272  0.9037  0.3215
 4462SOL    HW123720   4.883   8.519   2.239 -0.4519  0.6266  0.9818
 4462SOL    HW223721   4.926   8.380   2.313 -1.1481 -1.0127 -1.6062
 4463SOL     OW23722   0.883   8.285   0.404  0.0283  0.0541 -0.2576
 4463SOL    HW123723   0.952   8.352   0.431  0.3644 -0.5483  0.3803
 4463SOL    HW223724   0.928   8.204   0.365 -0.3526 -0.0439 -0.5013
 4464SOL     OW23725   7.524   1.150   0.777 -0.5299  0.3762 -0.5263
 4464SOL    HW123726   7.519   1.060   0.736  1.2519 -1.5581  3.1903
 4464SOL    HW223727   7.598   1.202   0.734 -0.1343 -0.7507 -1.2273
 4465SOL     OW23728   8.522   0.112   0.205  0.2776 -0.0056  0.2244
 4465SOL    HW123729   8.424   0.126   0.221  0.5394  1.0211  0.9839
 4465SOL    HW223730   8.549   0.024   0.245 -0.0710  0.3198  1.1978
 4466SOL     OW23731   4.542   9.278   0.222 -0.0700 -0.2883  0.4265
 4466SOL    HW123732   4.496   9.360   0.187  0.5623 -0.6368 -1.2739
 4466SOL    HW223733   4.641   9.289   0.211 -0.0215 -1.5887 -0.4732
 4467SOL     OW23734   2.338   7.015   2.466  0.1780 -0.1791 -0.3402
 4467SOL    HW123735   2.424   6.975   2.497  0.2677  0.0935 -0.2383
 4467SOL    HW223736   2.330   7.005   2.367 -0.3468 -1.5165 -0.1773
 4468SOL     OW23737   4.356   0.719   0.632  0.4363 -0.1620  0.3336
 4468SOL    HW123738   4.268   0.694   0.592 -0.0823  1.1211  0.6746
 4468SOL    HW223739   4.429   0.670   0.584 -0.1232  1.6537 -2.5119
 4469SOL     OW23740   0.773   4.489   0.874 -0.5490 -0.3538  0.1632
 4469SOL    HW123741   0.805   4.582   0.885  0.4637 -0.6406 -0.3225
 4469SOL    HW223742   0.832   4.426   0.924  1.3530 -1.1626 -2.9623
 4470SOL     OW23743   9.002   7.037   1.240 -0.0220 -0.3526  0.2093
 4470SOL    HW123744   9.028   7.093   1.318  2.1839 -0.9572 -0.0591
 4470SOL    HW223745   8.987   7.095   1.160  1.7951 -0.0669  0.0510
 4471SOL     OW23746   9.524   8.957   3.073 -0.1897  0.2573  0.1636
 4471SOL    HW123747   9.529   9.032   3.140  2.4137 -0.5188  0.8537
 4471SOL    HW223748   9.464   8.985   2.998 -2.6586  1.3953  2.4637
 4472SOL     OW23749   4.273   7.975   1.895  0.5453 -0.2566  0.3305
 4472SOL    HW123750   4.341   7.937   1.832  0.0467 -0.3918 -0.1286
 4472SOL    HW223751   4.320   8.012   1.976  0.9319 -2.8694  1.3374
 4473SOL     OW23752   1.827   5.879   0.361  0.0794  0.2124  0.2495
 4473SOL    HW123753   1.735   5.888   0.399  0.3666  0.5682  0.8692
 4473SOL    HW223754   1.894   5.889   0.434  0.6007 -0.5525 -0.1228
 4474SOL     OW23755   1.986   9.929   1.818 -0.0330  0.3731 -0.6582
 4474SOL    HW123756   1.900   9.946   1.867 -0.2442  0.1880 -0.9653
 4474SOL    HW223757   1.966   9.909   1.722  0.3368  0.0286 -0.6607
 4475SOL     OW23758   9.530   1.981   2.836 -0.6852  0.0933 -0.0466
 4475SOL    HW123759   9.531   1.999   2.934  1.5802 -0.7702  0.1293
 4475SOL    HW223760   9.451   2.025   2.795 -1.8922  0.1217  2.2251
 4476SOL     OW23761   0.120   9.091   3.344 -0.3038  0.0179  0.2586
 4476SOL    HW123762   0.070   9.006   3.363  0.4179 -1.1156 -2.6370
 4476SOL    HW223763   0.076   9.167   3.391 -3.7869 -1.2125 -0.8791
 4477SOL     OW23764   6.587   8.168   2.297  0.2262  0.3034 -0.4488
 4477SOL    HW123765   6.495   8.153   2.260  0.6143  0.5562 -1.5483
 4477SOL    HW223766   6.640   8.084   2.289  0.0665  0.1378  0.2463
 4478SOL     OW23767   0.861   5.339   3.207 -0.2800 -0.2646  0.3066
 4478SOL    HW123768   0.846   5.390   3.292 -1.2217 -0.5197  0.3007
 4478SOL    HW223769   0.912   5.396   3.142  0.6990 -0.1735  1.1434
 4479SOL     OW23770   1.682   4.314   1.902 -0.4405  0.1680  0.0697
 4479SOL    HW123771   1.664   4.362   1.816 -0.6146 -0.0873 -0.0351
 4479SOL    HW223772   1.773   4.271   1.897 -0.1255  0.7998  0.3055
 4480SOL     OW23773   3.456   4.504   0.839  0.1430  0.9237  0.4931
 4480SOL    HW123774   3.556   4.513   0.840  0.1873  0.4699  0.3305
 4480SOL    HW223775   3.415   4.593   0.819  0.5951  0.6217 -1.8822
 4481SOL     OW23776   1.888   1.307   0.110 -0.0142 -0.2189 -0.1221
 4481SOL    HW123777   1.901   1.209   0.097  0.5380 -0.0348 -0.9855
 4481SOL    HW223778   1.977   1.350   0.128 -0.0744  0.3316 -1.1428
 4482SOL     OW23779   4.110   8.170   0.075  0.0968  0.2611 -0.0443
 4482SOL    HW123780   4.012   8.150   0.077  0.2103 -0.2838  1.4556
 4482SOL    HW223781   4.147   8.153  -0.016 -0.8442 -1.4217 -0.1344
 4483SOL     OW23782   8.836   2.033   1.468 -0.5171  0.2634 -0.5481
 4483SOL    HW123783   8.799   1.946   1.435 -0.9813  1.0974 -2.3238
 4483SOL    HW223784   8.841   2.097   1.391 -3.6465  2.9856  1.4004
 4484SOL     OW23785   9.665   3.590   1.535 -0.2481 -0.2374 -0.7305
 4484SOL    HW123786   9.582   3.543   1.503 -0.4717 -1.2622  1.2575
 4484SOL    HW223787   9.746   3.540   1.502 -0.4785 -1.3928  0.4080
 4485SOL     OW23788   0.272   8.635   1.435 -0.0128  0.3648  0.0592
 4485SOL    HW123789   0.353   8.678   1.476 -0.1870  1.5008 -0.7818
 4485SOL    HW223790   0.291   8.538   1.418  0.8886  0.4388  0.6114
 4486SOL     OW23791   2.153   2.213   2.153 -0.5151  0.0383  0.7269
 4486SOL    HW123792   2.239   2.231   2.106 -0.7290 -0.0988  0.2755
 4486SOL    HW223793   2.076   2.230   2.090 -0.7456 -1.7730  0.4818
 4487SOL     OW23794   3.661   4.491   1.125 -0.3882 -0.5379  0.2692
 4487SOL    HW123795   3.563   4.509   1.127 -0.6091 -1.6142 -0.1720
 4487SOL    HW223796   3.682   4.416   1.188  0.2463  0.1056  0.8270
 4488SOL     OW23797   3.712   7.939   1.384  0.2162 -0.0617  0.1592
 4488SOL    HW123798   3.640   7.998   1.421  0.2965  0.6432 -0.8109
 4488SOL    HW223799   3.679   7.894   1.301 -0.2715 -2.3286  1.5489
 4489SOL     OW23800   8.028   2.299   2.965  0.5924 -0.5241  0.5352
 4489SOL    HW123801   8.109   2.356   2.980  0.7892 -0.8748  0.8149
 4489SOL    HW223802   7.985   2.279   3.053  0.2958 -0.4724  0.4008
 4490SOL     OW23803   0.424   5.230   2.687  0.1370  0.0091  0.3431
 4490SOL    HW123804   0.376   5.150   2.652  0.1948  0.8327 -1.6523
 4490SOL    HW223805   0.486   5.201   2.761 -1.3832 -1.4526  1.0743
 4491SOL     OW23806   2.654   9.728   0.666  0.2287  0.1066  0.5219
 4491SOL    HW123807   2.753   9.728   0.655  0.1931  0.3743  0.2140
 4491SOL    HW223808   2.616   9.644   0.627  0.0378  1.3138 -1.9972
 4492SOL     OW23809   0.305   0.823   0.039 -0.3290  0.4890  0.4450
 4492SOL    HW123810   0.355   0.908   0.020 -0.6858  0.3222 -1.2903
 4492SOL    HW223811   0.314   0.761  -0.039 -1.2908 -0.4873  1.1062
 4493SOL     OW23812   1.691   1.481   0.022 -0.1075  0.2770  0.1440
 4493SOL    HW123813   1.764   1.419   0.050 -0.7988 -0.2837  0.7214
 4493SOL    HW223814   1.722   1.537  -0.056  0.8357 -0.1364  0.2232
 4494SOL     OW23815   3.924   4.632   2.719  0.4205 -0.6270 -0.0694
 4494SOL    HW123816   3.995   4.683   2.767  0.9095 -0.6096 -0.8151
 4494SOL    HW223817   3.943   4.631   2.621 -1.1817  0.3234 -0.4292
 4495SOL     OW23818   1.550   1.899   2.439  0.3835 -0.1892  0.1119
 4495SOL    HW123819   1.545   1.935   2.346  1.0046 -2.8462 -0.9717
 4495SOL    HW223820   1.556   1.799   2.437 -0.9241 -0.3846  3.0494
 4496SOL     OW23821   5.109   9.618   2.368  0.0444  0.0599 -0.1993
 4496SOL    HW123822   5.051   9.698   2.353 -0.7704 -0.1874  1.5098
 4496SOL    HW223823   5.064   9.537   2.330  0.0120  0.1221 -0.2941
 4497SOL     OW23824   8.330   9.397   3.394 -0.1444  0.5244  0.2538
 4497SOL    HW123825   8.404   9.418   3.459  0.0933 -3.6060  1.4818
 4497SOL    HW223826   8.248   9.370   3.445 -1.5737  2.0983 -1.1535
 4498SOL     OW23827   4.507   3.002   2.948  0.1285  0.2073 -0.2013
 4498SOL    HW123828   4.568   2.924   2.934 -0.3350 -0.0353 -0.8791
 4498SOL    HW223829   4.515   3.065   2.871 -0.0824  0.4480 -0.0284
 4499SOL     OW23830   3.840   3.764   0.223  0.1043 -0.2953 -0.6403
 4499SOL    HW123831   3.929   3.800   0.197  0.0725  1.8945  1.9955
 4499SOL    HW223832   3.784   3.838   0.262 -2.1891 -2.0050 -0.5609
 4500SOL     OW23833   2.610   2.534   2.163 -0.4934  0.1231 -0.4087
 4500SOL    HW123834   2.591   2.555   2.259 -0.4963  1.6354 -0.7274
 4500SOL    HW223835   2.699   2.572   2.138 -0.6608  0.0453 -1.1121
 4501SOL     OW23836   1.720   9.651   2.640  0.1720 -0.3479 -0.0231
 4501SOL    HW123837   1.757   9.674   2.550 -0.6972 -0.3244 -0.3739
 4501SOL    HW223838   1.725   9.552   2.653 -2.1380 -0.6568 -1.1933
 4502SOL     OW23839   8.905   8.370   2.554  0.0690  0.0491  0.1253
 4502SOL    HW123840   8.879   8.302   2.486 -0.0867  0.0097  0.2211
 4502SOL    HW223841   9.004   8.366   2.569  0.3335  1.1797 -1.2828
 4503SOL     OW23842   3.265   0.551   2.454 -0.5376 -0.7334 -0.4666
 4503SOL    HW123843   3.356   0.585   2.431 -0.7425  1.2850  1.4861
 4503SOL    HW223844   3.272   0.459   2.491  0.6618 -0.8207 -0.9105
 4504SOL     OW23845   1.712   6.250   0.393 -0.3881  0.6350 -0.5516
 4504SOL    HW123846   1.770   6.289   0.464 -0.4933 -0.0492 -0.0865
 4504SOL    HW223847   1.762   6.247   0.306  0.7628 -1.2068  0.1484
 4505SOL     OW23848   7.815   8.601   3.130 -0.1801 -0.2047  0.2868
 4505SOL    HW123849   7.792   8.597   3.032  1.6407  1.2583 -0.2219
 4505SOL    HW223850   7.831   8.508   3.164 -0.4209 -0.6941 -0.9215
 4506SOL     OW23851   9.104   6.026   0.812 -0.0728 -0.1294 -0.1166
 4506SOL    HW123852   9.186   6.011   0.757  1.4695 -1.3848  2.4260
 4506SOL    HW223853   9.025   5.984   0.767  0.9063 -0.0463 -1.9491
 4507SOL     OW23854   8.619   1.546   1.687  0.6419  0.8441  0.0565
 4507SOL    HW123855   8.543   1.489   1.656  0.5317  0.9421  0.1494
 4507SOL    HW223856   8.674   1.495   1.754  0.0886  1.1347  0.7312
 4508SOL     OW23857   9.608   8.338   1.671  0.6466 -0.0147  0.0765
 4508SOL    HW123858   9.607   8.374   1.764 -3.1421  1.6669 -0.5327
 4508SOL    HW223859   9.595   8.413   1.606 -1.2657 -1.7069 -1.5578
 4509SOL     OW23860   0.166   7.365   3.096 -0.1787  0.2452 -0.6175
 4509SOL    HW123861   0.230   7.317   3.035  0.8409  1.9172 -0.8982
 4509SOL    HW223862   0.175   7.329   3.189  0.4926 -0.1768 -0.8411
 4510SOL     OW23863   1.914   9.615   0.494  0.1211  0.0159  0.4681
 4510SOL    HW123864   1.888   9.659   0.579 -0.6470 -0.6912  0.6017
 4510SOL    HW223865   1.874   9.665   0.417  1.7190  1.2966  0.4517
 4511SOL     OW23866   9.022   7.220   1.459  0.1005 -0.7523  0.0659
 4511SOL    HW123867   9.017   7.229   1.558 -4.1371  0.4185 -0.1609
 4511SOL    HW223868   9.044   7.309   1.418 -0.2567 -0.7431 -0.1149
 4512SOL     OW23869   2.668   0.680   2.042  0.1807  0.0669  0.4762
 4512SOL    HW123870   2.745   0.650   1.986 -0.5585 -1.3044  0.1701
 4512SOL    HW223871   2.615   0.748   1.992  1.5047  1.4382  0.9145
 4513SOL     OW23872   1.326   3.556   3.288  0.2845  0.0147  0.1640
 4513SOL    HW123873   1.374   3.487   3.234  0.1100 -0.3314  0.4493
 4513SOL    HW223874   1.257   3.601   3.231  0.5562  0.1224 -0.0877
 4514SOL     OW23875   4.452   0.428   0.937  0.1733  0.3208  0.2006
 4514SOL    HW123876   4.490   0.387   0.854 -2.5137  1.0101 -1.4379
 4514SOL    HW223877   4.471   0.526   0.937  0.7191  0.2170  0.7280
 4515SOL     OW23878   9.272   3.621   2.830  0.2617 -0.2134 -0.7398
 4515SOL    HW123879   9.317   3.573   2.905  0.3640  0.2253 -0.5206
 4515SOL    HW223880   9.261   3.718   2.853 -0.6468 -0.2760 -0.8558
 4516SOL     OW23881   9.141   0.806   3.427  0.1690  0.1419  0.1390
 4516SOL    HW123882   9.232   0.778   3.396 -0.1352 -0.8574  0.1396
 4516SOL    HW223883   9.071   0.759   3.373 -0.3515  2.0060 -0.8341
 4517SOL     OW23884   2.250   7.665   2.586  0.0933 -0.0034  0.3108
 4517SOL    HW123885   2.238   7.607   2.666  0.2425  0.9114  1.0039
 4517SOL    HW223886   2.162   7.677   2.540  0.0462 -0.7001  0.2153
 4518SOL     OW23887   3.484   9.833   0.057 -0.0248  0.0776 -0.2535
 4518SOL    HW123888   3.468   9.928   0.081  0.1912  0.3019 -1.0077
 4518SOL    HW223889   3.470   9.776   0.139  1.3964  0.9132  0.5880
 4519SOL     OW23890   8.839   6.967   3.090  0.0005 -0.1444 -0.1551
 4519SOL    HW123891   8.784   6.942   3.170 -3.3265 -0.2313 -2.3823
 4519SOL    HW223892   8.850   7.066   3.086  2.2461 -0.2763  1.6627
 4520SOL     OW23893   3.661   2.622   2.970 -0.1122  0.3417 -0.3859
 4520SOL    HW123894   3.571   2.584   2.946 -0.2402  0.2198  0.2639
 4520SOL    HW223895   3.672   2.619   3.069  1.4569 -1.5783 -0.5789
 4521SOL     OW23896   1.897   3.827   2.629  0.2040  0.4809  0.2309
 4521SOL    HW123897   1.988   3.864   2.652  0.1857  0.3896  0.4455
 4521SOL    HW223898   1.827   3.884   2.670  0.1799  0.0492  0.7898
 4522SOL     OW23899   3.710   5.431   2.293 -0.1885 -0.5207  0.1376
 4522SOL    HW123900   3.756   5.389   2.215  1.1302  0.4472  0.3770
 4522SOL    HW223901   3.731   5.378   2.376 -1.6797 -1.6143 -0.1598
 4523SOL     OW23902   9.989   2.351   2.867  0.1656  0.1960  0.1689
 4523SOL    HW123903  10.081   2.350   2.906  0.8283  1.7852 -1.2425
 4523SOL    HW223904   9.966   2.444   2.839 -2.9922  0.3571  2.9831
 4524SOL     OW23905   9.503   1.329   3.187  0.1699  0.8354  0.5544
 4524SOL    HW123906   9.407   1.326   3.157 -0.1687  0.0607  1.6361
 4524SOL    HW223907   9.544   1.239   3.174  0.3571  0.8110  1.2969
 4525SOL     OW23908   9.358   2.651   3.437  0.4294  0.5167  0.0394
 4525SOL    HW123909   9.306   2.699   3.366  1.5133  1.4682 -0.1347
 4525SOL    HW223910   9.375   2.557   3.408 -0.3863  0.4804 -0.3216
 4526SOL     OW23911   9.458   3.805   3.396  0.2278  0.3706  0.1081
 4526SOL    HW123912   9.383   3.824   3.333  0.4526  1.5397  0.1805
 4526SOL    HW223913   9.466   3.880   3.461  0.5016 -0.4577  1.0392
 4527SOL     OW23914   9.843   5.669   2.502  0.4825 -0.6622  0.0266
 4527SOL    HW123915   9.877   5.590   2.552  0.6559 -1.1261 -0.8170
 4527SOL    HW223916   9.851   5.652   2.404 -0.2488  0.0678 -0.1618
 4528SOL     OW23917   0.288   0.981   2.558 -0.1588  0.5209  0.0974
 4528SOL    HW123918   0.344   0.906   2.591 -0.1814  0.1163 -0.7600
 4528SOL    HW223919   0.346   1.054   2.522 -0.1618  0.2246 -0.5266
 4529SOL     OW23920   1.896   1.627   0.249 -0.3506 -0.0288 -0.4920
 4529SOL    HW123921   1.923   1.540   0.208  0.2427  0.0652 -0.3144
 4529SOL    HW223922   1.897   1.619   0.348  0.4631  0.3965 -0.4608
 4530SOL     OW23923   1.361   4.651   2.516  0.6349 -0.6917 -0.3955
 4530SOL    HW123924   1.304   4.732   2.521 -0.1249 -1.2318 -0.2627
 4530SOL    HW223925   1.457   4.677   2.524  0.4342  0.2617 -1.0711
 4531SOL     OW23926   3.115   4.998   2.779 -0.2030 -0.4754 -0.1961
 4531SOL    HW123927   3.143   5.036   2.867 -2.2829  3.2929 -1.0538
 4531SOL    HW223928   3.195   4.992   2.719  0.4898  0.9191  0.5569
 4532SOL     OW23929   4.832   3.958   1.321  0.2007 -0.1412  0.8684
 4532SOL    HW123930   4.830   3.895   1.399  0.9766 -2.8031 -1.1649
 4532SOL    HW223931   4.739   3.976   1.290 -0.0504  0.0852  1.7298
 4533SOL     OW23932   9.078   1.138   0.312 -0.0993 -0.1800 -0.5567
 4533SOL    HW123933   9.011   1.199   0.270 -1.7566 -0.7371  1.1607
 4533SOL    HW223934   9.057   1.043   0.287 -0.8772 -0.4865  1.1287
 4534SOL     OW23935   2.723   6.375   0.153  0.0203 -0.0192 -0.1414
 4534SOL    HW123936   2.751   6.448   0.216  1.5103  0.2072 -1.0252
 4534SOL    HW223937   2.791   6.302   0.155 -0.4417 -0.4689 -0.7374
 4535SOL     OW23938   1.922   2.867   3.273 -0.0911  0.2934  0.5639
 4535SOL    HW123939   2.016   2.867   3.307  0.0719  2.3419  0.1839
 4535SOL    HW223940   1.894   2.961   3.253 -2.2690 -0.2827  0.7975
 4536SOL     OW23941   3.764   2.181   3.267 -0.0292  0.1530 -0.3019
 4536SOL    HW123942   3.850   2.220   3.298 -0.6379  2.3432 -1.2492
 4536SOL    HW223943   3.775   2.141   3.176  0.1675 -0.2771 -0.0899
 4537SOL     OW23944   1.284   6.458   0.714  0.5861 -0.2133 -0.0441
 4537SOL    HW123945   1.293   6.516   0.795 -0.0392  1.4574 -1.1266
 4537SOL    HW223946   1.351   6.486   0.645 -0.1545 -0.3400 -0.8251
 4538SOL     OW23947   8.170   9.062   0.984 -0.1328  0.4178 -0.1663
 4538SOL    HW123948   8.229   9.077   0.905  1.3743  1.0027  1.0318
 4538SOL    HW223949   8.140   8.967   0.986  2.2334 -0.3760  0.1366
 4539SOL     OW23950   9.451   2.835   2.438  0.6069  0.1387  0.1690
 4539SOL    HW123951   9.469   2.740   2.462  0.5583  0.5206  1.8385
 4539SOL    HW223952   9.497   2.858   2.352  1.8922 -0.9720  0.5417
 4540SOL     OW23953   3.067   7.767   0.491  0.0673  0.5955  0.0662
 4540SOL    HW123954   3.110   7.782   0.580  0.2773 -0.2840  0.1179
 4540SOL    HW223955   3.065   7.853   0.440 -0.2899  1.1563  1.0213
 4541SOL     OW23956   1.262   4.160   2.408 -0.1657 -0.0291 -0.0118
 4541SOL    HW123957   1.204   4.162   2.327  1.0694 -1.3189 -0.9393
 4541SOL    HW223958   1.355   4.188   2.384  0.6478 -2.1801  0.5677
 4542SOL     OW23959   1.127   4.669   3.134 -0.3499  0.2752  0.0289
 4542SOL    HW123960   1.118   4.699   3.039  0.1181 -0.9335 -0.4057
 4542SOL    HW223961   1.195   4.726   3.181 -0.6190  0.9040 -0.3338
 4543SOL     OW23962   1.346   0.689   0.617 -0.1085  0.4012 -0.0608
 4543SOL    HW123963   1.414   0.629   0.658  0.2593  1.2343  0.5582
 4543SOL    HW223964   1.262   0.637   0.599 -0.4147  0.1125  2.0983
 4544SOL     OW23965   1.440   8.816   1.946  0.0612 -0.2536 -0.3142
 4544SOL    HW123966   1.430   8.760   1.863  2.1571 -2.5159  0.9120
 4544SOL    HW223967   1.398   8.768   2.023 -0.6052  1.1959  0.2338
 4545SOL     OW23968   3.423   0.175   1.178 -0.1337 -0.0195 -0.6071
 4545SOL    HW123969   3.445   0.186   1.081  0.8251 -0.2426 -0.4143
 4545SOL    HW223970   3.463   0.090   1.212  3.3425  2.1912  1.0919
 4546SOL     OW23971   3.230   1.571   0.717 -0.0444 -0.0321 -0.1987
 4546SOL    HW123972   3.190   1.543   0.630 -0.8591 -0.0136  0.1686
 4546SOL    HW223973   3.217   1.670   0.729  2.1735  0.4117 -1.1531
 4547SOL     OW23974   2.166   0.129   1.082 -0.1184  0.7400 -0.1100
 4547SOL    HW123975   2.175   0.114   0.984 -1.9039  0.6760 -0.2905
 4547SOL    HW223976   2.094   0.197   1.099 -0.0541  0.5134  1.1650
 4548SOL     OW23977   0.678   9.034   3.101 -0.2237 -0.3884 -0.1263
 4548SOL    HW123978   0.696   8.950   3.151 -1.6975 -0.3869  0.4466
 4548SOL    HW223979   0.666   9.014   3.004  1.4420 -0.5558 -0.3028
 4549SOL     OW23980   0.360   3.722   1.768 -0.0404  0.2978  0.3817
 4549SOL    HW123981   0.339   3.792   1.700 -2.5677  0.9875  1.8189
 4549SOL    HW223982   0.364   3.763   1.859 -0.0688 -1.1678  1.0696
 4550SOL     OW23983   6.069   8.384   2.623 -0.4191  0.4116 -0.1159
 4550SOL    HW123984   6.037   8.338   2.540 -0.0456 -0.2382  0.0925
 4550SOL    HW223985   6.166   8.363   2.637 -0.7105 -0.2186  0.9713
 4551SOL     OW23986   1.559   9.020   1.057  0.6386 -0.3472 -0.2699
 4551SOL    HW123987   1.558   9.012   1.157 -0.3232 -2.8485 -0.4404
 4551SOL    HW223988   1.476   9.068   1.027  0.1987 -0.9048  0.0476
 4552SOL     OW23989   0.360   5.839   0.722  0.2555  0.6335 -0.0046
 4552SOL    HW123990   0.355   5.739   0.720 -1.5347  0.7221 -0.8130
 4552SOL    HW223991   0.385   5.869   0.814 -0.4449 -0.5119  0.5697
 4553SOL     OW23992   9.827   4.040   0.818  0.6611  0.0490 -0.1547
 4553SOL    HW123993   9.900   3.981   0.784  0.8283  0.7110 -0.9641
 4553SOL    HW223994   9.812   4.114   0.753 -0.4511  0.1465  0.2090
 4554SOL     OW23995   8.030   9.868   2.261  0.2244  0.2529  0.1448
 4554SOL    HW123996   8.012   9.827   2.350  2.0858 -0.7926  0.0735
 4554SOL    HW223997   8.026   9.968   2.268 -1.0273  0.1359  1.0766
 4555SOL     OW23998   2.542   5.336   0.463 -0.0067 -0.3937  0.5470
 4555SOL    HW123999   2.585   5.387   0.537  0.5214 -2.0349  1.3863
 4555SOL    HW224000   2.456   5.296   0.495  0.0219 -0.7723  0.1596
 4556SOL     OW24001   0.297   4.114   0.525 -0.5770  0.8700 -0.3514
 4556SOL    HW124002   0.266   4.185   0.588 -0.1152  1.6057 -0.9541
 4556SOL    HW224003   0.260   4.131   0.434 -0.9723 -0.0105 -0.3637
 4557SOL     OW24004   0.243   2.761   3.281  0.7899  0.0420 -0.1777
 4557SOL    HW124005   0.198   2.695   3.221  0.1115  0.8004 -0.5329
 4557SOL    HW224006   0.221   2.854   3.249  1.8733  0.4317  0.2003
 4558SOL     OW24007   2.697   8.072   1.467  0.3611  0.1473  0.3667
 4558SOL    HW124008   2.745   8.123   1.396 -1.2238  1.3736  0.1436
 4558SOL    HW224009   2.632   8.009   1.425  0.1410  0.1535  0.6913
 4559SOL     OW24010   2.047   9.199   3.062  0.1238 -0.1103  0.3680
 4559SOL    HW124011   2.079   9.109   3.032 -0.6084 -0.5145  0.7744
 4559SOL    HW224012   2.081   9.269   2.999  1.2418 -0.5947  0.4290
 4560SOL     OW24013   9.177   7.129   3.263  0.1892 -0.0403 -0.4814
 4560SOL    HW124014   9.122   7.206   3.231  0.6394  0.1907 -0.7048
 4560SOL    HW224015   9.182   7.131   3.363 -2.9433 -1.9401 -0.2242
 4561SOL     OW24016   7.456   9.378   3.112 -0.2740  0.3292 -0.3988
 4561SOL    HW124017   7.492   9.435   3.186 -1.4673  0.6303 -0.0369
 4561SOL    HW224018   7.396   9.433   3.054 -0.9188 -0.3992 -0.4254
 4562SOL     OW24019   1.427   7.135   2.819 -0.7949 -0.2552  0.0599
 4562SOL    HW124020   1.468   7.192   2.890 -2.3707  0.5612  0.3562
 4562SOL    HW224021   1.434   7.039   2.845 -0.3170 -0.0303  0.7625
 4563SOL     OW24022   9.210   7.038   1.946 -0.1412 -0.0661 -0.0268
 4563SOL    HW124023   9.156   7.121   1.957  0.8199  0.3013  1.9961
 4563SOL    HW224024   9.179   6.969   2.011  1.0234 -0.2653  0.3202
 4564SOL     OW24025   8.562   7.018   2.945  0.2996 -0.2937  0.5244
 4564SOL    HW124026   8.565   7.075   3.028 -3.1111  1.0816 -0.2078
 4564SOL    HW224027   8.648   7.030   2.894  0.4654  2.7483  1.3632
 4565SOL     OW24028   7.975   6.216   1.799  0.5961  0.5595 -0.4440
 4565SOL    HW124029   8.058   6.210   1.855  0.0249 -1.5759  0.1917
 4565SOL    HW224030   7.911   6.144   1.826 -1.5452  2.2734 -0.8159
 4566SOL     OW24031   3.252   6.750   1.042 -0.3568 -0.6418  0.0470
 4566SOL    HW124032   3.282   6.748   0.947  0.2470 -0.0801  0.2233
 4566SOL    HW224033   3.253   6.657   1.079 -1.0066 -0.9179 -0.6230
 4567SOL     OW24034   2.499   5.520   3.278 -0.3472  0.1652 -0.3526
 4567SOL    HW124035   2.429   5.459   3.317  1.2320 -0.8401  0.9769
 4567SOL    HW224036   2.506   5.602   3.334 -0.3277  0.1895 -0.3899
 4568SOL     OW24037   1.800   9.159   2.473 -0.6572 -0.2005 -0.3775
 4568SOL    HW124038   1.866   9.111   2.530  1.2378  0.4310 -2.0107
 4568SOL    HW224039   1.769   9.099   2.399 -2.6586 -0.8179  0.9293
 4569SOL     OW24040   0.794   2.810   3.140 -0.3459  0.2268  0.1416
 4569SOL    HW124041   0.840   2.721   3.150 -1.0723 -0.4303 -2.0354
 4569SOL    HW224042   0.706   2.807   3.187  0.6336  0.5646  2.0055
 4570SOL     OW24043   3.443   9.486   3.171  0.4543  0.7979 -0.3442
 4570SOL    HW124044   3.378   9.522   3.238 -0.7826 -1.4550 -0.2657
 4570SOL    HW224045   3.441   9.543   3.089  1.4821  3.1844  1.2503
 4571SOL     OW24046   2.777   7.165   1.385 -0.2945 -0.1474 -0.0041
 4571SOL    HW124047   2.827   7.228   1.326 -0.8901 -0.0171 -0.3762
 4571SOL    HW224048   2.679   7.179   1.372 -0.4392 -1.7862 -0.7711
 4572SOL     OW24049   9.680   3.430   2.807 -0.2426 -0.1627  0.5838
 4572SOL    HW124050   9.758   3.493   2.799 -0.5583  0.1772  0.1696
 4572SOL    HW224051   9.634   3.423   2.719 -1.8171  1.0987  1.2931
 4573SOL     OW24052   3.652   9.568   1.148 -0.0168  0.1695  0.3104
 4573SOL    HW124053   3.720   9.560   1.076  0.3566  1.1248  0.5406
 4573SOL    HW224054   3.589   9.491   1.144 -0.3969  0.5624 -1.4441
 4574SOL     OW24055   3.718   9.466   3.362  0.0617 -0.4587  0.3762
 4574SOL    HW124056   3.653   9.475   3.437 -1.2450 -0.9650 -0.6939
 4574SOL    HW224057   3.694   9.389   3.305 -0.1687  1.1565 -1.7604
 4575SOL     OW24058   2.085   7.393   2.994 -0.2193 -0.1980 -0.4555
 4575SOL    HW124059   2.047   7.356   2.909 -2.8696  0.1520  0.5370
 4575SOL    HW224060   2.064   7.331   3.070  3.1630 -1.1207 -0.1685
 4576SOL     OW24061   3.931   8.696   2.067 -0.1324 -0.5411 -0.3147
 4576SOL    HW124062   3.855   8.653   2.116 -0.2570  1.0414  0.8832
 4576SOL    HW224063   3.899   8.778   2.020  1.2225  1.2488  1.8074
 4577SOL     OW24064   9.600   0.241   2.760  0.2795 -0.3526  0.3512
 4577SOL    HW124065   9.513   0.285   2.739  1.1245  0.5390 -1.3486
 4577SOL    HW224066   9.676   0.301   2.735  1.4343 -2.1454 -0.6336
 4578SOL     OW24067   3.581   8.212   2.660  0.2598  0.3904  0.2365
 4578SOL    HW124068   3.585   8.267   2.577  0.1341  0.3404  0.1969
 4578SOL    HW224069   3.512   8.140   2.649  0.8858 -0.1888  0.0264
 4579SOL     OW24070   3.222   8.697   3.363 -0.3221  0.2588 -0.1383
 4579SOL    HW124071   3.319   8.722   3.356  0.3470 -2.7063 -2.4543
 4579SOL    HW224072   3.214   8.598   3.373 -3.0972  0.6115  1.4484
 4580SOL     OW24073   2.939   3.597   1.365  0.2503  0.5832 -0.4199
 4580SOL    HW124074   3.005   3.672   1.370 -0.4022  1.1437 -0.1087
 4580SOL    HW224075   2.971   3.521   1.422  1.2783  0.3334 -1.3113
 4581SOL     OW24076   0.739   8.565   1.122  0.0975  0.0399 -0.1425
 4581SOL    HW124077   0.800   8.617   1.063  0.5275 -1.0302 -0.6525
 4581SOL    HW224078   0.733   8.471   1.089 -3.4818  0.6141 -1.3445
 4582SOL     OW24079   8.660   3.849   1.817 -0.3743  0.3850  0.5590
 4582SOL    HW124080   8.734   3.887   1.762  0.7728 -4.4133 -1.3886
 4582SOL    HW224081   8.573   3.863   1.771  0.0735  0.2663 -0.3221
 4583SOL     OW24082   9.928   6.908   0.462 -0.1009 -0.0202  1.1271
 4583SOL    HW124083   9.982   6.851   0.524  1.7548  1.8322  1.2944
 4583SOL    HW224084   9.835   6.917   0.497 -0.4577 -2.9777  1.0380
 4584SOL     OW24085   2.050   6.659   0.460  0.7140  0.2652  0.1601
 4584SOL    HW124086   2.088   6.600   0.389  2.1986  0.8753  0.4274
 4584SOL    HW224087   2.083   6.629   0.549  0.1639  0.4973  0.4458
 4585SOL     OW24088   1.937   5.059   1.014  0.1110  0.8196  0.3241
 4585SOL    HW124089   1.849   5.106   1.013 -0.4117 -0.1349 -1.1496
 4585SOL    HW224090   2.011   5.124   0.994 -0.1913  1.7177  2.0591
 4586SOL     OW24091   9.731   0.341   0.205 -0.2251  0.1323  0.6489
 4586SOL    HW124092   9.797   0.309   0.137  0.7801 -0.8788  2.0719
 4586SOL    HW224093   9.683   0.263   0.245 -1.4595  0.7791  0.4715
 4587SOL     OW24094   0.323   4.914   0.244 -0.5986 -0.4892 -0.0536
 4587SOL    HW124095   0.282   5.005   0.239 -0.3356 -0.4078 -0.7060
 4587SOL    HW224096   0.415   4.916   0.205 -1.1748 -1.3712 -1.5059
 4588SOL     OW24097   1.286   4.763   1.831 -0.0425  0.0646  0.1906
 4588SOL    HW124098   1.262   4.757   1.734 -1.1779 -0.6069  0.5034
 4588SOL    HW224099   1.215   4.718   1.886  0.6785  0.2834  1.3205
 4589SOL     OW24100   8.809   9.230   1.362  0.5918  0.0380 -0.0181
 4589SOL    HW124101   8.717   9.202   1.335  0.2669  0.2644  0.8243
 4589SOL    HW224102   8.841   9.171   1.436  1.2419 -0.2223 -0.5043
 4590SOL     OW24103   3.205   5.660   2.078  0.7404 -0.2819 -0.2574
 4590SOL    HW124104   3.238   5.751   2.051  1.1731 -0.2926  0.2279
 4590SOL    HW224105   3.115   5.644   2.039  0.6373  0.3846 -0.2885
 4591SOL     OW24106   4.210   8.431   0.066  0.1345  0.0957 -0.1254
 4591SOL    HW124107   4.172   8.342   0.090  2.8738 -0.9420  0.4848
 4591SOL    HW224108   4.276   8.459   0.135 -1.0228  2.8601 -0.0561
 4592SOL     OW24109   2.394   1.481   3.316 -0.0674 -0.1013 -0.0660
 4592SOL    HW124110   2.408   1.513   3.409 -0.6856 -1.4857  0.5178
 4592SOL    HW224111   2.483   1.466   3.272  0.2524 -1.2419  0.9450
 4593SOL     OW24112   1.340   0.277   3.377 -0.3218  0.1627 -0.5256
 4593SOL    HW124113   1.288   0.339   3.436 -0.5271  0.0077 -0.5462
 4593SOL    HW224114   1.403   0.331   3.321  0.3726  0.2605  0.3257
 4594SOL     OW24115   2.099   3.969   3.300  0.4760 -0.6563  0.2415
 4594SOL    HW124116   2.160   4.021   3.359  3.8032 -1.0897 -2.6330
 4594SOL    HW224117   2.102   3.872   3.324  0.8248 -0.6545  0.2030
 4595SOL     OW24118   4.004   5.041   3.079 -0.4702  0.1161  0.2782
 4595SOL    HW124119   3.956   5.102   3.017 -0.3377  0.4359  0.4910
 4595SOL    HW224120   4.010   4.949   3.038 -1.9261 -0.1199  0.5713
 4596SOL     OW24121   4.770   9.488   2.574  0.0824  0.0594 -0.1056
 4596SOL    HW124122   4.714   9.569   2.595  0.9976  0.3389  1.3698
 4596SOL    HW224123   4.752   9.459   2.480  0.1966  2.3504 -0.8769
 4597SOL     OW24124   4.481   0.726   1.793  0.8425  0.0090 -0.2623
 4597SOL    HW124125   4.458   0.780   1.712  0.0421 -2.0089 -1.4130
 4597SOL    HW224126   4.399   0.713   1.849  1.2611  0.8650  0.5652
 4598SOL     OW24127   2.663   3.669   1.462 -0.0891  0.0287  0.1768
 4598SOL    HW124128   2.712   3.726   1.529  1.0029 -1.0557  0.3268
 4598SOL    HW224129   2.636   3.725   1.384  2.8138  0.3671 -0.6573
 4599SOL     OW24130   2.454   4.423   1.298  0.0156 -0.0582  1.1786
 4599SOL    HW124131   2.479   4.460   1.208  0.7370 -0.0934  1.3585
 4599SOL    HW224132   2.359   4.392   1.296  0.7186 -2.2568 -0.3029
 4600SOL     OW24133   2.372   8.238   2.618 -0.1709 -0.0375 -0.1560
 4600SOL    HW124134   2.276   8.265   2.620 -0.2539 -0.3512  0.7306
 4600SOL    HW224135   2.430   8.318   2.603 -0.5768  0.1282 -0.8455
 4601SOL     OW24136   4.817   9.843   1.582 -0.4931 -0.5921 -0.5460
 4601SOL    HW124137   4.723   9.878   1.576  0.0069  1.0118  0.5457
 4601SOL    HW224138   4.856   9.839   1.490 -1.5111 -0.9338 -0.9721
 4602SOL     OW24139   2.891   0.404   2.615  0.3516  0.0372  0.2404
 4602SOL    HW124140   2.907   0.490   2.568  0.9192  0.5782  1.3864
 4602SOL    HW224141   2.793   0.384   2.618  0.1679  0.9655  0.5181
 4603SOL     OW24142   8.564   9.887   1.091  0.2558  0.1488  0.4357
 4603SOL    HW124143   8.515   9.969   1.121  0.1636  0.2355  0.0440
 4603SOL    HW224144   8.632   9.911   1.023 -0.0664 -0.1578 -0.0007
 4604SOL     OW24145   0.593   6.112   2.790  0.0886  0.7596  0.2182
 4604SOL    HW124146   0.539   6.161   2.859 -0.8169  1.4623 -0.9607
 4604SOL    HW224147   0.643   6.177   2.734  0.4399  0.2232 -0.0987
 4605SOL     OW24148   3.587   2.364   3.227 -0.3604 -0.0800  0.6496
 4605SOL    HW124149   3.568   2.335   3.133  0.0092  0.4534  0.4129
 4605SOL    HW224150   3.660   2.307   3.265  0.9924  1.1275 -0.1235
 4606SOL     OW24151   0.211   3.499   3.072  0.4211 -0.1227 -0.1839
 4606SOL    HW124152   0.191   3.459   3.162  0.5268  1.0135  0.3526
 4606SOL    HW224153   0.260   3.432   3.017 -2.3960 -1.9763 -0.5541
 4607SOL     OW24154   1.259   6.990   3.015 -0.3464 -0.9033  0.0215
 4607SOL    HW124155   1.341   7.042   3.039 -1.7438  1.2075  0.3354
 4607SOL    HW224156   1.212   6.962   3.099 -1.2144 -0.0216 -0.1620
 4608SOL     OW24157   1.766   9.484   1.951 -0.3277  0.0395 -0.2641
 4608SOL    HW124158   1.719   9.402   1.982  0.0579 -0.0019  0.2191
 4608SOL    HW224159   1.859   9.460   1.921 -0.7305  0.0531 -1.5692
 4609SOL     OW24160   1.678   3.941   2.725 -0.2170  0.3325  0.1017
 4609SOL    HW124161   1.720   3.991   2.800 -0.1283  0.7392 -0.2153
 4609SOL    HW224162   1.629   4.005   2.665  1.3775  0.3022 -1.2876
 4610SOL     OW24163   9.595   2.084   0.603  0.3118 -0.0243 -0.0125
 4610SOL    HW124164   9.574   2.057   0.509 -0.3738  0.8263 -0.1031
 4610SOL    HW224165   9.605   2.002   0.659 -1.4862 -0.4867 -0.3452
 4611SOL     OW24166   7.288   8.372   2.805 -0.1450 -0.4129  0.4830
 4611SOL    HW124167   7.195   8.394   2.835 -0.7176 -0.6877 -1.0155
 4611SOL    HW224168   7.337   8.456   2.783 -0.5136 -0.3340 -0.0476
 4612SOL     OW24169   0.574   0.274   0.580  0.2954  0.0671  0.0115
 4612SOL    HW124170   0.594   0.340   0.507 -2.1633  1.9912  1.0150
 4612SOL    HW224171   0.632   0.294   0.659  1.8517 -1.0426 -0.8217
 4613SOL     OW24172   1.198   1.712   1.626  0.3589  0.0382 -0.2500
 4613SOL    HW124173   1.148   1.655   1.561 -0.4663 -0.7634  1.0560
 4613SOL    HW224174   1.278   1.662   1.660 -0.4153 -0.4068  0.9648
 4614SOL     OW24175   8.595   4.860   3.201  0.0895 -0.4771  0.1626
 4614SOL    HW124176   8.539   4.870   3.282  0.6832  1.8626  0.3282
 4614SOL    HW224177   8.565   4.925   3.131  0.4461 -1.5337 -1.0039
 4615SOL     OW24178   2.295   9.191   2.825 -0.2001  0.5616 -0.4658
 4615SOL    HW124179   2.320   9.287   2.841  0.8085  0.4599 -1.4057
 4615SOL    HW224180   2.354   9.152   2.755 -0.9625 -0.6034 -0.4732
 4616SOL     OW24181   2.180   3.493   0.984  0.3582 -0.1081  0.6084
 4616SOL    HW124182   2.188   3.466   1.080 -0.6304 -0.4659  0.5940
 4616SOL    HW224183   2.084   3.506   0.960  0.3317 -2.8164 -1.0614
 4617SOL     OW24184   0.218   6.323   0.499 -0.4284 -0.2343  0.0788
 4617SOL    HW124185   0.192   6.415   0.527 -0.9840 -0.4738  0.3524
 4617SOL    HW224186   0.236   6.267   0.580 -2.5571 -1.0789  0.0222
 4618SOL     OW24187   1.894   3.144   3.222  0.1546 -0.2448  0.3312
 4618SOL    HW124188   1.979   3.179   3.182 -0.3014  0.1147 -0.3238
 4618SOL    HW224189   1.883   3.182   3.314  0.1666  0.5557  0.0104
 4619SOL     OW24190   0.343   3.329   1.087  0.1320 -0.1776 -0.7357
 4619SOL    HW124191   0.253   3.289   1.071 -0.1184  0.6642 -1.4049
 4619SOL    HW224192   0.398   3.322   1.004  0.1073  0.8254 -0.8350
 4620SOL     OW24193   4.379   7.755   1.230 -0.9855  0.2263  0.0163
 4620SOL    HW124194   4.280   7.759   1.241 -1.0067  0.7915 -0.3615
 4620SOL    HW224195   4.417   7.687   1.294 -1.5937  0.1122  0.2621
 4621SOL     OW24196   4.037   3.570   2.126 -0.2861 -0.0741  0.3153
 4621SOL    HW124197   3.955   3.547   2.178 -1.4030 -0.5780 -1.6053
 4621SOL    HW224198   4.096   3.489   2.122 -0.8268 -0.4508 -0.2996
 4622SOL     OW24199   4.630   2.857   2.083  0.1429 -0.3880  0.8548
 4622SOL    HW124200   4.578   2.942   2.094 -1.2980 -1.1121 -0.2042
 4622SOL    HW224201   4.706   2.873   2.020  0.1946  0.2494  1.0775
 4623SOL     OW24202   9.587   0.909   2.637 -0.0335 -0.4695  0.0204
 4623SOL    HW124203   9.499   0.896   2.593  0.4255 -1.1371 -0.7216
 4623SOL    HW224204   9.657   0.925   2.567  0.4019  0.2211  0.6104
 4624SOL     OW24205   4.098   1.538   3.169  0.1009 -0.6699 -0.4135
 4624SOL    HW124206   4.188   1.531   3.128  0.4079 -0.0761  0.1428
 4624SOL    HW224207   4.039   1.464   3.135  1.3528 -2.1784  0.6234
 4625SOL     OW24208   1.755   3.565   3.119 -0.4310 -0.3674 -0.1145
 4625SOL    HW124209   1.761   3.477   3.072 -0.4720  0.5646 -1.8800
 4625SOL    HW224210   1.697   3.627   3.067  0.8512  1.2262  0.3196
 4626SOL     OW24211   1.197   2.636   1.039  0.1688  0.3786  0.0750
 4626SOL    HW124212   1.110   2.604   1.075 -0.5232  1.3971 -0.6535
 4626SOL    HW224213   1.214   2.730   1.071  0.1032  0.8608 -1.2497
 4627SOL     OW24214   0.016   5.719   1.337 -0.4346  0.3188  0.0515
 4627SOL    HW124215   0.062   5.660   1.271 -0.1233  1.8755 -1.1317
 4627SOL    HW224216   0.080   5.743   1.410 -0.2640  0.0274  0.0006
 4628SOL     OW24217   4.930   9.850   2.366  0.9307 -0.7862 -0.1017
 4628SOL    HW124218   4.975   9.931   2.327  1.9279  0.3462  3.2639
 4628SOL    HW224219   4.831   9.856   2.348  1.0880  0.7841 -0.5931
 4629SOL     OW24220   8.852   1.592   1.537 -0.6137 -0.1027  0.0292
 4629SOL    HW124221   8.769   1.569   1.587 -0.8504 -0.1947 -0.4058
 4629SOL    HW224222   8.906   1.509   1.521 -0.3651 -0.0222  0.4397
 4630SOL     OW24223   8.985   0.645   1.061  0.7762  0.0266 -0.3576
 4630SOL    HW124224   8.939   0.575   1.005  1.5275  0.8020 -1.9615
 4630SOL    HW224225   8.923   0.722   1.075  0.7544  0.0408 -0.5310
 4631SOL     OW24226   2.903   4.408   2.926 -0.8770  0.3485  0.1365
 4631SOL    HW124227   2.959   4.326   2.919  2.2365  2.2338  1.9057
 4631SOL    HW224228   2.899   4.454   2.838 -0.4864 -0.3107 -0.2253
 4632SOL     OW24229   9.592   9.640   0.293 -0.3227 -0.1953 -0.2769
 4632SOL    HW124230   9.508   9.608   0.248 -0.7365  0.7717 -0.2088
 4632SOL    HW224231   9.618   9.729   0.256  0.4988 -0.3441 -0.0675
 4633SOL     OW24232   3.060   4.275   0.929  0.7428 -0.0645  0.2101
 4633SOL    HW124233   3.066   4.250   1.025  2.0182  2.6732  0.8936
 4633SOL    HW224234   3.151   4.298   0.895  0.1491  0.0288 -1.3519
 4634SOL     OW24235   4.876   0.762   3.179 -0.7229 -0.3909 -0.4110
 4634SOL    HW124236   4.952   0.826   3.180 -0.4787 -0.6452 -2.2199
 4634SOL    HW224237   4.817   0.780   3.258  0.2538  0.9432  0.0325
 4635SOL     OW24238   3.134   7.847   1.427 -0.5788 -0.4599 -0.2666
 4635SOL    HW124239   3.152   7.939   1.461 -0.9187 -0.2711 -0.5946
 4635SOL    HW224240   3.044   7.816   1.457 -1.2037  0.0058 -1.5938
 4636SOL     OW24241   2.835   7.178   0.115 -0.5885  0.4397 -0.3993
 4636SOL    HW124242   2.825   7.277   0.105  0.3771  0.3627 -2.3735
 4636SOL    HW224243   2.783   7.132   0.042  0.7982 -0.4221 -0.8520
 4637SOL     OW24244   9.045   2.576   0.098  0.3950 -0.0336  0.5485
 4637SOL    HW124245   8.949   2.550   0.101  0.9625 -2.1887  0.7095
 4637SOL    HW224246   9.064   2.624   0.012 -0.6440 -0.2965  0.1695
 4638SOL     OW24247   0.911   1.358   0.448 -0.1530  0.4223  0.0742
 4638SOL    HW124248   0.925   1.289   0.377  0.8934  1.0474 -0.3394
 4638SOL    HW224249   0.871   1.315   0.528 -0.2089 -0.5282 -0.4530
 4639SOL     OW24250   2.511   2.710   0.801 -0.1739 -0.3895  0.0702
 4639SOL    HW124251   2.562   2.713   0.887 -1.8356  1.4224  1.0512
 4639SOL    HW224252   2.529   2.793   0.749  0.7709 -1.4534 -1.3335
 4640SOL     OW24253   0.337   7.445   0.868 -0.0590 -0.3955  0.0219
 4640SOL    HW124254   0.362   7.427   0.964 -1.3500 -1.0165  0.2591
 4640SOL    HW224255   0.340   7.359   0.817  1.1903  0.0334 -0.6403
 4641SOL     OW24256   2.507   1.601   2.303 -0.3347  0.4185 -0.0022
 4641SOL    HW124257   2.466   1.590   2.394 -1.3173  2.0761 -0.2308
 4641SOL    HW224258   2.484   1.691   2.266  2.3636  0.8753 -0.7276
 4642SOL     OW24259   1.236   8.209   2.599  0.1035  0.4586 -0.0515
 4642SOL    HW124260   1.230   8.309   2.605 -1.3020  0.3868 -0.0345
 4642SOL    HW224261   1.157   8.168   2.645  2.2120 -0.7689  2.6130
 4643SOL     OW24262   8.750   3.267   2.829 -0.2767 -0.1932  0.1102
 4643SOL    HW124263   8.826   3.310   2.879  0.2602 -0.0508 -0.8173
 4643SOL    HW224264   8.667   3.321   2.841 -0.7606 -1.3931  2.7753
 4644SOL     OW24265   8.912   1.042   2.013 -0.3643  0.3065 -0.3443
 4644SOL    HW124266   8.945   1.084   2.098 -0.3406  0.8895 -0.6430
 4644SOL    HW224267   8.950   1.090   1.935  0.5648 -0.9850 -0.6929
 4645SOL     OW24268   4.287   8.508   0.657 -0.1636  0.1326  0.0154
 4645SOL    HW124269   4.301   8.569   0.579 -0.2113  0.7026  0.4501
 4645SOL    HW224270   4.271   8.415   0.624 -0.0031  0.3369 -0.6472
 4646SOL     OW24271   2.691   0.145   2.261  0.6492 -0.1420 -0.3830
 4646SOL    HW124272   2.772   0.163   2.204 -0.1418 -0.5205 -1.6498
 4646SOL    HW224273   2.626   0.220   2.251  0.3060 -0.4307 -0.3325
 4647SOL     OW24274   9.848   5.801   0.970 -0.6486  0.0383 -1.2243
 4647SOL    HW124275   9.916   5.791   0.898 -2.3215 -0.8969 -2.7285
 4647SOL    HW224276   9.827   5.898   0.983  1.5955  0.3912 -0.1161
 4648SOL     OW24277   5.900   0.009   2.996  0.4433 -0.0699  0.0696
 4648SOL    HW124278   5.821   0.052   2.951 -1.5061 -1.5071  2.0683
 4648SOL    HW224279   5.898  -0.089   2.980  0.5063 -0.4183  2.0852
 4649SOL     OW24280   2.243   2.039   2.372  0.0171 -0.3982 -0.1811
 4649SOL    HW124281   2.154   2.001   2.397 -0.2904 -0.2037 -0.9610
 4649SOL    HW224282   2.230   2.110   2.302  0.6398  0.6694  0.7669
 4650SOL     OW24283   2.833   4.952   0.059  0.2969 -0.1981  0.6269
 4650SOL    HW124284   2.840   4.854   0.038  0.6507 -0.2409  0.9433
 4650SOL    HW224285   2.751   4.989   0.015  1.8068  0.0196 -2.1200
 4651SOL     OW24286   0.727   7.541   1.100  0.0802 -0.1493 -0.0127
 4651SOL    HW124287   0.646   7.543   1.042 -0.6187 -1.3336  0.8800
 4651SOL    HW224288   0.783   7.623   1.084 -1.8991  1.2760  0.2185
 4652SOL     OW24289   2.034   4.263   1.569 -0.0730 -0.4274 -0.0482
 4652SOL    HW124290   1.951   4.295   1.523  2.0885  2.3440 -2.1854
 4652SOL    HW224291   2.073   4.337   1.624  0.7533 -1.8501  1.3291
 4653SOL     OW24292   7.747   1.348   2.105  0.3239 -0.3366  0.4420
 4653SOL    HW124293   7.722   1.280   2.173 -0.0655 -0.4203  0.2202
 4653SOL    HW224294   7.738   1.440   2.145  3.7243 -0.4729  1.6887
 4654SOL     OW24295   0.597   6.217   1.717 -0.0093 -0.0369  0.1028
 4654SOL    HW124296   0.590   6.163   1.801  0.0434 -0.9341 -0.4651
 4654SOL    HW224297   0.693   6.226   1.691  0.0055  0.5811  0.3452
 4655SOL     OW24298   0.161   0.736   1.189  0.2649 -0.0214 -0.0982
 4655SOL    HW124299   0.116   0.823   1.205 -0.4029 -0.3998  0.1122
 4655SOL    HW224300   0.141   0.674   1.265  1.2976 -0.1365  0.0981
 4656SOL     OW24301   8.166   3.055   0.147 -0.4549  0.1159  0.0242
 4656SOL    HW124302   8.221   3.102   0.216 -0.6430 -1.3360  1.2088
 4656SOL    HW224303   8.219   3.047   0.062  0.8703 -0.5298  0.8831
 4657SOL     OW24304   9.305   8.955   2.484 -0.0359  0.2434 -0.2236
 4657SOL    HW124305   9.239   9.029   2.470 -0.9892 -0.6768 -0.6568
 4657SOL    HW224306   9.349   8.932   2.397 -0.3088 -0.2237 -0.2424
 4658SOL     OW24307   7.772   2.142   0.090 -0.5036  0.3164  0.0219
 4658SOL    HW124308   7.710   2.077   0.048  0.0582  0.0185 -0.3537
 4658SOL    HW224309   7.747   2.155   0.186 -0.5857 -0.4982  0.1118
 4659SOL     OW24310   9.780   4.505   1.178 -0.7626 -0.2234 -0.5019
 4659SOL    HW124311   9.774   4.405   1.186 -0.0172 -0.1343  1.4839
 4659SOL    HW224312   9.800   4.544   1.268 -0.4960  1.6787 -1.3701
 4660SOL     OW24313   1.172   9.250   2.335 -0.4175 -0.0962  0.3340
 4660SOL    HW124314   1.180   9.182   2.408 -0.1221  0.2599  0.6351
 4660SOL    HW224315   1.075   9.273   2.322 -0.5884 -1.1808 -0.3369
 4661SOL     OW24316   9.590   9.701   1.469  0.0234 -0.6356 -0.1602
 4661SOL    HW124317   9.540   9.667   1.390 -1.4025 -0.1357  0.5147
 4661SOL    HW224318   9.685   9.669   1.465 -0.7948 -3.1086 -0.5367
 4662SOL     OW24319   4.639   7.687   1.858  0.7443 -0.6083  0.1069
 4662SOL    HW124320   4.566   7.620   1.876 -1.0791  0.8788 -1.5359
 4662SOL    HW224321   4.698   7.694   1.939 -1.7813 -0.8012  2.0399
 4663SOL     OW24322   7.225   9.979   2.889  0.0347 -0.2151  0.4192
 4663SOL    HW124323   7.191  10.044   2.958 -1.3884 -0.6305  0.1250
 4663SOL    HW224324   7.209   9.886   2.920 -0.1421 -0.4108 -0.2518
 4664SOL     OW24325   2.049   3.379   2.486 -0.1351  0.6209  0.2454
 4664SOL    HW124326   1.958   3.383   2.527  0.1131  2.1363  0.6743
 4664SOL    HW224327   2.054   3.301   2.424 -1.7143  0.5023  0.2379
 4665SOL     OW24328   1.125   8.673   3.345  0.3638  0.1032 -0.5418
 4665SOL    HW124329   1.174   8.653   3.430  0.7238  2.1131 -0.2570
 4665SOL    HW224330   1.048   8.734   3.365 -0.1279 -0.1949 -1.5154
 4666SOL     OW24331   3.488   2.023   0.801 -0.0866 -0.0099 -0.1562
 4666SOL    HW124332   3.446   2.050   0.888 -1.0200  1.6563 -1.0977
 4666SOL    HW224333   3.487   2.100   0.738 -0.0652 -1.4011 -1.9049
 4667SOL     OW24334   3.307   3.585   1.033  0.5855 -0.2314  0.0730
 4667SOL    HW124335   3.314   3.584   0.934  1.8713 -0.5115  0.1647
 4667SOL    HW224336   3.388   3.630   1.072  0.1248 -0.1834  0.9983
 4668SOL     OW24337   8.962   2.582   1.171 -0.0256 -0.1536 -0.5228
 4668SOL    HW124338   8.975   2.493   1.128  0.1718  0.1353 -1.0630
 4668SOL    HW224339   9.051   2.622   1.193 -0.0510  0.6852 -1.8810
 4669SOL     OW24340   3.769   7.448   2.897  0.2597  0.2394  0.0310
 4669SOL    HW124341   3.785   7.447   2.799  2.0136  0.0453  0.2882
 4669SOL    HW224342   3.856   7.468   2.944 -0.8102  1.6384  1.4825
 4670SOL     OW24343   3.250   6.727   1.973  0.2668 -0.2716 -0.4197
 4670SOL    HW124344   3.150   6.728   1.975  0.2834  0.3590  0.3277
 4670SOL    HW224345   3.282   6.762   1.884 -0.1402  2.9536  0.6553
 4671SOL     OW24346   9.772   2.138   2.764 -0.0754  0.3883 -0.0378
 4671SOL    HW124347   9.831   2.124   2.684 -0.0580 -0.7510  0.1694
 4671SOL    HW224348   9.716   2.057   2.778  0.8279  0.0653  1.8601
 4672SOL     OW24349   4.298   0.879   1.033  0.2131 -0.4260  0.3095
 4672SOL    HW124350   4.353   0.941   1.090  0.6530 -1.3431  0.8838
 4672SOL    HW224351   4.225   0.932   0.988  0.9758  0.6253  0.2903
 4673SOL     OW24352   0.173   0.053   0.367 -0.2939 -0.4418  0.1128
 4673SOL    HW124353   0.160  -0.044   0.388  3.1580 -1.2369 -1.1802
 4673SOL    HW224354   0.243   0.091   0.428  0.7387  0.3704 -1.5577
 4674SOL     OW24355   8.807   3.032   1.621  0.0001  0.3464  0.4187
 4674SOL    HW124356   8.768   3.085   1.697 -1.8235 -2.2945  1.3946
 4674SOL    HW224357   8.846   2.947   1.656 -1.2241 -1.1062 -1.6186
 4675SOL     OW24358   4.513   2.485   1.369 -0.1003 -0.3965  0.2894
 4675SOL    HW124359   4.493   2.407   1.429 -0.1689 -1.3430 -0.9518
 4675SOL    HW224360   4.569   2.551   1.419 -1.6756 -0.3010  2.0054
 4676SOL     OW24361   9.149   7.319   1.994 -0.1548  0.0009  0.1588
 4676SOL    HW124362   9.204   7.402   1.995  1.2468 -0.9195  2.5368
 4676SOL    HW224363   9.067   7.333   2.049 -0.5957  0.2369 -0.5505
 4677SOL     OW24364   0.246   6.705   2.133  0.5626  0.3692 -0.3556
 4677SOL    HW124365   0.158   6.683   2.176  0.6612  0.3224 -0.1812
 4677SOL    HW224366   0.243   6.677   2.037 -0.8308  3.3671 -1.2682
 4678SOL     OW24367   7.968   2.164   3.212 -0.8481  0.2344  0.2814
 4678SOL    HW124368   7.897   2.183   3.280  0.8669  0.5172  2.0206
 4678SOL    HW224369   8.057   2.156   3.257 -0.1174 -2.6971 -1.5369
 4679SOL     OW24370   3.758   3.690   2.760  0.6423 -0.4958 -0.2302
 4679SOL    HW124371   3.661   3.686   2.783  0.7367  1.6909  0.6483
 4679SOL    HW224372   3.802   3.603   2.784 -1.1927 -1.7213 -1.1965
 4680SOL     OW24373   4.350   7.649   2.346 -0.4799  0.3866  0.0642
 4680SOL    HW124374   4.341   7.565   2.399 -1.0097  0.7917  0.6213
 4680SOL    HW224375   4.355   7.728   2.408 -0.3959  0.8008 -0.4644
 4681SOL     OW24376   8.095   2.985   1.202  0.0095  0.3021  0.3053
 4681SOL    HW124377   8.046   2.935   1.131  1.1650  0.9865 -1.0098
 4681SOL    HW224378   8.112   2.925   1.280 -0.4482 -0.7387 -0.3910
 4682SOL     OW24379   9.819   5.499   1.175  0.2192  0.2446 -0.2737
 4682SOL    HW124380   9.860   5.580   1.135  0.1579  0.5683  0.3107
 4682SOL    HW224381   9.752   5.526   1.244  0.5023 -0.3073  0.2226
 4683SOL     OW24382   2.638   7.449   2.561 -0.1017  0.3277  0.1805
 4683SOL    HW124383   2.690   7.399   2.630  0.1020  0.3237  0.0239
 4683SOL    HW224384   2.555   7.399   2.539 -0.5588  0.7086  0.9958
 4684SOL     OW24385   8.954   2.653   3.264  0.2017  0.2818 -0.5947
 4684SOL    HW124386   8.882   2.722   3.272  0.1904  0.3679 -1.3933
 4684SOL    HW224387   8.912   2.562   3.261  0.2961  0.0750  2.2856
 4685SOL     OW24388   3.606   9.932   2.941  0.1708 -0.2751  0.1504
 4685SOL    HW124389   3.692   9.981   2.956 -0.9790  1.8102  0.2616
 4685SOL    HW224390   3.613   9.876   2.859  1.4939  0.2311 -0.0989
 4686SOL     OW24391   2.120   4.868   0.548  0.3723  0.4944 -0.8399
 4686SOL    HW124392   2.170   4.954   0.537 -0.9096  1.3201 -0.3260
 4686SOL    HW224393   2.071   4.869   0.636 -1.7741  0.3465 -1.9999
 4687SOL     OW24394   1.643   4.823   1.416  0.0534  0.7279  0.8791
 4687SOL    HW124395   1.549   4.845   1.388  0.7194  1.4614 -0.8614
 4687SOL    HW224396   1.693   4.908   1.431  0.3955  0.3338  1.9742
 4688SOL     OW24397   9.180   1.780   0.739 -0.1593  0.5051 -0.2135
 4688SOL    HW124398   9.244   1.735   0.677 -0.5883 -0.2985 -0.0901
 4688SOL    HW224399   9.230   1.813   0.820  0.1981  0.4419 -0.4068
 4689SOL     OW24400   2.693   8.924   0.250 -0.1881 -0.1146  0.3119
 4689SOL    HW124401   2.681   8.941   0.348 -0.0275 -0.2891  0.3617
 4689SOL    HW224402   2.641   8.842   0.224 -0.4224  0.0670  0.2040
 4690SOL     OW24403   2.511   8.680   2.505 -0.5681 -0.3022  0.1066
 4690SOL    HW124404   2.540   8.602   2.449 -0.2830 -0.2575  0.1933
 4690SOL    HW224405   2.443   8.650   2.572 -2.7437  0.0905 -1.8532
 4691SOL     OW24406   3.117   9.406   1.162 -0.5688  0.1187 -0.5368
 4691SOL    HW124407   3.060   9.476   1.206 -0.2814 -0.7408  1.2305
 4691SOL    HW224408   3.073   9.317   1.169 -0.3964 -0.0751 -1.7863
 4692SOL     OW24409   1.548   4.046   2.524  0.4605 -0.3483 -0.3939
 4692SOL    HW124410   1.507   4.135   2.503 -0.3112 -1.0650 -2.0160
 4692SOL    HW224411   1.641   4.043   2.486  0.5850 -0.1338 -0.1053
 4693SOL     OW24412   3.525   5.908   3.314 -0.6416  0.0448  0.1158
 4693SOL    HW124413   3.575   5.833   3.357  0.2190  0.0167 -0.9003
 4693SOL    HW224414   3.586   5.956   3.251 -0.9737  2.0572  1.2963
 4694SOL     OW24415   9.834   6.951   2.579  0.0331  0.0200  0.5075
 4694SOL    HW124416   9.823   6.951   2.480 -0.2157 -1.3428  0.5231
 4694SOL    HW224417   9.923   6.910   2.603 -0.6917 -1.3788  0.9002
 4695SOL     OW24418   7.859   8.271   2.037  0.1705 -0.0115  0.0765
 4695SOL    HW124419   7.769   8.260   1.994  0.3042 -1.1851  0.0834
 4695SOL    HW224420   7.918   8.327   1.978 -0.0119 -0.6661 -0.7361
 4696SOL     OW24421   0.438   7.716   1.600 -0.6411 -0.1874 -0.3331
 4696SOL    HW124422   0.490   7.772   1.535 -2.3814 -0.2275 -1.7898
 4696SOL    HW224423   0.447   7.619   1.576  0.9427 -0.4277  1.1454
 4697SOL     OW24424   9.185   9.414   0.807  0.3846 -0.5952  0.2166
 4697SOL    HW124425   9.236   9.355   0.870  2.5383  2.4282  1.4210
 4697SOL    HW224426   9.243   9.438   0.729 -0.6310 -0.4136 -0.4927
 4698SOL     OW24427   8.422   7.854   2.600 -0.3789 -0.5003 -0.3140
 4698SOL    HW124428   8.368   7.885   2.522  0.4533 -2.0386 -1.5318
 4698SOL    HW224429   8.519   7.854   2.575 -0.0036  0.1810  1.1354
 4699SOL     OW24430   9.453   0.703   2.380 -0.1570 -0.2554 -0.1262
 4699SOL    HW124431   9.483   0.612   2.411  0.2501  0.0618  0.4196
 4699SOL    HW224432   9.533   0.761   2.367 -0.5303  0.6366  1.4573
 4700SOL     OW24433   3.548   4.312   1.824 -0.2641 -0.1992 -0.2336
 4700SOL    HW124434   3.596   4.277   1.904 -1.1153 -1.5284 -0.2940
 4700SOL    HW224435   3.528   4.409   1.837  0.8595 -0.0602  0.5414
 4701SOL     OW24436   1.016   1.343   2.741  0.1381  0.6338 -0.0679
 4701SOL    HW124437   0.929   1.323   2.696 -1.0403 -0.7309  2.6769
 4701SOL    HW224438   1.006   1.424   2.798  0.7214  0.6014  0.0850
 4702SOL     OW24439   9.566   4.463   1.947 -0.3004  0.4892 -0.3849
 4702SOL    HW124440   9.657   4.421   1.942 -0.6425 -0.0313 -3.5672
 4702SOL    HW224441   9.496   4.392   1.951 -0.5797  0.8900  2.0069
 4703SOL     OW24442   8.609   8.689   2.358 -0.2554  0.5566 -0.3229
 4703SOL    HW124443   8.654   8.774   2.386  0.0442  0.3509 -0.1785
 4703SOL    HW224444   8.570   8.644   2.439 -0.8059  0.7817 -0.4575
 4704SOL     OW24445   0.522   1.125   1.174  0.3384  0.1447 -0.2339
 4704SOL    HW124446   0.500   1.043   1.122  1.1030  1.2018 -2.2849
 4704SOL    HW224447   0.609   1.163   1.141  0.2798  1.4708  1.0747
 4705SOL     OW24448   0.071   4.373   2.020  0.6030 -0.6024  0.1220
 4705SOL    HW124449   0.070   4.335   2.112 -0.1597  0.7463  0.6819
 4705SOL    HW224450   0.158   4.351   1.976  0.2211 -2.9100  0.4477
 4706SOL     OW24451   0.305   1.792   1.910  0.7511  0.2425  0.5319
 4706SOL    HW124452   0.326   1.888   1.930  0.6904 -0.0120  1.8785
 4706SOL    HW224453   0.386   1.748   1.871  1.0911  0.6084  0.8125
 4707SOL     OW24454   1.814   9.817   2.839  0.2132 -0.2710 -0.4083
 4707SOL    HW124455   1.800   9.767   2.754 -0.7741  0.9888 -0.9981
 4707SOL    HW224456   1.744   9.791   2.905  0.2925 -0.4036 -0.3763
 4708SOL     OW24457   8.840   8.578   2.270  0.2310  0.2185 -0.1058
 4708SOL    HW124458   8.831   8.531   2.183  0.3012  1.4263 -0.7738
 4708SOL    HW224459   8.764   8.642   2.282 -0.0603 -0.3132  0.9531
 4709SOL     OW24460   1.961   8.841   2.884  0.0106  0.8895  0.0071
 4709SOL    HW124461   2.052   8.819   2.921  0.2834  1.5087 -0.2876
 4709SOL    HW224462   1.898   8.859   2.959  0.3006  1.1057  0.2004
 4710SOL     OW24463   2.924   5.758   3.016  0.1410  0.7605  0.0505
 4710SOL    HW124464   2.837   5.761   3.065  0.1553  1.9923  0.0097
 4710SOL    HW224465   2.996   5.800   3.071  0.5944  0.2998 -0.1735
 4711SOL     OW24466   1.579   5.955   3.378  0.5384  0.0546  0.0461
 4711SOL    HW124467   1.554   5.950   3.474 -0.4181  1.5912 -0.0973
 4711SOL    HW224468   1.677   5.973   3.370  0.9612 -1.9167  0.6895
 4712SOL     OW24469   0.847   6.204   1.541  0.1392  0.2861  0.8430
 4712SOL    HW124470   0.864   6.260   1.460 -1.2884 -0.7670 -0.2109
 4712SOL    HW224471   0.788   6.127   1.516  0.1061 -0.3283  2.7798
 4713SOL     OW24472   3.915   5.440   0.028 -0.7738 -0.2090 -0.7539
 4713SOL    HW124473   3.962   5.384   0.096 -0.7115 -1.0277 -1.4648
 4713SOL    HW224474   3.816   5.439   0.046 -0.6144  0.8681  0.2645
 4714SOL     OW24475   4.938   1.693   1.732 -0.3283 -0.2740  0.0613
 4714SOL    HW124476   4.970   1.785   1.754 -1.6471  0.0974  0.4276
 4714SOL    HW224477   4.944   1.679   1.633 -1.6554  0.8030 -0.1934
 4715SOL     OW24478   0.500   8.503   2.169  0.2413  0.0431  0.1985
 4715SOL    HW124479   0.592   8.508   2.130  0.5057 -1.0595  0.6543
 4715SOL    HW224480   0.506   8.482   2.267 -0.5119 -0.7020  0.0928
 4716SOL     OW24481   1.559   1.718   2.811 -0.0402  0.0366 -0.2968
 4716SOL    HW124482   1.569   1.681   2.903  0.1730 -0.2405 -0.4293
 4716SOL    HW224483   1.631   1.785   2.794 -1.5545  1.9646  0.6308
 4717SOL     OW24484   2.822   1.029   2.173 -0.0244 -0.2249 -0.6031
 4717SOL    HW124485   2.744   1.058   2.228 -0.0392 -0.3808 -0.5417
 4717SOL    HW224486   2.864   0.948   2.214 -0.3033 -0.6059 -1.0591
 4718SOL     OW24487   4.391   0.139   3.284  0.1309  0.3586 -0.7394
 4718SOL    HW124488   4.301   0.116   3.247  0.5894 -1.2643 -0.8503
 4718SOL    HW224489   4.447   0.180   3.212 -0.1565  0.3975 -0.9416
 4719SOL     OW24490   9.330   6.192   2.550  0.4070  0.0439  0.3352
 4719SOL    HW124491   9.347   6.280   2.594  0.8248 -0.4627  1.1854
 4719SOL    HW224492   9.413   6.162   2.502  0.4176 -0.1166  0.4507
 4720SOL     OW24493   3.001   3.947   0.457  0.4067  0.0165 -0.6131
 4720SOL    HW124494   3.044   4.033   0.431  1.7192 -0.6159 -0.5830
 4720SOL    HW224495   2.905   3.948   0.431  0.9832  0.5528 -2.7878
 4721SOL     OW24496   1.928   3.521   1.508  0.7256 -0.1467  0.2175
 4721SOL    HW124497   2.005   3.535   1.571 -0.2538  2.2854  0.9273
 4721SOL    HW224498   1.952   3.449   1.442  3.1403 -0.2733  1.1684
 4722SOL     OW24499   9.571   7.998   0.022 -0.0180 -0.1520 -0.0646
 4722SOL    HW124500   9.510   7.969   0.096  0.3999  2.3296  1.3247
 4722SOL    HW224501   9.620   8.080   0.050  1.7003 -0.3527 -2.3434
 4723SOL     OW24502   0.867   1.551   1.234 -0.1822  0.7296  0.4530
 4723SOL    HW124503   0.811   1.625   1.271 -0.9145 -0.6230  2.1635
 4723SOL    HW224504   0.855   1.470   1.291 -1.1726 -1.4180 -2.7073
 4724SOL     OW24505   9.848   8.840   2.737 -0.5742 -0.0015  0.2773
 4724SOL    HW124506   9.905   8.906   2.689 -0.0867 -1.0849 -0.6412
 4724SOL    HW224507   9.817   8.770   2.673  0.1393 -1.5054  1.5472
 4725SOL     OW24508   3.454   4.024   1.745 -0.2076 -0.3446 -0.0394
 4725SOL    HW124509   3.456   4.122   1.764 -2.2885 -0.2367 -0.2762
 4725SOL    HW224510   3.451   4.009   1.646 -1.2220 -0.6130  0.0300
 4726SOL     OW24511   3.444   5.466   0.301 -0.2878 -0.3696  0.4681
 4726SOL    HW124512   3.387   5.387   0.277  0.8859 -0.8422 -0.8242
 4726SOL    HW224513   3.417   5.545   0.247  0.6810 -0.7674 -0.6313
 4727SOL     OW24514   1.140   0.272   1.924 -0.0970 -0.2050 -0.4832
 4727SOL    HW124515   1.178   0.191   1.879 -1.4005 -1.0864 -0.0454
 4727SOL    HW224516   1.063   0.306   1.870 -0.1951  0.1282 -0.1318
 4728SOL     OW24517   2.088   5.484   0.561  0.1886  0.9067  0.0079
 4728SOL    HW124518   2.026   5.428   0.616 -0.1117  0.4626 -0.7728
 4728SOL    HW224519   2.057   5.483   0.466  1.7483  0.1708 -0.5071
 4729SOL     OW24520   0.921   9.446   2.110 -0.3500  0.8314 -0.3114
 4729SOL    HW124521   0.975   9.509   2.167 -0.6695  1.3533 -0.5837
 4729SOL    HW224522   0.918   9.356   2.154  0.3694  0.9195 -0.0728
 4730SOL     OW24523   0.048   9.875   2.017  0.5184  0.5442  0.3051
 4730SOL    HW124524   0.063   9.873   2.116 -0.5146  0.3064  0.4569
 4730SOL    HW224525   0.122   9.825   1.972  0.4481 -0.2154  1.0169
 4731SOL     OW24526   3.419   6.411   2.717  0.0981  0.2225  0.4357
 4731SOL    HW124527   3.362   6.329   2.706  1.7312 -0.9696  0.6464
 4731SOL    HW224528   3.364   6.486   2.754 -1.8120 -0.2936 -1.2832
 4732SOL     OW24529   2.073   9.863   2.214 -0.0122  0.0494 -0.1659
 4732SOL    HW124530   1.982   9.881   2.252  0.1082  0.3410 -0.0195
 4732SOL    HW224531   2.143   9.886   2.281  0.2797  2.4897 -1.2444
 4733SOL     OW24532   1.021   2.897   0.872 -0.0460  0.9637  0.0347
 4733SOL    HW124533   1.057   2.897   0.965  1.4652  1.0620 -0.5390
 4733SOL    HW224534   0.928   2.860   0.872 -0.4519  1.9195  1.7302
 4734SOL     OW24535   3.915   8.813   1.161 -0.3877  0.0329 -0.4529
 4734SOL    HW124536   3.827   8.795   1.117 -0.2873 -1.3612 -0.0997
 4734SOL    HW224537   3.972   8.869   1.101 -1.1823  0.2228 -1.0347
 4735SOL     OW24538   8.421   8.037   2.099  0.3477 -0.0512 -0.1400
 4735SOL    HW124539   8.482   8.108   2.062  0.3764 -1.0047 -1.9769
 4735SOL    HW224540   8.468   7.949   2.097 -0.9434 -0.7421 -1.2894
 4736SOL     OW24541   2.160   6.684   0.737  0.2612  0.1780  0.2048
 4736SOL    HW124542   2.100   6.743   0.792  1.3535  0.3740  1.2167
 4736SOL    HW224543   2.169   6.595   0.782 -0.1034 -0.2138 -0.4887
 4737SOL     OW24544   1.769   0.178   1.248  0.1959 -0.0435  0.1554
 4737SOL    HW124545   1.806   0.086   1.243 -2.9708 -1.3808  0.4475
 4737SOL    HW224546   1.705   0.193   1.173  1.2800  2.2392 -0.3783
 4738SOL     OW24547   7.386   9.188   2.385 -0.1322 -0.1671  0.4328
 4738SOL    HW124548   7.415   9.092   2.392 -1.0564 -0.4673  0.2145
 4738SOL    HW224549   7.431   9.242   2.456 -0.5632 -0.9949  1.3415
 4739SOL     OW24550   9.960   1.956   0.350  0.1896 -0.2813  0.8576
 4739SOL    HW124551   9.959   2.002   0.261  2.1714 -0.7791  0.5671
 4739SOL    HW224552   9.875   1.904   0.361 -0.2733  0.1506 -0.5371
 4740SOL     OW24553   2.516   6.126   2.542 -0.6543  0.4310  0.0402
 4740SOL    HW124554   2.604   6.089   2.514  0.3163  3.2441 -0.7907
 4740SOL    HW224555   2.443   6.074   2.498  0.5816 -1.5616  0.2827
 4741SOL     OW24556   1.602   3.431   1.215 -0.1852 -0.0719  0.1486
 4741SOL    HW124557   1.670   3.364   1.244 -0.4694 -1.4001 -2.1050
 4741SOL    HW224558   1.513   3.408   1.254 -0.7349 -2.3016 -2.3085
 4742SOL     OW24559   3.916   0.103   0.838  0.5508 -0.1917 -0.4686
 4742SOL    HW124560   3.945   0.186   0.885 -1.0553 -0.0529  0.3003
 4742SOL    HW224561   3.938   0.023   0.893  0.4836 -0.1600 -0.3965
 4743SOL     OW24562   9.908   1.318   2.055  0.2966  0.1353 -0.0394
 4743SOL    HW124563   9.862   1.407   2.052  0.6668  0.3995  1.6135
 4743SOL    HW224564   9.980   1.320   2.125  0.8855 -1.1876 -0.5897
 4744SOL     OW24565   5.444   0.184   3.175  0.2896  0.7676  0.2758
 4744SOL    HW124566   5.406   0.277   3.168 -2.2949 -0.1655  1.1287
 4744SOL    HW224567   5.543   0.187   3.164  0.1613  3.5391 -0.4597
 4745SOL     OW24568   4.231   0.882   2.104  0.5682  0.3364  0.1786
 4745SOL    HW124569   4.136   0.911   2.091  1.4528  2.5683 -1.7066
 4745SOL    HW224570   4.250   0.804   2.045 -0.2150 -0.4069  0.8980
 4746SOL     OW24571   9.094   8.112   2.312 -0.0259  0.3317 -0.5513
 4746SOL    HW124572   9.065   8.084   2.403  0.8172 -1.7256 -0.8988
 4746SOL    HW224573   9.185   8.154   2.318  0.5840 -0.9687 -0.6091
 4747SOL     OW24574   0.662   6.821   1.788 -0.3549  0.1711 -0.0454
 4747SOL    HW124575   0.667   6.765   1.871 -0.4334  0.7003  0.3250
 4747SOL    HW224576   0.754   6.838   1.754 -0.2857  0.4308  0.2659
 4748SOL     OW24577   4.429   9.886   3.432 -0.4059 -0.8518  0.0474
 4748SOL    HW124578   4.383   9.845   3.353  0.7458  0.5710 -1.3990
 4748SOL    HW224579   4.433   9.986   3.421 -1.6369 -0.4648  2.6778
 4749SOL     OW24580   2.109   3.981   1.810 -1.1811  0.1964  1.0100
 4749SOL    HW124581   2.201   3.997   1.846 -0.6957 -1.0948  0.3813
 4749SOL    HW224582   2.114   3.970   1.710 -1.9716 -0.1494  1.0046
 4750SOL     OW24583   9.949   7.184   0.490 -0.3664 -0.3098  0.2899
 4750SOL    HW124584  10.031   7.201   0.437  0.6370  0.0452  1.9201
 4750SOL    HW224585   9.934   7.085   0.499  0.0539 -0.3771  0.2382
 4751SOL     OW24586   0.160   7.071   0.095  0.0882  0.3930 -0.7762
 4751SOL    HW124587   0.254   7.060   0.062 -0.4037 -0.4545 -1.9161
 4751SOL    HW224588   0.096   7.038   0.025 -1.0901  1.7122 -0.3405
 4752SOL     OW24589   3.517   5.886   2.223 -0.2653 -0.0095  0.3140
 4752SOL    HW124590   3.514   5.985   2.231  1.0000  0.2024 -1.5920
 4752SOL    HW224591   3.545   5.846   2.311  1.9182  1.4835  0.3245
 4753SOL     OW24592   2.997   4.031   2.652 -0.4450 -0.2405  0.7305
 4753SOL    HW124593   2.985   4.130   2.661 -0.8818 -0.3473  1.3948
 4753SOL    HW224594   3.025   4.009   2.559 -0.3881  0.5070  0.5686
 4754SOL     OW24595   4.037   7.788   2.498 -0.1315  0.8860  0.5606
 4754SOL    HW124596   4.028   7.750   2.405 -0.0247  0.1953  0.8275
 4754SOL    HW224597   4.039   7.888   2.493  0.2690  0.8455 -0.2169
 4755SOL     OW24598   8.882   4.658   0.273 -0.2988 -0.3432  0.6246
 4755SOL    HW124599   8.980   4.649   0.294 -0.4055  1.6422  2.1871
 4755SOL    HW224600   8.864   4.625   0.180  1.9583 -0.2013  0.1126
 4756SOL     OW24601   8.602   9.456   0.387  0.1821  0.3263  1.3231
 4756SOL    HW124602   8.633   9.538   0.436  0.4893  0.5418  0.7791
 4756SOL    HW224603   8.638   9.458   0.294  1.0226 -0.9247  1.6110
 4757SOL     OW24604   5.049   8.911   0.004  0.0998  0.5363  0.4616
 4757SOL    HW124605   5.066   8.817   0.031  0.3331  0.5675  0.4213
 4757SOL    HW224606   5.134   8.953  -0.027 -0.4619  0.0251 -1.8044
 4758SOL     OW24607   1.776   4.301   1.486 -0.0197  0.2361 -0.7234
 4758SOL    HW124608   1.687   4.263   1.511 -0.1653  0.4146 -0.9657
 4758SOL    HW224609   1.765   4.398   1.461  0.1472  0.1102 -1.2985
 4759SOL     OW24610   3.700   6.820   2.629  0.2107  0.2827 -0.0325
 4759SOL    HW124611   3.671   6.725   2.616  0.6080  0.4060 -1.8021
 4759SOL    HW224612   3.759   6.848   2.554 -0.1558  2.0353  0.3226
 4760SOL     OW24613   0.781   2.623   1.649  0.4159 -0.6295  0.8575
 4760SOL    HW124614   0.878   2.625   1.674  0.1699  0.1094  1.7515
 4760SOL    HW224615   0.756   2.710   1.607 -0.0032 -0.6094  1.1543
 4761SOL     OW24616   0.171   7.646   1.092  0.0954 -0.1290  0.3933
 4761SOL    HW124617   0.248   7.710   1.096 -0.8024  0.9085  1.5006
 4761SOL    HW224618   0.164   7.597   1.179 -0.4460 -0.2870  0.2617
 4762SOL     OW24619   9.648   2.857   1.448 -0.3299  0.1122 -0.2286
 4762SOL    HW124620   9.687   2.824   1.362 -0.2222 -0.9860  0.2290
 4762SOL    HW224621   9.568   2.914   1.429 -0.1279  0.1155 -1.0663
 4763SOL     OW24622   4.051   8.989   0.999  0.0410 -0.1564  0.0210
 4763SOL    HW124623   3.989   9.026   0.929  0.0097 -0.2968 -0.0259
 4763SOL    HW224624   4.144   9.021   0.981  0.1846 -0.9084 -0.6022
 4764SOL     OW24625   0.812   1.778   1.039  0.0665  0.6877 -0.7871
 4764SOL    HW124626   0.898   1.736   1.065  0.7819  2.3627 -0.3886
 4764SOL    HW224627   0.753   1.786   1.119  0.5573  1.8817 -0.5408
 4765SOL     OW24628   2.556   8.352   3.179  0.4029  0.1437 -0.0361
 4765SOL    HW124629   2.552   8.252   3.178  1.0915  0.1171 -0.9217
 4765SOL    HW224630   2.651   8.382   3.184  0.2718  0.7497 -1.0642
 4766SOL     OW24631   3.361   7.104   1.698  0.4246 -0.5365 -0.6780
 4766SOL    HW124632   3.429   7.177   1.695  1.3403 -1.4022 -0.8460
 4766SOL    HW224633   3.288   7.123   1.632  0.5181  0.3563 -0.5315
 4767SOL     OW24634   1.014   9.596   0.304 -0.4353  0.4939  0.4577
 4767SOL    HW124635   0.936   9.534   0.302  0.8476 -1.1484 -1.1144
 4767SOL    HW224636   1.053   9.603   0.212  0.1414  2.7556  0.8482
 4768SOL     OW24637   1.109   2.787   3.058  0.0259 -0.0784  0.1872
 4768SOL    HW124638   1.138   2.806   2.964 -1.3061  1.8574  0.1308
 4768SOL    HW224639   1.033   2.722   3.057  1.4049 -1.7454  0.0890
 4769SOL     OW24640   9.688   9.842   0.156  0.7740  0.5951 -0.1798
 4769SOL    HW124641   9.788   9.842   0.153  0.7853 -0.8814 -0.2187
 4769SOL    HW224642   9.652   9.858   0.064  1.0185 -3.4069 -1.0762
 4770SOL     OW24643   8.476   8.687   2.075  0.0793  0.3349 -0.2274
 4770SOL    HW124644   8.429   8.605   2.041  0.5127 -0.4083  0.9644
 4770SOL    HW224645   8.506   8.672   2.169 -0.0028  1.9326  0.0667
 4771SOL     OW24646   1.677   5.590   1.379 -0.2060  0.4897 -0.0678
 4771SOL    HW124647   1.761   5.536   1.389  0.3946  1.5020  0.4309
 4771SOL    HW224648   1.644   5.584   1.285  0.7571  0.5729 -0.4128
 4772SOL     OW24649   2.836   4.427   1.706  1.0422 -0.0076 -0.5948
 4772SOL    HW124650   2.842   4.384   1.796  0.5342 -2.1615 -1.5528
 4772SOL    HW224651   2.757   4.488   1.704  0.9563 -0.0770  0.3728
 4773SOL     OW24652   0.314   2.392   3.396 -0.4251  0.1930 -0.3136
 4773SOL    HW124653   0.401   2.375   3.441 -0.1612  1.0422 -0.5020
 4773SOL    HW224654   0.277   2.306   3.361 -1.1991 -0.7109  2.5045
 4774SOL     OW24655   8.889   3.933   1.718  0.1760  0.0768 -0.1857
 4774SOL    HW124656   8.949   3.933   1.638  0.1324  1.2885 -0.2328
 4774SOL    HW224657   8.944   3.943   1.801  0.3264 -2.4056  0.0375
 4775SOL     OW24658   8.282   4.896   0.725  0.0818  0.0678  0.3459
 4775SOL    HW124659   8.193   4.912   0.768 -0.8458 -1.3707 -0.9897
 4775SOL    HW224660   8.278   4.812   0.670  1.2424  1.8330 -2.5356
 4776SOL     OW24661   2.495   5.542   1.901  0.5579  0.0899  0.0388
 4776SOL    HW124662   2.490   5.592   1.814  1.8439 -0.3669 -0.3009
 4776SOL    HW224663   2.447   5.454   1.891  1.3768 -0.3081 -0.4583
 4777SOL     OW24664   9.927   3.350   3.113 -0.1411 -0.4935  0.1746
 4777SOL    HW124665   9.991   3.366   3.038  1.8374 -1.7993  1.5357
 4777SOL    HW224666   9.977   3.354   3.200 -2.5000  1.6891  1.4879
 4778SOL     OW24667   8.785   2.855   3.256  0.0489 -0.1186 -0.2200
 4778SOL    HW124668   8.686   2.854   3.244  0.1787  0.0104 -1.3421
 4778SOL    HW224669   8.829   2.883   3.171  0.9973  1.1596  0.6749
 4779SOL     OW24670   0.677   5.490   2.321 -0.0217  0.3179 -0.1398
 4779SOL    HW124671   0.630   5.402   2.328  0.6151  0.0373  0.8236
 4779SOL    HW224672   0.718   5.513   2.410 -0.7821  1.9308 -0.1931
 4780SOL     OW24673   2.508   1.923   1.957 -0.0273  0.0969 -0.1888
 4780SOL    HW124674   2.566   1.858   1.908  0.3325  0.7299 -0.6145
 4780SOL    HW224675   2.476   1.883   2.042 -0.5400 -0.9675 -0.8728
 4781SOL     OW24676   5.023   3.382   0.881 -0.1351  0.8430  0.0800
 4781SOL    HW124677   5.091   3.454   0.864  0.5831  0.5009  1.4665
 4781SOL    HW224678   5.011   3.369   0.979 -1.4157  0.1412 -0.1532
 4782SOL     OW24679   1.935   5.312   0.723 -0.0002  0.0642 -0.5882
 4782SOL    HW124680   1.927   5.257   0.640 -0.9831 -0.5827 -0.0749
 4782SOL    HW224681   1.845   5.350   0.747  0.5675  1.4573 -0.6416
 4783SOL     OW24682   9.644   3.970   2.456 -0.6323 -0.0604 -0.6080
 4783SOL    HW124683   9.671   3.876   2.477 -0.6750  0.2022  0.7287
 4783SOL    HW224684   9.637   3.982   2.357  0.6469 -1.0940 -0.8315
 4784SOL     OW24685   3.205   9.075   0.328 -0.0836  0.1123 -0.0309
 4784SOL    HW124686   3.211   8.984   0.286  1.0048 -0.9293  2.2717
 4784SOL    HW224687   3.129   9.125   0.287 -1.0150 -2.0177 -1.0139
 4785SOL     OW24688   0.271   5.996   1.247  0.2760  0.2269  1.0128
 4785SOL    HW124689   0.190   5.949   1.213  1.8924 -0.6358 -1.7804
 4785SOL    HW224690   0.344   5.930   1.264  1.1534  1.2414  1.2642
 4786SOL     OW24691   3.407   6.970   3.273 -0.0554 -0.0796  0.1995
 4786SOL    HW124692   3.386   6.907   3.348  0.1657  0.0548  0.3757
 4786SOL    HW224693   3.322   7.001   3.230 -0.1162 -2.3046 -1.3964
 4787SOL     OW24694   8.399   5.178   3.220 -0.3855  0.2047  0.0076
 4787SOL    HW124695   8.408   5.275   3.241  2.2334  0.1948 -0.8790
 4787SOL    HW224696   8.393   5.126   3.305 -0.5187  1.0181  0.5041
 4788SOL     OW24697   9.708   0.256   0.578  0.5035 -0.4340  0.0684
 4788SOL    HW124698   9.618   0.212   0.579  0.0233  0.5224 -0.7970
 4788SOL    HW224699   9.732   0.286   0.670  0.0158 -0.8539  0.3327
 4789SOL     OW24700   3.446   8.869   1.848 -0.7540 -0.1381  0.7628
 4789SOL    HW124701   3.447   8.770   1.837 -0.2991 -0.1308  0.7038
 4789SOL    HW224702   3.539   8.905   1.832 -1.6688  0.7065 -3.2575
 4790SOL     OW24703   7.896   0.528   1.624 -0.4499  0.1055  0.1188
 4790SOL    HW124704   7.972   0.468   1.599 -0.4662  0.0507  0.1970
 4790SOL    HW224705   7.865   0.580   1.544  0.0855  0.5959  0.2251
 4791SOL     OW24706   1.768   2.221   2.156  0.7167 -0.2304 -0.4353
 4791SOL    HW124707   1.815   2.260   2.077 -1.1203  0.1849 -1.3491
 4791SOL    HW224708   1.782   2.122   2.156  0.6370 -0.2492 -1.3511
 4792SOL     OW24709   9.605   4.236   1.279  0.1408 -0.0395 -0.4075
 4792SOL    HW124710   9.588   4.286   1.364 -1.2259 -0.2396 -0.5556
 4792SOL    HW224711   9.679   4.169   1.295 -0.3124 -0.2948  0.7082
 4793SOL     OW24712   1.364   0.991   3.272  0.3714  0.4571 -0.4910
 4793SOL    HW124713   1.418   1.062   3.316 -1.4932  1.4540  0.2211
 4793SOL    HW224714   1.354   1.011   3.174 -2.1132  2.4656  0.1308
 4794SOL     OW24715   3.075   7.346   0.345 -0.1084 -0.2790  0.1695
 4794SOL    HW124716   2.978   7.332   0.361 -0.5050  0.0509 -1.7409
 4794SOL    HW224717   3.091   7.442   0.322  0.3522 -0.7437 -1.5241
 4795SOL     OW24718   3.116   9.047   1.645  0.1132 -0.4575  0.2065
 4795SOL    HW124719   3.211   9.024   1.623  0.1650  0.7410 -0.9215
 4795SOL    HW224720   3.088   8.999   1.728  1.6204 -1.0248  0.4020
 4796SOL     OW24721   3.785   4.186   0.884  0.2968 -0.0072  0.0423
 4796SOL    HW124722   3.866   4.149   0.839  0.1888 -0.1953  0.0054
 4796SOL    HW224723   3.703   4.164   0.831 -0.0351 -1.7753  1.2555
 4797SOL     OW24724   4.157   9.917   2.326 -0.5177  0.3990 -0.0044
 4797SOL    HW124725   4.185   9.821   2.332  3.4593  1.4917  0.6787
 4797SOL    HW224726   4.216   9.964   2.260 -1.5575  2.6491  0.6454
 4798SOL     OW24727   9.960   5.111   1.363 -0.0734 -0.1702  0.0502
 4798SOL    HW124728  10.001   5.069   1.445 -0.4377 -0.4940  0.0701
 4798SOL    HW224729   9.900   5.045   1.318 -0.7045  0.3479  0.1147
 4799SOL     OW24730   8.589   9.029   0.600  0.2847  0.3934 -0.6102
 4799SOL    HW124731   8.590   9.076   0.511 -0.9896  0.9370 -0.3473
 4799SOL    HW224732   8.679   8.991   0.618  0.4414 -0.1027 -2.3432
 4800SOL     OW24733   1.995   3.554   0.195  0.0724 -0.0039  0.5409
 4800SOL    HW124734   1.955   3.485   0.255  1.1774  0.4420  1.8351
 4800SOL    HW224735   1.923   3.608   0.152 -0.7979 -1.8553 -0.3682
 4801SOL     OW24736   3.563   2.914   2.969  0.4128  0.8659  0.3299
 4801SOL    HW124737   3.618   2.972   2.908 -1.2557  1.3771 -0.7049
 4801SOL    HW224738   3.615   2.831   2.991  0.6138  0.1296 -2.7025
 4802SOL     OW24739   1.180   2.042   2.833 -0.0838 -0.1506 -0.2464
 4802SOL    HW124740   1.227   1.979   2.770 -2.2616 -1.0835 -0.9681
 4802SOL    HW224741   1.178   2.133   2.793 -0.0575 -0.3947 -0.8142
 4803SOL     OW24742   2.430   9.430   2.851 -0.0191 -0.6497 -0.2325
 4803SOL    HW124743   2.395   9.475   2.768 -1.4018  1.4771  1.4617
 4803SOL    HW224744   2.527   9.408   2.838 -0.3027 -0.6745 -2.5363
 4804SOL     OW24745   0.923   2.310   1.587  0.4891  0.0017  0.6574
 4804SOL    HW124746   0.904   2.327   1.684 -1.3023  1.2533  0.1120
 4804SOL    HW224747   0.981   2.383   1.552  1.8394 -0.8996  0.9717
 4805SOL     OW24748   3.538   8.160   1.077 -0.0565  0.2161  0.5834
 4805SOL    HW124749   3.533   8.153   0.977 -0.9785  0.9809  0.5662
 4805SOL    HW224750   3.489   8.083   1.118  1.7647 -1.0453  0.4732
 4806SOL     OW24751   9.724   7.441   2.462 -0.6207 -0.6984 -0.1338
 4806SOL    HW124752   9.756   7.377   2.531 -0.3946  0.1302  0.5467
 4806SOL    HW224753   9.705   7.393   2.377  1.3959 -1.3650 -0.2214
 4807SOL     OW24754   4.279   4.057   0.493  0.0537 -0.3824  0.0143
 4807SOL    HW124755   4.207   4.025   0.432 -0.8596 -0.0127  0.8772
 4807SOL    HW224756   4.287   3.994   0.570 -1.3672  1.0880  1.4290
 4808SOL     OW24757   0.149   3.880   0.441 -0.3963  0.4277 -0.5963
 4808SOL    HW124758   0.201   3.954   0.484  0.6664 -0.9500  0.5253
 4808SOL    HW224759   0.132   3.903   0.345  0.9987  1.5806 -0.5914
 4809SOL     OW24760   7.030   9.432   2.491 -0.3751  0.4777  0.0596
 4809SOL    HW124761   6.954   9.440   2.428  0.1498  0.8382 -0.5327
 4809SOL    HW224762   7.055   9.336   2.503 -2.3233  0.1689  1.9465
 4810SOL     OW24763   9.699   1.355   1.421 -0.2912  0.4130  0.2651
 4810SOL    HW124764   9.796   1.354   1.446 -0.1680 -0.7198 -0.2213
 4810SOL    HW224765   9.690   1.353   1.322 -0.8113 -0.8640  0.3255
 4811SOL     OW24766   0.261   7.773   2.145 -0.1725 -0.2487  0.5097
 4811SOL    HW124767   0.254   7.710   2.068 -0.8025  0.6006 -0.1353
 4811SOL    HW224768   0.352   7.816   2.144 -0.3405  0.1022 -0.0337
 4812SOL     OW24769   3.454   5.684   0.121  0.0397 -0.3510  0.1694
 4812SOL    HW124770   3.537   5.683   0.065  0.5087 -1.5798  0.8842
 4812SOL    HW224771   3.474   5.728   0.209  0.2509 -1.6719  0.8000
 4813SOL     OW24772   9.112   5.679   0.594 -0.3731  0.2780  0.0470
 4813SOL    HW124773   9.118   5.773   0.558 -2.4913  0.4368  0.0359
 4813SOL    HW224774   9.130   5.614   0.521  2.6182  0.6576  0.3815
 4814SOL     OW24775   1.418   1.444   0.758  0.1573 -0.0881  0.5654
 4814SOL    HW124776   1.468   1.490   0.684 -1.4787  0.2922 -0.3227
 4814SOL    HW224777   1.380   1.358   0.723  0.4161 -0.5074  1.3155
 4815SOL     OW24778   0.598   6.738   3.156  0.3261 -0.0183  0.3536
 4815SOL    HW124779   0.610   6.678   3.235  1.1200  0.9779  0.9976
 4815SOL    HW224780   0.560   6.826   3.185 -1.7742 -0.5542 -0.7234
 4816SOL     OW24781   1.821   1.883   2.645  0.3638 -0.8179 -0.3906
 4816SOL    HW124782   1.902   1.916   2.597  0.6049 -1.7566 -0.6288
 4816SOL    HW224783   1.742   1.890   2.585 -0.5507  3.8249  1.0885
 4817SOL     OW24784   5.720   0.325   2.819 -0.8293 -0.9732 -0.4416
 4817SOL    HW124785   5.654   0.350   2.748  0.0240  1.0883 -0.5615
 4817SOL    HW224786   5.809   0.364   2.797 -0.9335  1.2047  2.5345
 4818SOL     OW24787   9.736   6.615   2.369 -0.0118 -0.0262  0.3187
 4818SOL    HW124788   9.693   6.569   2.291  1.3930  0.8103 -0.9859
 4818SOL    HW224789   9.693   6.704   2.383  0.7090  0.4575 -0.4635
 4819SOL     OW24790   7.816   7.339   2.462  0.1381 -0.0526 -0.4054
 4819SOL    HW124791   7.724   7.362   2.494  0.4013  0.9177 -0.3450
 4819SOL    HW224792   7.850   7.260   2.514  0.3781  1.2204  1.4243
 4820SOL     OW24793   3.723   3.586   0.627  0.1834  0.2501  0.6368
 4820SOL    HW124794   3.791   3.565   0.698 -0.5551 -3.0726  0.4357
 4820SOL    HW224795   3.655   3.513   0.624 -1.4367  1.8003 -1.5521
 4821SOL     OW24796   2.362   5.081   1.572 -0.1427  0.0697  0.1306
 4821SOL    HW124797   2.458   5.102   1.556 -0.4471  0.0021 -1.9153
 4821SOL    HW224798   2.337   5.107   1.665  1.2206  2.3985 -0.1243
 4822SOL     OW24799   0.872   9.389   3.147 -0.2120  0.0932  1.0248
 4822SOL    HW124800   0.919   9.369   3.061 -0.4836  1.3725  0.5626
 4822SOL    HW224801   0.812   9.313   3.171  0.4236 -0.5915  0.4666
 4823SOL     OW24802   4.388   9.601   0.599  0.3543 -0.1671  0.1492
 4823SOL    HW124803   4.396   9.701   0.589  0.6956 -0.0128  1.7814
 4823SOL    HW224804   4.476   9.558   0.579  0.6520  0.0095  1.0610
 4824SOL     OW24805   8.131   2.758   1.361 -0.5243 -0.3601 -0.0531
 4824SOL    HW124806   8.187   2.694   1.309 -0.7958 -1.0688  0.5245
 4824SOL    HW224807   8.036   2.727   1.362 -0.9952  0.9734 -1.2498
 4825SOL     OW24808   7.807   8.618   1.753 -0.1623  0.2005  0.6619
 4825SOL    HW124809   7.725   8.658   1.794  0.3596  1.2425  0.7274
 4825SOL    HW224810   7.788   8.588   1.660 -0.6307  0.4196  0.6878
 4826SOL     OW24811   9.978   9.562   2.696  0.1611  0.1124 -0.3801
 4826SOL    HW124812  10.040   9.526   2.766 -1.1142 -0.5139  0.4436
 4826SOL    HW224813   9.889   9.580   2.737 -1.1743 -2.0127 -2.2213
 4827SOL     OW24814   4.908   0.382   1.877 -0.1757  0.0198  0.0464
 4827SOL    HW124815   4.976   0.452   1.897 -1.7173  1.5714  0.0206
 4827SOL    HW224816   4.923   0.345   1.786 -0.3157  1.5104 -0.6042
 4828SOL     OW24817   0.074   0.619   3.080 -0.0368  0.3327  0.2938
 4828SOL    HW124818   0.036   0.585   3.166  0.3761 -1.6934 -0.3058
 4828SOL    HW224819   0.140   0.553   3.044 -1.7664  0.1569 -2.6762
 4829SOL     OW24820   1.487   1.206   3.389  0.5318 -0.3450  0.1815
 4829SOL    HW124821   1.482   1.284   3.326  2.2181 -0.5235 -0.1925
 4829SOL    HW224822   1.423   1.220   3.465 -0.0868  0.8045 -0.5389
 4830SOL     OW24823   4.502   3.119   1.442 -0.0525  0.0579 -0.8530
 4830SOL    HW124824   4.472   3.091   1.351  0.2290  0.1258 -0.9687
 4830SOL    HW224825   4.422   3.133   1.501 -0.1617 -2.6713 -0.2839
 4831SOL     OW24826   3.977   0.210   3.337 -0.4077  0.0178 -0.6137
 4831SOL    HW124827   4.025   0.164   3.411  0.1145  0.2294 -0.8221
 4831SOL    HW224828   3.879   0.212   3.357 -0.1713  0.8459  0.4947
 4832SOL     OW24829   4.287   1.125   2.227 -0.3163  0.0135  0.1666
 4832SOL    HW124830   4.370   1.133   2.171  0.9212 -1.7372  1.7080
 4832SOL    HW224831   4.251   1.032   2.221 -0.4198 -0.0729  1.9199
 4833SOL     OW24832   2.034   5.749   1.505 -0.5691  0.3485  0.2323
 4833SOL    HW124833   2.055   5.842   1.532  1.6066  0.3847 -1.5030
 4833SOL    HW224834   2.051   5.737   1.407 -2.7472 -1.3395  0.0005
 4834SOL     OW24835   1.112   1.141   1.120 -0.0539  0.0876 -0.0538
 4834SOL    HW124836   1.017   1.122   1.095 -0.6065  1.3873  1.0287
 4834SOL    HW224837   1.124   1.240   1.132  0.9212 -0.2484  1.8367
 4835SOL     OW24838   4.889   8.459   1.557 -0.2038  0.2018  0.2339
 4835SOL    HW124839   4.987   8.441   1.557 -0.0563  0.8294  2.5452
 4835SOL    HW224840   4.839   8.373   1.548  0.5266 -0.0378 -1.9061
 4836SOL     OW24841   9.342   7.743   2.808  0.0445  0.3362 -0.2342
 4836SOL    HW124842   9.412   7.807   2.775  1.3825 -0.9931 -0.0256
 4836SOL    HW224843   9.287   7.711   2.730 -0.0081  0.9952 -0.4695
 4837SOL     OW24844   3.941   9.148   1.422 -0.3689  0.2629  0.2793
 4837SOL    HW124845   3.903   9.207   1.493  0.5002  1.1766 -0.0067
 4837SOL    HW224846   3.996   9.203   1.359 -0.4441 -0.6759 -0.6124
 4838SOL     OW24847   8.507   5.689   3.345  0.4822 -0.5114 -0.5025
 4838SOL    HW124848   8.526   5.773   3.396 -0.3734 -0.9988  0.6484
 4838SOL    HW224849   8.457   5.712   3.261 -0.4517  0.0771  0.1977
 4839SOL     OW24850   7.293   9.233   0.117  0.2943 -0.2746 -0.1070
 4839SOL    HW124851   7.298   9.215   0.215 -1.0043 -1.1192 -0.1795
 4839SOL    HW224852   7.360   9.304   0.093 -0.1106  0.7242  1.5691
 4840SOL     OW24853   3.493   3.194   3.405 -0.1983 -0.1366 -0.2246
 4840SOL    HW124854   3.514   3.179   3.309  0.5794  0.9294 -0.2269
 4840SOL    HW224855   3.410   3.250   3.413  0.7118  1.2481 -0.3099
 4841SOL     OW24856   2.392   0.187   0.382  0.0147 -0.7491  0.0631
 4841SOL    HW124857   2.384   0.089   0.361 -1.4758 -0.7039  0.3486
 4841SOL    HW224858   2.307   0.233   0.355  1.2721  0.7162 -1.4272
 4842SOL     OW24859   0.768   6.805   3.374 -0.0641  0.2471 -0.4240
 4842SOL    HW124860   0.763   6.877   3.304  1.4910  0.6619 -0.1153
 4842SOL    HW224861   0.806   6.722   3.334  0.9969  0.5400 -0.0427
 4843SOL     OW24862   9.875   0.980   2.517 -0.0339  0.2040 -0.2876
 4843SOL    HW124863   9.943   0.983   2.444  1.2531  1.6426  0.9522
 4843SOL    HW224864   9.880   1.064   2.571 -0.4638 -1.1629  1.9187
 4844SOL     OW24865   4.203   4.879   1.904 -0.0308 -0.1108 -0.2565
 4844SOL    HW124866   4.191   4.801   1.966  0.0231  0.4256  0.4301
 4844SOL    HW224867   4.280   4.935   1.935 -1.2656  1.2700  0.3432
 4845SOL     OW24868   9.003   6.033   1.989 -0.8694  0.2313 -0.3916
 4845SOL    HW124869   9.069   6.105   2.009 -1.0709  0.2633  0.1641
 4845SOL    HW224870   9.019   5.998   1.897  0.6463 -0.5162  0.1352
 4846SOL     OW24871   9.210   3.107   2.756 -0.5525  0.4956 -0.4378
 4846SOL    HW124872   9.151   3.042   2.707  0.4047 -0.3768 -0.4500
 4846SOL    HW224873   9.304   3.097   2.725 -0.5902  2.8204 -1.3759
 4847SOL     OW24874   2.629   0.775   2.694  0.6351  0.0369 -0.2414
 4847SOL    HW124875   2.636   0.775   2.793 -1.5515  1.0140 -0.0407
 4847SOL    HW224876   2.719   0.788   2.653  1.4048  0.6664  1.6352
 4848SOL     OW24877   7.787   7.497   2.867  0.7306  0.0837  0.3512
 4848SOL    HW124878   7.841   7.579   2.845  0.7240 -0.1461 -0.5277
 4848SOL    HW224879   7.821   7.457   2.952  0.3426  1.3485  1.1221
 4849SOL     OW24880   1.362   6.543   1.534  0.2420 -0.1464  0.3033
 4849SOL    HW124881   1.429   6.617   1.528 -2.6704  2.6817  0.8532
 4849SOL    HW224882   1.347   6.519   1.630 -1.8958  1.6054  0.4561
 4850SOL     OW24883   3.640   1.892   3.083  0.1327  1.0079 -0.5819
 4850SOL    HW124884   3.716   1.834   3.112  0.9256  2.2845 -0.0498
 4850SOL    HW224885   3.672   1.986   3.069 -1.6131  1.9160  1.1203
 4851SOL     OW24886   8.372   9.210   2.921  0.2333  0.1245 -0.1503
 4851SOL    HW124887   8.292   9.239   2.870  1.6706  1.3156 -1.7962
 4851SOL    HW224888   8.422   9.141   2.869  1.0243  0.4120  0.2225
 4852SOL     OW24889   0.600   8.399   2.422 -0.3754 -0.1197  0.2311
 4852SOL    HW124890   0.636   8.374   2.512  0.1831 -0.2414 -0.0242
 4852SOL    HW224891   0.650   8.479   2.388 -1.4768  0.7426  0.6019
 4853SOL     OW24892   8.031   2.752   0.999 -0.7461 -0.3048  0.3847
 4853SOL    HW124893   8.069   2.660   1.004  3.2168  1.3385  4.0269
 4853SOL    HW224894   8.073   2.801   0.923 -0.0709 -0.3718  0.7120
 4854SOL     OW24895   2.520   7.350   0.726 -0.2752  0.1122  0.0891
 4854SOL    HW124896   2.467   7.339   0.642 -0.3919 -0.2018  0.2058
 4854SOL    HW224897   2.560   7.442   0.728 -0.4182  0.1815 -0.2263
 4855SOL     OW24898   3.415   9.349   0.631  0.9933 -0.1917 -0.2126
 4855SOL    HW124899   3.426   9.281   0.559  0.5564  1.1353 -1.5428
 4855SOL    HW224900   3.477   9.426   0.616  0.7367  0.2051  0.6898
 4856SOL     OW24901   9.494   7.946   1.865  0.3948 -0.1670  0.1717
 4856SOL    HW124902   9.572   7.886   1.845  0.5549  0.4384 -1.0736
 4856SOL    HW224903   9.514   7.999   1.948  1.1915 -0.2096  0.0128
 4857SOL     OW24904   8.887   4.526   1.092  0.1692  0.1955 -0.6942
 4857SOL    HW124905   8.972   4.503   1.045 -0.0474 -1.5369 -0.2645
 4857SOL    HW224906   8.905   4.597   1.160  1.0415  0.6486 -1.3838
 4858SOL     OW24907   2.774   3.187   3.225  0.4184  0.0014 -0.0960
 4858SOL    HW124908   2.833   3.172   3.304  0.0160 -1.1271 -0.0035
 4858SOL    HW224909   2.707   3.113   3.218 -0.6886  1.0163 -0.4746
 4859SOL     OW24910   4.095   4.223   0.942 -0.2652 -0.2008  0.3904
 4859SOL    HW124911   4.097   4.317   0.908  1.1620 -0.8431 -1.3813
 4859SOL    HW224912   4.050   4.164   0.875  0.9586 -1.1819  0.4210
 4860SOL     OW24913   0.636   2.980   2.857  0.2299 -0.6287 -0.0627
 4860SOL    HW124914   0.582   2.896   2.846  0.4849 -0.4541 -2.9710
 4860SOL    HW224915   0.732   2.956   2.872  0.2234 -0.8551 -0.3869
 4861SOL     OW24916   8.322   2.084   0.700 -0.0118 -0.0973 -0.0864
 4861SOL    HW124917   8.273   1.997   0.690  1.2226 -0.7593 -0.4663
 4861SOL    HW224918   8.358   2.112   0.612 -0.0856  0.6151  0.1125
 4862SOL     OW24919   9.697   6.880   0.578 -0.1061  0.4172 -0.1969
 4862SOL    HW124920   9.662   6.875   0.672  0.6218 -0.6343  0.0262
 4862SOL    HW224921   9.622   6.862   0.514  0.2912 -3.4363  0.3207
 4863SOL     OW24922   1.447   8.141   0.839 -0.8611  0.1298 -0.1694
 4863SOL    HW124923   1.543   8.131   0.813 -1.2229  1.0474 -1.9173
 4863SOL    HW224924   1.439   8.147   0.938  0.8683 -0.1292 -0.0141
 4864SOL     OW24925   2.228   5.574   1.842  0.0372 -0.4526 -0.4638
 4864SOL    HW124926   2.152   5.625   1.882 -0.8178 -1.1527 -1.1957
 4864SOL    HW224927   2.193   5.500   1.785  1.2601  0.2857 -2.2083
 4865SOL     OW24928   0.950   1.554   1.597 -0.5758 -0.9052  0.2021
 4865SOL    HW124929   0.873   1.563   1.660  0.1794  1.1004  0.8616
 4865SOL    HW224930   0.941   1.621   1.524  1.0495 -0.0082  0.8190
 4866SOL     OW24931   1.494   8.418   2.465  0.0123 -0.4372 -0.2321
 4866SOL    HW124932   1.506   8.366   2.549  1.0523 -0.9035 -0.6670
 4866SOL    HW224933   1.527   8.364   2.387  0.1195  0.4514 -0.8047
 4867SOL     OW24934   3.928   1.673   0.204 -0.0660  0.4242 -0.6266
 4867SOL    HW124935   3.926   1.593   0.264  3.1589  1.3258  0.8270
 4867SOL    HW224936   3.971   1.648   0.117  0.4203  0.4391 -0.3913
 4868SOL     OW24937   9.467   1.457   0.630  0.2124  0.1124 -0.4021
 4868SOL    HW124938   9.398   1.403   0.678 -0.4845  1.0370 -0.3627
 4868SOL    HW224939   9.475   1.425   0.536  0.4651 -0.6667 -0.1229
 4869SOL     OW24940   8.900   8.143   2.127  0.6664  0.4485  0.4397
 4869SOL    HW124941   8.981   8.140   2.186 -0.1109  2.2854  1.6432
 4869SOL    HW224942   8.841   8.065   2.148  1.5176 -0.2044  0.4328
 4870SOL     OW24943   4.030   5.400   3.199  0.0999  0.4515  0.1210
 4870SOL    HW124944   3.974   5.399   3.282  0.0158 -1.4448  0.0605
 4870SOL    HW224945   4.047   5.494   3.172  0.7653  1.1117  2.7110
 4871SOL     OW24946   7.527   9.088   1.321  0.6399 -0.1497 -0.1039
 4871SOL    HW124947   7.535   9.063   1.224 -0.5737  2.6359 -0.9372
 4871SOL    HW224948   7.606   9.144   1.347  0.0142  0.6821  0.0144
 4872SOL     OW24949   9.373   9.589   0.122 -0.2370  0.6202 -0.1061
 4872SOL    HW124950   9.299   9.543   0.073  0.1991  0.5409 -0.6877
 4872SOL    HW224951   9.349   9.685   0.137 -0.5260  0.5550 -0.1439
 4873SOL     OW24952   0.396   3.863   2.030  0.1648 -0.1322 -0.0395
 4873SOL    HW124953   0.405   3.942   1.969  0.1541 -0.3543 -0.3274
 4873SOL    HW224954   0.341   3.889   2.110  0.8737  0.3941  0.2815
 4874SOL     OW24955   1.160   7.715   1.506  0.0664 -0.4011 -0.1417
 4874SOL    HW124956   1.116   7.767   1.432 -0.1180 -1.6199 -0.8994
 4874SOL    HW224957   1.192   7.627   1.470  0.5514 -0.7333  1.0885
 4875SOL     OW24958   5.122   2.946   2.194  0.1882  0.1049 -0.3817
 4875SOL    HW124959   5.091   2.852   2.179  1.3038 -0.3397 -0.0361
 4875SOL    HW224960   5.222   2.946   2.206  0.3042  1.4466 -1.2419
 4876SOL     OW24961   0.273   3.622   2.172  0.4845 -0.4279  0.2138
 4876SOL    HW124962   0.328   3.681   2.231 -0.3797  1.5228 -0.8642
 4876SOL    HW224963   0.184   3.665   2.156  0.1316 -1.6534 -1.2612
 4877SOL     OW24964   3.917   3.481   0.196  0.0120 -0.6884 -0.8068
 4877SOL    HW124965   3.997   3.472   0.256 -0.4801  0.0432 -0.0252
 4877SOL    HW224966   3.894   3.577   0.185  0.1642 -0.8012 -2.2899
 4878SOL     OW24967   0.356   2.431   2.333 -0.3347  0.1486 -0.2046
 4878SOL    HW124968   0.434   2.370   2.319 -0.5686 -0.3907  0.7707
 4878SOL    HW224969   0.387   2.519   2.368 -0.1463  0.0052 -0.0147
 4879SOL     OW24970   9.338   9.249   2.027  0.4355 -0.5459  0.7331
 4879SOL    HW124971   9.403   9.178   2.001  0.0697 -0.6611  0.1405
 4879SOL    HW224972   9.269   9.211   2.089  0.8119 -0.4705  1.2012
 4880SOL     OW24973   4.453   2.250   1.522  0.0644 -0.0171 -0.8768
 4880SOL    HW124974   4.514   2.173   1.504 -0.0798 -0.3686  0.1025
 4880SOL    HW224975   4.486   2.300   1.602 -1.1562 -0.4559 -0.0915
 4881SOL     OW24976   9.471   9.832   1.978 -0.2391  0.0153 -0.5380
 4881SOL    HW124977   9.517   9.804   1.894 -0.2317 -3.1454  0.4648
 4881SOL    HW224978   9.372   9.833   1.963 -0.2594 -0.9749 -0.4515
 4882SOL     OW24979   1.808   2.007   1.916  0.7134  0.0987 -0.3431
 4882SOL    HW124980   1.804   1.983   2.013 -1.0571  1.9184  0.0567
 4882SOL    HW224981   1.716   2.009   1.877  1.5797 -3.0386 -2.7154
 4883SOL     OW24982   1.338   4.002   1.398 -0.5070  0.6029  0.0267
 4883SOL    HW124983   1.357   3.904   1.389 -0.9537  0.6510 -1.5203
 4883SOL    HW224984   1.257   4.025   1.345 -0.6142  1.7553  0.6806
 4884SOL     OW24985   0.888   5.358   1.065  0.2271  0.3460  0.3614
 4884SOL    HW124986   0.987   5.349   1.053  0.4748  0.5291  2.1117
 4884SOL    HW224987   0.843   5.279   1.024  1.3827 -1.6792  2.8323
 4885SOL     OW24988   8.392   6.095   1.713 -0.1171  0.0282  0.0134
 4885SOL    HW124989   8.420   6.017   1.768  2.3672  0.7022 -0.2250
 4885SOL    HW224990   8.467   6.162   1.710 -2.4760  2.8387  0.9516
 4886SOL     OW24991   2.973   8.977   1.909 -0.1159 -0.1828  0.2563
 4886SOL    HW124992   2.898   8.915   1.934  0.8813 -1.0746  1.0858
 4886SOL    HW224993   3.021   9.007   1.991  0.6807  0.0663 -0.2954
 4887SOL     OW24994   1.139   6.174   0.407  0.2408 -0.3104 -0.0797
 4887SOL    HW124995   1.048   6.202   0.376  0.7538  0.2268 -1.1078
 4887SOL    HW224996   1.143   6.179   0.506 -0.6818  0.1923 -0.0616
 4888SOL     OW24997   0.088   6.401   2.972 -0.1345 -0.2711 -0.0473
 4888SOL    HW124998   0.015   6.469   2.968  1.4069  1.3342 -2.3000
 4888SOL    HW224999   0.118   6.390   3.067 -2.0028  0.4358  0.6488
 4889SOL     OW25000   8.730   2.152   0.906 -0.3369  0.3888  0.5996
 4889SOL    HW125001   8.761   2.242   0.875 -0.0074 -0.2037 -0.8654
 4889SOL    HW225002   8.799   2.083   0.881 -2.2695 -0.7908 -1.6845
 4890SOL     OW25003   2.913   6.484   1.775 -0.0718 -0.2195  0.9713
 4890SOL    HW125004   2.957   6.466   1.687  0.4138  2.8831  0.5133
 4890SOL    HW225005   2.817   6.509   1.760 -0.4862 -1.4951  1.4830
 4891SOL     OW25006   4.152   7.932   2.771 -0.3985  0.2447  0.2157
 4891SOL    HW125007   4.084   7.904   2.838  1.2820  1.5709  2.5427
 4891SOL    HW225008   4.116   8.008   2.716 -1.8022 -0.8952 -0.4778
 4892SOL     OW25009   9.984   7.642   0.584 -0.7432  0.4556 -0.1836
 4892SOL    HW125010  10.027   7.706   0.648 -0.8432 -0.4838  0.8253
 4892SOL    HW225011   9.994   7.548   0.618 -2.2864  0.0893 -0.6904
 4893SOL     OW25012   0.151   2.596   2.029 -0.3634  0.5074 -0.5338
 4893SOL    HW125013   0.150   2.585   1.930 -0.8649  0.4091 -0.5173
 4893SOL    HW225014   0.242   2.627   2.058 -0.3480  0.9741 -1.0673
 4894SOL     OW25015   9.601   4.112   3.209 -0.0920 -0.2130 -0.1087
 4894SOL    HW125016   9.645   4.085   3.295 -0.8616  1.4611  0.8506
 4894SOL    HW225017   9.502   4.097   3.217 -0.2808  0.8322 -0.3254
 4895SOL     OW25018   1.176   5.868   2.992 -0.5364 -0.2107  0.2587
 4895SOL    HW125019   1.171   5.926   3.074  0.2632 -0.9478  0.8432
 4895SOL    HW225020   1.134   5.916   2.915  1.6719  1.8959  0.2951
 4896SOL     OW25021   9.014   1.946   0.281  0.1942 -0.2225  0.1097
 4896SOL    HW125022   9.097   1.916   0.234  1.5792  1.4861  1.4266
 4896SOL    HW225023   9.023   2.042   0.309 -2.1384 -0.0670  0.4573
 4897SOL     OW25024   0.930   0.984   0.814  0.6309 -0.3574 -0.5806
 4897SOL    HW125025   0.948   0.908   0.751 -1.5585 -0.6121 -0.9564
 4897SOL    HW225026   0.865   0.954   0.884  0.8189  0.7702  0.0840
 4898SOL     OW25027   2.152   5.005   3.155 -0.2063  0.0529  0.2533
 4898SOL    HW125028   2.239   4.966   3.184 -0.0420  0.0504 -0.2441
 4898SOL    HW225029   2.121   5.071   3.223  1.4398  1.9492 -0.7948
 4899SOL     OW25030   8.181   9.982   2.888  0.5497 -0.9013  0.0676
 4899SOL    HW125031   8.222  10.003   2.977  0.7237 -1.0813  0.0300
 4899SOL    HW225032   8.253   9.982   2.818  0.5256 -1.4652  0.0403
 4900SOL     OW25033   2.514   1.045   3.109 -0.0569 -0.2624 -0.0744
 4900SOL    HW125034   2.605   1.052   3.067 -0.2222  0.3391 -0.3408
 4900SOL    HW225035   2.488   0.948   3.116 -0.8830 -0.3219 -3.2622
 4901SOL     OW25036   3.753   1.345   2.080  0.6282  0.4865  0.0710
 4901SOL    HW125037   3.744   1.324   1.983 -0.7141 -0.2670  0.3406
 4901SOL    HW225038   3.836   1.302   2.116  0.9630  0.5074 -0.6683
 4902SOL     OW25039   1.423   5.168   1.899  0.1800 -0.0398  0.3389
 4902SOL    HW125040   1.424   5.182   1.999 -0.2868 -2.3649  0.6803
 4902SOL    HW225041   1.360   5.233   1.857  0.5167  1.0847  1.5250
 4903SOL     OW25042   8.737   0.376   2.110  0.1035  0.7738 -0.1498
 4903SOL    HW125043   8.769   0.468   2.135  0.8880  0.5558 -0.3599
 4903SOL    HW225044   8.739   0.317   2.191  0.5608  0.6675 -0.2365
 4904SOL     OW25045   2.112   6.032   1.582  0.2940  0.1787  0.2683
 4904SOL    HW125046   2.089   6.058   1.676  0.2919 -0.0569  0.3324
 4904SOL    HW225047   2.059   6.087   1.519  2.8451  2.8559  0.3358
 4905SOL     OW25048   9.755   5.997   2.752  0.0109 -0.4797  0.0840
 4905SOL    HW125049   9.742   5.954   2.663  0.0629 -0.0546 -0.1333
 4905SOL    HW225050   9.790   6.090   2.739 -0.1520 -0.3518  0.5389
 4906SOL     OW25051   2.565   1.771   1.414  0.0818 -0.4840 -0.4355
 4906SOL    HW125052   2.651   1.720   1.416 -0.8702 -2.2285 -2.0937
 4906SOL    HW225053   2.490   1.711   1.442 -0.7223  0.7908  0.1963
 4907SOL     OW25054   8.660   7.908   1.839 -0.4346 -0.1655  0.2736
 4907SOL    HW125055   8.670   7.823   1.787 -0.5004 -0.2651  0.4221
 4907SOL    HW225056   8.745   7.960   1.834 -0.7863  0.3326 -0.8203
 4908SOL     OW25057   2.009   4.196   3.444 -0.1210 -0.3336 -0.4436
 4908SOL    HW125058   1.994   4.103   3.410  0.3806 -0.4092 -0.4586
 4908SOL    HW225059   2.010   4.195   3.544  0.7421 -0.4822 -0.4510
 4909SOL     OW25060   3.629   2.334   2.263  0.0373 -0.0530 -0.3793
 4909SOL    HW125061   3.685   2.414   2.283 -0.1250 -0.2551  0.8649
 4909SOL    HW225062   3.677   2.251   2.291 -0.8750 -0.2301  0.6637
 4910SOL     OW25063   1.380   8.659   1.721  0.3765 -0.4255  0.2586
 4910SOL    HW125064   1.302   8.689   1.666  0.4116 -0.5539  0.1370
 4910SOL    HW225065   1.406   8.566   1.694  1.3916  0.0946 -0.6313
 4911SOL     OW25066   3.091   1.359   2.573  0.1830  0.1281  0.2417
 4911SOL    HW125067   3.014   1.342   2.634  0.6917 -2.5615  0.1896
 4911SOL    HW225068   3.078   1.309   2.487  2.8387 -1.8871  0.9604
 4912SOL     OW25069   8.882   7.089   0.272  0.0639 -0.2904  0.1415
 4912SOL    HW125070   8.792   7.044   0.272  0.8690 -1.9566  0.4136
 4912SOL    HW225071   8.949   7.029   0.315  1.2001  1.1900  0.4797
 4913SOL     OW25072   1.220   2.161   0.001  0.5331  0.1228  0.0523
 4913SOL    HW125073   1.312   2.198  -0.012  0.4020  1.1689  1.8999
 4913SOL    HW225074   1.155   2.210  -0.058  1.1476 -0.6087 -1.2432
 4914SOL     OW25075   2.188   7.014   3.089  0.0519  0.0346  0.3651
 4914SOL    HW125076   2.142   7.078   3.150  1.7135  1.4284  0.1986
 4914SOL    HW225077   2.138   7.008   3.002  1.0999  2.9192 -0.5010
 4915SOL     OW25078   9.498   3.691   2.692  0.1029 -0.0325  0.3049
 4915SOL    HW125079   9.420   3.664   2.748 -0.8646  0.6358 -0.7082
 4915SOL    HW225080   9.582   3.687   2.747 -0.5811 -1.1450  1.2841
 4916SOL     OW25081   3.070   5.176   1.602  0.1305 -0.2763 -0.0825
 4916SOL    HW125082   3.058   5.078   1.618 -0.7442 -0.2772 -0.7135
 4916SOL    HW225083   3.017   5.204   1.522  1.8607  0.3599 -1.0393
 4917SOL     OW25084   4.026   7.852   0.713 -0.5131 -0.0787 -0.5221
 4917SOL    HW125085   3.999   7.893   0.800 -0.7246 -0.0318 -0.6081
 4917SOL    HW225086   4.017   7.921   0.640  2.4186  0.7520 -0.1488
 4918SOL     OW25087   1.227   4.702   1.498  0.4865 -0.0498  0.8134
 4918SOL    HW125088   1.296   4.635   1.474  1.1544  0.1253  2.1829
 4918SOL    HW225089   1.140   4.656   1.517  0.4084 -0.3318 -0.2106
 4919SOL     OW25090   2.092   6.949   1.602  0.6358 -0.0993 -0.1090
 4919SOL    HW125091   2.101   6.988   1.510 -1.1380  0.6880  0.0200
 4919SOL    HW225092   2.121   7.016   1.670 -1.7797  0.8173  0.0778
 4920SOL     OW25093   0.674   5.122   0.616  0.1863 -0.3165  0.0827
 4920SOL    HW125094   0.708   5.156   0.528  0.4704 -1.0586 -0.1020
 4920SOL    HW225095   0.627   5.195   0.664 -0.9536 -0.2010 -1.1792
 4921SOL     OW25096   5.641   9.362   2.406 -0.3390  0.3493 -0.0793
 4921SOL    HW125097   5.546   9.344   2.378 -0.8241 -1.4414  2.4878
 4921SOL    HW225098   5.647   9.454   2.445 -1.2637  0.1157  0.6432
 4922SOL     OW25099   9.247   3.235   3.346 -0.5194  0.5267  0.2937
 4922SOL    HW125100   9.236   3.273   3.254 -0.2971  0.6820  0.3295
 4922SOL    HW225101   9.324   3.279   3.391 -0.1599 -0.0771  0.2803
 4923SOL     OW25102   9.724   9.947   1.425 -0.3183  0.6336 -0.3856
 4923SOL    HW125103   9.698   9.864   1.474  1.4943  0.7568  0.8291
 4923SOL    HW225104   9.698  10.028   1.477 -0.8422  0.8086 -0.9145
 4924SOL     OW25105   1.294   0.118   2.698 -0.0960 -0.2067 -0.3689
 4924SOL    HW125106   1.233   0.086   2.626 -0.4327  2.5798 -1.3830
 4924SOL    HW225107   1.388   0.095   2.676 -0.4648 -1.8872 -0.2637
 4925SOL     OW25108   1.035   0.719   3.146  1.0697 -0.2457  0.0144
 4925SOL    HW125109   0.938   0.723   3.166  0.9009  0.7464 -0.9421
 4925SOL    HW225110   1.087   0.757   3.223  0.7049 -0.7441  0.5091
 4926SOL     OW25111   9.093   8.090   1.670  0.4963  0.1611  0.0876
 4926SOL    HW125112   9.160   8.155   1.633 -1.1578  2.3543  0.8230
 4926SOL    HW225113   9.135   8.036   1.743  1.8394  0.5789 -0.3713
 4927SOL     OW25114   1.510   1.948   2.176 -0.0142  0.4026  0.4949
 4927SOL    HW125115   1.442   1.877   2.192 -0.0368  0.6699  1.6301
 4927SOL    HW225116   1.465   2.037   2.168  0.0349  0.3266 -0.6873
 4928SOL     OW25117   2.001   5.375   0.066  0.2914 -0.2052  0.6850
 4928SOL    HW125118   1.933   5.309   0.099  0.5694  0.4609  2.6563
 4928SOL    HW225119   2.033   5.430   0.143  0.1320  2.1873 -0.9404
 4929SOL     OW25120   1.468   0.600   0.027  0.0879 -0.2123  0.4845
 4929SOL    HW125121   1.413   0.568  -0.050  0.6008 -0.8080  0.3595
 4929SOL    HW225122   1.486   0.698   0.018 -0.5016 -0.1285  0.2505
 4930SOL     OW25123   8.508   0.379   2.303  0.2986 -0.7790 -0.5531
 4930SOL    HW125124   8.415   0.344   2.292  0.7855 -2.6424  0.9637
 4930SOL    HW225125   8.573   0.311   2.269  1.1350  0.2678 -1.0595
 4931SOL     OW25126   0.377   3.418   2.072 -0.0671  0.1261  0.2181
 4931SOL    HW125127   0.471   3.418   2.038  0.0870 -2.1629  0.5681
 4931SOL    HW225128   0.355   3.507   2.110  1.7896  0.8412 -0.3450
 4932SOL     OW25129   1.365   6.615   0.922  0.0791  0.0053 -0.3171
 4932SOL    HW125130   1.389   6.711   0.914  1.6525 -0.4284 -1.0513
 4932SOL    HW225131   1.441   6.565   0.963  0.0249 -1.2238 -1.6655
 4933SOL     OW25132   3.138   1.081   3.143  0.6138  0.1030  0.2473
 4933SOL    HW125133   3.133   1.157   3.079 -0.2993  2.2501  2.7602
 4933SOL    HW225134   3.051   1.072   3.191  1.6824 -0.5587  2.1226
 4934SOL     OW25135   1.227   0.560   1.119 -0.0786 -0.4805  0.0049
 4934SOL    HW125136   1.155   0.560   1.049 -0.2779  1.7868  0.1489
 4934SOL    HW225137   1.310   0.601   1.081  0.6029 -1.5593  0.3409
 4935SOL     OW25138   9.538   8.089   0.359 -0.1217  0.4242  0.4072
 4935SOL    HW125139   9.602   8.133   0.422 -0.3913  1.2955  0.0824
 4935SOL    HW225140   9.455   8.144   0.351 -0.1364  0.2718 -0.6221
 4936SOL     OW25141   2.967   1.815   1.734 -0.2655  0.1715  0.0206
 4936SOL    HW125142   2.984   1.718   1.751 -2.1309  0.3117  2.9434
 4936SOL    HW225143   2.881   1.826   1.684  0.3757  0.2750 -1.0618
 4937SOL     OW25144   7.399   9.303   1.739 -0.3046  0.1291  0.0973
 4937SOL    HW125145   7.489   9.341   1.718 -0.4909  0.6349  0.2131
 4937SOL    HW225146   7.380   9.226   1.678  0.5122 -0.4464  0.5646
 4938SOL     OW25147   0.078   8.955   1.837  0.3581  0.1241  0.1443
 4938SOL    HW125148   0.110   9.048   1.823  2.0802 -0.1270  2.0313
 4938SOL    HW225149   0.144   8.891   1.797 -0.7857 -0.2920 -1.0930
 4939SOL     OW25150   2.415   8.274   2.318  0.0009  0.0078  0.0391
 4939SOL    HW125151   2.459   8.360   2.341 -1.0430  0.2122  1.2707
 4939SOL    HW225152   2.396   8.222   2.401  0.1898 -1.2027 -0.6548
 4940SOL     OW25153   5.173   0.087   1.818  0.0600 -0.5047  0.2867
 4940SOL    HW125154   5.087   0.051   1.784 -0.3203 -1.0429  1.7797
 4940SOL    HW225155   5.185   0.062   1.914  1.3336  0.5506  0.4330
 4941SOL     OW25156   1.652   0.702   2.322  0.1058 -0.1076 -0.4690
 4941SOL    HW125157   1.690   0.645   2.395  2.5020  1.7595 -0.1843
 4941SOL    HW225158   1.573   0.656   2.281  2.2859 -3.8561 -0.6603
 4942SOL     OW25159   4.629   3.724   0.778 -0.0654  0.3543  0.9230
 4942SOL    HW125160   4.679   3.698   0.860  0.2965 -0.2812  0.5081
 4942SOL    HW225161   4.613   3.822   0.778  0.5064  0.4466  1.4337
 4943SOL     OW25162   8.367   6.257   0.090  0.3309 -0.0035 -0.4709
 4943SOL    HW125163   8.465   6.261   0.106  0.6101 -2.5842 -1.3775
 4943SOL    HW225164   8.340   6.333   0.030  2.2502 -0.8128 -2.4389
 4944SOL     OW25165   2.476   3.681   0.533 -0.1913 -0.1732  0.8910
 4944SOL    HW125166   2.442   3.756   0.591 -0.9746  1.2879 -1.3882
 4944SOL    HW225167   2.574   3.693   0.519 -0.8189  2.2388 -1.9391
 4945SOL     OW25168   9.025   9.371   0.329  0.1318  0.5964  0.3359
 4945SOL    HW125169   9.084   9.362   0.248  1.0072  2.8678  0.7039
 4945SOL    HW225170   9.062   9.315   0.403  0.3263 -0.0962 -0.2801
 4946SOL     OW25171   1.686   6.687   0.908 -0.3753  0.4576 -0.1130
 4946SOL    HW125172   1.662   6.591   0.892  0.0823  0.4800 -0.9906
 4946SOL    HW225173   1.769   6.693   0.962 -1.6937  0.3756  1.9771
 4947SOL     OW25174   2.866   5.800   2.745  0.0300  0.6062  0.2394
 4947SOL    HW125175   2.779   5.849   2.748 -0.1310  0.3702 -0.4583
 4947SOL    HW225176   2.897   5.782   2.838 -0.5107  0.9638  0.4946
 4948SOL     OW25177   3.989   4.759   2.973 -0.1120 -0.0477 -0.4937
 4948SOL    HW125178   3.902   4.749   3.022  0.8534  1.0753  1.5050
 4948SOL    HW225179   4.060   4.708   3.021  0.1414 -1.9733 -2.7972
 4949SOL     OW25180   4.000   7.166   2.873  0.1544  0.1829 -0.0459
 4949SOL    HW125181   3.914   7.130   2.837  0.4436  0.5889 -1.1501
 4949SOL    HW225182   4.000   7.266   2.864  0.5953  0.2154  0.2922
 4950SOL     OW25183   7.450   9.589   2.071 -0.0645 -0.4523 -0.5245
 4950SOL    HW125184   7.379   9.590   2.001  0.4798  0.4876 -1.0756
 4950SOL    HW225185   7.441   9.506   2.127 -1.8403 -0.1508 -0.3218
 4951SOL     OW25186   9.320   3.793   1.651 -0.2158  0.2612 -0.0355
 4951SOL    HW125187   9.263   3.745   1.718 -2.8397  1.8617 -1.0560
 4951SOL    HW225188   9.373   3.864   1.697 -0.3724 -0.0537  0.6397
 4952SOL     OW25189   2.961   3.504   0.558  0.4576  0.1042 -0.3910
 4952SOL    HW125190   3.013   3.570   0.502  1.0894 -1.3655 -1.5666
 4952SOL    HW225191   2.948   3.420   0.506  1.9186 -1.6741  2.0200
 4953SOL     OW25192   3.942   2.636   2.589 -0.3350 -0.3700  0.3092
 4953SOL    HW125193   3.915   2.601   2.679  1.8191 -1.2904  0.6501
 4953SOL    HW225194   3.870   2.693   2.552 -0.3437  1.9468  3.6748
 4954SOL     OW25195   0.488   1.637   1.054 -0.0118  0.4941 -0.0964
 4954SOL    HW125196   0.488   1.700   0.977 -0.2312 -1.2670 -1.5667
 4954SOL    HW225197   0.396   1.632   1.093  0.2507  1.9165  0.7578
 4955SOL     OW25198   0.921   2.006   2.768 -0.0074 -0.3359  0.5552
 4955SOL    HW125199   1.020   1.993   2.767  0.2465  1.4422  0.6384
 4955SOL    HW225200   0.893   2.053   2.684 -0.7342 -0.5322  0.6883
 4956SOL     OW25201   1.804   2.115   1.393  0.0188 -0.0706 -0.0531
 4956SOL    HW125202   1.711   2.097   1.362  0.3119  1.0499 -1.5700
 4956SOL    HW225203   1.808   2.103   1.493 -1.8031  0.1641  0.0652
 4957SOL     OW25204   4.338   2.886   0.036 -0.8547  0.2220  0.4368
 4957SOL    HW125205   4.371   2.902  -0.057  0.4194 -1.6643  0.5274
 4957SOL    HW225206   4.351   2.968   0.091 -1.2987  1.2446 -0.9318
 4958SOL     OW25207   9.778   8.269   1.291  0.4635 -1.0251  0.4311
 4958SOL    HW125208   9.731   8.356   1.305 -0.6439 -1.6691  0.7766
 4958SOL    HW225209   9.799   8.228   1.380  1.2541 -0.9686  0.2718
 4959SOL     OW25210   0.434   6.900   2.147 -0.4053  0.2626  0.1752
 4959SOL    HW125211   0.521   6.863   2.114 -1.1362 -0.0191 -1.4436
 4959SOL    HW225212   0.363   6.830   2.140 -1.2908  1.2388 -0.7674
 4960SOL     OW25213   1.457   9.237   3.000  0.4126  0.4397 -0.2335
 4960SOL    HW125214   1.542   9.280   2.971  2.2217 -1.7621  1.6544
 4960SOL    HW225215   1.435   9.266   3.093 -0.6663  0.6198 -0.5326
 4961SOL     OW25216   1.317   1.539   2.454 -0.0205  0.0512 -0.2692
 4961SOL    HW125217   1.244   1.470   2.445  0.5089 -0.5288 -0.1715
 4961SOL    HW225218   1.320   1.571   2.549 -1.4503  1.5427 -0.6997
 4962SOL     OW25219   3.128   6.709   3.039 -0.4157 -0.1161  0.1897
 4962SOL    HW125220   3.062   6.648   2.995 -0.4248 -1.1171  1.5515
 4962SOL    HW225221   3.221   6.684   3.009 -0.3933 -1.0329  0.9812
 4963SOL     OW25222   8.750   9.676   3.219 -0.2003  0.4358 -0.4670
 4963SOL    HW125223   8.757   9.670   3.120  0.5626  0.0897 -0.4005
 4963SOL    HW225224   8.738   9.772   3.246 -0.3541  0.5366 -0.8870
 4964SOL     OW25225   0.103   0.973   2.361 -0.6956  0.0930  0.6591
 4964SOL    HW125226   0.158   0.977   2.444 -0.1804  1.6075  0.2666
 4964SOL    HW225227   0.112   1.059   2.311 -0.4387 -1.0522 -1.3295
 4965SOL     OW25228   0.404   2.064   1.977  0.0501 -0.2620 -0.1402
 4965SOL    HW125229   0.443   2.117   2.053  1.4278 -1.6181  0.1093
 4965SOL    HW225230   0.305   2.081   1.973  0.6630  3.5209 -1.0268
 4966SOL     OW25231   2.443   5.912   1.158  0.2731  0.0687 -0.3384
 4966SOL    HW125232   2.375   5.867   1.101  0.5097 -1.6252  0.6946
 4966SOL    HW225233   2.415   5.908   1.254  0.6434  1.5178 -0.1525
 4967SOL     OW25234   0.163   2.030   1.116 -0.2280 -0.8977 -0.5418
 4967SOL    HW125235   0.181   2.008   1.021 -2.5708  0.0629 -1.2544
 4967SOL    HW225236   0.248   2.057   1.161  0.5059  1.1786 -3.0732
 4968SOL     OW25237   0.118   6.389   0.231 -0.6011 -0.4322 -0.1377
 4968SOL    HW125238   0.161   6.370   0.319 -1.3495  0.4963  0.4403
 4968SOL    HW225239   0.039   6.328   0.219 -0.5363 -0.5161 -0.1357
 4969SOL     OW25240   9.221   1.474   0.073 -0.1357  0.0889  0.0479
 4969SOL    HW125241   9.182   1.534   0.003 -0.5567 -1.9637 -1.5129
 4969SOL    HW225242   9.321   1.479   0.069 -0.1698  0.5191 -0.2202
 4970SOL     OW25243   2.644   4.690   0.851  0.6304  0.0055  0.2295
 4970SOL    HW125244   2.607   4.735   0.932 -0.2923  0.4399 -0.4188
 4970SOL    HW225245   2.732   4.647   0.873  0.1231 -0.3478  1.5884
 4971SOL     OW25246   8.857   9.588   2.717  0.1939  0.0195 -0.3871
 4971SOL    HW125247   8.869   9.527   2.796  2.0307  0.6954 -0.1111
 4971SOL    HW225248   8.908   9.672   2.733 -0.1748  0.5389 -1.9226
 4972SOL     OW25249   1.281   2.803   0.267  0.0687 -0.1341 -0.3722
 4972SOL    HW125250   1.294   2.794   0.168 -1.2608 -3.7517 -0.2624
 4972SOL    HW225251   1.184   2.806   0.289  0.3498  0.6804  0.8406
 4973SOL     OW25252   7.973   9.996   0.962 -0.3017  0.4040  0.3344
 4973SOL    HW125253   8.060   9.976   1.006 -0.6094 -0.5214  0.5166
 4973SOL    HW225254   7.898   9.974   1.025 -0.6392  2.4431  0.6852
 4974SOL     OW25255   8.021   1.592   1.995  0.4865  0.2935  0.2705
 4974SOL    HW125256   8.048   1.667   2.054  0.1870  0.7555 -0.1756
 4974SOL    HW225257   7.921   1.589   1.987  0.3431 -1.6921  2.2866
 4975SOL     OW25258   8.628   4.589   0.977 -0.3446 -0.3881  0.7689
 4975SOL    HW125259   8.561   4.547   1.038  0.1102  1.4791  2.5972
 4975SOL    HW225260   8.720   4.557   1.001 -0.2273 -0.1675  0.6110
 4976SOL     OW25261   7.065   9.731   0.223 -0.3797  1.0443 -0.1780
 4976SOL    HW125262   7.160   9.738   0.193 -0.2624 -1.1667 -0.4371
 4976SOL    HW225263   7.062   9.697   0.317 -0.9242  0.3572 -0.4388
 4977SOL     OW25264   9.883   5.694   2.840  0.2183  0.1391  0.3579
 4977SOL    HW125265   9.976   5.729   2.843 -0.1648  1.3341 -0.9042
 4977SOL    HW225266   9.830   5.746   2.772 -1.2189 -0.8572  0.6861
 4978SOL     OW25267   9.665   1.072   1.716  0.6747  0.1460 -0.3727
 4978SOL    HW125268   9.746   1.027   1.677 -0.0123 -0.7742 -0.7437
 4978SOL    HW225269   9.591   1.070   1.650  1.0686  3.1616 -0.9819
 4979SOL     OW25270   2.024   1.395   1.551 -0.0895  0.3846  0.0076
 4979SOL    HW125271   2.038   1.491   1.574 -2.1356  0.3572  1.4935
 4979SOL    HW225272   2.113   1.350   1.540  0.8952  2.5448 -1.2399
 4980SOL     OW25273   3.051   2.404   1.081  0.1691  0.3475 -0.3309
 4980SOL    HW125274   2.994   2.362   1.011 -0.3188  1.1806 -0.4475
 4980SOL    HW225275   2.996   2.469   1.134  0.5361 -0.2341  0.7924
 4981SOL     OW25276   0.036   0.118   1.472  0.0611 -0.4837  0.0927
 4981SOL    HW125277  -0.002   0.189   1.531 -0.0761  0.2358 -0.8641
 4981SOL    HW225278   0.076   0.046   1.529 -0.7881 -0.1903  1.0751
 4982SOL     OW25279   9.445   2.431   3.313  0.1372 -0.1204  0.3841
 4982SOL    HW125280   9.536   2.436   3.271 -0.0237  1.0665  0.1781
 4982SOL    HW225281   9.396   2.352   3.275  0.6344 -0.0661 -0.3894
 4983SOL     OW25282   8.569   0.474   1.427 -0.0340 -0.2523 -0.1737
 4983SOL    HW125283   8.593   0.435   1.515 -1.9961  1.8476  1.3520
 4983SOL    HW225284   8.572   0.402   1.357  1.2186 -2.0095  1.6270
 4984SOL     OW25285   1.081   7.122   2.332  0.2748 -0.3410  0.1162
 4984SOL    HW125286   1.102   7.220   2.338  1.7324 -0.6287 -0.0644
 4984SOL    HW225287   1.000   7.102   2.387 -0.4497  1.0764 -0.3971
 4985SOL     OW25288   1.922   8.473   1.652 -0.2280  0.3287 -0.6472
 4985SOL    HW125289   1.872   8.392   1.684  1.4314 -0.5902 -0.2759
 4985SOL    HW225290   1.972   8.450   1.569  0.0497  1.0545 -0.6837
 4986SOL     OW25291   2.417   9.081   2.262  0.0506  0.1160  0.3349
 4986SOL    HW125292   2.434   9.079   2.164  1.3771 -3.9258  0.5603
 4986SOL    HW225293   2.470   9.155   2.304  1.6068  0.1614 -1.6317
 4987SOL     OW25294   8.320   7.510   1.539 -0.5059 -0.3819  0.0193
 4987SOL    HW125295   8.337   7.608   1.548  0.8411 -0.5239 -0.7629
 4987SOL    HW225296   8.385   7.460   1.596 -2.0230 -0.8025  1.4239
 4988SOL     OW25297   8.289   2.726   1.876  0.4958 -0.1782 -0.6627
 4988SOL    HW125298   8.196   2.721   1.841 -0.2061 -0.3407  1.1928
 4988SOL    HW225299   8.349   2.670   1.818 -0.3873  0.5712 -2.3416
 4989SOL     OW25300   8.627   3.320   2.053 -0.2106 -0.0706  0.6422
 4989SOL    HW125301   8.539   3.293   2.091 -0.9025 -0.8928 -1.4717
 4989SOL    HW225302   8.631   3.419   2.045 -0.5743  0.0288  1.5968
 4990SOL     OW25303   0.246   2.392   0.798  0.2644  0.1976 -0.4929
 4990SOL    HW125304   0.169   2.378   0.861  0.2021  0.7514 -0.4417
 4990SOL    HW225305   0.329   2.412   0.850  0.2180  0.6319 -0.5773
 4991SOL     OW25306   3.176   7.832   2.619 -0.1150 -0.3520  0.2751
 4991SOL    HW125307   3.087   7.809   2.658 -0.4253 -2.0164 -1.3254
 4991SOL    HW225308   3.173   7.821   2.520  2.1174 -1.2662  0.2730
 4992SOL     OW25309   2.060   9.480   2.907 -0.1183 -0.0036  0.0552
 4992SOL    HW125310   2.150   9.519   2.926  0.6317 -0.8279 -1.7000
 4992SOL    HW225311   2.005   9.480   2.991  2.4144 -1.9353  1.7775
 4993SOL     OW25312   9.096   4.024   0.073 -0.0475  0.0002  0.1238
 4993SOL    HW125313   9.194   4.004   0.065  0.1408  0.8049  0.4138
 4993SOL    HW225314   9.083   4.122   0.083 -0.8886 -0.1076  0.0692
 4994SOL     OW25315   0.879   6.122   2.354  0.1452 -0.4656  0.4711
 4994SOL    HW125316   0.951   6.101   2.288 -0.0551 -2.2965  0.8036
 4994SOL    HW225317   0.810   6.180   2.310  0.3030 -1.2004 -0.7853
 4995SOL     OW25318   3.717   4.245   2.422  0.1408 -0.0151  0.0756
 4995SOL    HW125319   3.692   4.176   2.354 -1.1679  0.5646 -0.0639
 4995SOL    HW225320   3.751   4.201   2.505  1.3069 -0.7470 -0.7760
 4996SOL     OW25321   4.904   0.662   2.804  0.2478  0.2782  0.0803
 4996SOL    HW125322   4.987   0.608   2.799  0.7709  1.1501 -0.9048
 4996SOL    HW225323   4.886   0.705   2.715 -1.6435 -0.4616  0.0644
 4997SOL     OW25324   5.293   7.926   2.339  0.4990 -0.0844  0.1245
 4997SOL    HW125325   5.367   7.909   2.404  0.0073  0.2590  0.7853
 4997SOL    HW225326   5.217   7.864   2.358  0.2404  0.2092  0.0584
 4998SOL     OW25327   7.776   9.977   2.499  0.4328 -0.4765  0.2516
 4998SOL    HW125328   7.750  10.004   2.592  1.9428 -0.7546  0.7758
 4998SOL    HW225329   7.807  10.058   2.448  0.0771 -0.4006  0.1601
 4999SOL     OW25330   0.586   3.978   2.310 -0.1884  0.1238  0.2256
 4999SOL    HW125331   0.573   3.902   2.245 -0.6890  0.7185 -0.3715
 4999SOL    HW225332   0.513   3.975   2.379 -1.9004  1.7579 -1.4651
 5000SOL     OW25333   2.721   3.591   1.879  0.1035  0.2750  0.0311
 5000SOL    HW125334   2.813   3.620   1.906  0.0312  1.7287 -1.2376
 5000SOL    HW225335   2.726   3.527   1.802  0.0821 -0.2799  0.4855
 5001SOL     OW25336   3.365   8.638   0.565 -0.7913 -0.2551 -0.5833
 5001SOL    HW125337   3.352   8.603   0.473  2.6429  0.2221 -1.3134
 5001SOL    HW225338   3.457   8.677   0.574 -1.0833 -0.1613  3.0007
 5002SOL     OW25339   1.749   7.288   2.728 -0.2251 -0.1000  0.0460
 5002SOL    HW125340   1.773   7.217   2.795 -0.5931 -0.2004  0.0723
 5002SOL    HW225341   1.727   7.373   2.776 -0.0642 -0.0459  0.0273
 5003SOL     OW25342   7.587   9.596   3.231 -0.0286 -0.0989  0.2280
 5003SOL    HW125343   7.557   9.671   3.172  1.5726  1.4737  1.3690
 5003SOL    HW225344   7.687   9.598   3.238 -0.2074 -0.2107  3.0584
 5004SOL     OW25345   8.907   5.220   1.607 -0.1890  0.0972 -0.0323
 5004SOL    HW125346   9.006   5.221   1.597 -0.0794 -1.4308  0.7105
 5004SOL    HW225347   8.872   5.128   1.588 -1.2154  0.0674  1.7935
 5005SOL     OW25348   1.550   5.203   2.577  0.0889 -0.4727 -0.3677
 5005SOL    HW125349   1.452   5.218   2.564  0.0503 -0.5777 -0.1897
 5005SOL    HW225350   1.601   5.273   2.527 -0.0635 -0.8513 -1.0668
 5006SOL     OW25351   8.277   8.781   3.442  0.4710 -0.4155 -0.4887
 5006SOL    HW125352   8.298   8.696   3.394  1.2384 -0.5143  0.0191
 5006SOL    HW225353   8.351   8.847   3.427  0.4487 -0.2554  0.1104
 5007SOL     OW25354   1.485   9.905   0.291 -0.7140  0.2217 -0.1058
 5007SOL    HW125355   1.456   9.931   0.383 -1.6154 -0.4973 -0.1810
 5007SOL    HW225356   1.512   9.987   0.241 -1.1706  0.7330  0.4728
 5008SOL     OW25357   1.518   9.037   0.746  0.2908  0.2446  0.0726
 5008SOL    HW125358   1.572   9.064   0.826  0.0070 -1.5620  0.9040
 5008SOL    HW225359   1.420   9.046   0.766  0.2203 -0.1199 -0.0878
 5009SOL     OW25360   0.946   4.024   2.958  0.0071  0.1785 -0.5984
 5009SOL    HW125361   0.949   4.100   3.023 -1.6420 -1.4019  1.4008
 5009SOL    HW225362   0.893   4.049   2.878 -0.3726  1.1810 -0.0321
 5010SOL     OW25363   9.324   5.668   0.795  0.0337 -0.0912 -0.4072
 5010SOL    HW125364   9.398   5.734   0.809  0.2368 -0.5625  0.8401
 5010SOL    HW225365   9.258   5.705   0.729  0.1538  1.3269  0.2529
 5011SOL     OW25366   8.402   3.856   1.588  0.2744 -0.0133  0.3155
 5011SOL    HW125367   8.481   3.839   1.529  1.0388  0.5087  1.1814
 5011SOL    HW225368   8.397   3.953   1.609 -0.7561 -0.0044  0.0591
 5012SOL     OW25369   2.903   8.889   0.075  0.3576  0.1759 -0.3241
 5012SOL    HW125370   2.986   8.871   0.128  0.2516  0.0833 -0.1894
 5012SOL    HW225371   2.823   8.875   0.133  0.2372 -0.0891 -0.5545
 5013SOL     OW25372   9.189   6.058   1.710  0.2305 -0.2145  0.1214
 5013SOL    HW125373   9.242   6.034   1.629  0.4740 -2.2077  0.8295
 5013SOL    HW225374   9.237   6.027   1.792 -2.0622 -2.2798  0.7717
 5014SOL     OW25375   9.878   4.279   0.668  0.1485 -0.1133 -0.3557
 5014SOL    HW125376   9.890   4.369   0.709  0.0810 -0.1618 -0.2294
 5014SOL    HW225377   9.936   4.270   0.587  0.3715 -0.0655 -0.1973
 5015SOL     OW25378   1.831   3.380   1.884  0.2986 -0.0921  0.0090
 5015SOL    HW125379   1.897   3.410   1.953  0.1445 -0.3504  0.2701
 5015SOL    HW225380   1.816   3.453   1.818 -0.3647  0.5422  0.8570
 5016SOL     OW25381   9.075   9.868   3.336  0.0801  0.0218 -0.2373
 5016SOL    HW125382   9.001   9.933   3.319 -0.4639 -0.6698 -0.5521
 5016SOL    HW225383   9.039   9.775   3.330  0.5836 -0.2938  1.4485
 5017SOL     OW25384   2.419   7.859   2.106 -0.6728  0.2387  0.2157
 5017SOL    HW125385   2.469   7.902   2.182  1.1091 -2.2872  0.5169
 5017SOL    HW225386   2.332   7.823   2.140  0.1080 -0.8615  1.0807
 5018SOL     OW25387   3.043   4.150   0.287 -0.6229  0.2423  0.4984
 5018SOL    HW125388   3.006   4.137   0.195 -0.3729  1.6491  0.1989
 5018SOL    HW225389   3.015   4.239   0.323  2.1308  1.1922  0.4011
 5019SOL     OW25390   0.072   7.478   2.147  0.5135 -0.2506 -0.3471
 5019SOL    HW125391   0.032   7.531   2.071  0.0853  0.5771  0.4464
 5019SOL    HW225392   0.167   7.455   2.124  0.4438  0.1358 -1.0633
 5020SOL     OW25393   8.178   0.401   1.134  0.4393 -0.4806  0.0578
 5020SOL    HW125394   8.169   0.456   1.218 -1.3431  1.1406 -1.1495
 5020SOL    HW225395   8.273   0.402   1.104  0.3259  2.6771 -0.3677
 5021SOL     OW25396   3.940   9.830   1.505 -0.1748 -0.2882  0.0250
 5021SOL    HW125397   3.893   9.747   1.473 -1.4664  0.3671  0.2008
 5021SOL    HW225398   3.873   9.897   1.535  0.8869  0.6522  0.3376
 5022SOL     OW25399   3.290   9.635   3.410 -0.5875 -0.4856  0.2065
 5022SOL    HW125400   3.218   9.607   3.473 -1.6994  1.2500 -0.2399
 5022SOL    HW225401   3.286   9.735   3.397  1.9456 -0.3518  0.2199
 5023SOL     OW25402   1.941   9.675   1.163 -0.1453 -0.0569  0.1045
 5023SOL    HW125403   1.965   9.656   1.068  0.7582 -0.3261  0.3863
 5023SOL    HW225404   2.022   9.665   1.221 -0.6827  0.1434  0.8985
 5024SOL     OW25405   3.289   4.655   0.257  0.1017  0.2277  0.0945
 5024SOL    HW125406   3.236   4.739   0.258  0.4980  0.4783  0.3954
 5024SOL    HW225407   3.315   4.630   0.351  0.7704  0.2761 -0.0732
 5025SOL     OW25408   3.576   1.228   0.143  0.5153  0.1829  0.4537
 5025SOL    HW125409   3.582   1.290   0.221 -0.3294  0.9123 -0.0502
 5025SOL    HW225410   3.505   1.160   0.160  1.6351 -0.8432  1.1286
 5026SOL     OW25411   9.839   5.923   1.349  0.3746 -0.1319  0.2257
 5026SOL    HW125412   9.891   6.005   1.327 -0.8979  0.3007 -1.2024
 5026SOL    HW225413   9.899   5.843   1.342  0.4556  0.1691 -3.1222
 5027SOL     OW25414   6.666   8.225   2.656  0.0340  0.2444  0.0619
 5027SOL    HW125415   6.638   8.290   2.584 -0.9618  0.5562  0.7085
 5027SOL    HW225416   6.764   8.231   2.670  0.2420  0.1418 -1.3222
 5028SOL     OW25417   9.993   5.880   3.159 -0.0189 -0.1263  0.2678
 5028SOL    HW125418   9.919   5.881   3.092  0.4445  0.8162 -0.2188
 5028SOL    HW225419   9.973   5.810   3.229 -0.2574 -1.4505 -1.0975
 5029SOL     OW25420   3.934   2.651   0.034  0.9108  0.7017  0.0988
 5029SOL    HW125421   3.874   2.661   0.114  0.1822 -0.1372 -0.3332
 5029SOL    HW225422   4.029   2.662   0.062  0.5971  1.5266  0.8872
 5030SOL     OW25423   1.343   0.203   3.012  0.2550  0.4335 -0.0979
 5030SOL    HW125424   1.371   0.108   3.004 -0.8072  0.1003  0.0114
 5030SOL    HW225425   1.401   0.250   3.078  0.8416 -0.1181 -0.2264
 5031SOL     OW25426   1.865   8.468   1.286  0.0885  0.1299 -0.1409
 5031SOL    HW125427   1.931   8.474   1.211  1.8268  0.6212  1.4061
 5031SOL    HW225428   1.892   8.396   1.350 -1.2161 -0.0711  0.2144
 5032SOL     OW25429   5.138   0.485   2.788  0.0079  0.3232 -0.4780
 5032SOL    HW125430   5.105   0.425   2.716 -0.0969 -0.3694  0.1466
 5032SOL    HW225431   5.232   0.513   2.768 -0.3024  0.7980 -1.3002
 5033SOL     OW25432   2.311   5.365   0.157  0.5606  0.2237  0.3448
 5033SOL    HW125433   2.310   5.272   0.195  0.5262 -0.2871 -0.9035
 5033SOL    HW225434   2.314   5.361   0.058  0.2473  1.5696  0.2702
 5034SOL     OW25435   2.628   2.937   0.330  0.1742  0.5305  0.5073
 5034SOL    HW125436   2.676   3.024   0.337 -0.1367  0.7957 -0.5011
 5034SOL    HW225437   2.557   2.944   0.259 -0.0415 -0.4500  0.6191
 5035SOL     OW25438   1.743   0.383   2.222 -0.2431  0.8511 -0.6828
 5035SOL    HW125439   1.790   0.435   2.151 -0.8075  1.1325 -0.8538
 5035SOL    HW225440   1.758   0.426   2.311 -0.9106  1.4578 -0.8555
 5036SOL     OW25441   1.348   1.944   0.608 -0.6805  0.0806 -0.0278
 5036SOL    HW125442   1.287   1.922   0.684  0.1192  0.0680  0.6162
 5036SOL    HW225443   1.337   2.040   0.584 -0.0760  0.3880  0.8970
 5037SOL     OW25444   4.482   8.239   0.192 -0.3364  0.1993  0.0369
 5037SOL    HW125445   4.437   8.226   0.280 -0.5119  1.7553  0.1915
 5037SOL    HW225446   4.579   8.220   0.201 -0.4277 -0.0701  0.4635
 5038SOL     OW25447   9.113   7.077   2.449 -0.0050 -0.8569 -0.9778
 5038SOL    HW125448   9.020   7.111   2.461  0.3948 -0.6728  1.8233
 5038SOL    HW225449   9.132   7.006   2.516  1.4113 -1.9555 -2.4851
 5039SOL     OW25450   8.369   3.006   1.947 -0.2691  0.2909  0.6397
 5039SOL    HW125451   8.394   3.051   1.862  1.1066 -0.1904  0.7882
 5039SOL    HW225452   8.343   2.911   1.929 -0.2467  0.2671  0.7296
 5040SOL     OW25453   3.824   9.374   2.077  0.2422 -0.0346  0.1865
 5040SOL    HW125454   3.779   9.369   1.988  0.1822 -0.6238  0.2490
 5040SOL    HW225455   3.769   9.327   2.146  0.6224 -0.1751  0.3976
 5041SOL     OW25456   3.935   0.210   2.031 -0.2876 -0.2303 -0.6729
 5041SOL    HW125457   3.987   0.130   1.999  0.1259  0.1191 -0.8750
 5041SOL    HW225458   3.838   0.190   2.024 -0.2244 -0.0545 -2.4587
 5042SOL     OW25459   2.369   7.946   3.311  0.0023 -0.4986 -0.7361
 5042SOL    HW125460   2.332   7.953   3.404 -0.0915 -1.6117 -0.6754
 5042SOL    HW225461   2.331   8.019   3.254 -1.1552 -0.7345 -0.2884
 5043SOL     OW25462   8.205   7.911   1.681 -0.1723  0.2989 -0.0467
 5043SOL    HW125463   8.244   7.856   1.756 -1.9222  0.6436  1.1461
 5043SOL    HW225464   8.219   7.863   1.594 -0.5017 -1.4164  0.8212
 5044SOL     OW25465   9.917   4.948   2.196 -0.3058  0.3069  0.1262
 5044SOL    HW125466   9.948   4.855   2.176  0.8106  0.6065  0.4134
 5044SOL    HW225467   9.946   4.973   2.288  0.0539  1.2216 -0.2356
 5045SOL     OW25468   4.128   0.642   3.372  0.4690  0.5787 -0.0408
 5045SOL    HW125469   4.166   0.550   3.363  1.1517  0.9317 -0.8409
 5045SOL    HW225470   4.099   0.657   3.466  0.4580 -0.4154  0.1187
 5046SOL     OW25471   2.216   3.178   3.368 -0.2601 -0.2671 -0.1293
 5046SOL    HW125472   2.191   3.219   3.456 -3.2719 -3.5750  0.6614
 5046SOL    HW225473   2.160   3.218   3.296 -0.3317 -0.1301  0.0009
 5047SOL     OW25474   0.225   9.702   1.908 -0.0654  0.3281  0.3180
 5047SOL    HW125475   0.174   9.676   1.827 -0.9090  1.6841  0.3908
 5047SOL    HW225476   0.310   9.747   1.881 -0.1089  0.3285  0.1823
 5048SOL     OW25477   2.159   9.494   1.286 -0.5032 -0.2925  0.1087
 5048SOL    HW125478   2.189   9.589   1.297  1.3074 -0.8080 -0.1046
 5048SOL    HW225479   2.235   9.439   1.250 -0.6866 -2.3450  2.6383
 5049SOL     OW25480   4.513   2.582   2.232 -0.2349 -0.4904  0.2685
 5049SOL    HW125481   4.431   2.526   2.243  0.5576 -1.2214  2.7297
 5049SOL    HW225482   4.491   2.678   2.252  0.1856 -1.1564  4.2696
 5050SOL     OW25483   7.904   8.089   3.064  0.1646  0.1321 -0.0585
 5050SOL    HW125484   7.927   8.030   3.141  0.8792 -0.2773 -0.5834
 5050SOL    HW225485   7.812   8.067   3.031 -0.6167  1.1237  1.4342
 5051SOL     OW25486   1.872   7.727   3.366  0.0921  0.3765  0.3637
 5051SOL    HW125487   1.867   7.681   3.277 -0.7600  0.4100  0.3869
 5051SOL    HW225488   1.910   7.664   3.434 -1.0477 -0.3194  0.3856
 5052SOL     OW25489   1.245   4.266   0.906  0.6000  0.3616 -0.5099
 5052SOL    HW125490   1.240   4.167   0.913 -0.4194  0.4181 -0.2834
 5052SOL    HW225491   1.335   4.293   0.872  1.3798 -0.5701  0.7633
 5053SOL     OW25492   2.440   5.702   2.470  0.4937  0.4271 -0.1569
 5053SOL    HW125493   2.449   5.726   2.567  2.0450 -0.8470  0.0493
 5053SOL    HW225494   2.527   5.716   2.424 -0.0463  0.3436 -1.2164
 5054SOL     OW25495   5.460   7.959   2.574 -0.2538  0.3427 -0.2306
 5054SOL    HW125496   5.541   7.950   2.633  0.0327 -0.3392 -0.7301
 5054SOL    HW225497   5.378   7.936   2.625  0.1437 -1.8010 -0.5419
 5055SOL     OW25498   3.401   5.337   3.329 -0.1932 -0.3681 -0.4326
 5055SOL    HW125499   3.428   5.291   3.245 -1.9297 -1.3917 -0.4553
 5055SOL    HW225500   3.342   5.415   3.308  0.2950  0.0614 -0.2231
 5056SOL     OW25501   3.313   7.773   0.938  0.2099 -0.2910  0.0542
 5056SOL    HW125502   3.335   7.681   0.970  0.7257  0.0623  0.7163
 5056SOL    HW225503   3.397   7.820   0.910  0.5018  1.4248  3.5646
 5057SOL     OW25504   2.871   3.147   2.463 -0.1348  0.4414 -0.1831
 5057SOL    HW125505   2.916   3.071   2.415 -0.3589 -0.4395  0.9871
 5057SOL    HW225506   2.818   3.201   2.397 -0.6350 -0.8886 -0.8931
 5058SOL     OW25507   1.481   9.951   2.922  0.1629  0.2744  0.2321
 5058SOL    HW125508   1.398   9.895   2.928  0.1046  0.5644  2.7114
 5058SOL    HW225509   1.549   9.917   2.988  1.5581  0.7973 -0.9082
 5059SOL     OW25510   8.294   0.374   1.805 -0.0047 -0.4946  0.0005
 5059SOL    HW125511   8.301   0.303   1.734  0.1108 -0.8441  0.3627
 5059SOL    HW225512   8.383   0.388   1.847  0.0963  0.2661 -0.4529
 5060SOL     OW25513   1.185   1.775   1.201  0.3357  0.0074  0.6800
 5060SOL    HW125514   1.183   1.785   1.301 -0.0618 -3.2661  1.0343
 5060SOL    HW225515   1.273   1.740   1.172  0.7625  1.7705 -0.2579
 5061SOL     OW25516   1.019   6.229   3.256  0.2218  0.5478  0.2024
 5061SOL    HW125517   0.987   6.256   3.165 -1.0800  1.4038  0.9068
 5061SOL    HW225518   1.054   6.310   3.304 -0.5888  0.3958  1.0678
 5062SOL     OW25519   9.510   7.827   2.525 -0.5093 -0.5069  0.0107
 5062SOL    HW125520   9.502   7.917   2.567 -0.6699 -0.4586 -0.1257
 5062SOL    HW225521   9.519   7.758   2.597 -0.0313 -0.3450  0.1016
 5063SOL     OW25522   1.445   1.638   3.108 -0.2414 -0.1462 -0.0771
 5063SOL    HW125523   1.349   1.621   3.087 -0.6148 -0.3887  1.7198
 5063SOL    HW225524   1.452   1.709   3.178  0.9344  0.4991 -0.8283
 5064SOL     OW25525   3.208   0.133   0.253 -0.2535 -0.0602  0.7046
 5064SOL    HW125526   3.216   0.193   0.332  0.0215 -0.2873  0.8499
 5064SOL    HW225527   3.291   0.140   0.197 -0.2984 -0.1657  0.6244
 5065SOL     OW25528   7.967   7.938   3.307  0.0185 -0.1979 -0.0845
 5065SOL    HW125529   8.004   8.029   3.327 -0.7029  0.1156 -0.1283
 5065SOL    HW225530   8.039   7.870   3.313  0.7246  0.4818 -0.7880
 5066SOL     OW25531   0.817   0.015   3.204 -0.3458  0.5167 -0.1835
 5066SOL    HW125532   0.721  -0.008   3.190 -0.8554 -0.5004  4.2981
 5066SOL    HW225533   0.828   0.062   3.291  3.3150  0.1515 -0.3629
 5067SOL     OW25534   3.271   4.421   1.518 -0.7342 -0.2340  0.3700
 5067SOL    HW125535   3.177   4.454   1.527 -0.3612  0.7516  0.7780
 5067SOL    HW225536   3.334   4.496   1.539  0.1510 -0.6104 -0.8777
 5068SOL     OW25537   8.947   0.556   1.340 -0.3193  0.2868  0.3372
 5068SOL    HW125538   8.979   0.600   1.257 -0.2517 -0.2165  0.0971
 5068SOL    HW225539   8.849   0.572   1.351 -0.3506  0.2519  0.0961
 5069SOL     OW25540   0.749   9.188   1.354 -0.0643 -0.1965 -0.1806
 5069SOL    HW125541   0.777   9.099   1.317  1.8984  1.3238 -2.5030
 5069SOL    HW225542   0.773   9.193   1.450 -0.6634 -2.3646  0.1134
 5070SOL     OW25543   1.248   2.360   3.094  0.4678 -0.3745  0.0465
 5070SOL    HW125544   1.259   2.384   3.190 -0.9834  1.0329 -0.1144
 5070SOL    HW225545   1.298   2.276   3.074 -0.2257 -1.3648  2.3148
 5071SOL     OW25546   2.938   1.856   0.786 -0.5248 -0.3328 -0.0389
 5071SOL    HW125547   3.033   1.837   0.760 -0.1599 -1.8580  2.2560
 5071SOL    HW225548   2.876   1.814   0.719  0.4039  0.1748 -1.2310
 5072SOL     OW25549   0.442   9.584   3.115 -0.1202  0.8007 -0.5210
 5072SOL    HW125550   0.537   9.606   3.137 -0.4420  1.5276  0.1812
 5072SOL    HW225551   0.382   9.649   3.161 -1.0155 -0.3847 -0.0028
 5073SOL     OW25552   3.274   5.137   0.426 -0.2512 -0.4636 -0.4710
 5073SOL    HW125553   3.310   5.130   0.333  0.2278 -1.3612 -0.2286
 5073SOL    HW225554   3.184   5.181   0.424 -0.5583 -1.1089 -1.4330
 5074SOL     OW25555   3.725   3.957   1.821  0.0385  0.3468  0.3688
 5074SOL    HW125556   3.640   3.990   1.779  1.7364  2.7082 -1.3438
 5074SOL    HW225557   3.713   3.863   1.852 -3.0342  0.4725 -0.3083
 5075SOL     OW25558   3.536   2.951   2.245 -0.1691 -0.3017  0.0595
 5075SOL    HW125559   3.452   2.950   2.190 -0.3335 -0.9461  0.3224
 5075SOL    HW225560   3.521   3.007   2.327 -0.5872 -1.0103  0.4792
 5076SOL     OW25561   3.680   0.020   2.041  0.6492 -0.4500 -0.0448
 5076SOL    HW125562   3.750  -0.051   2.043  0.7842 -0.3668 -1.6112
 5076SOL    HW225563   3.620   0.009   2.121  0.8588 -2.1255 -0.0949
 5077SOL     OW25564   8.181   8.260   1.237  0.1364 -0.4766 -0.3396
 5077SOL    HW125565   8.087   8.228   1.252 -0.0264 -0.4323 -1.2728
 5077SOL    HW225566   8.245   8.187   1.262  0.0754  0.9455  4.6185
 5078SOL     OW25567   4.677   9.781   3.227  0.5346 -0.2812 -0.0360
 5078SOL    HW125568   4.610   9.787   3.153  0.0298 -0.5056  0.4019
 5078SOL    HW225569   4.768   9.800   3.191  0.2525 -0.1020 -0.6597
 5079SOL     OW25570   8.822   5.305   2.296  0.2533 -0.4785 -0.1978
 5079SOL    HW125571   8.769   5.391   2.300  2.5908  0.9494  1.9669
 5079SOL    HW225572   8.801   5.250   2.377  2.5822  0.4670  1.1010
 5080SOL     OW25573   9.413   2.998   1.439  0.0741  0.1154 -0.1524
 5080SOL    HW125574   9.382   3.059   1.366  0.0352  0.4035  0.1020
 5080SOL    HW225575   9.339   2.986   1.506  0.9486  1.8953  1.1769
 5081SOL     OW25576   0.278   9.398   3.212 -0.1788  0.1662 -0.3097
 5081SOL    HW125577   0.356   9.450   3.175 -1.3882  1.5334 -0.9822
 5081SOL    HW225578   0.253   9.326   3.148 -0.8589  1.1192 -1.1206
 5082SOL     OW25579   0.799   8.665   2.676 -0.1272 -0.0269 -0.0170
 5082SOL    HW125580   0.859   8.713   2.739  0.5881  1.0877 -1.5343
 5082SOL    HW225581   0.706   8.702   2.683  0.0082  0.2772  0.1640
 5083SOL     OW25582   4.150   3.118   0.959  0.2260 -0.1447 -0.4954
 5083SOL    HW125583   4.076   3.151   1.018  0.5263 -0.6902  0.1956
 5083SOL    HW225584   4.237   3.133   1.005  0.5700  0.7428 -1.4264
 5084SOL     OW25585   9.036   0.881   0.232  0.1160 -0.1572 -0.0004
 5084SOL    HW125586   8.951   0.837   0.257 -0.3545  0.5013 -0.4193
 5084SOL    HW225587   9.061   0.855   0.138 -0.2973  0.6545 -0.3433
 5085SOL     OW25588   5.121   8.784   2.449 -0.3530 -0.2939 -0.2235
 5085SOL    HW125589   5.084   8.841   2.375 -1.0964  0.6994  0.9010
 5085SOL    HW225590   5.215   8.756   2.425 -0.7227 -0.3199 -1.7123
 5086SOL     OW25591   0.582   8.216   3.401  0.4616 -0.2002  0.3288
 5086SOL    HW125592   0.661   8.278   3.402  1.1888 -1.1156  0.9353
 5086SOL    HW225593   0.612   8.124   3.428 -0.7452 -0.6448  0.1795
 5087SOL     OW25594   4.550   1.155   2.141 -0.4413  0.5044 -0.0254
 5087SOL    HW125595   4.567   1.224   2.212 -0.6816  0.4089  0.1249
 5087SOL    HW225596   4.635   1.104   2.124 -0.7645 -0.4990  1.2906
 5088SOL     OW25597   1.469   8.851   0.579 -0.2709  0.0949 -0.5299
 5088SOL    HW125598   1.482   8.775   0.643  2.0386 -1.3644 -2.6335
 5088SOL    HW225599   1.502   8.935   0.622 -0.1849 -0.5817  0.7804
 5089SOL     OW25600   0.502   7.187   2.101  0.6877  0.6187 -0.3073
 5089SOL    HW125601   0.473   7.238   2.182  0.2598 -0.7763  0.4145
 5089SOL    HW225602   0.468   7.094   2.105 -4.4057  1.9971 -4.8622
 5090SOL     OW25603   4.275   0.064   2.089 -0.0017 -0.1682 -0.1956
 5090SOL    HW125604   4.291   0.155   2.053 -2.2395 -0.1664 -1.3048
 5090SOL    HW225605   4.308  -0.004   2.023 -0.6669 -0.1427 -0.5686
 5091SOL     OW25606   3.156   5.358   2.898 -0.7101  0.3930  0.3306
 5091SOL    HW125607   3.167   5.266   2.937 -1.1523  0.8094  1.4407
 5091SOL    HW225608   3.160   5.352   2.798 -1.1723 -0.8997  0.3794
 5092SOL     OW25609   3.553   2.694   1.981 -0.0814 -0.4324 -0.2555
 5092SOL    HW125610   3.589   2.775   1.935 -0.0734 -0.5013 -0.3706
 5092SOL    HW225611   3.607   2.614   1.955 -1.2738 -0.8063 -1.6546
 5093SOL     OW25612   2.933   4.316   2.649  0.1243  0.0184 -0.0786
 5093SOL    HW125613   2.877   4.367   2.584 -0.3705  0.9582  1.0904
 5093SOL    HW225614   3.029   4.342   2.638  0.1307 -0.3320 -0.8976
 5094SOL     OW25615   8.603   4.765   0.035  0.5700 -0.0284  0.2035
 5094SOL    HW125616   8.650   4.853   0.041 -0.5892  0.4118  3.8296
 5094SOL    HW225617   8.509   4.775   0.068 -0.7080 -1.9166 -2.6152
 5095SOL     OW25618   1.057   6.812   2.504  0.1789  0.0371  0.5633
 5095SOL    HW125619   1.128   6.868   2.547 -0.2431  0.5058  0.6599
 5095SOL    HW225620   1.095   6.723   2.481  0.7010  0.1495  0.9522
 5096SOL     OW25621   1.819   3.628   1.218 -0.1537 -0.0931 -0.0956
 5096SOL    HW125622   1.875   3.626   1.301 -0.3832 -0.4421  0.0550
 5096SOL    HW225623   1.722   3.628   1.243 -0.2301 -0.7174 -0.3639
 5097SOL     OW25624   4.880   0.632   2.106  0.3914 -0.1715 -0.5324
 5097SOL    HW125625   4.839   0.670   2.022  0.1738 -3.6900 -2.0981
 5097SOL    HW225626   4.811   0.579   2.156  1.2590 -0.4321  0.4058
 5098SOL     OW25627   5.022   3.102   1.815  0.0353 -0.4205  0.2362
 5098SOL    HW125628   5.056   3.174   1.754  0.1142 -0.1375  0.6137
 5098SOL    HW225629   4.941   3.135   1.863 -0.2589 -0.7840 -0.0024
 5099SOL     OW25630   3.884   3.574   0.856  0.6626  0.5181 -0.7314
 5099SOL    HW125631   3.854   3.609   0.945  1.8486 -0.4859  0.0718
 5099SOL    HW225632   3.965   3.516   0.868  1.4757  1.2291 -2.5866
 5100SOL     OW25633   2.426   7.026   3.269  0.1270 -0.5078  0.7080
 5100SOL    HW125634   2.445   6.928   3.259  0.0517 -0.4548 -0.0147
 5100SOL    HW225635   2.383   7.060   3.185 -0.2127  0.0607  1.1068
 5101SOL     OW25636   1.663   6.696   2.586 -0.1357  0.2189  0.0591
 5101SOL    HW125637   1.745   6.749   2.605 -0.2529  0.1978  0.6515
 5101SOL    HW225638   1.584   6.757   2.584 -0.3986 -0.0358  1.6660
 5102SOL     OW25639   0.884   2.995   1.807  0.4876 -0.3833  0.1950
 5102SOL    HW125640   0.881   2.933   1.885 -1.9674 -2.0016 -1.0893
 5102SOL    HW225641   0.860   3.087   1.837 -0.4415 -0.9893  1.3882
 5103SOL     OW25642   3.461   8.208   0.802 -0.0021 -0.0257 -0.0625
 5103SOL    HW125643   3.467   8.268   0.722 -1.7879  1.2996  0.7398
 5103SOL    HW225644   3.365   8.193   0.825  0.4817  0.2077  2.2393
 5104SOL     OW25645   2.817   5.873   0.510 -0.2631  0.2588 -0.5884
 5104SOL    HW125646   2.879   5.799   0.533 -1.0400 -0.0298  0.6133
 5104SOL    HW225647   2.870   5.953   0.481  0.5911 -0.6056 -1.4389
 5105SOL     OW25648   9.668   8.770   2.945 -0.5942  0.0285  0.1290
 5105SOL    HW125649   9.622   8.846   2.991 -2.0729 -0.0228 -1.2051
 5105SOL    HW225650   9.726   8.806   2.872  2.2184  0.1506  2.3507
 5106SOL     OW25651   3.247   5.110   3.007 -0.1441  0.1527 -0.1440
 5106SOL    HW125652   3.341   5.124   3.041  0.0779 -0.5595 -0.4525
 5106SOL    HW225653   3.186   5.093   3.084 -0.0943  1.0121  0.0906
 5107SOL     OW25654   3.568   3.193   0.844 -0.4732 -0.2633  0.5690
 5107SOL    HW125655   3.637   3.155   0.783 -0.4325 -0.2222  0.5896
 5107SOL    HW225656   3.558   3.134   0.924 -0.7122 -0.4567  0.3973
 5108SOL     OW25657   7.691   8.450   0.400  0.0591 -0.4586 -0.4373
 5108SOL    HW125658   7.741   8.386   0.341  2.0398  0.4454  0.2291
 5108SOL    HW225659   7.741   8.463   0.485 -0.1260  2.2967 -0.7228
 5109SOL     OW25660   2.221   6.458   0.878 -0.6784 -0.7390  0.1117
 5109SOL    HW125661   2.306   6.485   0.834 -0.8401  3.1247  1.9834
 5109SOL    HW225662   2.237   6.377   0.935  1.6002 -0.3974  0.0077
 5110SOL     OW25663   4.743   2.323   1.159  0.3826  0.3148 -0.7209
 5110SOL    HW125664   4.717   2.355   1.250  1.3262  2.0896 -1.0488
 5110SOL    HW225665   4.663   2.326   1.099  0.2237  1.1493 -0.4772
 5111SOL     OW25666   0.510   7.878   2.115 -0.0046 -0.7414  0.1271
 5111SOL    HW125667   0.514   7.892   2.016 -0.9379  1.3281  0.3534
 5111SOL    HW225668   0.596   7.907   2.156 -0.1242 -0.2993  0.0654
 5112SOL     OW25669   8.102   7.487   2.068  0.2943  0.0307 -0.5064
 5112SOL    HW125670   8.103   7.572   2.121 -0.6329 -0.1212 -0.2426
 5112SOL    HW225671   8.136   7.506   1.975 -1.9197  1.1401 -1.1108
 5113SOL     OW25672   0.076   5.382   1.811 -0.0646 -0.2199  0.0038
 5113SOL    HW125673   0.173   5.369   1.832 -0.1048 -0.3703  0.0988
 5113SOL    HW225674   0.062   5.382   1.712  0.0948  0.2591 -0.0192
 5114SOL     OW25675   8.653   4.024   2.067 -0.2788  0.5077  0.1746
 5114SOL    HW125676   8.638   3.976   2.154 -1.3985  0.9687  0.2307
 5114SOL    HW225677   8.643   3.959   1.991 -1.5022  0.5794  0.2676
 5115SOL     OW25678   5.664   8.204   3.033  0.2508 -0.5917 -0.1102
 5115SOL    HW125679   5.721   8.124   3.013 -1.1084 -1.3660 -0.9264
 5115SOL    HW225680   5.590   8.210   2.966 -1.2989 -0.2419  1.5923
 5116SOL     OW25681   8.283   6.455   2.030  0.4095  0.4533 -0.4464
 5116SOL    HW125682   8.378   6.434   2.055  0.3737  0.8839  0.0549
 5116SOL    HW225683   8.235   6.370   2.009  1.0802  0.2778 -1.3182
 5117SOL     OW25684   2.041   6.557   0.029  0.3953 -0.0901 -0.1801
 5117SOL    HW125685   1.990   6.642   0.013  0.2947  0.3959  2.5954
 5117SOL    HW225686   2.139   6.576   0.024  0.3723  0.1753  0.4060
 5118SOL     OW25687   1.165   9.988   2.471 -0.3910 -0.1482  0.1287
 5118SOL    HW125688   1.098   9.917   2.492  0.1261 -0.6735  0.0068
 5118SOL    HW225689   1.119  10.064   2.425 -0.6127 -1.2129 -1.4280
 5119SOL     OW25690   0.235   1.626   1.133  0.3623  0.0519 -0.5409
 5119SOL    HW125691   0.222   1.672   1.221  1.5227  0.3037 -0.4908
 5119SOL    HW225692   0.146   1.606   1.093 -0.1709  1.3429 -0.0467
 5120SOL     OW25693   4.273   3.217   1.727 -0.4832  0.4430  0.4607
 5120SOL    HW125694   4.241   3.248   1.637  1.6238 -1.4652 -1.0161
 5120SOL    HW225695   4.357   3.266   1.750  0.3973 -0.8981  0.1672
 5121SOL     OW25696   9.187   5.634   2.972  0.1675  0.2275 -0.1633
 5121SOL    HW125697   9.127   5.568   2.926  1.4510 -0.4870 -0.8357
 5121SOL    HW225698   9.144   5.663   3.058 -2.3904  1.8070 -1.8991
 5122SOL     OW25699   9.787   6.405   0.040  1.1009  0.1973  0.4453
 5122SOL    HW125700   9.689   6.423   0.033  0.9691 -1.1884 -2.2420
 5122SOL    HW225701   9.834   6.487   0.072 -0.9843  0.6709  2.4690
 5123SOL     OW25702   0.013   2.363   1.793  0.0235  0.4228  0.2268
 5123SOL    HW125703  -0.017   2.365   1.889  0.2600  0.1121  0.3060
 5123SOL    HW225704  -0.059   2.403   1.735 -0.5566 -0.3336  0.4131
 5124SOL     OW25705   2.939   4.822   2.874 -0.0021 -0.1404 -0.2056
 5124SOL    HW125706   2.981   4.766   2.946  1.2356 -0.7905 -1.4214
 5124SOL    HW225707   3.004   4.893   2.845 -0.9678  0.9246  0.1942
 5125SOL     OW25708   3.913   0.544   2.645  0.1592  0.8057 -0.0484
 5125SOL    HW125709   3.926   0.447   2.670 -0.8529  0.4537 -0.8649
 5125SOL    HW225710   3.902   0.598   2.728  1.4020  0.3175  0.4426
 5126SOL     OW25711   1.947   5.518   2.596 -0.4165 -0.0294 -0.2228
 5126SOL    HW125712   1.861   5.569   2.591  0.1111  0.8161 -1.0279
 5126SOL    HW225713   1.995   5.526   2.508 -0.4476 -2.1750 -0.4509
 5127SOL     OW25714   9.760   7.190   0.037 -0.0050  0.3217  0.4846
 5127SOL    HW125715   9.683   7.137  -0.000 -0.5807 -0.3376  2.5826
 5127SOL    HW225716   9.846   7.148   0.009 -0.4172 -0.0311 -0.2901
 5128SOL     OW25717   9.832   1.296   1.808  0.2548 -0.3414 -0.2038
 5128SOL    HW125718   9.859   1.300   1.904  0.7011  1.0871 -0.3830
 5128SOL    HW225719   9.800   1.204   1.786 -0.0625 -0.6097  1.3684
 5129SOL     OW25720   9.541   1.993   0.315 -0.0870  0.5859  0.1060
 5129SOL    HW125721   9.602   1.977   0.239  1.6114 -0.1520  1.5924
 5129SOL    HW225722   9.479   1.915   0.326  0.4265  0.1879  0.1796
 5130SOL     OW25723   2.063   6.101   0.352 -0.1465 -0.4651 -0.1647
 5130SOL    HW125724   1.988   6.085   0.288  0.6176 -1.6208 -0.7821
 5130SOL    HW225725   2.077   6.199   0.363 -0.1942 -0.2569 -1.8816
 5131SOL     OW25726   9.358   9.142   1.729  0.2891  0.1721  0.0810
 5131SOL    HW125727   9.318   9.055   1.701  0.8638  0.3871 -1.4676
 5131SOL    HW225728   9.285   9.207   1.752 -0.1783 -0.2324 -0.2554
 5132SOL     OW25729   3.522   6.885   0.179  0.5052 -0.3800 -0.9542
 5132SOL    HW125730   3.446   6.831   0.143  1.2294 -1.4430 -0.9229
 5132SOL    HW225731   3.564   6.937   0.105  0.1290 -0.2586 -1.0829
 5133SOL     OW25732   2.293   2.045   0.508  0.2094 -0.2373  0.2405
 5133SOL    HW125733   2.348   2.000   0.578  1.5640 -0.8910 -1.1885
 5133SOL    HW225734   2.197   2.044   0.535  0.7241 -0.2975  2.1598
 5134SOL     OW25735   2.830   8.373   3.187 -0.1040  0.0634 -0.0279
 5134SOL    HW125736   2.914   8.373   3.133 -0.7013 -0.4657 -0.9493
 5134SOL    HW225737   2.837   8.304   3.259  0.2150 -0.0428 -0.1568
 5135SOL     OW25738   3.631   8.539   2.430  0.3542  0.6819  0.2984
 5135SOL    HW125739   3.550   8.485   2.454  0.5571  0.7459  1.1449
 5135SOL    HW225740   3.645   8.535   2.331 -0.6740  0.6626  0.1456
 5136SOL     OW25741   1.597   9.368   1.338  0.7887 -0.2991 -0.5988
 5136SOL    HW125742   1.630   9.425   1.413 -1.2997  1.1821 -0.7624
 5136SOL    HW225743   1.675   9.332   1.286  2.1697  1.5939  0.1207
 5137SOL     OW25744   8.101   3.710   1.304 -0.7590 -0.7627  0.4901
 5137SOL    HW125745   8.081   3.700   1.401 -0.3346 -0.5992  0.5940
 5137SOL    HW225746   8.149   3.796   1.288 -2.1651 -0.0581 -0.0651
 5138SOL     OW25747   2.259   3.217   1.839 -0.1051  0.4401  0.2274
 5138SOL    HW125748   2.197   3.223   1.760  0.2139 -0.1798 -0.0676
 5138SOL    HW225749   2.276   3.121   1.861 -0.4892  0.6070  1.2904
 5139SOL     OW25750   7.005   8.378   2.516 -0.3072 -0.1233  0.0874
 5139SOL    HW125751   7.017   8.355   2.420 -4.6157 -0.9064 -0.3706
 5139SOL    HW225752   6.999   8.295   2.570  5.0445  0.2711  1.6448
 5140SOL     OW25753   4.462   2.714   1.210 -0.3093 -0.0704 -0.3172
 5140SOL    HW125754   4.550   2.742   1.172 -0.0946  0.1886  0.3712
 5140SOL    HW225755   4.475   2.632   1.266 -0.6006 -0.3473 -0.6439
 5141SOL     OW25756   1.003   3.960   0.710  0.3140 -0.1528  0.3286
 5141SOL    HW125757   0.935   4.034   0.712  0.6371  0.1126  1.7482
 5141SOL    HW225758   0.967   3.885   0.654 -1.6500 -0.4768  1.9540
 5142SOL     OW25759   8.580   0.859   1.672  0.2590  0.5329 -0.4212
 5142SOL    HW125760   8.577   0.937   1.609 -2.6363  2.2131  1.6666
 5142SOL    HW225761   8.515   0.789   1.641 -1.5676  1.5936  0.9062
 5143SOL     OW25762   3.890   9.204   2.637  0.3934  0.2775  0.1278
 5143SOL    HW125763   3.862   9.151   2.557  2.4633  0.8569 -1.0140
 5143SOL    HW225764   3.984   9.234   2.626  1.7591 -2.0952  4.0504
 5144SOL     OW25765   2.044   4.223   2.370 -0.3389 -0.7964 -0.0577
 5144SOL    HW125766   2.108   4.275   2.313  0.3723 -0.0170  1.4173
 5144SOL    HW225767   2.067   4.126   2.363 -0.6118 -0.7731 -1.5172
 5145SOL     OW25768   2.343   5.017   2.755  0.2109  0.6513 -0.1802
 5145SOL    HW125769   2.324   5.044   2.660  1.2451 -1.7792 -1.1229
 5145SOL    HW225770   2.282   4.943   2.782  0.0465  1.2100  0.9876
 5146SOL     OW25771   0.212   6.216   2.812 -0.2041  0.5396  0.6984
 5146SOL    HW125772   0.182   6.278   2.885 -1.3211  0.0859  0.6298
 5146SOL    HW225773   0.246   6.131   2.852 -0.8317  0.2845  0.6873
 5147SOL     OW25774   2.209   9.837   0.805 -0.5608 -0.2000  0.2936
 5147SOL    HW125775   2.303   9.814   0.781 -0.5042  0.2403  0.0814
 5147SOL    HW225776   2.201   9.937   0.813 -0.7794 -0.2843  1.2474
 5148SOL     OW25777   1.977   5.415   1.136 -0.0483 -0.3195  0.1941
 5148SOL    HW125778   2.017   5.344   1.078  0.0486  0.0670 -0.2160
 5148SOL    HW225779   1.883   5.390   1.159  0.8202 -1.8206  2.1762
 5149SOL     OW25780   2.886   7.514   1.884 -0.5640  0.5475 -0.4406
 5149SOL    HW125781   2.909   7.481   1.975  2.8158 -0.4257 -1.5872
 5149SOL    HW225782   2.798   7.475   1.856 -0.1191 -1.6765  1.1656
 5150SOL     OW25783   8.983   4.378   2.017  0.1299 -0.3971  0.2868
 5150SOL    HW125784   9.044   4.353   1.942 -1.9089 -0.8497 -1.2694
 5150SOL    HW225785   8.910   4.310   2.024 -0.5113  0.4237  1.7842
 5151SOL     OW25786   3.098   0.340   2.819  0.9171  0.2470  0.3488
 5151SOL    HW125787   3.041   0.348   2.901  0.2448 -3.1663  0.3091
 5151SOL    HW225788   3.047   0.373   2.739  0.0801 -0.0639  0.7455
 5152SOL     OW25789   8.672   2.571   2.056  0.2181 -0.2502 -0.1296
 5152SOL    HW125790   8.598   2.512   2.023 -0.9204  0.2892  1.3888
 5152SOL    HW225791   8.636   2.663   2.073  1.2628  0.0364  0.5691
 5153SOL     OW25792   2.224   1.099   0.949 -0.3086  0.3169 -0.0693
 5153SOL    HW125793   2.251   1.191   0.976 -0.9664  0.4871  0.0341
 5153SOL    HW225794   2.246   1.035   1.024  0.3964  0.3432 -0.2525
 5154SOL     OW25795   4.208   0.373   3.251  0.0235 -0.0588 -0.6074
 5154SOL    HW125796   4.277   0.305   3.275  0.9931 -0.0388 -3.1982
 5154SOL    HW225797   4.117   0.333   3.263  0.5651 -1.6650 -1.5556
 5155SOL     OW25798   5.236   8.206   3.052 -0.5259  0.5049  0.1602
 5155SOL    HW125799   5.281   8.290   3.021  0.9139  0.0211  0.8833
 5155SOL    HW225800   5.153   8.191   2.998 -0.3244  1.9089 -0.5776
 5156SOL     OW25801   3.536   7.326   2.989  0.1063  0.4419 -0.1605
 5156SOL    HW125802   3.616   7.382   2.972  1.7382 -1.2634  1.6558
 5156SOL    HW225803   3.564   7.238   3.028 -2.5450 -0.7415 -0.8031
 5157SOL     OW25804   8.043   8.840   3.330  0.0464  0.5411  0.2297
 5157SOL    HW125805   8.083   8.922   3.288  0.1875  0.3131 -0.0832
 5157SOL    HW225806   8.108   8.801   3.396  0.2918  0.2429 -0.1847
 5158SOL     OW25807   4.170   9.729   1.659  0.1066  0.2314 -0.4371
 5158SOL    HW125808   4.099   9.722   1.730  1.0293 -0.7397  0.3936
 5158SOL    HW225809   4.126   9.751   1.572 -0.9308  2.6199  0.6398
 5159SOL     OW25810   9.221   0.069   3.204 -0.4751 -0.2950  0.1550
 5159SOL    HW125811   9.184  -0.018   3.239 -2.5487  0.1459 -0.8642
 5159SOL    HW225812   9.146   0.128   3.175  1.0318  0.8088 -1.6281
 5160SOL     OW25813   2.869   2.461   0.363  0.1370  0.2189  0.1769
 5160SOL    HW125814   2.942   2.449   0.431 -0.2495 -0.4504  0.4685
 5160SOL    HW225815   2.870   2.556   0.331  1.4594  0.0921 -0.1912
 5161SOL     OW25816   2.553   1.034   1.687 -0.2301 -0.2655  0.2599
 5161SOL    HW125817   2.475   0.987   1.646  0.6910 -2.0293  0.4410
 5161SOL    HW225818   2.638   0.987   1.661  0.6902  0.9960  0.8925
 5162SOL     OW25819   1.924   6.383   2.560  0.2927 -0.1638  0.5070
 5162SOL    HW125820   1.914   6.453   2.489  0.9833  0.7469  1.2997
 5162SOL    HW225821   1.834   6.365   2.601  0.3563  1.4687  1.4281
 5163SOL     OW25822   8.691   7.479   2.291 -0.0436  0.3056 -0.4353
 5163SOL    HW125823   8.644   7.424   2.222  0.1522  2.0140 -1.9779
 5163SOL    HW225824   8.628   7.545   2.331 -0.0570 -0.4153  0.7381
 5164SOL     OW25825   8.337   1.320   1.848 -0.4017  0.6403  0.4324
 5164SOL    HW125826   8.434   1.299   1.863 -0.0961  1.2011 -0.7220
 5164SOL    HW225827   8.297   1.252   1.786 -1.1592 -0.5120  2.1527
 5165SOL     OW25828   8.529   8.877   0.868 -0.3793 -0.4691  0.3853
 5165SOL    HW125829   8.440   8.832   0.878 -0.8334  0.5017  0.7709
 5165SOL    HW225830   8.525   8.944   0.793  0.5184 -1.6032 -0.6994
 5166SOL     OW25831   1.188   8.231   0.785  0.5360  0.4691  0.5738
 5166SOL    HW125832   1.281   8.201   0.810  0.8470 -0.1103 -1.2167
 5166SOL    HW225833   1.137   8.154   0.749  0.3133  1.4177 -1.1675
 5167SOL     OW25834   9.267   0.130   1.315 -0.5144 -0.3512  0.2164
 5167SOL    HW125835   9.308   0.038   1.314 -0.4960 -0.3619  1.1223
 5167SOL    HW225836   9.325   0.191   1.368  0.2860  0.5874 -1.6985
 5168SOL     OW25837   9.116   2.717   2.760 -0.1689 -0.1774 -0.0248
 5168SOL    HW125838   9.156   2.626   2.747 -0.2565 -0.3154  0.6610
 5168SOL    HW225839   9.139   2.775   2.682 -0.1683 -0.8073 -0.4979
 5169SOL     OW25840   2.728   6.807   3.032  0.1752 -0.0200 -0.1152
 5169SOL    HW125841   2.785   6.765   2.962 -0.1202 -0.2094 -0.2446
 5169SOL    HW225842   2.675   6.737   3.079 -0.8954  0.2803 -0.8571
 5170SOL     OW25843   9.166   0.216   0.758 -0.3765  0.5100  0.0820
 5170SOL    HW125844   9.090   0.259   0.709  1.3452  2.5092 -0.9269
 5170SOL    HW225845   9.205   0.143   0.703 -1.7162 -0.7187  0.7275
 5171SOL     OW25846   9.283   8.282   1.897  0.0265  0.0087  0.0328
 5171SOL    HW125847   9.240   8.193   1.880  0.7246 -0.4130  0.4850
 5171SOL    HW225848   9.217   8.355   1.877 -1.3889 -0.6542  2.1282
 5172SOL     OW25849   1.903   1.082   1.082 -0.2528 -0.0640 -0.4723
 5172SOL    HW125850   1.941   1.131   1.160 -1.5606 -0.5211  0.4525
 5172SOL    HW225851   1.975   1.027   1.040  0.7503  1.1105 -0.3412
 5173SOL     OW25852   0.766   7.198   2.279 -0.0780  0.3314  0.1323
 5173SOL    HW125853   0.803   7.114   2.319  2.7009  0.2048 -2.4752
 5173SOL    HW225854   0.705   7.175   2.203 -1.0140  0.6651  0.7694
 5174SOL     OW25855   9.012   7.655   2.918 -0.0634 -0.5910  0.2537
 5174SOL    HW125856   9.100   7.609   2.933  1.4079  2.1774  0.3559
 5174SOL    HW225857   9.028   7.744   2.876 -2.6875  0.7192  1.9339
 5175SOL     OW25858   3.856   5.631   2.443 -0.2356 -0.3785  0.0836
 5175SOL    HW125859   3.811   5.596   2.361  0.6406  1.0309 -0.9950
 5175SOL    HW225860   3.939   5.578   2.460 -1.2991 -1.8041  1.0731
 5176SOL     OW25861   0.447   1.907   0.030 -0.5005 -0.5959  0.4218
 5176SOL    HW125862   0.356   1.906   0.072  0.1220 -0.5886  1.8285
 5176SOL    HW225863   0.516   1.889   0.101  0.6028 -0.4270 -0.5926
 5177SOL     OW25864   2.382   3.466   0.423  0.0231  0.0782 -0.1913
 5177SOL    HW125865   2.425   3.548   0.461  1.1542 -0.5741 -0.0352
 5177SOL    HW225866   2.316   3.430   0.489  0.4968  0.1110  0.3060
 5178SOL     OW25867   2.998   3.640   1.856 -0.0148 -0.1494  0.8432
 5178SOL    HW125868   2.979   3.734   1.884  2.2709  0.7229 -0.4145
 5178SOL    HW225869   3.060   3.640   1.777  0.3068 -2.7236  1.0383
 5179SOL     OW25870   2.833   7.022   3.166  0.5066 -0.3684  0.1682
 5179SOL    HW125871   2.777   6.942   3.144  0.4871  0.0381 -1.3297
 5179SOL    HW225872   2.811   7.054   3.258 -1.3103 -0.5691 -0.1764
 5180SOL     OW25873   5.227   8.748   2.844  0.2782  0.6262 -0.0415
 5180SOL    HW125874   5.190   8.673   2.899  0.3031  0.6803  0.0497
 5180SOL    HW225875   5.320   8.725   2.816  2.4015  2.9117  4.5410
 5181SOL     OW25876   1.997   5.934   3.196 -0.3485 -0.2573 -0.0992
 5181SOL    HW125877   2.087   5.890   3.190 -0.7364 -1.0907  0.2041
 5181SOL    HW225878   1.929   5.867   3.225 -0.8919  0.6049  0.6230
 5182SOL     OW25879   2.026   1.759   0.479  0.5615  0.0068 -0.3629
 5182SOL    HW125880   1.957   1.763   0.406  1.4340  1.4466 -1.1363
 5182SOL    HW225881   2.052   1.852   0.505  1.8458 -0.5211  0.2516
 5183SOL     OW25882   3.286   5.428   2.193  0.1334  0.5487 -0.3756
 5183SOL    HW125883   3.364   5.436   2.256  0.4156  1.1526 -0.7999
 5183SOL    HW225884   3.269   5.516   2.149  2.3113 -0.6997 -3.9598
 5184SOL     OW25885   1.325   2.339   1.461 -0.0233  0.1821 -0.4905
 5184SOL    HW125886   1.406   2.295   1.499  0.7798  3.0582  1.2088
 5184SOL    HW225887   1.332   2.340   1.361  2.2953  0.8519 -0.3550
 5185SOL     OW25888   2.169   4.128   0.908  0.1805 -0.6994  0.3583
 5185SOL    HW125889   2.073   4.122   0.936  0.2835  0.9300  1.1425
 5185SOL    HW225890   2.209   4.037   0.906 -0.9514 -1.2413  1.6098
 5186SOL     OW25891   3.676   8.971   1.796  0.8203  0.0326  0.2683
 5186SOL    HW125892   3.696   8.918   1.713  2.9102  0.7846  0.2749
 5186SOL    HW225893   3.684   9.068   1.776 -0.8375  0.3027  0.8255
 5187SOL     OW25894   3.052   0.471   0.840 -0.2415  0.4926 -0.1763
 5187SOL    HW125895   2.984   0.469   0.767  0.4767  1.6910 -0.8985
 5187SOL    HW225896   3.014   0.518   0.920 -0.9967 -0.7381  0.2019
 5188SOL     OW25897   1.179   5.536   1.589  0.1334 -0.5173  0.0469
 5188SOL    HW125898   1.263   5.491   1.621  1.1873  0.0621 -1.8241
 5188SOL    HW225899   1.143   5.488   1.510 -0.7034 -0.1248  0.1828
 5189SOL     OW25900   8.761   1.488   2.551  0.3808 -0.3448 -0.3847
 5189SOL    HW125901   8.830   1.489   2.624  0.3614 -0.6415 -0.3626
 5189SOL    HW225902   8.680   1.538   2.581  0.0902 -1.0846  0.0693
 5190SOL     OW25903   8.193   5.936   0.757 -0.0376 -0.1103 -0.0129
 5190SOL    HW125904   8.143   5.866   0.808 -0.7078  0.9030  0.7390
 5190SOL    HW225905   8.190   5.915   0.660  0.1037 -1.3419  0.2505
 5191SOL     OW25906   8.753   1.634   0.934 -0.4038 -0.1831 -0.5283
 5191SOL    HW125907   8.765   1.537   0.915  0.5104 -0.0694 -0.5378
 5191SOL    HW225908   8.658   1.651   0.963 -0.0183 -1.4123  1.5578
 5192SOL     OW25909   0.704   9.009   0.715  0.0807  0.5676 -0.0987
 5192SOL    HW125910   0.625   8.984   0.659  0.1746 -0.7264  0.3438
 5192SOL    HW225911   0.784   8.959   0.685  0.4368  0.8737  0.3317
 5193SOL     OW25912   3.673   3.406   3.366  0.0416  0.1667  0.2149
 5193SOL    HW125913   3.584   3.360   3.365 -0.2227  0.6810 -0.5993
 5193SOL    HW225914   3.742   3.345   3.406 -0.7749 -0.0467  1.3173
 5194SOL     OW25915   8.471   8.990   3.386 -0.3945  0.3705  0.5262
 5194SOL    HW125916   8.448   9.061   3.320 -1.7172 -0.3551  0.1841
 5194SOL    HW225917   8.569   8.971   3.382 -0.4565  0.3657 -1.1924
 5195SOL     OW25918   3.991   2.320   3.379  0.1285  0.3752  0.2905
 5195SOL    HW125919   4.039   2.280   3.457  1.6206  0.1910 -0.6839
 5195SOL    HW225920   3.919   2.381   3.411  1.1445  0.7994  1.8127
 5196SOL     OW25921   2.764   9.030   3.294 -0.2154 -0.5453  0.2735
 5196SOL    HW125922   2.683   9.084   3.316 -0.0358 -0.2179  0.1379
 5196SOL    HW225923   2.802   8.991   3.378 -0.0041  0.0260  0.4483
 5197SOL     OW25924   8.716   9.175   2.690  0.3912  0.5858  0.0813
 5197SOL    HW125925   8.654   9.101   2.718 -0.6864  2.1277  1.9236
 5197SOL    HW225926   8.687   9.211   2.602 -0.8349  0.7119  0.5234
 5198SOL     OW25927   1.065   0.104   3.121 -0.5736  0.2839  0.0316
 5198SOL    HW125928   1.083   0.201   3.134  0.0953  0.1010  0.4762
 5198SOL    HW225929   0.973   0.083   3.155 -0.2092  0.5109  1.2001
 5199SOL     OW25930   0.314   4.712   0.408 -0.4720  0.4709  0.2029
 5199SOL    HW125931   0.307   4.793   0.349 -1.8443 -0.3222 -0.7643
 5199SOL    HW225932   0.408   4.679   0.410 -0.2750  0.9571 -0.9344
 5200SOL     OW25933   0.371   0.016   1.992  0.1383 -0.1045 -0.0888
 5200SOL    HW125934   0.386  -0.049   2.066  2.7958  1.9811  1.2838
 5200SOL    HW225935   0.315   0.092   2.026  1.8561  1.1503  0.0043
 5201SOL     OW25936   0.502   8.306   1.836  0.1916  0.1775 -0.5932
 5201SOL    HW125937   0.457   8.233   1.784  2.9643 -1.3832 -0.9075
 5201SOL    HW225938   0.521   8.275   1.929  1.0237  0.6640 -0.5963
 5202SOL     OW25939   8.634   0.714   0.704  0.0833 -0.3373 -0.4010
 5202SOL    HW125940   8.596   0.652   0.636  1.6392 -1.7758  0.0107
 5202SOL    HW225941   8.729   0.689   0.723 -0.2264  0.2388  2.0687
 5203SOL     OW25942   5.335   7.899   2.841  0.4898  0.0212  0.0891
 5203SOL    HW125943   5.293   7.989   2.846  0.5046  0.0759 -0.6768
 5203SOL    HW225944   5.326   7.852   2.929 -2.2520 -0.4564 -0.4111
 5204SOL     OW25945   1.622   3.472   0.417 -0.4310  0.4768 -0.0126
 5204SOL    HW125946   1.596   3.569   0.421 -0.9551  0.3669 -0.7718
 5204SOL    HW225947   1.716   3.464   0.382 -0.7670  0.6490 -0.9586
 5205SOL     OW25948   3.339   3.282   0.736  0.3952 -0.3551 -0.0609
 5205SOL    HW125949   3.259   3.323   0.780  1.0956 -0.3468  1.2206
 5205SOL    HW225950   3.403   3.250   0.806  3.0743  2.6406 -0.9889
 5206SOL     OW25951   0.664   1.598   2.534 -0.2001  0.0034  0.0246
 5206SOL    HW125952   0.708   1.668   2.589 -0.8123 -0.3956  1.0443
 5206SOL    HW225953   0.565   1.614   2.533 -0.1299  0.4709 -1.6321
 5207SOL     OW25954   0.006   0.794   2.661  0.4034  0.0785  0.4990
 5207SOL    HW125955   0.071   0.754   2.597  0.0438  0.1106  0.1169
 5207SOL    HW225956  -0.061   0.849   2.612 -1.2140 -1.6690  0.6454
 5208SOL     OW25957   1.049   3.062   0.345 -0.0914 -0.4511  0.0783
 5208SOL    HW125958   0.980   3.110   0.400  0.6431 -0.4510  1.0111
 5208SOL    HW225959   1.138   3.071   0.389  0.4809 -0.5674 -1.0558
 5209SOL     OW25960   3.433   6.560   0.530  0.0838 -0.2623  0.5303
 5209SOL    HW125961   3.433   6.644   0.476 -1.0688 -0.2787  0.4940
 5209SOL    HW225962   3.462   6.483   0.472  0.8020  0.0535  0.4734
 5210SOL     OW25963   9.666   9.444   0.768  0.4239  0.0641  0.3044
 5210SOL    HW125964   9.662   9.507   0.691  0.0812  1.0879  1.1349
 5210SOL    HW225965   9.650   9.351   0.737 -0.5464  0.5697 -0.7343
 5211SOL     OW25966   1.223   1.861   2.642 -0.0027  0.3301 -0.0125
 5211SOL    HW125967   1.276   1.784   2.677 -0.3805 -0.0801 -0.3473
 5211SOL    HW225968   1.140   1.828   2.597  0.9702  0.7718 -2.1845
 5212SOL     OW25969   9.005   1.290   0.093  0.4686  0.3769 -0.3005
 5212SOL    HW125970   9.035   1.201   0.058 -0.3579  0.1650 -0.4857
 5212SOL    HW225971   9.073   1.360   0.070  2.6858 -0.7255  2.6190
 5213SOL     OW25972   4.156   4.565   0.443  0.4127  0.2346 -0.2694
 5213SOL    HW125973   4.197   4.602   0.359 -0.1373  0.5118 -0.4173
 5213SOL    HW225974   4.182   4.469   0.453 -0.4386 -0.1077 -1.3395
 5214SOL     OW25975   9.571   5.487   2.591 -0.6140  0.1574 -0.4308
 5214SOL    HW125976   9.515   5.502   2.672  0.9457  1.5794  0.4242
 5214SOL    HW225977   9.533   5.536   2.514 -2.2325 -1.3826 -0.6349
 5215SOL     OW25978   0.207   9.184   0.572  0.3145  0.1063 -0.0420
 5215SOL    HW125979   0.111   9.192   0.597  0.3638  0.8960 -0.0966
 5215SOL    HW225980   0.250   9.111   0.626  0.6006  2.2256  2.7054
 5216SOL     OW25981   2.086   0.036   1.481 -0.3977  0.5727 -0.0269
 5216SOL    HW125982   2.002  -0.003   1.517 -1.7975  2.5564 -1.0444
 5216SOL    HW225983   2.106  -0.005   1.391 -1.4249  1.6081 -0.7320
 5217SOL     OW25984   2.622   4.583   1.664  0.0842  0.5713  0.4033
 5217SOL    HW125985   2.601   4.650   1.593 -1.3525  0.7058  0.9291
 5217SOL    HW225986   2.587   4.494   1.637  0.4957  0.3924  0.4569
 5218SOL     OW25987   2.335   8.814   3.353  0.2727  0.2513 -0.9706
 5218SOL    HW125988   2.378   8.850   3.436  0.9127  0.3395 -1.3336
 5218SOL    HW225989   2.405   8.802   3.283 -0.2115 -0.1500 -1.3848
 5219SOL     OW25990   1.924   3.842   0.766  0.1249  0.3774  0.2413
 5219SOL    HW125991   1.934   3.935   0.730  0.1357  0.5487  0.6841
 5219SOL    HW225992   1.911   3.846   0.865  1.2062 -0.1450  0.4170
 5220SOL     OW25993   3.617   7.058   3.108 -0.1226  0.1034  0.4617
 5220SOL    HW125994   3.586   7.016   3.023  0.0888 -0.6920  0.7764
 5220SOL    HW225995   3.548   7.043   3.179 -0.0769  0.3468  0.5581
 5221SOL     OW25996   2.766   6.026   3.277 -0.1535 -0.0840  0.0687
 5221SOL    HW125997   2.680   5.998   3.319 -0.0262  0.6991  0.8529
 5221SOL    HW225998   2.839   6.023   3.345  0.1982  0.4681 -0.2803
 5222SOL     OW25999   0.727   3.381   2.636 -0.0022 -0.0250 -0.4544
 5222SOL    HW126000   0.752   3.287   2.660 -0.3256 -0.0979 -0.3892
 5222SOL    HW226001   0.809   3.435   2.620  0.1862 -0.3105 -0.4506
 5223SOL     OW26002   9.734   7.534   1.329 -0.1972 -0.0726 -0.3680
 5223SOL    HW126003   9.793   7.490   1.397 -0.1926 -0.5820 -0.7029
 5223SOL    HW226004   9.639   7.503   1.342 -0.3393  0.4668 -0.0663
 5224SOL     OW26005   0.572   7.559   2.729  0.3793 -0.1213  0.4151
 5224SOL    HW126006   0.474   7.569   2.745  0.4736  1.4266  0.0881
 5224SOL    HW226007   0.595   7.596   2.639  1.3605  0.0917  0.7492
 5225SOL     OW26008   9.118   4.647   0.790  0.0263  0.4609  0.3111
 5225SOL    HW126009   9.166   4.559   0.795 -0.1086  0.4608  1.8081
 5225SOL    HW226010   9.156   4.709   0.858 -0.5343  1.2398 -0.0822
 5226SOL     OW26011   0.137   3.437   0.304 -0.0878 -0.0820 -0.2927
 5226SOL    HW126012   0.193   3.520   0.312 -0.3692  0.0417  0.4333
 5226SOL    HW226013   0.195   3.359   0.280  0.4080  0.0334  0.5104
 5227SOL     OW26014   3.952   3.436   2.809  0.4404 -0.3876 -0.0107
 5227SOL    HW126015   4.003   3.518   2.834  0.9124 -0.5890 -0.3169
 5227SOL    HW226016   3.913   3.394   2.892 -2.3074  1.7800 -0.1312
 5228SOL     OW26017   9.448   0.549   0.633  0.2010  0.0537 -0.1641
 5228SOL    HW126018   9.536   0.546   0.680  0.4585  1.0925 -0.5577
 5228SOL    HW226019   9.459   0.520   0.538 -0.1142 -0.9777  0.1040
 5229SOL     OW26020   3.465   2.311   0.046  0.2191 -0.5808 -0.4432
 5229SOL    HW126021   3.559   2.297   0.077  0.6240  1.3266 -0.7420
 5229SOL    HW226022   3.467   2.346  -0.048 -0.6141  2.8459  0.7441
 5230SOL     OW26023   2.531   4.767   2.395 -0.2645  0.1959  0.2708
 5230SOL    HW126024   2.540   4.676   2.355 -1.7670  0.9329 -1.7928
 5230SOL    HW226025   2.442   4.805   2.372 -0.3926  1.4634  2.6900
 5231SOL     OW26026   3.863   6.929   3.070 -0.3423  0.2508 -0.1014
 5231SOL    HW126027   3.904   6.930   2.979  0.0692 -0.2227  0.0766
 5231SOL    HW226028   3.772   6.970   3.066 -0.0350  0.8827 -0.5868
 5232SOL     OW26029   1.062   1.499   0.033  0.5141 -0.1647  0.0563
 5232SOL    HW126030   1.040   1.548   0.118 -0.2525  0.0794 -0.2758
 5232SOL    HW226031   1.067   1.401   0.051  2.5081  0.0492  0.8212
 5233SOL     OW26032   4.631   1.369   1.851  0.5348  0.2226  0.2602
 5233SOL    HW126033   4.598   1.334   1.938  0.3155  1.1103  0.5344
 5233SOL    HW226034   4.625   1.469   1.850  0.8767  0.2417 -0.6300
 5234SOL     OW26035   9.143   5.146   0.972  0.0023  0.0337  0.2861
 5234SOL    HW126036   9.151   5.185   0.880  2.0920  1.1663  0.9006
 5234SOL    HW226037   9.117   5.218   1.037  3.2459  0.3748  1.3306
 5235SOL     OW26038   0.055   6.767   2.624  0.2984  0.1311 -0.1627
 5235SOL    HW126039   0.024   6.673   2.608  1.4594 -0.2283 -0.2984
 5235SOL    HW226040   0.129   6.789   2.561 -0.0632  1.1920 -0.2283
 5236SOL     OW26041   9.689   8.612   0.493 -0.8769 -0.5144  0.7788
 5236SOL    HW126042   9.600   8.657   0.481 -0.1995  1.1537  1.8863
 5236SOL    HW226043   9.742   8.620   0.409  0.0080  2.5289  1.5738
 5237SOL     OW26044   4.051   2.292   2.183  0.2626  0.2454 -0.1020
 5237SOL    HW126045   4.063   2.200   2.220  3.1540  0.4205 -0.4953
 5237SOL    HW226046   4.000   2.347   2.249  1.5372 -0.6772  1.6983
 5238SOL     OW26047   9.945   7.776   0.351 -0.3947  0.0917  0.0721
 5238SOL    HW126048   9.854   7.762   0.311 -0.0054 -1.2340 -0.3557
 5238SOL    HW226049   9.957   7.715   0.428  0.3850 -0.1885 -0.2690
 5239SOL     OW26050   2.791   3.825   1.649  0.3514 -0.1275  0.1166
 5239SOL    HW126051   2.802   3.742   1.705 -1.4358 -0.7631 -0.4515
 5239SOL    HW226052   2.876   3.843   1.600  0.2837 -2.5080 -0.9371
 5240SOL     OW26053   8.506   2.415   0.236  0.5281 -0.1583  0.1195
 5240SOL    HW126054   8.415   2.396   0.274  0.4360 -0.5962 -0.3097
 5240SOL    HW226055   8.550   2.487   0.289 -0.6640  1.0998 -0.5431
 5241SOL     OW26056   9.372   8.909   0.640  0.1850  0.0525 -0.2740
 5241SOL    HW126057   9.389   8.829   0.697 -1.0729  0.2963  0.4704
 5241SOL    HW226058   9.340   8.984   0.697  0.5353  0.8242 -1.0842
 5242SOL     OW26059   2.361   5.950   1.425 -0.2651 -0.0096  0.0192
 5242SOL    HW126060   2.440   5.966   1.484 -0.0941  0.0605 -0.2284
 5242SOL    HW226061   2.287   6.012   1.452 -0.7188 -1.0253  1.1455
 5243SOL     OW26062   2.567   2.906   0.618 -0.4685  0.3827 -0.1170
 5243SOL    HW126063   2.625   2.983   0.645 -1.9763  1.5600 -0.1934
 5243SOL    HW226064   2.584   2.883   0.522 -0.8143  1.3215 -0.3975
 5244SOL     OW26065   3.912   9.591   3.187  0.0252 -0.0991  0.0902
 5244SOL    HW126066   3.966   9.525   3.133  1.7531  0.4175  1.1434
 5244SOL    HW226067   3.858   9.542   3.255  0.3307 -0.5131  0.0354
 5245SOL     OW26068   9.589   1.334   2.746  0.3052 -0.1019 -0.2380
 5245SOL    HW126069   9.674   1.386   2.745  0.9768 -1.1875 -0.6258
 5245SOL    HW226070   9.512   1.396   2.734  1.0792  0.8276 -0.4515
 5246SOL     OW26071   8.119   8.660   0.338  0.6264  0.6489  0.3024
 5246SOL    HW126072   8.055   8.709   0.398  0.7474 -0.6027  1.4684
 5246SOL    HW226073   8.213   8.677   0.367  0.7159  0.5377  0.0859
 5247SOL     OW26074   9.720   3.505   3.086  0.9133  0.1970  0.1990
 5247SOL    HW126075   9.787   3.441   3.124 -0.5134 -1.2319  0.3461
 5247SOL    HW226076   9.667   3.459   3.015 -1.8810  0.4090  2.0830
 5248SOL     OW26077   2.914   7.364   1.236  0.0779  0.1326 -0.1788
 5248SOL    HW126078   3.013   7.348   1.243 -0.1545 -0.9379  0.8387
 5248SOL    HW226079   2.898   7.456   1.200  1.4374  0.6280  0.4354
 5249SOL     OW26080   0.536   3.768   2.674 -0.2519  0.0243 -0.2833
 5249SOL    HW126081   0.552   3.811   2.763  0.0185 -0.4920 -0.0831
 5249SOL    HW226082   0.623   3.753   2.627 -0.4736  1.5236 -1.2247
 5250SOL     OW26083   9.679   2.687   1.849 -0.5749 -0.3463  0.1456
 5250SOL    HW126084   9.754   2.753   1.855 -0.2550 -0.7135  0.1670
 5250SOL    HW226085   9.596   2.735   1.820 -0.3588  0.0787  0.2170
 5251SOL     OW26086   0.660   2.052   1.883 -0.1368  0.5409  0.5817
 5251SOL    HW126087   0.566   2.020   1.897  0.4860 -1.2653  0.9092
 5251SOL    HW226088   0.714   2.031   1.965  0.7686  0.6606  0.0239
 5252SOL     OW26089   0.423   7.824   3.387  0.1092  0.1452 -0.0795
 5252SOL    HW126090   0.406   7.817   3.485 -1.3760  0.0170 -0.3317
 5252SOL    HW226091   0.369   7.754   3.339 -0.3842  1.2109 -1.1015
 5253SOL     OW26092   9.731   0.282   0.853 -0.2321 -0.4756  0.3971
 5253SOL    HW126093   9.674   0.210   0.892  0.6471 -0.3173  1.9985
 5253SOL    HW226094   9.763   0.342   0.926 -0.7064  1.3749 -0.8736
 5254SOL     OW26095   1.322   2.633   2.660  0.6591  0.2074 -0.1645
 5254SOL    HW126096   1.328   2.584   2.747  2.4699  1.6392  0.5556
 5254SOL    HW226097   1.407   2.619   2.608 -1.1037 -2.0938 -2.5384
 5255SOL     OW26098   8.646   2.854   2.058  0.2200 -0.5410 -0.0262
 5255SOL    HW126099   8.722   2.880   1.998 -0.6298  0.1417 -0.8363
 5255SOL    HW226100   8.561   2.896   2.024 -0.4694 -1.0603  1.0226
 5256SOL     OW26101   8.636   8.912   1.753  0.1502 -0.1130 -0.7245
 5256SOL    HW126102   8.683   8.961   1.826  0.3201  0.0983 -0.9710
 5256SOL    HW226103   8.544   8.888   1.782 -0.8912  2.6887 -1.5357
 5257SOL     OW26104   0.464   7.091   2.536 -0.7988 -0.0490  0.2387
 5257SOL    HW126105   0.493   6.997   2.518 -1.7373 -0.7461  2.1154
 5257SOL    HW226106   0.545   7.149   2.552 -0.1714 -0.2735 -2.0060
 5258SOL     OW26107   1.541   8.793   3.316 -0.0645  0.0813  0.1580
 5258SOL    HW126108   1.510   8.888   3.326  2.3763  0.9133  0.2276
 5258SOL    HW226109   1.474   8.741   3.264 -1.3112  1.9255 -0.1209
 5259SOL     OW26110   2.561   6.872   2.537  0.2775  0.1174 -0.0246
 5259SOL    HW126111   2.511   6.802   2.487  0.2402 -0.4699  0.8187
 5259SOL    HW226112   2.659   6.853   2.534  0.3144  0.3406 -0.2670
 5260SOL     OW26113   5.062   1.883   1.486  0.1679 -0.3330  0.2193
 5260SOL    HW126114   5.061   1.965   1.428 -1.7608  0.3022  1.1217
 5260SOL    HW226115   4.973   1.839   1.482  1.1041 -2.2304 -0.0119
 5261SOL     OW26116   8.988   1.560   2.388 -0.2048 -0.6821  0.1424
 5261SOL    HW126117   8.900   1.571   2.342  0.8469 -0.7269 -1.9568
 5261SOL    HW226118   9.003   1.637   2.451 -2.0174 -1.0265  1.0199
 5262SOL     OW26119   0.078   4.922   3.139  0.3485  0.3814 -0.4666
 5262SOL    HW126120   0.002   4.925   3.074  0.8942 -1.6047 -1.2254
 5262SOL    HW226121   0.159   4.963   3.096 -0.3764  2.8879  0.4961
 5263SOL     OW26122   9.773   6.233   0.404 -0.0275  0.1627 -0.0050
 5263SOL    HW126123   9.684   6.262   0.371  0.5111  1.0142 -0.7338
 5263SOL    HW226124   9.795   6.284   0.488  0.2111  0.7008 -0.3892
 5264SOL     OW26125   1.252   9.387   0.195  0.6512 -0.3450 -0.3615
 5264SOL    HW126126   1.259   9.408   0.293 -2.3901 -0.4498 -0.0856
 5264SOL    HW226127   1.179   9.320   0.180  0.1052  0.7448 -2.8570
 5265SOL     OW26128   3.917   2.532   1.668 -0.9151  0.5795  0.1939
 5265SOL    HW126129   3.923   2.620   1.622 -0.4253  0.1293 -0.6235
 5265SOL    HW226130   3.894   2.461   1.601 -1.3706  0.1012  0.8546
 5266SOL     OW26131   9.200   4.878   0.080  0.4749 -0.3436 -0.0177
 5266SOL    HW126132   9.147   4.858  -0.002  2.2739 -0.7933 -1.1197
 5266SOL    HW226133   9.248   4.795   0.110  0.3310 -0.0271  1.1160
 5267SOL     OW26134   2.968   2.801   3.406  0.2757 -0.1811 -0.1829
 5267SOL    HW126135   3.034   2.764   3.472 -0.7114 -0.1794  0.8244
 5267SOL    HW226136   2.916   2.875   3.449 -0.9277 -0.7115 -0.7088
 5268SOL     OW26137   9.417   7.575   1.069  0.4746  0.3315 -0.3502
 5268SOL    HW126138   9.464   7.644   1.014  0.9001 -0.0756 -0.5033
 5268SOL    HW226139   9.424   7.599   1.166 -0.6250  1.2668 -0.4825
 5269SOL     OW26140   1.527   5.832   1.347  0.3648 -0.2282 -0.2657
 5269SOL    HW126141   1.608   5.875   1.308  0.6830  0.0616  0.7082
 5269SOL    HW226142   1.552   5.744   1.388 -0.2830 -1.3585 -2.2512
 5270SOL     OW26143   4.240   3.693   1.192  0.3692 -0.3097  0.3416
 5270SOL    HW126144   4.187   3.776   1.171 -0.1322 -0.6790  0.1399
 5270SOL    HW226145   4.322   3.718   1.243  0.1510  0.2997  0.3967
 5271SOL     OW26146   0.551   3.982   2.887  0.1451  0.2848  0.0974
 5271SOL    HW126147   0.578   3.948   2.977 -1.9489  0.1766  0.7099
 5271SOL    HW226148   0.463   4.029   2.894  0.1742  0.6731 -1.8256
 5272SOL     OW26149   8.657   1.009   0.313  0.2696 -0.7456 -0.7389
 5272SOL    HW126150   8.682   1.104   0.295  0.5498 -0.7622 -0.4468
 5272SOL    HW226151   8.706   0.977   0.394 -1.1533 -0.5880  0.2034
 5273SOL     OW26152   8.173   6.834   0.868 -0.5252  0.0933 -0.0439
 5273SOL    HW126153   8.141   6.879   0.951  2.4802  2.1633  0.0958
 5273SOL    HW226154   8.214   6.746   0.890  1.0989  1.0472  0.8232
 5274SOL     OW26155   2.825   1.665   0.596 -0.0297 -0.7163  0.2345
 5274SOL    HW126156   2.852   1.620   0.511 -0.9561 -2.4765  0.8487
 5274SOL    HW226157   2.734   1.705   0.585 -0.2731 -1.1979  0.4848
 5275SOL     OW26158   2.131   6.048   2.170  0.2338  0.0527 -0.0151
 5275SOL    HW126159   2.033   6.028   2.174  0.1211  0.3395 -1.1338
 5275SOL    HW226160   2.169   6.051   2.262 -0.1939 -3.0927  0.2882
 5276SOL     OW26161   1.042   9.189   0.179 -0.5693  0.1538 -0.0520
 5276SOL    HW126162   1.003   9.143   0.259 -0.9910 -1.8027 -1.3386
 5276SOL    HW226163   0.969   9.229   0.125 -0.3887  0.4892 -0.0455
 5277SOL     OW26164   2.004   2.670   3.058 -0.2065 -0.9160  0.0375
 5277SOL    HW126165   1.999   2.762   3.097  0.1439 -0.1629 -1.6103
 5277SOL    HW226166   1.916   2.624   3.068 -1.5593  0.9885 -2.3297
 5278SOL     OW26167   1.736   0.561   1.840 -0.2810 -0.8185  0.0176
 5278SOL    HW126168   1.683   0.476   1.835  0.6958 -1.4221 -0.1792
 5278SOL    HW226169   1.707   0.613   1.920 -1.7588 -0.7398 -0.5449
 5279SOL     OW26170   2.179   9.527   3.204 -0.3402  0.3965 -0.6556
 5279SOL    HW126171   2.214   9.620   3.209  0.4877 -0.0011  1.1723
 5279SOL    HW226172   2.254   9.463   3.188 -0.3010 -0.3572  2.2815
 5280SOL     OW26173   2.649   8.823   0.652  0.5317 -0.3065 -0.7189
 5280SOL    HW126174   2.718   8.840   0.722 -0.6711  0.5694  0.2731
 5280SOL    HW226175   2.657   8.728   0.620  1.5057 -0.5225  0.1375
 5281SOL     OW26176   1.685   9.564   1.131 -0.5774 -0.1894  0.3646
 5281SOL    HW126177   1.634   9.520   1.205 -2.3206  1.4917  0.1979
 5281SOL    HW226178   1.781   9.573   1.158 -1.1060  0.0309  2.2498
 5282SOL     OW26179   8.661   3.930   1.466  0.0697  0.0229  0.3492
 5282SOL    HW126180   8.649   3.973   1.376  0.2732 -0.5448  0.0446
 5282SOL    HW226181   8.647   3.998   1.538 -0.6740  0.3484 -0.0963
 5283SOL     OW26182   3.549   1.457   1.386 -0.0807 -0.3902 -0.5147
 5283SOL    HW126183   3.505   1.537   1.426 -0.1564 -0.2181 -0.9393
 5283SOL    HW226184   3.542   1.461   1.286  0.3112 -0.6968 -0.5574
 5284SOL     OW26185   9.442   0.198   0.572 -0.1592 -0.3821 -0.0081
 5284SOL    HW126186   9.452   0.275   0.510 -1.2024  0.2817  0.6450
 5284SOL    HW226187   9.380   0.222   0.646  0.2464 -1.5287  0.7166
 5285SOL     OW26188   2.362   1.631   1.522  0.4171  0.0386 -0.4069
 5285SOL    HW126189   2.353   1.536   1.552 -1.1328  0.5737  0.9115
 5285SOL    HW226190   2.271   1.672   1.513  1.1254  2.2193  1.7779
 5286SOL     OW26191   0.108   0.454   3.320 -0.1626  0.2036  0.5250
 5286SOL    HW126192   0.160   0.371   3.340  0.6399  0.5306 -0.2060
 5286SOL    HW226193   0.010   0.435   3.334 -0.2864 -1.7750 -2.5914
 5287SOL     OW26194   8.887   6.803   0.697 -0.7541 -0.0087  0.1849
 5287SOL    HW126195   8.792   6.832   0.688 -1.1372 -1.1930  0.3433
 5287SOL    HW226196   8.947   6.883   0.696 -1.7988  0.7840  0.6956
 5288SOL     OW26197   3.249   2.293   1.473  0.3748  0.4849 -0.3500
 5288SOL    HW126198   3.227   2.228   1.400  1.8216 -0.3855 -0.0194
 5288SOL    HW226199   3.195   2.271   1.554 -0.4639  0.8134 -0.8121
 5289SOL     OW26200   0.543   9.894   3.172  0.1601  0.2615 -0.1191
 5289SOL    HW126201   0.461   9.846   3.204  0.1605  0.7631  0.6458
 5289SOL    HW226202   0.561   9.869   3.077 -0.9745  0.2752 -0.3424
 5290SOL     OW26203   2.880   6.865   1.243 -0.0148 -0.0234  0.5241
 5290SOL    HW126204   2.839   6.935   1.302  0.7480  1.0188 -0.1423
 5290SOL    HW226205   2.972   6.844   1.276  0.2978  0.3396 -0.1033
 5291SOL     OW26206   0.643   7.973   1.844 -0.1511  0.0765 -0.1652
 5291SOL    HW126207   0.627   7.875   1.833 -1.5735 -0.0078  2.2555
 5291SOL    HW226208   0.587   8.023   1.779 -2.2767 -0.6352  1.0487
 5292SOL     OW26209   0.551   4.616   0.471 -0.4940 -0.3936 -0.1529
 5292SOL    HW126210   0.578   4.689   0.533  1.9483  0.0574 -1.6695
 5292SOL    HW226211   0.564   4.527   0.515  0.0698 -0.0280  0.4223
 5293SOL     OW26212   8.332   1.007   3.290  0.6495  0.1064 -0.0682
 5293SOL    HW126213   8.307   1.034   3.197 -1.8279  2.3165  1.1627
 5293SOL    HW226214   8.412   1.061   3.320  0.3987  0.6326 -0.3332
 5294SOL     OW26215   1.092   5.504   2.719  0.4562 -0.8142  0.3285
 5294SOL    HW126216   1.133   5.594   2.737  1.8350 -1.6604  1.5410
 5294SOL    HW226217   1.116   5.475   2.626  3.5199 -1.7158  1.3287
 5295SOL     OW26218   8.898   4.978   2.400 -0.0473 -0.2706 -0.3348
 5295SOL    HW126219   8.820   4.918   2.419  0.6352 -1.4775 -1.3284
 5295SOL    HW226220   8.942   4.951   2.315  2.8113 -1.0312  1.3024
 5296SOL     OW26221   2.613   0.009   1.162  0.4994  0.0367  0.3936
 5296SOL    HW126222   2.672   0.075   1.116 -0.4843  0.0312 -0.9080
 5296SOL    HW226223   2.519   0.044   1.164 -0.0667 -1.3799 -0.4906
 5297SOL     OW26224   0.557   8.936   0.194  0.1544  0.2807 -0.1907
 5297SOL    HW126225   0.577   9.001   0.268  0.7534 -0.4785  0.3285
 5297SOL    HW226226   0.459   8.920   0.189  0.2532 -1.2427  1.8322
 5298SOL     OW26227   8.390   7.029   1.684  0.3006  0.5389 -0.6472
 5298SOL    HW126228   8.477   6.980   1.678 -1.3987 -2.6256 -0.1244
 5298SOL    HW226229   8.388   7.082   1.769  1.5092  0.2843 -0.4484
 5299SOL     OW26230   3.194   6.190   0.858  0.0127  0.1468 -0.3382
 5299SOL    HW126231   3.272   6.199   0.920  0.4191  0.1237 -0.8396
 5299SOL    HW226232   3.116   6.241   0.894  0.6732  1.2851 -0.5135
 5300SOL     OW26233   2.559   0.386   3.286 -0.6619  0.1708  0.0953
 5300SOL    HW126234   2.536   0.345   3.197  0.6224 -0.4289  0.0324
 5300SOL    HW226235   2.517   0.332   3.359  1.3634 -1.5131  0.0317
 5301SOL     OW26236   2.263   4.402   2.341  0.5272  0.1256  0.3655
 5301SOL    HW126237   2.316   4.473   2.389  2.4182 -0.6483 -0.5138
 5301SOL    HW226238   2.213   4.443   2.265  0.2481  0.7914  0.9033
 5302SOL     OW26239   2.611   1.407   2.135  0.0287  0.1950 -0.1288
 5302SOL    HW126240   2.531   1.390   2.077 -0.5546  0.3508  0.6364
 5302SOL    HW226241   2.588   1.474   2.206  1.6727  2.5948 -1.7583
 5303SOL     OW26242   2.313   8.343   1.682  0.6066 -0.6811  0.0203
 5303SOL    HW126243   2.362   8.285   1.748  1.7915  0.9907  0.6360
 5303SOL    HW226244   2.277   8.423   1.729  2.3376  1.0421 -1.5231
 5304SOL     OW26245   4.901   3.251   2.260 -0.2078 -0.4283 -0.1269
 5304SOL    HW126246   4.942   3.177   2.312 -0.5642  0.5566  1.5996
 5304SOL    HW226247   4.972   3.318   2.236 -0.3960  0.1597  0.9244
 5305SOL     OW26248   1.730   0.946   2.584  0.2245 -0.4802  0.1961
 5305SOL    HW126249   1.699   0.975   2.494  0.0346  2.5890  1.1681
 5305SOL    HW226250   1.654   0.906   2.635 -0.1279 -0.4721 -0.3256
 5306SOL     OW26251   4.252   3.222   3.273  0.2745  0.3911  0.1946
 5306SOL    HW126252   4.172   3.195   3.219  0.3666 -0.3557  0.4319
 5306SOL    HW226253   4.252   3.322   3.284 -0.2342  0.4641 -0.4160
 5307SOL     OW26254   0.770   7.115   0.386 -0.2413 -0.2854  0.8194
 5307SOL    HW126255   0.861   7.075   0.375 -1.1066 -2.2849  0.6105
 5307SOL    HW226256   0.775   7.197   0.443  2.1264  1.4338 -1.7527
 5308SOL     OW26257   0.069   6.737   1.301 -0.0710 -0.9349 -0.0410
 5308SOL    HW126258   0.021   6.747   1.389 -1.1329 -2.1519 -0.4722
 5308SOL    HW226259   0.152   6.682   1.315  1.8005  1.9958  0.8974
 5309SOL     OW26260   9.446   1.604   2.724  0.3376  0.0525  0.3860
 5309SOL    HW126261   9.468   1.574   2.631 -0.8385  2.3181 -0.6628
 5309SOL    HW226262   9.474   1.699   2.736  0.6847 -0.2891  2.4442
 5310SOL     OW26263   3.359   5.077   0.942  0.4792 -0.3890 -0.2988
 5310SOL    HW126264   3.352   5.076   0.843 -1.3363  1.7187 -0.2259
 5310SOL    HW226265   3.430   5.141   0.971  1.7269 -1.7701 -0.2444
 5311SOL     OW26266   0.738   9.785   2.105 -0.3260 -0.1293  0.5549
 5311SOL    HW126267   0.714   9.759   2.011 -0.7329  0.5421  0.4626
 5311SOL    HW226268   0.836   9.804   2.111 -0.5885  1.5943 -0.1830
 5312SOL     OW26269   2.612   2.955   2.772  0.3519 -0.2423 -0.0537
 5312SOL    HW126270   2.672   2.992   2.701  0.4390 -0.9843 -0.3738
 5312SOL    HW226271   2.521   2.939   2.733 -0.0882  0.9420  0.4446
 5313SOL     OW26272   2.729   0.597   2.355  0.2815 -0.1449 -0.2285
 5313SOL    HW126273   2.693   0.684   2.320  2.0115  1.0978  0.9530
 5313SOL    HW226274   2.663   0.524   2.338 -0.9787  1.2907 -1.7436
 5314SOL     OW26275   7.086   8.736   3.077  0.5124  0.3292  0.0818
 5314SOL    HW126276   7.140   8.777   3.003  0.8534 -1.1532 -0.5013
 5314SOL    HW226277   7.105   8.785   3.162  2.5792  0.0290 -0.1632
 5315SOL     OW26278   1.826   4.953   0.013  0.1842  0.1204  0.4514
 5315SOL    HW126279   1.882   4.873   0.031  1.3907  0.6822 -0.7382
 5315SOL    HW226280   1.819   4.967  -0.086 -2.1259  0.0144  0.5582
 5316SOL     OW26281   9.438   7.906   0.660 -0.2383  0.5231 -0.3669
 5316SOL    HW126282   9.381   7.982   0.630 -0.4944  0.5437  0.1498
 5316SOL    HW226283   9.531   7.938   0.678 -0.5413  0.8901  0.6204
 5317SOL     OW26284   4.426   4.300   3.366  0.4074  0.2625  0.1374
 5317SOL    HW126285   4.499   4.252   3.414  0.3603  0.3869  0.3318
 5317SOL    HW226286   4.339   4.256   3.385  0.5325 -0.3894 -0.7507
 5318SOL     OW26287   9.175   8.955   3.155 -0.8591 -0.3787  0.5782
 5318SOL    HW126288   9.076   8.962   3.161 -0.7525 -0.3990  2.8486
 5318SOL    HW226289   9.214   9.045   3.135 -1.2908 -0.1910  0.5878
 5319SOL     OW26290   0.299   6.135   0.691  0.0312 -0.0820 -0.0935
 5319SOL    HW126291   0.283   6.047   0.645  1.0202  0.1131 -0.8136
 5319SOL    HW226292   0.333   6.118   0.784 -0.7745 -0.4595  0.1414
 5320SOL     OW26293   8.869   3.256   3.225  0.0021  0.1767 -0.2398
 5320SOL    HW126294   8.939   3.260   3.297 -0.3689  1.9479  0.0449
 5320SOL    HW226295   8.838   3.162   3.215  1.7426 -0.4876  0.2916
 5321SOL     OW26296   8.550   7.187   0.601 -0.5031  0.2736 -0.7939
 5321SOL    HW126297   8.462   7.152   0.633  1.0151 -3.4245 -0.4925
 5321SOL    HW226298   8.584   7.255   0.666 -2.3599  0.5902 -0.1142
 5322SOL     OW26299   9.770   1.968   1.529  0.2764  0.2470  0.0323
 5322SOL    HW126300   9.743   1.910   1.606 -1.7475  0.1049 -0.7359
 5322SOL    HW226301   9.844   2.029   1.557  0.5224 -0.7815  1.6684
 5323SOL     OW26302   2.936   9.583   1.273 -0.7413  0.8985  0.2583
 5323SOL    HW126303   2.903   9.527   1.350  2.6706  2.1062  2.7264
 5323SOL    HW226304   2.877   9.663   1.262 -0.2111  1.6933  2.8971
 5324SOL     OW26305   3.768   2.831   0.759 -0.1637  0.2716 -0.6342
 5324SOL    HW126306   3.773   2.731   0.761 -0.0439  0.2666 -1.3039
 5324SOL    HW226307   3.757   2.865   0.853 -1.8826 -0.4527 -0.5494
 5325SOL     OW26308   3.189   7.303   1.247 -0.2012  0.0028 -0.4046
 5325SOL    HW126309   3.248   7.371   1.205  1.6247 -0.1677  1.7890
 5325SOL    HW226310   3.217   7.211   1.218  0.0107 -0.0264 -0.1093
 5326SOL     OW26311   8.701   4.893   0.816 -0.0147  0.7318  0.6651
 5326SOL    HW126312   8.640   4.933   0.885 -0.0776  0.5295  0.7265
 5326SOL    HW226313   8.675   4.798   0.799  0.0964  0.7364  0.4720
 5327SOL     OW26314   5.676   9.611   2.509  0.1569  0.1510 -0.5835
 5327SOL    HW126315   5.631   9.574   2.590  0.6695 -0.3047 -0.5001
 5327SOL    HW226316   5.775   9.609   2.523  0.2331  0.3697 -1.0934
 5328SOL     OW26317   2.401   0.926   2.396  0.3024  0.0003  0.3260
 5328SOL    HW126318   2.354   0.854   2.346 -1.8123  0.5522  1.4672
 5328SOL    HW226319   2.361   1.015   2.373 -0.1479  0.3449  2.3321
 5329SOL     OW26320   9.813   0.838   0.665  0.0149  0.0810  0.1899
 5329SOL    HW126321   9.732   0.784   0.645 -0.4536  0.7880  0.1812
 5329SOL    HW226322   9.786   0.929   0.697  0.7858  0.0733  0.8979
 5330SOL     OW26323   3.892   1.169   1.718 -0.0227  0.1718 -0.4663
 5330SOL    HW126324   3.966   1.145   1.782 -0.3570 -0.8711 -0.4585
 5330SOL    HW226325   3.858   1.086   1.675 -2.6588  0.3866  1.1125
 5331SOL     OW26326   7.852   8.845   0.809  0.3304  0.1424  0.3905
 5331SOL    HW126327   7.753   8.831   0.803  0.0532  2.0699  0.2590
 5331SOL    HW226328   7.877   8.873   0.902  0.7819 -0.4375  0.4526
 5332SOL     OW26329   0.963   5.249   0.696  0.6120 -0.6874  0.1595
 5332SOL    HW126330   0.963   5.200   0.608 -0.5869  0.2449 -0.3637
 5332SOL    HW226331   0.908   5.199   0.762  0.8673 -0.9771  0.1538
 5333SOL     OW26332   2.867   0.598   0.679  0.2085  0.1901 -0.2559
 5333SOL    HW126333   2.831   0.687   0.651 -1.9993  0.0347  1.8506
 5333SOL    HW226334   2.802   0.526   0.652 -0.8301 -0.1764  2.9679
 5334SOL     OW26335   4.539   9.202   2.088 -0.1252 -0.5863  0.0067
 5334SOL    HW126336   4.448   9.242   2.096  0.3714  0.6318 -0.2620
 5334SOL    HW226337   4.546   9.151   2.002 -0.5960 -0.8156  0.1009
 5335SOL     OW26338   0.239   0.326   1.427  0.1076 -0.0221  0.5014
 5335SOL    HW126339   0.216   0.230   1.442 -0.8321  0.1321  0.0376
 5335SOL    HW226340   0.324   0.331   1.375  0.5954 -0.5919  1.2286
 5336SOL     OW26341   3.036   6.051   2.894 -0.1271 -0.6777  0.7638
 5336SOL    HW126342   2.971   6.078   2.823 -0.7751 -0.4298  1.4557
 5336SOL    HW226343   3.001   6.076   2.984  0.7630 -0.8603  1.1706
 5337SOL     OW26344   4.141   1.556   2.539 -0.5473 -0.1542  0.0740
 5337SOL    HW126345   4.117   1.476   2.484 -1.0132 -0.8201  1.2339
 5337SOL    HW226346   4.239   1.572   2.531 -0.3614 -1.1498  0.2260
 5338SOL     OW26347   2.801   6.564   0.327  0.7245 -0.0103  0.2112
 5338SOL    HW126348   2.863   6.641   0.339 -0.0009  0.6568 -0.2565
 5338SOL    HW226349   2.739   6.559   0.406  0.3885  0.2459 -0.0355
 5339SOL     OW26350   3.819   1.694   3.157  0.4317 -0.4486 -0.1150
 5339SOL    HW126351   3.913   1.667   3.136  0.6278 -0.7003  1.0334
 5339SOL    HW226352   3.796   1.664   3.250 -0.8130 -0.4700 -0.4248
 5340SOL     OW26353   0.143   1.132   3.208  0.6958  0.0366 -0.1747
 5340SOL    HW126354   0.171   1.193   3.282  2.2062  0.4275 -1.0451
 5340SOL    HW226355   0.046   1.110   3.218  0.5643  1.1445  1.1653
 5341SOL     OW26356   9.211   5.133   1.298  0.0742  0.5857 -0.3455
 5341SOL    HW126357   9.145   5.091   1.236 -0.9206  1.6055  0.0085
 5341SOL    HW226358   9.273   5.191   1.246  0.9310 -0.6627 -0.7267
 5342SOL     OW26359   0.335   9.611   0.635 -0.0403 -0.6266 -0.4113
 5342SOL    HW126360   0.366   9.523   0.598  1.8017  0.2275 -0.9676
 5342SOL    HW226361   0.346   9.612   0.734 -0.9235 -1.3335 -0.2937
 5343SOL     OW26362   9.773   4.067   3.425  0.1914 -0.8240 -0.3943
 5343SOL    HW126363   9.860   4.073   3.374  0.2110  1.5281 -0.1255
 5343SOL    HW226364   9.782   3.997   3.496  1.9953 -0.3784 -0.1413
 5344SOL     OW26365   8.609   9.068   1.268 -0.0296  0.4600  0.5016
 5344SOL    HW126366   8.612   9.112   1.178 -0.9630 -0.3793  0.0589
 5344SOL    HW226367   8.519   9.082   1.308 -0.6049 -1.7378  0.0112
 5345SOL     OW26368   1.513   1.829   3.355  0.3329  0.3396 -0.3194
 5345SOL    HW126369   1.417   1.841   3.330 -0.1335 -1.7084  0.3440
 5345SOL    HW226370   1.525   1.851   3.452  0.5885  0.8592 -0.4690
 5346SOL     OW26371   9.469   5.031   1.864  0.2704  0.3374 -0.1456
 5346SOL    HW126372   9.562   4.999   1.881  0.1252 -0.6007 -1.0433
 5346SOL    HW226373   9.459   5.055   1.767 -1.3588 -2.9176 -0.8673
 5347SOL     OW26374   9.968   9.741   2.478  0.2061 -1.0458 -0.0002
 5347SOL    HW126375   9.972   9.700   2.570  1.2009 -0.7303  0.0974
 5347SOL    HW226376   9.899   9.813   2.477  0.0312 -1.2038  0.4351
 5348SOL     OW26377   2.170   0.758   2.197  0.7846 -0.1611  0.0114
 5348SOL    HW126378   2.194   0.667   2.231  0.4701 -0.1499  0.2638
 5348SOL    HW226379   2.104   0.749   2.122 -2.0246 -0.0143  2.3661
 5349SOL     OW26380   0.573   5.072   2.295  0.2695  0.2757 -0.5266
 5349SOL    HW126381   0.574   4.975   2.322 -0.9127  0.6161  0.8063
 5349SOL    HW226382   0.636   5.086   2.219  2.3394 -1.0921  0.8807
 5350SOL     OW26383   0.076   3.348   1.126  0.3695 -0.2935  0.3614
 5350SOL    HW126384   0.027   3.278   1.073  2.3427 -0.9716 -0.5953
 5350SOL    HW226385   0.030   3.437   1.113 -1.1394 -1.0692  0.2280
 5351SOL     OW26386   2.300   5.966   2.438  0.0555  0.0969 -0.6238
 5351SOL    HW126387   2.365   5.891   2.450  0.0440  0.1579 -0.1887
 5351SOL    HW226388   2.221   5.953   2.497  1.1257  1.6459  1.2010
 5352SOL     OW26389   2.683   3.868   3.210  0.2961  0.2883 -0.5520
 5352SOL    HW126390   2.764   3.907   3.168  0.3060  0.7800 -0.0758
 5352SOL    HW226391   2.604   3.882   3.150  0.4715  0.2248 -0.7980
 5353SOL     OW26392   9.028   2.994   0.656  0.2953  0.6186  0.3787
 5353SOL    HW126393   8.933   2.963   0.664  0.0833  1.0112 -0.4740
 5353SOL    HW226394   9.034   3.064   0.584  1.0230  1.4720  1.2643
 5354SOL     OW26395   8.900   0.416   0.869 -0.4649 -0.1228  0.0367
 5354SOL    HW126396   8.860   0.436   0.780 -0.4077 -1.7483 -0.3700
 5354SOL    HW226397   8.845   0.347   0.916  0.0982 -0.0477  0.8277
 5355SOL     OW26398   3.211   5.688   0.350  0.3857  0.1250  0.4086
 5355SOL    HW126399   3.268   5.750   0.406  1.6149 -0.8692  0.2860
 5355SOL    HW226400   3.126   5.734   0.326  0.5280  1.1411  1.7891
 5356SOL     OW26401   1.084   3.875   0.397 -0.5089 -0.0376  0.2789
 5356SOL    HW126402   1.102   3.970   0.369 -0.7394  0.0646  0.4696
 5356SOL    HW226403   1.166   3.837   0.439 -0.6111  0.2892  0.7780
 5357SOL     OW26404   8.593   9.630   1.019  0.1610  0.1332  0.1703
 5357SOL    HW126405   8.556   9.653   0.928  0.2327 -1.4815 -0.2872
 5357SOL    HW226406   8.580   9.707   1.081 -0.5747  0.9770 -1.0152
 5358SOL     OW26407   0.082   0.783   1.942 -0.0079  0.0678 -0.4134
 5358SOL    HW126408   0.148   0.709   1.957 -0.1285 -0.0525 -0.4756
 5358SOL    HW226409  -0.001   0.764   1.995 -0.6182 -0.5879 -1.5923
 5359SOL     OW26410   1.463   8.088   2.514 -0.3568 -0.0576  0.5624
 5359SOL    HW126411   1.543   8.103   2.572  0.2498  1.5797 -0.6456
 5359SOL    HW226412   1.383   8.133   2.554 -0.4165 -0.7288  1.1963
 5360SOL     OW26413   8.682   8.267   0.006  0.5738 -0.0392  0.2810
 5360SOL    HW126414   8.732   8.185  -0.020 -1.5031 -1.8597  1.7779
 5360SOL    HW226415   8.647   8.256   0.099  1.4355  3.1461  1.0419
 5361SOL     OW26416   3.524   1.830   2.727 -0.1911 -0.7969  0.0816
 5361SOL    HW126417   3.433   1.806   2.692  1.3762 -2.5604 -3.0425
 5361SOL    HW226418   3.571   1.748   2.759  0.9646 -0.1970 -0.0379
 5362SOL     OW26419   2.864   8.236   2.717  0.3509  0.1207 -0.8054
 5362SOL    HW126420   2.832   8.305   2.652  1.8166  3.2079  1.5731
 5362SOL    HW226421   2.956   8.259   2.747  0.3002 -2.0593  1.1900
 5363SOL     OW26422   0.714   6.638   0.620 -0.0553  0.0438 -0.3526
 5363SOL    HW126423   0.809   6.637   0.587  0.3980 -1.9602  0.9157
 5363SOL    HW226424   0.663   6.566   0.574 -0.4256 -0.2222  0.4678
 5364SOL     OW26425   1.564   0.487   1.114 -0.0790 -0.4798 -0.0491
 5364SOL    HW126426   1.523   0.556   1.173  1.4414 -0.5995  1.1892
 5364SOL    HW226427   1.662   0.505   1.104 -0.3261 -0.3907 -2.6574
 5365SOL     OW26428   9.925   0.690   0.916  0.1087 -0.2981 -0.1573
 5365SOL    HW126429   9.835   0.665   0.881 -0.7539  0.2168  1.6717
 5365SOL    HW226430   9.979   0.731   0.842 -0.5210 -2.1487 -1.6951
 5366SOL     OW26431   2.077   6.448   1.843 -0.3361  0.3548 -0.0942
 5366SOL    HW126432   2.030   6.387   1.779  0.6699 -0.1122 -0.3993
 5366SOL    HW226433   2.051   6.424   1.937  0.5153 -0.9519 -0.1741
 5367SOL     OW26434   0.520   2.792   3.269 -0.1563  0.1425 -0.3986
 5367SOL    HW126435   0.501   2.695   3.285 -0.9308  0.0175 -1.9540
 5367SOL    HW226436   0.435   2.844   3.277 -0.3219  0.2573 -2.6025
 5368SOL     OW26437   4.905   0.012   1.762 -0.2842 -0.1770 -0.7672
 5368SOL    HW126438   4.822   0.066   1.776  1.0692  2.3301 -2.0454
 5368SOL    HW226439   4.889  -0.056   1.691 -0.9515  0.9750 -1.7298
 5369SOL     OW26440   8.425   7.193   1.321  0.1981 -0.4942  0.0395
 5369SOL    HW126441   8.445   7.170   1.226 -0.2513  0.4906 -0.2968
 5369SOL    HW226442   8.372   7.119   1.363  1.3065 -1.4197 -0.1495
 5370SOL     OW26443   3.431   2.478   2.926 -0.1345  0.1170  0.1854
 5370SOL    HW126444   3.384   2.410   2.984  0.5016  0.3503  0.9793
 5370SOL    HW226445   3.439   2.441   2.834  1.0719 -1.3181  0.8362
 5371SOL     OW26446   2.246   8.483   1.230  0.6909  0.0675  0.0266
 5371SOL    HW126447   2.257   8.582   1.239 -0.6767  0.1351  1.1246
 5371SOL    HW226448   2.167   8.463   1.172  1.0270 -0.3876 -0.2831
 5372SOL     OW26449   8.957   6.588   3.300 -0.3711 -0.1470 -0.0023
 5372SOL    HW126450   9.011   6.507   3.277  1.1801 -0.4203  4.2004
 5372SOL    HW226451   8.862   6.562   3.315  0.1648 -1.2742  1.5710
 5373SOL     OW26452   9.419   4.577   0.365 -0.3864 -0.0789 -0.0970
 5373SOL    HW126453   9.444   4.484   0.337  1.5716  0.2530  0.5031
 5373SOL    HW226454   9.321   4.591   0.349 -0.6916 -2.2174 -0.2493
 5374SOL     OW26455   0.587   2.478   0.352 -0.5613 -0.0646 -0.3758
 5374SOL    HW126456   0.560   2.542   0.423 -2.9813 -1.3536 -0.0948
 5374SOL    HW226457   0.665   2.423   0.384  0.1401  1.2428  0.1921
 5375SOL     OW26458   8.664   3.151   1.846  0.3173  0.2207  0.1150
 5375SOL    HW126459   8.651   3.202   1.931  0.8930 -0.6225  0.7159
 5375SOL    HW226460   8.578   3.149   1.794 -0.6548 -1.2064  1.7524
 5376SOL     OW26461   3.019   9.638   1.685  0.0928  0.4768 -0.1659
 5376SOL    HW126462   3.079   9.558   1.683 -0.1424  0.2642  0.8795
 5376SOL    HW226463   2.992   9.657   1.780 -3.1727 -0.6589 -0.8135
 5377SOL     OW26464   3.715   2.797   1.047 -0.0162 -0.2302 -0.4714
 5377SOL    HW126465   3.633   2.755   1.085  0.0176  0.6829  0.6432
 5377SOL    HW226466   3.791   2.785   1.111  0.1681  0.8528 -0.4729
 5378SOL     OW26467   9.013   0.902   1.629  0.2127  0.2960 -0.0415
 5378SOL    HW126468   9.075   0.959   1.683  0.2542  0.7645 -0.5785
 5378SOL    HW226469   8.932   0.881   1.683  1.2470 -1.1071  1.0148
 5379SOL     OW26470   8.231   1.583   0.351 -0.1722 -0.1216 -0.2674
 5379SOL    HW126471   8.206   1.500   0.401 -1.3478 -0.1497 -0.8813
 5379SOL    HW226472   8.298   1.634   0.403  0.0048 -1.0886  0.4677
 5380SOL     OW26473   3.045   1.555   1.839  0.4026 -0.1728 -0.0199
 5380SOL    HW126474   2.953   1.543   1.874  0.9654  0.7656  1.7939
 5380SOL    HW226475   3.100   1.608   1.904  2.3249 -1.0337 -0.8948
 5381SOL     OW26476   0.354   8.253   2.387 -0.4175  0.5161 -0.9541
 5381SOL    HW126477   0.367   8.158   2.417 -0.4510  0.4606 -1.1133
 5381SOL    HW226478   0.443   8.295   2.371 -0.3800  0.7156 -0.2514
 5382SOL     OW26479   4.293   8.713   2.812 -0.1265  0.5771 -0.4813
 5382SOL    HW126480   4.229   8.678   2.744  0.9335 -0.5794 -0.9012
 5382SOL    HW226481   4.249   8.713   2.902 -1.2105  1.2112 -1.0053
 5383SOL     OW26482   9.612   3.303   0.469  0.3841 -0.4931 -0.0030
 5383SOL    HW126483   9.667   3.329   0.549  1.5403 -0.1520 -0.8950
 5383SOL    HW226484   9.573   3.385   0.428 -0.4048 -0.6923  0.3404
 5384SOL     OW26485   1.374   0.414   2.845 -0.2134  0.2249 -0.0141
 5384SOL    HW126486   1.298   0.462   2.889 -0.5087  0.3363 -0.6329
 5384SOL    HW226487   1.360   0.315   2.851 -0.9890  0.2498 -1.0969
 5385SOL     OW26488   2.456   3.526   1.551 -0.3725 -0.3239  0.0776
 5385SOL    HW126489   2.421   3.556   1.640  1.8145 -1.4677  1.3468
 5385SOL    HW226490   2.543   3.571   1.532 -1.3933  0.8638 -2.0963
 5386SOL     OW26491   1.291   8.286   0.179 -0.1395  0.1461 -0.1539
 5386SOL    HW126492   1.259   8.374   0.214  1.8259  0.2793  1.3586
 5386SOL    HW226493   1.213   8.232   0.148 -1.7217  0.9425  2.3280
 5387SOL     OW26494   2.927   7.194   2.220 -0.2000 -0.0814  0.0564
 5387SOL    HW126495   2.930   7.137   2.302 -0.1272 -0.9253 -0.5207
 5387SOL    HW226496   3.011   7.248   2.214 -0.7041  0.8410  1.1278
 5388SOL     OW26497   9.502   9.056   1.938  0.4198 -0.5432 -0.9309
 5388SOL    HW126498   9.464   9.079   1.848  1.0997  0.9096 -0.8594
 5388SOL    HW226499   9.580   8.995   1.926  0.2442 -0.6964 -1.2969
 5389SOL     OW26500   9.812   2.299   0.117  0.4195 -0.2131  0.4762
 5389SOL    HW126501   9.754   2.220   0.099 -0.3148  0.5167 -0.4102
 5389SOL    HW226502   9.877   2.310   0.042  0.0966  0.3955  0.2832
 5390SOL     OW26503   8.536   0.335   1.936 -0.1624 -0.3437 -0.3490
 5390SOL    HW126504   8.596   0.369   2.008  1.5955  0.3109 -2.0705
 5390SOL    HW226505   8.563   0.243   1.911 -1.8930 -1.2490  1.0111
 5391SOL     OW26506   9.271   9.235   2.436  0.5530 -0.6321  0.0610
 5391SOL    HW126507   9.233   9.189   2.356 -0.0548 -1.9684  1.0842
 5391SOL    HW226508   9.350   9.290   2.409  0.0739 -0.7066 -1.5158
 5392SOL     OW26509   2.924   7.197   2.497 -0.3675 -0.1297 -0.3512
 5392SOL    HW126510   2.828   7.183   2.522 -0.3364 -0.4732 -0.4302
 5392SOL    HW226511   2.950   7.291   2.519 -0.4574 -0.3008  0.5300
 5393SOL     OW26512   2.335   7.705   0.181  0.3743 -0.3049  0.4439
 5393SOL    HW126513   2.337   7.804   0.165  2.2646 -0.7805 -2.6184
 5393SOL    HW226514   2.364   7.686   0.275  2.1152  1.9251  0.4104
 5394SOL     OW26515   1.399   8.079   1.377  0.3294 -0.0549 -0.4119
 5394SOL    HW126516   1.364   8.134   1.453 -0.3254 -0.4770 -0.4140
 5394SOL    HW226517   1.421   7.987   1.409  0.8250  0.0078 -0.5572
 5395SOL     OW26518   5.212   0.107   2.473 -0.8709 -0.1406  0.3578
 5395SOL    HW126519   5.180   0.043   2.403  1.0986 -1.2069  0.3873
 5395SOL    HW226520   5.306   0.083   2.500 -1.2863  0.7498  2.7698
 5396SOL     OW26521   2.434   4.837   3.412  0.6604  0.2208  0.4076
 5396SOL    HW126522   2.489   4.753   3.401 -1.5286 -1.0085 -1.6910
 5396SOL    HW226523   2.347   4.814   3.457 -0.4538  1.1393 -1.2410
 5397SOL     OW26524   0.011   9.092   2.960  0.3602 -0.4081 -0.2952
 5397SOL    HW126525  -0.016   8.996   2.951  0.8650 -0.7951  1.9680
 5397SOL    HW226526  -0.064   9.151   2.931 -0.1916 -1.4663 -1.0655
 5398SOL     OW26527   8.482   7.285   0.356  0.1238 -0.1935 -0.3974
 5398SOL    HW126528   8.503   7.264   0.451  0.7118  0.4625 -0.3741
 5398SOL    HW226529   8.548   7.353   0.322  0.3186 -0.9097 -1.4660
 5399SOL     OW26530   1.999   0.671   3.249  0.0741  0.3043  0.1380
 5399SOL    HW126531   2.075   0.735   3.237  0.7215 -0.7109 -1.3591
 5399SOL    HW226532   1.920   0.702   3.196  0.4881 -0.2903 -0.8310
 5400SOL     OW26533   2.859   0.435   1.289  0.0823 -0.3543 -0.1940
 5400SOL    HW126534   2.835   0.338   1.289 -1.7443  0.0810  0.7786
 5400SOL    HW226535   2.958   0.445   1.296  0.1525 -2.1251  1.7475
 5401SOL     OW26536   3.884   9.797   2.396 -0.5944  0.0421 -0.0160
 5401SOL    HW126537   3.930   9.726   2.450 -0.7054  2.2970  3.2282
 5401SOL    HW226538   3.952   9.850   2.346 -0.3266 -0.9053 -0.6913
 5402SOL     OW26539   1.566   8.730   1.018  0.3293 -0.1436 -0.3872
 5402SOL    HW126540   1.483   8.728   1.074 -0.7952  2.1379 -1.8822
 5402SOL    HW226541   1.630   8.797   1.056  1.6225 -2.0694  0.8996
 5403SOL     OW26542   9.253   3.192   2.462 -0.1679  0.2439  0.1677
 5403SOL    HW126543   9.273   3.289   2.470  0.7830  0.1733 -1.2394
 5403SOL    HW226544   9.155   3.179   2.444  0.3014  1.1554 -3.3437
 5404SOL     OW26545   9.250   0.670   0.951  0.1296 -0.9558  0.2601
 5404SOL    HW126546   9.253   0.629   0.860  0.7469 -1.6880  0.6023
 5404SOL    HW226547   9.158   0.660   0.989  0.0259 -1.1842 -0.0432
 5405SOL     OW26548   9.031   9.825   1.487  0.3799 -0.0062  0.1141
 5405SOL    HW126549   9.117   9.865   1.521 -0.4913  2.5821 -0.6205
 5405SOL    HW226550   9.043   9.794   1.393  1.4352 -2.8200  1.1041
 5406SOL     OW26551   2.069   0.323   1.571 -1.2474  0.0880  0.1119
 5406SOL    HW126552   2.126   0.318   1.653 -1.2172 -0.9349  0.0348
 5406SOL    HW226553   2.057   0.231   1.534  0.2384  0.7298 -2.0564
 5407SOL     OW26554   7.782   8.863   1.368  0.1894  0.2074 -0.3169
 5407SOL    HW126555   7.694   8.819   1.385  0.3742  0.6337  1.7808
 5407SOL    HW226556   7.853   8.794   1.356 -0.3318 -0.1259 -1.6001
 5408SOL     OW26557   4.219   3.225   2.623  0.1607  0.0662  0.2427
 5408SOL    HW126558   4.167   3.139   2.623 -0.0597  0.1987 -0.0792
 5408SOL    HW226559   4.167   3.294   2.673  0.6204 -0.1555  1.0323
 5409SOL     OW26560   8.918   0.148   3.193  0.4821  0.0750  0.3316
 5409SOL    HW126561   8.897   0.077   3.127 -1.6617  0.9514  0.0351
 5409SOL    HW226562   8.870   0.129   3.279 -1.0586  1.7488 -0.1291
 5410SOL     OW26563   0.601   7.632   0.380 -0.3226  0.1369 -0.3394
 5410SOL    HW126564   0.666   7.579   0.326  0.6573 -0.4383  1.3677
 5410SOL    HW226565   0.538   7.570   0.427 -0.1125  0.5488  0.4939
 5411SOL     OW26566   2.778   1.334   1.530  0.1830  0.4528  0.0252
 5411SOL    HW126567   2.744   1.306   1.620  0.1077 -1.1660 -0.4991
 5411SOL    HW226568   2.878   1.343   1.533  0.2745 -0.5498  0.0169
 5412SOL     OW26569   2.285   7.253   2.148 -0.5879  0.2730  0.6226
 5412SOL    HW126570   2.325   7.167   2.178 -1.5544 -1.7308 -3.5236
 5412SOL    HW226571   2.342   7.329   2.179  2.1377 -2.0356  1.4596
 5413SOL     OW26572   0.793   9.770   1.137 -0.3263 -0.5361 -0.1993
 5413SOL    HW126573   0.771   9.692   1.078  0.8054 -0.0742 -1.2382
 5413SOL    HW226574   0.791   9.855   1.083 -0.3776  0.0232  0.6649
 5414SOL     OW26575   5.274   9.048   2.889  0.5593 -0.2401  0.3629
 5414SOL    HW126576   5.268   8.958   2.846  1.3973 -0.2369  0.2278
 5414SOL    HW226577   5.313   9.114   2.824 -1.3333  0.5476 -0.0143
 5415SOL     OW26578   3.453   0.555   0.324  0.1915 -0.0125  0.8740
 5415SOL    HW126579   3.550   0.561   0.300  0.0231  0.7697  0.3596
 5415SOL    HW226580   3.398   0.597   0.252 -0.5111 -0.1792  1.3065
 5416SOL     OW26581   0.992   8.073   0.275  0.0785 -0.1757 -0.0093
 5416SOL    HW126582   1.036   8.088   0.186  0.5853  0.4752  0.3476
 5416SOL    HW226583   0.904   8.028   0.261  0.1111  0.0082 -0.8503
 5417SOL     OW26584   0.536   3.756   0.670 -0.2401  0.8238 -0.0567
 5417SOL    HW126585   0.475   3.693   0.622 -0.2517  0.2262  0.7496
 5417SOL    HW226586   0.491   3.788   0.754 -1.5357  4.2779 -1.9309
 5418SOL     OW26587   4.274   0.814   0.325 -0.2208  0.0506  0.3000
 5418SOL    HW126588   4.208   0.869   0.375 -0.7945  0.2904 -0.7031
 5418SOL    HW226589   4.346   0.783   0.387 -0.3669  1.1943  1.0464
 5419SOL     OW26590   2.499   8.462   2.038  0.2142 -1.2286 -0.3000
 5419SOL    HW126591   2.533   8.371   2.014 -0.2330 -0.6486 -3.3188
 5419SOL    HW226592   2.399   8.462   2.035  0.1792 -0.8933  0.7212
 5420SOL     OW26593   7.612   8.966   3.143  0.4642  0.4705  0.2531
 5420SOL    HW126594   7.617   8.910   3.226 -0.5211  0.9845  0.6758
 5420SOL    HW226595   7.702   9.006   3.124  0.9074 -0.3685  0.5655
 5421SOL     OW26596   9.764   0.391   2.204  0.1364 -0.2463 -0.2762
 5421SOL    HW126597   9.750   0.400   2.105 -0.3025  1.2015 -0.1003
 5421SOL    HW226598   9.821   0.467   2.236 -0.7186 -0.0288  0.7687
 5422SOL     OW26599   4.089   9.716   0.121 -0.4277 -0.1496 -0.0046
 5422SOL    HW126600   4.118   9.651   0.051 -0.7904 -1.0518  0.6598
 5422SOL    HW226601   4.164   9.732   0.185 -0.5222 -0.3915  0.1709
 5423SOL     OW26602   8.906   9.471   1.403 -0.2939 -0.1345 -0.0253
 5423SOL    HW126603   8.847   9.397   1.371  0.0794 -0.6159  0.3859
 5423SOL    HW226604   8.892   9.484   1.501  0.8969 -0.8222  0.2440
 5424SOL     OW26605   0.548   3.194   0.889  0.8917  0.4796  0.2973
 5424SOL    HW126606   0.579   3.234   0.802  0.9292  0.7725  0.4453
 5424SOL    HW226607   0.617   3.131   0.923 -0.3858 -1.9189 -1.3858
 5425SOL     OW26608   2.683   0.295   0.676 -0.4248  0.0929 -0.0700
 5425SOL    HW126609   2.769   0.270   0.631 -1.3286  0.6629 -2.1707
 5425SOL    HW226610   2.616   0.223   0.661 -0.9423  0.6058 -0.2026
 5426SOL     OW26611   7.646   9.929   3.091  0.0580 -0.5101  0.1375
 5426SOL    HW126612   7.701   9.904   3.170  1.2965  0.1977 -0.4783
 5426SOL    HW226613   7.689   9.895   3.008 -0.6704 -0.3342 -0.3236
 5427SOL     OW26614   3.174   8.753   0.707 -0.2524  0.3909 -0.2367
 5427SOL    HW126615   3.094   8.705   0.743  0.3718 -0.6058 -0.1779
 5427SOL    HW226616   3.219   8.697   0.638  0.9590  0.5159  0.4252
 5428SOL     OW26617   9.151   4.992   2.743  0.3028  0.1071 -0.1570
 5428SOL    HW126618   9.114   5.050   2.670  1.9895  0.8381 -0.4467
 5428SOL    HW226619   9.081   4.978   2.813 -1.0898  0.0304 -1.5329
 5429SOL     OW26620   2.665   1.755   3.245  0.0451  0.0563  0.3331
 5429SOL    HW126621   2.763   1.768   3.229 -0.0303  0.7773  0.4436
 5429SOL    HW226622   2.614   1.823   3.193 -0.4582 -1.0709 -0.6614
 5430SOL     OW26623   8.322   6.085   0.945  0.4317 -0.1813  0.3081
 5430SOL    HW126624   8.257   6.043   0.881 -1.4992  2.7605  0.2535
 5430SOL    HW226625   8.337   6.023   1.022  0.7960 -2.6679 -1.6725
 5431SOL     OW26626   3.141   9.714   3.100 -0.3763  0.0269  0.1635
 5431SOL    HW126627   3.234   9.716   3.066 -0.6457 -1.2856 -0.6809
 5431SOL    HW226628   3.136   9.765   3.187  1.6920 -2.2036  1.6516
 5432SOL     OW26629   3.606   7.554   1.954 -0.0962  0.8927  0.1050
 5432SOL    HW126630   3.607   7.542   1.855 -0.9390  1.4422  0.0228
 5432SOL    HW226631   3.637   7.647   1.977 -0.1064  0.8396  0.3391
 5433SOL     OW26632   9.685   3.852   1.534 -0.4516  0.5921 -0.5860
 5433SOL    HW126633   9.606   3.909   1.555 -1.6485 -1.7089  1.4820
 5433SOL    HW226634   9.655   3.758   1.517  1.9546 -0.7925  2.2652
 5434SOL     OW26635   3.996   0.507   1.507 -0.1281  0.0172 -0.2930
 5434SOL    HW126636   4.082   0.458   1.522  0.7581  1.6935  0.1761
 5434SOL    HW226637   4.010   0.581   1.441 -1.8948 -1.4963 -2.4273
 5435SOL     OW26638   2.944   9.654   2.916  0.5545 -0.7450 -0.2066
 5435SOL    HW126639   2.920   9.721   2.845 -0.7127  0.4922  1.3386
 5435SOL    HW226640   3.002   9.698   2.985 -3.4730 -0.0108  2.9108
 5436SOL     OW26641   9.036   5.342   1.110 -0.0930 -0.1437 -0.0003
 5436SOL    HW126642   8.994   5.334   1.200  0.5461 -1.7140  0.1885
 5436SOL    HW226643   9.017   5.432   1.071 -1.9869 -0.1453  0.8833
 5437SOL     OW26644   2.204   0.260   2.398  0.0313 -0.1252  0.1172
 5437SOL    HW126645   2.242   0.338   2.448 -0.4321  0.4641 -0.4446
 5437SOL    HW226646   2.128   0.222   2.450  2.2551 -2.1964  1.9423
 5438SOL     OW26647   1.554   1.948   1.845 -0.1430  0.0224 -0.0257
 5438SOL    HW126648   1.587   1.863   1.884 -0.7273  0.9995  2.7573
 5438SOL    HW226649   1.527   1.934   1.749  2.2938 -2.2204 -0.4152
 5439SOL     OW26650   1.809   5.422   1.740  0.6678 -0.1877 -0.3539
 5439SOL    HW126651   1.840   5.330   1.763  1.9540  0.1382 -0.7414
 5439SOL    HW226652   1.843   5.447   1.649  1.8068  1.3388  0.4773
 5440SOL     OW26653   3.954   1.355   3.045 -0.1749  0.4684 -0.1963
 5440SOL    HW126654   3.924   1.330   2.953  0.3211  0.2805 -0.3090
 5440SOL    HW226655   3.948   1.276   3.105 -1.0898  0.7483  0.0883
 5441SOL     OW26656   3.617   7.609   0.513  0.2646  0.2597 -0.0648
 5441SOL    HW126657   3.684   7.634   0.443  2.2497 -0.3877  1.5682
 5441SOL    HW226658   3.562   7.532   0.479 -0.3311  1.3999 -1.7860
 5442SOL     OW26659   1.797   1.416   2.314 -0.1031 -0.0294 -0.7239
 5442SOL    HW126660   1.835   1.327   2.339  0.3988  0.4314  0.1884
 5442SOL    HW226661   1.836   1.445   2.227  1.0502  0.0654 -0.1897
 5443SOL     OW26662   4.031   4.928   0.399  0.1859 -0.2216  0.2739
 5443SOL    HW126663   3.968   4.876   0.341 -0.7876  0.7665  0.4180
 5443SOL    HW226664   4.007   4.914   0.495 -0.0378  0.4397  0.3154
 5444SOL     OW26665   9.697   4.566   1.696 -0.6834  0.9666 -0.0107
 5444SOL    HW126666   9.626   4.545   1.763  0.1332  1.0069  0.8760
 5444SOL    HW226667   9.785   4.579   1.743  0.4961 -1.8699 -1.3432
 5445SOL     OW26668   1.405   4.691   2.879  0.6298 -0.5257  0.0672
 5445SOL    HW126669   1.417   4.786   2.908  0.0443 -0.2254 -0.6526
 5445SOL    HW226670   1.463   4.673   2.800 -2.2239  0.4351 -2.3574
 5446SOL     OW26671   1.613   5.436   2.441  0.0703  0.1184 -0.2938
 5446SOL    HW126672   1.702   5.391   2.434 -1.1111 -2.6238  1.5282
 5446SOL    HW226673   1.568   5.435   2.352  1.2704  0.2950 -0.9142
 5447SOL     OW26674   3.071   2.286   2.556 -0.1918  0.5260  0.7291
 5447SOL    HW126675   3.092   2.199   2.602  1.6438  0.7932  0.4516
 5447SOL    HW226676   3.143   2.305   2.488 -1.5492  1.3670 -0.4993
 5448SOL     OW26677   8.285   0.826   2.447 -0.0518  0.2252 -0.0578
 5448SOL    HW126678   8.258   0.817   2.351 -2.1169  1.6597  0.3676
 5448SOL    HW226679   8.365   0.767   2.464 -1.8053 -2.7924 -1.7869
 5449SOL     OW26680   0.439   4.077   1.857 -0.9799  0.4977 -0.1422
 5449SOL    HW126681   0.531   4.065   1.818 -1.1743 -2.5131  0.2287
 5449SOL    HW226682   0.373   4.091   1.783 -0.8435 -1.7946 -0.7427
 5450SOL     OW26683   8.539   8.195   0.962 -0.1436 -0.1055  0.3044
 5450SOL    HW126684   8.562   8.290   0.980  0.1988 -0.3293  1.1035
 5450SOL    HW226685   8.460   8.190   0.901  0.2997  0.6828 -0.3355
 5451SOL     OW26686   2.387   1.371   1.966  0.1532  1.0092  0.1043
 5451SOL    HW126687   2.401   1.354   1.868 -0.1530 -3.2872  0.7077
 5451SOL    HW226688   2.289   1.362   1.988  0.2234  1.9117  0.8081
 5452SOL     OW26689   0.128   0.718   2.403 -0.3895  0.6818 -0.2772
 5452SOL    HW126690   0.210   0.669   2.371  0.5630  0.7384  1.9862
 5452SOL    HW226691   0.135   0.815   2.379 -0.4185  0.4442 -1.2563
 5453SOL     OW26692   8.983   1.686   1.069  0.0432 -0.8630  0.0093
 5453SOL    HW126693   9.019   1.707   1.160 -1.8992 -0.5860  0.7272
 5453SOL    HW226694   8.890   1.652   1.077 -0.6326  0.4474 -1.9690
 5454SOL     OW26695   5.028   8.434   3.262 -0.4958  0.4577 -0.6446
 5454SOL    HW126696   5.114   8.388   3.243  0.4514  2.5314 -1.5122
 5454SOL    HW226697   5.036   8.486   3.347 -1.1607  0.0288 -0.3121
 5455SOL     OW26698   3.408   2.470   2.105 -0.1632  0.3972 -0.4178
 5455SOL    HW126699   3.421   2.568   2.094  0.1969  0.3626 -0.2853
 5455SOL    HW226700   3.492   2.428   2.138  0.1518 -0.1805 -1.9335
 5456SOL     OW26701   9.073   9.733   2.085  0.4143  1.1054  0.2221
 5456SOL    HW126702   9.119   9.646   2.069  0.8492  1.1975  0.9408
 5456SOL    HW226703   9.128   9.808   2.048 -0.7628  0.9449 -1.8936
 5457SOL     OW26704   2.226   1.830   0.044 -0.3110 -0.4894 -0.3724
 5457SOL    HW126705   2.127   1.827   0.029 -0.2432 -0.9449 -0.7359
 5457SOL    HW226706   2.273   1.832  -0.044  0.0965 -3.4341 -0.2845
 5458SOL     OW26707   1.754   4.593   0.626 -0.2262 -0.1034 -0.2674
 5458SOL    HW126708   1.778   4.658   0.553 -1.3693 -0.7772 -1.2794
 5458SOL    HW226709   1.655   4.592   0.637 -0.0616 -0.1247  1.2078
 5459SOL     OW26710   8.086   6.350   3.253  0.6718  0.8429  0.3946
 5459SOL    HW126711   8.132   6.380   3.336 -0.1675  1.8368  0.5045
 5459SOL    HW226712   8.152   6.305   3.193  0.8861 -1.7832  2.4897
 5460SOL     OW26713   0.905   1.792   1.944 -0.0871 -0.3882 -0.1693
 5460SOL    HW126714   0.931   1.855   1.871  1.1416 -0.9840 -0.2558
 5460SOL    HW226715   0.872   1.844   2.023  0.5058  0.3448 -0.3968
 5461SOL     OW26716   2.605   5.070   3.422  0.7171 -0.2258  0.0554
 5461SOL    HW126717   2.541   4.994   3.434 -1.0937  1.4627  1.4770
 5461SOL    HW226718   2.569   5.133   3.353  1.1686  0.3882  0.3795
 5462SOL     OW26719   2.707   4.020   0.421 -0.7672 -0.2063 -0.4661
 5462SOL    HW126720   2.665   4.004   0.331 -1.9817  1.7478 -0.2912
 5462SOL    HW226721   2.646   3.986   0.493 -2.4523  3.2204 -0.1815
 5463SOL     OW26722   7.673   1.574   0.568  0.2229 -0.3075 -0.0633
 5463SOL    HW126723   7.665   1.624   0.654  1.2505 -1.6997  0.8679
 5463SOL    HW226724   7.761   1.596   0.524 -0.8224  1.3288 -1.3758
 5464SOL     OW26725   3.453   0.820   0.522 -0.7210 -0.0784  0.4635
 5464SOL    HW126726   3.412   0.858   0.605  0.3842 -0.8859  1.3814
 5464SOL    HW226727   3.404   0.855   0.442  0.3928  3.5014  1.2639
 5465SOL     OW26728   0.182   3.013   3.250  0.1936  0.2702  0.2824
 5465SOL    HW126729   0.107   3.017   3.316  1.7423 -1.7675  2.2501
 5465SOL    HW226730   0.253   3.078   3.277  1.0070 -0.8510  0.8818
 5466SOL     OW26731   9.312   5.585   1.890  0.1102 -0.3184  0.2504
 5466SOL    HW126732   9.262   5.556   1.808  0.8137 -0.1570 -0.2396
 5466SOL    HW226733   9.404   5.613   1.865  0.0200  0.6609  0.9737
 5467SOL     OW26734   8.972   3.854   1.139  0.1594  0.0533 -0.1739
 5467SOL    HW126735   8.879   3.819   1.139  0.2534 -0.3455  2.7112
 5467SOL    HW226736   9.036   3.780   1.161  1.2228  0.2572 -2.4001
 5468SOL     OW26737   5.137   0.090   2.834 -0.1229  0.3655  0.0770
 5468SOL    HW126738   5.095   0.162   2.890 -2.3272 -0.0144 -1.0044
 5468SOL    HW226739   5.219   0.126   2.790  0.2695  1.4109  1.5770
 5469SOL     OW26740   8.023   2.483   1.517  0.3099  0.1184  0.1069
 5469SOL    HW126741   8.086   2.452   1.446  1.7725  1.1857  0.8909
 5469SOL    HW226742   7.951   2.538   1.476  0.7714  0.1741 -0.6427
 5470SOL     OW26743   3.883   1.476   2.643  0.0891 -0.3635 -0.1427
 5470SOL    HW126744   3.850   1.413   2.573  0.0019 -1.9072  1.2697
 5470SOL    HW226745   3.976   1.505   2.621  0.1092 -0.9381 -0.8276
 5471SOL     OW26746   9.395   8.892   2.232 -0.4268 -0.0936  0.2378
 5471SOL    HW126747   9.452   8.935   2.162  0.5715 -1.0404  0.4617
 5471SOL    HW226748   9.334   8.825   2.189  1.5195 -2.0538  0.4881
 5472SOL     OW26749   8.035   6.150   0.748  0.2353 -0.1497 -0.3630
 5472SOL    HW126750   8.090   6.067   0.754  0.5820  0.0575 -0.6167
 5472SOL    HW226751   7.995   6.156   0.656  0.1975 -0.0482 -0.3400
 5473SOL     OW26752   4.164   3.929   3.332  0.0935  0.4201  0.2598
 5473SOL    HW126753   4.212   3.964   3.412 -0.5729  0.1651  0.7839
 5473SOL    HW226754   4.181   3.988   3.254  1.3356  0.2721  0.4118
 5474SOL     OW26755   3.798   3.329   3.029  0.7070  0.3801 -0.4710
 5474SOL    HW126756   3.741   3.313   3.110 -0.2108  1.2394 -0.9470
 5474SOL    HW226757   3.740   3.332   2.947  1.5285  0.4176 -1.0583
 5475SOL     OW26758   9.591   3.144   0.253  0.0470 -0.4882 -0.2612
 5475SOL    HW126759   9.618   3.193   0.336  0.2663 -0.6006 -0.2641
 5475SOL    HW226760   9.567   3.209   0.181  0.1510 -0.3868 -0.2046
 5476SOL     OW26761   3.660   7.827   1.056 -0.4646  0.3705 -0.2697
 5476SOL    HW126762   3.749   7.783   1.048  0.0977  1.4057  0.2911
 5476SOL    HW226763   3.641   7.880   0.973 -0.7255 -0.1531 -0.5463
 5477SOL     OW26764   3.231   3.921   0.212 -0.6251 -0.1834  0.4788
 5477SOL    HW126765   3.209   3.829   0.179 -0.9091 -0.4024  1.2846
 5477SOL    HW226766   3.150   3.964   0.250 -0.3829  0.2136  0.5535
 5478SOL     OW26767   5.019   3.737   0.885  0.1458  0.7157 -0.0160
 5478SOL    HW126768   5.115   3.714   0.873  0.2015  1.3305 -0.8066
 5478SOL    HW226769   5.008   3.792   0.968  0.2888 -0.4513  0.7756
 5479SOL     OW26770   0.087   0.576   1.407 -0.6393 -0.0445 -0.0251
 5479SOL    HW126771   0.129   0.485   1.397  0.5149  0.4925 -0.1085
 5479SOL    HW226772  -0.001   0.566   1.452  0.0706 -1.0868  1.1815
 5480SOL     OW26773   8.685   4.196   3.302 -0.3442  0.3214  0.0171
 5480SOL    HW126774   8.730   4.134   3.366 -0.9352 -0.3053 -0.1783
 5480SOL    HW226775   8.586   4.189   3.313 -0.4159  1.4378  0.1969
 5481SOL     OW26776   9.299   9.942   2.335  0.1917 -0.3840 -0.3586
 5481SOL    HW126777   9.275   9.999   2.256  1.1818 -3.0246 -2.6848
 5481SOL    HW226778   9.368   9.874   2.307  0.6909 -1.2939  2.8515
 5482SOL     OW26779   1.460   2.890   0.461 -0.1891  0.4977 -0.5259
 5482SOL    HW126780   1.496   2.974   0.419 -0.6820  0.3553 -1.2471
 5482SOL    HW226781   1.388   2.852   0.403 -0.5300  0.0132  0.2032
 5483SOL     OW26782   4.317   7.460   2.541 -0.1415  0.6615  0.4219
 5483SOL    HW126783   4.327   7.540   2.599  0.9743  0.9555 -0.1574
 5483SOL    HW226784   4.374   7.385   2.576 -2.6368 -0.5424  2.0657
 5484SOL     OW26785   0.404   9.691   2.523 -0.3946  0.5815  0.1056
 5484SOL    HW126786   0.494   9.664   2.489 -0.1273  1.3334  0.2146
 5484SOL    HW226787   0.334   9.633   2.481  0.2234 -0.6311  0.7509
 5485SOL     OW26788   0.151   8.833   0.889 -0.4635  0.4926 -0.0972
 5485SOL    HW126789   0.112   8.754   0.842 -0.2758  0.0993  0.4151
 5485SOL    HW226790   0.080   8.876   0.945  0.3516 -1.4433  2.4670
 5486SOL     OW26791   9.763   2.682   3.073  0.1770  0.1879  0.3934
 5486SOL    HW126792   9.821   2.690   2.992  0.8571 -0.5082  0.8029
 5486SOL    HW226793   9.819   2.691   3.155  0.0142 -2.2998  0.8184
 5487SOL     OW26794   1.337   3.375   1.510 -0.0168  0.2276  0.1303
 5487SOL    HW126795   1.292   3.322   1.582  0.3576 -0.6081 -0.2397
 5487SOL    HW226796   1.330   3.325   1.424  2.0146 -0.1413  0.1640
 5488SOL     OW26797   0.687   7.519   2.982 -0.8446  0.5269 -0.5772
 5488SOL    HW126798   0.711   7.424   2.998  1.3485  0.9371 -1.2744
 5488SOL    HW226799   0.655   7.530   2.887 -0.3900  0.6235 -0.7181
 5489SOL     OW26800   8.825   1.818   0.153 -0.0979 -0.2210  0.3340
 5489SOL    HW126801   8.890   1.869   0.209 -0.3188  0.3596  0.0618
 5489SOL    HW226802   8.732   1.842   0.178 -0.2067  0.8486 -0.9868
 5490SOL     OW26803   4.804   8.597   2.785  0.5956 -0.0430 -0.1845
 5490SOL    HW126804   4.779   8.636   2.874 -0.9297 -0.3223 -0.4802
 5490SOL    HW226805   4.890   8.639   2.753  0.7368  0.6252  1.0489
 5491SOL     OW26806   3.710   4.335   3.174 -0.0822  0.2534 -0.3062
 5491SOL    HW126807   3.688   4.238   3.164 -0.1504  0.4002 -1.5819
 5491SOL    HW226808   3.678   4.366   3.264  0.2685 -0.9819  0.2725
 5492SOL     OW26809   0.603   1.435   0.117 -0.1857  0.2262  0.2984
 5492SOL    HW126810   0.621   1.485   0.202  0.0976  1.6905 -0.6109
 5492SOL    HW226811   0.664   1.469   0.045 -0.5069 -0.9226 -0.5322
 5493SOL     OW26812   9.307   0.569   3.250 -0.4748  0.0383 -1.0218
 5493SOL    HW126813   9.332   0.504   3.177 -0.1725 -2.0592  0.8802
 5493SOL    HW226814   9.209   0.588   3.246 -0.3898  0.2680 -2.2252
 5494SOL     OW26815   0.330   6.927   0.812 -0.2608 -0.4344 -0.1452
 5494SOL    HW126816   0.400   6.856   0.805 -0.6981 -1.0311  1.2367
 5494SOL    HW226817   0.272   6.909   0.892 -1.0084  0.9245 -0.3572
 5495SOL     OW26818   0.893   6.550   0.941  0.1939  0.4556  0.1078
 5495SOL    HW126819   0.984   6.565   0.981  1.3519 -1.0061 -1.8861
 5495SOL    HW226820   0.896   6.570   0.843 -0.8818 -2.3760 -0.5534
 5496SOL     OW26821   1.360   9.224   1.404  0.3360  0.4878  0.3441
 5496SOL    HW126822   1.442   9.279   1.397 -0.0626  1.0176 -0.1439
 5496SOL    HW226823   1.303   9.258   1.479  0.6058  0.0585  0.7452
 5497SOL     OW26824   3.782   0.443   3.408  0.2415 -0.2601 -0.0587
 5497SOL    HW126825   3.849   0.422   3.479  0.5996 -0.3559 -0.4217
 5497SOL    HW226826   3.746   0.358   3.369 -0.5814 -0.2139  0.5905
 5498SOL     OW26827   8.745   6.539   2.388  0.2623 -0.0069  0.1827
 5498SOL    HW126828   8.766   6.607   2.318  0.3967  0.0909  0.3148
 5498SOL    HW226829   8.647   6.539   2.408  0.4443  1.0503  1.1030
 5499SOL     OW26830   5.484   9.495   2.717 -0.1604 -0.1997 -0.8407
 5499SOL    HW126831   5.478   9.421   2.784 -0.9127 -0.2223 -0.9272
 5499SOL    HW226832   5.404   9.493   2.658 -0.7189  1.3639 -0.1493
 5500SOL     OW26833   0.959   0.134   0.756 -0.2177 -0.0891  0.3746
 5500SOL    HW126834   1.035   0.139   0.692  0.8899  0.0227  1.6751
 5500SOL    HW226835   0.903   0.217   0.749  0.3653  0.2828  0.1170
 5501SOL     OW26836   4.584   2.928   0.736 -0.3258 -0.5563 -0.0766
 5501SOL    HW126837   4.494   2.922   0.777  0.0682 -0.0750  0.8739
 5501SOL    HW226838   4.627   2.838   0.737  0.4470 -0.2038  2.3668
 5502SOL     OW26839   4.351   8.817   1.649  0.3249  0.2896 -0.3850
 5502SOL    HW126840   4.348   8.852   1.556 -1.1030  0.2328 -0.3739
 5502SOL    HW226841   4.393   8.884   1.709  0.8404  0.5107 -0.9933
 5503SOL     OW26842   9.584   5.542   0.229  0.0043 -0.4167  0.7698
 5503SOL    HW126843   9.674   5.505   0.209  0.6827  0.2724  2.4494
 5503SOL    HW226844   9.523   5.469   0.259  0.3505 -0.6886  0.8044
 5504SOL     OW26845   3.187   9.698   1.160  0.0281 -0.3866  0.1255
 5504SOL    HW126846   3.225   9.636   1.091  0.1130 -0.7094  0.4622
 5504SOL    HW226847   3.104   9.658   1.199 -0.6208  0.2805 -0.5514
 5505SOL     OW26848   0.601   0.546   1.709  0.7903  0.1222 -0.4054
 5505SOL    HW126849   0.642   0.555   1.618  1.6186  2.3768  0.1710
 5505SOL    HW226850   0.513   0.501   1.702  0.7178  0.5497 -2.3644
 5506SOL     OW26851   0.035   5.353   2.218 -0.9181  0.3641 -0.3992
 5506SOL    HW126852  -0.017   5.335   2.301 -1.2051  0.0557 -0.6432
 5506SOL    HW226853   0.133   5.347   2.238 -0.9956 -1.1228 -0.3879
 5507SOL     OW26854   8.916   7.986   0.213  0.4245  0.3153 -0.2887
 5507SOL    HW126855   8.860   7.925   0.269 -0.9523  3.4875  1.9429
 5507SOL    HW226856   8.867   8.009   0.129 -0.4847  0.9450  0.4053
 5508SOL     OW26857   1.722   1.384   0.549 -0.4365 -0.2387 -0.3774
 5508SOL    HW126858   1.700   1.314   0.616 -3.6770  0.7718 -0.2774
 5508SOL    HW226859   1.725   1.473   0.593 -0.3573  0.1635 -1.1808
 5509SOL     OW26860   7.590   0.057   0.025 -0.3821  0.5181 -0.1865
 5509SOL    HW126861   7.571   0.085  -0.070  0.6988 -0.3614 -0.6814
 5509SOL    HW226862   7.683   0.084   0.049 -0.3882  0.0385  0.3734
 5510SOL     OW26863   3.725   8.960   2.995 -0.3634 -0.6975 -0.0124
 5510SOL    HW126864   3.634   8.921   3.003 -0.4117 -0.7513 -0.7909
 5510SOL    HW226865   3.780   8.905   2.933  0.5873 -1.3480  1.3822
 5511SOL     OW26866   3.886   0.077   0.267  0.2002 -0.7369  0.6516
 5511SOL    HW126867   3.842   0.166   0.272  2.7124  0.5075  1.4368
 5511SOL    HW226868   3.868   0.026   0.351  0.8727  0.0714  1.2932
 5512SOL     OW26869   8.203   1.067   1.789 -0.7479  0.2468 -0.7608
 5512SOL    HW126870   8.130   1.010   1.826 -0.4859  0.5246  0.1824
 5512SOL    HW226871   8.291   1.027   1.812 -0.5352  1.6199  0.8671
 5513SOL     OW26872   0.345   1.626   0.353 -0.3428  0.3924 -0.2373
 5513SOL    HW126873   0.269   1.561   0.343  1.4163 -1.8201  0.4078
 5513SOL    HW226874   0.392   1.635   0.265 -0.2943  0.4487 -0.2051
 5514SOL     OW26875   1.289   1.358   2.827 -0.2937  0.5834  0.7890
 5514SOL    HW126876   1.292   1.364   2.927 -1.4705 -2.6236  1.0534
 5514SOL    HW226877   1.196   1.335   2.798  0.3663  0.0901 -0.9851
 5515SOL     OW26878   8.222   6.874   3.080 -0.0451  0.4259  0.2361
 5515SOL    HW126879   8.137   6.843   3.121 -0.3092 -0.6693 -1.0753
 5515SOL    HW226880   8.226   6.974   3.082 -0.4142  0.4076  2.1363
 5516SOL     OW26881   8.920   9.068   1.585  0.0770 -0.1838 -0.0574
 5516SOL    HW126882   8.955   8.983   1.546  1.5526  0.5659 -0.4374
 5516SOL    HW226883   8.908   9.057   1.684 -1.7516 -1.4711 -0.4123
 5517SOL     OW26884   2.837   5.124   0.872  0.3581  0.0904  0.6690
 5517SOL    HW126885   2.866   5.033   0.903  0.9993  0.5990  1.5835
 5517SOL    HW226886   2.912   5.167   0.821 -0.1441 -0.1127 -0.2555
 5518SOL     OW26887   4.752   9.918   2.068  0.4150 -0.2142  0.8469
 5518SOL    HW126888   4.820   9.867   2.015  0.0573 -0.1919  0.3624
 5518SOL    HW226889   4.788  10.010   2.087  0.7541 -0.3961  1.0827
 5519SOL     OW26890   9.822   4.344   1.937  0.1159  0.1181  0.3192
 5519SOL    HW126891   9.918   4.353   1.965  0.9299 -0.4399 -2.1648
 5519SOL    HW226892   9.813   4.268   1.872 -1.9367  0.4365  0.1876
 5520SOL     OW26893   3.405   8.462   2.730  0.1573 -0.0244 -0.1910
 5520SOL    HW126894   3.501   8.484   2.744 -0.4475  2.0733  0.7431
 5520SOL    HW226895   3.377   8.490   2.638  0.2929 -0.1921 -0.2856
 5521SOL     OW26896   2.155   2.160   3.083  0.1554  0.2272 -0.0213
 5521SOL    HW126897   2.110   2.209   3.159 -1.1975  2.1609 -2.0015
 5521SOL    HW226898   2.094   2.089   3.049 -0.9388  1.9459 -1.8043
 5522SOL     OW26899   1.224   3.955   2.594 -0.4598  0.8200  0.3136
 5522SOL    HW126900   1.301   3.892   2.599 -0.4376  0.8649  0.5366
 5522SOL    HW226901   1.243   4.026   2.526  0.3192  1.6681  1.3856
 5523SOL     OW26902   9.597   9.157   3.253 -0.1152  0.6868  0.1661
 5523SOL    HW126903   9.695   9.147   3.237 -0.6428 -0.1117 -2.9284
 5523SOL    HW226904   9.569   9.251   3.234 -0.1314  0.6566  0.0453
 5524SOL     OW26905   8.806   5.747   2.499 -0.2618  0.0307 -0.2972
 5524SOL    HW126906   8.819   5.820   2.432  1.2771  0.0982  0.0456
 5524SOL    HW226907   8.734   5.685   2.467 -2.6618  2.4949  0.1267
 5525SOL     OW26908   0.471   0.983   2.903  0.4517 -0.9578 -0.3961
 5525SOL    HW126909   0.385   0.977   2.955  0.3544 -0.2489 -0.4597
 5525SOL    HW226910   0.542   0.931   2.950  0.0396 -1.3733 -0.2252
 5526SOL     OW26911   4.235   2.655   0.942 -0.4688 -0.1867  0.2199
 5526SOL    HW126912   4.171   2.624   0.872  1.2210 -0.0623 -1.4006
 5526SOL    HW226913   4.191   2.648   1.032 -2.5563 -0.6188 -0.7934
 5527SOL     OW26914   3.937   8.416   2.662  0.3134 -0.1122 -0.6968
 5527SOL    HW126915   4.015   8.478   2.654 -1.0814  1.6966 -0.6628
 5527SOL    HW226916   3.935   8.377   2.754 -0.0006  1.4754 -0.0079
 5528SOL     OW26917   2.652   8.877   2.597  0.0738  0.1086  0.2010
 5528SOL    HW126918   2.604   8.796   2.564 -1.9769  1.0331  0.8599
 5528SOL    HW226919   2.715   8.852   2.671 -0.3057 -0.9110  0.1812
 5529SOL     OW26920   3.378   1.218   1.211  0.4465 -0.1908 -0.4146
 5529SOL    HW126921   3.351   1.156   1.137  0.7741 -0.8834  0.0337
 5529SOL    HW226922   3.437   1.169   1.275 -1.3809 -0.1622  1.3343
 5530SOL     OW26923   8.721   8.952   2.367 -0.2228  0.3060 -0.2288
 5530SOL    HW126924   8.774   9.006   2.433 -1.1317  0.9573 -0.0152
 5530SOL    HW226925   8.648   9.009   2.328 -1.2117 -0.7697  0.0141
 5531SOL     OW26926   1.200   8.748   0.789 -0.0205  0.0255  0.0896
 5531SOL    HW126927   1.183   8.806   0.869  2.4839 -1.1648  1.5421
 5531SOL    HW226928   1.287   8.773   0.748 -0.3394 -0.7265 -1.0615
 5532SOL     OW26929   0.520   8.680   2.721  0.0805  0.0911  0.2076
 5532SOL    HW126930   0.553   8.673   2.815 -0.2062 -0.0493  0.2969
 5532SOL    HW226931   0.435   8.630   2.711  0.2644 -0.1484 -0.2034
 5533SOL     OW26932   1.577   4.097   2.171  0.4672  0.0832  0.5062
 5533SOL    HW126933   1.676   4.085   2.181  0.3370 -2.4935 -0.9369
 5533SOL    HW226934   1.556   4.119   2.075 -0.6042 -2.6213  0.0740
 5534SOL     OW26935   9.965   3.914   1.159 -0.3404 -0.4486 -0.3854
 5534SOL    HW126936  10.036   3.853   1.124  0.2110 -1.2501  2.0067
 5534SOL    HW226937   9.876   3.884   1.127  0.1017 -1.4573 -0.6827
 5535SOL     OW26938   9.744   9.005   0.853  0.5795 -0.4152 -0.3501
 5535SOL    HW126939   9.804   8.965   0.784  0.6630  2.4226 -2.0185
 5535SOL    HW226940   9.670   9.055   0.807 -1.6347 -1.7872  1.6588
 5536SOL     OW26941   2.947   0.189   0.588  0.0919  0.0812 -0.4265
 5536SOL    HW126942   2.944   0.114   0.522 -0.4730  0.0805 -0.4056
 5536SOL    HW226943   3.015   0.170   0.658  0.5777  0.0051 -0.9175
 5537SOL     OW26944   0.259   8.054   0.800 -0.6379 -0.1315  0.0989
 5537SOL    HW126945   0.274   8.124   0.730 -1.2153  2.1703  2.2002
 5537SOL    HW226946   0.207   8.093   0.876  0.4949 -2.3855  2.1113
 5538SOL     OW26947   3.428   7.694   2.603 -0.1947  0.1233 -0.7321
 5538SOL    HW126948   3.464   7.760   2.537 -1.9896  2.0374  0.1554
 5538SOL    HW226949   3.329   7.688   2.593 -0.5610  0.9434  2.2328
 5539SOL     OW26950   8.844   1.369   0.881 -0.5275 -0.1368 -0.0437
 5539SOL    HW126951   8.832   1.352   0.979  0.0157 -0.6894 -0.0720
 5539SOL    HW226952   8.805   1.293   0.829 -0.3021 -0.1155 -0.2447
 5540SOL     OW26953   8.231   6.990   1.408 -0.2740  0.5000 -0.5911
 5540SOL    HW126954   8.220   7.040   1.494  0.8991  0.1491 -0.2299
 5540SOL    HW226955   8.282   6.905   1.425 -1.1498 -0.2043 -1.4101
 5541SOL     OW26956   3.314   5.902   2.027  0.3510 -0.8703 -0.0860
 5541SOL    HW126957   3.283   5.991   2.059  0.7662 -0.5416 -0.5854
 5541SOL    HW226958   3.376   5.861   2.094 -0.9408 -1.4073  0.7874
 5542SOL     OW26959   5.210   9.527   2.829 -0.5864 -0.0400  0.4684
 5542SOL    HW126960   5.269   9.506   2.908  0.2012  2.4169  0.5861
 5542SOL    HW226961   5.212   9.625   2.812 -1.4852 -0.4290 -2.0665
 5543SOL     OW26962   7.622   0.741   0.276  0.1201 -0.4343 -0.0511
 5543SOL    HW126963   7.718   0.717   0.284  0.0382 -0.6812  0.1888
 5543SOL    HW226964   7.594   0.796   0.355 -0.6197 -2.6514  1.2468
 5544SOL     OW26965   1.004   5.489   3.027 -0.7490 -0.0541  0.4130
 5544SOL    HW126966   0.951   5.475   2.943  0.9756  0.2654 -0.7445
 5544SOL    HW226967   0.970   5.570   3.074 -1.1259  0.3013 -0.4591
 5545SOL     OW26968   5.671   0.074   2.834 -0.3849  0.6374 -0.0352
 5545SOL    HW126969   5.677   0.173   2.844 -0.5549  0.4180  2.9297
 5545SOL    HW226970   5.586   0.042   2.876  0.8057 -0.9859  1.2247
 5546SOL     OW26971   4.213   3.069   1.481  0.1001 -0.2835 -0.4803
 5546SOL    HW126972   4.232   3.006   1.556  0.9126 -0.6070 -0.9566
 5546SOL    HW226973   4.235   3.025   1.394  0.4231  0.5523 -0.8264
 5547SOL     OW26974   3.807   1.383   1.345 -0.1364 -0.1881 -0.1158
 5547SOL    HW126975   3.872   1.448   1.386  1.5411  0.2410 -3.2830
 5547SOL    HW226976   3.714   1.415   1.362  0.5636  1.2040  1.2960
 5548SOL     OW26977   4.559   9.379   3.174 -0.1138 -0.2498  0.4801
 5548SOL    HW126978   4.524   9.426   3.093 -2.5225 -1.5741  0.7319
 5548SOL    HW226979   4.547   9.438   3.254  0.2996  0.1871  0.2262
 5549SOL     OW26980   3.700   1.222   2.991  0.2444 -0.4487 -0.4311
 5549SOL    HW126981   3.619   1.258   3.036  1.6329  1.8961  0.2244
 5549SOL    HW226982   3.735   1.144   3.043 -0.4553 -0.2777  0.3072
 5550SOL     OW26983   3.477   8.761   2.788  0.2924  0.6643  0.2023
 5550SOL    HW126984   3.413   8.772   2.864  1.0624 -0.8581  1.0925
 5550SOL    HW226985   3.520   8.671   2.794  0.5803  0.6565 -1.8785
 5551SOL     OW26986   4.295   9.209   3.018  0.2161  0.2072 -0.2098
 5551SOL    HW126987   4.314   9.272   2.943 -1.5256  0.6836 -0.2690
 5551SOL    HW226988   4.379   9.161   3.043  1.5421  2.3745 -0.3138
 5552SOL     OW26989   2.864   4.265   1.488 -0.2563  0.2509  0.4174
 5552SOL    HW126990   2.958   4.237   1.471  0.0882  0.7573  1.4416
 5552SOL    HW226991   2.857   4.305   1.580 -1.5614 -0.2205  0.5318
 5553SOL     OW26992   4.528   7.867   1.022 -0.1942  0.5917  0.0821
 5553SOL    HW126993   4.492   7.813   0.946 -0.0962  0.0485  0.4148
 5553SOL    HW226994   4.484   7.838   1.107  1.0585 -0.1111  0.5007
 5554SOL     OW26995   0.757   7.171   2.619  0.2948 -0.0440  0.0778
 5554SOL    HW126996   0.760   7.161   2.520  3.8615  0.1700  0.1122
 5554SOL    HW226997   0.804   7.094   2.662 -3.1631 -1.3286  1.7422
 5555SOL     OW26998   9.176   2.351   2.474  0.0694  0.4099 -0.1368
 5555SOL    HW126999   9.156   2.442   2.437 -2.8498  0.1956  0.7373
 5555SOL    HW227000   9.173   2.354   2.574  2.4076 -0.1615 -0.0219
 5556SOL     OW27001   7.188   8.795   2.457 -0.5916 -1.0282 -0.0891
 5556SOL    HW127002   7.254   8.740   2.508 -1.2135 -0.5840  1.1944
 5556SOL    HW227003   7.145   8.862   2.518 -2.0751 -1.1682 -0.9588
 5557SOL     OW27004   2.913   4.798   2.204  0.2051 -0.2827 -0.4301
 5557SOL    HW127005   3.012   4.809   2.193  0.3437 -1.1525 -0.0844
 5557SOL    HW227006   2.866   4.881   2.173  1.1545  0.7901  0.9487
 5558SOL     OW27007   1.467   1.129   0.344  0.8236  0.3439  0.8923
 5558SOL    HW127008   1.558   1.167   0.331  1.0923 -0.9836 -1.2943
 5558SOL    HW227009   1.399   1.202   0.342  1.8112  1.3259  2.4583
 5559SOL     OW27010   0.153   1.422   3.352 -0.0872 -1.0725 -0.7024
 5559SOL    HW127011   0.249   1.419   3.380 -0.3619 -0.1840  0.3900
 5559SOL    HW227012   0.147   1.435   3.253  0.9664  2.5704 -0.3439
 5560SOL     OW27013   0.786   7.500   0.175  0.0861 -0.0111  0.3960
 5560SOL    HW127014   0.783   7.479   0.077  0.0435 -0.1134  0.4200
 5560SOL    HW227015   0.789   7.416   0.228 -0.8234  0.0248  0.5173
 5561SOL     OW27016   2.985   3.785   2.778  0.3694 -0.5110  0.0576
 5561SOL    HW127017   2.996   3.850   2.703 -1.3797  0.3946  0.5874
 5561SOL    HW227018   2.936   3.704   2.745 -0.5018 -0.0622  0.2532
 5562SOL     OW27019   5.223   8.373   2.387  0.1011  0.3060  0.5524
 5562SOL    HW127020   5.180   8.287   2.362  1.0230 -0.4649  1.5643
 5562SOL    HW227021   5.174   8.449   2.344  2.4226 -0.9507 -4.7767
 5563SOL     OW27022   9.272   6.451   2.700  0.8754  0.5112 -0.4923
 5563SOL    HW127023   9.191   6.455   2.642  1.7135  1.0318 -1.6595
 5563SOL    HW227024   9.254   6.394   2.780  0.0643 -1.1880 -1.8560
 5564SOL     OW27025   0.212   1.733   1.374  0.0172 -0.1932 -0.4932
 5564SOL    HW127026   0.120   1.754   1.407  0.5057  1.3507 -0.0699
 5564SOL    HW227027   0.270   1.709   1.451 -0.3472 -2.4808 -0.8977
 5565SOL     OW27028   3.043   0.070   3.194 -0.1198 -0.0475 -0.2544
 5565SOL    HW127029   2.984   0.036   3.121  0.2665  2.0268 -1.5845
 5565SOL    HW227030   3.001   0.150   3.236 -0.1681 -1.0116  1.5841
 5566SOL     OW27031   8.786   1.085   1.064  0.0812 -0.5077 -0.4152
 5566SOL    HW127032   8.783   1.091   0.964  0.4705  0.4760 -0.3852
 5566SOL    HW227033   8.878   1.058   1.093  1.1623  3.0780 -0.2140
 5567SOL     OW27034   1.496   3.783   2.393  0.4138 -0.4541 -0.4127
 5567SOL    HW127035   1.548   3.750   2.315 -0.1359 -0.0967 -0.9275
 5567SOL    HW227036   1.532   3.872   2.423  1.7101 -1.3498  0.7973
 5568SOL     OW27037   1.906   5.480   1.488 -0.2453  0.2456 -0.3767
 5568SOL    HW127038   1.902   5.580   1.491 -1.4056  0.2199 -0.6574
 5568SOL    HW227039   2.001   5.451   1.481 -0.0840  1.4734 -4.6026
 5569SOL     OW27040   1.638   0.536   2.894 -0.1643  0.0853  0.1815
 5569SOL    HW127041   1.558   0.484   2.863 -0.4011 -0.0064  0.9172
 5569SOL    HW227042   1.698   0.476   2.947  0.5474  0.0816 -0.6108
 5570SOL     OW27043   0.263   9.743   0.224  0.4296  0.4690 -0.4174
 5570SOL    HW127044   0.248   9.736   0.323  1.7336 -0.3574 -0.2647
 5570SOL    HW227045   0.343   9.799   0.207  0.3971  0.3402 -0.9936
 5571SOL     OW27046   0.602   8.288   0.407  0.1089 -0.2219 -0.0551
 5571SOL    HW127047   0.697   8.310   0.385  0.7365 -1.0471  1.7238
 5571SOL    HW227048   0.576   8.202   0.362 -0.9149  1.7234 -3.3292
 5572SOL     OW27049   9.891   6.883   0.199  0.5211 -0.7345  0.0627
 5572SOL    HW127050   9.900   6.896   0.298  1.5370 -0.3833 -0.0766
 5572SOL    HW227051   9.945   6.952   0.151  0.8530 -1.5407 -0.7336
 5573SOL     OW27052   2.481   2.763   1.258 -0.4376 -0.6706  0.3524
 5573SOL    HW127053   2.429   2.845   1.233  0.6548 -0.5795 -1.7688
 5573SOL    HW227054   2.427   2.707   1.321 -1.7825  0.9732  0.7010
 5574SOL     OW27055   3.099   0.258   1.063 -0.3494 -0.1025  1.0641
 5574SOL    HW127056   3.057   0.345   1.038 -0.0959 -0.5331 -0.9586
 5574SOL    HW227057   3.141   0.266   1.154  2.9001  3.0759 -0.5454
 5575SOL     OW27058   3.984   8.598   0.094 -0.4968 -0.6010 -0.0050
 5575SOL    HW127059   3.993   8.644   0.006 -0.9380 -2.0439 -0.8315
 5575SOL    HW227060   4.027   8.508   0.089 -1.0753 -0.9497  1.0684
 5576SOL     OW27061   2.415   2.800   2.587  0.3999 -0.0674  0.8777
 5576SOL    HW127062   2.362   2.717   2.605  0.6761 -0.6201 -0.7062
 5576SOL    HW227063   2.354   2.879   2.583  0.2992  0.0232  3.7220
 5577SOL     OW27064   0.795   1.529   3.373 -0.3852 -0.0956  0.4343
 5577SOL    HW127065   0.893   1.512   3.370 -0.4811 -0.8397  1.2498
 5577SOL    HW227066   0.750   1.474   3.303 -0.2738 -0.1323  0.3915
 5578SOL     OW27067   2.069   5.264   2.597  0.0434  0.5686  0.0625
 5578SOL    HW127068   2.008   5.187   2.584 -0.0670  0.8463 -1.0868
 5578SOL    HW227069   2.017   5.343   2.629  0.2592 -0.0010  1.9365
 5579SOL     OW27070   9.492   0.914   0.611  0.5108  0.0559  0.5726
 5579SOL    HW127071   9.405   0.914   0.563 -0.8584  2.0816  2.9378
 5579SOL    HW227072   9.478   0.885   0.706  3.1472 -3.8407 -0.1259
 5580SOL     OW27073   1.069   9.371   2.633  0.1670  0.2068 -0.0458
 5580SOL    HW127074   1.125   9.318   2.696  0.9041  2.3341  1.1221
 5580SOL    HW227075   1.128   9.426   2.574 -0.6228  0.6224 -0.4564
 5581SOL     OW27076   1.277   1.231   0.641  0.4909 -0.6282 -0.1083
 5581SOL    HW127077   1.316   1.139   0.643 -0.2754 -0.9351  0.7597
 5581SOL    HW227078   1.194   1.234   0.697  1.6021  1.0729  1.5000
 5582SOL     OW27079   8.836   7.890   2.277 -0.5462 -0.1199 -0.1331
 5582SOL    HW127080   8.869   7.936   2.359 -1.5472 -1.4048  1.0167
 5582SOL    HW227081   8.899   7.816   2.252  0.1633  0.7668 -0.9786
 5583SOL     OW27082   7.922   9.042   1.543  0.4788 -0.0238  0.0706
 5583SOL    HW127083   7.917   8.999   1.633  0.4647 -0.6432 -0.2216
 5583SOL    HW227084   7.863   8.993   1.479  0.9923  0.0112 -0.4385
 5584SOL     OW27085   9.868   7.580   3.342 -0.4505 -0.1477 -0.3900
 5584SOL    HW127086   9.787   7.523   3.359 -0.7907  0.2225 -0.7253
 5584SOL    HW227087   9.838   7.674   3.324  0.0039 -0.1564 -1.2082
 5585SOL     OW27088   8.268   0.290   0.232  0.0624  0.4320  0.6894
 5585SOL    HW127089   8.240   0.311   0.139  1.0520 -0.0449  0.2776
 5585SOL    HW227090   8.283   0.375   0.282  0.6373  0.6899  0.0779
 5586SOL     OW27091   4.545   0.189   1.572 -0.2255 -1.1533  0.2798
 5586SOL    HW127092   4.595   0.180   1.658 -0.3440  1.2759  0.6481
 5586SOL    HW227093   4.450   0.161   1.586 -0.0685 -1.4586  0.7468
 5587SOL     OW27094   7.627   0.313   2.852 -0.1008  0.1847 -0.1064
 5587SOL    HW127095   7.574   0.363   2.783 -0.4152 -0.3316 -0.2449
 5587SOL    HW227096   7.648   0.221   2.817 -0.1015 -0.0099  0.4062
 5588SOL     OW27097   3.557   4.569   0.160 -0.3886 -0.3223 -0.0838
 5588SOL    HW127098   3.621   4.567   0.237 -0.0208 -0.3107 -0.3858
 5588SOL    HW227099   3.465   4.587   0.194 -0.2546 -0.4656  0.3702
 5589SOL     OW27100   0.147   3.423   1.375 -0.0539  0.2149  0.1691
 5589SOL    HW127101   0.104   3.364   1.307  0.6806 -0.5676  0.3763
 5589SOL    HW227102   0.211   3.485   1.331  0.4733 -0.3392  0.1523
 5590SOL     OW27103   1.585   9.739   0.691  0.1612  0.5625  0.1097
 5590SOL    HW127104   1.535   9.816   0.730  0.2923 -0.1476  1.7414
 5590SOL    HW227105   1.533   9.700   0.615  0.4974  2.7685 -1.2546
 5591SOL     OW27106   2.622   2.080   0.400  0.8393 -0.1322  0.1391
 5591SOL    HW127107   2.529   2.098   0.367  0.6282 -0.6158  0.4741
 5591SOL    HW227108   2.669   2.167   0.414 -0.1352  0.1868  1.6041
 5592SOL     OW27109   0.863   1.052   2.931 -0.4718 -0.7890 -0.1563
 5592SOL    HW127110   0.869   1.103   3.017 -1.6494  1.7859 -1.5513
 5592SOL    HW227111   0.954   1.026   2.901  0.1394  0.4010  0.6458
 5593SOL     OW27112   2.904   4.304   1.964 -0.1524 -0.4491 -1.0245
 5593SOL    HW127113   2.845   4.252   2.025  0.1472 -0.7844 -1.0181
 5593SOL    HW227114   2.968   4.242   1.918 -1.8969 -0.5448 -3.4366
 5594SOL     OW27115   2.380   3.569   3.376  0.1955 -0.4691  0.0905
 5594SOL    HW127116   2.437   3.648   3.399  0.9980 -1.0080 -0.0052
 5594SOL    HW227117   2.434   3.505   3.321 -0.4338 -1.1007  0.2099
 5595SOL     OW27118   1.438   1.374   3.176 -0.2742 -0.2731  0.3626
 5595SOL    HW127119   1.505   1.315   3.131 -2.8931 -0.5153 -3.3947
 5595SOL    HW227120   1.450   1.468   3.147 -1.4592 -0.2954 -0.2386
 5596SOL     OW27121   9.257   8.929   3.424 -0.7362 -0.3199  0.4902
 5596SOL    HW127122   9.233   8.925   3.327  0.1951 -0.7670  0.2804
 5596SOL    HW227123   9.249   9.023   3.456  1.0661  0.1976 -0.5488
 5597SOL     OW27124   0.914   3.609   0.879  0.9693  0.0750 -0.3360
 5597SOL    HW127125   0.974   3.661   0.940 -1.4231  1.6682  0.7893
 5597SOL    HW227126   0.868   3.672   0.816 -0.2661 -0.9328 -0.4754
 5598SOL     OW27127   0.323   7.210   0.496 -0.2927 -0.2093  0.2500
 5598SOL    HW127128   0.277   7.216   0.408 -1.9179 -0.6276  1.0426
 5598SOL    HW227129   0.395   7.140   0.491 -0.3432 -0.2014 -0.7324
 5599SOL     OW27130   4.217   4.076   1.391 -0.3797 -0.0453 -0.2331
 5599SOL    HW127131   4.281   4.112   1.323 -0.1762 -0.7116 -0.3962
 5599SOL    HW227132   4.123   4.087   1.357 -0.2251 -1.6825 -1.2865
 5600SOL     OW27133   3.464   6.116   0.233  0.0089  0.1886 -0.0090
 5600SOL    HW127134   3.525   6.113   0.154  2.4777  0.8669  1.7937
 5600SOL    HW227135   3.373   6.084   0.207  0.9910 -0.3682 -2.8987
 5601SOL     OW27136   0.137   4.689   0.663 -0.7305 -0.2169 -0.2521
 5601SOL    HW127137   0.205   4.696   0.591  0.4601 -0.2394  0.8530
 5601SOL    HW227138   0.092   4.778   0.675  1.1560  0.5882  0.9871
 5602SOL     OW27139   3.571   7.675   1.261  0.0686 -0.3014  0.2915
 5602SOL    HW127140   3.605   7.727   1.183 -0.4089  0.2979  0.4797
 5602SOL    HW227141   3.476   7.701   1.279 -0.0026 -0.8569  0.7104
 5603SOL     OW27142   9.242   8.747   2.810 -0.4380 -0.6974 -0.1918
 5603SOL    HW127143   9.278   8.654   2.815  0.1981 -0.3855  1.0896
 5603SOL    HW227144   9.185   8.755   2.728  0.2146 -1.9581 -0.8012
 5604SOL     OW27145   3.779   0.958   2.618  0.2514  0.2352 -0.1594
 5604SOL    HW127146   3.761   0.944   2.520  1.2795 -0.4717 -0.2525
 5604SOL    HW227147   3.858   0.904   2.645 -0.1676  0.2545  1.1231
 5605SOL     OW27148   9.557   5.937   1.360 -0.2516 -0.2207  0.1810
 5605SOL    HW127149   9.542   6.000   1.284  1.4382 -1.1345 -0.9218
 5605SOL    HW227150   9.654   5.938   1.386 -0.5585 -0.9866  1.3919
 5606SOL     OW27151   1.557   9.830   1.399  0.0962  0.4169  0.0228
 5606SOL    HW127152   1.570   9.779   1.484  0.0941  0.7826  0.2434
 5606SOL    HW227153   1.552   9.927   1.419 -0.2453  0.4782 -0.3656
 5607SOL     OW27154   2.441   9.056   2.647 -0.1147  0.1740 -0.3618
 5607SOL    HW127155   2.509   8.983   2.658 -1.5422 -0.9910  0.9923
 5607SOL    HW227156   2.390   9.042   2.562  0.2259  0.1205 -0.5581
 5608SOL     OW27157   4.191   8.203   0.907  0.0046  0.0625 -0.1504
 5608SOL    HW127158   4.141   8.118   0.921 -0.2445  0.4378  1.2992
 5608SOL    HW227159   4.130   8.281   0.922  0.7992  0.5098  0.7727
 5609SOL     OW27160   8.198   8.989   1.493 -0.3525 -0.0011 -0.4265
 5609SOL    HW127161   8.214   8.891   1.506  1.2493  0.4411  0.9348
 5609SOL    HW227162   8.118   9.017   1.546  1.3963  0.1711  2.1590
 5610SOL     OW27163   1.593   7.364   3.316 -0.1232  0.0394  0.3222
 5610SOL    HW127164   1.522   7.308   3.359  0.2455 -0.2621  0.5445
 5610SOL    HW227165   1.555   7.454   3.292 -0.3762  0.1455  1.1165
 5611SOL     OW27166   1.603   7.259   0.177  0.4480 -0.2999  0.1926
 5611SOL    HW127167   1.600   7.322   0.255 -1.2047 -1.6458  1.2696
 5611SOL    HW227168   1.522   7.275   0.119  1.0124 -0.1611 -0.5600
 5612SOL     OW27169   3.899   2.447   2.343 -0.0778 -0.5799  0.0465
 5612SOL    HW127170   3.932   2.490   2.426 -0.8704  0.3009 -0.0879
 5612SOL    HW227171   3.862   2.357   2.365 -2.5036  0.6244  1.0555
 5613SOL     OW27172   8.426   6.796   2.910  0.2657  0.1091 -0.7230
 5613SOL    HW127173   8.352   6.806   2.977 -0.0217  0.0312 -1.0286
 5613SOL    HW227174   8.488   6.874   2.918  0.2185  0.1145 -0.3840
 5614SOL     OW27175   2.232   4.204   2.745  0.2511  0.2742 -0.0743
 5614SOL    HW127176   2.207   4.300   2.753  0.5635  0.3166  0.3886
 5614SOL    HW227177   2.298   4.192   2.671  0.0948  0.3935 -0.2320
 5615SOL     OW27178   1.548   2.585   3.257 -0.2771  0.3786 -0.2235
 5615SOL    HW127179   1.560   2.609   3.353 -2.2400  0.2653  0.0873
 5615SOL    HW227180   1.483   2.649   3.215 -1.9195 -1.4969 -0.6132
 5616SOL     OW27181   0.108   6.527   2.313 -0.0945 -0.1875 -0.8741
 5616SOL    HW127182   0.043   6.487   2.377 -1.2037  0.7329 -1.3914
 5616SOL    HW227183   0.069   6.526   2.221  0.6493  0.3204 -1.2036
 5617SOL     OW27184   9.085   6.882   2.139 -0.3340 -0.9873 -0.0081
 5617SOL    HW127185   9.002   6.831   2.161 -0.1381 -0.2728  2.6358
 5617SOL    HW227186   9.158   6.856   2.202  1.1136 -0.7098 -1.5220
 5618SOL     OW27187   4.231   9.243   1.658 -0.2336  0.2990  0.3298
 5618SOL    HW127188   4.154   9.185   1.683 -0.4835  1.2454  1.7674
 5618SOL    HW227189   4.316   9.193   1.670 -0.5760 -0.6093 -0.8712
 5619SOL     OW27190   8.867   2.368   0.834  0.1982  0.2084  0.0427
 5619SOL    HW127191   8.802   2.441   0.812  1.2271  0.8454 -0.9525
 5619SOL    HW227192   8.893   2.320   0.750  1.3228  0.2265  0.3778
 5620SOL     OW27193   9.128   0.645   2.544  0.0757 -0.3025  0.4039
 5620SOL    HW127194   9.199   0.603   2.601  1.2763  0.3337 -0.5932
 5620SOL    HW227195   9.096   0.579   2.476  1.0654 -0.0258 -0.3490
 5621SOL     OW27196   0.190   4.919   0.955 -0.4503 -0.1951  0.5807
 5621SOL    HW127197   0.210   5.016   0.968  0.1894  0.1708 -2.7657
 5621SOL    HW227198   0.274   4.866   0.966 -0.1029  0.0164 -0.9177
 5622SOL     OW27199   8.819   4.748   2.901 -0.5178 -0.1296 -0.4849
 5622SOL    HW127200   8.900   4.690   2.904 -0.0895  0.5284  1.1437
 5622SOL    HW227201   8.758   4.724   2.976  0.3624  2.4745  1.1302
 5623SOL     OW27202   0.545   1.445   2.084 -0.0997 -0.0170 -0.5336
 5623SOL    HW127203   0.545   1.406   2.176 -1.4545  2.6242  0.6381
 5623SOL    HW227204   0.639   1.461   2.054  0.3379 -0.5642  0.5401
 5624SOL     OW27205   8.434   0.794   0.237 -0.1704  0.7046 -0.3162
 5624SOL    HW127206   8.378   0.872   0.208 -0.1271  0.2131 -1.7517
 5624SOL    HW227207   8.513   0.785   0.177  0.0980 -0.1509  0.1475
 5625SOL     OW27208   2.601   7.793   3.409 -0.1893 -0.6790 -0.3720
 5625SOL    HW127209   2.645   7.746   3.333  0.3785  2.1604 -1.8625
 5625SOL    HW227210   2.512   7.829   3.380 -1.1328 -1.8020  1.0756
 5626SOL     OW27211   1.097   9.029   3.412 -0.0656 -0.0910 -0.3506
 5626SOL    HW127212   1.004   8.991   3.409 -1.4129  3.0817 -0.2339
 5626SOL    HW227213   1.114   9.068   3.502  1.5048 -0.8593 -0.3019
 5627SOL     OW27214   3.464   1.163   2.445 -0.2107  0.8164  0.4722
 5627SOL    HW127215   3.463   1.070   2.483  0.1345  0.6627  0.1008
 5627SOL    HW227216   3.374   1.183   2.407  0.2184 -0.0019 -0.9952
 5628SOL     OW27217   2.254   9.798   3.232 -0.3198  0.0868  0.3260
 5628SOL    HW127218   2.193   9.799   3.153 -0.9481 -1.0624  0.7824
 5628SOL    HW227219   2.343   9.836   3.206  0.2488 -2.3649 -1.5646
 5629SOL     OW27220   2.452   4.241   2.206  0.0111 -0.5453  0.4480
 5629SOL    HW127221   2.385   4.285   2.266  0.3081 -0.1331  0.4785
 5629SOL    HW227222   2.454   4.143   2.224  0.0736 -0.4257  1.0779
 5630SOL     OW27223   9.718   0.792   1.240 -0.2109  0.1529 -0.3338
 5630SOL    HW127224   9.788   0.724   1.217 -0.0169  0.6427 -1.2192
 5630SOL    HW227225   9.650   0.796   1.167 -2.0510 -1.4483  1.2567
 5631SOL     OW27226   1.271   9.730   0.938 -0.7347  0.0402 -0.0323
 5631SOL    HW127227   1.350   9.732   0.999 -1.0335 -0.5682  0.3831
 5631SOL    HW227228   1.301   9.706   0.845 -0.5710 -1.3243  0.3624
 5632SOL     OW27229   3.784   6.058   3.092  0.2541 -0.0940 -0.1569
 5632SOL    HW127230   3.697   6.106   3.078  0.5388  1.4422  2.7972
 5632SOL    HW227231   3.854   6.098   3.034 -0.3606  0.5909 -0.4345
 5633SOL     OW27232   3.312   4.568   1.144  0.3797  0.0560 -0.3973
 5633SOL    HW127233   3.213   4.573   1.162  0.1587 -0.1358 -1.5592
 5633SOL    HW227234   3.337   4.639   1.078  1.5693  2.1948  2.2614
 5634SOL     OW27235   1.880   3.275   0.040  0.5450 -0.6269 -0.3936
 5634SOL    HW127236   1.818   3.216   0.092 -0.0048  1.8760  1.9008
 5634SOL    HW227237   1.972   3.268   0.077  0.4196  0.1641  0.0750
 5635SOL     OW27238   3.998   3.655   1.884  0.0283 -0.2111  0.3061
 5635SOL    HW127239   4.026   3.627   1.975 -1.2901  0.4000  0.9214
 5635SOL    HW227240   3.901   3.681   1.886 -0.0539 -0.3648 -1.3015
 5636SOL     OW27241   2.204   9.039   0.552 -0.5475  0.2896  0.3187
 5636SOL    HW127242   2.116   9.039   0.599 -0.7993  1.4479 -0.1446
 5636SOL    HW227243   2.265   8.973   0.596 -1.8994 -1.1076  0.1488
 5637SOL     OW27244   3.031   8.318   1.654 -0.2456  0.6241 -0.2448
 5637SOL    HW127245   2.987   8.322   1.743  1.3342  0.7757  0.5497
 5637SOL    HW227246   3.028   8.224   1.620  1.3118  0.0436  1.1193
 5638SOL     OW27247   5.009   7.653   1.381 -0.3074  0.1313 -0.3850
 5638SOL    HW127248   4.989   7.649   1.479  0.5121 -0.3682 -0.2344
 5638SOL    HW227249   5.011   7.748   1.352 -0.4603  0.2883  0.1061
 5639SOL     OW27250   0.110   9.449   2.891  0.5280  0.2996  0.0601
 5639SOL    HW127251   0.138   9.540   2.921  1.4229  0.3817 -0.9717
 5639SOL    HW227252   0.181   9.383   2.913  0.3194  0.0196 -0.0994
 5640SOL     OW27253   4.253   8.380   1.961 -0.0011  0.1215 -0.1423
 5640SOL    HW127254   4.227   8.462   2.012 -1.6807 -0.2224 -0.4004
 5640SOL    HW227255   4.343   8.393   1.920  0.2022  1.4246  0.6932
 5641SOL     OW27256   4.028   2.033   2.246  0.0385  0.0143 -0.4601
 5641SOL    HW127257   4.052   1.995   2.157  1.3970 -0.1709 -0.0345
 5641SOL    HW227258   4.041   1.963   2.317 -0.1562  0.4284 -0.0056
 5642SOL     OW27259   1.662   2.661   0.929  0.2878 -0.7793  0.4009
 5642SOL    HW127260   1.731   2.589   0.923 -1.4968 -2.4302 -0.6714
 5642SOL    HW227261   1.573   2.621   0.949 -0.4311  1.3206  1.6688
 5643SOL     OW27262   3.074   7.579   1.707  0.1653 -0.1191 -0.4886
 5643SOL    HW127263   3.016   7.558   1.785  0.2284  2.6999  0.3762
 5643SOL    HW227264   3.019   7.622   1.635  0.6581  0.0031 -0.7968
 5644SOL     OW27265   2.166   9.759   2.653  0.2340  0.3784 -0.2751
 5644SOL    HW127266   2.256   9.717   2.637  1.2556  2.7352 -0.8763
 5644SOL    HW227267   2.115   9.762   2.567  0.5084  1.1660 -0.4088
 5645SOL     OW27268   1.200   2.914   1.135 -0.1354  0.3450 -0.0802
 5645SOL    HW127269   1.259   2.886   1.211  0.7301  0.2532 -0.7699
 5645SOL    HW227270   1.251   2.975   1.074 -0.6045 -0.1077 -0.9328
 5646SOL     OW27271   2.604   7.078   2.872 -0.5141  0.6237  0.4631
 5646SOL    HW127272   2.692   7.044   2.907 -0.3944  2.2070  1.7417
 5646SOL    HW227273   2.537   7.003   2.873  0.6980 -0.4837 -0.1086
 5647SOL     OW27274   8.091   7.126   2.029  0.0052 -0.5085  0.0690
 5647SOL    HW127275   8.007   7.168   2.063 -0.3857 -3.0242  2.3345
 5647SOL    HW227276   8.086   7.119   1.929 -2.3118 -0.3468  0.1493
 5648SOL     OW27277   7.641   1.608   0.855  0.2638  0.1839  0.4316
 5648SOL    HW127278   7.584   1.542   0.805 -1.0137  0.8116  1.0462
 5648SOL    HW227279   7.722   1.561   0.890  0.4263 -0.5936 -0.9356
 5649SOL     OW27280   9.663   7.274   2.256  0.1260  0.0496  0.5187
 5649SOL    HW127281   9.620   7.337   2.191 -0.4463  0.7763  1.5843
 5649SOL    HW227282   9.601   7.198   2.275 -0.2600  0.5316  1.2214
 5650SOL     OW27283   2.291   3.780   1.630 -0.6651  0.1348 -0.0465
 5650SOL    HW127284   2.363   3.766   1.698 -0.8985 -0.0803  0.1585
 5650SOL    HW227285   2.232   3.699   1.627 -0.3801 -0.0547 -0.8418
 5651SOL     OW27286   8.158   8.693   1.099  0.3104  0.3005 -0.2421
 5651SOL    HW127287   8.211   8.757   1.154 -1.6002  1.4015  0.3858
 5651SOL    HW227288   8.177   8.708   1.002 -0.8600  2.5605 -0.1614
 5652SOL     OW27289   7.774   7.536   3.248  0.1439 -0.0489 -0.1174
 5652SOL    HW127290   7.689   7.527   3.197  0.4790  0.0252 -0.6913
 5652SOL    HW227291   7.839   7.467   3.216  0.7747  0.7787 -0.6352
 5653SOL     OW27292   4.930   8.173   3.253 -0.5017 -0.8209 -0.0538
 5653SOL    HW127293   4.956   8.268   3.240 -3.4214 -0.1046 -0.9690
 5653SOL    HW227294   4.980   8.135   3.331  0.4860  1.5252  0.5007
 5654SOL     OW27295   2.544   7.307   0.268  0.2291  0.0963 -0.1988
 5654SOL    HW127296   2.512   7.368   0.195 -0.0757 -1.3265 -1.2867
 5654SOL    HW227297   2.515   7.214   0.248  0.3042 -0.3474  1.6723
 5655SOL     OW27298   0.602   4.621   2.600 -0.9004 -0.0584 -0.6206
 5655SOL    HW127299   0.650   4.611   2.687 -1.2054 -0.9041 -0.5467
 5655SOL    HW227300   0.509   4.585   2.609 -1.0680  0.2146 -1.1890
 5656SOL     OW27301   1.801   5.018   1.538 -0.1546 -0.2037 -0.2265
 5656SOL    HW127302   1.713   5.062   1.552 -0.3788 -0.1705 -1.7222
 5656SOL    HW227303   1.809   4.940   1.600  0.1772  1.7771  2.3319
 5657SOL     OW27304   1.138   8.637   2.121  0.1432  0.1404 -0.0392
 5657SOL    HW127305   1.100   8.695   2.049 -1.5688 -0.3492  0.4403
 5657SOL    HW227306   1.129   8.541   2.094  2.4475  0.0633 -0.5869
 5658SOL     OW27307   3.231   7.812   0.688 -0.4051  0.0616 -0.2526
 5658SOL    HW127308   3.309   7.827   0.627 -1.1769 -0.3802 -1.3599
 5658SOL    HW227309   3.265   7.784   0.778  0.6837 -1.2254 -1.0436
 5659SOL     OW27310   2.379   6.358   2.968  0.3851 -0.4507  0.6319
 5659SOL    HW127311   2.399   6.366   2.870 -0.2424 -1.4140  0.4168
 5659SOL    HW227312   2.327   6.274   2.985  0.5378 -0.3247  1.8012
 5660SOL     OW27313   9.571   8.668   1.981  0.6286  0.2404 -0.4346
 5660SOL    HW127314   9.669   8.650   1.986  0.6155 -0.0432 -1.1111
 5660SOL    HW227315   9.521   8.581   1.982  0.3584  0.4020  0.4323
 5661SOL     OW27316   0.894   5.638   0.465 -0.1897 -0.0550  0.3647
 5661SOL    HW127317   0.948   5.599   0.540  2.0173  1.6921 -0.2714
 5661SOL    HW227318   0.917   5.735   0.454  0.9277 -0.6929 -3.7414
 5662SOL     OW27319   8.443   0.458   1.058  0.0404  0.4287 -0.2823
 5662SOL    HW127320   8.486   0.397   1.124 -1.1697 -0.8289 -0.6269
 5662SOL    HW227321   8.498   0.541   1.047  1.2890 -0.2558  0.7788
 5663SOL     OW27322   1.907   5.524   2.882 -0.0467 -0.5225  0.4761
 5663SOL    HW127323   1.837   5.593   2.871 -2.3662 -2.9932 -0.7694
 5663SOL    HW227324   1.953   5.507   2.795  1.2080  0.1055  0.9891
 5664SOL     OW27325   3.718   8.706   0.357  0.0686  0.1502 -0.3498
 5664SOL    HW127326   3.815   8.697   0.379 -0.2104  0.0595  0.8470
 5664SOL    HW227327   3.707   8.772   0.283  1.0120  0.4269 -0.2513
 5665SOL     OW27328   4.147   2.054   1.208  0.0107  0.6385 -0.0985
 5665SOL    HW127329   4.164   2.005   1.293  0.9691 -1.1331 -1.2768
 5665SOL    HW227330   4.061   2.024   1.168  0.5740 -0.0609 -0.7986
 5666SOL     OW27331   0.449   2.699   2.380 -0.4676  0.1104 -0.4014
 5666SOL    HW127332   0.396   2.783   2.369 -1.7112 -0.6372 -0.1548
 5666SOL    HW227333   0.546   2.718   2.360 -1.0330  1.1528 -2.2293
 5667SOL     OW27334   3.057   5.105   3.221 -0.0449  0.2724 -0.1655
 5667SOL    HW127335   2.968   5.127   3.181 -1.0526  0.2713  2.0050
 5667SOL    HW227336   3.074   5.007   3.214 -0.6263  0.1404  0.1895
 5668SOL     OW27337   0.634   0.230   2.693 -0.4791 -0.2371 -0.0788
 5668SOL    HW127338   0.593   0.209   2.782 -0.3077  3.0334  0.8289
 5668SOL    HW227339   0.562   0.241   2.625 -0.7496 -0.6510  0.1420
 5669SOL     OW27340   2.188   7.160   0.541 -0.1093  0.0137 -0.3394
 5669SOL    HW127341   2.212   7.078   0.491  0.9657  0.2197 -0.1645
 5669SOL    HW227342   2.243   7.237   0.509  1.4580 -0.1123  1.9650
 5670SOL     OW27343   2.629   0.272   0.278 -0.4995  0.2339 -0.2149
 5670SOL    HW127344   2.592   0.273   0.185  0.0591 -0.3157 -0.4435
 5670SOL    HW227345   2.559   0.240   0.341 -0.8053  0.3813 -0.4760
 5671SOL     OW27346   3.276   3.305   1.062  0.0875 -0.1219  0.0292
 5671SOL    HW127347   3.304   3.400   1.048  1.3784 -0.2395  1.6168
 5671SOL    HW227348   3.179   3.295   1.039  0.2298  1.3109 -1.2608
 5672SOL     OW27349   8.311   0.161   1.630  0.2198  0.2621  0.2549
 5672SOL    HW127350   8.278   0.087   1.690  0.9022  0.5718  1.0289
 5672SOL    HW227351   8.388   0.127   1.576 -1.1922 -0.3910 -1.3795
 5673SOL     OW27352   0.148   8.069   0.101 -0.3060  0.2295 -0.2002
 5673SOL    HW127353   0.081   8.142   0.114 -0.7171  0.1198 -1.5824
 5673SOL    HW227354   0.170   8.061   0.003  1.8548  0.3911  0.2436
 5674SOL     OW27355   9.167   7.116   0.386 -0.6762  0.7371 -0.5666
 5674SOL    HW127356   9.266   7.126   0.392 -0.8200  2.8487 -1.4972
 5674SOL    HW227357   9.131   7.092   0.476  0.3622  3.0157  0.4976
 5675SOL     OW27358   6.382   9.635   2.472 -0.6401 -0.1103  0.5802
 5675SOL    HW127359   6.455   9.704   2.464 -1.4888  0.4833 -2.7792
 5675SOL    HW227360   6.414   9.549   2.433 -1.5026 -0.0295 -0.3146
 5676SOL     OW27361   2.441   3.268   1.421 -0.2980  0.2228  0.2451
 5676SOL    HW127362   2.440   3.355   1.470 -2.4493  0.3141  0.0750
 5676SOL    HW227363   2.495   3.202   1.472 -1.1547  0.7872  1.9270
 5677SOL     OW27364   7.675   1.138   2.311  0.4386 -1.0996  1.2664
 5677SOL    HW127365   7.591   1.105   2.267  1.0793 -0.1803 -0.7115
 5677SOL    HW227366   7.744   1.066   2.310  1.3465 -0.2402 -1.7254
 5678SOL     OW27367   8.903   0.707   0.757  0.1441  0.2304 -0.3216
 5678SOL    HW127368   8.956   0.791   0.774  1.0004 -0.1050 -1.2647
 5678SOL    HW227369   8.961   0.640   0.711 -1.1650 -0.0566 -1.6223
 5679SOL     OW27370   4.765   2.713   1.155 -0.1179 -0.0214  0.1267
 5679SOL    HW127371   4.789   2.654   1.232 -1.9378 -0.4262  0.3990
 5679SOL    HW227372   4.828   2.696   1.079  1.2238 -0.1524  1.2474
 5680SOL     OW27373   2.651   7.556   0.809  0.4122 -0.0971  0.2167
 5680SOL    HW127374   2.646   7.532   0.906  1.1871 -0.3161  0.2045
 5680SOL    HW227375   2.714   7.633   0.797  1.1894 -0.8057 -0.2467
 5681SOL     OW27376   4.822   7.926   1.028 -0.2708  0.0918  0.5579
 5681SOL    HW127377   4.857   7.833   1.018  0.3698  0.3309  0.5800
 5681SOL    HW227378   4.723   7.923   1.042 -0.5042 -0.5011 -1.1444
 5682SOL     OW27379   2.134   6.896   0.142 -0.1669 -0.6126 -0.0363
 5682SOL    HW127380   2.153   6.987   0.104 -1.5785 -0.8323 -1.3087
 5682SOL    HW227381   2.037   6.875   0.131  0.5354 -3.1364 -1.6913
 5683SOL     OW27382   4.168   2.829   1.656 -0.1561 -0.1394 -0.2398
 5683SOL    HW127383   4.159   2.910   1.714  1.2201  0.0118 -0.2280
 5683SOL    HW227384   4.082   2.812   1.609 -0.4409  1.3461 -0.2608
 5684SOL     OW27385   9.856   2.736   0.367 -0.2219 -0.1729 -0.2582
 5684SOL    HW127386   9.762   2.733   0.400 -0.1820 -0.3009 -0.1529
 5684SOL    HW227387   9.906   2.657   0.403  0.3005  0.6390  0.8168
 5685SOL     OW27388   1.025   6.654   3.084 -0.3971  0.0219 -0.2393
 5685SOL    HW127389   1.007   6.751   3.071 -1.2186  0.0169  0.7944
 5685SOL    HW227390   0.943   6.609   3.119  0.4109 -0.7615  0.7072
 5686SOL     OW27391   8.962   5.612   1.013 -0.1714  0.4366 -0.0299
 5686SOL    HW127392   8.945   5.638   0.918 -0.4001 -2.2173 -0.7597
 5686SOL    HW227393   9.001   5.690   1.062  0.5583  1.6754 -2.4602
 5687SOL     OW27394   2.090   9.092   3.325 -0.1824  0.2236  0.4458
 5687SOL    HW127395   2.086   8.994   3.305  0.5355  0.0152  1.3059
 5687SOL    HW227396   2.074   9.143   3.241  2.1430 -0.6472 -0.5956
 5688SOL     OW27397   8.073   7.110   1.760  0.1969 -0.1320 -0.0968
 5688SOL    HW127398   8.068   7.015   1.730  1.4478 -0.4711  0.7169
 5688SOL    HW227399   8.122   7.165   1.693  1.1788 -0.4668  0.3388
 5689SOL     OW27400   9.151   8.660   0.393 -0.8978 -0.3036  0.2576
 5689SOL    HW127401   9.206   8.618   0.465 -2.4885 -0.6296  1.3199
 5689SOL    HW227402   9.093   8.590   0.351 -0.4887  0.0260 -0.8421
 5690SOL     OW27403   4.558   8.390   0.666  1.0452  0.5446 -0.1663
 5690SOL    HW127404   4.584   8.355   0.756  1.7363 -2.2207 -1.3916
 5690SOL    HW227405   4.493   8.465   0.677  0.6634 -0.1354  2.6218
 5691SOL     OW27406   2.965   2.513   2.716  0.9984 -0.3592  0.1119
 5691SOL    HW127407   2.989   2.439   2.654 -0.0443 -1.0194  0.4891
 5691SOL    HW227408   3.001   2.493   2.807 -0.1041 -0.8848  0.4460
 5692SOL     OW27409   2.542   9.809   1.980  0.0623  0.5552  0.4134
 5692SOL    HW127410   2.531   9.836   2.075  0.2920  1.4497  0.1934
 5692SOL    HW227411   2.529   9.889   1.921  0.5246  0.1377 -0.2640
 5693SOL     OW27412   9.839   7.176   2.001 -0.4612 -0.6366 -0.0952
 5693SOL    HW127413   9.875   7.194   2.092  0.3608 -2.5220 -0.0264
 5693SOL    HW227414   9.746   7.211   1.994  0.2891  1.5784  0.7086
 5694SOL     OW27415   7.981   6.384   1.586 -0.1111  0.1293  0.2274
 5694SOL    HW127416   7.942   6.316   1.648 -1.5205  0.9245  0.2424
 5694SOL    HW227417   7.955   6.476   1.616  0.8746  0.6172 -0.3953
 5695SOL     OW27418   0.326   3.627   0.377  0.8851  0.0781 -0.2303
 5695SOL    HW127419   0.398   3.663   0.318  1.4908  0.3007  0.6546
 5695SOL    HW227420   0.252   3.694   0.386  0.3796 -0.2959 -1.4396
 5696SOL     OW27421   4.700   2.694   0.762  0.0577 -0.3450  0.1290
 5696SOL    HW127422   4.637   2.632   0.809 -1.6144  0.4765 -1.0004
 5696SOL    HW227423   4.787   2.695   0.810 -0.2865 -2.6511  0.8610
 5697SOL     OW27424   9.634   0.778   0.366 -0.6275  0.6980 -0.0973
 5697SOL    HW127425   9.637   0.695   0.423 -0.0288  1.3159  0.7840
 5697SOL    HW227426   9.559   0.837   0.398 -1.5379  0.1584 -1.2096
 5698SOL     OW27427   2.747   7.495   1.582 -0.3894 -0.3317  0.0418
 5698SOL    HW127428   2.702   7.473   1.495 -0.0788 -1.5547  0.1760
 5698SOL    HW227429   2.804   7.418   1.610 -0.1240  0.2409  1.1022
 5699SOL     OW27430   4.277   3.092   0.198  0.2083 -0.5649 -0.4124
 5699SOL    HW127431   4.312   3.037   0.274 -0.2905 -0.1999  0.0821
 5699SOL    HW227432   4.188   3.057   0.170 -0.1104 -0.0051 -0.0946
 5700SOL     OW27433   3.459   9.167   0.429 -0.0286  0.3222  0.6281
 5700SOL    HW127434   3.536   9.208   0.381 -1.0608  0.2936 -1.0791
 5700SOL    HW227435   3.390   9.137   0.363 -1.9455  1.2331  2.1600
 5701SOL     OW27436   1.701   8.619   2.431 -0.3113  0.2630  0.2039
 5701SOL    HW127437   1.727   8.621   2.334 -3.1929  1.1869 -0.6193
 5701SOL    HW227438   1.625   8.554   2.443 -0.2409  0.4683  1.7604
 5702SOL     OW27439   0.049   6.477   2.614  0.3128 -0.0106 -0.2467
 5702SOL    HW127440   0.023   6.470   2.710  0.6527 -0.2080 -0.1691
 5702SOL    HW227441  -0.021   6.435   2.557 -0.4280  1.0871 -0.1611
 5703SOL     OW27442   0.221   0.799   0.429  0.5209 -0.1137 -0.1599
 5703SOL    HW127443   0.279   0.720   0.447  0.3225 -0.1252  0.4402
 5703SOL    HW227444   0.278   0.877   0.403  0.8603  0.0206  0.9335
 5704SOL     OW27445   5.082   9.847   3.085 -0.6150  0.5926  0.2439
 5704SOL    HW127446   5.024   9.799   3.019  0.6104 -3.0032  1.6893
 5704SOL    HW227447   5.025   9.881   3.160 -1.1012 -1.2668  0.7233
 5705SOL     OW27448   0.402   9.656   1.193  0.2896 -0.0281 -0.5636
 5705SOL    HW127449   0.487   9.701   1.165 -0.8176  0.5846 -3.1083
 5705SOL    HW227450   0.342   9.723   1.237 -0.7908  0.6895 -3.0859
 5706SOL     OW27451   9.358   7.390   0.719 -0.0603  0.6155  0.3908
 5706SOL    HW127452   9.413   7.461   0.674  0.8171 -0.3733 -0.1363
 5706SOL    HW227453   9.266   7.425   0.737 -0.2875  1.1718 -1.7651
 5707SOL     OW27454   5.853   8.930   2.827 -0.5697 -0.0051  0.1548
 5707SOL    HW127455   5.884   8.929   2.922 -0.3666 -2.7476  0.0963
 5707SOL    HW227456   5.833   8.836   2.798 -2.2470  0.9998 -1.9895
 5708SOL     OW27457   8.423   9.968   2.359 -0.0405  0.4683  0.3929
 5708SOL    HW127458   8.447   9.877   2.394 -1.6207  0.1898  0.7598
 5708SOL    HW227459   8.439  10.035   2.431  0.3605  0.3782  0.3896
 5709SOL     OW27460   0.784   5.618   1.413 -0.0660  0.1015 -0.0390
 5709SOL    HW127461   0.787   5.519   1.421  0.5167  0.2170  1.3432
 5709SOL    HW227462   0.689   5.648   1.407 -0.3193 -0.4511  0.9783
 5710SOL     OW27463   9.123   9.174   2.714  0.4428 -0.4482 -0.0952
 5710SOL    HW127464   9.109   9.233   2.793 -0.5582 -0.4735 -0.2500
 5710SOL    HW227465   9.196   9.212   2.657 -0.2599  0.6838 -0.2412
 5711SOL     OW27466   8.555   1.691   0.159 -0.0701  0.3396  0.5507
 5711SOL    HW127467   8.614   1.650   0.229  0.1679  0.5269  0.4588
 5711SOL    HW227468   8.536   1.786   0.182  0.3384  0.5210  0.1530
 5712SOL     OW27469   0.817   9.461   2.572  0.2464 -0.0984 -0.4905
 5712SOL    HW127470   0.902   9.419   2.602 -0.6888 -1.4174  0.3463
 5712SOL    HW227471   0.790   9.532   2.636 -0.6950 -1.5381  0.7271
 5713SOL     OW27472   9.842   0.463   3.321  0.2319 -0.1324 -0.0705
 5713SOL    HW127473   9.822   0.433   3.227  2.3910 -1.2744 -0.2055
 5713SOL    HW227474   9.758   0.495   3.364 -1.1324 -1.2540 -1.8113
 5714SOL     OW27475   0.125   8.741   2.102  0.4248  0.5618 -0.2351
 5714SOL    HW127476   0.174   8.821   2.067  0.2666  0.2894 -1.0873
 5714SOL    HW227477   0.138   8.664   2.040 -1.2488  0.5438 -0.5823
 5715SOL     OW27478   0.243   3.023   1.691 -0.3990  0.2361 -0.2309
 5715SOL    HW127479   0.184   3.023   1.611 -0.9886  0.2387  0.1994
 5715SOL    HW227480   0.293   2.936   1.696 -0.6872  0.0632 -0.3638
 5716SOL     OW27481   1.504   8.214   0.013  0.5581 -0.4831 -0.2529
 5716SOL    HW127482   1.523   8.290  -0.048 -1.4561 -0.6096 -1.1040
 5716SOL    HW227483   1.431   8.240   0.077  2.4845 -0.4241  1.9907
 5717SOL     OW27484   8.338   9.127   1.993 -1.1469  0.6782 -0.4810
 5717SOL    HW127485   8.432   9.161   1.998  0.0894 -2.4107 -1.4509
 5717SOL    HW227486   8.285   9.184   1.930  0.2898  1.9086 -0.6017
 5718SOL     OW27487   3.773   5.173   0.426  0.9402 -0.4263 -0.3543
 5718SOL    HW127488   3.777   5.081   0.467  2.9016  0.6742  2.0573
 5718SOL    HW227489   3.864   5.199   0.394  1.1515  1.9746  2.0249
 5719SOL     OW27490   9.028   5.557   2.546  0.6011 -0.6729 -0.0960
 5719SOL    HW127491   8.959   5.626   2.523 -0.3357 -1.1018  1.3886
 5719SOL    HW227492   9.032   5.489   2.473  1.2396  0.7055 -1.3778
 5720SOL     OW27493   1.703   7.500   0.818  0.1709 -0.1952  0.2533
 5720SOL    HW127494   1.778   7.468   0.760  0.8603  0.0258  1.0196
 5720SOL    HW227495   1.740   7.549   0.897 -0.7457 -0.8518  1.1063
 5721SOL     OW27496   9.830   6.126   2.482 -0.3224 -0.3276  0.5255
 5721SOL    HW127497   9.884   6.146   2.564 -1.2142 -0.6850  1.2010
 5721SOL    HW227498   9.880   6.060   2.426 -0.1422 -0.8156  1.2531
 5722SOL     OW27499   1.696   5.192   0.946 -0.4062  0.0508  0.6141
 5722SOL    HW127500   1.690   5.155   0.853  1.1890 -1.0377  0.9397
 5722SOL    HW227501   1.629   5.266   0.956 -2.2933 -1.4557 -0.6265
 5723SOL     OW27502   8.745   1.374   3.059 -0.2671 -0.0446 -0.2087
 5723SOL    HW127503   8.658   1.409   3.094  0.1955 -0.5686  1.4949
 5723SOL    HW227504   8.769   1.422   2.974 -0.7567  2.1568  0.8711
 5724SOL     OW27505   3.018   0.139   1.949 -0.1417 -0.3170 -0.7021
 5724SOL    HW127506   2.975   0.049   1.953 -0.1588 -0.2505  1.2002
 5724SOL    HW227507   3.077   0.145   1.869 -0.9149 -1.6664 -1.3847
 5725SOL     OW27508   0.282   7.643   3.225 -0.2911  0.2802  0.1428
 5725SOL    HW127509   0.254   7.720   3.167 -0.8493  0.6436  0.8865
 5725SOL    HW227510   0.201   7.603   3.269  0.3384  1.3055  2.2816
 5726SOL     OW27511   0.537   3.162   3.040 -0.2881  0.3918  0.0789
 5726SOL    HW127512   0.580   3.093   2.981 -0.3864  0.6753 -0.3275
 5726SOL    HW227513   0.555   3.253   3.003 -2.6290  0.4336 -1.0021
 5727SOL     OW27514   3.340   4.014   0.443 -0.2498 -0.5162 -0.3676
 5727SOL    HW127515   3.414   4.076   0.418  1.1209 -2.2756 -0.8269
 5727SOL    HW227516   3.279   4.001   0.366 -1.2376  1.1808  0.1067
 5728SOL     OW27517   8.914   4.508   1.638  0.0410 -0.1646 -0.2681
 5728SOL    HW127518   8.820   4.514   1.671 -0.6391  1.4761 -2.3593
 5728SOL    HW227519   8.918   4.451   1.556  0.9125 -0.4041 -0.0666
 5729SOL     OW27520   7.656   9.995   1.496  0.1469  0.6538  0.6170
 5729SOL    HW127521   7.582  10.024   1.558  0.4068 -1.6876  2.1114
 5729SOL    HW227522   7.690   9.905   1.525  1.0529 -0.0017 -2.2996
 5730SOL     OW27523   1.721   6.684   0.301  0.0837  0.4033 -0.2543
 5730SOL    HW127524   1.641   6.685   0.240 -0.7698 -0.5950  0.8169
 5730SOL    HW227525   1.690   6.674   0.396  1.4645  0.5527  0.2174
 5731SOL     OW27526   0.404   3.464   0.596  0.2088 -0.0767 -0.0497
 5731SOL    HW127527   0.385   3.486   0.500  0.3381  0.6132  0.0809
 5731SOL    HW227528   0.344   3.389   0.625  0.3248 -0.4376 -0.7308
 5732SOL     OW27529   0.870   8.795   0.399 -0.2770 -0.8581  0.2026
 5732SOL    HW127530   0.783   8.749   0.412 -1.2151  1.0039  0.5637
 5732SOL    HW227531   0.897   8.841   0.483 -0.3757  0.9975 -0.7616
 5733SOL     OW27532   3.151   7.180   1.509 -0.2426 -0.1181 -0.0340
 5733SOL    HW127533   3.068   7.207   1.559 -0.6004 -0.6014 -0.3666
 5733SOL    HW227534   3.156   7.231   1.423 -0.5252 -0.5426 -0.3069
 5734SOL     OW27535   0.342   8.665   3.384 -0.1286 -0.1526  0.2417
 5734SOL    HW127536   0.390   8.638   3.301  1.1735  2.4013  0.1099
 5734SOL    HW227537   0.270   8.598   3.404  0.4759 -1.5793 -2.1044
 5735SOL     OW27538   2.094   3.701   3.360  0.2887 -0.2283 -0.1820
 5735SOL    HW127539   2.009   3.650   3.353  0.9620 -1.3863 -0.0442
 5735SOL    HW227540   2.155   3.657   3.426  1.4054  0.0040 -1.0286
 5736SOL     OW27541   0.035   4.278   0.442  0.4895  0.4872  0.5637
 5736SOL    HW127542   0.062   4.372   0.419 -0.0856  0.5181  0.0136
 5736SOL    HW227543  -0.041   4.249   0.383  0.8758 -0.4402  0.5130
 5737SOL     OW27544   3.640   3.646   1.451  0.0893  0.2155  0.0682
 5737SOL    HW127545   3.736   3.675   1.452 -0.3906  1.8091  0.9515
 5737SOL    HW227546   3.636   3.547   1.441  1.9069 -0.1677  2.5316
 5738SOL     OW27547   0.565   5.346   0.753 -0.4431 -0.2832 -0.9832
 5738SOL    HW127548   0.651   5.393   0.775 -0.4087 -1.0217  0.5502
 5738SOL    HW227549   0.493   5.414   0.738 -0.5486  0.2982  1.8444
 5739SOL     OW27550   3.325   9.898   1.984  0.0756  0.5249 -0.7142
 5739SOL    HW127551   3.383   9.918   2.063 -1.6813  0.6747  0.5803
 5739SOL    HW227552   3.266   9.977   1.964 -1.2072 -0.3804 -0.6148
 5740SOL     OW27553   9.442   0.305   1.461  0.4707  0.5735  0.4840
 5740SOL    HW127554   9.492   0.348   1.386  1.2281 -0.4386  0.3873
 5740SOL    HW227555   9.414   0.374   1.528 -1.8749  1.7561 -1.6427
 5741SOL     OW27556   2.329   7.217   1.069  0.4279  0.0482  0.4081
 5741SOL    HW127557   2.422   7.248   1.053  1.0083 -1.6907  0.3167
 5741SOL    HW227558   2.272   7.237   0.989  1.0729 -0.2295 -0.1160
 5742SOL     OW27559   0.942   4.225   1.427  0.1068  0.7581 -0.7946
 5742SOL    HW127560   0.845   4.222   1.402  0.1929 -0.4948 -0.9879
 5742SOL    HW227561   0.951   4.266   1.518 -0.7214 -0.3644 -0.1942
 5743SOL     OW27562   1.077   4.150   0.388 -0.2587  0.6570 -0.2105
 5743SOL    HW127563   1.152   4.191   0.336 -1.0116 -0.1708 -1.9892
 5743SOL    HW227564   1.076   4.188   0.481  1.5859  1.5858 -0.5436
 5744SOL     OW27565   1.665   5.692   1.792 -0.0268 -0.0748  0.1730
 5744SOL    HW127566   1.633   5.680   1.886 -0.8889 -0.6585 -0.1878
 5744SOL    HW227567   1.719   5.613   1.764 -0.5910 -0.3544 -0.1456
 5745SOL     OW27568   3.117   3.403   1.524  0.2905 -0.3077  0.6007
 5745SOL    HW127569   3.193   3.426   1.463 -0.3214  0.0172 -0.0438
 5745SOL    HW227570   3.085   3.311   1.503 -0.1440 -0.0675  0.1896
 5746SOL     OW27571   7.998   9.844   1.843  0.9356  0.3596 -0.4650
 5746SOL    HW127572   8.021   9.869   1.749  0.4004  1.4584 -0.3100
 5746SOL    HW227573   8.052   9.899   1.906 -0.5702  1.4651 -0.1124
 5747SOL     OW27574   3.017   6.366   2.348  0.0988 -0.2159  0.4828
 5747SOL    HW127575   2.925   6.332   2.333  0.3506 -0.7946  0.2296
 5747SOL    HW227576   3.071   6.297   2.395 -0.4193  1.2239  3.2785
 5748SOL     OW27577   3.600   2.338   1.087  0.3266  1.1295  0.5276
 5748SOL    HW127578   3.597   2.255   1.144  0.2241  1.4348  0.9717
 5748SOL    HW227579   3.508   2.359   1.054  0.5678  0.3082 -0.6956
 5749SOL     OW27580   2.541   9.093   1.161  0.0817  0.1404  0.3183
 5749SOL    HW127581   2.444   9.096   1.184  0.2977  0.6988  1.1786
 5749SOL    HW227582   2.557   9.144   1.076 -0.3852 -0.0352  0.1237
 5750SOL     OW27583   8.735   3.686   1.164 -0.0087 -0.1559  0.2611
 5750SOL    HW127584   8.643   3.652   1.181  0.1207 -0.0984  1.0887
 5750SOL    HW227585   8.801   3.618   1.196  0.2397 -0.1069 -0.1432
 5751SOL     OW27586   0.999   8.553   0.446  0.4271  0.3490  0.2641
 5751SOL    HW127587   0.963   8.532   0.537 -3.0970 -0.2939 -1.1924
 5751SOL    HW227588   0.976   8.647   0.421  1.6391  0.6202  0.1378
 5752SOL     OW27589   1.888   3.803   1.574  0.6524  0.0284  0.2790
 5752SOL    HW127590   1.789   3.803   1.586  0.3551  0.4253 -1.9083
 5752SOL    HW227591   1.916   3.715   1.535  1.1631 -0.0569  0.8329
 5753SOL     OW27592   4.666   3.349   1.508 -0.0736 -0.0265  0.3944
 5753SOL    HW127593   4.710   3.382   1.425 -1.1567  1.0877  0.2351
 5753SOL    HW227594   4.605   3.273   1.485  0.8361 -0.7768  0.4308
 5754SOL     OW27595   9.035   2.309   0.081  0.7775  0.0256  0.1205
 5754SOL    HW127596   9.051   2.408   0.081 -0.0512  0.1733 -0.8469
 5754SOL    HW227597   9.052   2.273   0.172  0.4702  1.1748  0.6504
 5755SOL     OW27598   1.653   1.411   2.651  0.4264 -0.4118  0.2145
 5755SOL    HW127599   1.601   1.326   2.654 -0.1790 -0.0728 -0.4378
 5755SOL    HW227600   1.604   1.482   2.701 -0.2453  0.1675 -1.2216
 5756SOL     OW27601   0.832   7.967   0.706  0.4269 -0.1425  0.3724
 5756SOL    HW127602   0.931   7.962   0.715  0.5588  0.4474 -0.6399
 5756SOL    HW227603   0.804   7.919   0.623 -0.0772  0.1857  0.3520
 5757SOL     OW27604   4.079   0.670   0.186  0.3215 -0.4225  0.3287
 5757SOL    HW127605   4.004   0.730   0.212 -0.0896 -0.8123  0.0510
 5757SOL    HW227606   4.165   0.708   0.218 -0.0180 -0.0836  0.8368
 5758SOL     OW27607   3.944   2.844   2.877  0.3659 -0.5664  0.1801
 5758SOL    HW127608   4.043   2.863   2.880  0.0785  0.9724  0.0746
 5758SOL    HW227609   3.930   2.745   2.872  1.9151 -0.7809 -0.2874
 5759SOL     OW27610   2.810   4.685   1.254  0.1333 -0.0623  0.2808
 5759SOL    HW127611   2.772   4.629   1.327  0.5499  1.7668  1.9563
 5759SOL    HW227612   2.735   4.729   1.203 -0.1157  0.6561  1.2477
 5760SOL     OW27613   9.588   8.075   1.620  0.4571  0.6665 -0.0277
 5760SOL    HW127614   9.550   8.031   1.702  0.7704 -0.0890 -0.2808
 5760SOL    HW227615   9.586   8.174   1.632 -2.1191  0.6726 -0.2961
 5761SOL     OW27616   2.793   0.832   0.557  0.3541 -0.7079  0.0131
 5761SOL    HW127617   2.850   0.877   0.489 -1.6471 -0.2505 -1.3916
 5761SOL    HW227618   2.697   0.836   0.529 -0.3068 -2.1782  1.9239
 5762SOL     OW27619   2.909   8.402   2.441  0.1713  0.1122 -0.0344
 5762SOL    HW127620   2.998   8.447   2.439  0.7613 -1.0622 -0.9001
 5762SOL    HW227621   2.919   8.306   2.415 -0.7600 -1.0860  3.7364
 5763SOL     OW27622   3.288   0.781   1.607 -0.3958 -0.1674  0.5739
 5763SOL    HW127623   3.258   0.858   1.664 -0.9445  0.7435 -0.9200
 5763SOL    HW227624   3.361   0.812   1.546 -0.9774 -0.6881 -0.3951
 5764SOL     OW27625   9.131   8.912   1.066 -0.5861  0.1581  0.3404
 5764SOL    HW127626   9.180   8.878   1.146  0.7862  1.3964  0.0496
 5764SOL    HW227627   9.066   8.983   1.094 -1.3578 -0.6369  0.5730
 5765SOL     OW27628   2.264   3.493   2.597  0.2229 -0.4390  0.8319
 5765SOL    HW127629   2.179   3.458   2.557 -0.8504  0.0142  2.6371
 5765SOL    HW227630   2.333   3.503   2.526 -2.5240  3.2929 -1.4875
 5766SOL     OW27631   9.379   2.163   1.880  0.3508  0.5255 -0.2348
 5766SOL    HW127632   9.296   2.206   1.844 -0.6145 -0.6893  0.4750
 5766SOL    HW227633   9.448   2.158   1.808 -0.8108 -0.0086 -1.3382
 5767SOL     OW27634   9.884   6.134   3.313 -0.2066 -0.1304 -0.5141
 5767SOL    HW127635   9.876   6.125   3.412  1.9115 -0.7681 -0.3760
 5767SOL    HW227636   9.949   6.067   3.278  0.9322  1.6786 -2.0037
 5768SOL     OW27637   2.412   1.269   2.823 -0.0457 -0.2435 -0.9192
 5768SOL    HW127638   2.446   1.184   2.783  2.4511  0.2970 -0.0120
 5768SOL    HW227639   2.387   1.253   2.919  0.2460  0.0025 -0.8029
 5769SOL     OW27640   0.117   7.810   0.149 -0.2096  0.2987 -0.5876
 5769SOL    HW127641   0.125   7.898   0.103 -0.6800  0.2476 -0.7664
 5769SOL    HW227642   0.047   7.815   0.220  1.1867  0.6612  0.8023
 5770SOL     OW27643   2.528   4.697   1.410 -0.0539 -0.1840 -0.2862
 5770SOL    HW127644   2.561   4.757   1.337  1.1317 -0.8082 -0.2703
 5770SOL    HW227645   2.488   4.615   1.369  1.9299 -1.2088 -0.2136
 5771SOL     OW27646   8.960   6.784   2.468  0.6034  0.0468 -0.0367
 5771SOL    HW127647   8.907   6.754   2.389 -2.1112  0.8453  1.4121
 5771SOL    HW227648   8.949   6.719   2.543 -0.4922  1.5415  1.1382
 5772SOL     OW27649   5.091   8.143   2.020  0.1811 -0.1731 -0.4392
 5772SOL    HW127650   5.159   8.088   1.972 -0.4108 -0.6034 -0.7863
 5772SOL    HW227651   5.002   8.099   2.015 -0.2366  0.6499 -0.4384
 5773SOL     OW27652   0.466   7.855   0.797 -0.1050 -0.3081  0.6340
 5773SOL    HW127653   0.384   7.902   0.828 -0.7772 -1.5967  0.8437
 5773SOL    HW227654   0.467   7.853   0.697 -0.4744 -0.5223  0.6315
 5774SOL     OW27655   8.434   7.115   2.290 -0.0441 -1.0077 -0.9193
 5774SOL    HW127656   8.415   7.134   2.386  1.5324  1.6932 -1.0936
 5774SOL    HW227657   8.357   7.146   2.234 -0.3090 -1.1938 -0.6621
 5775SOL     OW27658   1.969   6.935   1.311 -0.0314 -0.1295  0.0082
 5775SOL    HW127659   2.049   6.876   1.322  0.4547  0.3635 -0.7604
 5775SOL    HW227660   1.986   6.998   1.235 -1.2592 -0.2022 -0.3299
 5776SOL     OW27661   0.980   5.148   0.442 -0.1332 -0.0314 -0.3028
 5776SOL    HW127662   0.891   5.158   0.396 -0.2850 -0.6826 -0.1592
 5776SOL    HW227663   1.053   5.163   0.375 -0.3535 -0.5520 -0.6673
 5777SOL     OW27664   4.229   0.411   2.583  0.4973 -0.5666  0.0725
 5777SOL    HW127665   4.131   0.432   2.575  0.7672 -0.0281 -2.4147
 5777SOL    HW227666   4.253   0.400   2.679 -1.2559  2.9074  0.9808
 5778SOL     OW27667   3.087   1.198   2.360 -0.3408  0.6314  0.1490
 5778SOL    HW127668   3.175   1.206   2.313 -0.4082 -1.0676 -0.2874
 5778SOL    HW227669   3.045   1.110   2.338 -2.3801  1.6267 -0.0160
 5779SOL     OW27670   0.447   4.362   2.928  0.3254  0.0182 -0.3156
 5779SOL    HW127671   0.410   4.396   3.015 -0.6041 -0.6427 -0.4567
 5779SOL    HW227672   0.524   4.420   2.901  0.1871  0.6489  0.5972
 5780SOL     OW27673   3.628   7.911   3.285  0.1907 -0.3242 -0.3119
 5780SOL    HW127674   3.639   7.812   3.282  0.5449 -0.3060  0.2638
 5780SOL    HW227675   3.663   7.952   3.201  1.0197 -0.6013 -0.1087
 5781SOL     OW27676   0.685   4.378   2.073 -0.4093  0.1603 -0.2260
 5781SOL    HW127677   0.595   4.389   2.116  0.3478 -0.2880  1.4870
 5781SOL    HW227678   0.679   4.409   1.978 -2.2650  0.5584 -0.0141
 5782SOL     OW27679   8.136   2.656   0.508 -0.1306  0.3840 -0.0541
 5782SOL    HW127680   8.072   2.662   0.585 -1.8328 -1.0704 -1.2882
 5782SOL    HW227681   8.125   2.736   0.449  0.7607  1.2120  0.8869
 5783SOL     OW27682   3.990   4.306   3.063  0.5676  0.8191 -0.2215
 5783SOL    HW127683   3.926   4.313   3.140  1.3229 -0.8618  0.5870
 5783SOL    HW227684   3.944   4.336   2.979 -0.6131  1.6339  0.6827
 5784SOL     OW27685   8.896   2.982   0.019  0.0225  0.0609  0.4593
 5784SOL    HW127686   8.990   2.972  -0.013  0.0992  2.2619 -0.0490
 5784SOL    HW227687   8.836   2.921  -0.033  0.8190  0.3568 -0.7980
 5785SOL     OW27688   1.526   3.193   0.516  0.3565 -0.0385 -0.3629
 5785SOL    HW127689   1.619   3.162   0.494  0.9261  0.5234  1.1803
 5785SOL    HW227690   1.516   3.289   0.490  0.6575  0.2928  0.7190
 5786SOL     OW27691   5.572   9.784   2.794  0.0715 -0.4330  0.6211
 5786SOL    HW127692   5.501   9.823   2.853 -0.2483  0.1692 -0.1403
 5786SOL    HW227693   5.547   9.691   2.768 -1.1765  0.2720 -0.8043
 5787SOL     OW27694   0.445   7.357   3.287  0.0818  0.1986 -0.6175
 5787SOL    HW127695   0.425   7.282   3.351 -0.9834 -0.5809 -1.8340
 5787SOL    HW227696   0.359   7.400   3.259  0.6745  1.7214 -0.1331
 5788SOL     OW27697   9.661   4.060   1.891 -0.1051 -0.0965  0.1855
 5788SOL    HW127698   9.662   4.047   1.990  0.1089 -1.8796 -0.0315
 5788SOL    HW227699   9.753   4.047   1.854  0.0865  1.9216 -0.1012
 5789SOL     OW27700   9.102   6.949   2.949 -0.1921 -0.2830  0.2394
 5789SOL    HW127701   9.151   7.028   2.986  1.4590 -1.7465  1.2042
 5789SOL    HW227702   9.020   6.932   3.004  0.4436 -0.3683  1.1708
 5790SOL     OW27703   0.524   1.395   0.941 -0.1566 -0.1622  0.3161
 5790SOL    HW127704   0.616   1.363   0.922 -0.5098 -0.3500 -1.1138
 5790SOL    HW227705   0.527   1.477   0.998  0.8719 -0.3716  0.5607
 5791SOL     OW27706   9.224   2.961   3.409  0.6007 -0.5033 -0.1039
 5791SOL    HW127707   9.256   3.051   3.379  0.5716 -0.4330  0.0799
 5791SOL    HW227708   9.281   2.928   3.484 -0.7807  0.3498  1.3292
 5792SOL     OW27709   8.833   5.974   0.721  0.5265  0.2631 -0.3162
 5792SOL    HW127710   8.745   6.021   0.729  1.2384  1.6017 -0.1458
 5792SOL    HW227711   8.819   5.883   0.683 -0.9715  0.3246  0.0508
 5793SOL     OW27712   9.513   0.819   0.041 -0.4660  0.0004  0.6338
 5793SOL    HW127713   9.569   0.895   0.074 -0.6214  0.5479 -0.3414
 5793SOL    HW227714   9.453   0.787   0.115  1.9020 -1.3429  2.0186
 5794SOL     OW27715   3.304   4.104   2.293  0.1917 -0.2267 -0.0953
 5794SOL    HW127716   3.230   4.088   2.229  0.6018 -0.2272 -0.5736
 5794SOL    HW227717   3.316   4.203   2.306  0.1687 -0.2247 -0.0946
 5795SOL     OW27718   7.892   6.897   2.678  0.0757 -0.0273 -0.1589
 5795SOL    HW127719   7.843   6.836   2.740  1.0382  0.9402  1.5779
 5795SOL    HW227720   7.976   6.853   2.647  0.2325  0.0003  0.2339
 5796SOL     OW27721   1.577   2.543   2.538  0.4780 -0.2131 -0.7106
 5796SOL    HW127722   1.638   2.493   2.476  0.5909 -0.3938 -0.4556
 5796SOL    HW227723   1.630   2.611   2.589  0.5109 -0.5388 -0.3098
 5797SOL     OW27724   3.217   4.453   1.826  0.2418 -0.2385 -0.3520
 5797SOL    HW127725   3.194   4.471   1.731  0.4038  2.2151  0.0261
 5797SOL    HW227726   3.301   4.502   1.849 -1.7822  2.3163  2.0207
 5798SOL     OW27727   9.616   1.640   1.496  0.2598  0.0914 -0.3318
 5798SOL    HW127728   9.628   1.640   1.595 -0.2608  1.4751 -0.2632
 5798SOL    HW227729   9.680   1.575   1.455  0.9838  0.0431  0.8406
 5799SOL     OW27730   3.175   3.523   3.255 -0.2829  0.4198 -0.1250
 5799SOL    HW127731   3.244   3.585   3.218 -1.2376  1.1767 -0.6603
 5799SOL    HW227732   3.219   3.455   3.314  0.7572  1.6425  0.5175
 5800SOL     OW27733   0.403   8.993   2.759 -0.4641  0.0270 -0.4620
 5800SOL    HW127734   0.359   8.953   2.679  0.2228  0.7883 -1.2290
 5800SOL    HW227735   0.490   8.947   2.777 -0.4982  0.0212 -0.3068
 5801SOL     OW27736   9.553   5.270   0.727 -0.0781 -0.1039 -0.0934
 5801SOL    HW127737   9.631   5.227   0.681  0.2379  0.9194 -0.5203
 5801SOL    HW227738   9.587   5.328   0.802 -0.4468  0.1660 -0.1393
 5802SOL     OW27739   1.687   5.658   0.553  0.2573  0.1140 -0.5591
 5802SOL    HW127740   1.630   5.740   0.552 -0.4345 -0.3332  0.7195
 5802SOL    HW227741   1.775   5.679   0.595  0.0807  0.1968 -0.2335
 5803SOL     OW27742   3.237   3.658   1.701  0.6108  0.6192 -0.4027
 5803SOL    HW127743   3.336   3.644   1.706  0.3322 -0.7792  1.2152
 5803SOL    HW227744   3.208   3.650   1.606  1.9578  0.4648 -0.8179
 5804SOL     OW27745   0.686   7.857   1.256  0.0143 -0.3756 -0.1294
 5804SOL    HW127746   0.727   7.884   1.169  0.4043 -1.4961 -0.3079
 5804SOL    HW227747   0.740   7.783   1.296 -0.2224  0.0702  1.0189
 5805SOL     OW27748   1.669   2.851   2.995  0.2217 -0.0799  0.4029
 5805SOL    HW127749   1.757   2.873   2.953 -0.9048  2.5078 -0.6783
 5805SOL    HW227750   1.683   2.833   3.093  1.8056  1.5935  0.5163
 5806SOL     OW27751   4.368   8.490   2.328 -0.1333 -0.6049  0.5638
 5806SOL    HW127752   4.369   8.553   2.406  2.7323 -2.0299  1.7531
 5806SOL    HW227753   4.431   8.523   2.258 -0.1904 -1.0565  0.3001
 5807SOL     OW27754   1.804   7.211   0.839 -0.5587  0.0559 -0.0308
 5807SOL    HW127755   1.801   7.131   0.779  1.3863 -0.0551 -0.0156
 5807SOL    HW227756   1.732   7.276   0.813  0.1918 -0.0394 -2.4099
 5808SOL     OW27757   9.961   6.370   1.940  0.3795  0.0821  0.2036
 5808SOL    HW127758   9.865   6.351   1.959  0.3228 -0.9447 -1.0512
 5808SOL    HW227759   9.988   6.454   1.987 -0.8523 -0.1556  1.3798
 5809SOL     OW27760   0.803   5.059   2.108 -0.1040 -0.0226  0.2397
 5809SOL    HW127761   0.832   5.132   2.046 -0.2939  0.2008  0.4165
 5809SOL    HW227762   0.878   5.035   2.169  0.5804 -1.2394 -1.0272
 5810SOL     OW27763   2.304   6.915   0.380 -0.2325  0.1632 -0.4003
 5810SOL    HW127764   2.234   6.859   0.335  0.4942 -0.8579 -0.2760
 5810SOL    HW227765   2.329   6.873   0.467 -0.0195  0.9405 -0.0860
 5811SOL     OW27766   7.755   9.200   0.985  0.0414  0.0035  0.0990
 5811SOL    HW127767   7.740   9.102   0.970 -1.3836  0.3075 -0.5362
 5811SOL    HW227768   7.667   9.247   0.992  0.7161  1.0869  1.4897
 5812SOL     OW27769   1.806   0.497   2.459  0.7580  0.1016 -0.3093
 5812SOL    HW127770   1.894   0.539   2.479  1.6579 -1.5961 -0.6385
 5812SOL    HW227771   1.789   0.423   2.523 -1.7030  2.1560  1.5010
 5813SOL     OW27772   9.153   7.623   0.969 -0.5422 -0.0456 -0.4608
 5813SOL    HW127773   9.233   7.592   1.021 -0.9148 -0.4002 -0.0953
 5813SOL    HW227774   9.154   7.579   0.879 -0.7654 -0.6957 -0.1509
 5814SOL     OW27775   4.318   7.253   2.972  0.3350  0.0011  0.3144
 5814SOL    HW127776   4.363   7.280   2.887  0.9242  1.8352  1.1777
 5814SOL    HW227777   4.245   7.188   2.952  1.9940 -1.4315 -1.3358
 5815SOL     OW27778   8.891   6.348   1.820 -0.0892 -0.0810 -0.2574
 5815SOL    HW127779   8.907   6.338   1.919 -0.2897 -0.1171 -0.2276
 5815SOL    HW227780   8.894   6.258   1.776 -2.5394 -0.3791  0.1131
 5816SOL     OW27781   3.903   2.708   1.236 -0.6523  0.3707 -0.0490
 5816SOL    HW127782   3.856   2.621   1.218 -0.4094 -0.2899  2.4006
 5816SOL    HW227783   4.002   2.693   1.232 -0.6110  0.5414  0.3999
 5817SOL     OW27784   3.832   7.438   2.647 -0.0987  0.2122  0.4241
 5817SOL    HW127785   3.930   7.455   2.639 -0.0524  0.3533  1.2546
 5817SOL    HW227786   3.783   7.498   2.584  0.3602 -0.0876 -0.2346
 5818SOL     OW27787   1.834   4.673   1.869  0.5940  0.0571  0.0936
 5818SOL    HW127788   1.851   4.687   1.771  0.5223  1.1992  0.2360
 5818SOL    HW227789   1.736   4.687   1.888 -0.0764 -3.6595 -0.2475
 5819SOL     OW27790   8.511   5.346   1.268  0.2287 -0.1370  0.2718
 5819SOL    HW127791   8.599   5.386   1.293  0.7248 -1.1324  0.1271
 5819SOL    HW227792   8.440   5.383   1.327  1.1345 -1.1706  2.0652
 5820SOL     OW27793   0.694   8.576   1.402 -0.3888 -0.3894 -0.0485
 5820SOL    HW127794   0.716   8.594   1.306  2.1434  1.4178  0.8091
 5820SOL    HW227795   0.689   8.477   1.418 -1.4633 -0.6908 -2.1508
 5821SOL     OW27796   5.490   8.200   2.807  0.4060 -0.0880 -0.1895
 5821SOL    HW127797   5.574   8.209   2.753  0.3198 -0.1903 -0.3409
 5821SOL    HW227798   5.418   8.160   2.750  0.3778 -0.3934  0.0635
 5822SOL     OW27799   9.700   9.922   0.648  0.2950  0.4404  0.1533
 5822SOL    HW127800   9.715   9.897   0.744  0.1426  0.5523  0.2076
 5822SOL    HW227801   9.709  10.021   0.638 -1.0304  0.5928  0.3136
 5823SOL     OW27802   9.127   1.298   1.952 -0.1282  0.0450  0.1079
 5823SOL    HW127803   9.122   1.394   1.928 -0.1305  0.1758  0.6230
 5823SOL    HW227804   9.135   1.288   2.051  0.2175 -0.4728  0.0332
 5824SOL     OW27805   8.411   4.381   0.498  0.0639  0.4125 -0.1021
 5824SOL    HW127806   8.369   4.357   0.586 -0.4837  1.7087  0.0013
 5824SOL    HW227807   8.510   4.392   0.510  0.5989 -3.3484 -0.4903
 5825SOL     OW27808   5.340   9.782   3.086 -0.1161 -0.1527 -0.5379
 5825SOL    HW127809   5.346   9.683   3.075 -0.5294 -0.3775  1.0543
 5825SOL    HW227810   5.244   9.810   3.091 -0.0031  0.3347 -0.9867
 5826SOL     OW27811   0.213   8.356   0.674 -0.3239  0.8748  1.3239
 5826SOL    HW127812   0.246   8.403   0.592  0.6202  0.0834  1.2438
 5826SOL    HW227813   0.290   8.335   0.734 -0.7682 -0.2992  1.4981
 5827SOL     OW27814   3.638   5.151   0.203  0.0864  0.7377  0.0195
 5827SOL    HW127815   3.623   5.244   0.170 -1.9583  1.2656  2.3649
 5827SOL    HW227816   3.675   5.153   0.295 -1.2185 -0.7583  0.6128
 5828SOL     OW27817   0.412   4.441   2.519 -0.4277 -0.2794 -0.6605
 5828SOL    HW127818   0.483   4.466   2.454  0.3816 -0.5105  0.1154
 5828SOL    HW227819   0.339   4.509   2.518  0.8679  1.1586  0.1257
 5829SOL     OW27820   0.470   1.021   0.015 -0.0610 -0.0409  0.6627
 5829SOL    HW127821   0.505   1.092   0.076  1.0989 -0.8726  0.9785
 5829SOL    HW227822   0.487   1.048  -0.080 -3.5000  2.1164  0.5777
 5830SOL     OW27823   3.932   5.036   2.035  0.1236 -0.2294 -0.2771
 5830SOL    HW127824   4.026   5.028   2.069  0.2643 -1.7215 -1.0113
 5830SOL    HW227825   3.894   4.945   2.018 -0.8901  0.4213 -1.5505
 5831SOL     OW27826   9.960   9.288   0.649  0.8907  0.2913  0.6493
 5831SOL    HW127827   9.981   9.386   0.650 -1.9459  0.9221  3.8130
 5831SOL    HW227828   9.934   9.258   0.741 -1.7628 -2.6769 -0.9839
 5832SOL     OW27829   2.841   1.219   1.996 -0.6098  0.1910 -0.0421
 5832SOL    HW127830   2.831   1.151   2.068 -0.5692 -0.0331 -0.2485
 5832SOL    HW227831   2.833   1.311   2.036  0.1288  0.0845  0.3572
 5833SOL     OW27832   2.734   8.618   3.135  0.7981 -0.1402  0.0605
 5833SOL    HW127833   2.789   8.675   3.197  0.0276  0.3093  0.3423
 5833SOL    HW227834   2.759   8.522   3.147 -0.3640 -0.2233  2.1383
 5834SOL     OW27835   9.556   4.329   1.013 -0.1951  0.0238 -0.4229
 5834SOL    HW127836   9.592   4.274   0.937 -0.8766  1.5622 -1.8852
 5834SOL    HW227837   9.576   4.283   1.100  0.4069 -1.8664 -1.5372
 5835SOL     OW27838   2.177   0.232   0.208  0.1162 -0.1595  0.1579
 5835SOL    HW127839   2.118   0.215   0.130 -0.4330  3.3981 -0.2903
 5835SOL    HW227840   2.126   0.215   0.293 -0.4738 -0.4206 -0.2467
 5836SOL     OW27841   9.483   6.281   0.378  0.3416  0.1098 -0.5174
 5836SOL    HW127842   9.466   6.216   0.303  1.4814  0.5089 -1.1295
 5836SOL    HW227843   9.458   6.373   0.347  0.4944  0.2258 -0.2915
 5837SOL     OW27844   4.126   9.100   0.210 -0.0063 -0.4188  0.7159
 5837SOL    HW127845   4.159   9.191   0.183 -1.2147 -0.7421 -2.0904
 5837SOL    HW227846   4.178   9.030   0.160 -1.1028 -1.1488  0.5892
 5838SOL     OW27847   2.881   9.662   2.253  0.6285  0.1962 -0.3066
 5838SOL    HW127848   2.784   9.676   2.274  0.6154  1.4515 -1.1937
 5838SOL    HW227849   2.935   9.735   2.295  1.2719 -0.8618  0.7349
 5839SOL     OW27850   1.080   6.922   0.899  0.3900 -0.1222  0.1899
 5839SOL    HW127851   1.009   6.877   0.845  1.3665 -0.5439 -0.7551
 5839SOL    HW227852   1.139   6.853   0.940  0.8026  0.2519  0.2288
 5840SOL     OW27853   5.049   8.612   2.023  0.4190  0.1925 -0.5632
 5840SOL    HW127854   5.044   8.707   2.052 -1.1525 -0.1673  0.4389
 5840SOL    HW227855   5.024   8.553   2.099 -1.8285 -0.8759 -2.0710
 5841SOL     OW27856   2.237   5.088   2.508 -0.0293 -0.2050  0.1010
 5841SOL    HW127857   2.295   5.094   2.426 -0.6762 -0.7369 -0.3981
 5841SOL    HW227858   2.178   5.168   2.513 -0.1663 -0.2952 -0.0847
 5842SOL     OW27859   4.693   8.700   3.239  0.4531 -0.5810  0.4958
 5842SOL    HW127860   4.675   8.606   3.212 -0.8523 -0.4619  0.9008
 5842SOL    HW227861   4.609   8.741   3.276  1.1982  0.4915  1.0466
 5843SOL     OW27862   7.381   9.104   1.546  0.5194  0.4541 -0.1039
 5843SOL    HW127863   7.445   9.107   1.469  1.7930  2.9815  1.0215
 5843SOL    HW227864   7.292   9.138   1.517  0.5896  0.0527 -0.8068
 5844SOL     OW27865   0.821   5.111   0.884 -0.6686 -0.0381  0.8014
 5844SOL    HW127866   0.729   5.133   0.849 -0.5655 -0.3664  0.3275
 5844SOL    HW227867   0.834   5.012   0.884 -0.5014 -0.0208  1.3589
 5845SOL     OW27868   0.740   8.173   1.448 -0.1889 -0.2978 -0.0373
 5845SOL    HW127869   0.754   8.104   1.378 -0.4457 -0.0616 -0.3219
 5845SOL    HW227870   0.781   8.143   1.534  0.8376 -0.2256 -0.5050
 5846SOL     OW27871   9.159   4.297   0.126 -0.3131 -0.4531 -0.1250
 5846SOL    HW127872   9.250   4.301   0.167 -0.9104  1.9514  1.0375
 5846SOL    HW227873   9.144   4.380   0.071 -1.9012 -0.6898 -0.0652
 5847SOL     OW27874   1.793   5.742   3.213 -0.6280 -0.2767 -0.4324
 5847SOL    HW127875   1.839   5.663   3.254  0.3920  0.0064 -0.9992
 5847SOL    HW227876   1.694   5.727   3.213 -0.6390 -0.3636  1.9370
 5848SOL     OW27877   4.221   2.283   1.772  0.0472  0.0140 -0.2650
 5848SOL    HW127878   4.197   2.282   1.675 -0.6282  0.8762 -0.1152
 5848SOL    HW227879   4.189   2.368   1.813  1.7074  0.3392  0.3745
 5849SOL     OW27880   3.716   8.525   0.722  0.1703 -0.0921 -0.6187
 5849SOL    HW127881   3.726   8.434   0.683  1.4525 -0.9325  1.5857
 5849SOL    HW227882   3.676   8.518   0.814  2.6095  1.2969  0.6078
 5850SOL     OW27883   8.879   3.487   1.317  0.0385 -0.1736 -0.0224
 5850SOL    HW127884   8.864   3.409   1.378  1.1061 -0.9283 -0.7205
 5850SOL    HW227885   8.880   3.571   1.371 -0.1995 -0.7248  0.8550
 5851SOL     OW27886   1.194   9.299   1.608  0.3741  0.2337  0.0018
 5851SOL    HW127887   1.194   9.393   1.576 -1.8621  0.4066  0.4388
 5851SOL    HW227888   1.157   9.295   1.701  1.7180 -0.9155  0.5090
 5852SOL     OW27889   4.961   7.656   2.263  0.3205  0.1743 -0.0980
 5852SOL    HW127890   5.027   7.725   2.294 -1.1293  0.6600  1.9695
 5852SOL    HW227891   4.981   7.568   2.305  0.6712 -0.0913 -0.8082
 5853SOL     OW27892   1.456   5.860   1.766 -0.1403 -0.4002  0.6980
 5853SOL    HW127893   1.535   5.800   1.763 -0.9005 -1.3407 -1.3383
 5853SOL    HW227894   1.375   5.810   1.736 -1.2123  0.9938  1.2103
 5854SOL     OW27895   3.374   8.956   1.580 -0.3102  0.0936  0.1218
 5854SOL    HW127896   3.439   8.890   1.543  0.3512  1.2126 -0.7356
 5854SOL    HW227897   3.383   8.958   1.680  0.5945 -0.1507  0.0519
 5855SOL     OW27898   3.123   9.089   2.828 -0.2372  0.9072  0.1233
 5855SOL    HW127899   3.209   9.104   2.876 -0.6050  0.0331  1.0725
 5855SOL    HW227900   3.141   9.073   2.731  0.8631 -1.3694  0.6548
 5856SOL     OW27901   2.569   3.335   1.160  0.5887 -0.9231  0.0020
 5856SOL    HW127902   2.530   3.257   1.113 -1.8381  0.2700 -0.0087
 5856SOL    HW227903   2.547   3.330   1.258 -1.7887  1.0323 -0.3999
 5857SOL     OW27904   8.767   7.467   1.025  0.1629 -0.1060  0.4414
 5857SOL    HW127905   8.702   7.424   1.088 -0.4229 -1.1635 -0.8419
 5857SOL    HW227906   8.849   7.411   1.018 -0.0308 -0.3142 -0.1999
 5858SOL     OW27907   9.723   4.560   3.010  0.3858 -0.5236 -0.9952
 5858SOL    HW127908   9.766   4.614   3.082  2.2987  0.5560 -2.8803
 5858SOL    HW227909   9.654   4.499   3.050 -1.1778  2.6184  1.2683
 5859SOL     OW27910   7.967   3.231   1.144 -0.2623 -0.0786  0.1282
 5859SOL    HW127911   8.009   3.145   1.172  1.4331  0.6532 -0.1258
 5859SOL    HW227912   7.868   3.217   1.133 -0.1514 -1.7433  1.0074
 5860SOL     OW27913   1.150   7.819   3.398 -0.7889 -0.5116 -0.1799
 5860SOL    HW127914   1.066   7.790   3.444 -0.6570 -0.0358  0.3655
 5860SOL    HW227915   1.131   7.837   3.302 -1.1608 -1.0875 -0.2178
 5861SOL     OW27916   1.758   7.772   2.211  0.3014 -0.6898 -0.1622
 5861SOL    HW127917   1.764   7.726   2.122 -1.1432  0.2049 -0.7337
 5861SOL    HW227918   1.662   7.781   2.237  0.7042 -0.7020  1.3804
 5862SOL     OW27919   1.634   1.139   1.133 -0.3147  0.6878  0.4571
 5862SOL    HW127920   1.727   1.129   1.098 -0.7915  0.9470 -0.8939
 5862SOL    HW227921   1.581   1.198   1.072 -1.2207  0.9771  1.5026
 5863SOL     OW27922   3.564   0.082   0.449  0.4148 -0.1763 -0.0951
 5863SOL    HW127923   3.507   0.002   0.467  0.4745 -0.2869 -0.3935
 5863SOL    HW227924   3.641   0.083   0.513  0.5011 -0.4448 -0.1933
 5864SOL     OW27925   3.106   5.484   2.429 -0.6664  0.3471  0.3646
 5864SOL    HW127926   3.153   5.557   2.479 -0.2783  0.7785 -0.6067
 5864SOL    HW227927   3.146   5.476   2.337 -2.6523  0.9100 -0.5820
 5865SOL     OW27928   5.773   9.902   2.600 -0.0940 -0.2630 -0.3370
 5865SOL    HW127929   5.757   9.955   2.683  2.4996 -0.9725  0.6516
 5865SOL    HW227930   5.690   9.852   2.576 -1.0349  0.3666  1.5185
 5866SOL     OW27931   0.648   5.365   1.463 -0.4157  1.1184 -0.2055
 5866SOL    HW127932   0.605   5.381   1.552  0.5388 -1.9043  0.8509
 5866SOL    HW227933   0.579   5.337   1.397 -0.8000  1.1509  0.1784
 5867SOL     OW27934   3.449   6.384   3.255  0.2220  0.1397 -0.5268
 5867SOL    HW127935   3.528   6.442   3.274 -0.5761  1.0027  0.1956
 5867SOL    HW227936   3.411   6.408   3.165 -0.2101  0.8548 -0.1544
 5868SOL     OW27937   4.632   7.919   2.631  0.3875 -0.2842 -0.0688
 5868SOL    HW127938   4.547   7.941   2.679  0.0748 -1.4023 -0.0924
 5868SOL    HW227939   4.697   7.994   2.642 -0.5160  0.4744  0.1474
 5869SOL     OW27940   0.085   2.554   0.375 -0.2922 -0.1814 -0.1443
 5869SOL    HW127941   0.102   2.482   0.307  0.3962  0.2178 -0.4026
 5869SOL    HW227942   0.161   2.556   0.440 -0.0070  0.7177 -0.4960
 5870SOL     OW27943   7.628   8.275   1.839 -0.3846 -1.0913  0.0823
 5870SOL    HW127944   7.571   8.196   1.864 -0.2284 -1.1761  0.1752
 5870SOL    HW227945   7.591   8.357   1.882  0.6230 -1.4502  1.6846
 5871SOL     OW27946   9.303   4.664   2.791  0.4435  0.3488 -0.0289
 5871SOL    HW127947   9.292   4.725   2.870  2.2032 -0.5577  0.9460
 5871SOL    HW227948   9.323   4.571   2.823 -1.6316 -0.6500 -1.5082
 5872SOL     OW27949   3.741   2.511   1.884 -0.2179  0.1329  0.0535
 5872SOL    HW127950   3.786   2.533   1.970 -0.0883 -0.4631  0.1402
 5872SOL    HW227951   3.804   2.530   1.808 -0.2975  0.5668  0.0978
 5873SOL     OW27952   1.556   3.281   0.156 -0.2913 -0.1446  0.7012
 5873SOL    HW127953   1.549   3.354   0.224  2.1389 -0.0685  0.9104
 5873SOL    HW227954   1.558   3.321   0.064  0.5311  0.0399  0.7937
 5874SOL     OW27955   8.047   8.499   1.505 -0.4011  0.0138 -0.4650
 5874SOL    HW127956   7.958   8.479   1.545  0.0361 -1.3630 -0.1804
 5874SOL    HW227957   8.109   8.422   1.519  0.3335  0.2632 -2.1357
 5875SOL     OW27958   2.503   7.419   2.253  0.2218  0.0007  0.0771
 5875SOL    HW127959   2.523   7.379   2.343 -0.3706 -0.0564  0.1827
 5875SOL    HW227960   2.471   7.513   2.265  0.2043  0.0146 -0.0802
 5876SOL     OW27961   9.148   4.519   3.405 -0.6899 -0.1991  0.3172
 5876SOL    HW127962   9.083   4.587   3.369 -0.1045  0.0185 -0.3457
 5876SOL    HW227963   9.223   4.567   3.450 -0.2527 -0.4072 -0.1935
 5877SOL     OW27964   0.490   4.475   0.939  0.1502  0.4469 -0.2160
 5877SOL    HW127965   0.580   4.511   0.912 -0.9903  2.4018 -1.5831
 5877SOL    HW227966   0.431   4.551   0.966 -0.4438 -1.0212  2.7483
 5878SOL     OW27967  10.000   9.348   2.029  0.0590 -0.2493  0.6636
 5878SOL    HW127968   9.926   9.379   2.089  0.2521  0.5060  0.5079
 5878SOL    HW227969  10.083   9.400   2.048  0.3250 -0.5189  0.2495
 5879SOL     OW27970   0.436   9.592   0.896  0.4545  0.1162 -0.4203
 5879SOL    HW127971   0.403   9.504   0.932  0.3981 -0.6683 -2.3426
 5879SOL    HW227972   0.528   9.609   0.931  0.0123 -0.1242  0.9143
 5880SOL     OW27973   3.412   7.380   2.566 -0.2456  0.0193 -0.1127
 5880SOL    HW127974   3.503   7.419   2.549 -0.7008  0.7883 -0.8255
 5880SOL    HW227975   3.369   7.357   2.478 -0.4798 -0.9629  0.2473
 5881SOL     OW27976   1.357   4.427   3.385  0.2836  0.3116  0.6171
 5881SOL    HW127977   1.415   4.346   3.373  0.4571  0.4454  0.5560
 5881SOL    HW227978   1.341   4.470   3.297 -0.8839 -0.3961  0.4764
 5882SOL     OW27979   4.462   3.158   2.734 -0.2307 -0.4894 -0.3260
 5882SOL    HW127980   4.370   3.174   2.697  0.0975 -1.6526 -1.6795
 5882SOL    HW227981   4.520   3.121   2.662  0.6142 -2.1657  1.2042
 5883SOL     OW27982   8.391   5.610   2.236  0.2136  0.2443  0.1726
 5883SOL    HW127983   8.390   5.574   2.143  0.0368  1.3118 -0.2449
 5883SOL    HW227984   8.362   5.705   2.235  0.3397  0.3008  1.3090
 5884SOL     OW27985   8.715   5.376   0.452 -0.4190 -0.2512  0.5375
 5884SOL    HW127986   8.743   5.303   0.514  1.3535 -0.5693 -0.5868
 5884SOL    HW227987   8.693   5.458   0.504  2.9066  0.0869  1.5188
 5885SOL     OW27988   3.657   4.760   1.034 -0.1486 -0.3308  0.2962
 5885SOL    HW127989   3.572   4.772   0.983 -0.7382 -1.7085  0.9131
 5885SOL    HW227990   3.643   4.692   1.106  0.8254  1.1731  1.9326
 5886SOL     OW27991   9.817   9.921   3.145 -0.1499  0.1035  0.3564
 5886SOL    HW127992   9.829   9.964   3.234  0.1677 -1.3343  1.0340
 5886SOL    HW227993   9.880   9.843   3.138 -0.7395 -0.2743 -0.8057
 5887SOL     OW27994   8.961   0.612   1.869  0.3823  0.1378 -0.3932
 5887SOL    HW127995   8.883   0.551   1.855  0.7496 -0.3329 -0.4229
 5887SOL    HW227996   8.929   0.705   1.885 -0.2902 -0.4379  1.7925
 5888SOL     OW27997   1.085   1.677   3.279  0.0774 -0.6074  0.3344
 5888SOL    HW127998   1.118   1.616   3.351  2.9408  1.9811  1.3722
 5888SOL    HW227999   1.010   1.732   3.314 -0.5301 -1.4371  0.3505
 5889SOL     OW28000   8.283   6.988   0.621  0.1227  0.1808  0.0502
 5889SOL    HW128001   8.235   6.930   0.687  1.1873 -0.9122 -0.1168
 5889SOL    HW228002   8.216   7.035   0.563 -0.8392  1.5695  2.2202
 5890SOL     OW28003   4.550   0.067   2.396  0.0380 -0.5284 -0.4393
 5890SOL    HW128004   4.460   0.106   2.416 -0.3580 -1.3272 -0.6602
 5890SOL    HW228005   4.620   0.135   2.417 -0.6121  0.1021 -0.2649
 5891SOL     OW28006   2.359   9.215   0.385 -0.1631  0.5481  0.1085
 5891SOL    HW128007   2.305   9.143   0.428  1.0515 -0.2749  0.2779
 5891SOL    HW228008   2.305   9.260   0.314 -0.7094 -0.9663 -0.4347
 5892SOL     OW28009   9.950   9.805   1.511 -0.0980 -0.3900 -0.1594
 5892SOL    HW128010   9.939   9.712   1.476  0.2416 -0.0576 -1.1722
 5892SOL    HW228011   9.920   9.870   1.441 -1.6087  0.2384  1.0297
 5893SOL     OW28012   3.364   9.441   2.748  0.1170 -0.1254  0.2058
 5893SOL    HW128013   3.428   9.364   2.745 -0.0283 -0.2910  1.1831
 5893SOL    HW228014   3.280   9.416   2.700 -0.2555 -0.8926  1.2183
 5894SOL     OW28015   2.876   6.379   2.021 -0.4706  0.1132 -0.3555
 5894SOL    HW128016   2.968   6.358   2.054 -0.3981  0.6963 -0.1954
 5894SOL    HW228017   2.881   6.423   1.932 -0.5711  0.6018 -0.1231
 5895SOL     OW28018   2.904   4.431   3.423 -0.6648  0.6988  0.1724
 5895SOL    HW128019   2.904   4.385   3.335 -0.6398  0.2154  0.4267
 5895SOL    HW228020   2.920   4.529   3.409 -0.0986  0.5389 -0.3085
 5896SOL     OW28021   1.709   9.444   1.568 -0.2210 -0.2927 -0.4116
 5896SOL    HW128022   1.702   9.344   1.573 -0.0350 -0.4318 -2.4050
 5896SOL    HW228023   1.805   9.472   1.574 -0.3921 -0.0873  1.8934
 5897SOL     OW28024   8.419   9.836   1.699 -0.3700  0.4278 -0.2708
 5897SOL    HW128025   8.462   9.906   1.641 -3.0268  2.8397  0.5272
 5897SOL    HW228026   8.468   9.830   1.786 -0.4090  1.7236 -0.1398
 5898SOL     OW28027   1.007   9.018   1.565 -0.2429  0.2525 -0.2959
 5898SOL    HW128028   0.949   9.097   1.585  1.3126  1.3131  0.1206
 5898SOL    HW228029   1.098   9.033   1.603  0.2260 -1.5285 -0.6621
 5899SOL     OW28030   0.777   8.638   2.413  0.3330  0.1458 -0.2154
 5899SOL    HW128031   0.774   8.642   2.513 -1.5485 -0.9435 -0.1951
 5899SOL    HW228032   0.870   8.653   2.381  1.1166 -0.3998  1.7540
 5900SOL     OW28033   8.281   5.521   1.100  0.5747  0.4648 -0.2254
 5900SOL    HW128034   8.230   5.437   1.084  0.6307  0.6149 -1.2124
 5900SOL    HW228035   8.283   5.541   1.198 -2.6989  1.3631 -0.2947
 5901SOL     OW28036   7.540   0.465   0.276  0.4674  0.6932 -0.6302
 5901SOL    HW128037   7.448   0.482   0.240  0.4622  0.5383 -0.6888
 5901SOL    HW228038   7.588   0.552   0.287 -0.4157  0.9497  1.3410
 5902SOL     OW28039   0.848   6.735   1.206 -0.1188  0.2559 -0.6789
 5902SOL    HW128040   0.891   6.730   1.116  1.8830  0.2150  0.2663
 5902SOL    HW228041   0.914   6.769   1.273 -1.2911 -0.6628  0.9764
 5903SOL     OW28042   4.767   3.428   1.271 -0.1951 -0.0244 -0.2686
 5903SOL    HW128043   4.711   3.433   1.189  0.7261  0.8238 -0.8600
 5903SOL    HW228044   4.855   3.386   1.249  1.0050  2.3682 -0.2775
 5904SOL     OW28045   3.104   9.959   1.184 -0.3209 -0.5252 -0.0264
 5904SOL    HW128046   3.174  10.030   1.174  0.8268 -1.6687 -0.2165
 5904SOL    HW228047   3.143   9.870   1.161 -2.2816 -0.9905 -1.6550
 5905SOL     OW28048   0.287   3.637   3.347  0.2188 -0.2209  0.0461
 5905SOL    HW128049   0.292   3.659   3.249 -0.8129  0.3354  0.1036
 5905SOL    HW228050   0.205   3.680   3.386 -1.2101 -3.2076  0.4418
 5906SOL     OW28051   0.850   9.554   0.586 -0.2224  0.4790  0.0301
 5906SOL    HW128052   0.934   9.506   0.560  0.3193  0.8319  1.0779
 5906SOL    HW228053   0.773   9.491   0.580  0.1363  0.1168 -0.8315
 5907SOL     OW28054   4.194   5.491   1.850  0.4302 -0.4801 -0.4177
 5907SOL    HW128055   4.104   5.535   1.846  0.3755 -0.1125  3.3968
 5907SOL    HW228056   4.183   5.395   1.877  1.1158 -0.6938 -0.8849
 5908SOL     OW28057   0.968   8.357   2.491 -0.3081  0.5007  0.0785
 5908SOL    HW128058   0.980   8.375   2.393  0.2973  0.4982  0.1491
 5908SOL    HW228059   1.036   8.409   2.543 -1.0362  0.9859  0.5439
 5909SOL     OW28060   8.093   1.877   2.484  0.6175  0.4377  0.4946
 5909SOL    HW128061   8.099   1.976   2.473  1.3464  0.2242 -1.2599
 5909SOL    HW228062   8.005   1.853   2.524 -0.0939  1.7093 -0.2709
 5910SOL     OW28063   3.849   0.558   1.748 -0.1244 -0.1935 -0.1640
 5910SOL    HW128064   3.757   0.595   1.732 -0.0101  0.0528 -0.2504
 5910SOL    HW228065   3.888   0.525   1.662 -0.7151 -1.6530  0.1098
 5911SOL     OW28066   4.698   1.224   1.129  0.2820 -0.8649  0.4115
 5911SOL    HW128067   4.635   1.297   1.103  0.5118  0.5280  3.4442
 5911SOL    HW228068   4.747   1.192   1.048 -1.7925  0.4310 -1.4272
 5912SOL     OW28069   8.099   7.168   2.367 -0.6845 -0.3030 -0.5679
 5912SOL    HW128070   8.049   7.217   2.295  0.1501  2.4657  0.6470
 5912SOL    HW228071   8.039   7.155   2.446 -0.5917 -0.2323 -0.4840
 5913SOL     OW28072   0.459   2.762   0.998 -1.2042 -0.5198  0.5495
 5913SOL    HW128073   0.530   2.704   0.959  0.7681  2.4080 -0.3238
 5913SOL    HW228074   0.389   2.780   0.929 -0.4118  0.3667 -0.0266
 5914SOL     OW28075   1.829   1.843   1.097 -0.5515  0.8841  0.3166
 5914SOL    HW128076   1.748   1.902   1.088  0.3138  1.8149 -1.6864
 5914SOL    HW228077   1.865   1.822   1.006  0.3889 -1.0390  1.1126
 5915SOL     OW28078   0.123   8.200   1.990 -0.0108  0.1526  0.3331
 5915SOL    HW128079   0.070   8.255   2.055  2.2329 -1.1166  3.3858
 5915SOL    HW228080   0.157   8.258   1.917 -1.1121  2.0008  1.2444
 5916SOL     OW28081   0.836   0.383   2.177 -0.1070  0.6154  0.3388
 5916SOL    HW128082   0.775   0.421   2.247  0.5717  0.7022  0.8824
 5916SOL    HW228083   0.791   0.306   2.132 -0.4433  0.3933  1.0494
 5917SOL     OW28084   0.861   0.971   3.300  0.1167  0.6577  0.2691
 5917SOL    HW128085   0.945   0.943   3.345  0.0002  0.6409  0.4767
 5917SOL    HW228086   0.804   0.890   3.283  0.1149  0.6766  0.1848
 5918SOL     OW28087   8.584   9.183   0.376 -0.5760 -0.0334  0.0413
 5918SOL    HW128088   8.660   9.179   0.311 -0.3484 -0.9707  0.3554
 5918SOL    HW228089   8.570   9.277   0.405 -0.5930  0.3825 -1.2574
 5919SOL     OW28090   0.553   7.063   1.377  0.1742 -0.2953 -0.3133
 5919SOL    HW128091   0.488   6.996   1.414  0.4960  0.0650  0.9412
 5919SOL    HW228092   0.518   7.155   1.394  1.2042 -0.0909  0.7378
 5920SOL     OW28093   3.549   2.711   3.435 -0.2019 -0.2080  0.3958
 5920SOL    HW128094   3.463   2.745   3.397  0.1894 -0.9749 -1.1914
 5920SOL    HW228095   3.598   2.658   3.366  1.3717 -0.1091  1.4029
 5921SOL     OW28096   0.490   5.322   3.365  0.0805 -0.0855 -0.3851
 5921SOL    HW128097   0.516   5.417   3.353  0.6396 -0.4907 -2.5810
 5921SOL    HW228098   0.570   5.263   3.353 -0.3245 -0.8602  0.5993
 5922SOL     OW28099   5.383   9.956   3.317  0.6055 -0.3801  0.4009
 5922SOL    HW128100   5.367   9.910   3.230 -2.7826  1.6231 -0.1296
 5922SOL    HW228101   5.420  10.048   3.301 -0.3292  0.1220  1.0207
 5923SOL     OW28102   0.472   9.478   1.408 -0.2845  0.5543  0.0497
 5923SOL    HW128103   0.431   9.550   1.352 -1.6850 -0.7332 -0.5958
 5923SOL    HW228104   0.407   9.403   1.418  1.5789 -1.1173 -0.2269
 5924SOL     OW28105   6.649   8.757   2.466  0.3981 -0.6609 -0.1282
 5924SOL    HW128106   6.620   8.749   2.561  0.0001 -0.3790 -0.2253
 5924SOL    HW228107   6.728   8.817   2.460  0.3642 -0.6032  0.0123
 5925SOL     OW28108   3.026   1.371   0.646 -0.0778  0.0227  0.1752
 5925SOL    HW128109   3.101   1.321   0.688  1.2734  1.5612 -0.3655
 5925SOL    HW228110   2.967   1.409   0.717  0.2279 -0.3512  0.6277
 5926SOL     OW28111   4.462   5.272   1.838  0.4090 -0.5088 -0.2867
 5926SOL    HW128112   4.443   5.343   1.771 -0.0153  0.4692  0.8457
 5926SOL    HW228113   4.377   5.245   1.884  0.8552 -0.3201  0.6741
 5927SOL     OW28114   8.326   1.953   3.012  0.1950 -0.0475 -0.4728
 5927SOL    HW128115   8.412   1.925   2.968  0.4510  0.7273 -0.4684
 5927SOL    HW228116   8.339   2.042   3.056 -0.0496 -0.8058  1.1666
 5928SOL     OW28117   2.335   9.992   1.588 -0.5328 -0.5270  0.7078
 5928SOL    HW128118   2.336   9.893   1.601 -1.6157 -0.5493  0.6682
 5928SOL    HW228119   2.247  10.020   1.551  1.0825  0.0203 -2.9430
 5929SOL     OW28120   3.394   3.128   1.234  0.1051 -0.6212  1.2167
 5929SOL    HW128121   3.460   3.076   1.179 -0.7314 -0.7885  0.3504
 5929SOL    HW228122   3.367   3.210   1.184 -1.2191 -1.1449  1.0422
 5930SOL     OW28123   3.151   1.568   1.406 -0.5572 -0.0189  0.1091
 5930SOL    HW128124   3.165   1.500   1.334 -0.3541 -0.9371  1.0035
 5930SOL    HW228125   3.058   1.606   1.399 -0.1266  0.7778 -1.3647
 5931SOL     OW28126   0.612   7.212   3.098 -0.6156 -0.2456  0.1448
 5931SOL    HW128127   0.573   7.197   3.008  1.1617  1.2796 -0.9219
 5931SOL    HW228128   0.576   7.297   3.136  1.3864  1.0357 -0.7364
 5932SOL     OW28129   2.526   2.846   1.770 -0.2132 -0.6879  0.0299
 5932SOL    HW128130   2.551   2.764   1.718  1.6803 -1.1240  1.5589
 5932SOL    HW228131   2.599   2.914   1.762 -0.7474 -0.0380  0.6081
 5933SOL     OW28132   4.053   1.529   1.955 -0.4890  0.0157  0.5914
 5933SOL    HW128133   4.116   1.553   2.029 -0.5404  0.0725  0.6158
 5933SOL    HW228134   3.982   1.467   1.991  0.6602 -1.6066  0.1415
 5934SOL     OW28135   9.766   0.063   1.196  0.6411 -0.1749 -0.3465
 5934SOL    HW128136   9.819   0.140   1.232 -0.2574  1.4240 -2.3901
 5934SOL    HW228137   9.742   0.002   1.271  0.9406  1.7824  1.3852
 5935SOL     OW28138   3.454   8.846   1.169  0.0404  0.4730 -0.5636
 5935SOL    HW128139   3.496   8.937   1.168  0.2526  0.3774 -0.1363
 5935SOL    HW228140   3.386   8.841   1.095  0.5372  0.7338 -1.0420
 5936SOL     OW28141   8.084   0.337   1.522  0.1134  0.2095 -0.2567
 5936SOL    HW128142   8.019   0.284   1.468 -0.0945  0.6185 -0.4122
 5936SOL    HW228143   8.145   0.275   1.573 -1.5434 -0.1916  1.2904
 5937SOL     OW28144   1.519   3.742   2.672  0.9341 -0.3299 -0.5330
 5937SOL    HW128145   1.503   3.730   2.574 -0.6701  0.4059 -0.3864
 5937SOL    HW228146   1.566   3.829   2.688  1.3435 -0.5295 -0.6746
 5938SOL     OW28147   1.746   3.135   1.989  0.4944 -0.1372 -0.5258
 5938SOL    HW128148   1.748   3.156   2.087 -0.7602  0.3761 -0.6032
 5938SOL    HW228149   1.747   3.220   1.937  0.1658 -0.3897 -0.9429
 5939SOL     OW28150   9.442   7.860   0.211  0.2335 -0.5375  0.1890
 5939SOL    HW128151   9.348   7.861   0.177  0.9097 -1.5661 -1.7825
 5939SOL    HW228152   9.448   7.917   0.292 -1.7500  0.8595 -0.5975
 5940SOL     OW28153   8.087   9.665   0.132 -0.0487  0.0438  0.3961
 5940SOL    HW128154   8.022   9.711   0.072  0.8850  1.5438  0.5202
 5940SOL    HW228155   8.049   9.661   0.225  0.0791  0.9763  0.4832
 5941SOL     OW28156   1.486   5.201   3.237  0.3559 -0.1733 -0.0391
 5941SOL    HW128157   1.432   5.153   3.306  1.3660 -1.4362 -0.0976
 5941SOL    HW228158   1.519   5.287   3.273 -1.1585  0.3200  0.2118
 5942SOL     OW28159   8.507   6.739   1.781  0.1967  0.3703 -0.4725
 5942SOL    HW128160   8.418   6.698   1.802  1.6383 -2.4560  0.3526
 5942SOL    HW228161   8.524   6.815   1.844 -0.8078 -0.2912  0.6270
 5943SOL     OW28162   2.443   8.169   1.846  0.3222  0.1629  0.5055
 5943SOL    HW128163   2.496   8.157   1.931 -1.0469 -0.5452  1.2713
 5943SOL    HW228164   2.414   8.080   1.812 -0.0268  0.5186 -0.1395
 5944SOL     OW28165   2.985   9.944   0.434  0.5585  0.0824  0.4068
 5944SOL    HW128166   3.015   9.953   0.339  0.5997 -0.6910  0.3478
 5944SOL    HW228167   2.956   9.850   0.452 -0.8009  0.5675  0.7749
 5945SOL     OW28168   0.298   4.199   2.576  0.4481  0.2268 -0.3989
 5945SOL    HW128169   0.199   4.210   2.560  0.4538  0.5952 -0.1680
 5945SOL    HW228170   0.342   4.288   2.578  0.7273  0.0836 -0.0964
 5946SOL     OW28171   3.587   9.015   0.635 -0.5044 -0.3226  0.2105
 5946SOL    HW128172   3.529   9.033   0.556 -0.5106 -0.9859  0.0549
 5946SOL    HW228173   3.586   8.917   0.654  0.1840 -0.2723  0.5004
 5947SOL     OW28174   1.248   5.587   2.992 -0.2033  0.0146 -0.2489
 5947SOL    HW128175   1.170   5.524   2.997  1.0352 -1.5437 -0.1790
 5947SOL    HW228176   1.214   5.681   2.983 -2.0819 -0.6666 -0.5814
 5948SOL     OW28177   9.582   2.519   0.557 -0.1651 -0.7342  0.1854
 5948SOL    HW128178   9.653   2.493   0.493 -0.3058 -1.1120  0.1815
 5948SOL    HW228179   9.518   2.582   0.513  0.1421 -0.4333  0.1758
 5949SOL     OW28180   7.607   0.907   0.499  0.5280 -0.8250  0.1359
 5949SOL    HW128181   7.702   0.880   0.517  0.5068 -1.9307 -1.2857
 5949SOL    HW228182   7.555   0.905   0.584  1.5564 -1.1425  0.7694
 5950SOL     OW28183   3.721   1.115   0.930  0.1561 -0.2652  0.0016
 5950SOL    HW128184   3.644   1.169   0.894  0.1011 -1.1883 -1.3063
 5950SOL    HW228185   3.754   1.157   1.014 -0.8306  0.9847 -0.2093
 5951SOL     OW28186   3.792   4.940   2.349  0.5554 -0.1162 -0.7198
 5951SOL    HW128187   3.728   5.007   2.312  0.1348 -0.4944 -0.6902
 5951SOL    HW228188   3.761   4.848   2.325 -0.4637 -0.4353  1.6647
 5952SOL     OW28189   1.236   0.030   1.801  0.0465  0.3097 -0.4129
 5952SOL    HW128190   1.212  -0.026   1.880 -0.0135  0.2473 -0.4765
 5952SOL    HW228191   1.179   0.004   1.723 -0.8086  1.2891 -0.1130
 5953SOL     OW28192   2.159   7.794   3.166  0.9152  0.2337  0.2096
 5953SOL    HW128193   2.249   7.832   3.146  0.1697  0.8729 -2.1063
 5953SOL    HW228194   2.113   7.852   3.233  1.8387  0.4546  0.6635
 5954SOL     OW28195   3.787   3.398   1.671 -0.1688  0.0781 -0.4094
 5954SOL    HW128196   3.877   3.432   1.645 -0.8439  1.1917 -1.3482
 5954SOL    HW228197   3.753   3.335   1.601 -0.2049 -0.1937 -0.1496
 5955SOL     OW28198   9.276   7.561   0.406 -0.2125  0.3353 -0.3633
 5955SOL    HW128199   9.374   7.544   0.390 -0.1760 -0.1598  0.3684
 5955SOL    HW228200   9.222   7.490   0.362 -0.0956 -1.2248  1.9513
 5956SOL     OW28201   1.437   0.535   2.263 -0.0702  0.0077  0.6038
 5956SOL    HW128202   1.449   0.438   2.280  0.1659  0.1764  1.4644
 5956SOL    HW228203   1.347   0.552   2.224 -0.7030 -0.4005  1.8774
 5957SOL     OW28204   3.708   0.176   3.406  0.2379 -0.2373  0.1457
 5957SOL    HW128205   3.676   0.167   3.500 -0.4448 -0.8562 -0.1410
 5957SOL    HW228206   3.648   0.124   3.345  1.2713 -0.7037 -0.5022
 5958SOL     OW28207   6.501   9.421   2.357  0.1218  0.4428 -0.8379
 5958SOL    HW128208   6.569   9.387   2.421 -1.4853  1.4526  1.4676
 5958SOL    HW228209   6.463   9.344   2.304  0.8305 -0.5123  0.0410
 5959SOL     OW28210   0.289   5.336   2.290 -0.2038 -0.0897  0.2586
 5959SOL    HW128211   0.369   5.346   2.231 -0.6522  0.9063 -0.1896
 5959SOL    HW228212   0.286   5.243   2.327  0.3084 -0.5898 -0.9403
 5960SOL     OW28213   1.967   2.636   2.342 -0.1492  0.4410 -0.0222
 5960SOL    HW128214   1.869   2.650   2.328 -0.1248  0.6076 -0.0357
 5960SOL    HW228215   1.986   2.540   2.360 -0.1593  0.1910 -1.2789
 5961SOL     OW28216   3.719   0.801   1.941 -0.1053 -0.2975 -0.7632
 5961SOL    HW128217   3.677   0.759   1.861 -0.5868  0.6030 -0.9866
 5961SOL    HW228218   3.649   0.845   1.996  0.5023  1.0024 -1.0075
 5962SOL     OW28219   3.032   2.843   0.614  0.1500 -0.0905 -0.3060
 5962SOL    HW128220   3.019   2.756   0.661 -2.0438  0.3437 -0.0549
 5962SOL    HW228221   2.971   2.912   0.655 -0.2824  0.8157 -2.4290
 5963SOL     OW28222   1.678   8.925   2.050 -0.8348 -0.2216 -0.1073
 5963SOL    HW128223   1.591   8.877   2.040 -1.0350 -0.1134  1.0580
 5963SOL    HW228224   1.689   8.956   2.144  0.7607 -0.8231 -0.0671
 5964SOL     OW28225   8.642   3.412   3.159 -0.1348  0.0284 -0.5674
 5964SOL    HW128226   8.666   3.458   3.074 -0.5171  0.9702 -0.1765
 5964SOL    HW228227   8.726   3.383   3.206  0.0834 -0.2462 -1.1254
 5965SOL     OW28228   3.747   2.538   0.205 -0.5214 -0.0771  1.0077
 5965SOL    HW128229   3.667   2.568   0.152  0.2300  2.0184  0.9923
 5965SOL    HW228230   3.753   2.439   0.203 -1.5375 -0.1224 -1.3028
 5966SOL     OW28231   8.410   2.763   0.762 -0.4392 -0.6662  0.2122
 5966SOL    HW128232   8.325   2.808   0.732 -1.1846 -2.8528 -1.0658
 5966SOL    HW228233   8.444   2.809   0.844 -1.1571  2.2163 -1.0237
 5967SOL     OW28234   2.631   1.837   0.504  0.0142  0.3407 -0.0448
 5967SOL    HW128235   2.558   1.782   0.463 -0.3616 -0.4769  1.6948
 5967SOL    HW228236   2.626   1.930   0.468 -0.8194 -0.1443 -1.2307
 5968SOL     OW28237   0.873   3.750   1.857 -0.4930 -1.0385 -0.0052
 5968SOL    HW128238   0.885   3.845   1.884  1.8177 -1.1016 -0.7491
 5968SOL    HW228239   0.825   3.701   1.930 -1.6693  0.6627  0.3975
 5969SOL     OW28240   4.148   4.388   1.154 -0.1778  0.9455  0.3108
 5969SOL    HW128241   4.139   4.325   1.076  1.9488  0.5673  0.3311
 5969SOL    HW228242   4.112   4.344   1.236  1.4696 -0.3645  0.3682
 5970SOL     OW28243   9.254   8.895   1.670  0.0204 -0.2660 -0.1713
 5970SOL    HW128244   9.179   8.875   1.606 -0.0651 -0.8952  0.1217
 5970SOL    HW228245   9.260   8.822   1.738  0.8404 -0.1648 -0.1336
 5971SOL     OW28246   1.330   3.724   1.263  0.2416  0.1991  0.0834
 5971SOL    HW128247   1.394   3.712   1.187 -0.9447 -0.6601 -0.8033
 5971SOL    HW228248   1.261   3.652   1.260 -0.8586  1.1977  0.9218
 5972SOL     OW28249   4.156   4.315   0.585  0.5342  0.2179  0.0446
 5972SOL    HW128250   4.222   4.242   0.569  0.2854  0.0882 -0.4025
 5972SOL    HW228251   4.195   4.383   0.648 -0.0558 -1.3994  2.2130
 5973SOL     OW28252   4.209   0.411   0.735 -0.1103 -0.3503 -1.1322
 5973SOL    HW128253   4.228   0.324   0.689 -0.2988 -0.7664 -0.4373
 5973SOL    HW228254   4.273   0.422   0.811 -1.9305 -1.2426  0.5467
 5974SOL     OW28255   2.379   8.019   2.476 -0.6468  0.0092 -0.0162
 5974SOL    HW128256   2.448   7.949   2.496  0.6154  1.2333 -0.0517
 5974SOL    HW228257   2.340   8.052   2.562 -0.0012  0.5048  0.0855
 5975SOL     OW28258   0.165   5.681   3.146  0.5528  0.3110  0.1542
 5975SOL    HW128259   0.224   5.670   3.067 -0.8892 -0.8130 -0.8021
 5975SOL    HW228260   0.116   5.768   3.140 -0.0844 -0.0929 -0.5643
 5976SOL     OW28261   1.993   0.309   1.199 -0.0838 -0.1836  0.0534
 5976SOL    HW128262   1.912   0.251   1.209  0.5499 -0.6198  3.3872
 5976SOL    HW228263   1.984   0.389   1.258  1.2133  0.5823 -0.7657
 5977SOL     OW28264   6.927   9.865   0.059  0.3669 -0.2509  0.3600
 5977SOL    HW128265   6.828   9.859   0.067  0.2208 -0.7717 -1.4024
 5977SOL    HW228266   6.970   9.800   0.122 -0.3810  0.5031  1.6541
 5978SOL     OW28267   0.322   0.614   3.309  0.0495  0.0999  0.3203
 5978SOL    HW128268   0.235   0.566   3.295  0.3256  0.1477 -1.6349
 5978SOL    HW228269   0.397   0.547   3.311  0.0168  0.0894  1.6831
 5979SOL     OW28270   0.176   6.807   1.035  0.6118 -0.0214  0.1835
 5979SOL    HW128271   0.256   6.755   1.063  0.4240  0.0258  0.8261
 5979SOL    HW228272   0.110   6.809   1.110  0.7175  1.3531  0.2526
 5980SOL     OW28273   2.106   7.917   2.777 -0.2519 -0.6045  0.0710
 5980SOL    HW128274   2.187   7.961   2.815 -0.6947 -0.1018  0.4423
 5980SOL    HW228275   2.083   7.836   2.831 -0.1786 -0.5704  0.1528
 5981SOL     OW28276   0.172   4.687   3.138 -0.2094  0.2354  0.0610
 5981SOL    HW128277   0.131   4.779   3.131 -1.2908 -0.2581 -0.2357
 5981SOL    HW228278   0.130   4.638   3.214 -0.5844 -0.4797 -0.5951
 5982SOL     OW28279   3.459   5.492   2.399 -0.0616 -0.1521 -0.8711
 5982SOL    HW128280   3.546   5.487   2.351 -0.8715 -0.6587 -2.3441
 5982SOL    HW228281   3.456   5.573   2.456  1.9121 -0.8673  0.2856
 5983SOL     OW28282   3.076   1.402   1.597 -0.2143 -0.2840  0.0821
 5983SOL    HW128283   3.119   1.451   1.522  0.7692 -0.6629  0.3758
 5983SOL    HW228284   3.087   1.454   1.682 -2.1384  0.5851 -0.1911
 5984SOL     OW28285   8.757   4.244   0.324  1.2689  0.0136 -0.1502
 5984SOL    HW128286   8.717   4.308   0.390  1.5724 -1.0560  1.0861
 5984SOL    HW228287   8.747   4.150   0.358  2.1967 -0.4874 -1.2288
 5985SOL     OW28288   8.523   2.942   1.010 -0.1920  0.4907  0.3354
 5985SOL    HW128289   8.614   2.941   1.051  0.4630  2.8782 -0.9612
 5985SOL    HW228290   8.461   2.998   1.065 -0.2929  0.6960  0.0128
 5986SOL     OW28291   2.684   1.269   1.764  0.8392  0.5596  0.0287
 5986SOL    HW128292   2.629   1.192   1.733  3.2364 -0.5721 -1.5973
 5986SOL    HW228293   2.716   1.252   1.857  2.1559 -0.9012 -0.6662
 5987SOL     OW28294   6.341   8.245   2.549  0.4400 -0.3388  0.0756
 5987SOL    HW128295   6.356   8.228   2.451 -1.6477 -0.7367 -0.1949
 5987SOL    HW228296   6.355   8.160   2.600  1.5822 -0.1197  0.1509
 5988SOL     OW28297   0.066   5.333   1.507 -0.1069  0.3809 -0.3923
 5988SOL    HW128298  -0.002   5.407   1.502 -1.0384 -0.4166  0.3608
 5988SOL    HW228299   0.028   5.250   1.468  0.4205 -0.0875  0.0852
 5989SOL     OW28300   8.526   3.058   0.288  0.0269  0.1715  0.4760
 5989SOL    HW128301   8.488   3.033   0.199 -0.3737 -1.7886  1.1730
 5989SOL    HW228302   8.578   2.981   0.325  1.7415  1.5972  1.1327
 5990SOL     OW28303   9.767   9.426   0.373 -0.3606 -0.5254  0.4296
 5990SOL    HW128304   9.767   9.464   0.466 -1.6440 -1.4964  0.8420
 5990SOL    HW228305   9.724   9.491   0.311  0.2514  0.0122  0.5663
 5991SOL     OW28306   0.184   9.709   2.930 -0.3773 -0.3477 -0.0058
 5991SOL    HW128307   0.167   9.775   3.003  0.0326  0.1985 -0.3998
 5991SOL    HW228308   0.198   9.757   2.843  1.2256 -0.8663 -0.0596
 5992SOL     OW28309   2.183   5.152   0.439  0.1394  0.2232 -0.0168
 5992SOL    HW128310   2.248   5.195   0.501 -0.9247  1.0908  0.4886
 5992SOL    HW228311   2.228   5.135   0.351  1.1250  0.5764  0.4144
 5993SOL     OW28312   9.663   0.735   3.254 -0.2099 -0.0288 -0.2981
 5993SOL    HW128313   9.633   0.823   3.216  0.4690  0.1314 -0.4796
 5993SOL    HW228314   9.604   0.710   3.331 -0.7019  0.3526 -0.5501
 5994SOL     OW28315   1.082   5.109   1.566  0.4742 -0.4286  0.0373
 5994SOL    HW128316   1.081   5.161   1.651  1.6928 -1.3215  0.6141
 5994SOL    HW228317   1.037   5.021   1.579  1.4582 -0.9431  0.0190
 5995SOL     OW28318   8.440   6.332   0.922 -0.4440  0.0091  0.0962
 5995SOL    HW128319   8.409   6.361   1.013 -0.9990 -0.9544  0.2120
 5995SOL    HW228320   8.414   6.237   0.906  2.7335 -0.9605  0.3375
 5996SOL     OW28321   8.351   8.463   1.999 -0.4239 -0.0527 -0.1153
 5996SOL    HW128322   8.282   8.436   1.932 -0.0379  0.4220 -0.7136
 5996SOL    HW228323   8.410   8.385   2.019 -1.0804 -0.4395  0.3453
 5997SOL     OW28324   2.041   9.508   0.024  0.4122  0.6783 -0.1128
 5997SOL    HW128325   1.958   9.462   0.056 -0.3545  1.9131 -0.3254
 5997SOL    HW228326   2.073   9.463  -0.059 -0.5715  0.7966 -0.5561
 5998SOL     OW28327   3.797   1.019   1.339 -0.3676 -0.8996 -0.1617
 5998SOL    HW128328   3.838   1.099   1.295 -1.5291 -0.2927 -0.1670
 5998SOL    HW228329   3.793   0.943   1.273  0.1457 -0.7594 -0.3553
 5999SOL     OW28330   1.211   6.922   1.657  0.8306 -0.3245  0.0709
 5999SOL    HW128331   1.223   7.018   1.632  1.9997 -0.1203  1.3786
 5999SOL    HW228332   1.300   6.880   1.672  0.3232 -1.6351 -0.5029
 6000SOL     OW28333   4.941   9.792   1.947  0.6606  0.7270  0.4030
 6000SOL    HW128334   4.913   9.705   1.905  0.8390  0.9179 -0.1168
 6000SOL    HW228335   4.939   9.864   1.878 -3.0989  1.9397  1.6433
 6001SOL     OW28336   2.816   4.268   0.521  0.2296 -0.6100 -0.2256
 6001SOL    HW128337   2.769   4.187   0.486  0.1294 -0.5334 -0.2711
 6001SOL    HW228338   2.819   4.338   0.449 -0.4411 -0.2558  0.0832
 6002SOL     OW28339   1.786   0.261   2.587 -0.2265  0.2345 -0.4765
 6002SOL    HW128340   1.852   0.200   2.542  1.0863  0.3942  1.1771
 6002SOL    HW228341   1.774   0.233   2.682 -1.4861  1.0706 -0.3753
 6003SOL     OW28342   3.449   2.110   1.980 -0.0670 -0.0001  0.2310
 6003SOL    HW128343   3.423   2.013   1.975  1.0016 -0.3134  0.7933
 6003SOL    HW228344   3.505   2.126   2.060 -0.2360  1.0976  0.1393
 6004SOL     OW28345   8.489   2.462   2.441 -0.2080  0.3445  0.5774
 6004SOL    HW128346   8.415   2.528   2.455  0.1086  0.6320  0.9068
 6004SOL    HW228347   8.450   2.370   2.436 -0.5858  0.4850  0.8208
 6005SOL     OW28348   3.188   7.526   2.663 -0.0059 -0.5161  0.1751
 6005SOL    HW128349   3.279   7.489   2.646  0.0856  0.0407 -0.5753
 6005SOL    HW228350   3.186   7.571   2.752  0.4759 -0.4726  0.1642
 6006SOL     OW28351   8.785   6.044   0.085 -0.0954  0.2165  0.2452
 6006SOL    HW128352   8.699   6.062   0.133 -0.6364 -1.2287 -0.1654
 6006SOL    HW228353   8.813   5.949   0.102  0.6398  0.2417 -0.8289
 6007SOL     OW28354   2.411   4.945   3.158  0.0705  0.2113 -0.6373
 6007SOL    HW128355   2.437   4.873   3.094 -0.4493 -2.0671  1.6267
 6007SOL    HW228356   2.447   4.924   3.248 -2.6746  1.1806  0.7607
 6008SOL     OW28357   0.910   2.813   2.067  0.6258  0.1753 -0.9055
 6008SOL    HW128358   0.906   2.721   2.029  1.1149  0.1324 -0.8633
 6008SOL    HW228359   0.822   2.858   2.056  0.4767 -0.1887 -1.2048
 6009SOL     OW28360   8.067   7.102   2.879  0.0639 -0.0220 -0.4686
 6009SOL    HW128361   8.020   7.055   2.953 -0.9638 -0.3702 -1.3343
 6009SOL    HW228362   8.126   7.173   2.918 -0.1894 -0.4333  0.7018
 6010SOL     OW28363   3.256   2.818   1.759 -0.6759 -0.5277 -0.4004
 6010SOL    HW128364   3.285   2.724   1.776  0.4396 -0.1149  0.0515
 6010SOL    HW228365   3.313   2.858   1.687 -2.5487 -0.8722 -2.1171
 6011SOL     OW28366   8.644   4.962   0.396  0.0760  0.6766  0.2493
 6011SOL    HW128367   8.554   4.985   0.358 -0.1600  1.0517  1.0185
 6011SOL    HW228368   8.673   5.036   0.458 -0.0088 -0.3957  1.5909
 6012SOL     OW28369   8.108   3.484   1.151  0.1949  0.3906  0.2661
 6012SOL    HW128370   8.043   3.410   1.168  0.6308 -0.1544 -0.3951
 6012SOL    HW228371   8.098   3.554   1.222 -0.0452 -0.4240  1.0497
 6013SOL     OW28372   0.974   4.548   2.143 -0.0206 -0.0211 -0.0089
 6013SOL    HW128373   0.926   4.486   2.204 -0.7615 -0.0527 -0.6102
 6013SOL    HW228374   0.912   4.622   2.115  0.1440 -0.2812 -1.1005
 6014SOL     OW28375   1.257   3.673   2.342 -0.0662  0.3422 -0.4041
 6014SOL    HW128376   1.328   3.737   2.370  0.6596 -0.8205  0.4974
 6014SOL    HW228377   1.272   3.646   2.246 -0.9040  2.1850 -1.0667
 6015SOL     OW28378   2.403   6.373   2.699 -0.0023 -0.4920  0.3270
 6015SOL    HW128379   2.469   6.441   2.665 -1.6548  0.9624 -0.0047
 6015SOL    HW228380   2.334   6.355   2.629 -1.8453  0.4592  1.8491
 6016SOL     OW28381   9.314   3.983   2.208 -0.2856 -0.7074  0.4026
 6016SOL    HW128382   9.263   4.066   2.186  0.1330 -0.5743 -0.0711
 6016SOL    HW228383   9.299   3.959   2.304 -0.5754 -0.2071  0.4834
 6017SOL     OW28384   2.074   8.995   1.385 -0.6365 -0.4370 -0.1302
 6017SOL    HW128385   1.986   9.041   1.395 -1.8304 -2.2947 -1.5836
 6017SOL    HW228386   2.130   9.045   1.318 -1.8176 -0.9130 -1.5096
 6018SOL     OW28387   7.841   0.442   2.047 -0.5773  0.2820  0.1121
 6018SOL    HW128388   7.822   0.440   2.145  0.5754  1.9981  0.3940
 6018SOL    HW228389   7.816   0.354   2.007  1.7466 -1.5612  2.4748
 6019SOL     OW28390   9.687   5.907   0.217  0.1064  0.2472 -0.5234
 6019SOL    HW128391   9.764   5.872   0.269  1.0064  0.2109 -1.8601
 6019SOL    HW228392   9.699   5.886   0.120 -1.1696  0.9698 -0.8598
 6020SOL     OW28393   3.809   9.155   0.485 -0.6455  0.1154 -0.2693
 6020SOL    HW128394   3.722   9.120   0.520 -0.3883  0.9846  1.2852
 6020SOL    HW228395   3.857   9.082   0.436 -1.8941 -0.5826 -0.4651
 6021SOL     OW28396   0.529   5.818   3.342 -0.4494  0.7677 -0.2768
 6021SOL    HW128397   0.626   5.835   3.359  0.3683 -1.4364 -2.4616
 6021SOL    HW228398   0.505   5.851   3.251 -1.7331  1.1597  0.1867
 6022SOL     OW28399   9.480   3.701   2.184 -0.2010 -0.0744 -0.3984
 6022SOL    HW128400   9.487   3.800   2.178 -0.9682 -0.0214 -0.4741
 6022SOL    HW228401   9.546   3.659   2.123  1.1610  0.3812  0.7495
 6023SOL     OW28402   2.818   4.713   2.662 -0.1406  0.1423 -0.2986
 6023SOL    HW128403   2.868   4.736   2.745  1.4780 -0.5834 -1.0507
 6023SOL    HW228404   2.728   4.756   2.664  1.0626  2.7328  0.4099
 6024SOL     OW28405   2.378   4.238   0.284  0.4898  0.4520 -0.8367
 6024SOL    HW128406   2.303   4.202   0.228  1.1570 -1.1492 -0.7369
 6024SOL    HW228407   2.380   4.188   0.371  1.5472  0.6168 -0.7660
 6025SOL     OW28408   3.594   9.810   2.687  0.4298  0.2080 -0.3959
 6025SOL    HW128409   3.612   9.842   2.594  1.0202 -0.5169 -0.5452
 6025SOL    HW228410   3.580   9.711   2.686  2.3215 -0.0963  0.5147
 6026SOL     OW28411   8.127   0.786   0.292 -0.0269 -0.0175 -0.2608
 6026SOL    HW128412   8.137   0.854   0.220  1.7073  1.4804  1.3349
 6026SOL    HW228413   8.030   0.761   0.301 -0.7180  2.3778 -0.7544
 6027SOL     OW28414   9.614   4.688   2.297 -0.2362 -0.2316 -0.3166
 6027SOL    HW128415   9.593   4.782   2.323 -1.9112 -0.3770 -1.0401
 6027SOL    HW228416   9.637   4.634   2.378  0.2821  0.6877  0.1496
 6028SOL     OW28417   1.726   9.297   2.926  0.0158  0.3176  0.4523
 6028SOL    HW128418   1.729   9.324   2.830 -1.7012  0.1499  0.3369
 6028SOL    HW228419   1.795   9.226   2.943  0.2040  0.2223 -0.6904
 6029SOL     OW28420   7.941   6.151   3.405 -0.1437 -0.2260  0.5744
 6029SOL    HW128421   7.954   6.221   3.334  0.8497  0.1670  1.1364
 6029SOL    HW228422   7.924   6.063   3.361 -4.9619  0.9335 -0.2002
 6030SOL     OW28423   3.448   4.964   1.251  0.1518 -0.5293  0.0352
 6030SOL    HW128424   3.370   5.018   1.219  0.5612  0.9910  1.5060
 6030SOL    HW228425   3.531   5.019   1.243  0.8244 -1.5408  0.0470
 6031SOL     OW28426   3.767   7.779   2.011 -0.5370  0.0221  0.8443
 6031SOL    HW128427   3.818   7.755   1.929 -0.3055  2.2025  0.3059
 6031SOL    HW228428   3.754   7.879   2.014 -0.9876 -0.0810  3.1904
 6032SOL     OW28429   3.594   3.784   2.521 -0.2276 -0.0018  0.0363
 6032SOL    HW128430   3.604   3.687   2.497 -0.2338  0.1287 -0.4994
 6032SOL    HW228431   3.670   3.812   2.579  1.2239  0.3340 -1.9615
 6033SOL     OW28432   3.140   7.053   2.574 -0.2833  0.1801 -0.2914
 6033SOL    HW128433   3.157   7.119   2.647 -1.7743 -1.7957  1.9231
 6033SOL    HW228434   3.058   7.078   2.524  0.8810  1.6801 -1.5058
 6034SOL     OW28435   2.137   0.728   0.542  0.8207 -0.0358 -0.0605
 6034SOL    HW128436   2.219   0.730   0.599  1.7981 -1.6133 -1.3563
 6034SOL    HW228437   2.093   0.817   0.544  4.0341  1.6623 -1.3981
 6035SOL     OW28438   1.294   9.895   0.574 -0.1364  0.0360  0.2961
 6035SOL    HW128439   1.247   9.965   0.521 -0.0444  0.3389  0.6080
 6035SOL    HW228440   1.246   9.808   0.566  0.5432 -0.2226 -1.2449
 6036SOL     OW28441   5.801   8.433   3.024  0.2797 -0.3768 -0.5984
 6036SOL    HW128442   5.818   8.442   2.926  2.6007  0.1282 -0.1764
 6036SOL    HW228443   5.747   8.351   3.041 -0.1657 -0.4576 -2.2848
 6037SOL     OW28444   2.336   8.044   2.858  0.4210  0.2323 -0.1571
 6037SOL    HW128445   2.356   8.113   2.787  0.2738 -0.6712 -1.0844
 6037SOL    HW228446   2.408   7.975   2.858  0.7969  0.6024  1.0720
 6038SOL     OW28447   7.787   2.199   1.901  0.2715  0.0995 -0.5343
 6038SOL    HW128448   7.819   2.115   1.945 -1.8650 -1.3578 -1.7091
 6038SOL    HW228449   7.844   2.217   1.820  2.1087  0.9877  0.9367
 6039SOL     OW28450   9.636   9.620   0.959  0.7311  0.1389  0.3018
 6039SOL    HW128451   9.658   9.711   0.924  2.6925 -0.2290  0.4925
 6039SOL    HW228452   9.664   9.552   0.892 -0.4641 -0.3329  0.2850
 6040SOL     OW28453   9.455   5.498   1.485  0.0760 -0.3431 -0.2264
 6040SOL    HW128454   9.512   5.418   1.500 -0.8888 -0.9317  0.3847
 6040SOL    HW228455   9.380   5.475   1.423 -0.0168  0.1615 -0.3029
 6041SOL     OW28456   1.328   7.830   2.098  0.1008  0.7617  0.6414
 6041SOL    HW128457   1.239   7.801   2.061 -0.5544  2.1331  1.0997
 6041SOL    HW228458   1.355   7.768   2.172 -0.6912  0.6077  0.8050
 6042SOL     OW28459   0.177   6.337   1.457 -0.3578  0.0762  0.4170
 6042SOL    HW128460   0.264   6.287   1.454 -0.5942 -0.2416 -1.1684
 6042SOL    HW228461   0.195   6.435   1.458 -0.0107  0.0513 -1.8656
 6043SOL     OW28462   9.960   9.964   2.771 -0.5201  0.2028  0.1788
 6043SOL    HW128463   9.864   9.976   2.745 -1.0559 -0.5982  1.7500
 6043SOL    HW228464   9.966   9.945   2.869  1.1456 -1.2011 -0.1731
 6044SOL     OW28465   8.239   7.155   3.127 -0.0717  0.3559 -0.0433
 6044SOL    HW128466   8.251   7.244   3.082 -0.3771  0.6971  0.5435
 6044SOL    HW228467   8.212   7.169   3.222 -0.2985 -0.3711  0.0043
 6045SOL     OW28468   2.598   4.850   1.186  0.0562 -0.2917  0.5211
 6045SOL    HW128469   2.630   4.936   1.224  1.8289 -0.3748 -0.7465
 6045SOL    HW228470   2.535   4.869   1.110  2.9523 -0.0264 -1.9065
 6046SOL     OW28471   9.718   7.551   1.661  0.4489  0.0971  0.3266
 6046SOL    HW128472   9.714   7.645   1.693  0.9529  0.0400  0.5501
 6046SOL    HW228473   9.629   7.508   1.675  0.4654  0.2777  1.0104
 6047SOL     OW28474   2.368   8.839   0.646  0.2581  0.2099 -0.1037
 6047SOL    HW128475   2.339   8.766   0.708 -0.6548  1.5854  1.1359
 6047SOL    HW228476   2.468   8.846   0.648  0.3140 -0.6008  0.2387
 6048SOL     OW28477   5.150   0.029   0.019 -0.6017  0.0929  0.2675
 6048SOL    HW128478   5.235  -0.011  -0.015 -0.6930 -0.1409  0.3151
 6048SOL    HW228479   5.131   0.115  -0.029  0.4069  0.8804  1.2422
 6049SOL     OW28480   2.758   0.185   1.357  0.1470 -0.6089  0.0771
 6049SOL    HW128481   2.810   0.135   1.426 -0.9810 -0.2166  1.2288
 6049SOL    HW228482   2.664   0.197   1.388 -0.0908  0.5557 -1.0343
 6050SOL     OW28483   0.933   8.060   1.611 -0.3738  0.4648 -0.2349
 6050SOL    HW128484   0.943   7.995   1.535 -0.2518  0.0906  0.0988
 6050SOL    HW228485   0.977   8.146   1.587 -1.3110  0.7280 -1.0381
 6051SOL     OW28486   3.628   4.889   0.334  0.2965 -0.3396 -0.4625
 6051SOL    HW128487   3.698   4.823   0.306  0.1294 -0.3207 -0.9266
 6051SOL    HW228488   3.621   4.962   0.265  1.1004  0.6435  0.4753
 6052SOL     OW28489   1.259   6.886   2.312  0.0398 -0.1662  0.5896
 6052SOL    HW128490   1.201   6.967   2.323 -0.2318 -0.1865 -0.5768
 6052SOL    HW228491   1.354   6.911   2.327 -0.1923  0.0411  1.7294
 6053SOL     OW28492   8.425   1.334   2.384 -0.4780  0.2258  0.4945
 6053SOL    HW128493   8.514   1.372   2.408 -0.4931  0.6706 -0.1436
 6053SOL    HW228494   8.361   1.409   2.368 -0.7101 -0.0840 -0.0221
 6054SOL     OW28495   1.951   6.158   2.409 -0.3771  0.4216  0.4618
 6054SOL    HW128496   1.919   6.178   2.317 -0.2389  0.0096  0.3202
 6054SOL    HW228497   1.940   6.238   2.467 -1.3781  0.3808  0.3356
 6055SOL     OW28498   8.856   2.428   1.542  0.3079  0.1596  0.3544
 6055SOL    HW128499   8.906   2.371   1.476 -0.7638 -0.3764 -0.0015
 6055SOL    HW228500   8.808   2.500   1.493  0.3167  0.3688  0.6527
 6056SOL     OW28501   2.880   1.009   1.761 -0.3174  0.4658 -0.0993
 6056SOL    HW128502   2.849   0.976   1.672 -1.1128 -1.5322  0.8883
 6056SOL    HW228503   2.960   1.068   1.749  0.5372 -1.0422 -1.9940
 6057SOL     OW28504   8.853   8.550   0.725  0.1730  0.2798 -0.5577
 6057SOL    HW128505   8.838   8.477   0.659  0.5471  1.1306 -1.5961
 6057SOL    HW228506   8.874   8.510   0.814 -0.2187 -0.8764 -0.9713
 6058SOL     OW28507   7.933   1.655   0.451  0.0368 -0.2759 -0.1050
 6058SOL    HW128508   7.994   1.576   0.457  1.4472  0.8705  1.0933
 6058SOL    HW228509   7.937   1.694   0.359 -2.1733 -2.7432 -1.2943
 6059SOL     OW28510   1.098   9.450   1.865 -0.1768  0.1158  0.0458
 6059SOL    HW128511   1.035   9.430   1.940 -0.3707 -1.4689 -0.5294
 6059SOL    HW228512   1.080   9.542   1.830 -1.5487  0.0277  0.4929
 6060SOL     OW28513   9.683   1.317   1.143  0.5048 -0.1277 -0.1310
 6060SOL    HW128514   9.703   1.237   1.088  1.7319 -0.2234  0.4233
 6060SOL    HW228515   9.700   1.400   1.090  0.0290 -0.2294 -0.4405
 6061SOL     OW28516   8.418   6.934   3.309 -0.4322 -0.3831  0.0071
 6061SOL    HW128517   8.435   6.999   3.383  2.4925  1.7064 -2.3659
 6061SOL    HW228518   8.345   6.969   3.250  0.7765  0.5121 -0.9708
 6062SOL     OW28519   1.014   2.243   3.220 -0.1717 -0.0962 -0.3581
 6062SOL    HW128520   1.028   2.172   3.151 -1.2635 -0.3023 -0.3852
 6062SOL    HW228521   1.059   2.327   3.191 -0.0271 -0.3897 -0.9916
 6063SOL     OW28522   8.406   6.764   1.382  0.0695  0.0832 -0.1159
 6063SOL    HW128523   8.455   6.763   1.294 -0.0775 -0.7781 -0.1944
 6063SOL    HW228524   8.433   6.684   1.435 -0.2666  0.3131  0.3955
 6064SOL     OW28525   8.759   3.000   0.645  0.2240 -0.0100  0.2147
 6064SOL    HW128526   8.718   3.065   0.708 -0.8148 -0.2109 -0.2562
 6064SOL    HW228527   8.747   3.032   0.551 -0.2640 -0.8710 -0.0170
 6065SOL     OW28528   9.478   7.446   1.375 -0.3825  0.2311 -0.0034
 6065SOL    HW128529   9.488   7.425   1.472 -1.3108  3.2258  0.7848
 6065SOL    HW228530   9.459   7.362   1.325  1.7764 -1.6197  2.1314
 6066SOL     OW28531   0.729   9.604   3.087  0.4121  0.5360  0.3837
 6066SOL    HW128532   0.749   9.506   3.092  1.2207  0.6554 -0.3149
 6066SOL    HW228533   0.814   9.655   3.069 -0.1629  1.2635 -0.3503
 6067SOL     OW28534   7.348   9.994   1.555  0.0165  0.1418  0.3649
 6067SOL    HW128535   7.352   9.990   1.654 -0.5917  1.1239  0.4330
 6067SOL    HW228536   7.286   9.924   1.521  2.1910 -1.9155  0.5046
 6068SOL     OW28537   0.692   2.938   2.046 -0.1678  0.4890  0.0204
 6068SOL    HW128538   0.745   3.018   2.073 -1.0200  1.0724 -0.0120
 6068SOL    HW228539   0.596   2.964   2.035 -0.3471 -0.4092 -0.5759
 6069SOL     OW28540   4.908   9.537   1.838 -0.1570  0.2836  0.5688
 6069SOL    HW128541   4.928   9.446   1.875 -0.3600  0.4007  0.9724
 6069SOL    HW228542   4.858   9.527   1.752  1.2340  0.0069 -0.2026
 6070SOL     OW28543   1.421   7.086   1.397  0.2392  0.5806  0.1396
 6070SOL    HW128544   1.334   7.108   1.440  0.6407 -0.0321  1.2793
 6070SOL    HW228545   1.494   7.141   1.438  0.6204 -0.0056  0.2580
 6071SOL     OW28546   3.116   4.002   2.107 -0.0867 -0.3898 -0.1496
 6071SOL    HW128547   3.058   4.015   2.027  0.4265  0.3336 -0.4132
 6071SOL    HW228548   3.181   3.928   2.091 -0.0352 -0.2945 -0.3788
 6072SOL     OW28549   9.868   8.772   3.138  0.0346  0.2178 -0.0542
 6072SOL    HW128550   9.962   8.775   3.104  0.0432 -0.4935 -0.1067
 6072SOL    HW228551   9.805   8.776   3.061  0.0465 -0.8888 -0.1307
 6073SOL     OW28552   8.139   2.438   3.270 -0.3552  0.0024  0.2824
 6073SOL    HW128553   8.180   2.348   3.286  1.7941  0.8488 -0.3268
 6073SOL    HW228554   8.041   2.433   3.290 -0.3425 -2.5433 -0.0490
 6074SOL     OW28555   4.435   4.965   2.051  0.0905  0.1726  0.0006
 6074SOL    HW128556   4.523   4.968   2.004  1.2546 -1.2403  2.0039
 6074SOL    HW228557   4.446   4.921   2.140 -2.1259  2.3956  1.4515
 6075SOL     OW28558   3.606   8.736   0.601 -0.1454  0.0497 -0.7977
 6075SOL    HW128559   3.640   8.669   0.667  0.6462  0.5911 -0.6504
 6075SOL    HW228560   3.660   8.731   0.517 -0.4463  0.1178 -0.9943
 6076SOL     OW28561   0.505   2.692   1.476  0.1431 -0.5658 -0.1016
 6076SOL    HW128562   0.543   2.782   1.453 -0.0673 -0.6328 -0.6987
 6076SOL    HW228563   0.579   2.626   1.485  0.5415  0.1813  2.7415
 6077SOL     OW28564   2.499   0.312   3.035  0.2163 -0.6453 -0.4665
 6077SOL    HW128565   2.422   0.273   2.985  0.2266 -0.8228 -0.3404
 6077SOL    HW228566   2.585   0.279   2.995  0.2514  0.6348 -1.5066
 6078SOL     OW28567   2.536   6.441   3.169 -0.1367 -0.5824  0.0970
 6078SOL    HW128568   2.546   6.368   3.237  0.3020 -0.2305  0.4207
 6078SOL    HW228569   2.470   6.414   3.099 -1.1993 -0.6173  1.1061
 6079SOL     OW28570   8.957   5.406   1.372  0.0769 -0.5272 -0.1312
 6079SOL    HW128571   9.051   5.442   1.374 -0.3871  0.7606 -1.4258
 6079SOL    HW228572   8.933   5.373   1.464  1.8727 -1.0927  0.1625
 6080SOL     OW28573   2.477   0.203   1.437  0.6324 -0.1523 -0.3111
 6080SOL    HW128574   2.461   0.210   1.339 -2.0050  0.9661  0.1789
 6080SOL    HW228575   2.452   0.111   1.469  1.4076 -0.4868 -0.6455
 6081SOL     OW28576   2.784   1.403   2.661  0.0981  0.4445 -0.2350
 6081SOL    HW128577   2.782   1.305   2.641  1.3790  0.0513  1.4571
 6081SOL    HW228578   2.705   1.426   2.718 -0.4035  0.4742 -0.9362
 6082SOL     OW28579   9.337   8.078   3.330  0.0221  0.4016  1.1967
 6082SOL    HW128580   9.355   8.142   3.255 -3.0618  0.5819  0.5467
 6082SOL    HW228581   9.424   8.044   3.367  1.6183  1.6203 -1.3158
 6083SOL     OW28582   8.151   1.379   0.764 -1.2087 -0.2756 -0.1914
 6083SOL    HW128583   8.127   1.472   0.793 -0.1917 -0.0393 -0.0708
 6083SOL    HW228584   8.184   1.328   0.844 -2.0719 -0.8484 -0.1940
 6084SOL     OW28585   1.882   6.745   3.244 -0.1809  0.0232  0.4366
 6084SOL    HW128586   1.891   6.800   3.328 -1.8265  1.3955 -0.2474
 6084SOL    HW228587   1.792   6.702   3.242  0.8603 -2.2441  0.6493
 6085SOL     OW28588   9.950   9.907   0.192  0.1985  0.2050  0.4026
 6085SOL    HW128589  10.007   9.874   0.116  0.3876 -1.3101  1.1985
 6085SOL    HW228590  10.009   9.943   0.264  0.1931 -2.1521  1.5940
 6086SOL     OW28591   1.123   3.207   0.031 -0.1025  0.4921 -0.2016
 6086SOL    HW128592   1.064   3.202   0.112  0.7353  0.6671  0.4295
 6086SOL    HW228593   1.193   3.277   0.046  0.8811 -0.4188 -0.5410
 6087SOL     OW28594   8.279   1.239   2.101  0.2093 -0.1219  0.3862
 6087SOL    HW128595   8.367   1.261   2.144 -0.2300  0.3234  1.0750
 6087SOL    HW228596   8.284   1.258   2.003  0.9396 -0.2822  0.3901
 6088SOL     OW28597   8.527   3.151   3.181  0.4285 -0.3906  0.1070
 6088SOL    HW128598   8.557   3.247   3.176 -0.4534 -0.0524  1.1596
 6088SOL    HW228599   8.531   3.110   3.090  1.9840  0.2854 -0.1523
 6089SOL     OW28600   4.388   2.992   3.193  0.7053 -0.5393  0.4945
 6089SOL    HW128601   4.360   3.083   3.223  1.0018 -0.8756  1.8328
 6089SOL    HW228602   4.437   2.999   3.106 -1.5592  0.2918 -0.7791
 6090SOL     OW28603   1.993   9.337   2.636  0.0078  0.0123  0.0829
 6090SOL    HW128604   2.007   9.395   2.717 -1.3930  0.3170  0.1068
 6090SOL    HW228605   2.006   9.241   2.662  0.1291  0.1461  0.5345
 6091SOL     OW28606   7.986   9.262   1.401 -0.4563 -0.0709 -0.0199
 6091SOL    HW128607   7.996   9.252   1.302 -1.2580 -0.1166 -0.0986
 6091SOL    HW228608   7.986   9.172   1.444  0.9042 -0.0158  0.1321
 6092SOL     OW28609   1.832   8.864   0.725  0.2475 -0.0627  0.4610
 6092SOL    HW128610   1.839   8.935   0.655 -1.2490 -0.5730 -0.2168
 6092SOL    HW228611   1.890   8.787   0.699 -0.0133 -0.0970 -0.0195
 6093SOL     OW28612   1.372   9.280   3.252  0.1053  0.4155 -0.2021
 6093SOL    HW128613   1.283   9.317   3.223 -0.3160 -2.6309 -3.0331
 6093SOL    HW228614   1.358   9.199   3.308  1.1002 -0.2008 -0.8335
 6094SOL     OW28615   4.172   2.932   2.616  0.0443 -0.0955 -0.1943
 6094SOL    HW128616   4.072   2.929   2.616  0.0358  0.1038 -0.7400
 6094SOL    HW228617   4.206   2.928   2.521  0.4707  2.2067 -0.1788
 6095SOL     OW28618   0.591   5.554   3.309  0.2284  0.1939  0.4013
 6095SOL    HW128619   0.620   5.560   3.214 -0.4153 -0.2328  0.1717
 6095SOL    HW228620   0.580   5.646   3.347  0.5724  0.3630  0.0920
 6096SOL     OW28621   8.338   2.848   3.425  0.2957 -0.1299 -0.4519
 6096SOL    HW128622   8.321   2.798   3.509 -2.5021 -0.2742 -1.0605
 6096SOL    HW228623   8.408   2.918   3.441 -2.0365  1.5960  2.6771
 6097SOL     OW28624   1.006   4.337   2.564  0.9209  0.0632 -0.0076
 6097SOL    HW128625   1.103   4.354   2.581  0.9289  1.7271 -1.5927
 6097SOL    HW228626   0.996   4.248   2.519  1.5847 -0.6689  1.2527
 6098SOL     OW28627   1.406   2.863   1.373  0.3092  0.2446 -0.1866
 6098SOL    HW128628   1.399   2.868   1.473 -0.7224  2.6226 -0.3275
 6098SOL    HW228629   1.475   2.928   1.342  2.0691 -1.9365 -0.9095
 6099SOL     OW28630   9.078   7.235   1.712  0.1898  0.0220 -0.0603
 6099SOL    HW128631   9.085   7.265   1.807  2.5811  2.7678 -1.0319
 6099SOL    HW228632   9.169   7.208   1.680 -0.0255  2.0508 -2.4595
 6100SOL     OW28633   2.728   5.769   0.188 -0.2061 -0.2932 -0.1056
 6100SOL    HW128634   2.677   5.690   0.222  1.7882 -1.1500  0.9774
 6100SOL    HW228635   2.766   5.748   0.098 -2.7410  0.7965 -1.4827
 6101SOL     OW28636   0.031   3.728   3.327 -0.1526  0.0137  0.2499
 6101SOL    HW128637  -0.067   3.721   3.345 -0.2542 -2.6159 -1.0989
 6101SOL    HW228638   0.047   3.757   3.233  0.3652  0.9065  0.6066
 6102SOL     OW28639   9.817   8.700   1.396  0.0457 -0.5988  0.0047
 6102SOL    HW128640   9.748   8.744   1.454  0.9681  0.5485  0.2539
 6102SOL    HW228641   9.908   8.716   1.435  0.3888 -3.1022  0.3357
 6103SOL     OW28642   4.307   1.356   0.051  0.0999 -0.5187  0.2223
 6103SOL    HW128643   4.366   1.324   0.125  0.0446  0.0207  0.5060
 6103SOL    HW228644   4.301   1.286  -0.020 -0.9068 -1.5650  1.3290
 6104SOL     OW28645   3.075   6.955   0.055 -0.0869  0.2844  0.3719
 6104SOL    HW128646   3.111   7.047   0.043  0.7762 -0.2027 -0.9161
 6104SOL    HW228647   3.056   6.915  -0.035  1.3540 -1.4823  0.8312
 6105SOL     OW28648   9.695   6.888   2.854 -0.4359 -0.0852  0.1171
 6105SOL    HW128649   9.666   6.970   2.904  0.3015  0.7564 -0.8293
 6105SOL    HW228650   9.696   6.907   2.756 -1.1500 -1.5089 -0.1809
 6106SOL     OW28651   2.954   5.968   2.210 -0.2031 -0.4674 -0.2215
 6106SOL    HW128652   2.983   5.877   2.240  1.0475 -0.6131 -1.7966
 6106SOL    HW228653   3.035   6.027   2.200 -0.8777  0.4191 -0.5103
 6107SOL     OW28654   8.820   0.857   1.813  0.2387 -0.0397  0.4882
 6107SOL    HW128655   8.815   0.919   1.892 -0.1606  0.0800  0.3672
 6107SOL    HW228656   8.733   0.859   1.764  0.7240  0.4038 -0.3527
 6108SOL     OW28657   1.046   9.351   0.521 -0.2886  0.5751  0.4350
 6108SOL    HW128658   1.036   9.336   0.423 -0.2725  0.0549  0.5081
 6108SOL    HW228659   1.142   9.372   0.542 -0.3440  0.9549  0.3069
 6109SOL     OW28660   0.442   2.309   1.674 -0.6102  0.4863 -0.3852
 6109SOL    HW128661   0.477   2.352   1.757  1.3288 -1.5427 -0.0937
 6109SOL    HW228662   0.516   2.301   1.607 -1.3562 -0.8365 -1.0682
 6110SOL     OW28663   9.219   3.540   0.980  0.2053 -0.3814  0.1116
 6110SOL    HW128664   9.194   3.585   1.065 -0.1422 -0.6638  0.1570
 6110SOL    HW228665   9.313   3.565   0.956 -0.5901  1.8380 -0.8212
 6111SOL     OW28666   9.123   8.469   3.417  0.0900 -0.5136 -0.0495
 6111SOL    HW128667   9.091   8.443   3.326  2.5651  1.7614 -1.6544
 6111SOL    HW228668   9.089   8.561   3.439 -0.3747 -0.9918  1.2839
 6112SOL     OW28669   9.214   1.522   1.828 -0.4710  0.5442 -0.3660
 6112SOL    HW128670   9.162   1.588   1.882 -0.6012  0.2459 -0.1263
 6112SOL    HW228671   9.312   1.536   1.844 -0.5152  0.2922  0.1428
 6113SOL     OW28672   6.308   8.159   2.270  0.3731  0.4080  0.1153
 6113SOL    HW128673   6.282   8.237   2.213  3.1799  0.9164 -0.5823
 6113SOL    HW228674   6.229   8.101   2.287 -1.2676  2.1994 -1.2861
 6114SOL     OW28675   1.045   8.332   3.185 -0.6030  0.5432  0.0996
 6114SOL    HW128676   1.133   8.379   3.196  0.1084 -1.1677  2.2094
 6114SOL    HW228677   1.059   8.245   3.139 -1.0591 -0.1081  1.1722
 6115SOL     OW28678   3.777   0.813   1.164  0.8732 -0.2601  0.3355
 6115SOL    HW128679   3.846   0.785   1.231  1.3931 -1.5403 -0.7276
 6115SOL    HW228680   3.821   0.845   1.081  0.2055  0.5232  0.2680
 6116SOL     OW28681   0.061   3.586   0.801 -0.3387  0.2205 -0.1913
 6116SOL    HW128682   0.025   3.628   0.718 -0.2237 -0.4288 -0.5724
 6116SOL    HW228683   0.106   3.500   0.778 -3.4179 -1.7815  0.9234
 6117SOL     OW28684   1.655   9.717   1.642 -0.4984  0.3473 -0.0876
 6117SOL    HW128685   1.578   9.727   1.704 -0.5322  1.0333 -0.2342
 6117SOL    HW228686   1.661   9.622   1.611 -0.1449 -0.1139  1.3800
 6118SOL     OW28687   4.248   9.563   3.380 -0.3805 -0.5192 -0.5679
 6118SOL    HW128688   4.343   9.589   3.401 -0.5196 -1.2663  1.1020
 6118SOL    HW228689   4.248   9.477   3.330 -0.2316 -1.2600  0.7022
 6119SOL     OW28690   2.299   9.683   2.919  0.3567 -0.3195  0.0465
 6119SOL    HW128691   2.327   9.719   2.829 -0.6383 -0.0068 -0.1372
 6119SOL    HW228692   2.367   9.617   2.950  3.0300  2.7681  1.0577
 6120SOL     OW28693   1.582   9.243   0.566  0.0646 -0.1123 -0.0580
 6120SOL    HW128694   1.661   9.205   0.614 -0.3377  1.2619  1.7722
 6120SOL    HW228695   1.510   9.265   0.632 -0.3392  2.2503 -1.1967
 6121SOL     OW28696   3.132   9.777   1.494  1.0197  0.2393 -0.4570
 6121SOL    HW128697   3.113   9.744   1.401  1.3868  1.1033 -0.8431
 6121SOL    HW228698   3.089   9.716   1.560 -2.3134  1.6407 -1.2657
 6122SOL     OW28699   2.695   2.001   2.414  0.1419  0.0107 -0.1976
 6122SOL    HW128700   2.790   2.028   2.402  0.0815  0.1641 -0.3370
 6122SOL    HW228701   2.658   2.044   2.496  0.9821 -2.1858  1.3699
 6123SOL     OW28702   8.085   1.384   0.503  0.5426  0.3935  0.1521
 6123SOL    HW128703   8.114   1.376   0.599  1.3434 -0.3683 -0.1521
 6123SOL    HW228704   7.999   1.335   0.490  0.3339  0.6555  0.5215
 6124SOL     OW28705   6.599   9.425   2.006 -0.4867  0.1826 -0.8973
 6124SOL    HW128706   6.533   9.499   2.009 -0.9999 -0.2408 -1.4933
 6124SOL    HW228707   6.676   9.451   1.948 -0.1187  0.6900 -0.1752
 6125SOL     OW28708   2.889   6.300   1.170 -0.2797  0.2690  0.0125
 6125SOL    HW128709   2.820   6.368   1.193  0.3980  0.6667  0.9110
 6125SOL    HW228710   2.946   6.333   1.095 -1.9919 -0.6903 -1.7527
 6126SOL     OW28711   9.808   3.845   1.951 -0.4898  0.0388  1.2717
 6126SOL    HW128712   9.725   3.803   1.916 -0.0140  0.9477 -1.0036
 6126SOL    HW228713   9.888   3.807   1.904  0.1261  1.5492  1.0591
 6127SOL     OW28714   7.223   0.080   0.192 -0.1616 -0.5102  0.3990
 6127SOL    HW128715   7.132   0.082   0.151  0.9899 -0.9819 -2.3615
 6127SOL    HW228716   7.225   0.136   0.274 -2.4761  0.9223 -0.4861
 6128SOL     OW28717   9.938   3.042   0.826  0.5280 -0.3768  0.0084
 6128SOL    HW128718   9.860   3.010   0.772  0.7813 -1.5987  0.3619
 6128SOL    HW228719   9.944   2.990   0.911  3.4615 -2.3450 -1.3277
 6129SOL     OW28720   1.337   8.839   1.193 -0.7571  0.7157 -0.5239
 6129SOL    HW128721   1.322   8.752   1.239  1.0177 -0.8962 -2.8233
 6129SOL    HW228722   1.409   8.890   1.241 -0.9870  0.3831  0.1782
 6130SOL     OW28723   2.976   1.772   3.230  0.2584 -0.6126 -0.5597
 6130SOL    HW128724   3.035   1.843   3.266  0.0988 -0.5542 -0.4168
 6130SOL    HW228725   3.008   1.746   3.138  0.5640 -0.6521 -0.4445
 6131SOL     OW28726   1.040   9.087   1.093 -0.1883  0.5267 -0.4241
 6131SOL    HW128727   1.073   9.147   1.166 -0.7311  1.8662 -1.2627
 6131SOL    HW228728   0.966   9.029   1.129 -1.5677  2.3125 -0.3090
 6132SOL     OW28729   0.745   5.153   1.694 -0.0349  0.0490  0.1671
 6132SOL    HW128730   0.754   5.227   1.627 -0.0477 -0.2888 -0.2088
 6132SOL    HW228731   0.695   5.186   1.774  0.5780  0.6495  0.3034
 6133SOL     OW28732   1.804   7.250   3.070 -0.5013  0.8291  0.2288
 6133SOL    HW128733   1.761   7.166   3.036 -1.2788  1.5528 -0.5920
 6133SOL    HW228734   1.811   7.245   3.170  0.4124 -0.6514  0.1178
 6134SOL     OW28735   3.082   6.176   2.522 -0.1855 -0.0994 -0.4011
 6134SOL    HW128736   3.050   6.220   2.605  2.0540 -0.1426  0.5067
 6134SOL    HW228737   3.050   6.081   2.520 -1.9236  0.4659 -0.5994
 6135SOL     OW28738   8.794   6.556   0.601  0.1766 -0.0542  0.1296
 6135SOL    HW128739   8.781   6.488   0.673  0.4526  0.2136  0.4373
 6135SOL    HW228740   8.862   6.623   0.631  1.1445 -0.5839 -0.8342
 6136SOL     OW28741   9.949   5.259   1.135  0.3802  0.4118  0.2303
 6136SOL    HW128742   9.959   5.223   1.228 -2.3321 -0.6526  0.1846
 6136SOL    HW228743   9.913   5.352   1.139  0.3525  0.4015  0.2495
 6137SOL     OW28744   0.987   5.097   3.360  0.5421 -0.3031 -0.1191
 6137SOL    HW128745   0.967   5.191   3.334  1.6064 -0.0962 -0.1974
 6137SOL    HW228746   0.969   5.036   3.282  0.4970 -0.0920 -0.2736
 6138SOL     OW28747   3.756   8.693   3.404  0.1770  0.1141  0.3902
 6138SOL    HW128748   3.792   8.637   3.479  1.1033 -2.1783 -1.7255
 6138SOL    HW228749   3.831   8.744   3.362  0.0135 -0.2817 -0.3789
 6139SOL     OW28750   4.266   3.543   3.208  0.3143  0.0177 -0.0065
 6139SOL    HW128751   4.276   3.631   3.161 -0.6463  0.2222  0.1622
 6139SOL    HW228752   4.349   3.524   3.261 -0.0467  1.4971  1.1100
 6140SOL     OW28753   2.032   6.346   3.011  0.2206 -0.4355 -0.0300
 6140SOL    HW128754   2.104   6.281   2.986 -0.6332 -1.5228  0.3106
 6140SOL    HW228755   1.961   6.298   3.063 -0.3676  0.7951  0.3031
 6141SOL     OW28756   9.342   2.575   3.042 -0.2702  0.0498 -0.2017
 6141SOL    HW128757   9.299   2.548   2.956 -0.5262  1.8073 -0.6368
 6141SOL    HW228758   9.276   2.626   3.098 -0.0409 -0.8933  0.9432
 6142SOL     OW28759   1.447   7.871   1.845 -0.2834  0.5557 -0.1970
 6142SOL    HW128760   1.508   7.796   1.821  0.4695  0.9149  0.5279
 6142SOL    HW228761   1.402   7.851   1.932 -1.2484  0.2697 -0.7581
 6143SOL     OW28762   8.906   7.980   1.090 -0.4779  0.9941  0.2031
 6143SOL    HW128763   8.893   7.985   1.189 -1.0782  0.6171  0.1441
 6143SOL    HW228764   8.902   8.073   1.052 -1.6862  1.0160  0.3589
 6144SOL     OW28765   1.091   2.490   1.474  0.2144 -0.2039 -0.1941
 6144SOL    HW128766   1.185   2.457   1.483 -0.6876 -3.2373 -1.1727
 6144SOL    HW228767   1.083   2.550   1.395  0.8893 -1.7053 -1.4135
 6145SOL     OW28768   9.365   6.758   2.607 -0.4473 -0.1981 -0.1700
 6145SOL    HW128769   9.353   6.678   2.665 -1.1900  0.1566  0.1761
 6145SOL    HW228770   9.309   6.833   2.642 -1.5743 -0.2360 -1.8079
 6146SOL     OW28771   0.266   1.318   1.091 -0.6262 -0.3607 -0.0271
 6146SOL    HW128772   0.354   1.289   1.052  0.0613  0.1221  1.1319
 6146SOL    HW228773   0.247   1.412   1.064 -1.5252 -0.9645 -1.5228
 6147SOL     OW28774   8.405   2.357   1.526  0.6223 -0.1537 -0.2098
 6147SOL    HW128775   8.465   2.280   1.502  0.9995 -0.5997  2.0613
 6147SOL    HW228776   8.325   2.322   1.575  0.1692  0.7852 -0.2794
 6148SOL     OW28777   0.627   4.411   0.630 -0.8997 -0.4638 -0.2240
 6148SOL    HW128778   0.671   4.416   0.719 -0.0583  0.6331 -0.6834
 6148SOL    HW228779   0.647   4.322   0.588 -1.6825 -1.1590  0.8616
 6149SOL     OW28780   9.646   3.820   0.397 -0.2746  0.3403  0.5142
 6149SOL    HW128781   9.675   3.809   0.302 -0.6268 -1.1404  0.5720
 6149SOL    HW228782   9.555   3.781   0.409 -0.2635  0.5902  1.4350
 6150SOL     OW28783   1.042   2.750   2.298 -0.3285 -0.0685  0.5021
 6150SOL    HW128784   1.141   2.768   2.291 -0.3250 -0.0777  0.5308
 6150SOL    HW228785   0.997   2.787   2.217 -0.5232  1.4773  1.3044
 6151SOL     OW28786   8.054   2.211   2.065 -0.3721  0.1080 -0.2709
 6151SOL    HW128787   8.052   2.288   2.002  0.0845  2.1023  2.0931
 6151SOL    HW228788   7.968   2.208   2.117 -0.1360 -0.6053  0.0861
 6152SOL     OW28789   4.764   7.785   1.285  0.6027 -0.1457 -0.0772
 6152SOL    HW128790   4.842   7.831   1.242 -0.1480  0.7628 -0.4631
 6152SOL    HW228791   4.773   7.686   1.272  1.6400 -0.0402 -0.2024
 6153SOL     OW28792   2.135   5.353   1.704 -0.0619  0.2466 -0.0422
 6153SOL    HW128793   2.070   5.278   1.718  0.3052  0.1040  0.9173
 6153SOL    HW228794   2.158   5.358   1.607 -0.0736 -0.9051 -0.1167
 6154SOL     OW28795   0.961   1.219   2.398 -0.2924  0.0078 -0.0706
 6154SOL    HW128796   1.049   1.260   2.424 -0.2970 -0.6596  1.0322
 6154SOL    HW228797   0.886   1.276   2.431 -0.2864 -0.1717  0.2524
 6155SOL     OW28798   9.502   8.129   2.072  0.0817 -0.1216  0.0912
 6155SOL    HW128799   9.420   8.150   2.018 -0.7021 -0.5614  1.0953
 6155SOL    HW228800   9.476   8.111   2.167  1.2657 -0.9591  0.2698
 6156SOL     OW28801   2.782   7.808   0.145 -0.0081 -0.0685  0.0537
 6156SOL    HW128802   2.698   7.810   0.091 -1.3754  3.0665  2.1046
 6156SOL    HW228803   2.849   7.871   0.105  0.2729 -0.3844  0.0296
 6157SOL     OW28804   8.691   9.854   1.566  0.3893  0.0590  0.0929
 6157SOL    HW128805   8.678   9.821   1.659 -0.0864 -1.5284 -0.5103
 6157SOL    HW228806   8.789   9.859   1.546  0.5178  1.4319  1.0143
 6158SOL     OW28807   4.854   2.627   1.414  0.0914 -0.4423 -0.2677
 6158SOL    HW128808   4.832   2.724   1.403  0.2325 -0.1652  1.7912
 6158SOL    HW228809   4.795   2.587   1.484 -0.3854 -2.0138 -1.5331
 6159SOL     OW28810   9.128   5.770   0.233  0.0329 -0.1225 -0.2398
 6159SOL    HW128811   9.164   5.678   0.249 -0.5080 -0.1458  0.8609
 6159SOL    HW228812   9.142   5.826   0.314  0.6900  0.8927 -1.0251
 6160SOL     OW28813   8.750   3.011   1.122 -0.7340 -0.5630 -0.6656
 6160SOL    HW128814   8.816   2.959   1.068 -1.8898 -0.3127 -2.3450
 6160SOL    HW228815   8.780   3.106   1.128  0.4033 -0.9918  0.8206
 6161SOL     OW28816   8.826   6.763   2.213 -0.1965 -0.3808 -0.0767
 6161SOL    HW128817   8.768   6.714   2.148 -0.4402 -0.1092 -0.0645
 6161SOL    HW228818   8.775   6.840   2.253  0.2733  0.0625 -0.3175
 6162SOL     OW28819   9.788   0.418   2.646  0.1012  0.3766  0.1915
 6162SOL    HW128820   9.810   0.339   2.588 -0.3662  1.8745 -2.1238
 6162SOL    HW228821   9.867   0.443   2.701 -0.0879 -2.3568  1.7631
 6163SOL     OW28822   0.566   3.255   0.605  0.0566 -0.0779 -0.0658
 6163SOL    HW128823   0.532   3.348   0.593 -0.8413 -0.1309  1.9400
 6163SOL    HW228824   0.502   3.191   0.562 -0.8284  0.0438  1.0374
 6164SOL     OW28825   0.342   5.876   2.756 -0.0367 -0.2814  0.4335
 6164SOL    HW128826   0.431   5.903   2.793 -0.6879  0.4849  1.4956
 6164SOL    HW228827   0.336   5.904   2.661  0.2788  1.0647  0.7931
 6165SOL     OW28828   9.052   4.605   2.892 -0.0211  0.8236 -0.3427
 6165SOL    HW128829   9.052   4.605   2.992  1.6883  0.0226 -0.3317
 6165SOL    HW228830   9.136   4.649   2.859 -0.8901  1.6806 -1.4293
 6166SOL     OW28831   8.629   6.471   1.800 -0.0933  0.3262  0.5919
 6166SOL    HW128832   8.591   6.552   1.756 -0.5237  1.1027  2.3499
 6166SOL    HW228833   8.728   6.479   1.806 -0.1214  0.6560  0.6194
 6167SOL     OW28834   0.771   8.592   0.062 -0.2715 -0.0972  0.6052
 6167SOL    HW128835   0.697   8.634   0.114 -0.0178  0.4863  0.5072
 6167SOL    HW228836   0.859   8.614   0.106 -0.1497 -0.6850  0.6579
 6168SOL     OW28837   2.644   2.368   0.519  0.2888 -0.0404  0.3613
 6168SOL    HW128838   2.675   2.407   0.432 -1.0487  0.0825 -0.0716
 6168SOL    HW228839   2.715   2.309   0.556  0.4031 -1.0625 -1.4270
 6169SOL     OW28840   8.547   5.060   3.036 -0.0647 -0.3135 -0.5344
 6169SOL    HW128841   8.501   5.107   3.111 -0.3529 -1.8624  0.2882
 6169SOL    HW228842   8.582   5.127   2.971  0.5444  1.0896  1.1812
 6170SOL     OW28843   1.374   3.271   0.880 -0.3598  0.6753 -0.6414
 6170SOL    HW128844   1.467   3.306   0.889 -0.5242  0.6327  1.4590
 6170SOL    HW228845   1.309   3.347   0.878 -0.3510  0.6705 -1.1398
 6171SOL     OW28846   2.351   2.718   3.422 -0.4474 -0.0932  0.2495
 6171SOL    HW128847   2.439   2.759   3.448 -0.8069  0.3538  0.7740
 6171SOL    HW228848   2.361   2.618   3.422  0.2552 -0.0306 -0.4140
 6172SOL     OW28849   1.649   5.517   1.086 -0.2303  0.4530 -0.0618
 6172SOL    HW128850   1.701   5.594   1.049  1.6935 -0.0556  1.4894
 6172SOL    HW228851   1.588   5.481   1.016  0.5073  1.9460 -1.4990
 6173SOL     OW28852   2.388   3.987   1.916  0.2287  0.3222 -0.0072
 6173SOL    HW128853   2.439   3.974   1.830  1.1333  0.6869  0.4675
 6173SOL    HW228854   2.360   3.898   1.951 -0.8499  0.2189 -1.0994
 6174SOL     OW28855   3.697   9.624   2.972 -0.0541 -0.3441  0.5248
 6174SOL    HW128856   3.622   9.686   2.995  1.4101  1.1387  1.4032
 6174SOL    HW228857   3.770   9.634   3.040  1.9073 -0.1072 -1.5943
 6175SOL     OW28858   9.589   4.077   2.197 -0.4679 -0.5070 -0.5629
 6175SOL    HW128859   9.492   4.061   2.182 -0.5746 -1.2291  0.8610
 6175SOL    HW228860   9.604   4.172   2.224 -0.6767 -0.1912 -1.5159
 6176SOL     OW28861   4.296   9.795   3.230 -0.1704  0.1266 -0.5783
 6176SOL    HW128862   4.276   9.701   3.258  2.1243  0.0574  1.0233
 6176SOL    HW228863   4.360   9.794   3.153  1.0100  0.3583  0.3809
 6177SOL     OW28864   2.685   0.685   1.255 -0.4923  0.0958  0.0831
 6177SOL    HW128865   2.743   0.603   1.253  0.6056  0.8736 -0.7300
 6177SOL    HW228866   2.627   0.683   1.336  0.9219 -0.5291  1.0933
 6178SOL     OW28867   3.109   9.427   3.143  0.1198  0.2649 -0.4155
 6178SOL    HW128868   3.045   9.371   3.091  1.0184 -0.4598 -0.7576
 6178SOL    HW228869   3.115   9.517   3.102 -1.3970  0.6610  0.1794
 6179SOL     OW28870   8.730   1.073   0.780  0.0808 -0.2286  0.2008
 6179SOL    HW128871   8.632   1.054   0.782  0.0872 -0.2205  1.1461
 6179SOL    HW228872   8.771   1.034   0.697 -0.7391 -0.1210 -0.2542
 6180SOL     OW28873   6.845   9.341   1.919 -0.3318 -0.0855  0.0391
 6180SOL    HW128874   6.923   9.376   1.970 -0.6685 -0.7229  1.0053
 6180SOL    HW228875   6.820   9.251   1.952 -1.2995 -0.0157 -0.4539
 6181SOL     OW28876   3.835   7.659   2.251  0.2171  0.1747  0.4042
 6181SOL    HW128877   3.930   7.644   2.225  0.6324 -0.6151  2.3292
 6181SOL    HW228878   3.785   7.697   2.173  1.5047 -1.8265 -1.4464
 6182SOL     OW28879   0.368   0.067   2.839 -0.1623 -0.5955  0.5172
 6182SOL    HW128880   0.351  -0.011   2.780  0.8294 -0.6000  0.2196
 6182SOL    HW228881   0.309   0.143   2.813 -3.2363 -2.1567  2.6775
 6183SOL     OW28882   9.680   7.239   0.424  0.1313 -0.2238  0.3391
 6183SOL    HW128883   9.769   7.218   0.384 -0.5476 -2.5112 -0.0402
 6183SOL    HW228884   9.689   7.243   0.524  0.5124 -1.2339  0.3516
 6184SOL     OW28885   1.033   0.629   0.136  0.1745 -0.0835  0.2098
 6184SOL    HW128886   1.016   0.725   0.159 -0.5417 -0.3368  0.7573
 6184SOL    HW228887   0.953   0.575   0.162 -0.6093 -0.4119 -2.6339
 6185SOL     OW28888   9.300   7.725   2.295 -0.2079 -0.0989 -0.4584
 6185SOL    HW128889   9.354   7.725   2.380  4.7157  0.3783 -3.3976
 6185SOL    HW228890   9.272   7.632   2.274 -0.5315 -0.3782  1.1022
 6186SOL     OW28891   2.585   1.802   0.055  0.3716  0.3239 -0.3205
 6186SOL    HW128892   2.595   1.899   0.035 -2.3880  0.3462 -1.7540
 6186SOL    HW228893   2.608   1.749  -0.027  1.8195 -0.2587  0.4407
 6187SOL     OW28894   0.806   0.099   2.162 -0.2023  0.3263  0.2153
 6187SOL    HW128895   0.804   0.093   2.062  0.5607 -0.0630  0.2198
 6187SOL    HW228896   0.715   0.122   2.196 -0.2030  1.6290 -0.6393
 6188SOL     OW28897   3.321   3.798   0.603  0.2249 -0.2805  0.7743
 6188SOL    HW128898   3.325   3.888   0.560  1.3196  0.5621  2.5738
 6188SOL    HW228899   3.256   3.740   0.554 -1.0737  1.7352  0.0671
 6189SOL     OW28900   2.882   8.283   1.876 -0.3923  0.0623  0.6595
 6189SOL    HW128901   2.884   8.381   1.895 -0.4267  0.2894 -0.4470
 6189SOL    HW228902   2.814   8.265   1.804  0.6355 -0.5767 -0.1718
 6190SOL     OW28903   1.064   3.765   1.055 -0.0005  0.5216 -0.3697
 6190SOL    HW128904   1.139   3.764   1.122 -1.2624 -1.1907  1.0592
 6190SOL    HW228905   1.037   3.859   1.037  1.4618  1.0855  0.2819
 6191SOL     OW28906   0.848   3.125   0.916 -0.1329 -0.1411  0.2713
 6191SOL    HW128907   0.872   3.089   1.005  0.1411 -0.1050  0.2113
 6191SOL    HW228908   0.927   3.122   0.855  0.1175  1.2807  0.4969
 6192SOL     OW28909   2.813   8.720   2.237  0.2831 -0.2078 -0.3417
 6192SOL    HW128910   2.745   8.775   2.188 -0.5769 -1.3874 -0.4865
 6192SOL    HW228911   2.767   8.667   2.308  0.9357 -1.6350 -0.9758
 6193SOL     OW28912   1.840   1.840   3.071  0.3159 -0.1667  0.5802
 6193SOL    HW128913   1.785   1.891   3.005  2.4770  1.6550  0.1146
 6193SOL    HW228914   1.859   1.749   3.035  2.0232  1.0277 -1.6872
 6194SOL     OW28915   1.620   3.787   1.607 -0.0649 -0.1751  0.4532
 6194SOL    HW128916   1.554   3.836   1.666 -0.5056  1.7681 -1.5663
 6194SOL    HW228917   1.574   3.709   1.564 -1.0476  1.0484 -0.7851
 6195SOL     OW28918   3.352   5.591   0.888  0.6281  0.1063 -0.1594
 6195SOL    HW128919   3.333   5.543   0.974  0.4448  1.1409  0.3922
 6195SOL    HW228920   3.428   5.547   0.841  1.2019 -0.0287  0.8871
 6196SOL     OW28921   0.557   1.015   0.625 -0.0237 -0.6811  0.2387
 6196SOL    HW128922   0.608   0.940   0.667 -2.3629 -2.1528  0.5208
 6196SOL    HW228923   0.514   1.071   0.697  2.1324  1.2818  0.0564
 6197SOL     OW28924   8.272   6.714   1.943 -0.0925 -0.2326  0.1163
 6197SOL    HW128925   8.350   6.752   1.993 -0.7291 -0.4190  1.2658
 6197SOL    HW228926   8.273   6.614   1.952 -1.4530 -0.1425  1.6640
 6198SOL     OW28927   2.850   0.263   3.287 -0.2959 -0.1679  0.1115
 6198SOL    HW128928   2.862   0.238   3.383  0.4988 -0.5878 -0.0924
 6198SOL    HW228929   2.754   0.286   3.271 -0.5971 -0.8705  0.8327
 6199SOL     OW28930   8.595   9.417   1.181  0.6173 -0.4352 -0.2174
 6199SOL    HW128931   8.498   9.408   1.200  0.6919 -0.7389  0.0381
 6199SOL    HW228932   8.610   9.483   1.108  0.3199  0.9486  0.9429
 6200SOL     OW28933   2.831   9.391   1.467  0.7692 -0.2691 -0.4217
 6200SOL    HW128934   2.755   9.352   1.415  1.0918  0.0669 -1.1558
 6200SOL    HW228935   2.829   9.357   1.560 -0.5707  0.1126 -0.3058
 6201SOL     OW28936   3.173   3.469   2.017  0.0223 -0.4782 -0.6659
 6201SOL    HW128937   3.108   3.538   1.989 -0.6705 -0.7053  0.3569
 6201SOL    HW228938   3.266   3.508   2.017 -0.3644  0.4659 -0.0701
 6202SOL     OW28939   8.579   1.447   1.179  0.5567 -0.6571  0.1591
 6202SOL    HW128940   8.673   1.428   1.208  0.4012 -0.3688  0.8645
 6202SOL    HW228941   8.565   1.412   1.086  1.0854 -1.5457  0.4057
 6203SOL     OW28942   3.407   8.240   0.465  0.3092  0.3386 -0.3272
 6203SOL    HW128943   3.479   8.172   0.448  0.4825  0.7773 -1.4133
 6203SOL    HW228944   3.447   8.331   0.467  0.3604  0.3014  2.9816
 6204SOL     OW28945   8.335   0.951   1.381 -0.4171 -0.2615 -0.0638
 6204SOL    HW128946   8.370   0.858   1.371 -0.1926 -0.3979  1.8030
 6204SOL    HW228947   8.396   1.016   1.335  0.2207 -0.8867 -0.0935
 6205SOL     OW28948   8.804   4.054   0.046  0.2855  0.9103 -0.1198
 6205SOL    HW128949   8.828   4.076   0.141 -0.3487  1.1309 -0.0033
 6205SOL    HW228950   8.852   3.972   0.017  1.2188  1.3767  0.0802
 6206SOL     OW28951   2.136   0.663   0.280  0.0336 -0.1660  0.0570
 6206SOL    HW128952   2.060   0.700   0.226  0.2411 -0.9434 -0.7749
 6206SOL    HW228953   2.126   0.691   0.375 -1.1688 -0.0589 -0.0972
 6207SOL     OW28954   9.551   3.267   1.955 -0.0262  0.2275 -0.0777
 6207SOL    HW128955   9.528   3.274   2.052 -0.6842 -0.0785 -0.2086
 6207SOL    HW228956   9.639   3.221   1.945 -0.6596 -1.1128  0.3206
 6208SOL     OW28957   2.867   9.569   3.402  0.2025 -0.2491 -0.6556
 6208SOL    HW128958   2.838   9.487   3.452  1.1615 -0.3064 -0.1811
 6208SOL    HW228959   2.868   9.549   3.304  2.2886 -1.4436 -0.4309
 6209SOL     OW28960   7.865   0.669   0.295  0.0381 -0.1070 -0.3110
 6209SOL    HW128961   7.879   0.624   0.383  2.2551  0.3677 -0.3863
 6209SOL    HW228962   7.875   0.603   0.221 -0.1157 -0.1809 -0.2638
 6210SOL     OW28963   1.577   5.635   2.050  0.2291 -0.2393 -0.3352
 6210SOL    HW128964   1.507   5.702   2.073 -0.4381 -1.0281 -0.0512
 6210SOL    HW228965   1.565   5.554   2.106  2.1803  0.1295  0.6339
 6211SOL     OW28966   3.669   5.691   3.415 -0.2782  0.0867 -0.4113
 6211SOL    HW128967   3.727   5.637   3.476  0.6082  0.6512 -0.7376
 6211SOL    HW228968   3.716   5.704   3.328  0.0046  2.2820  0.0410
 6212SOL     OW28969   2.618   5.052   0.735  0.0698  0.5317 -0.2309
 6212SOL    HW128970   2.668   5.106   0.803  0.0575  1.3073 -0.8392
 6212SOL    HW228971   2.683   4.999   0.680 -0.0449 -1.9688  1.9433
 6213SOL     OW28972   1.459   8.031   2.239  0.3293  0.2543  0.1647
 6213SOL    HW128973   1.440   8.029   2.337  1.7738  0.2125  0.4545
 6213SOL    HW228974   1.448   7.940   2.201  2.0919 -0.2307  0.7615
 6214SOL     OW28975   0.358   7.208   0.772 -0.2586  0.1570 -0.2179
 6214SOL    HW128976   0.338   7.200   0.674  0.2825 -0.7886 -0.2570
 6214SOL    HW228977   0.355   7.117   0.813  2.1186  0.2310  0.1418
 6215SOL     OW28978   3.574   5.250   1.017 -0.5529  0.3596  0.2910
 6215SOL    HW128979   3.628   5.198   1.083  1.0633  1.1529 -0.3664
 6215SOL    HW228980   3.514   5.314   1.065 -0.1767  0.1711  1.0108
 6216SOL     OW28981   3.009   6.826   2.274  0.5640  0.4840 -0.1101
 6216SOL    HW128982   2.970   6.755   2.216  1.7117 -0.3444  0.1079
 6216SOL    HW228983   3.108   6.828   2.263  0.4943  2.5347 -0.6366
 6217SOL     OW28984   3.644   8.512   1.835  0.2150  0.2628 -0.0807
 6217SOL    HW128985   3.696   8.592   1.805  1.4581 -0.8603 -0.9818
 6217SOL    HW228986   3.655   8.438   1.769 -0.0739 -1.0127  1.2626
 6218SOL     OW28987   2.989   9.981   2.236 -0.3022 -0.2315 -0.3042
 6218SOL    HW128988   3.038  10.066   2.255 -0.3125 -0.0654 -1.0162
 6218SOL    HW228989   2.953   9.983   2.143  0.6211 -1.4644 -0.7023
 6219SOL     OW28990   0.353   1.722   0.600 -0.5847  0.0550 -0.3805
 6219SOL    HW128991   0.348   1.706   0.502  1.2040  0.5137 -0.5680
 6219SOL    HW228992   0.286   1.792   0.626 -1.9977 -1.0395 -1.0432
 6220SOL     OW28993   3.804   3.398   2.565  0.2852 -0.0286 -0.6743
 6220SOL    HW128994   3.859   3.416   2.646 -0.8551 -2.8566  0.8321
 6220SOL    HW228995   3.707   3.412   2.587  0.0667  0.4527 -1.9198
 6221SOL     OW28996   0.946   9.810   3.062 -0.3405  0.7486  0.2939
 6221SOL    HW128997   0.929   9.831   2.966 -0.5327  1.7332  0.5336
 6221SOL    HW228998   0.923   9.890   3.118 -0.2890  0.1615  1.1623
 6222SOL     OW28999   9.274   4.823   2.575  0.8914  0.2884  0.4737
 6222SOL    HW129000   9.298   4.740   2.625  0.5222 -0.5513 -0.7111
 6222SOL    HW229001   9.228   4.888   2.636 -0.1461 -0.9882  1.0596
 6223SOL     OW29002   9.563   6.844   2.460 -0.0768 -0.1153  0.5351
 6223SOL    HW129003   9.623   6.877   2.533  1.4461  0.4632 -0.9534
 6223SOL    HW229004   9.478   6.810   2.500  1.5477 -1.7259  2.7867
 6224SOL     OW29005   8.656   2.534   0.822  0.0985  0.0165 -0.2205
 6224SOL    HW129006   8.613   2.611   0.776 -1.5491 -0.1545  0.9685
 6224SOL    HW229007   8.601   2.509   0.902  2.9235  0.4164  1.9310
 6225SOL     OW29008   3.393   5.022   2.687  0.1706  0.6642  0.1291
 6225SOL    HW129009   3.435   5.012   2.777  0.5722 -0.3286 -0.1600
 6225SOL    HW229010   3.366   5.117   2.673  1.8262  1.2028  0.5281
 6226SOL     OW29011   9.708   2.285   1.934 -0.3302 -0.2112 -0.0953
 6226SOL    HW129012   9.634   2.345   1.906 -1.2251 -1.3093 -0.1333
 6226SOL    HW229013   9.721   2.215   1.864  0.8289  0.0538 -0.1488
 6227SOL     OW29014   9.235   0.151   2.162  0.2844 -0.0739 -0.2893
 6227SOL    HW129015   9.317   0.208   2.152  0.4697 -0.0906  1.0436
 6227SOL    HW229016   9.154   0.209   2.157  0.5231  0.7318  3.4548
 6228SOL     OW29017   0.940   3.947   2.033 -0.5846  0.1306  0.0526
 6228SOL    HW129018   0.883   3.994   2.101  1.8188  0.5657  1.8332
 6228SOL    HW229019   0.995   3.877   2.078 -0.3218 -0.8709 -1.7657
 6229SOL     OW29020   2.572   7.859   1.331  0.5135  0.4969  0.0246
 6229SOL    HW129021   2.613   7.822   1.248 -0.1634 -1.7678  0.6679
 6229SOL    HW229022   2.475   7.878   1.315  0.3886  0.0825  0.2922
 6230SOL     OW29023   4.147   7.580   0.692 -0.4361 -0.0091  0.1233
 6230SOL    HW129024   4.154   7.543   0.784 -3.1143 -0.6400  0.1080
 6230SOL    HW229025   4.088   7.660   0.693 -1.4761 -0.7436 -1.2523
 6231SOL     OW29026   2.357   1.297   3.086  0.1524  0.3313 -0.0953
 6231SOL    HW129027   2.411   1.351   3.150 -0.6547  1.4899 -0.3916
 6231SOL    HW229028   2.375   1.200   3.101  2.1499  0.7021 -0.0469
 6232SOL     OW29029   9.158   1.457   0.878  0.0985 -0.0190  0.9465
 6232SOL    HW129030   9.185   1.532   0.938 -1.4683  0.2272  1.3833
 6232SOL    HW229031   9.060   1.464   0.857  0.7390  0.2748 -2.2134
 6233SOL     OW29032   1.167   5.340   1.365 -0.0373 -0.6557 -0.1911
 6233SOL    HW129033   1.210   5.310   1.280 -0.4908 -1.4222 -0.1577
 6233SOL    HW229034   1.108   5.267   1.400 -0.2447 -0.1568  0.5160
 6234SOL     OW29035   1.630   6.612   3.251  0.5536 -0.0826  0.2412
 6234SOL    HW129036   1.555   6.601   3.186  1.1541  0.1022 -0.4928
 6234SOL    HW229037   1.642   6.527   3.302 -0.3943  0.0139  0.6243
 6235SOL     OW29038   0.161   4.536   0.027 -0.0432  0.1891 -0.2617
 6235SOL    HW129039   0.112   4.456   0.059  0.1093 -0.2653 -1.1298
 6235SOL    HW229040   0.260   4.519   0.032  0.0394  1.1276  1.5551
 6236SOL     OW29041   0.087   5.885   2.841  0.1026  0.2933  0.3360
 6236SOL    HW129042   0.074   5.963   2.902  0.5450 -0.4508  1.3887
 6236SOL    HW229043   0.185   5.869   2.827  0.0745 -1.4618  1.9457
 6237SOL     OW29044   8.876   7.227   3.028  0.7240  0.5039  0.9547
 6237SOL    HW129045   8.829   7.267   2.949  3.8937 -0.6614 -1.6213
 6237SOL    HW229046   8.959   7.279   3.047  1.5910 -1.0595  1.5492
 6238SOL     OW29047   9.757   7.697   2.428  0.0982  0.1773 -0.0935
 6238SOL    HW129048   9.753   7.597   2.420  0.7203  0.0882  0.6641
 6238SOL    HW229049   9.668   7.731   2.457  0.4687 -0.3755  1.7926
 6239SOL     OW29050   3.425   3.695   2.087 -0.1835 -0.2916  1.0719
 6239SOL    HW129051   3.429   3.755   2.007  0.9165 -0.7396  0.7815
 6239SOL    HW229052   3.438   3.749   2.170 -1.6950  0.2316  0.9923
 6240SOL     OW29053   4.107   7.684   2.175 -0.5063  0.4204 -0.0307
 6240SOL    HW129054   4.128   7.664   2.080 -0.8115 -1.6178  0.3114
 6240SOL    HW229055   4.191   7.683   2.229 -0.3800  1.1977 -0.2116
 6241SOL     OW29056   0.317   8.909   3.041 -0.3720 -0.5742  0.1573
 6241SOL    HW129057   0.328   8.934   2.945 -0.6303 -1.1221 -0.0127
 6241SOL    HW229058   0.348   8.985   3.099 -0.1851 -0.2598 -0.3551
 6242SOL     OW29059   4.528   9.020   1.847 -0.3729 -0.4459  0.0936
 6242SOL    HW129060   4.542   9.051   1.753  0.7575  0.0894  0.4285
 6242SOL    HW229061   4.589   8.943   1.867 -1.3080 -1.2005  0.0874
 6243SOL     OW29062   8.220   9.672   2.132  0.3843  0.1490 -0.8012
 6243SOL    HW129063   8.165   9.589   2.141  0.6813  0.0064 -0.2494
 6243SOL    HW229064   8.167   9.751   2.162 -0.0642  0.2242 -1.7794
 6244SOL     OW29065   9.438   1.272   2.002 -0.2942 -0.3589 -0.6237
 6244SOL    HW129066   9.346   1.264   2.041 -0.1370  0.0207 -0.1639
 6244SOL    HW229067   9.447   1.361   1.957  1.5359  1.9078  3.9108
 6245SOL     OW29068   2.622   5.969   0.746  0.3286  0.9811  0.2896
 6245SOL    HW129069   2.625   5.951   0.844  2.0741  2.6283  0.5719
 6245SOL    HW229070   2.672   5.898   0.697 -1.1571 -0.2390  0.5069
 6246SOL     OW29071   4.662   9.538   0.593 -0.0004 -0.0144  0.0233
 6246SOL    HW129072   4.752   9.576   0.572  0.0650 -0.2459 -0.1205
 6246SOL    HW229073   4.672   9.464   0.660 -0.2189  0.8036  0.9698
 6247SOL     OW29074   0.538   1.219   1.660  0.0059 -0.0499 -0.2059
 6247SOL    HW129075   0.489   1.256   1.739  0.2994  2.1414 -1.0169
 6247SOL    HW229076   0.472   1.194   1.589 -0.0110  2.2937 -1.0432
 6248SOL     OW29077   9.182   5.137   2.251  0.0717  0.0015  0.6721
 6248SOL    HW129078   9.239   5.131   2.333 -0.0656  0.6866  0.8206
 6248SOL    HW229079   9.136   5.226   2.248 -0.3923 -0.2488  0.1578
 6249SOL     OW29080   0.729   7.978   0.265 -0.1687 -0.1441  0.2297
 6249SOL    HW129081   0.648   7.953   0.318 -0.3399  0.4808  0.2712
 6249SOL    HW229082   0.702   7.996   0.170  0.2911 -2.2915 -0.3517
 6250SOL     OW29083   8.368   7.514   2.198  0.7137  0.2990  0.2881
 6250SOL    HW129084   8.275   7.498   2.167  0.4343 -1.1701  1.8448
 6250SOL    HW229085   8.432   7.482   2.128  0.0787 -0.1977 -0.0680
 6251SOL     OW29086   0.650   2.566   0.900 -0.6507 -0.7077 -0.0056
 6251SOL    HW129087   0.615   2.494   0.840 -1.6560 -1.5349  1.5421
 6251SOL    HW229088   0.668   2.527   0.991  0.3032  0.6493  0.3923
 6252SOL     OW29089   1.809   8.640   2.180  0.0799 -0.4604  0.2424
 6252SOL    HW129090   1.788   8.645   2.082 -0.0879 -1.3764  0.2243
 6252SOL    HW229091   1.907   8.651   2.194 -0.1039  1.3823  0.1172
 6253SOL     OW29092   9.620   0.428   1.289 -0.0786 -0.4561 -0.6353
 6253SOL    HW129093   9.572   0.491   1.227  1.9191  2.4289  0.6339
 6253SOL    HW229094   9.701   0.391   1.243  0.5388  0.4619 -0.2981
 6254SOL     OW29095   1.745   8.148   1.502  0.0292  0.3982 -0.2104
 6254SOL    HW129096   1.727   8.167   1.405 -0.0789 -1.4634 -0.5815
 6254SOL    HW229097   1.678   8.081   1.535  1.1238 -0.2505  0.6927
 6255SOL     OW29098   3.746   0.686   3.262 -0.1054  0.2890 -0.0403
 6255SOL    HW129099   3.653   0.724   3.267 -0.1183  0.0203  3.2667
 6255SOL    HW229100   3.754   0.610   3.327  1.3071 -2.3642 -3.1639
 6256SOL     OW29101   2.057   9.093   2.725 -0.2718 -0.0703 -0.4197
 6256SOL    HW129102   2.126   9.128   2.788  1.5522 -2.5632 -0.9214
 6256SOL    HW229103   2.048   8.994   2.738 -1.0663 -0.3631 -2.8991
 6257SOL     OW29104   2.716   4.468   1.379  0.0723  0.3958  0.4003
 6257SOL    HW129105   2.751   4.388   1.428  0.7117  0.8383  0.6702
 6257SOL    HW229106   2.623   4.450   1.348 -0.3207  0.0738  1.7164
 6258SOL     OW29107   0.415   0.248   2.523  0.2413 -0.4256 -0.3468
 6258SOL    HW129108   0.450   0.186   2.453 -1.2552 -0.1554 -1.3580
 6258SOL    HW229109   0.355   0.315   2.481  0.1906  0.4160  1.0518
 6259SOL     OW29110   4.573   9.407   1.495 -0.3295 -0.1742 -0.4810
 6259SOL    HW129111   4.654   9.451   1.534 -0.2067  0.3978 -1.3669
 6259SOL    HW229112   4.491   9.458   1.521 -0.2592  0.1416 -0.8790
 6260SOL     OW29113   8.709   0.941   2.923 -0.2361 -0.2652  0.2112
 6260SOL    HW129114   8.756   1.028   2.905 -2.3196  0.7094 -0.6521
 6260SOL    HW229115   8.696   0.892   2.837 -2.0246  0.1219  0.2514
 6261SOL     OW29116   1.192   0.959   1.891 -0.4191  0.6482 -0.0067
 6261SOL    HW129117   1.112   0.939   1.834  0.4039  1.0361 -1.3415
 6261SOL    HW229118   1.227   0.874   1.931  1.2533 -0.2433 -3.1797
 6262SOL     OW29119   9.593   2.478   3.061 -0.5295 -0.1785 -0.0195
 6262SOL    HW129120   9.504   2.523   3.070  0.1530  1.1593  0.1633
 6262SOL    HW229121   9.665   2.547   3.055  0.5768 -1.2448  0.6143
 6263SOL     OW29122   9.404   1.359   1.193  0.5046 -0.0360 -0.2188
 6263SOL    HW129123   9.420   1.402   1.281 -0.8487 -1.1556  0.6021
 6263SOL    HW229124   9.473   1.288   1.177  1.6510  1.1836 -0.7582
 6264SOL     OW29125   3.392   4.785   0.940  0.2307 -0.0735 -0.5875
 6264SOL    HW129126   3.371   4.781   0.843  0.5936 -0.3353 -0.6566
 6264SOL    HW229127   3.401   4.881   0.969  0.9883 -0.0149 -1.0027
 6265SOL     OW29128   1.340   3.661   0.506  0.1202 -0.7278 -0.4342
 6265SOL    HW129129   1.307   3.722   0.577  1.9317 -0.1019 -0.0897
 6265SOL    HW229130   1.320   3.566   0.530  2.3714 -0.6661  1.8567
 6266SOL     OW29131   2.093   0.122   1.985  0.0006  0.5190 -0.2536
 6266SOL    HW129132   2.167   0.175   1.943 -0.6864  1.2503 -0.5587
 6266SOL    HW229133   2.068   0.046   1.925  0.0448  0.6743 -0.4712
 6267SOL     OW29134   7.159   9.927   0.569 -0.3115 -0.5499 -0.2854
 6267SOL    HW129135   7.070   9.882   0.557  0.3707 -1.4798 -2.0388
 6267SOL    HW229136   7.151  10.024   0.549 -1.0383 -0.5197  0.1166
 6268SOL     OW29137   7.056   0.089   3.393  0.4618 -0.0671  0.6080
 6268SOL    HW129138   7.148   0.049   3.395  0.8443  0.7825  0.4881
 6268SOL    HW229139   6.988   0.016   3.394  1.1432 -0.7253  0.1283
 6269SOL     OW29140   3.854   8.296   0.086 -0.5366  0.7718 -0.2808
 6269SOL    HW129141   3.770   8.253   0.054 -1.6321  1.9844  0.9465
 6269SOL    HW229142   3.903   8.335   0.008 -0.4878 -0.9821 -1.1566
 6270SOL     OW29143   8.405   2.203   2.476  0.3852  0.0567 -0.1205
 6270SOL    HW129144   8.360   2.205   2.565  1.4870 -1.5124  0.4973
 6270SOL    HW229145   8.336   2.192   2.404 -0.5776  2.1083  0.4560
 6271SOL     OW29146   0.512   5.872   2.436  0.0203  0.5399 -0.2461
 6271SOL    HW129147   0.504   5.793   2.498  1.6022 -1.0383 -1.9745
 6271SOL    HW229148   0.450   5.944   2.466 -1.3090 -1.2664  1.5216
 6272SOL     OW29149   9.578   6.063   3.241 -0.2552  0.2690  0.2111
 6272SOL    HW129150   9.569   5.983   3.300  2.8531 -0.2122  0.0714
 6272SOL    HW229151   9.629   6.135   3.288 -2.1771  1.8394 -0.0262
 6273SOL     OW29152   8.835   0.935   0.548 -0.1912 -0.0399  0.0384
 6273SOL    HW129153   8.932   0.934   0.521 -0.1502  1.2698  0.0862
 6273SOL    HW229154   8.814   0.852   0.599  0.3986 -1.2880 -1.7270
 6274SOL     OW29155   4.920   9.041   3.249 -0.0444  0.0931 -0.2897
 6274SOL    HW129156   4.996   9.080   3.197  0.8811 -0.6073  0.4922
 6274SOL    HW229157   4.957   8.986   3.325 -1.3510  1.1253  1.1351
 6275SOL     OW29158   9.383   4.757   1.655 -0.4119 -0.1083 -0.0277
 6275SOL    HW129159   9.409   4.852   1.640  0.9866 -0.2764  1.2695
 6275SOL    HW229160   9.362   4.743   1.752 -0.1928 -1.2318 -0.1398
 6276SOL     OW29161   8.459   7.039   0.118  0.1699  0.6507  0.0290
 6276SOL    HW129162   8.389   7.083   0.173 -0.8106 -0.4227 -0.3285
 6276SOL    HW229163   8.536   7.013   0.176 -0.6857 -0.1164  0.8325
 6277SOL     OW29164   0.081   0.243   3.093 -0.9592  0.4875 -0.8641
 6277SOL    HW129165   0.160   0.302   3.076 -1.0971  0.3456 -2.0413
 6277SOL    HW229166  -0.003   0.298   3.091 -0.9566  0.5123 -0.3675
 6278SOL     OW29167   0.922   7.636   2.707 -0.7730  0.3315 -0.1550
 6278SOL    HW129168   0.927   7.538   2.725 -1.0647  0.6875  1.9683
 6278SOL    HW229169   0.841   7.655   2.651  0.5382 -0.8853 -2.5480
 6279SOL     OW29170   4.458   9.519   1.037 -0.4692  0.0528  0.1042
 6279SOL    HW129171   4.540   9.572   1.014 -0.9458  0.0569 -1.6091
 6279SOL    HW229172   4.477   9.463   1.118  1.1530  0.2198 -0.1426
 6280SOL     OW29173   4.301   3.335   0.829 -0.4751 -0.6448 -0.1339
 6280SOL    HW129174   4.247   3.405   0.877 -0.2678 -0.6241  0.0678
 6280SOL    HW229175   4.398   3.358   0.836 -0.2708 -1.9707  1.5472
 6281SOL     OW29176   0.054   5.937   1.963 -0.3238  0.6253  0.5896
 6281SOL    HW129177  -0.038   5.919   1.998 -0.4354  1.0895  0.5451
 6281SOL    HW229178   0.118   5.944   2.040 -0.0552 -1.1602  0.5419
 6282SOL     OW29179   0.926   0.318   1.313 -0.1571  0.2681 -0.3811
 6282SOL    HW129180   0.909   0.364   1.401  0.9953 -0.9314  0.5036
 6282SOL    HW229181   1.020   0.336   1.284 -0.0189 -0.6843 -0.5383
 6283SOL     OW29182   2.501   0.809   0.885  0.1698 -0.3797 -0.1712
 6283SOL    HW129183   2.572   0.846   0.944 -0.3685 -0.1970  0.3661
 6283SOL    HW229184   2.523   0.830   0.789 -0.5717  2.1752  0.1696
 6284SOL     OW29185   7.904   7.226   0.200 -0.2821  0.3097  0.0561
 6284SOL    HW129186   7.961   7.154   0.161 -0.8029 -0.8959  1.5052
 6284SOL    HW229187   7.841   7.260   0.130  2.1095  1.6141 -1.5520
 6285SOL     OW29188   9.338   8.255   2.321 -0.6981 -0.5778 -0.2920
 6285SOL    HW129189   9.397   8.331   2.293 -1.2072 -0.1491 -0.2164
 6285SOL    HW229190   9.394   8.176   2.345 -0.2489 -0.8811 -2.3108
 6286SOL     OW29191   2.059   8.631   2.204  0.3472  0.7144  0.5376
 6286SOL    HW129192   2.088   8.670   2.292  0.9029  1.1221  0.1790
 6286SOL    HW229193   2.069   8.700   2.132 -0.5419  0.5306  0.2287
 6287SOL     OW29194   3.810   8.274   2.423 -0.0034  0.0808  0.1350
 6287SOL    HW129195   3.811   8.347   2.355 -1.3109 -0.4065 -0.4227
 6287SOL    HW229196   3.848   8.308   2.509 -3.1972  2.3332  0.7540
 6288SOL     OW29197   4.421   7.546   1.899 -0.1828 -0.0447  0.1735
 6288SOL    HW129198   4.329   7.573   1.872 -0.5634 -0.0024  1.5009
 6288SOL    HW229199   4.431   7.555   1.998  0.5741 -2.0729  0.3040
 6289SOL     OW29200   9.447   3.413   1.307  0.4458 -0.2075  0.0164
 6289SOL    HW129201   9.509   3.363   1.368 -0.3718 -1.0720  0.1483
 6289SOL    HW229202   9.357   3.421   1.350  0.0082 -0.3867 -0.8598
 6290SOL     OW29203   1.751   4.395   2.451  0.4470  0.1781 -0.4039
 6290SOL    HW129204   1.746   4.489   2.486 -0.2881  0.2197 -0.6183
 6290SOL    HW229205   1.838   4.354   2.479  1.5926  1.5277 -1.8372
 6291SOL     OW29206   2.832   9.916   1.978  0.1724 -0.1303 -0.4361
 6291SOL    HW129207   2.880   9.837   1.941 -1.3033 -1.2454 -0.0466
 6291SOL    HW229208   2.733   9.900   1.973 -0.1395  1.5006  0.0631
 6292SOL     OW29209   4.111   1.369   1.283 -0.3809 -0.4090  0.5460
 6292SOL    HW129210   4.122   1.299   1.353 -1.6153 -0.1132  1.0555
 6292SOL    HW229211   4.018   1.366   1.247 -0.3836  0.8229  0.4226
 6293SOL     OW29212   9.113   8.127   0.327 -0.2774 -0.1042  0.1185
 6293SOL    HW129213   9.031   8.071   0.313 -0.8495  0.8677 -0.5656
 6293SOL    HW229214   9.150   8.153   0.237  0.0117  0.5421  0.4216
 6294SOL     OW29215   9.922   7.589   2.658  0.0521 -0.2205 -0.0055
 6294SOL    HW129216   9.928   7.489   2.662  0.5079 -0.2133 -0.4741
 6294SOL    HW229217   9.956   7.621   2.570 -0.7935  0.2948 -0.1534
 6295SOL     OW29218   8.580   9.772   0.003  0.3712 -0.1787  0.0896
 6295SOL    HW129219   8.545   9.683   0.031 -0.4225 -0.0673 -0.5255
 6295SOL    HW229220   8.660   9.796   0.059 -0.1835 -0.6990  1.1129
 6296SOL     OW29221   0.086   7.052   2.368 -0.0625  0.0471 -0.0697
 6296SOL    HW129222   0.054   7.146   2.372  0.8659  0.4582 -1.7112
 6296SOL    HW229223   0.011   6.992   2.341 -0.3846  0.4533 -0.0757
 6297SOL     OW29224   9.586   7.141   2.908 -0.2826  0.3054  0.0111
 6297SOL    HW129225   9.664   7.185   2.953  0.9304 -2.6411  0.8451
 6297SOL    HW229226   9.519   7.212   2.883  3.1028  3.0365 -1.7571
 6298SOL     OW29227   4.004   5.108   1.772  0.2258  0.0200 -0.5375
 6298SOL    HW129228   3.941   5.091   1.695 -1.1284  0.6879  0.4098
 6298SOL    HW229229   3.968   5.065   1.854  0.9267  0.5689  0.0596
 6299SOL     OW29230   1.730   4.693   2.851  0.3020  0.1864 -0.1751
 6299SOL    HW129231   1.743   4.780   2.898 -0.9808  1.0723 -1.3965
 6299SOL    HW229232   1.690   4.627   2.914 -1.2204  1.3029  0.0763
 6300SOL     OW29233   1.678   3.753   0.115 -0.1180  0.3432  0.3855
 6300SOL    HW129234   1.736   3.707   0.048 -0.6460  1.5732 -0.9477
 6300SOL    HW229235   1.590   3.774   0.074 -0.6365  0.6510  1.6349
 6301SOL     OW29236   0.609   4.754   1.225  0.4546  0.1330  0.0158
 6301SOL    HW129237   0.550   4.700   1.285  1.9364 -0.4060  1.0159
 6301SOL    HW229238   0.698   4.710   1.217  1.4730  2.0665  0.2979
 6302SOL     OW29239   3.869   1.291   1.116 -0.1686 -0.0290 -0.1912
 6302SOL    HW129240   3.888   1.351   1.038 -0.2342 -0.5340 -0.5982
 6302SOL    HW229241   3.828   1.345   1.190 -0.0961  0.4537 -0.4987
 6303SOL     OW29242   8.425   3.106   1.702 -0.3424  0.7046 -0.4849
 6303SOL    HW129243   8.434   3.192   1.653 -0.1453 -0.5015 -2.6381
 6303SOL    HW229244   8.449   3.030   1.642 -0.2347 -0.8535  1.4456
 6304SOL     OW29245   1.266   9.307   2.803 -0.5423 -0.1769 -0.6441
 6304SOL    HW129246   1.334   9.267   2.865  0.5907  0.3814 -1.4951
 6304SOL    HW229247   1.274   9.407   2.806 -3.1341  0.0088  1.2287
 6305SOL     OW29248   3.118   0.340   1.366  0.5735  0.6462  0.3044
 6305SOL    HW129249   3.120   0.272   1.440  1.9910 -0.1761 -0.4582
 6305SOL    HW229250   3.178   0.417   1.391 -1.9450  2.2078  1.6875
 6306SOL     OW29251   4.505   1.903   1.745  0.3092 -0.0457  0.0506
 6306SOL    HW129252   4.440   1.956   1.799  0.9323 -1.2133  2.0064
 6306SOL    HW229253   4.577   1.869   1.805 -0.5674 -3.8656 -0.9666
 6307SOL     OW29254   8.750   2.658   2.664 -0.0546  0.4895  0.0196
 6307SOL    HW129255   8.682   2.722   2.628 -1.1086  0.4183  1.8462
 6307SOL    HW229256   8.792   2.608   2.588 -2.4099  0.1602 -1.1134
 6308SOL     OW29257   9.062   1.313   2.539  0.1226  0.0103  0.2299
 6308SOL    HW129258   9.023   1.388   2.486  0.9371  1.2665  1.3551
 6308SOL    HW229259   9.029   1.319   2.634  0.2370 -1.0208  0.3401
 6309SOL     OW29260   4.953   1.274   2.014 -0.3639  0.0305 -0.5449
 6309SOL    HW129261   5.049   1.295   2.034 -0.6561 -0.3367  1.3049
 6309SOL    HW229262   4.945   1.248   1.917  1.0777  1.8589 -1.1994
 6310SOL     OW29263   3.166   1.914   2.325  0.4104  0.0715  0.3518
 6310SOL    HW129264   3.205   1.956   2.243  1.2064 -0.3239  0.5185
 6310SOL    HW229265   3.074   1.949   2.340  0.4510  0.5260 -0.4273
 6311SOL     OW29266   8.327   1.541   0.090 -0.3389  0.3239 -0.6029
 6311SOL    HW129267   8.394   1.613   0.110  0.0188  0.0592 -0.8394
 6311SOL    HW229268   8.269   1.527   0.170  1.2168 -0.8780  0.3326
 6312SOL     OW29269   0.507   7.653   2.320 -0.3521 -0.2574  0.6040
 6312SOL    HW129270   0.545   7.676   2.231  0.7820 -2.0551  0.5920
 6312SOL    HW229271   0.407   7.661   2.317 -0.2214  1.1040 -0.3843
 6313SOL     OW29272   9.114   0.199   0.233  0.0507 -0.1854 -0.1759
 6313SOL    HW129273   9.061   0.237   0.157  0.1059 -0.6853 -0.4644
 6313SOL    HW229274   9.055   0.142   0.290 -0.3664  1.4001  1.0396
 6314SOL     OW29275   3.585   2.899   1.832 -0.2531  0.0164 -0.3068
 6314SOL    HW129276   3.584   2.839   1.753  0.2115  0.8365 -0.9430
 6314SOL    HW229277   3.501   2.953   1.835  0.2236  0.7930 -0.8705
 6315SOL     OW29278   8.784   1.202   2.644 -0.3581 -0.9415 -0.1942
 6315SOL    HW129279   8.760   1.281   2.586  4.9714  1.3396  0.4326
 6315SOL    HW229280   8.840   1.138   2.592 -0.0327 -1.5663  0.9116
 6316SOL     OW29281   0.530   0.744   0.179  0.2086 -0.1406  0.0063
 6316SOL    HW129282   0.536   0.749   0.278 -1.5760 -2.3249  0.2810
 6316SOL    HW229283   0.438   0.772   0.150  0.4569 -0.2910 -0.9446
 6317SOL     OW29284   2.105   8.715   2.474  0.1612  0.2551 -0.1032
 6317SOL    HW129285   2.028   8.763   2.518  0.1354  0.3494 -0.2488
 6317SOL    HW229286   2.186   8.773   2.477  0.5886 -0.4039  1.2793
 6318SOL     OW29287   1.784   1.530   1.411 -0.1127 -0.1794 -0.1816
 6318SOL    HW129288   1.717   1.460   1.387 -0.3453 -0.0565  0.1060
 6318SOL    HW229289   1.839   1.499   1.488 -1.1705  0.5360  0.8826
 6319SOL     OW29290   8.937   4.219   3.106  0.4898  0.2031 -0.3783
 6319SOL    HW129291   8.921   4.205   3.009  1.7383  2.3654 -0.9197
 6319SOL    HW229292   8.854   4.252   3.150  1.0471  3.2583 -1.5398
 6320SOL     OW29293   4.291   9.266   2.344  0.3169  0.8208 -0.0554
 6320SOL    HW129294   4.240   9.196   2.294  0.2814  1.2013 -0.5580
 6320SOL    HW229295   4.358   9.222   2.404 -2.2276  0.2215  2.4355
 6321SOL     OW29296   1.106   6.885   1.394  0.0548 -0.0447 -0.1300
 6321SOL    HW129297   1.026   6.944   1.400 -0.1756 -0.2209 -1.3191
 6321SOL    HW229298   1.163   6.898   1.475 -0.2246  1.4731 -0.1580
 6322SOL     OW29299   4.654   1.524   2.096  0.0452  0.3251  0.3979
 6322SOL    HW129300   4.734   1.572   2.059 -1.0419  1.8647 -0.0061
 6322SOL    HW229301   4.685   1.452   2.159  1.7261  1.6260  1.1178
 6323SOL     OW29302   0.759   5.809   2.822 -0.0590  0.2895  0.5779
 6323SOL    HW129303   0.678   5.858   2.854 -0.6838 -0.1796 -0.2645
 6323SOL    HW229304   0.744   5.777   2.729  1.0963  0.1835  0.4213
 6324SOL     OW29305   8.965   8.500   2.881  0.3228  0.3846 -0.8459
 6324SOL    HW129306   8.955   8.597   2.902 -1.8063  0.0213  0.0064
 6324SOL    HW229307   8.902   8.475   2.806 -1.0049 -0.8294  0.6357
 6325SOL     OW29308   4.483   3.761   1.294 -0.3802 -0.0744 -0.6802
 6325SOL    HW129309   4.510   3.767   1.390 -0.6772 -0.7766 -0.5479
 6325SOL    HW229310   4.485   3.852   1.253 -0.3950  0.2491  0.0277
 6326SOL     OW29311   3.635   8.068   0.455 -0.2264 -0.4030  0.2165
 6326SOL    HW129312   3.689   8.022   0.385 -0.2310 -0.7855  0.4588
 6326SOL    HW229313   3.690   8.142   0.496  0.0108 -0.6059  0.2654
 6327SOL     OW29314   8.388   5.616   0.872 -0.1702 -0.3052 -0.4706
 6327SOL    HW129315   8.428   5.704   0.898  1.3058 -0.7986 -0.9804
 6327SOL    HW229316   8.337   5.579   0.949 -1.5785  1.4061 -0.5461
 6328SOL     OW29317   0.562   1.418   2.931  0.2074  0.0881 -0.1797
 6328SOL    HW129318   0.542   1.448   2.838 -0.3279  1.0192  0.2278
 6328SOL    HW229319   0.482   1.371   2.968 -0.0044  0.7587  0.2234
 6329SOL     OW29320   7.778   9.347   2.083 -0.2581  0.2168  0.4141
 6329SOL    HW129321   7.747   9.386   2.170  0.0461 -0.3473  0.7777
 6329SOL    HW229322   7.751   9.251   2.078 -0.1648  0.2135 -0.0619
 6330SOL     OW29323   4.937   2.290   2.100 -0.3003 -0.4338  0.1769
 6330SOL    HW129324   5.000   2.299   2.023  0.2774 -1.3543  0.5299
 6330SOL    HW229325   4.912   2.381   2.134  0.9242 -0.0578  0.0866
 6331SOL     OW29326   0.381   7.802   0.215 -0.0788 -0.0059  0.3569
 6331SOL    HW129327   0.428   7.717   0.192 -0.2352 -0.0709  0.2721
 6331SOL    HW229328   0.282   7.789   0.203 -0.0806  0.2698  0.0783
 6332SOL     OW29329   7.516   8.811   1.394 -0.0888 -0.0171  0.1062
 6332SOL    HW129330   7.473   8.800   1.484 -3.2081 -0.2094 -1.3473
 6332SOL    HW229331   7.508   8.906   1.365 -0.3705 -0.2510 -0.5913
 6333SOL     OW29332   8.431   3.782   0.854 -0.4262  0.2550  0.7061
 6333SOL    HW129333   8.385   3.742   0.775  1.5822 -0.9653  0.1238
 6333SOL    HW229334   8.450   3.711   0.922 -0.9895  1.0633  1.7373
 6334SOL     OW29335   1.107   6.225   2.952  0.3026  0.8534 -0.1162
 6334SOL    HW129336   1.037   6.156   2.934  1.5614 -0.5425  0.2619
 6334SOL    HW229337   1.158   6.243   2.868  1.8994 -0.8617  0.4596
 6335SOL     OW29338   1.144   4.622   2.808 -0.0153  0.1801 -0.1910
 6335SOL    HW129339   1.227   4.631   2.863  0.3729  2.1581 -1.0836
 6335SOL    HW229340   1.158   4.552   2.738  1.3326  1.3423 -1.1064
 6336SOL     OW29341   0.453   6.266   3.070  0.1453 -0.5404  0.1449
 6336SOL    HW129342   0.408   6.234   3.153  1.8261  0.5711  1.5060
 6336SOL    HW229343   0.434   6.363   3.057 -1.0579 -0.9688 -1.4092
 6337SOL     OW29344   9.508   1.556   3.014 -0.6659 -0.3450  0.2704
 6337SOL    HW129345   9.490   1.552   2.916  0.4914 -0.4024  0.0545
 6337SOL    HW229346   9.503   1.464   3.053 -0.2970 -0.4381  0.1059
 6338SOL     OW29347   3.428   8.986   0.110  0.3627 -0.3221 -0.1574
 6338SOL    HW129348   3.397   9.067   0.061  0.5743 -0.5424 -0.6487
 6338SOL    HW229349   3.512   9.006   0.160  0.4445 -0.2607 -0.3232
 6339SOL     OW29350   8.695   0.693   1.284 -0.0717  0.0226 -0.8268
 6339SOL    HW129351   8.664   0.723   1.194 -1.2214  0.5123 -0.2682
 6339SOL    HW229352   8.625   0.635   1.326 -0.4664  1.5682  0.6683
 6340SOL     OW29353   0.822   4.425   2.342  0.3422 -0.1671 -0.3983
 6340SOL    HW129354   0.752   4.376   2.289  1.2294 -0.8434 -0.9456
 6340SOL    HW229355   0.847   4.371   2.423 -0.1054  0.2972  0.0602
 6341SOL     OW29356   1.439   4.533   1.511 -0.2378  0.0731  0.4350
 6341SOL    HW129357   1.513   4.508   1.573  0.7084 -0.2602 -0.7904
 6341SOL    HW229358   1.425   4.458   1.445 -1.9674 -0.0515  0.9334
 6342SOL     OW29359   3.948   1.469   0.403 -0.5094 -0.1465  0.4534
 6342SOL    HW129360   4.042   1.503   0.413  0.7628 -3.0783 -0.8796
 6342SOL    HW229361   3.897   1.485   0.488  1.1647  1.5095  1.1834
 6343SOL     OW29362   9.312   9.920   1.019  0.3341 -0.0001 -0.1094
 6343SOL    HW129363   9.367  10.002   1.009  0.7703 -0.2193  0.4737
 6343SOL    HW229364   9.347   9.848   0.958 -1.3546  0.9026 -2.2246
 6344SOL     OW29365   9.392   5.288   1.159  0.5248  0.4421 -0.2063
 6344SOL    HW129366   9.488   5.274   1.138  0.3110 -0.1066 -0.8218
 6344SOL    HW229367   9.342   5.309   1.074 -0.1220 -0.5486 -0.0760
 6345SOL     OW29368   3.937   1.472   0.882  0.0451  0.4319 -0.5630
 6345SOL    HW129369   3.947   1.473   0.783 -0.4377 -1.1728 -0.6464
 6345SOL    HW229370   3.853   1.521   0.907  0.0835  0.7021 -0.9541
 6346SOL     OW29371   0.523   1.130   3.222  0.1740  0.4643  0.1619
 6346SOL    HW129372   0.584   1.208   3.223 -0.1633  0.7144  1.6867
 6346SOL    HW229373   0.450   1.145   3.155 -0.2786  1.7508  0.9411
 6347SOL     OW29374   1.856   3.548   3.380  0.1593  0.0044 -0.0851
 6347SOL    HW129375   1.850   3.454   3.414  0.4210 -0.0566 -0.2086
 6347SOL    HW229376   1.827   3.551   3.285  1.4134 -0.1796 -0.4847
 6348SOL     OW29377   0.823   6.322   0.565  0.1304 -0.0933 -0.0001
 6348SOL    HW129378   0.892   6.393   0.581 -0.2179 -0.2167  2.1742
 6348SOL    HW229379   0.744   6.362   0.518  0.4075  0.7230  0.2184
 6349SOL     OW29380   2.727   5.604   2.119 -0.1504  0.1122  0.7046
 6349SOL    HW129381   2.641   5.632   2.076  0.4293  0.9003  0.0509
 6349SOL    HW229382   2.710   5.585   2.216 -0.9724  0.7396  0.6957
 6350SOL     OW29383   8.937   6.943   1.546 -0.0075  0.7216 -0.2938
 6350SOL    HW129384   9.008   6.942   1.616  0.6610 -0.3582 -0.9651
 6350SOL    HW229385   8.935   7.033   1.502 -0.6711  1.5293  1.3240
 6351SOL     OW29386   1.727   3.230   1.369 -0.0686 -0.0203  0.0816
 6351SOL    HW129387   1.804   3.293   1.381 -0.7258  0.8454 -0.1588
 6351SOL    HW229388   1.705   3.186   1.456 -0.1017  0.6654  0.4203
 6352SOL     OW29389   3.100   7.899   1.082 -0.0991 -0.0626 -0.0595
 6352SOL    HW129390   3.189   7.862   1.055  0.1590 -0.2933  1.0870
 6352SOL    HW229391   3.077   7.868   1.174 -0.9734  0.6964 -0.0080
 6353SOL     OW29392   9.422   4.031   0.102 -0.5863  0.5072 -0.0919
 6353SOL    HW129393   9.465   4.104   0.155  0.2584 -0.3534  0.4164
 6353SOL    HW229394   9.402   4.064   0.010  1.1632  0.9143 -0.3319
 6354SOL     OW29395   2.237   7.613   3.401 -0.1705 -0.0495  0.1652
 6354SOL    HW129396   2.214   7.694   3.348  0.3223 -1.1924 -1.8562
 6354SOL    HW229397   2.274   7.640   3.489 -0.8356  1.8980 -0.1315
 6355SOL     OW29398   8.898   9.344   2.851 -0.2174 -0.3162 -0.7881
 6355SOL    HW129399   8.872   9.342   2.948  1.5571  0.6753 -0.2552
 6355SOL    HW229400   8.844   9.278   2.800 -2.5573  0.5154  0.5369
 6356SOL     OW29401   0.012   9.069   1.534 -0.5194  0.1946 -0.6277
 6356SOL    HW129402   0.069   9.110   1.463 -1.8566  1.0123 -1.2517
 6356SOL    HW229403   0.038   9.105   1.623  0.9586 -0.5949 -0.7270
 6357SOL     OW29404   4.049   5.123   3.350  0.0818  0.4828 -0.4950
 6357SOL    HW129405   4.083   5.211   3.319 -3.1872  1.5902 -1.1903
 6357SOL    HW229406   4.032   5.064   3.270  0.0148  0.0987 -0.1987
 6358SOL     OW29407   5.244   8.270   3.313 -0.2908 -0.0216 -0.4392
 6358SOL    HW129408   5.196   8.212   3.379  1.7976 -0.9367  0.3171
 6358SOL    HW229409   5.234   8.231   3.221 -0.0497 -0.8320 -0.1282
 6359SOL     OW29410   2.448   9.777   1.339 -0.0319  0.7896  0.0800
 6359SOL    HW129411   2.495   9.716   1.275 -0.4150  0.0659  0.4831
 6359SOL    HW229412   2.515   9.835   1.384  0.4282  0.1395  0.2498
 6360SOL     OW29413   9.454   2.641   1.372  0.4694 -0.0995 -0.4207
 6360SOL    HW129414   9.393   2.672   1.444  1.6119  0.6648  0.2334
 6360SOL    HW229415   9.543   2.687   1.381  1.1965 -1.3093 -1.2531
 6361SOL     OW29416   8.813   5.967   2.332  0.5530 -0.2751  0.2258
 6361SOL    HW129417   8.746   5.992   2.262  0.5563 -0.4505  0.1602
 6361SOL    HW229418   8.893   6.025   2.323 -0.4042  1.3106  1.5693
 6362SOL     OW29419   1.817   7.124   2.155  0.4551  0.4819 -0.1563
 6362SOL    HW129420   1.850   7.217   2.168 -0.1056  0.7368 -0.5737
 6362SOL    HW229421   1.755   7.120   2.077 -0.2898 -0.0547  0.4550
 6363SOL     OW29422   1.904   6.666   1.052 -1.0227  0.3220  0.4581
 6363SOL    HW129423   1.987   6.622   1.087 -1.0589  0.8415  1.2152
 6363SOL    HW229424   1.826   6.637   1.108 -1.5086 -0.8790 -0.8057
 6364SOL     OW29425   2.275   1.901   1.820 -0.3400  0.2959  0.1864
 6364SOL    HW129426   2.351   1.900   1.885 -0.2926 -1.9030  0.1090
 6364SOL    HW229427   2.240   1.809   1.806 -1.9132  1.0434 -1.1099
 6365SOL     OW29428   8.051   7.521   2.510 -0.1311  0.5927 -0.1890
 6365SOL    HW129429   7.978   7.460   2.542  0.6380 -0.1420  0.1800
 6365SOL    HW229430   8.041   7.534   2.411 -2.6887  3.1119  0.3237
 6366SOL     OW29431   0.667   8.804   3.283 -0.0355  0.1785  0.6863
 6366SOL    HW129432   0.585   8.822   3.337  0.5954 -0.7371  1.9878
 6366SOL    HW229433   0.709   8.718   3.313  1.0354  0.2975 -0.4047
 6367SOL     OW29434   4.310   9.841   0.240 -0.9620  0.5632  0.1103
 6367SOL    HW129435   4.332   9.917   0.301  2.3874 -0.7908  0.6582
 6367SOL    HW229436   4.333   9.866   0.146 -2.0402  1.0542 -0.0295
 6368SOL     OW29437   0.733   4.030   1.774  0.2423  0.4902 -0.3342
 6368SOL    HW129438   0.737   3.954   1.709  1.0033  0.2182  0.0242
 6368SOL    HW229439   0.826   4.062   1.793  0.3459 -1.6973  3.2276
 6369SOL     OW29440   3.180   4.237   0.604  0.0755  0.0473 -0.0652
 6369SOL    HW129441   3.243   4.258   0.529  1.6721 -1.5496  0.7912
 6369SOL    HW229442   3.096   4.198   0.566  1.2157 -1.5548 -1.0127
 6370SOL     OW29443   0.293   2.764   1.638  0.1657  0.0901 -0.4952
 6370SOL    HW129444   0.367   2.761   1.570 -0.1715 -0.4835 -0.8421
 6370SOL    HW229445   0.295   2.680   1.692  0.0730  0.2907 -0.1842
 6371SOL     OW29446   3.838   9.563   0.910 -0.0440 -0.1393  0.4005
 6371SOL    HW129447   3.908   9.530   0.973 -0.0763 -0.3822  0.3113
 6371SOL    HW229448   3.797   9.485   0.862  0.2979  0.0755 -0.2524
 6372SOL     OW29449   2.261   4.721   0.951  0.1223 -0.2221  0.0449
 6372SOL    HW129450   2.213   4.774   1.021 -0.8956 -1.6848  0.4831
 6372SOL    HW229451   2.223   4.628   0.947  1.5229 -0.7765 -1.0522
 6373SOL     OW29452   0.267   8.542   1.909  0.3785 -0.1745  0.4557
 6373SOL    HW129453   0.235   8.472   1.845  1.2128  0.2973 -0.4774
 6373SOL    HW229454   0.325   8.499   1.978  2.0387 -0.1898 -0.9288
 6374SOL     OW29455   9.610   4.007   0.979 -0.3668  0.2070  0.2986
 6374SOL    HW129456   9.647   3.942   1.045 -1.3642 -0.8206 -0.1514
 6374SOL    HW229457   9.683   4.037   0.917  0.1444 -0.2614  0.6693
 6375SOL     OW29458   2.454   2.242   1.570 -0.5148  0.1573  0.1791
 6375SOL    HW129459   2.399   2.213   1.648  0.0846 -0.1023  0.5137
 6375SOL    HW229460   2.468   2.164   1.508 -0.5083  0.2151  0.1077
 6376SOL     OW29461   9.987   4.804   1.119 -0.6429 -0.5911  0.0099
 6376SOL    HW129462  10.044   4.856   1.054  0.1397 -0.0990  1.0770
 6376SOL    HW229463   9.907   4.858   1.143 -1.6746 -1.3469 -1.6149
 6377SOL     OW29464   9.262   1.072   3.155  0.2757  0.4831 -0.4860
 6377SOL    HW129465   9.261   1.167   3.123 -0.3067  0.6158 -0.0854
 6377SOL    HW229466   9.181   1.055   3.212 -0.4822 -0.7373 -1.9110
 6378SOL     OW29467   0.324   5.500   2.653 -0.2874 -0.0893  0.1367
 6378SOL    HW129468   0.354   5.405   2.665  1.5132  0.3241 -0.8779
 6378SOL    HW229469   0.246   5.503   2.590  0.7647 -0.7536 -1.2217
 6379SOL     OW29470   4.296   9.013   2.012 -1.3975  0.2315  0.6756
 6379SOL    HW129471   4.320   8.956   2.090  0.4831 -1.2008 -0.8773
 6379SOL    HW229472   4.375   9.020   1.951 -3.5503 -0.8031 -2.3654
 6380SOL     OW29473   9.736   4.653   2.559  0.6291 -0.2703  0.1329
 6380SOL    HW129474   9.835   4.668   2.563  0.7080 -1.2248  2.8110
 6380SOL    HW229475   9.694   4.690   2.643 -1.3863  0.8061 -1.3146
 6381SOL     OW29476   2.209   8.301   0.221 -0.1406 -0.1516 -0.2809
 6381SOL    HW129477   2.200   8.388   0.270 -1.4838  0.2851 -1.2823
 6381SOL    HW229478   2.301   8.265   0.236 -0.0314  0.7107  1.3336
 6382SOL     OW29479   9.607   4.292   3.418 -0.4572  0.0690  0.0421
 6382SOL    HW129480   9.685   4.240   3.452 -0.6424 -0.2786 -0.0577
 6382SOL    HW229481   9.600   4.282   3.319  0.4327  1.5742 -0.1805
 6383SOL     OW29482   9.246   9.768   2.986  0.2993  0.3190  0.2184
 6383SOL    HW129483   9.230   9.729   2.896  2.8062 -0.5516  0.1166
 6383SOL    HW229484   9.188   9.849   2.998  0.8508  1.2046 -2.6869
 6384SOL     OW29485   1.288   5.190   2.512 -0.5841  0.2273 -0.6747
 6384SOL    HW129486   1.226   5.263   2.486  1.5243  1.9038 -1.1810
 6384SOL    HW229487   1.269   5.109   2.457 -2.7678  0.4568 -0.3059
 6385SOL     OW29488   2.718   9.046   0.496  0.1715 -0.0835 -0.1913
 6385SOL    HW129489   2.790   9.102   0.536 -0.3469 -0.5744  1.4728
 6385SOL    HW229490   2.691   8.975   0.561 -2.5575  0.7598 -0.3170
 6386SOL     OW29491   0.597   3.937   3.158  0.2011  0.2489  0.3210
 6386SOL    HW129492   0.499   3.927   3.176  0.0806 -2.5246 -1.5868
 6386SOL    HW229493   0.649   3.912   3.240 -0.5936 -1.9104  0.1795
 6387SOL     OW29494   8.835   5.951   1.044 -0.1431  0.5847  0.2689
 6387SOL    HW129495   8.890   5.980   0.966  0.0437 -0.1831  0.1152
 6387SOL    HW229496   8.808   6.031   1.098  2.2370  0.8506  1.1109
 6388SOL     OW29497   8.183   5.854   0.480  0.4095  0.3737  0.3653
 6388SOL    HW129498   8.182   5.764   0.523 -0.8854 -0.5213 -1.4742
 6388SOL    HW229499   8.222   5.847   0.388 -0.8523  1.4332 -0.2711
 6389SOL     OW29500   4.058   9.346   1.933  0.1985 -0.1536 -0.4851
 6389SOL    HW129501   4.057   9.317   1.837  0.5275 -0.1191 -0.5001
 6389SOL    HW229502   3.968   9.381   1.958 -0.0937 -0.8294 -0.5774
 6390SOL     OW29503   3.546   3.838   3.384 -0.0798 -0.2692 -0.4087
 6390SOL    HW129504   3.522   3.819   3.479  0.0513  2.6362  0.2558
 6390SOL    HW229505   3.625   3.784   3.358  0.8820  0.0925  1.6589
 6391SOL     OW29506   4.142   0.820   3.059 -0.3119 -0.1648 -0.0936
 6391SOL    HW129507   4.134   0.898   2.998  0.1341 -0.2586 -0.2695
 6391SOL    HW229508   4.086   0.836   3.141 -1.1394 -0.1663 -0.6506
 6392SOL     OW29509   5.206   8.440   2.656  0.2839  0.2406 -0.1285
 6392SOL    HW129510   5.149   8.373   2.703  2.9586 -1.2455  1.0927
 6392SOL    HW229511   5.227   8.408   2.564 -0.7669  0.7496 -0.5480
 6393SOL     OW29512   4.039   9.681   2.765 -0.2991 -0.2893  0.0229
 6393SOL    HW129513   4.051   9.663   2.863  2.8265  1.7629  0.0840
 6393SOL    HW229514   3.962   9.744   2.752 -0.6932 -0.5204  1.1609
 6394SOL     OW29515   2.041   3.131   1.149 -0.0434 -0.0323  0.1990
 6394SOL    HW129516   1.994   3.049   1.181 -0.3985  0.5542  1.2032
 6394SOL    HW229517   2.011   3.153   1.056 -1.4560  0.0913  0.6699
 6395SOL     OW29518   0.269   5.533   3.351 -0.1732  0.1102  0.3285
 6395SOL    HW129519   0.236   5.592   3.277  0.6156  1.6065  1.1495
 6395SOL    HW229520   0.342   5.474   3.317 -2.2058 -1.7652 -0.9761
 6396SOL     OW29521   3.334   2.080   0.177  0.2858 -0.6301  0.0737
 6396SOL    HW129522   3.376   2.144   0.112  2.0605  0.3096  2.0909
 6396SOL    HW229523   3.235   2.076   0.162  0.3656  1.4099 -1.0770
 6397SOL     OW29524   8.249   9.931   1.021 -0.2768 -0.4076  0.0493
 6397SOL    HW129525   8.252   9.849   1.077  1.0299  0.2795  0.9994
 6397SOL    HW229526   8.291   9.913   0.932  1.4511 -0.3465  0.8336
 6398SOL     OW29527   1.404   8.184   3.085 -0.2921 -0.7915  0.3872
 6398SOL    HW129528   1.486   8.182   3.028  0.4826 -0.6845  1.4760
 6398SOL    HW229529   1.417   8.125   3.165 -1.0184 -0.2511  0.9123
 6399SOL     OW29530   2.021   6.032   1.869  0.5790 -0.3711 -0.0378
 6399SOL    HW129531   1.928   6.001   1.856  0.2323  0.5703  0.1342
 6399SOL    HW229532   2.026   6.093   1.948  1.4887 -1.0645  0.4489
 6400SOL     OW29533   0.809   1.151   1.120  0.2993 -0.1535  0.1194
 6400SOL    HW129534   0.808   1.175   1.217 -1.3167  1.3439 -0.2232
 6400SOL    HW229535   0.809   1.235   1.065  2.2639 -0.9825 -1.1824
 6401SOL     OW29536   1.500   7.067   0.533 -0.1068  0.2846 -0.0584
 6401SOL    HW129537   1.500   7.138   0.604  0.1471 -0.3843  0.6134
 6401SOL    HW229538   1.585   7.073   0.481 -1.1551  2.0698 -1.6259
 6402SOL     OW29539   1.260   3.114   0.533  0.2248  0.0392 -0.3434
 6402SOL    HW129540   1.356   3.138   0.518  0.1824 -1.1953 -2.7425
 6402SOL    HW229541   1.254   3.025   0.578  0.1855 -0.4143 -1.2443
 6403SOL     OW29542   8.393   9.831   3.165 -0.3077 -0.6961 -0.3147
 6403SOL    HW129543   8.476   9.883   3.145  0.2320 -0.7864  1.5885
 6403SOL    HW229544   8.325   9.892   3.207 -0.6716 -0.9482 -0.5335
 6404SOL     OW29545   8.041   0.706   0.029 -0.5261  0.2498 -0.2850
 6404SOL    HW129546   8.127   0.671  -0.008  0.9582  2.6019  0.8460
 6404SOL    HW229547   8.004   0.641   0.095  1.2034 -0.0789  0.3752
 6405SOL     OW29548   4.801   8.443   0.129  0.3217  0.1644  0.0701
 6405SOL    HW129549   4.770   8.478   0.040 -1.5186 -0.9611  0.2402
 6405SOL    HW229550   4.736   8.471   0.200  1.0187 -0.1547  0.8371
 6406SOL     OW29551   9.832   8.259   3.337 -0.1502  0.2155  0.2091
 6406SOL    HW129552   9.905   8.234   3.273  0.1956 -3.1654  1.7961
 6406SOL    HW229553   9.867   8.253   3.431 -1.3022  2.8087  0.8395
 6407SOL     OW29554   7.930   0.475   0.130 -0.1863 -0.0191  0.0493
 6407SOL    HW129555   7.860   0.426   0.077 -0.0431  0.3752 -0.5043
 6407SOL    HW229556   7.943   0.429   0.218 -1.7803  0.4216  0.5310
 6408SOL     OW29557   4.826   2.441   1.807  0.4010  0.3174  0.3025
 6408SOL    HW129558   4.819   2.342   1.794 -0.0430  0.1591  1.7351
 6408SOL    HW229559   4.750   2.473   1.863 -0.3748  1.7296 -1.4797
 6409SOL     OW29560   1.523   2.040   2.688 -0.4067  0.5339 -0.0718
 6409SOL    HW129561   1.481   2.131   2.686 -0.9754  0.2721 -0.3115
 6409SOL    HW229562   1.511   1.996   2.599 -1.2443 -0.2659  0.4229
 6410SOL     OW29563   9.070   8.117   3.257 -0.1487  1.1044 -0.2131
 6410SOL    HW129564   9.153   8.098   3.309 -1.3087  2.2835  2.1717
 6410SOL    HW229565   9.072   8.211   3.223  0.3609  0.5096 -1.8608
 6411SOL     OW29566   7.721   7.841   3.249  0.1575 -0.6164 -0.0481
 6411SOL    HW129567   7.810   7.871   3.283 -0.2398  0.4529  0.0580
 6411SOL    HW229568   7.721   7.741   3.240  1.4147 -0.6140 -0.1936
 6412SOL     OW29569   9.881   2.417   0.537  0.5434  0.0306 -0.0295
 6412SOL    HW129570   9.871   2.427   0.636 -0.7022  0.2615 -0.1725
 6412SOL    HW229571   9.978   2.416   0.514  0.8275  1.4034  1.0410
 6413SOL     OW29572   1.136   7.224   2.874 -0.2299 -0.2633  0.1222
 6413SOL    HW129573   1.226   7.182   2.873 -0.4954 -0.9027  1.2442
 6413SOL    HW229574   1.103   7.229   2.969 -0.9348  0.8957 -0.1769
 6414SOL     OW29575   2.595   8.675   1.882  0.3587  0.1706 -0.4743
 6414SOL    HW129576   2.560   8.609   1.949  1.9480 -0.2578 -0.0535
 6414SOL    HW229577   2.620   8.626   1.798 -1.1194  0.6309 -1.1982
 6415SOL     OW29578   9.272   9.621   1.384  0.5695  0.0208  0.3987
 6415SOL    HW129579   9.182   9.631   1.341  1.4689  0.1044 -1.5092
 6415SOL    HW229580   9.267   9.551   1.455 -0.5633 -1.3122 -0.9700
 6416SOL     OW29581   8.145   5.308   1.038  0.1838 -0.0700 -0.8111
 6416SOL    HW129582   8.208   5.235   1.065 -0.8786 -0.2505  1.2372
 6416SOL    HW229583   8.080   5.271   0.971 -0.9455 -1.2859  0.9220
 6417SOL     OW29584   9.620   1.435   1.675 -0.4961 -0.0164  0.1168
 6417SOL    HW129585   9.684   1.381   1.729  0.9100  2.5256  1.0514
 6417SOL    HW229586   9.626   1.407   1.579  0.0928 -1.6088  0.6053
 6418SOL     OW29587   8.126   6.161   0.178  0.3913 -0.1347 -0.0927
 6418SOL    HW129588   8.069   6.149   0.096  0.3998 -1.2119  0.0610
 6418SOL    HW229589   8.219   6.185   0.150  0.4723 -0.8098 -0.4071
 6419SOL     OW29590   2.207   5.491   2.113 -0.4668  0.2943 -0.0642
 6419SOL    HW129591   2.252   5.496   2.023 -1.2508  1.0970 -0.4211
 6419SOL    HW229592   2.163   5.579   2.132 -0.3194  0.1129  1.1065
 6420SOL     OW29593   9.333   8.744   1.885 -0.4658 -0.3283 -0.1631
 6420SOL    HW129594   9.293   8.723   1.974 -0.8031 -0.5737 -0.3765
 6420SOL    HW229595   9.432   8.731   1.890 -0.2501  1.4118  0.6978
 6421SOL     OW29596   8.978   1.195   2.242 -0.2034 -0.1487  0.0942
 6421SOL    HW129597   8.957   1.162   2.334 -1.3040  0.3080  0.0150
 6421SOL    HW229598   9.076   1.210   2.234 -0.0854 -0.2918  1.1581
 6422SOL     OW29599   0.993   4.932   2.256  0.6302  0.2797 -0.4844
 6422SOL    HW129600   0.950   4.876   2.327  3.3771 -0.5612  0.5748
 6422SOL    HW229601   1.090   4.908   2.249  1.4838  3.7144 -1.2031
 6423SOL     OW29602   0.671   6.230   2.229  0.0182  0.0258  0.2582
 6423SOL    HW129603   0.616   6.231   2.146  0.4816  0.8998 -0.0476
 6423SOL    HW229604   0.671   6.322   2.270 -2.2308 -0.9339  2.5653
 6424SOL     OW29605   1.173   0.205   2.204 -0.1481  0.0903 -0.2875
 6424SOL    HW129606   1.121   0.215   2.118  1.8963 -0.5685 -1.6327
 6424SOL    HW229607   1.258   0.156   2.186  1.5663  2.2239  1.6438
 6425SOL     OW29608   0.267   7.955   1.914  0.4378 -0.5539 -0.1071
 6425SOL    HW129609   0.258   7.925   2.009 -0.3621  0.2567  0.0738
 6425SOL    HW229610   0.255   8.054   1.908 -3.1192 -0.9962 -1.4934
 6426SOL     OW29611   2.125   3.944   2.752  0.3219 -0.7179  0.0781
 6426SOL    HW129612   2.130   3.938   2.852  2.2875 -0.9453 -0.0067
 6426SOL    HW229613   2.168   4.029   2.722  0.7651 -1.1897 -0.6368
 6427SOL     OW29614   8.474   8.970   0.206 -0.1804  0.0452  0.1081
 6427SOL    HW129615   8.442   8.987   0.113 -0.2324 -1.1912 -0.1091
 6427SOL    HW229616   8.489   9.057   0.253 -3.3702  0.7072  0.0444
 6428SOL     OW29617   9.964   4.736   1.458  0.1602  0.0424 -0.2600
 6428SOL    HW129618   9.877   4.690   1.441  0.1542 -0.2537  0.5527
 6428SOL    HW229619   9.963   4.827   1.416 -0.4113 -0.0946 -0.5422
 6429SOL     OW29620   2.789   9.132   1.772  0.6427 -0.0570  0.7859
 6429SOL    HW129621   2.866   9.091   1.820  0.1429 -1.4398  0.4134
 6429SOL    HW229622   2.772   9.083   1.687  0.2430  1.1204  0.1749
 6430SOL     OW29623   0.894   2.027   2.473  0.0301 -0.5904 -0.3122
 6430SOL    HW129624   0.919   1.933   2.494  1.5045 -0.2710 -0.5835
 6430SOL    HW229625   0.920   2.048   2.379  2.5790  1.0339  0.7240
 6431SOL     OW29626   3.876   7.684   1.783 -0.3368  0.3410 -0.0491
 6431SOL    HW129627   3.880   7.591   1.746 -0.2125  0.6210 -0.7495
 6431SOL    HW229628   3.896   7.750   1.711  0.6027  0.8674  0.6846
 6432SOL     OW29629   3.067   0.072   0.838 -0.0601  0.0353 -0.0132
 6432SOL    HW129630   3.003   0.009   0.883  0.0541 -0.2027 -0.1809
 6432SOL    HW229631   3.096   0.142   0.903 -1.8803  1.2014 -0.4301
 6433SOL     OW29632   0.057   3.030   2.093  0.4759 -0.0734  0.3489
 6433SOL    HW129633   0.014   3.023   2.003  0.1544  0.4848  0.4582
 6433SOL    HW229634   0.143   3.080   2.085 -0.5367  1.7709  0.6711
 6434SOL     OW29635   2.071   0.838   1.031  0.1445 -0.0444 -0.3300
 6434SOL    HW129636   1.982   0.796   1.016 -0.1078  0.6694 -0.8222
 6434SOL    HW229637   2.141   0.787   0.980 -0.0610 -0.2618 -0.3946
 6435SOL     OW29638   4.049   3.922   2.668  0.0767 -0.3508 -0.1672
 6435SOL    HW129639   4.036   3.833   2.624 -0.3538 -0.4838  0.2118
 6435SOL    HW229640   3.968   3.942   2.724  0.4831 -0.0500  0.3123
 6436SOL     OW29641   4.222   1.409   1.710 -0.4154  0.3449 -0.5000
 6436SOL    HW129642   4.307   1.451   1.679  0.0676 -0.5200 -0.3515
 6436SOL    HW229643   4.168   1.477   1.760 -0.1803  1.1144 -1.2753
 6437SOL     OW29644   2.428   0.763   3.173 -0.1430 -0.2386 -0.0859
 6437SOL    HW129645   2.459   0.716   3.256  0.7800 -0.2937 -0.4638
 6437SOL    HW229646   2.340   0.807   3.192  2.2987  3.9956  2.5569
 6438SOL     OW29647   9.257   3.563   1.803  0.4105  0.3605  0.2364
 6438SOL    HW129648   9.171   3.513   1.792  0.5449 -0.0312  0.9045
 6438SOL    HW229649   9.334   3.502   1.784  0.6081 -0.0288  2.1599
 6439SOL     OW29650   1.014   4.411   1.231  1.0329 -0.0043  0.1328
 6439SOL    HW129651   1.104   4.385   1.196  1.3235 -0.5935  1.3036
 6439SOL    HW229652   0.985   4.346   1.300 -0.3531  0.1193 -0.3158
 6440SOL     OW29653   9.878   8.949   2.222 -0.3468 -0.4160 -0.1345
 6440SOL    HW129654   9.803   8.997   2.269  0.4878  2.0966 -1.2740
 6440SOL    HW229655   9.864   8.956   2.123  0.8474 -0.8324 -0.3324
 6441SOL     OW29656   3.360   2.723   0.526  0.0185 -0.1909 -0.3473
 6441SOL    HW129657   3.305   2.662   0.468  0.8475  0.4223 -1.7902
 6441SOL    HW229658   3.396   2.798   0.471  1.7002 -0.1756  0.7394
 6442SOL     OW29659   1.261   4.415   2.637 -0.1684 -0.2288 -0.0543
 6442SOL    HW129660   1.294   4.496   2.589 -0.0617 -0.1068  0.2236
 6442SOL    HW229661   1.322   4.394   2.714 -0.2353 -0.5300 -0.0823
 6443SOL     OW29662   0.391   0.142   0.722  0.0004  0.7203  0.1710
 6443SOL    HW129663   0.447   0.059   0.729 -0.0300  0.4744 -2.0054
 6443SOL    HW229664   0.442   0.211   0.670 -1.2586  0.8731 -0.8879
 6444SOL     OW29665   8.372   6.412   1.204 -0.5534  0.4911  0.1141
 6444SOL    HW129666   8.470   6.421   1.222 -0.3034  0.9869 -1.4675
 6444SOL    HW229667   8.327   6.372   1.285  0.9984 -0.1028  0.7033
 6445SOL     OW29668   9.508   1.456   0.028  0.2622  0.0659 -0.3274
 6445SOL    HW129669   9.533   1.425  -0.063  1.1003 -1.0440  0.2713
 6445SOL    HW229670   9.547   1.395   0.096  0.6958  1.5995  0.8349
 6446SOL     OW29671   4.622   0.064   1.812  0.2719  0.2154  0.2946
 6446SOL    HW129672   4.610   0.025   1.904  1.3760 -1.4815 -0.2431
 6446SOL    HW229673   4.562   0.017   1.748 -0.1438  1.0704  0.0471
 6447SOL     OW29674   9.964   5.174   2.837  0.1491 -0.1462 -0.2489
 6447SOL    HW129675   9.866   5.186   2.823  0.1093 -2.1717 -1.8828
 6447SOL    HW229676  10.015   5.240   2.782 -0.2633 -0.6815 -1.2821
 6448SOL     OW29677   1.181   9.667   3.051  0.2302  0.3106 -1.0200
 6448SOL    HW129678   1.155   9.585   3.101  0.3273 -0.0779 -1.6121
 6448SOL    HW229679   1.107   9.734   3.056  0.1081  0.1487 -0.6310
 6449SOL     OW29680   2.973   9.242   3.356  0.1640 -0.0380  0.1894
 6449SOL    HW129681   3.057   9.291   3.331  0.8159 -0.4204  1.5653
 6449SOL    HW229682   2.904   9.256   3.285  0.8359  1.6564 -0.1633
 6450SOL     OW29683   8.343   8.498   1.198 -0.1648  0.3953 -0.2251
 6450SOL    HW129684   8.311   8.406   1.178  1.9523 -0.3612 -0.2314
 6450SOL    HW229685   8.268   8.552   1.236 -1.0315 -1.7754  1.2525
 6451SOL     OW29686   9.506   8.410   1.976 -0.2514 -0.2046  0.6370
 6451SOL    HW129687   9.547   8.333   2.024  0.8343  0.1833  0.3525
 6451SOL    HW229688   9.418   8.382   1.937  0.3130 -1.3994  0.2067
 6452SOL     OW29689   1.116   5.241   2.256 -0.0316  0.2265 -0.1082
 6452SOL    HW129690   1.039   5.238   2.320 -0.1671 -1.2908 -0.3068
 6452SOL    HW229691   1.083   5.264   2.165  0.1009  1.9728  0.2782
 6453SOL     OW29692   9.469   5.654   3.426  0.2637  0.7724 -0.2528
 6453SOL    HW129693   9.520   5.584   3.377 -1.5634 -0.4131 -0.5345
 6453SOL    HW229694   9.504   5.663   3.519 -0.4599 -1.6170  0.2758
 6454SOL     OW29695   1.139   4.187   2.155 -0.3001 -0.5667 -0.2231
 6454SOL    HW129696   1.191   4.217   2.075 -0.1874  2.1070  0.7879
 6454SOL    HW229697   1.049   4.231   2.153  0.2745  0.7910  1.8824
 6455SOL     OW29698   0.657   3.755   2.108  0.4015 -0.3937 -0.7638
 6455SOL    HW129699   0.623   3.705   2.188  0.6596  0.6358 -0.0033
 6455SOL    HW229700   0.582   3.769   2.043 -0.0577 -0.3173 -0.2237
 6456SOL     OW29701   0.166   3.851   0.135 -0.1032  0.2090  0.1386
 6456SOL    HW129702   0.096   3.791   0.094 -0.3568  1.3110 -1.0595
 6456SOL    HW229703   0.214   3.900   0.062  1.5950 -0.1602  0.9907
 6457SOL     OW29704   7.822   9.524   2.792 -0.0778  0.6691  0.0483
 6457SOL    HW129705   7.778   9.613   2.798 -2.0429 -0.0528 -2.7899
 6457SOL    HW229706   7.779   9.461   2.856 -0.1713  1.1590  0.4711
 6458SOL     OW29707   9.862   3.427   1.457 -0.1176  0.1574 -0.5241
 6458SOL    HW129708   9.844   3.331   1.478 -1.1769 -0.0319 -2.1829
 6458SOL    HW229709   9.961   3.443   1.456  0.0437 -0.7267  0.5152
 6459SOL     OW29710   9.683   5.847   3.411  0.1940 -0.1494  0.6684
 6459SOL    HW129711   9.610   5.782   3.389  1.1264 -0.4080 -1.8474
 6459SOL    HW229712   9.772   5.805   3.390  0.9120  1.1838  1.0105
 6460SOL     OW29713   2.479   4.701   2.656  0.2370 -0.1134 -0.4048
 6460SOL    HW129714   2.513   4.786   2.696 -1.8195  0.6690 -0.2746
 6460SOL    HW229715   2.472   4.711   2.557  1.1268 -0.5496 -0.5173
 6461SOL     OW29716   2.065   2.735   1.020 -0.2793 -0.0314 -0.0706
 6461SOL    HW129717   2.033   2.757   1.112 -0.1125  0.1322 -0.0513
 6461SOL    HW229718   2.003   2.775   0.952  0.6483  1.4889 -0.0521
 6462SOL     OW29719   2.733   0.194   2.930  0.0752  0.6194  0.3267
 6462SOL    HW129720   2.767   0.102   2.950 -0.0399 -0.3018 -3.3976
 6462SOL    HW229721   2.806   0.261   2.945  0.1638 -0.0446  3.0521
 6463SOL     OW29722   9.098   3.780   2.252  0.1409  0.4667 -0.0641
 6463SOL    HW129723   9.177   3.770   2.312 -0.5195  0.8320  0.8867
 6463SOL    HW229724   9.088   3.698   2.195  1.0237  0.2974  0.0167
 6464SOL     OW29725   8.980   1.829   2.254 -0.5650 -0.2112 -0.1543
 6464SOL    HW129726   8.930   1.908   2.220  0.4880  0.3344 -0.4721
 6464SOL    HW229727   8.927   1.784   2.325 -1.4867  0.3691 -0.4690
 6465SOL     OW29728   1.986   7.121   1.029  0.0459 -0.5442  0.2792
 6465SOL    HW129729   1.902   7.159   0.989 -0.3018  0.0758  1.5664
 6465SOL    HW229730   2.059   7.122   0.961 -0.3017  1.2792 -0.0794
 6466SOL     OW29731   1.486   7.007   2.369 -0.3199 -1.0009  0.0061
 6466SOL    HW129732   1.508   7.079   2.435 -2.2378  0.7106 -1.1349
 6466SOL    HW229733   1.559   6.938   2.369  1.7947  1.1422  0.8473
 6467SOL     OW29734   8.507   2.372   1.976  0.2518 -0.0920  0.5767
 6467SOL    HW129735   8.586   2.363   1.915 -0.2255  0.6470 -0.1639
 6467SOL    HW229736   8.432   2.315   1.943 -0.1236  0.5703  0.2633
 6468SOL     OW29737   0.504   8.942   0.533 -0.3654  0.1261  0.2946
 6468SOL    HW129738   0.487   8.844   0.538  0.3140 -0.0958 -1.2849
 6468SOL    HW229739   0.442   8.990   0.595 -0.9629 -1.2645  0.7967
 6469SOL     OW29740   1.145   9.677   0.540  0.0037  0.3288 -0.4225
 6469SOL    HW129741   1.108   9.664   0.448 -1.8423  0.1201  0.3373
 6469SOL    HW229742   1.070   9.694   0.604  1.3735  1.8770  0.8170
 6470SOL     OW29743   3.950   8.372   0.981 -0.2193  0.7430  0.5222
 6470SOL    HW129744   3.905   8.379   1.070  0.7200  0.9167  0.9888
 6470SOL    HW229745   3.974   8.464   0.949 -1.4120  0.7559 -0.3599
 6471SOL     OW29746   2.966   0.569   1.678  0.6717  0.0105  0.0372
 6471SOL    HW129747   3.060   0.561   1.645  0.9190 -1.1266  0.9557
 6471SOL    HW229748   2.902   0.552   1.602  1.2213 -1.4244 -0.1267
 6472SOL     OW29749   0.637   8.862   2.326 -0.8192  0.5397 -0.6547
 6472SOL    HW129750   0.678   8.771   2.324  0.5610  1.1030  0.5574
 6472SOL    HW229751   0.538   8.855   2.337 -0.5327 -0.7795  1.2817
 6473SOL     OW29752   9.979   6.659   0.760 -0.1980  0.1893 -0.1019
 6473SOL    HW129753   9.976   6.758   0.774 -2.4334  0.1644 -0.2470
 6473SOL    HW229754   9.984   6.613   0.849  0.9082  0.4326 -0.0379
 6474SOL     OW29755   2.491   0.661   3.419  0.3507  0.0971 -0.5773
 6474SOL    HW129756   2.408   0.606   3.428  0.4310  0.0175 -0.3162
 6474SOL    HW229757   2.488   0.737   3.484  1.9010 -1.6911  1.6712
 6475SOL     OW29758   4.662   1.544   2.460 -0.8903 -0.1387 -0.4521
 6475SOL    HW129759   4.730   1.574   2.526 -0.8603  0.3646 -0.7058
 6475SOL    HW229760   4.615   1.624   2.422 -0.9355 -0.4220 -1.0061
 6476SOL     OW29761   9.335   2.190   1.155 -0.0028 -0.2296  0.4446
 6476SOL    HW129762   9.277   2.131   1.099  1.4074 -0.6081 -0.6795
 6476SOL    HW229763   9.376   2.136   1.229 -0.9426 -0.0064  1.1215
 6477SOL     OW29764   7.708   9.370   2.991 -0.3605  0.0987  0.3126
 6477SOL    HW129765   7.617   9.341   3.020  0.1454 -0.4584  1.3525
 6477SOL    HW229766   7.765   9.388   3.071  0.8325 -0.7790 -0.3282
 6478SOL     OW29767   9.520   7.846   3.026  0.8932 -0.5527  0.4251
 6478SOL    HW129768   9.590   7.782   3.056 -0.8596 -2.3201  0.7908
 6478SOL    HW229769   9.439   7.838   3.084  0.6366  2.0038  0.4853
 6479SOL     OW29770   7.879   1.201   0.472  0.6612 -0.1503 -0.9243
 6479SOL    HW129771   7.968   1.157   0.463 -0.4799 -2.8272  0.4119
 6479SOL    HW229772   7.812   1.155   0.413  0.0182  1.5618 -1.6002
 6480SOL     OW29773   2.712   5.564   2.420  0.1381 -0.0899  0.2707
 6480SOL    HW129774   2.773   5.575   2.499  2.0303 -0.6547 -1.1007
 6480SOL    HW229775   2.659   5.480   2.431 -0.0342  0.1302  1.2108
 6481SOL     OW29776   0.339   1.428   2.753  0.5064 -0.0144  0.1095
 6481SOL    HW129777   0.319   1.340   2.796  0.4730 -0.0358  0.0502
 6481SOL    HW229778   0.268   1.450   2.686 -0.3581  0.8340  1.2990
 6482SOL     OW29779   0.882   5.754   3.056  0.4263  0.2481 -0.3358
 6482SOL    HW129780   0.962   5.811   3.074  0.3805  0.2501 -0.1330
 6482SOL    HW229781   0.847   5.774   2.965  1.0380 -0.2188 -0.6687
 6483SOL     OW29782   8.567   8.448   0.998  0.2767 -0.4575  0.1834
 6483SOL    HW129783   8.600   8.532   0.955 -0.1264 -0.2173  0.3497
 6483SOL    HW229784   8.545   8.466   1.094  1.4450 -1.0568  0.5800
 6484SOL     OW29785   9.920   8.208   0.629 -0.1081  0.1172  0.2364
 6484SOL    HW129786  10.006   8.258   0.616  0.2052 -0.4337  0.1354
 6484SOL    HW229787   9.908   8.143   0.553 -0.9395  0.6528 -0.0898
 6485SOL     OW29788   4.639   1.633   1.766 -0.3024  0.1712 -0.5315
 6485SOL    HW129789   4.635   1.715   1.823  0.2551  0.1783 -0.5049
 6485SOL    HW229790   4.718   1.638   1.706  0.6773 -1.0931  0.6116
 6486SOL     OW29791   3.076   4.213   1.204  0.1301  0.0051 -0.5100
 6486SOL    HW129792   2.982   4.188   1.227 -0.0364 -0.8105 -2.0494
 6486SOL    HW229793   3.094   4.306   1.235 -1.7278  0.7952 -1.7159
 6487SOL     OW29794   0.979   8.264   1.002  0.1005  0.0268  0.4820
 6487SOL    HW129795   1.030   8.240   0.919 -0.1296 -2.8642  1.1367
 6487SOL    HW229796   0.886   8.291   0.978  0.4284  0.4512 -0.3065
 6488SOL     OW29797   4.946   1.295   1.529 -0.3459 -0.3268 -0.0308
 6488SOL    HW129798   4.866   1.283   1.470 -0.4045  3.0544 -0.7292
 6488SOL    HW229799   5.029   1.293   1.473 -0.3140  1.4513 -0.0880
 6489SOL     OW29800   3.463   6.156   2.276 -0.3268  0.4822  0.0508
 6489SOL    HW129801   3.498   6.156   2.370 -2.5362  0.6474  0.9058
 6489SOL    HW229802   3.483   6.244   2.233  0.3340  0.5522  0.4915
 6490SOL     OW29803   0.036   9.278   2.469 -0.0904 -0.0636 -0.0273
 6490SOL    HW129804   0.048   9.232   2.381 -0.3572 -0.1616 -0.0130
 6490SOL    HW229805  -0.025   9.224   2.527  0.6820 -0.3898  0.5050
 6491SOL     OW29806   1.692   3.204   2.245  0.0585 -0.2715 -0.9298
 6491SOL    HW129807   1.715   3.297   2.273 -0.0827  0.1444 -2.1616
 6491SOL    HW229808   1.687   3.145   2.326  1.1660  0.5583 -0.2335
 6492SOL     OW29809   4.203   8.226   0.629  0.1638 -0.1032  0.1204
 6492SOL    HW129810   4.215   8.214   0.728  0.4748  3.0409  0.5229
 6492SOL    HW229811   4.108   8.206   0.604 -0.6026  1.6097  1.5332
 6493SOL     OW29812   3.573   3.397   1.345 -0.2560 -0.4732 -0.3494
 6493SOL    HW129813   3.623   3.409   1.260  0.1668  1.8665  0.1979
 6493SOL    HW229814   3.598   3.309   1.386  1.5184 -0.4435 -1.3250
 6494SOL     OW29815   2.819   5.209   3.108  0.4817 -0.3086 -0.2238
 6494SOL    HW129816   2.845   5.305   3.107 -0.7918  0.0921  1.6803
 6494SOL    HW229817   2.719   5.201   3.102  0.7282 -1.6457 -3.4763
 6495SOL     OW29818   9.413   0.002   0.358 -0.5573  0.1836  0.0896
 6495SOL    HW129819   9.438   0.069   0.428 -2.6243  2.0083 -0.8707
 6495SOL    HW229820   9.486  -0.001   0.288  0.6044 -0.2537  1.2990
 6496SOL     OW29821   7.140   8.231   1.945 -0.0181  0.1043  0.0114
 6496SOL    HW129822   7.059   8.224   2.003 -1.3409 -1.1827 -1.9185
 6496SOL    HW229823   7.164   8.327   1.932 -1.3587  0.5085  0.4526
 6497SOL     OW29824   5.552   9.849   2.377 -0.6908 -0.0645  1.1299
 6497SOL    HW129825   5.482   9.834   2.307  0.0439  1.7607 -0.0294
 6497SOL    HW229826   5.595   9.761   2.400  1.1531 -0.3580 -2.9594
 6498SOL     OW29827   7.878   0.411   1.263  0.1311 -0.4718  0.3229
 6498SOL    HW129828   7.912   0.443   1.174 -0.6627  0.1232  0.2206
 6498SOL    HW229829   7.853   0.491   1.319 -0.7828 -0.8787  0.5071
 6499SOL     OW29830   9.984   9.486   0.947  0.3337 -0.1550 -0.5528
 6499SOL    HW129831   9.927   9.405   0.935 -0.5075  0.4552 -0.7559
 6499SOL    HW229832  10.054   9.468   1.016 -0.9082 -0.5047  0.6390
 6500SOL     OW29833   1.503   4.270   2.357 -0.0934  0.5552 -0.0384
 6500SOL    HW129834   1.577   4.322   2.399  0.2369  0.7699 -0.8813
 6500SOL    HW229835   1.542   4.198   2.298 -0.5482  0.3865 -0.1363
 6501SOL     OW29836   5.835   8.411   2.758  0.1889 -0.0590 -0.5814
 6501SOL    HW129837   5.925   8.399   2.716  1.0885 -1.5686  1.6802
 6501SOL    HW229838   5.768   8.357   2.708  0.9809 -0.8024 -0.8509
 6502SOL     OW29839   8.427   0.096   1.223  0.7330 -0.7082 -0.1635
 6502SOL    HW129840   8.340   0.065   1.185  0.1764 -0.0351  0.5586
 6502SOL    HW229841   8.445   0.047   1.309  1.2375 -1.0944 -0.4850
 6503SOL     OW29842   2.082   2.647   2.815 -0.3570 -0.1685 -0.2163
 6503SOL    HW129843   2.025   2.715   2.769 -1.2651  0.5751  1.9295
 6503SOL    HW229844   2.075   2.660   2.914  2.6443 -0.8075  0.1197
 6504SOL     OW29845   9.204   6.273   2.909 -0.3797  0.0163 -0.8214
 6504SOL    HW129846   9.282   6.218   2.941  0.1305 -0.1386 -2.2682
 6504SOL    HW229847   9.119   6.227   2.934 -0.0117 -0.0168  0.4299
 6505SOL     OW29848   9.554   6.076   2.439 -0.0538  0.2650  0.6052
 6505SOL    HW129849   9.639   6.126   2.457  0.2791  0.0879 -0.4641
 6505SOL    HW229850   9.575   5.979   2.427 -0.1146  0.5358 -1.8885
 6506SOL     OW29851   2.998   5.853   0.271  0.3906 -0.8436 -0.4416
 6506SOL    HW129852   3.028   5.901   0.188  1.9558  1.0158  1.1494
 6506SOL    HW229853   2.900   5.836   0.266 -0.2053  2.4336 -1.1486
 6507SOL     OW29854   0.862   3.584   3.184 -0.1806 -0.4696 -0.4204
 6507SOL    HW129855   0.874   3.485   3.199 -0.3062 -0.4632 -0.2805
 6507SOL    HW229856   0.945   3.621   3.141  0.7229 -0.2430  1.4677
 6508SOL     OW29857   2.582   7.300   1.006 -0.2501  0.5277 -0.1230
 6508SOL    HW129858   2.655   7.341   1.060 -0.9534  0.0916  1.1843
 6508SOL    HW229859   2.586   7.334   0.913  2.6889 -0.7724 -0.5313
 6509SOL     OW29860   3.922   3.849   0.745  1.1265  0.3912 -0.0213
 6509SOL    HW129861   3.964   3.761   0.765  1.6036  0.5824 -0.1877
 6509SOL    HW229862   3.826   3.835   0.721  0.4878  0.1453  2.4689
 6510SOL     OW29863   4.639   1.020   1.697 -0.4281  0.6606 -0.3770
 6510SOL    HW129864   4.726   1.052   1.734  0.3118 -0.8985 -0.7279
 6510SOL    HW229865   4.573   1.007   1.772  0.6043 -1.0950  0.2460
 6511SOL     OW29866   6.090   8.870   2.420  0.3902  0.6715  0.2810
 6511SOL    HW129867   6.093   8.775   2.453  1.7383  0.3499 -0.7099
 6511SOL    HW229868   6.008   8.914   2.454  0.2052 -0.5767  1.5272
 6512SOL     OW29869   0.748   8.044   2.851 -0.2390  0.3181  0.2302
 6512SOL    HW129870   0.740   7.989   2.934  0.7982  0.8715  0.6940
 6512SOL    HW229871   0.667   8.102   2.841 -1.4618 -1.4250 -0.3786
 6513SOL     OW29872   0.576   1.572   0.592  0.5535 -0.0387 -0.4230
 6513SOL    HW129873   0.500   1.637   0.594 -0.8315 -1.5575 -2.0769
 6513SOL    HW229874   0.626   1.582   0.506  0.5910 -0.8649 -0.4981
 6514SOL     OW29875   2.255   1.965   1.207 -0.0192  0.0016  0.8161
 6514SOL    HW129876   2.167   1.977   1.253  0.1214  0.8963  0.8674
 6514SOL    HW229877   2.245   1.900   1.131 -1.1990  1.6073 -0.4461
 6515SOL     OW29878   1.748   4.639   2.576 -0.1310  0.0091  0.4169
 6515SOL    HW129879   1.740   4.618   2.673 -0.9201 -1.3661  0.0656
 6515SOL    HW229880   1.710   4.729   2.557  1.1480  0.8141  1.5719
 6516SOL     OW29881   5.992   8.257   2.410 -0.5433  0.4879 -0.3528
 6516SOL    HW129882   5.902   8.296   2.391  0.3603  2.0956 -1.4783
 6516SOL    HW229883   6.007   8.177   2.351 -1.0708  0.4428 -0.4302
 6517SOL     OW29884   8.619   4.044   1.217 -0.4844  0.1404  0.0506
 6517SOL    HW129885   8.619   3.999   1.127 -1.9049 -0.1767  0.1933
 6517SOL    HW229886   8.685   4.119   1.217 -0.3128 -0.0047 -1.1923
 6518SOL     OW29887   3.508   8.551   3.016 -0.4316 -0.3022 -0.2367
 6518SOL    HW129888   3.556   8.492   3.081  0.3384  2.1877  1.5156
 6518SOL    HW229889   3.412   8.525   3.013 -0.3538 -0.8758  1.4561
 6519SOL     OW29890   3.177   8.855   0.124  0.2634 -0.2721 -0.3094
 6519SOL    HW129891   3.173   8.786   0.051 -0.8787 -0.4893 -0.0450
 6519SOL    HW229892   3.267   8.899   0.122  0.3886 -0.5402 -1.6115
 6520SOL     OW29893   8.453   3.089   2.460 -0.1194  1.0906  0.0678
 6520SOL    HW129894   8.532   3.139   2.426 -0.0136  0.5997 -0.4122
 6520SOL    HW229895   8.464   3.072   2.558 -0.5010  2.6491  0.4010
 6521SOL     OW29896   3.272   9.197   3.219  0.8606 -0.3300  0.1224
 6521SOL    HW129897   3.330   9.176   3.140  0.7023  1.9248 -0.6403
 6521SOL    HW229898   3.227   9.285   3.204 -1.0272 -0.9942  1.6945
 6522SOL     OW29899   9.810   3.198   2.634  0.6114 -0.0193  0.4073
 6522SOL    HW129900   9.866   3.271   2.595 -1.3839  1.4219  0.2123
 6522SOL    HW229901   9.725   3.236   2.670 -0.7227 -2.3168 -0.2113
 6523SOL     OW29902   9.487   3.104   3.202  0.1399  0.2961  0.1721
 6523SOL    HW129903   9.532   3.021   3.235  0.1849  0.6513  1.0130
 6523SOL    HW229904   9.539   3.143   3.126 -0.1826 -0.7552 -0.5913
 6524SOL     OW29905   0.840   9.950   0.907 -0.2492  0.0227 -0.2708
 6524SOL    HW129906   0.906   9.875   0.903 -0.3958 -0.1500  0.5547
 6524SOL    HW229907   0.872  10.026   0.851  0.3844 -0.2717 -0.3077
 6525SOL     OW29908   0.021   4.085   3.287  0.2716  0.5825 -0.3215
 6525SOL    HW129909   0.013   4.053   3.193 -0.1854  1.4101 -0.5677
 6525SOL    HW229910   0.107   4.052   3.326  1.3010  1.7143 -1.6124
 6526SOL     OW29911   8.490   1.848   2.791  0.2322 -0.6344  0.5745
 6526SOL    HW129912   8.433   1.819   2.714  1.4907 -0.5051 -0.4322
 6526SOL    HW229913   8.516   1.768   2.846  0.6554 -0.9427 -0.0714
 6527SOL     OW29914   6.445   8.105   2.787  0.0688  0.2097  0.0261
 6527SOL    HW129915   6.415   8.169   2.857  1.0465  1.1578 -0.4014
 6527SOL    HW229916   6.536   8.132   2.754  0.2177 -1.0331 -0.6050
 6528SOL     OW29917   0.627   8.711   0.381  0.3266  0.4261  0.4691
 6528SOL    HW129918   0.560   8.694   0.453 -0.0587  2.2274  0.5631
 6528SOL    HW229919   0.582   8.753   0.302  1.2334  1.0865  0.2887
 6529SOL     OW29920   2.444   5.833   2.701  0.2264 -0.3185  0.2789
 6529SOL    HW129921   2.360   5.860   2.749  0.3410 -0.5504  0.6120
 6529SOL    HW229922   2.522   5.879   2.742  0.3422 -0.6285  0.4104
 6530SOL     OW29923   0.993   5.983   1.375 -0.0193  0.4277 -0.4554
 6530SOL    HW129924   0.927   5.988   1.450 -1.2794 -0.8803 -1.4338
 6530SOL    HW229925   1.037   5.893   1.375 -1.0650 -0.1047 -2.1045
 6531SOL     OW29926   4.238   2.009   1.807  0.0078 -0.0734 -0.2047
 6531SOL    HW129927   4.232   2.108   1.792  0.5423 -0.3306 -2.2032
 6531SOL    HW229928   4.164   1.980   1.867 -0.8890  1.3483 -0.6094
 6532SOL     OW29929   9.971   2.201   2.583 -0.0458 -0.2154  0.4923
 6532SOL    HW129930   9.965   2.274   2.515  1.1867 -0.7662 -0.2412
 6532SOL    HW229931   9.998   2.240   2.671 -1.6305  0.4989  0.6757
 6533SOL     OW29932   9.137   4.301   1.803 -0.1067  0.0106 -0.0700
 6533SOL    HW129933   9.174   4.228   1.744  0.4547 -0.6089  1.0269
 6533SOL    HW229934   9.085   4.365   1.748 -0.1478 -0.9317 -1.1447
 6534SOL     OW29935   9.012   6.682   1.501  0.5557 -0.0465 -0.0642
 6534SOL    HW129936   8.995   6.781   1.507 -0.0465 -0.1535 -0.0033
 6534SOL    HW229937   9.027   6.657   1.405 -2.0823 -0.3453 -0.4261
 6535SOL     OW29938   0.603   9.237   2.356  0.4209 -0.7705  0.0557
 6535SOL    HW129939   0.566   9.160   2.304 -0.2411  0.0803 -0.7493
 6535SOL    HW229940   0.539   9.261   2.429  0.4289 -0.7236  0.0468
 6536SOL     OW29941   8.899   0.410   0.293  0.1553 -0.1402  0.3971
 6536SOL    HW129942   8.933   0.365   0.210  1.3819  0.2369  0.6908
 6536SOL    HW229943   8.802   0.434   0.280  0.7231  1.2363 -1.4753
 6537SOL     OW29944   8.479   2.024   0.917 -0.3163 -0.0746  0.0948
 6537SOL    HW129945   8.571   2.059   0.900 -0.6550  1.0372  0.5178
 6537SOL    HW229946   8.426   2.026   0.833 -0.3175  0.3946  0.1037
 6538SOL     OW29947   8.876   6.714   2.973 -0.3808  0.4380  0.5039
 6538SOL    HW129948   8.832   6.799   3.001 -1.0703  0.0328  0.6981
 6538SOL    HW229949   8.915   6.669   3.053  0.4603  0.8336  0.3188
 6539SOL     OW29950   8.183   7.865   2.755  0.2543  0.2607  0.4688
 6539SOL    HW129951   8.222   7.883   2.845  0.3174 -1.0685  0.7078
 6539SOL    HW229952   8.250   7.887   2.685  1.4143 -1.9120  0.8707
 6540SOL     OW29953   2.914   3.183   1.202  0.1270 -0.6216  0.2298
 6540SOL    HW129954   2.814   3.177   1.211  0.0951  0.6777  0.9182
 6540SOL    HW229955   2.938   3.270   1.159  0.9766 -0.7853  0.3676
 6541SOL     OW29956   9.418   0.047   2.996  0.3443 -0.1707 -0.4638
 6541SOL    HW129957   9.477   0.115   3.039 -0.6958  0.8360 -0.6242
 6541SOL    HW229958   9.381  -0.013   3.066  1.3598 -0.6669 -0.3360
 6542SOL     OW29959   3.719   4.667   2.321  0.1896 -0.7985  0.4551
 6542SOL    HW129960   3.665   4.687   2.402 -0.8718 -0.6854 -0.2648
 6542SOL    HW229961   3.779   4.589   2.339 -1.4545 -2.0253  0.7452
 6543SOL     OW29962   3.709   1.797   0.087 -0.1339 -0.0085 -0.8619
 6543SOL    HW129963   3.696   1.742   0.005 -0.1580 -1.0423 -0.1774
 6543SOL    HW229964   3.781   1.756   0.143 -1.3598 -0.3348  0.5060
 6544SOL     OW29965   0.930   0.348   1.753  0.2249 -0.0463  0.3514
 6544SOL    HW129966   0.908   0.434   1.799  0.9266 -0.6411  1.8376
 6544SOL    HW229967   0.933   0.363   1.654  2.9478  2.2713  0.7172
 6545SOL     OW29968   4.480   8.902   0.819  0.1937 -0.2510 -0.2477
 6545SOL    HW129969   4.483   8.877   0.916 -0.8537  0.8142  0.0762
 6545SOL    HW229970   4.537   8.839   0.767 -1.2719 -2.4115  0.7003
 6546SOL     OW29971   3.796   7.007   2.781  0.1130  0.6500  0.2303
 6546SOL    HW129972   3.788   7.065   2.700  1.1342 -0.5336 -0.7493
 6546SOL    HW229973   3.751   6.919   2.763 -2.0144  1.3617  1.9387
 6547SOL     OW29974   0.234   1.642   1.646  0.1973  0.1028  0.0912
 6547SOL    HW129975   0.302   1.700   1.689 -0.6376  1.2355 -0.0793
 6547SOL    HW229976   0.214   1.563   1.705  0.9329  0.2855  0.5833
 6548SOL     OW29977   3.297   3.009   0.005  0.0526 -0.3268 -0.2978
 6548SOL    HW129978   3.293   2.920  -0.040 -1.4403  0.3821 -1.6173
 6548SOL    HW229979   3.373   3.062  -0.032 -0.8471  0.0529 -1.6111
 6549SOL     OW29980   2.387   7.628   0.734  0.3220 -0.2607 -0.3376
 6549SOL    HW129981   2.372   7.631   0.635  1.2315  0.8143 -0.4600
 6549SOL    HW229982   2.481   7.657   0.754 -0.9667  3.1914  1.0702
 6550SOL     OW29983   4.335   8.504   3.097 -0.0829 -0.8436  0.0619
 6550SOL    HW129984   4.278   8.583   3.074  2.2595  0.1670 -2.4939
 6550SOL    HW229985   4.348   8.448   3.016  2.0365 -1.4185  0.7728
 6551SOL     OW29986   1.906   1.159   1.975  0.2627 -0.6916  0.3267
 6551SOL    HW129987   1.922   1.111   1.889 -1.5050  0.8978 -0.9077
 6551SOL    HW229988   1.819   1.129   2.014  0.2902 -0.2192  0.7515
 6552SOL     OW29989   2.731   5.068   1.317 -0.4758 -0.7911  0.0116
 6552SOL    HW129990   2.830   5.083   1.320 -0.6238  0.0867  0.6636
 6552SOL    HW229991   2.691   5.122   1.243 -0.6735  0.0929  0.7563
 6553SOL     OW29992   3.613   1.835   0.359  0.7437 -0.6765  0.1351
 6553SOL    HW129993   3.619   1.827   0.259  2.1589  0.7094  0.1045
 6553SOL    HW229994   3.704   1.827   0.399  0.5322  1.4071  1.1056
 6554SOL     OW29995   1.854   7.293   3.352  0.0286  0.0601 -0.2132
 6554SOL    HW129996   1.909   7.374   3.371  0.4848 -0.1132 -0.7866
 6554SOL    HW229997   1.757   7.317   3.355  0.0736  0.0994  2.0677
 6555SOL     OW29998   9.885   2.042   2.278 -0.1312  0.4039  0.1563
 6555SOL    HW129999   9.940   2.050   2.361  2.9637  0.7908 -1.8359
 6555SOL    HW230000   9.860   2.133   2.245 -1.0230  0.2648  0.4330
 6556SOL     OW30001   2.271   2.413   0.301  0.1718 -0.0709 -0.2924
 6556SOL    HW130002   2.319   2.488   0.346  0.2323 -0.6250  0.5737
 6556SOL    HW230003   2.264   2.432   0.203  2.1455  0.0405 -0.4378
 6557SOL     OW30004   7.622   0.478   1.708  1.0303 -0.0688  0.0929
 6557SOL    HW130005   7.586   0.572   1.702 -0.2038 -0.2471  3.5662
 6557SOL    HW230006   7.722   0.480   1.702  0.9535  1.3285 -1.0381
 6558SOL     OW30007   3.366   1.663   1.543  0.3699 -0.1136  0.1327
 6558SOL    HW130008   3.341   1.737   1.605  0.0472 -0.5352  0.5077
 6558SOL    HW230009   3.283   1.629   1.497  0.3611 -1.0059  0.8096
 6559SOL     OW30010   8.846   3.486   0.335  0.3354 -0.4199 -0.6638
 6559SOL    HW130011   8.877   3.392   0.350  0.0307 -0.8216 -2.4473
 6559SOL    HW230012   8.766   3.504   0.393  1.7449 -0.5050  1.3572
 6560SOL     OW30013   2.809   5.324   2.049 -0.4347  0.4247 -0.5226
 6560SOL    HW130014   2.905   5.301   2.036  0.5075  1.9939  3.2216
 6560SOL    HW230015   2.801   5.414   2.090 -3.5033  0.0072 -0.0916
 6561SOL     OW30016   9.603   0.784   1.947  0.2622  0.1071 -0.1782
 6561SOL    HW130017   9.648   0.773   1.858  0.5076 -0.1939 -0.0157
 6561SOL    HW230018   9.558   0.874   1.950  0.6916  0.3316 -0.4079
 6562SOL     OW30019   9.401   8.335   2.790  0.1627  0.3920 -0.6895
 6562SOL    HW130020   9.439   8.416   2.835  0.4288 -0.4347  0.6186
 6562SOL    HW230021   9.472   8.289   2.737  0.8424 -0.7333  1.1433
 6563SOL     OW30022   3.734   2.264   0.142 -0.6608 -0.1231  0.2131
 6563SOL    HW130023   3.682   2.187   0.107  1.3263  0.1043 -3.3967
 6563SOL    HW230024   3.825   2.234   0.170 -0.1724  0.7480 -0.4015
 6564SOL     OW30025   1.963   9.389   1.027  0.2321 -0.2214  0.0304
 6564SOL    HW130026   1.964   9.480   0.984 -0.4236  0.4624  1.4091
 6564SOL    HW230027   2.016   9.392   1.112  2.1513 -1.7434 -1.0883
 6565SOL     OW30028   1.457   9.527   3.350  0.0311 -0.2228  0.1168
 6565SOL    HW130029   1.434   9.447   3.295  0.1797  0.2346 -0.6174
 6565SOL    HW230030   1.411   9.608   3.312  1.2240  0.3373 -0.1398
 6566SOL     OW30031   0.637   2.000   0.978  0.2992 -0.5551  0.0404
 6566SOL    HW130032   0.711   1.939   1.008  0.9003 -0.3233 -0.9428
 6566SOL    HW230033   0.579   1.951   0.914  1.0177  0.0188 -1.0669
 6567SOL     OW30034   9.557   2.281   0.984 -0.3756 -0.1237  0.4885
 6567SOL    HW130035   9.479   2.280   1.046  0.2960  0.7508  1.3652
 6567SOL    HW230036   9.527   2.312   0.894 -1.2375 -0.8107  0.5314
 6568SOL     OW30037   8.327   6.823   2.381 -0.6630  0.0901  0.0483
 6568SOL    HW130038   8.272   6.832   2.297 -1.4557  0.3490  0.5887
 6568SOL    HW230039   8.383   6.905   2.393 -1.4590  0.5792  0.4187
 6569SOL     OW30040   3.389   3.083   1.829 -0.4367 -0.1756  0.1490
 6569SOL    HW130041   3.407   3.103   1.926 -1.0035  0.9615  0.0288
 6569SOL    HW230042   3.359   3.167   1.783 -2.0025 -1.1144 -0.5808
 6570SOL     OW30043   8.094   3.740   0.998  0.2637  0.2041 -0.0943
 6570SOL    HW130044   8.134   3.671   1.058 -1.2322 -0.5616  0.0341
 6570SOL    HW230045   8.074   3.822   1.051 -0.4945 -0.2570  0.3425
 6571SOL     OW30046   2.338   6.268   1.487 -0.0497 -0.4954 -0.7022
 6571SOL    HW130047   2.343   6.353   1.434 -0.2663 -0.2048 -0.2550
 6571SOL    HW230048   2.430   6.240   1.513 -0.1534  1.2343  1.7323
 6572SOL     OW30049   8.147   8.142   3.303  0.0638 -0.0373  0.3546
 6572SOL    HW130050   8.118   8.220   3.247  1.7099  0.2647 -0.0984
 6572SOL    HW230051   8.161   8.173   3.397 -1.0074 -0.1806  0.5771
 6573SOL     OW30052   1.624   2.479   2.107  0.1018 -0.2460 -0.0452
 6573SOL    HW130053   1.700   2.414   2.097 -0.5581 -0.8257 -1.3434
 6573SOL    HW230054   1.606   2.522   2.019 -1.1018 -0.1297  0.2530
 6574SOL     OW30055   4.771   9.038   3.032 -0.2237  0.3486 -0.7671
 6574SOL    HW130056   4.825   9.040   3.116 -0.8262 -0.5538 -0.3478
 6574SOL    HW230057   4.822   9.082   2.958  0.5334  0.6700 -0.0552
 6575SOL     OW30058   9.515   8.458   0.112  0.5318 -0.6993  0.5632
 6575SOL    HW130059   9.476   8.444   0.021  0.1266 -0.6118  0.7215
 6575SOL    HW230060   9.579   8.534   0.110  2.3169 -2.2055 -0.1807
 6576SOL     OW30061   9.277   6.602   0.010  0.2475  0.3905  0.4989
 6576SOL    HW130062   9.235   6.634  -0.075  2.0879  0.6363 -0.3490
 6576SOL    HW230063   9.225   6.525   0.046  0.6326 -1.0671 -1.9785
 6577SOL     OW30064   0.552   7.173   2.838 -0.9650  0.0395  0.0595
 6577SOL    HW130065   0.622   7.200   2.772 -0.5866  0.3638  0.5935
 6577SOL    HW230066   0.520   7.081   2.816  1.0807 -0.9203  1.0148
 6578SOL     OW30067   0.792   7.015   3.195 -0.6254 -0.7565 -0.2685
 6578SOL    HW130068   0.725   7.084   3.167 -0.4339  0.0437  1.2077
 6578SOL    HW230069   0.840   6.981   3.114 -1.9433 -0.4349 -1.1976
 6579SOL     OW30070   8.106   2.715   1.645  0.6587 -0.0375 -0.0294
 6579SOL    HW130071   8.125   2.773   1.566 -1.1698 -0.2790 -0.6818
 6579SOL    HW230072   8.090   2.621   1.614 -1.4356  0.1279  0.4385
 6580SOL     OW30073   6.854   0.142   3.123  0.4914 -0.0291  0.5042
 6580SOL    HW130074   6.775   0.081   3.114  2.1881 -2.5001  1.6592
 6580SOL    HW230075   6.849   0.192   3.209  0.8750 -1.2716  1.2650
 6581SOL     OW30076   9.582   6.412   3.212 -0.1352 -0.1774  0.6385
 6581SOL    HW130077   9.575   6.427   3.310 -1.6904 -0.2221  0.5480
 6581SOL    HW230078   9.513   6.467   3.165 -0.3734 -1.2694 -0.3147
 6582SOL     OW30079   4.993   0.288   3.416 -0.2177 -0.5784  0.8828
 6582SOL    HW130080   4.931   0.267   3.492 -1.8050  0.5015 -0.0750
 6582SOL    HW230081   4.950   0.356   3.356  1.6727 -0.2403 -0.1225
 6583SOL     OW30082   8.331   5.658   1.874 -0.0603  0.6559  0.1660
 6583SOL    HW130083   8.256   5.602   1.839  0.3088  0.3609 -0.1507
 6583SOL    HW230084   8.343   5.638   1.972  0.0917  0.1584  0.0482
 6584SOL     OW30085   2.269   6.529   0.285 -0.4041 -0.1338  0.1752
 6584SOL    HW130086   2.286   6.596   0.213 -0.6460  0.4310  0.6453
 6584SOL    HW230087   2.332   6.451   0.273  0.6913  0.7195  0.3376
 6585SOL     OW30088   2.239   3.618   2.284 -0.0054 -0.4429 -0.2135
 6585SOL    HW130089   2.147   3.654   2.297  0.1720  0.4409 -1.4178
 6585SOL    HW230090   2.238   3.546   2.214 -0.0510 -1.5802  0.9292
 6586SOL     OW30091   2.124   7.676   2.939 -0.2763  0.5185 -0.6144
 6586SOL    HW130092   2.102   7.583   2.968  0.0363  0.3576 -0.8860
 6586SOL    HW230093   2.144   7.732   3.019  3.3969 -0.6427 -0.6082
 6587SOL     OW30094   8.731   4.085   0.703 -0.4116  0.0114 -0.5587
 6587SOL    HW130095   8.798   4.062   0.633  0.8040 -1.2979  1.0019
 6587SOL    HW230096   8.758   4.170   0.748  0.2861 -0.5682  0.1384
 6588SOL     OW30097   1.971   1.976   2.398 -0.1260 -0.1249 -0.3521
 6588SOL    HW130098   1.942   2.062   2.440 -0.8328 -1.0948  1.1897
 6588SOL    HW230099   1.927   1.967   2.309 -1.1790  0.4439  0.1008
 6589SOL     OW30100   1.081   7.898   3.147  0.1801  0.4365  0.5617
 6589SOL    HW130101   1.089   7.840   3.066 -0.8373 -0.0520  0.8099
 6589SOL    HW230102   1.073   7.994   3.118  0.5106  0.3315  0.1112
 6590SOL     OW30103   3.732   9.380   0.753  0.5952  0.5810  0.2944
 6590SOL    HW130104   3.664   9.410   0.687  0.5884 -0.2014 -0.0539
 6590SOL    HW230105   3.800   9.321   0.708  0.0706 -0.7045  1.1613
 6591SOL     OW30106   2.113   1.444   2.988 -0.4313 -0.4507 -0.1034
 6591SOL    HW130107   2.183   1.390   3.035 -0.0157 -0.5250 -0.8084
 6591SOL    HW230108   2.152   1.532   2.961 -0.6352 -0.4626 -0.4318
 6592SOL     OW30109   3.845   9.843   0.974  0.2421  0.3334  0.3198
 6592SOL    HW130110   3.788   9.770   0.938 -0.7484  1.0856  0.3263
 6592SOL    HW230111   3.813   9.868   1.066  0.0973  1.2686  0.0235
 6593SOL     OW30112   2.035   4.005   1.457 -0.0520  0.2871 -0.0991
 6593SOL    HW130113   2.032   4.099   1.491  2.3247  0.4685 -0.3104
 6593SOL    HW230114   1.978   3.947   1.515  0.0474  1.4911  1.2351
 6594SOL     OW30115   8.582   2.392   0.555 -0.6241 -0.5079 -0.2541
 6594SOL    HW130116   8.604   2.432   0.643 -0.6232 -1.9000  0.3893
 6594SOL    HW230117   8.626   2.444   0.482 -0.5054  0.5539  0.5653
 6595SOL     OW30118   1.804   8.763   3.282  0.1801  0.3465 -0.6222
 6595SOL    HW130119   1.841   8.804   3.198  0.5623  0.9329 -0.1757
 6595SOL    HW230120   1.710   8.794   3.296 -0.4807 -1.1073 -1.7332
 6596SOL     OW30121   2.467   0.857   0.619 -0.3373 -0.2377  0.0284
 6596SOL    HW130122   2.465   0.953   0.593 -0.1080  0.2525  1.7459
 6596SOL    HW230123   2.438   0.801   0.542  0.3793  1.1407 -1.2784
 6597SOL     OW30124   3.263   0.603   3.077 -0.0195 -0.3307  0.0197
 6597SOL    HW130125   3.288   0.700   3.069 -0.9119 -0.0777  0.2872
 6597SOL    HW230126   3.172   0.595   3.117 -1.6714 -1.1211 -3.6696
 6598SOL     OW30127   1.798   4.494   2.082 -0.5899  0.0784 -0.5767
 6598SOL    HW130128   1.763   4.407   2.047 -1.4187  0.5958 -1.0286
 6598SOL    HW230129   1.837   4.547   2.007 -2.2674  1.1387 -0.6963
 6599SOL     OW30130   8.066   2.399   1.873  0.2475  0.1705 -0.0517
 6599SOL    HW130131   8.013   2.402   1.789  0.9705 -0.1573 -0.5285
 6599SOL    HW230132   8.117   2.484   1.883 -0.1917  0.3953  0.2919
 6600SOL     OW30133   3.941   8.069   1.199 -0.6214 -0.1613  0.6396
 6600SOL    HW130134   4.032   8.107   1.216  0.0496 -1.5559  0.2056
 6600SOL    HW230135   3.884   8.078   1.281  0.0879  0.1953  1.0909
 6601SOL     OW30136   2.750   4.640   2.967 -0.3007  0.2081 -0.1244
 6601SOL    HW130137   2.797   4.563   3.008 -1.0783 -1.0901 -1.6246
 6601SOL    HW230138   2.815   4.714   2.950  0.4039 -0.0056  1.5136
 6602SOL     OW30139   1.672   8.123   2.685 -0.1406  0.0854 -0.1062
 6602SOL    HW130140   1.765   8.092   2.665  0.4196  0.5712  1.6122
 6602SOL    HW230141   1.669   8.223   2.684 -1.0086  0.0587 -1.6466
 6603SOL     OW30142   0.059   7.682   2.897  0.3151 -0.5237 -0.0266
 6603SOL    HW130143   0.003   7.663   2.816 -1.1772  0.1102  0.8273
 6603SOL    HW230144   0.030   7.622   2.972  0.7040 -0.1057  0.4596
 6604SOL     OW30145   4.101   0.610   0.527  0.2491  0.1351 -0.0313
 6604SOL    HW130146   4.116   0.526   0.578 -1.2317 -0.8568 -1.1817
 6604SOL    HW230147   4.009   0.645   0.545 -0.0285  0.1695 -1.4207
 6605SOL     OW30148   4.754   8.196   0.213 -0.1334  0.4975  0.4713
 6605SOL    HW130149   4.772   8.280   0.162 -0.8480  1.2546  1.4233
 6605SOL    HW230150   4.787   8.207   0.307 -0.3102 -0.2611  0.6263
 6606SOL     OW30151   4.383   3.446   1.528  0.4750 -0.3704 -0.0024
 6606SOL    HW130152   4.438   3.428   1.610  2.0213  1.4972 -0.5906
 6606SOL    HW230153   4.330   3.530   1.541  1.2824  0.3411 -1.1588
 6607SOL     OW30154   7.619   8.324   2.818 -0.2283 -0.8097  0.1627
 6607SOL    HW130155   7.646   8.330   2.914 -0.8397 -2.1048  0.4321
 6607SOL    HW230156   7.532   8.275   2.811 -0.4996 -0.1828 -1.0050
 6608SOL     OW30157   0.929   1.750   0.639 -0.0963  0.1751 -0.3498
 6608SOL    HW130158   0.902   1.700   0.722 -1.1451 -0.1027 -0.8470
 6608SOL    HW230159   0.990   1.693   0.584 -1.4313 -0.6498 -1.0015
 6609SOL     OW30160   0.137   1.921   0.571 -0.0097 -0.2788  0.5290
 6609SOL    HW130161   0.076   1.918   0.492 -0.0235  2.5053  0.4012
 6609SOL    HW230162   0.142   2.014   0.606  1.6250 -1.0896  2.5575
 6610SOL     OW30163   9.325   7.786   3.224 -0.0443 -1.0296  0.3499
 6610SOL    HW130164   9.302   7.723   3.299 -0.5115  0.6714  1.6570
 6610SOL    HW230165   9.305   7.880   3.252  0.0409 -0.3444 -1.8232
 6611SOL     OW30166   1.275   8.899   2.938  0.0950 -0.3941  0.5067
 6611SOL    HW130167   1.228   8.815   2.911 -0.5143 -0.1278  0.7281
 6611SOL    HW230168   1.228   8.978   2.899 -0.2178 -0.0625  1.5424
 6612SOL     OW30169   2.871   9.145   2.252  0.4887  0.1446 -0.2250
 6612SOL    HW130170   2.916   9.227   2.289  0.0382  0.3905 -0.2172
 6612SOL    HW230171   2.798   9.173   2.190 -0.8713 -0.2224  1.1924
 6613SOL     OW30172   3.752   3.627   1.121  0.1224  0.3678  0.1898
 6613SOL    HW130173   3.822   3.698   1.131 -0.7992  0.9180  3.2819
 6613SOL    HW230174   3.661   3.669   1.130 -0.6215 -0.5665 -2.3667
 6614SOL     OW30175   0.609   6.220   2.527  0.3206 -0.1199  0.3353
 6614SOL    HW130176   0.614   6.190   2.432  0.0072 -0.8117  0.5285
 6614SOL    HW230177   0.539   6.167   2.575 -1.4204  2.0751  0.2886
 6615SOL     OW30178   9.768   6.621   1.116 -0.1830 -0.5745  0.2679
 6615SOL    HW130179   9.691   6.578   1.069  0.3116 -1.0209 -0.1378
 6615SOL    HW230180   9.734   6.697   1.172 -1.1832 -2.0717  1.7405
 6616SOL     OW30181   1.785   9.052   0.927 -0.4366  0.1465 -0.2820
 6616SOL    HW130182   1.721   9.013   0.993 -0.3352 -0.1704 -0.3721
 6616SOL    HW230183   1.790   8.994   0.846  0.5466 -0.2560  0.0524
 6617SOL     OW30184   3.785   1.177   0.576 -0.2921  0.0640 -0.6922
 6617SOL    HW130185   3.775   1.276   0.585  2.3907  0.2876  0.3067
 6617SOL    HW230186   3.825   1.139   0.659 -0.9611 -1.8154 -1.1993
 6618SOL     OW30187   9.175   8.361   2.946  0.0684  0.3562 -0.0749
 6618SOL    HW130188   9.109   8.436   2.935 -2.1802 -1.6134 -0.4383
 6618SOL    HW230189   9.225   8.347   2.860 -1.8590 -0.6694 -1.0621
 6619SOL     OW30190   2.309   3.706   1.076 -0.0948  0.5144 -0.3304
 6619SOL    HW130191   2.287   3.686   1.171  1.4965 -0.6445 -0.1955
 6619SOL    HW230192   2.286   3.627   1.019  1.5114  0.1536 -0.5058
 6620SOL     OW30193   1.479   8.401   1.981  0.1188  0.1392 -0.0750
 6620SOL    HW130194   1.550   8.445   1.926  1.4470  0.4851  1.8627
 6620SOL    HW230195   1.447   8.319   1.934  2.5998 -0.6445 -0.5081
 6621SOL     OW30196   8.818   9.615   2.008 -0.3288  0.0144  0.0222
 6621SOL    HW130197   8.906   9.661   2.015 -0.6603  0.3896  2.0031
 6621SOL    HW230198   8.831   9.516   2.015 -0.1506  0.1246  1.3858
 6622SOL     OW30199   1.765   4.264   1.212  0.3499 -0.0664  0.1200
 6622SOL    HW130200   1.668   4.247   1.195  0.9565 -3.4142 -0.3052
 6622SOL    HW230201   1.779   4.277   1.311 -0.2048 -2.2798  0.5242
 6623SOL     OW30202   0.935   8.512   2.965  0.0231 -0.5881 -0.1276
 6623SOL    HW130203   0.958   8.448   3.039 -0.1347 -0.8631 -0.3146
 6623SOL    HW230204   1.016   8.565   2.941 -0.6545  1.7166  2.3646
 6624SOL     OW30205   5.346   8.438   2.994 -0.4309 -0.6615  0.1207
 6624SOL    HW130206   5.432   8.486   3.010  0.1519 -0.9361 -2.0214
 6624SOL    HW230207   5.309   8.465   2.905 -1.6006 -1.9294  0.2132
 6625SOL     OW30208   9.094   2.089   1.568 -0.1904 -0.3673  0.3906
 6625SOL    HW130209   9.093   2.173   1.623 -0.0881 -0.1386  0.0434
 6625SOL    HW230210   9.001   2.051   1.563 -0.5408  0.6118 -0.8019
 6626SOL     OW30211   0.265   7.602   1.938  0.0506  0.6771  0.3188
 6626SOL    HW130212   0.181   7.558   1.906 -0.1873  0.0798  1.7152
 6626SOL    HW230213   0.344   7.545   1.916  0.0380  0.9854 -0.5250
 6627SOL     OW30214   2.421   0.649   1.757  0.5353 -0.3424  0.6028
 6627SOL    HW130215   2.518   0.671   1.766  0.1263  2.5555 -1.6322
 6627SOL    HW230216   2.409   0.578   1.688  1.0115 -0.6186  0.7974
 6628SOL     OW30217   1.450   1.907   0.908 -0.3081  0.1258  0.4596
 6628SOL    HW130218   1.417   1.819   0.874  0.3747 -0.3979  1.1364
 6628SOL    HW230219   1.432   1.978   0.839 -1.1580 -0.4766  0.0492
 6629SOL     OW30220   8.701   1.823   3.079 -0.6023  0.0332 -0.0909
 6629SOL    HW130221   8.684   1.922   3.079  0.9074  0.3045 -0.9438
 6629SOL    HW230222   8.781   1.803   3.136  0.1524 -0.4970 -1.3205
 6630SOL     OW30223   3.838   3.139   2.360  0.8677  0.2251  0.0145
 6630SOL    HW130224   3.811   3.136   2.264  0.4437 -2.4096  0.1846
 6630SOL    HW230225   3.781   3.207   2.408  0.3766  0.8161 -1.3706
 6631SOL     OW30226   8.527   7.113   1.085 -0.1805  0.0696  0.1363
 6631SOL    HW130227   8.578   7.199   1.075  0.9478 -0.4774  1.0792
 6631SOL    HW230228   8.587   7.036   1.064 -1.8117 -0.4314 -2.9948
 6632SOL     OW30229   2.559   0.929   1.957  0.1436 -0.0629  0.0876
 6632SOL    HW130230   2.626   0.990   1.998  2.1958 -1.0313 -1.7188
 6632SOL    HW230231   2.530   0.966   1.868 -1.6215  0.2727  0.7830
 6633SOL     OW30232   8.592   8.119   0.241 -0.1487  0.4975  0.1905
 6633SOL    HW130233   8.662   8.126   0.311 -1.2003  1.2951  1.1844
 6633SOL    HW230234   8.554   8.026   0.240 -0.5695  0.6547  1.1140
 6634SOL     OW30235   1.775   7.057   0.044  0.3123 -0.4581 -1.0227
 6634SOL    HW130236   1.843   7.124   0.013  0.9207 -0.2767  0.6486
 6634SOL    HW230237   1.719   7.098   0.116  1.3719 -2.0439  0.7755
 6635SOL     OW30238   2.569   5.211   2.897  0.5888  0.1850 -0.1998
 6635SOL    HW130239   2.616   5.285   2.849  2.6600 -0.7943  0.2806
 6635SOL    HW230240   2.505   5.165   2.835  0.2060  1.5631 -0.8375
 6636SOL     OW30241   9.869   3.888   0.230  0.1624 -0.1893 -0.1271
 6636SOL    HW130242   9.899   3.793   0.227  0.1474 -0.2285  0.8075
 6636SOL    HW230243   9.844   3.912   0.323  0.0356  0.6939 -0.3839
 6637SOL     OW30244   9.527   6.578   0.932  0.5200 -0.3300  0.3586
 6637SOL    HW130245   9.442   6.604   0.978  0.2017 -1.7075  0.5653
 6637SOL    HW230246   9.578   6.661   0.908 -0.9560  0.5237  0.0872
 6638SOL     OW30247   0.415   3.438   0.065 -1.0153  0.0076 -0.2749
 6638SOL    HW130248   0.425   3.361   0.002 -0.0139 -0.3603  0.3131
 6638SOL    HW230249   0.381   3.518   0.016 -0.8722 -0.4603 -1.1404
 6639SOL     OW30250   2.620   7.114   1.658 -0.0313  0.6493 -0.1535
 6639SOL    HW130251   2.699   7.164   1.695 -0.4450  0.4921  0.9399
 6639SOL    HW230252   2.591   7.043   1.722 -0.6664  0.2781 -0.8369
 6640SOL     OW30253   8.851   4.933   0.207  0.2112  0.2817  0.2905
 6640SOL    HW130254   8.854   4.833   0.216  0.0041  0.1647 -0.8131
 6640SOL    HW230255   8.782   4.970   0.269  0.4603 -0.2382  0.8832
 6641SOL     OW30256   2.398   2.642   0.399 -0.5559 -0.1015  0.3324
 6641SOL    HW130257   2.393   2.657   0.498 -3.0749 -1.1795  0.3822
 6641SOL    HW230258   2.360   2.721   0.352  0.1334  0.1677  0.2142
 6642SOL     OW30259   1.896   5.198   0.436  0.8265  0.1520 -0.3540
 6642SOL    HW130260   1.993   5.175   0.447  0.4660 -1.4086 -0.2816
 6642SOL    HW230261   1.841   5.115   0.446 -0.4201  0.7676 -1.7893
 6643SOL     OW30262   1.846   3.928   0.321 -0.3038 -0.2432 -0.2050
 6643SOL    HW130263   1.748   3.947   0.317 -0.0743  0.6635 -1.6447
 6643SOL    HW230264   1.877   3.891   0.233  0.8698  0.6059 -0.1584
 6644SOL     OW30265   3.734   7.162   2.593 -0.0984  0.6755  0.1866
 6644SOL    HW130266   3.753   7.259   2.612  1.2930  0.0766  1.9266
 6644SOL    HW230267   3.645   7.138   2.631 -0.7813  1.4459 -0.8938
 6645SOL     OW30268   4.482   9.620   0.247  0.3990 -0.3385  0.0230
 6645SOL    HW130269   4.437   9.709   0.260 -1.4713 -1.3093  0.3833
 6645SOL    HW230270   4.549   9.606   0.320 -1.0087 -0.2527  1.3583
 6646SOL     OW30271   2.999   8.827   2.873  0.7295 -0.2676  0.3715
 6646SOL    HW130272   3.027   8.921   2.856  1.4959 -0.6158 -0.3210
 6646SOL    HW230273   3.054   8.788   2.948  0.8811 -0.3838  0.2001
 6647SOL     OW30274   2.822   7.437   2.790 -0.3359 -0.3240 -0.0983
 6647SOL    HW130275   2.899   7.422   2.852 -0.5730 -1.0712  0.0230
 6647SOL    HW230276   2.855   7.449   2.697 -0.1831 -2.7900 -0.4016
 6648SOL     OW30277   8.963   4.783   1.654  0.2272 -0.9140  0.6231
 6648SOL    HW130278   8.931   4.694   1.620 -0.7693 -0.2789 -0.1097
 6648SOL    HW230279   8.903   4.855   1.620  2.9661  0.4197 -1.6372
 6649SOL     OW30280   0.536   9.922   0.773  0.4200  0.1704  0.4359
 6649SOL    HW130281   0.495   9.840   0.812 -0.2253 -0.3732 -1.3265
 6649SOL    HW230282   0.584   9.898   0.689  0.4875  1.5415  0.0719
 6650SOL     OW30283   3.053   0.740   2.446  0.0176 -0.5859  0.5923
 6650SOL    HW130284   3.122   0.669   2.462 -0.0218 -0.6532  0.4733
 6650SOL    HW230285   3.080   0.795   2.367 -0.2097 -0.7993  0.3640
 6651SOL     OW30286   9.546   6.563   0.026 -0.2677 -0.0122 -0.0733
 6651SOL    HW130287   9.585   6.598   0.111  0.0780  0.9641 -0.6283
 6651SOL    HW230288   9.446   6.565   0.032 -0.2395 -0.9803  0.7262
 6652SOL     OW30289   8.876   9.637   0.961  0.5241  1.0444 -0.2640
 6652SOL    HW130290   8.864   9.581   0.878  1.6433  1.0940 -0.4647
 6652SOL    HW230291   8.786   9.667   0.993  0.0887  1.3015 -1.6514
 6653SOL     OW30292   3.124   2.612   0.108 -0.2726 -0.0312  0.3528
 6653SOL    HW130293   3.124   2.622   0.207 -1.3622 -0.1256  0.3676
 6653SOL    HW230294   3.087   2.523   0.083  0.0897 -0.0480 -0.1387
 6654SOL     OW30295   0.492   5.307   1.125 -0.2116  1.0669  0.2799
 6654SOL    HW130296   0.557   5.248   1.077 -2.0624 -0.7752 -0.0219
 6654SOL    HW230297   0.428   5.251   1.177 -3.2895  2.6462 -1.6094
 6655SOL     OW30298   3.165   6.577   2.744 -0.5885 -0.4735  0.3323
 6655SOL    HW130299   3.181   6.671   2.713 -0.3520 -0.1068  1.5577
 6655SOL    HW230300   3.076   6.571   2.787 -1.8232 -1.4638 -2.2462
 6656SOL     OW30301   8.886   9.078   0.811  0.6079 -0.2831 -0.0765
 6656SOL    HW130302   8.874   9.158   0.752  2.0130  0.0927  0.1338
 6656SOL    HW230303   8.977   9.081   0.853 -0.3976 -0.4805  2.1961
 6657SOL     OW30304   3.228   3.262   0.466 -0.0404 -0.1602 -0.3381
 6657SOL    HW130305   3.255   3.186   0.408  0.7592 -0.3471  0.2560
 6657SOL    HW230306   3.270   3.251   0.557 -0.1600  0.8198 -0.1520
 6658SOL     OW30307   3.656   1.917   1.755  0.6587  0.3816  0.6306
 6658SOL    HW130308   3.744   1.964   1.748  0.2533  1.2523  1.1964
 6658SOL    HW230309   3.603   1.935   1.672  0.4580  1.0281  0.8970
 6659SOL     OW30310   0.818   1.115   1.738  0.1675 -0.0052  0.0028
 6659SOL    HW130311   0.790   1.097   1.832  0.1849  0.2817  0.0633
 6659SOL    HW230312   0.751   1.175   1.694  0.7995  0.8846  0.2240
 6660SOL     OW30313   0.864   3.522   1.558 -0.6400 -0.3926 -0.0201
 6660SOL    HW130314   0.857   3.558   1.465  1.3481 -0.0604 -0.0712
 6660SOL    HW230315   0.938   3.569   1.606 -1.5901 -0.6170  1.7156
 6661SOL     OW30316   8.682   6.952   3.322  0.0001 -0.1224 -0.5104
 6661SOL    HW130317   8.583   6.947   3.303 -0.6088 -1.4135  2.7021
 6661SOL    HW230318   8.701   7.037   3.371 -0.1314 -1.3699  1.8131
 6662SOL     OW30319   1.896   1.152   3.202 -0.2147 -0.0927  0.1910
 6662SOL    HW130320   1.977   1.206   3.226 -0.8612  0.6439  0.7910
 6662SOL    HW230321   1.922   1.073   3.148  0.9206  0.0552  0.5221
 6663SOL     OW30322   9.150   1.281   1.096 -0.4039  0.6016  0.0850
 6663SOL    HW130323   9.228   1.320   1.145 -1.0722  1.6598  0.3405
 6663SOL    HW230324   9.150   1.315   1.002 -1.7165  2.3021  0.6683
 6664SOL     OW30325   2.658   6.221   0.640  0.4692 -0.2383  0.1541
 6664SOL    HW130326   2.633   6.128   0.666  0.1036  0.2401  1.5850
 6664SOL    HW230327   2.757   6.226   0.625  0.0794 -1.5880 -3.1951
 6665SOL     OW30328   0.875   4.556   0.451 -0.1440 -0.5492 -0.2216
 6665SOL    HW130329   0.867   4.637   0.509  0.0922 -1.8716  1.7049
 6665SOL    HW230330   0.787   4.539   0.406 -1.2654 -1.2510  2.1587
 6666SOL     OW30331   9.067   7.298   2.793 -0.3593  0.3325  0.5991
 6666SOL    HW130332   9.132   7.363   2.754 -0.6137  0.4456  0.3667
 6666SOL    HW230333   9.117   7.227   2.843  0.0859 -0.8173 -1.4435
 6667SOL     OW30334   0.377   1.185   0.769 -0.1601  0.8880 -0.1025
 6667SOL    HW130335   0.290   1.150   0.804 -0.2129  1.0005 -0.1190
 6667SOL    HW230336   0.406   1.263   0.824 -0.4314  1.3000 -0.5280
 6668SOL     OW30337   1.789   1.965   0.651 -0.0940  0.0994  0.6813
 6668SOL    HW130338   1.741   2.053   0.647 -2.4293 -1.1521  0.5309
 6668SOL    HW230339   1.771   1.913   0.567  2.4747  0.0655  0.1174
 6669SOL     OW30340   1.418   7.163   2.130  0.0211  0.1463  0.1928
 6669SOL    HW130341   1.426   7.088   2.195 -0.3257 -0.7371 -0.7765
 6669SOL    HW230342   1.336   7.151   2.074  0.7733  0.4005 -1.0042
 6670SOL     OW30343   3.322   9.173   2.181  0.1241 -0.1773 -0.0481
 6670SOL    HW130344   3.253   9.106   2.209  0.2872 -0.4633 -0.3182
 6670SOL    HW230345   3.398   9.125   2.136 -0.2082  0.2825 -1.1296
 6671SOL     OW30346   7.450   9.716   3.004  0.2768  0.0040  0.0517
 6671SOL    HW130347   7.394   9.647   2.957  2.5592 -1.5914 -0.4151
 6671SOL    HW230348   7.391   9.790   3.037 -1.8885 -0.8052 -1.8480
 6672SOL     OW30349   1.796   9.096   3.285 -0.3185 -0.1311  0.4685
 6672SOL    HW130350   1.871   9.078   3.350 -0.2900 -1.7303  0.0284
 6672SOL    HW230351   1.713   9.116   3.336 -0.6316 -2.7734  1.0730
 6673SOL     OW30352   5.076   2.534   1.763 -0.4295 -0.1268 -0.4953
 6673SOL    HW130353   4.980   2.512   1.775 -0.6129 -0.5400 -2.5148
 6673SOL    HW230354   5.088   2.587   1.679  1.2422 -1.0645 -0.8806
 6674SOL     OW30355   2.874   9.245   2.741 -0.0863  0.5159 -0.1760
 6674SOL    HW130356   2.857   9.189   2.660  1.0003  1.2293 -0.9086
 6674SOL    HW230357   2.948   9.205   2.794 -1.2091 -0.2941  0.8161
 6675SOL     OW30358   3.228   4.157   1.594 -0.1376 -0.0957  0.1033
 6675SOL    HW130359   3.291   4.090   1.554  0.6949  0.8615 -0.2220
 6675SOL    HW230360   3.253   4.249   1.563 -1.3962  0.3519  0.3706
 6676SOL     OW30361   8.843   1.610   3.385  0.2369  0.4516  0.2535
 6676SOL    HW130362   8.808   1.629   3.476  0.4043 -0.0671  0.4253
 6676SOL    HW230363   8.881   1.695   3.346 -1.9377  1.1969 -0.2764
 6677SOL     OW30364   2.197   6.342   2.272 -0.0161  0.1490 -0.0250
 6677SOL    HW130365   2.197   6.346   2.372  0.7964 -0.2831 -0.0065
 6677SOL    HW230366   2.203   6.247   2.243 -0.3206  0.2737 -0.4846
 6678SOL     OW30367   3.815   2.957   3.189  0.4100 -0.7031  0.4481
 6678SOL    HW130368   3.737   2.986   3.134  0.6200 -0.8904  0.0480
 6678SOL    HW230369   3.807   2.993   3.281  0.3533  0.0995  0.1305
 6679SOL     OW30370   3.229   2.285   2.064 -0.1118 -0.1657  0.1481
 6679SOL    HW130371   3.284   2.212   2.024  0.2103 -0.6363  1.4160
 6679SOL    HW230372   3.287   2.364   2.084  0.2998 -0.9998  2.3261
 6680SOL     OW30373   0.854   9.234   2.276 -0.2124 -0.3798 -0.1404
 6680SOL    HW130374   0.869   9.135   2.266 -0.8262 -0.3784 -1.1301
 6680SOL    HW230375   0.759   9.251   2.300 -0.3355  0.0252 -0.9058
 6681SOL     OW30376   1.715   2.675   2.304  0.6499 -0.0216  0.1611
 6681SOL    HW130377   1.669   2.761   2.283  1.6237  0.3016 -0.7201
 6681SOL    HW230378   1.670   2.600   2.255  0.7004  0.2034 -0.2306
 6682SOL     OW30379   0.056   0.444   0.242  0.4690  0.3186 -0.1515
 6682SOL    HW130380   0.081   0.535   0.208 -0.4968  0.6623  0.0449
 6682SOL    HW230381  -0.027   0.451   0.296  1.0489 -0.5056  0.8551
 6683SOL     OW30382   1.680   4.990   1.143 -0.1811 -0.3871 -0.7181
 6683SOL    HW130383   1.752   4.948   1.088  1.5936 -0.1851  1.4153
 6683SOL    HW230384   1.675   5.088   1.122  0.2161 -0.3850 -0.8091
 6684SOL     OW30385   1.852   6.988   0.677 -0.0788 -0.3928 -0.4609
 6684SOL    HW130386   1.926   6.964   0.739 -1.2547 -0.2105  1.0302
 6684SOL    HW230387   1.884   6.980   0.582  1.7843 -0.4600  0.1583
 6685SOL     OW30388   0.169   3.544   2.739 -0.6243  0.2746  0.3338
 6685SOL    HW130389   0.249   3.532   2.681 -0.4763  1.1839  0.3395
 6685SOL    HW230390   0.174   3.481   2.817  0.0836  0.3183  0.3252
 6686SOL     OW30391   1.304   7.446   0.384  0.1795  0.1925 -0.0847
 6686SOL    HW130392   1.293   7.425   0.481 -0.9827  0.2977 -0.1856
 6686SOL    HW230393   1.218   7.429   0.336  1.1305 -1.1806 -1.3522
 6687SOL     OW30394   8.962   4.663   2.326  0.2134  0.6074 -0.2022
 6687SOL    HW130395   8.951   4.622   2.417 -0.9804 -1.3665 -1.1995
 6687SOL    HW230396   9.050   4.710   2.321  0.4001  0.5375  1.8914
 6688SOL     OW30397   7.830   0.673   1.376 -0.4136  0.4480 -0.1119
 6688SOL    HW130398   7.904   0.739   1.389  0.1518 -0.4128  1.1500
 6688SOL    HW230399   7.752   0.719   1.334  0.1317  1.8157  0.3317
 6689SOL     OW30400   9.528   8.420   3.219 -0.3103  0.1628  0.0749
 6689SOL    HW130401   9.504   8.514   3.195 -0.6363 -0.0519 -0.4503
 6689SOL    HW230402   9.623   8.417   3.249 -0.0351  0.5144 -0.7515
 6690SOL     OW30403   9.335   1.822   0.992  0.8228 -0.1879  0.6463
 6690SOL    HW130404   9.426   1.851   1.020  0.4408  0.4528  1.2329
 6690SOL    HW230405   9.312   1.735   1.036  1.1626 -0.3673  0.4687
 6691SOL     OW30406   0.738   2.646   0.094 -0.8370  0.2608  0.3019
 6691SOL    HW130407   0.838   2.651   0.104 -0.5114 -2.4289 -1.1224
 6691SOL    HW230408   0.697   2.619   0.180 -0.4445  2.2811  1.1537
 6692SOL     OW30409   9.069   1.513   1.333  0.3056  0.3686 -0.7483
 6692SOL    HW130410   9.101   1.601   1.365 -0.8411  0.0682  1.3091
 6692SOL    HW230411   9.094   1.442   1.398 -0.6695 -0.5067 -1.2965
 6693SOL     OW30412   0.519   0.737   2.014 -0.2138 -0.2363 -0.2200
 6693SOL    HW130413   0.574   0.713   2.094  1.3950  0.4743 -1.0950
 6693SOL    HW230414   0.576   0.732   1.932 -1.0055  2.1594 -0.9476
 6694SOL     OW30415   9.403   4.411   2.869 -1.0455 -0.5750  0.4234
 6694SOL    HW130416   9.387   4.312   2.860  0.1184 -0.7850  0.5611
 6694SOL    HW230417   9.475   4.438   2.805 -2.6082  0.5184 -0.9060
 6695SOL     OW30418   1.655   8.957   2.315  0.1477 -0.3782  0.2232
 6695SOL    HW130419   1.602   8.980   2.397  0.4581  0.7885  0.1093
 6695SOL    HW230420   1.703   8.871   2.330  2.2938  1.1133  2.2863
 6696SOL     OW30421   4.300   0.079   1.662  0.0531 -0.3056 -0.6882
 6696SOL    HW130422   4.255   0.057   1.576 -0.6574 -1.0582 -0.1261
 6696SOL    HW230423   4.288   0.004   1.727  1.2716 -0.0997 -0.1958
 6697SOL     OW30424   9.746   8.387   2.966 -0.1956  0.0011 -0.0812
 6697SOL    HW130425   9.704   8.445   3.035  0.3095  0.1363  0.1132
 6697SOL    HW230426   9.738   8.430   2.876 -0.1664  0.1859  0.0049
 6698SOL     OW30427   0.837   0.373   0.704  0.2385  0.0798 -0.1712
 6698SOL    HW130428   0.903   0.439   0.667 -0.1192  0.3698 -0.3048
 6698SOL    HW230429   0.805   0.405   0.793 -0.2322  0.2889 -0.4152
 6699SOL     OW30430   3.945   1.594   1.450 -0.3900 -0.2117  1.0467
 6699SOL    HW130431   3.917   1.608   1.545 -0.9208  1.5405  0.6484
 6699SOL    HW230432   3.911   1.669   1.394  0.2826 -1.0147 -0.4691
 6700SOL     OW30433   4.811   8.342   2.472 -0.0552  0.2139 -0.4479
 6700SOL    HW130434   4.731   8.365   2.417  0.5763  2.1721 -0.6013
 6700SOL    HW230435   4.825   8.414   2.541  0.0971 -1.3844  1.2401
 6701SOL     OW30436   8.620   7.588   3.258 -0.0151  0.0228 -0.0572
 6701SOL    HW130437   8.558   7.531   3.313  0.4401  0.7616  1.2331
 6701SOL    HW230438   8.568   7.632   3.184 -0.7453 -0.4945  0.1446
 6702SOL     OW30439   9.889   1.746   0.711 -0.5147 -0.0273  0.1090
 6702SOL    HW130440   9.816   1.761   0.645  0.3386  1.7221 -0.4562
 6702SOL    HW230441   9.955   1.681   0.673  0.2838  1.4215 -1.0263
 6703SOL     OW30442   0.716   1.554   0.337  0.4792  0.4245 -0.2707
 6703SOL    HW130443   0.759   1.644   0.342  0.3698  0.4131  1.1421
 6703SOL    HW230444   0.788   1.484   0.332  0.5903  0.5195 -0.0340
 6704SOL     OW30445   0.933   6.365   1.324 -0.3257  0.7116  0.4509
 6704SOL    HW130446   0.983   6.329   1.245  0.3968  1.2158  0.6740
 6704SOL    HW230447   0.840   6.390   1.296 -0.0741  0.8893 -0.2433
 6705SOL     OW30448   1.809   8.749   1.626 -0.8631  0.7225 -0.0670
 6705SOL    HW130449   1.862   8.668   1.600 -3.1385 -0.4078 -1.2703
 6705SOL    HW230450   1.809   8.758   1.726  0.2484 -0.1482  0.0261
 6706SOL     OW30451   0.617   0.359   0.919 -0.2295 -0.2205  0.1867
 6706SOL    HW130452   0.700   0.357   0.975 -0.1001 -0.0524 -0.0017
 6706SOL    HW230453   0.563   0.276   0.937  0.3648 -0.7174 -0.2714
 6707SOL     OW30454   4.133   1.894   1.436  0.3914  0.2319  0.3688
 6707SOL    HW130455   4.165   1.849   1.520 -1.1674 -0.0270  0.8367
 6707SOL    HW230456   4.033   1.895   1.435  0.4059  0.8889 -1.1473
 6708SOL     OW30457   9.691   8.751   0.973 -0.3466 -0.1474 -0.1958
 6708SOL    HW130458   9.678   8.733   1.070 -2.4855 -1.5757 -0.7192
 6708SOL    HW230459   9.700   8.850   0.958 -2.7945  0.3284  1.1601
 6709SOL     OW30460   2.909   3.430   0.118  0.0071  0.0073 -0.3561
 6709SOL    HW130461   2.921   3.480   0.032 -0.3753  2.3731  0.9158
 6709SOL    HW230462   2.828   3.464   0.165  2.0641  1.1756  2.5061
 6710SOL     OW30463   9.932   8.904   1.118  0.2003 -0.6558  0.0668
 6710SOL    HW130464   9.838   8.932   1.140  1.0550  1.5139  1.1187
 6710SOL    HW230465   9.931   8.811   1.081 -2.1419 -1.4265  1.9216
 6711SOL     OW30466   1.919   8.046   2.619 -0.1531  0.1637  0.4379
 6711SOL    HW130467   1.916   8.017   2.523 -0.0114  1.5150  0.0058
 6711SOL    HW230468   1.992   7.996   2.667 -0.7608 -1.1108  0.0547
 6712SOL     OW30469   8.642   2.753   0.617 -0.2242  0.1902  0.0235
 6712SOL    HW130470   8.681   2.845   0.613  0.0629 -0.0046 -2.2289
 6712SOL    HW230471   8.544   2.759   0.636 -0.5356  1.0639 -1.7320
 6713SOL     OW30472   0.086   2.292   1.387 -0.0892  0.1852 -0.2204
 6713SOL    HW130473   0.012   2.243   1.342 -0.1121 -0.5785  0.6343
 6713SOL    HW230474   0.078   2.281   1.486  0.2638  1.4068 -0.0562
 6714SOL     OW30475   2.382   5.490   3.007 -0.0769  0.1410 -0.3166
 6714SOL    HW130476   2.453   5.500   3.077  0.4092  0.3110 -0.8271
 6714SOL    HW230477   2.425   5.487   2.917 -0.8045  1.3772 -0.7060
 6715SOL     OW30478   1.103   0.354   3.200  0.0896  0.1853 -0.2188
 6715SOL    HW130479   1.152   0.356   3.287 -1.4378  1.1404  0.6259
 6715SOL    HW230480   1.143   0.421   3.137  0.3765  0.3877  0.1813
 6716SOL     OW30481   3.675   0.464   2.894  0.4382  0.1443  0.1030
 6716SOL    HW130482   3.721   0.380   2.866 -0.9689 -2.1507  4.2111
 6716SOL    HW230483   3.581   0.463   2.861  1.2813  1.6835 -2.5285
 6717SOL     OW30484   2.607   3.977   0.156 -0.3159  0.2664  0.6583
 6717SOL    HW130485   2.640   3.887   0.130 -0.4415  0.0419  1.2549
 6717SOL    HW230486   2.545   4.012   0.085  0.9110  0.5413 -0.2873
 6718SOL     OW30487   1.054   7.353   0.007 -0.6218  0.1863  0.2575
 6718SOL    HW130488   1.102   7.324  -0.076  1.0958  1.7621  0.6854
 6718SOL    HW230489   0.956   7.357  -0.011 -0.1351  2.0203 -2.1585
 6719SOL     OW30490   2.194   4.844   0.069  0.2052  0.0415  0.0399
 6719SOL    HW130491   2.166   4.805   0.157  0.5182  2.5578  1.2880
 6719SOL    HW230492   2.131   4.814  -0.002  0.8411 -3.3093  0.7899
 6720SOL     OW30493   0.843   9.302   0.032  0.4126 -0.4274 -0.3983
 6720SOL    HW130494   0.814   9.231  -0.032  1.1711 -1.3880  0.3299
 6720SOL    HW230495   0.818   9.392  -0.006 -1.8783 -1.1150 -0.6297
 6721SOL     OW30496   0.958   4.673   0.113  0.4312 -0.8111 -0.6903
 6721SOL    HW130497   1.018   4.732   0.168  0.3214  0.0424 -1.4790
 6721SOL    HW230498   0.884   4.640   0.171 -0.9076  1.8358 -0.7958
 6722SOL     OW30499   0.578   3.277   1.870 -0.2201  0.2104  0.0296
 6722SOL    HW130500   0.518   3.345   1.826 -1.0310 -0.3781  0.2116
 6722SOL    HW230501   0.612   3.314   1.956 -1.4732  0.0058  0.6265
 6723SOL     OW30502   1.287   1.245   0.121 -0.4885 -0.3401 -0.1617
 6723SOL    HW130503   1.283   1.290   0.210 -1.5441 -0.0570 -0.3451
 6723SOL    HW230504   1.195   1.224   0.090 -0.1662  0.0929 -1.4607
 6724SOL     OW30505   8.777   1.372   1.843 -0.2663  0.1251  0.5271
 6724SOL    HW130506   8.729   1.331   1.920 -0.0814  0.6743  0.9435
 6724SOL    HW230507   8.821   1.457   1.873 -0.6410  0.6251 -0.3070
 6725SOL     OW30508   1.381   9.067   1.872  0.6820  0.0307 -0.2931
 6725SOL    HW130509   1.425   8.982   1.901  3.5975  1.7077  0.4856
 6725SOL    HW230510   1.329   9.105   1.949 -1.2797 -1.4264 -0.8856
 6726SOL     OW30511   9.057   8.821   1.468 -0.0891  0.0497  0.1666
 6726SOL    HW130512   8.978   8.769   1.435  0.0087 -0.2135  0.3459
 6726SOL    HW230513   9.131   8.816   1.401 -0.1730  0.1726  0.0653
 6727SOL     OW30514   9.909   1.449   2.948 -0.1892 -0.2595  0.3808
 6727SOL    HW130515   9.848   1.370   2.952 -0.0260 -0.5204 -1.6483
 6727SOL    HW230516   9.886   1.505   2.868 -0.0312  1.5326  1.5517
 6728SOL     OW30517   1.642   4.505   1.697  0.0184  0.1770 -0.1039
 6728SOL    HW130518   1.590   4.581   1.736 -1.8238 -0.7859 -0.6258
 6728SOL    HW230519   1.716   4.541   1.639  0.2615  1.5626  1.0636
 6729SOL     OW30520   1.074   7.755   2.024  0.6680  0.0899  0.3464
 6729SOL    HW130521   1.007   7.779   2.095  1.3301  0.4486  0.8555
 6729SOL    HW230522   1.048   7.799   1.938 -0.2845 -0.5566  0.2988
 6730SOL     OW30523   0.068   2.035   0.059 -0.4139  0.2491 -0.0030
 6730SOL    HW130524   0.032   2.110   0.003 -1.2398 -0.7749 -0.8730
 6730SOL    HW230525   0.047   1.948   0.015  1.1642 -0.4787  0.6291
 6731SOL     OW30526   3.090   5.289   2.045  0.4862  1.4300 -0.0902
 6731SOL    HW130527   3.169   5.340   2.079  1.9189  0.1813 -1.4739
 6731SOL    HW230528   3.077   5.307   1.948 -0.6065  1.2018  0.0027
 6732SOL     OW30529   3.845   9.032   3.218 -0.7865  0.2022 -0.2429
 6732SOL    HW130530   3.908   9.109   3.205  0.4191 -0.9131 -1.1204
 6732SOL    HW230531   3.784   9.026   3.139 -1.9329  1.1918  0.5402
 6733SOL     OW30532   3.923   9.610   1.333  0.0371 -0.1083  0.3327
 6733SOL    HW130533   4.022   9.594   1.329  0.2585  1.5765 -1.5120
 6733SOL    HW230534   3.887   9.621   1.241 -1.8522 -0.4444  0.9997
 6734SOL     OW30535   0.793   4.756   2.068 -0.0344  0.6070 -0.2883
 6734SOL    HW130536   0.827   4.843   2.103  0.2614  1.8640 -3.5567
 6734SOL    HW230537   0.693   4.758   2.066 -0.0631  0.4353  0.6427
 6735SOL     OW30538   2.203   2.047   1.579 -0.6415 -0.3307  0.3732
 6735SOL    HW130539   2.212   1.979   1.652  1.1845  0.1390  0.6212
 6735SOL    HW230540   2.284   2.045   1.521 -1.4294  0.3140 -0.7669
 6736SOL     OW30541   0.552   4.379   1.599  0.6734  0.3194 -0.3866
 6736SOL    HW130542   0.596   4.362   1.511 -0.3060  0.1379 -0.8470
 6736SOL    HW230543   0.503   4.296   1.628  0.1329  0.7079 -0.1772
 6737SOL     OW30544   9.318   7.305   0.997 -0.6121  0.0924  0.1889
 6737SOL    HW130545   9.333   7.401   1.021 -0.9600  0.3970 -0.8141
 6737SOL    HW230546   9.361   7.285   0.909  0.8643 -1.0958  1.1369
 6738SOL     OW30547   4.661   8.036   1.365  0.1752  0.1089  0.5277
 6738SOL    HW130548   4.573   8.034   1.412 -0.2138  0.0591 -0.1894
 6738SOL    HW230549   4.691   7.943   1.344  0.2660  0.1379  0.5270
 6739SOL     OW30550   1.501   7.055   1.133 -0.1845  0.3170 -0.1618
 6739SOL    HW130551   1.467   7.050   1.227 -0.9633  0.8519 -0.4069
 6739SOL    HW230552   1.523   7.149   1.110 -0.0917  0.2031 -0.5454
 6740SOL     OW30553   8.406   3.198   2.151  0.2384  0.0351 -0.4015
 6740SOL    HW130554   8.379   3.138   2.076  0.5060  0.4247 -0.8095
 6740SOL    HW230555   8.393   3.150   2.238 -2.7761  0.5749 -0.5133
 6741SOL     OW30556   1.334   5.148   0.695 -0.1930 -0.0385  0.3010
 6741SOL    HW130557   1.279   5.076   0.653  0.6104 -0.0827 -0.6784
 6741SOL    HW230558   1.397   5.108   0.761  1.5656 -0.4671 -1.5981
 6742SOL     OW30559   1.572   1.782   1.607 -0.3071  0.7510  0.4913
 6742SOL    HW130560   1.548   1.810   1.514  1.2135 -0.8442 -0.4245
 6742SOL    HW230561   1.506   1.715   1.640 -0.4890  0.8428  0.3138
 6743SOL     OW30562   0.627   9.540   1.634  0.5017 -0.2856 -0.7177
 6743SOL    HW130563   0.569   9.516   1.557 -2.4660 -0.8711  1.5855
 6743SOL    HW230564   0.668   9.457   1.672 -1.0778 -0.5262  0.5712
 6744SOL     OW30565   2.263   4.561   0.322  0.2796  0.6606 -0.0261
 6744SOL    HW130566   2.334   4.568   0.252  2.1277  1.2234  1.8304
 6744SOL    HW230567   2.267   4.471   0.365  1.5024  1.4762  1.6740
 6745SOL     OW30568   3.656   7.571   2.452 -0.7152  0.0023  0.1121
 6745SOL    HW130569   3.569   7.619   2.464 -0.0784  0.7958  1.7473
 6745SOL    HW230570   3.708   7.616   2.379 -1.1730  0.2698 -0.0560
 6746SOL     OW30571   9.353   9.183   0.108 -0.3822  0.2805  0.2205
 6746SOL    HW130572   9.377   9.133   0.191  1.3118 -0.4029 -0.6623
 6746SOL    HW230573   9.431   9.238   0.079 -1.3566  1.4189 -0.2951
 6747SOL     OW30574   9.117   7.374   0.308  0.1936 -0.5386  0.5691
 6747SOL    HW130575   9.122   7.285   0.354 -0.7852  0.2970  2.3379
 6747SOL    HW230576   9.024   7.411   0.316  0.8048  1.0398  0.5911
 6748SOL     OW30577   3.619   9.695   1.883  0.1267  0.1552  0.5630
 6748SOL    HW130578   3.650   9.724   1.973 -1.3835 -1.0455  1.4865
 6748SOL    HW230579   3.524   9.725   1.868 -0.0798 -0.7860 -0.0906
 6749SOL     OW30580   0.289   4.970   2.960 -0.1214 -0.0620 -0.3336
 6749SOL    HW130581   0.365   5.008   3.012 -1.0469  0.3857  0.6978
 6749SOL    HW230582   0.322   4.892   2.906  0.9712 -0.1437  0.4288
 6750SOL     OW30583   8.890   0.647   0.435 -0.4061  0.2903 -0.3129
 6750SOL    HW130584   8.923   0.586   0.363 -0.5305  0.1974 -0.2922
 6750SOL    HW230585   8.967   0.699   0.473 -0.2831  0.0653 -0.2547
 6751SOL     OW30586   1.213   2.008   0.221 -0.3404 -0.2621  0.5332
 6751SOL    HW130587   1.233   2.061   0.139 -2.4394 -0.8038 -0.3882
 6751SOL    HW230588   1.274   1.929   0.226  0.3719  0.2482 -0.0391
 6752SOL     OW30589   1.946   7.411   0.716  0.2081 -0.2439 -0.3401
 6752SOL    HW130590   1.938   7.321   0.758  1.2456  0.4124  1.3277
 6752SOL    HW230591   2.033   7.453   0.743  1.2131 -0.0500 -3.7030
 6753SOL     OW30592   4.434   3.039   2.351  0.4918 -0.4150  0.1717
 6753SOL    HW130593   4.366   3.103   2.386  1.1153  0.2998  0.1067
 6753SOL    HW230594   4.514   3.039   2.412  0.7279 -0.7101 -0.1345
 6754SOL     OW30595   2.758   8.354   0.950 -0.2287 -0.0670  0.4917
 6754SOL    HW130596   2.826   8.425   0.968  0.6226  0.1377 -3.2031
 6754SOL    HW230597   2.670   8.395   0.927 -0.4704 -0.2737  1.0250
 6755SOL     OW30598   0.905   7.735   0.040 -0.5071  0.0204 -0.0867
 6755SOL    HW130599   0.852   7.673   0.098 -1.0455  1.9373  1.5285
 6755SOL    HW230600   0.854   7.754  -0.044 -0.2327 -1.8685 -0.7057
 6756SOL     OW30601   3.956   8.297   2.154  0.0201 -0.0077  0.5718
 6756SOL    HW130602   4.005   8.250   2.081 -0.3950 -1.8949  1.4885
 6756SOL    HW230603   4.018   8.361   2.200  0.3202  1.1221 -1.3141
 6757SOL     OW30604   2.484   1.013   2.670 -0.4921  0.1862  0.4177
 6757SOL    HW130605   2.519   0.921   2.652  1.1684  0.8888 -0.0219
 6757SOL    HW230606   2.409   1.033   2.607 -0.2412 -0.5296 -0.1097
 6758SOL     OW30607   4.174   3.549   0.956 -0.2590 -0.1661  0.1339
 6758SOL    HW130608   4.197   3.627   0.898 -0.7245 -0.3323 -0.2790
 6758SOL    HW230609   4.228   3.552   1.040 -1.5607  1.5588  0.9237
 6759SOL     OW30610   1.048   9.266   1.326 -0.3523 -0.5757  0.1757
 6759SOL    HW130611   1.142   9.271   1.361  0.1033 -0.3959 -1.0761
 6759SOL    HW230612   0.985   9.299   1.397  0.7511  1.9281  0.0475
 6760SOL     OW30613   1.580   4.646   2.176 -0.5006 -0.2004 -0.4305
 6760SOL    HW130614   1.667   4.598   2.160  0.2284  1.2346 -0.8676
 6760SOL    HW230615   1.518   4.586   2.227  1.2431 -0.7692  1.0728
 6761SOL     OW30616   0.995   9.330   0.991  0.5522  0.4679 -0.0602
 6761SOL    HW130617   1.020   9.236   1.014  1.7711  0.3949 -1.5923
 6761SOL    HW230618   0.986   9.384   1.076 -0.4739 -1.0847  0.8359
 6762SOL     OW30619   7.926   7.288   2.196  0.0885 -0.1377  0.1291
 6762SOL    HW130620   7.960   7.375   2.160  0.4366  0.0311  0.8647
 6762SOL    HW230621   7.844   7.304   2.250  0.6562 -0.1535  1.0008
 6763SOL     OW30622   4.177   2.620   1.222 -0.0577  0.1417  0.1457
 6763SOL    HW130623   4.265   2.654   1.256  0.7461  0.9331 -2.5291
 6763SOL    HW230624   4.180   2.520   1.216 -0.5180 -0.0741  3.0705
 6764SOL     OW30625   4.551   3.308   0.514 -0.0695  0.4448  0.3892
 6764SOL    HW130626   4.459   3.270   0.530 -0.0586  0.2914  0.0919
 6764SOL    HW230627   4.618   3.234   0.520  0.0264  0.5404  0.5030
 6765SOL     OW30628   3.607   9.973   3.214  0.0451 -0.1553  0.0293
 6765SOL    HW130629   3.567   9.961   3.123  0.5747  0.0254 -0.2308
 6765SOL    HW230630   3.643   9.885   3.246  1.1574  0.0704 -0.5602
 6766SOL     OW30631   9.553   7.319   1.967  0.4568  0.7193 -0.2107
 6766SOL    HW130632   9.467   7.368   1.982  0.4254  0.5252  0.2511
 6766SOL    HW230633   9.630   7.378   1.992  0.3942  0.2816  1.0886
 6767SOL     OW30634   0.335   4.499   0.703 -0.3347  0.1814 -0.0181
 6767SOL    HW130635   0.275   4.575   0.726  0.2934  0.5799  0.3181
 6767SOL    HW230636   0.392   4.477   0.782 -0.0832 -0.2377 -0.3166
 6768SOL     OW30637   3.076   3.127   1.417 -0.1233  0.5094 -0.1392
 6768SOL    HW130638   3.022   3.152   1.337  0.6990 -0.3635 -0.9846
 6768SOL    HW230639   3.039   3.042   1.456 -0.8207  1.1878  0.7105
 6769SOL     OW30640   3.468   1.295   3.101 -0.1035 -0.2059  0.9016
 6769SOL    HW130641   3.502   1.336   3.185 -1.7294  1.6447  0.6792
 6769SOL    HW230642   3.401   1.224   3.123 -0.5152  0.2642  1.1521
 6770SOL     OW30643   8.721   2.558   3.065  0.7356 -0.2139  0.2835
 6770SOL    HW130644   8.659   2.607   3.004  1.8489 -0.6591 -1.2272
 6770SOL    HW230645   8.815   2.588   3.049  1.0481 -0.3299  1.7998
 6771SOL     OW30646   9.832   7.913   3.104 -0.4252 -0.2485 -0.0808
 6771SOL    HW130647   9.855   8.010   3.093  2.2573 -0.7706  0.6157
 6771SOL    HW230648   9.856   7.864   3.020  0.1515 -0.6446  0.3127
 6772SOL     OW30649   9.419   1.764   0.605 -0.0827 -0.2083 -0.5534
 6772SOL    HW130650   9.421   1.664   0.613 -3.3810 -0.1690  1.6016
 6772SOL    HW230651   9.432   1.790   0.509  2.6560 -2.5795 -0.8973
 6773SOL     OW30652   8.779   9.961   3.028 -0.6716  0.0011 -0.0601
 6773SOL    HW130653   8.698  10.012   3.058 -0.0725  0.8289  0.1621
 6773SOL    HW230654   8.781   9.956   2.928  0.4687  2.4124 -0.1877
 6774SOL     OW30655   1.306   7.851   1.001  0.3527 -0.9010  0.5137
 6774SOL    HW130656   1.367   7.928   1.017  1.0326 -1.1691 -0.7475
 6774SOL    HW230657   1.310   7.824   0.905 -0.5703 -1.9227  0.7476
 6775SOL     OW30658   0.797   8.958   1.180 -0.1428 -0.3907  0.3519
 6775SOL    HW130659   0.846   8.882   1.222  1.0631 -0.0237 -0.3699
 6775SOL    HW230660   0.750   8.925   1.098 -0.5634 -0.6009  0.6760
 6776SOL     OW30661   9.966   1.202   0.231 -0.3628  0.2829  0.0360
 6776SOL    HW130662   9.915   1.121   0.261 -0.1003  0.0846 -0.0523
 6776SOL    HW230663  10.047   1.173   0.180 -0.4800  0.6128 -0.3303
 6777SOL     OW30664   9.184   7.865   0.154  0.0211  0.5534 -0.0649
 6777SOL    HW130665   9.181   7.776   0.109  0.6893  0.3729  0.2587
 6777SOL    HW230666   9.104   7.919   0.125 -0.8773 -0.4848  0.4466
 6778SOL     OW30667   9.440   5.747   2.926 -0.3118 -0.4962 -0.2776
 6778SOL    HW130668   9.346   5.714   2.935 -0.7659  1.2799  1.5116
 6778SOL    HW230669   9.442   5.828   2.868  0.0544 -0.2286  0.1052
 6779SOL     OW30670   0.501   4.705   2.114  0.3306 -0.1833  0.2344
 6779SOL    HW130671   0.472   4.651   2.035  1.3186 -0.2249 -0.1095
 6779SOL    HW230672   0.421   4.731   2.168 -0.0730 -3.1607  1.1584
 6780SOL     OW30673   7.163   9.515   3.425 -0.0398 -0.4008  0.1435
 6780SOL    HW130674   7.162   9.434   3.366 -4.5193  0.4107 -1.1326
 6780SOL    HW230675   7.074   9.523   3.472  1.0240  2.6871  1.7910
 6781SOL     OW30676   1.858   6.140   1.469  0.0466  0.3114 -0.6217
 6781SOL    HW130677   1.859   6.174   1.375  0.4230  2.2014  0.0411
 6781SOL    HW230678   1.769   6.160   1.511  0.7442  1.7343  0.2084
 6782SOL     OW30679   1.369   1.797   0.212 -0.2820  0.2272 -0.0009
 6782SOL    HW130680   1.453   1.784   0.265 -1.4504 -2.0594  1.4007
 6782SOL    HW230681   1.343   1.709   0.171 -0.8993  1.3731 -2.1143
 6783SOL     OW30682   2.491   6.244   1.937  0.0862 -0.0076  0.1331
 6783SOL    HW130683   2.498   6.148   1.963 -0.4340 -0.0595  0.0809
 6783SOL    HW230684   2.417   6.256   1.871 -0.2816  0.5332  0.6395
 6784SOL     OW30685   1.133   1.182   2.043 -0.2972  0.1731  0.7464
 6784SOL    HW130686   1.171   1.113   1.981 -0.4646 -0.6965  1.6027
 6784SOL    HW230687   1.037   1.161   2.061 -0.2773  0.4908  1.2227
 6785SOL     OW30688   8.562   8.377   1.312 -0.1917  0.2661 -0.1346
 6785SOL    HW130689   8.479   8.413   1.270 -0.2649 -0.9227 -1.0268
 6785SOL    HW230690   8.639   8.437   1.290 -0.3572  0.0215 -1.3964
 6786SOL     OW30691   3.958   4.558   0.631 -0.2772  0.2705  0.2711
 6786SOL    HW130692   4.024   4.559   0.556 -0.4594 -0.2415  0.0988
 6786SOL    HW230693   3.886   4.626   0.613 -0.4294  0.0063 -0.1191
 6787SOL     OW30694   7.633   9.369   1.652 -0.2696 -0.0446 -0.3642
 6787SOL    HW130695   7.720   9.382   1.698 -1.1010  2.4243  0.6177
 6787SOL    HW230696   7.648   9.330   1.561  1.7985 -0.0180 -0.0485
 6788SOL     OW30697   0.282   0.430   3.029 -0.4572 -0.0979  0.3109
 6788SOL    HW130698   0.339   0.458   3.107 -0.6471 -0.9623  0.7698
 6788SOL    HW230699   0.331   0.449   2.944  0.2143 -0.1542  0.6766
 6789SOL     OW30700   0.485   1.901   2.533  0.4232 -0.2055 -0.6287
 6789SOL    HW130701   0.433   1.925   2.615  0.7735  0.2214 -0.5269
 6789SOL    HW230702   0.462   1.808   2.505 -0.7436  0.1390 -0.8595
 6790SOL     OW30703   8.906   0.200   2.436  0.3605  0.2332 -0.0158
 6790SOL    HW130704   8.964   0.265   2.386 -0.5670  0.4127 -0.8886
 6790SOL    HW230705   8.860   0.247   2.511 -1.0842  0.8331 -1.2614
 6791SOL     OW30706   9.484   2.009   2.083 -0.4733 -0.3302 -0.6041
 6791SOL    HW130707   9.407   2.005   2.147 -0.6597 -0.7033 -0.8567
 6791SOL    HW230708   9.457   2.057   2.000  0.0469  1.0167 -0.0160
 6792SOL     OW30709   2.299   1.938   3.232  0.6786  0.0409  0.4490
 6792SOL    HW130710   2.239   1.983   3.166  1.1279  0.6303  0.4449
 6792SOL    HW230711   2.394   1.947   3.203  0.8399 -0.0889  0.9363
 6793SOL     OW30712   1.768   1.981   3.310  0.5375 -0.0778  0.2526
 6793SOL    HW130713   1.679   1.939   3.328  0.3003  0.7243  0.9789
 6793SOL    HW230714   1.803   1.948   3.222  0.6666 -2.2941  1.1248
 6794SOL     OW30715   2.564   3.170   0.100  0.6160 -0.0232 -0.2286
 6794SOL    HW130716   2.510   3.254   0.111 -0.8831 -0.6940 -2.3572
 6794SOL    HW230717   2.520   3.110   0.034  2.5781 -1.7735  0.0148
 6795SOL     OW30718   2.252   7.688   1.735  0.6846 -0.4171  0.5455
 6795SOL    HW130719   2.254   7.645   1.825 -0.9496 -1.1445  0.2512
 6795SOL    HW230720   2.265   7.618   1.664 -1.5753 -0.4001  0.0816
 6796SOL     OW30721   8.898   0.739   3.086 -0.0876  0.4664 -0.2906
 6796SOL    HW130722   8.826   0.808   3.085 -1.0571 -0.4759  1.5541
 6796SOL    HW230723   8.988   0.784   3.079 -0.7299  1.8326  0.0546
 6797SOL     OW30724   3.364   1.844   0.481 -0.5563 -0.2434 -0.4839
 6797SOL    HW130725   3.458   1.842   0.447 -0.3856  0.2060 -0.0465
 6797SOL    HW230726   3.302   1.811   0.410 -0.1281  0.0111 -0.9814
 6798SOL     OW30727   2.367   2.164   0.286 -0.0986  0.6653 -0.0537
 6798SOL    HW130728   2.314   2.101   0.342 -0.7028  0.2409 -1.1008
 6798SOL    HW230729   2.327   2.256   0.292 -0.6899  0.4357 -0.4960
 6799SOL     OW30730   9.081   0.863   1.371  0.0552  0.2136 -0.3240
 6799SOL    HW130731   9.028   0.784   1.340  1.7536 -1.3876  0.6626
 6799SOL    HW230732   9.070   0.873   1.470 -0.1015  1.1704 -0.4385
 6800SOL     OW30733   2.671   9.858   1.502 -0.3854  0.7463  0.1015
 6800SOL    HW130734   2.667   9.767   1.542 -2.1715  0.1082 -1.4830
 6800SOL    HW230735   2.738   9.859   1.428 -1.7899  0.1748 -1.1926
 6801SOL     OW30736   4.916   0.132   0.190  0.2032 -0.4291  0.3190
 6801SOL    HW130737   5.001   0.086   0.165 -0.2197 -0.8444 -0.3614
 6801SOL    HW230738   4.843   0.065   0.198 -0.5959  0.1966 -1.4653
 6802SOL     OW30739   4.043   9.221   3.166 -0.2649  0.2208  1.0821
 6802SOL    HW130740   4.136   9.183   3.163  0.0232  0.9162  1.0767
 6802SOL    HW230741   4.035   9.294   3.098 -1.5413 -1.4466 -0.5910
 6803SOL     OW30742   1.861   7.415   1.205  0.3781 -0.4468  0.0081
 6803SOL    HW130743   1.893   7.321   1.202  0.9154 -0.2457 -1.1501
 6803SOL    HW230744   1.871   7.452   1.297  2.2237 -0.8301 -0.0250
 6804SOL     OW30745   9.308   0.734   0.218  0.3306  0.1918 -0.3974
 6804SOL    HW130746   9.266   0.649   0.248  1.8113  0.3366  2.2114
 6804SOL    HW230747   9.271   0.759   0.128 -1.0004 -2.5420 -0.6749
 6805SOL     OW30748   0.537   2.405   0.091  0.2862 -0.6788  0.0385
 6805SOL    HW130749   0.546   2.432   0.187  1.0791 -0.2915 -0.1436
 6805SOL    HW230750   0.616   2.351   0.063  1.5386  1.7519 -1.2435
 6806SOL     OW30751   1.077   1.634   0.269 -0.3585 -0.4696  0.7052
 6806SOL    HW130752   1.050   1.730   0.274 -0.3369 -0.4679  0.7846
 6806SOL    HW230753   1.102   1.601   0.360 -1.5392 -0.9029  0.8811
 6807SOL     OW30754   7.865   2.716   1.317  0.1657  0.1828  0.2704
 6807SOL    HW130755   7.818   2.633   1.288  2.8035 -0.6699 -1.6593
 6807SOL    HW230756   7.841   2.791   1.255  0.1967  0.1015  0.1598
 6808SOL     OW30757   9.611   5.825   2.552 -0.3093  0.5047  0.3602
 6808SOL    HW130758   9.682   5.754   2.547 -0.9507 -0.1084 -0.3167
 6808SOL    HW230759   9.523   5.784   2.531 -0.8718  1.2597  1.2435
 6809SOL     OW30760   8.376   9.568   0.166  0.0546 -0.3355 -0.3871
 6809SOL    HW130761   8.291   9.522   0.142  0.8660 -1.1000 -1.8547
 6809SOL    HW230762   8.367   9.611   0.256 -0.8153 -3.1589  0.9288
 6810SOL     OW30763   3.430   4.676   1.632 -0.5383 -0.0492  0.2624
 6810SOL    HW130764   3.462   4.699   1.540 -1.6127  1.0511  0.1521
 6810SOL    HW230765   3.405   4.760   1.680 -1.2543 -0.7330  1.0887
 6811SOL     OW30766   2.135   3.700   0.388 -0.3203  0.1754  0.7052
 6811SOL    HW130767   2.233   3.691   0.371 -0.3707  1.9091 -0.6571
 6811SOL    HW230768   2.085   3.642   0.323 -0.2420  0.3104  0.5232
 6812SOL     OW30769   1.679   1.115   0.643 -0.1193  0.1023  0.2737
 6812SOL    HW130770   1.605   1.056   0.673  1.5413 -1.7584  0.8045
 6812SOL    HW230771   1.688   1.110   0.543 -2.3928  2.4164 -0.1034
 6813SOL     OW30772   3.266   8.124   3.294 -0.1372  0.1779  0.1623
 6813SOL    HW130773   3.195   8.147   3.360 -1.1925 -1.7427 -0.2717
 6813SOL    HW230774   3.326   8.053   3.333  0.3688  0.3841 -0.2278
 6814SOL     OW30775   7.596   1.684   2.863  0.2450  0.3200 -0.4878
 6814SOL    HW130776   7.599   1.718   2.957 -0.7637 -0.9833  0.0350
 6814SOL    HW230777   7.587   1.585   2.864 -0.6057  0.3585 -1.9504
 6815SOL     OW30778   7.954   0.084   0.227  0.3031 -0.2591 -0.0077
 6815SOL    HW130779   7.912   0.102   0.138  1.6682 -0.8103 -0.7781
 6815SOL    HW230780   7.962   0.169   0.278  2.4049  0.6077 -1.7118
 6816SOL     OW30781   7.886   1.297   1.335 -0.7147 -0.0180  0.4563
 6816SOL    HW130782   7.795   1.334   1.354 -1.7497 -2.1403 -0.1590
 6816SOL    HW230783   7.929   1.269   1.421 -2.2583 -2.5321  0.4844
 6817SOL     OW30784   2.423   9.127   1.975 -0.0727  0.0438 -0.5860
 6817SOL    HW130785   2.356   9.107   1.903 -0.1105 -1.7327 -0.0636
 6817SOL    HW230786   2.411   9.222   2.005 -1.1577  0.3007 -1.7512
 6818SOL     OW30787   1.424   9.706   1.808 -0.2487 -0.9543  0.1099
 6818SOL    HW130788   1.374   9.789   1.833  0.7725 -0.2978  0.0353
 6818SOL    HW230789   1.481   9.677   1.884  0.8586 -0.4689 -0.5163
 6819SOL     OW30790   0.488   0.733   3.126  0.1661  0.4968 -0.6517
 6819SOL    HW130791   0.444   0.823   3.123  0.5348  0.7973  1.9472
 6819SOL    HW230792   0.425   0.667   3.168  0.7443  0.0572 -0.4712
 6820SOL     OW30793   2.960   9.664   0.513 -0.2709  0.2237  0.8529
 6820SOL    HW130794   2.957   9.567   0.536  0.0076  0.2462  0.9857
 6820SOL    HW230795   3.050   9.688   0.478 -0.4117  0.3851  0.5982
 6821SOL     OW30796   1.610   5.459   3.275 -0.1751  0.0092 -0.3169
 6821SOL    HW130797   1.554   5.540   3.260  2.5787  1.9588 -0.3289
 6821SOL    HW230798   1.707   5.483   3.270  0.7264 -3.6760 -2.4213
 6822SOL     OW30799   2.299   7.073   1.852 -0.3867  0.1329  0.1962
 6822SOL    HW130800   2.222   7.135   1.833 -0.1436  1.3150  2.8565
 6822SOL    HW230801   2.273   7.009   1.924  0.2743 -1.1641 -0.7079
 6823SOL     OW30802   1.018   7.569   0.657 -0.3396 -0.4812 -0.2079
 6823SOL    HW130803   1.025   7.596   0.561  1.4537 -1.0290 -0.2470
 6823SOL    HW230804   0.940   7.616   0.699  0.1874  1.4927 -1.3578
 6824SOL     OW30805   0.695   2.727   2.239  0.3009 -0.9683 -0.6527
 6824SOL    HW130806   0.709   2.802   2.174 -1.0333 -0.4976 -0.4092
 6824SOL    HW230807   0.700   2.639   2.190  0.5508 -0.6724 -1.1663
 6825SOL     OW30808   1.301   6.214   1.830  0.2090  0.3361 -0.2035
 6825SOL    HW130809   1.249   6.152   1.890  1.6128  0.6277  1.3275
 6825SOL    HW230810   1.313   6.170   1.741 -0.9084 -0.5814  0.0724
 6826SOL     OW30811   3.941   4.892   0.652 -0.0762  0.0946 -0.9014
 6826SOL    HW130812   3.879   4.970   0.640 -0.0668  0.4061  1.0107
 6826SOL    HW230813   3.923   4.848   0.739  2.3870  0.1883 -0.3084
 6827SOL     OW30814   9.818   4.616   0.233 -0.0508  0.0957  0.0531
 6827SOL    HW130815   9.820   4.716   0.235 -0.0139  0.1101 -0.4974
 6827SOL    HW230816   9.883   4.580   0.299 -0.9413  0.4268  1.1323
 6828SOL     OW30817   0.663   5.945   1.003 -0.1938  0.0275 -0.1875
 6828SOL    HW130818   0.680   5.920   0.907 -0.7984  0.9022 -0.5324
 6828SOL    HW230819   0.736   6.005   1.035  0.5206 -1.0320  0.2103
 6829SOL     OW30820   0.066   1.090   0.818  0.0458 -0.0167  0.2417
 6829SOL    HW130821  -0.034   1.086   0.811  0.1089 -0.8375 -0.3575
 6829SOL    HW230822   0.099   1.175   0.778 -0.3063 -0.4364 -0.9490
 6830SOL     OW30823   0.084   8.972   2.667  0.5519 -0.2022  0.2487
 6830SOL    HW130824   0.158   8.922   2.621  0.5612 -0.1716  0.2296
 6830SOL    HW230825   0.116   9.065   2.688 -0.4604  0.8094 -2.4353
 6831SOL     OW30826   2.210   0.636   2.855  1.0033  0.0002  0.0312
 6831SOL    HW130827   2.119   0.596   2.863  1.1787 -0.5840 -0.7735
 6831SOL    HW230828   2.260   0.624   2.941  0.3962  0.1395  0.4030
 6832SOL     OW30829   1.454   4.634   0.367 -0.1920 -0.9137 -0.1725
 6832SOL    HW130830   1.451   4.733   0.381  2.0612 -0.9234  0.6109
 6832SOL    HW230831   1.515   4.612   0.291  0.7201 -1.7702  0.7774
 6833SOL     OW30832   3.218   9.855   2.326  0.2393 -0.1469 -0.7930
 6833SOL    HW130833   3.194   9.829   2.420  1.1053 -2.8808 -1.2903
 6833SOL    HW230834   3.144   9.910   2.287 -0.9746 -0.5854  0.8462
 6834SOL     OW30835   1.763   5.104   3.218 -0.2519  0.5457 -0.9855
 6834SOL    HW130836   1.679   5.158   3.225 -0.0010  0.8512 -0.3205
 6834SOL    HW230837   1.825   5.147   3.154  1.0850  2.5665  1.5983
 6835SOL     OW30838   0.203   9.828   1.355 -0.2245 -0.3315  0.3185
 6835SOL    HW130839   0.256   9.913   1.355 -1.0579  0.2037 -1.0659
 6835SOL    HW230840   0.108   9.847   1.331 -0.7011 -1.5065  1.1723
 6836SOL     OW30841   2.786   1.563   1.965 -0.4024 -0.1026 -0.2681
 6836SOL    HW130842   2.732   1.621   1.905  1.0194 -0.6281 -2.1190
 6836SOL    HW230843   2.726   1.519   2.033 -2.0745  0.3059 -1.4586
 6837SOL     OW30844   3.088   1.285   2.968 -0.7843  0.1532 -0.2633
 6837SOL    HW130845   3.024   1.238   2.908 -1.4297  2.1458 -1.1687
 6837SOL    HW230846   3.172   1.306   2.918 -0.0443 -0.9982  0.4591
 6838SOL     OW30847   8.180   0.797   2.765 -0.3425 -0.2385 -1.0550
 6838SOL    HW130848   8.080   0.798   2.761 -0.4363  0.8629  1.0444
 6838SOL    HW230849   8.214   0.891   2.766  0.6478 -0.6002 -0.0796
 6839SOL     OW30850   7.645   9.827   1.758  0.3945 -0.0846  0.1004
 6839SOL    HW130851   7.633   9.728   1.762  0.5555 -0.2577 -2.5661
 6839SOL    HW230852   7.742   9.849   1.767  0.3347 -0.1266  0.9382
 6840SOL     OW30853   4.674   3.997   0.776 -0.4036 -0.1937  0.1719
 6840SOL    HW130854   4.707   4.034   0.863  3.0695 -0.1953 -1.0697
 6840SOL    HW230855   4.623   4.068   0.728 -1.2318  0.2179  1.6335
 6841SOL     OW30856   3.070   0.550   3.275  0.3173 -0.2476  0.0405
 6841SOL    HW130857   3.032   0.631   3.320 -0.3457  0.0524 -1.0365
 6841SOL    HW230858   3.097   0.483   3.344 -1.7203 -0.2581  0.8597
 6842SOL     OW30859   0.192   7.442   1.321  0.3328  0.4152  0.1537
 6842SOL    HW130860   0.123   7.381   1.283 -2.2524  3.6877 -0.6122
 6842SOL    HW230861   0.166   7.469   1.414  0.0919  2.3195 -0.4450
 6843SOL     OW30862   3.017   1.872   0.145 -0.6136 -0.2210 -0.2120
 6843SOL    HW130863   3.007   1.969   0.125 -0.7745 -0.0340  0.7570
 6843SOL    HW230864   2.928   1.832   0.165 -0.2066  0.0696  2.2489
 6844SOL     OW30865   2.287   8.595   2.685 -0.2526 -0.8053 -0.3400
 6844SOL    HW130866   2.274   8.541   2.768 -3.1067 -0.3692 -0.4571
 6844SOL    HW230867   2.202   8.596   2.632  1.4266 -0.8446 -3.1529
 6845SOL     OW30868   3.465   0.536   0.613  0.1459 -0.6151 -0.1074
 6845SOL    HW130869   3.509   0.622   0.639  0.8237 -0.4426 -1.7782
 6845SOL    HW230870   3.453   0.533   0.513 -1.3404 -1.7572  0.0763
 6846SOL     OW30871   3.142   8.254   0.506  0.5474  0.3697  0.0286
 6846SOL    HW130872   3.240   8.243   0.493  0.9108  0.1337  2.6145
 6846SOL    HW230873   3.116   8.217   0.595 -1.8394  0.6938 -0.5029
 6847SOL     OW30874   2.968   4.058   2.352  0.0714  0.2033  0.3890
 6847SOL    HW130875   2.932   4.135   2.299 -0.5030 -0.1302  0.2894
 6847SOL    HW230876   3.034   4.008   2.297 -1.1729 -0.6640 -0.3500
 6848SOL     OW30877   1.114   0.912   2.948  0.0619  0.3137  0.8100
 6848SOL    HW130878   1.148   0.852   2.875 -0.4984  0.6507  0.2652
 6848SOL    HW230879   1.087   0.856   3.027  2.3545  0.0831  1.4621
 6849SOL     OW30880   4.581   9.123   0.691 -0.4080  0.2565 -0.3798
 6849SOL    HW130881   4.540   9.139   0.601 -0.7385 -2.3913 -0.7410
 6849SOL    HW230882   4.529   9.053   0.740  0.7195  0.5024  1.2342
 6850SOL     OW30883   8.538   6.186   1.452  0.0042 -0.3041  0.2710
 6850SOL    HW130884   8.443   6.217   1.463  0.1694  0.5382 -0.5224
 6850SOL    HW230885   8.590   6.207   1.535 -0.1371  0.6483  0.1247
 6851SOL     OW30886   0.249   7.803   2.427 -0.2410  0.3359 -0.2646
 6851SOL    HW130887   0.235   7.817   2.329 -1.4633  1.1676  0.0179
 6851SOL    HW230888   0.178   7.743   2.462 -0.3060  0.7312  0.2772
 6852SOL     OW30889   4.818   8.148   1.179  0.0138 -0.4321  0.2347
 6852SOL    HW130890   4.819   8.086   1.101 -0.0633 -0.2055  0.0524
 6852SOL    HW230891   4.755   8.114   1.248  1.6782 -1.7870  1.1401
 6853SOL     OW30892   2.747   5.341   2.705 -0.3442  0.6631  0.2916
 6853SOL    HW130893   2.678   5.315   2.637 -1.1367  2.8647  0.2142
 6853SOL    HW230894   2.792   5.425   2.677  1.0936  0.2511  1.2781
 6854SOL     OW30895   9.769   2.485   0.779  0.5242  0.4000 -0.2475
 6854SOL    HW130896   9.702   2.499   0.707  1.0273 -0.5779 -0.9119
 6854SOL    HW230897   9.751   2.549   0.854 -1.7489 -0.5075  0.0300
 6855SOL     OW30898   9.543   1.969   1.087 -0.2284  0.1139 -0.0704
 6855SOL    HW130899   9.558   1.997   1.182 -0.4990 -1.1017  0.3421
 6855SOL    HW230900   9.575   2.040   1.025  1.0272  0.4087  0.9144
 6856SOL     OW30901   1.137   3.075   2.100  0.1661  0.2196  0.5462
 6856SOL    HW130902   1.179   3.150   2.152 -1.1683  2.2547 -1.2255
 6856SOL    HW230903   1.195   2.994   2.107  0.6383  0.7679  4.1721
 6857SOL     OW30904   8.840   8.716   3.429 -0.3713 -0.1378  0.6343
 6857SOL    HW130905   8.939   8.726   3.424 -0.5032  0.2185 -2.9263
 6857SOL    HW230906   8.817   8.625   3.462  1.1101  0.1047  2.3934
 6858SOL     OW30907   9.209   3.166   3.020  0.5981  0.4802  0.0640
 6858SOL    HW130908   9.218   3.144   2.923 -0.6351 -1.1809  0.2974
 6858SOL    HW230909   9.288   3.131   3.070  0.2850 -0.4167 -0.0633
 6859SOL     OW30910   0.627   7.080   1.718  0.4229  0.5218 -0.3393
 6859SOL    HW130911   0.703   7.088   1.654  1.7587 -2.0164  0.8695
 6859SOL    HW230912   0.620   6.986   1.750 -2.6630  0.9130  0.3021
 6860SOL     OW30913   0.447   6.411   1.086  0.5342 -0.5204  0.4531
 6860SOL    HW130914   0.431   6.425   0.989  1.1617 -2.3985  0.0672
 6860SOL    HW230915   0.374   6.356   1.125  0.4242  0.0047  1.0042
 6861SOL     OW30916   1.143   1.486   0.780 -0.2224  0.2024 -0.1942
 6861SOL    HW130917   1.092   1.511   0.863 -0.0536 -0.5139  0.1304
 6861SOL    HW230918   1.241   1.486   0.801 -0.0838  1.6054 -0.8244
 6862SOL     OW30919   9.278   8.143   0.553 -0.1414  0.1150  0.0309
 6862SOL    HW130920   9.354   8.203   0.530  0.9875 -1.4306 -0.3318
 6862SOL    HW230921   9.213   8.141   0.477  0.8600 -0.7336 -0.8061
 6863SOL     OW30922   3.951   8.940   0.344 -0.1006  0.2312  0.7898
 6863SOL    HW130923   3.988   8.847   0.338 -0.0590  0.3296 -0.9530
 6863SOL    HW230924   4.015   9.003   0.299 -1.4045  0.6974 -0.4452
 6864SOL     OW30925   9.655   0.593   0.830  0.3085  0.4566 -0.2830
 6864SOL    HW130926   9.610   0.511   0.864 -0.3372  0.1184 -1.9005
 6864SOL    HW230927   9.598   0.673   0.846 -0.5515  0.1316 -1.6386
 6865SOL     OW30928   0.497   4.415   3.207 -0.1499  0.2333  0.1631
 6865SOL    HW130929   0.551   4.331   3.215 -0.2668  0.2191  0.8997
 6865SOL    HW230930   0.447   4.430   3.293 -1.5873  0.0568 -0.6342
 6866SOL     OW30931   0.137   7.964   0.455  0.1914 -0.2909 -0.6019
 6866SOL    HW130932   0.222   7.980   0.505 -1.2594  1.1546  1.5370
 6866SOL    HW230933   0.123   7.866   0.441  1.6104 -0.6014  0.1236
 6867SOL     OW30934   4.596   9.938   0.404  0.5425 -0.4697  0.5719
 6867SOL    HW130935   4.577  10.035   0.418  1.7002 -0.1702  0.1310
 6867SOL    HW230936   4.568   9.886   0.484  0.1331  0.2632  0.9046
 6868SOL     OW30937   3.735   1.743   2.390  0.9301 -0.1528 -0.6840
 6868SOL    HW130938   3.679   1.669   2.428  0.5235  0.7730  0.5441
 6868SOL    HW230939   3.700   1.770   2.301  0.7236 -1.0324 -0.8734
 6869SOL     OW30940   0.585   3.360   2.398  0.0604 -0.3562  0.1538
 6869SOL    HW130941   0.604   3.277   2.346 -0.6313  0.6770 -1.8138
 6869SOL    HW230942   0.640   3.361   2.481  1.4484 -1.9003 -0.7175
 6870SOL     OW30943   3.085   2.037   1.820 -0.0348 -0.3106  0.4600
 6870SOL    HW130944   3.073   2.033   1.919  0.1308 -2.0131  0.4253
 6870SOL    HW230945   3.034   1.962   1.777  1.5032 -0.7806 -0.5806
 6871SOL     OW30946   1.751   6.007   2.870  0.4767  0.1511  1.1002
 6871SOL    HW130947   1.785   5.914   2.881 -2.6552 -0.9963  1.6256
 6871SOL    HW230948   1.683   6.027   2.941  0.8987  2.7384  0.8362
 6872SOL     OW30949   3.286   5.579   1.807  0.0920  0.0590 -0.2133
 6872SOL    HW130950   3.280   5.604   1.903  0.8041  0.6312 -0.3104
 6872SOL    HW230951   3.202   5.532   1.778 -0.2372  0.1506  0.6044
 6873SOL     OW30952   1.839   6.063   0.140  0.4895  0.6017 -0.2817
 6873SOL    HW130953   1.929   6.060   0.097 -0.1677 -0.9338 -1.5912
 6873SOL    HW230954   1.833   5.992   0.210 -0.9474 -1.8225 -2.7761
 6874SOL     OW30955   2.571   5.545   0.272 -0.0920 -1.0213 -0.2665
 6874SOL    HW130956   2.536   5.454   0.291 -1.3980 -0.8341 -1.6905
 6874SOL    HW230957   2.527   5.612   0.332 -0.5519 -1.0880 -0.5256
 6875SOL     OW30958   0.922   2.946   1.533  0.4885  0.2421 -0.1450
 6875SOL    HW130959   0.929   2.959   1.631  0.1579  1.1833 -0.2440
 6875SOL    HW230960   1.008   2.975   1.489  1.6385 -2.5881  0.0877
 6876SOL     OW30961   8.951   2.218   2.384 -0.3300 -0.0972 -0.0478
 6876SOL    HW130962   9.038   2.260   2.408 -1.2680  0.2348  3.0099
 6876SOL    HW230963   8.905   2.273   2.315  1.7491 -0.1280 -1.4711
 6877SOL     OW30964   2.864   2.218   1.428 -0.2632 -0.2278 -0.5440
 6877SOL    HW130965   2.781   2.194   1.378 -1.0518  2.6245 -0.6347
 6877SOL    HW230966   2.851   2.201   1.526 -1.0317  0.4869 -0.5287
 6878SOL     OW30967   8.512   1.647   1.354 -0.6515  0.5385  0.0026
 6878SOL    HW130968   8.534   1.579   1.283 -0.4866  0.7382 -0.1367
 6878SOL    HW230969   8.498   1.600   1.441  2.7321  0.5940  0.6466
 6879SOL     OW30970   0.873   0.500   1.521 -0.2800 -0.2295  0.3050
 6879SOL    HW130971   0.811   0.572   1.489 -0.3955 -0.1128  0.7808
 6879SOL    HW230972   0.952   0.542   1.566 -0.9570 -0.4190  1.6884
 6880SOL     OW30973   1.472   1.679   0.607  0.5911 -0.4290 -0.0553
 6880SOL    HW130974   1.417   1.762   0.611 -0.5317 -1.1783  0.3266
 6880SOL    HW230975   1.461   1.636   0.518 -1.2296 -1.7644  0.7901
 6881SOL     OW30976   8.187   6.618   1.146 -0.4130  1.0285 -0.7238
 6881SOL    HW130977   8.158   6.642   1.239 -1.2971 -2.1254 -0.1260
 6881SOL    HW230978   8.261   6.551   1.151 -0.8445  0.4299 -2.3017
 6882SOL     OW30979   1.867   6.102   0.747  0.2260  0.0390 -0.0873
 6882SOL    HW130980   1.949   6.050   0.770 -0.0907  0.1041  1.2409
 6882SOL    HW230981   1.881   6.198   0.771 -0.2912  0.0211  0.2912
 6883SOL     OW30982   3.889   4.404   2.837  0.4266 -0.2678  0.2618
 6883SOL    HW130983   3.901   4.491   2.790 -1.5255 -0.3633 -0.4623
 6883SOL    HW230984   3.891   4.329   2.770 -1.2787 -0.4904  0.4344
 6884SOL     OW30985   2.583   3.782   2.630  0.1858  0.0773  0.0078
 6884SOL    HW130986   2.539   3.743   2.711  1.3974 -2.7633 -0.6434
 6884SOL    HW230987   2.530   3.758   2.549  1.2504 -0.6948 -0.4647
 6885SOL     OW30988   3.615   5.395   0.059 -0.5091 -0.2799 -0.8558
 6885SOL    HW130989   3.578   5.348  -0.021 -0.7371 -0.0297 -0.9002
 6885SOL    HW230990   3.556   5.473   0.082 -0.9506 -0.8960  0.1106
 6886SOL     OW30991   0.220   7.139   2.624  0.3403  0.2635 -0.2468
 6886SOL    HW130992   0.173   7.087   2.553  1.0666 -0.4363 -0.2293
 6886SOL    HW230993   0.318   7.115   2.623  0.0679 -1.0528  2.1272
 6887SOL     OW30994   0.457   6.187   2.041 -0.1969 -0.1003 -0.1903
 6887SOL    HW130995   0.420   6.171   1.950  1.4038  0.8454 -1.0263
 6887SOL    HW230996   0.388   6.230   2.099 -0.3122  1.9783 -1.8364
 6888SOL     OW30997   2.590   4.916   2.780 -0.1984 -0.2594 -0.0273
 6888SOL    HW130998   2.502   4.964   2.782  0.1315  0.3640 -0.4704
 6888SOL    HW230999   2.661   4.976   2.817 -0.3555 -1.5890  2.5662
 6889SOL     OW31000   4.417   8.121   3.399 -0.1001 -0.3551  0.7115
 6889SOL    HW131001   4.358   8.189   3.357 -0.1447 -0.8309  0.0009
 6889SOL    HW231002   4.453   8.156   3.485  0.7350  0.9872 -0.1671
 6890SOL     OW31003   4.797   1.052   2.087 -0.4663  0.3303 -0.0500
 6890SOL    HW131004   4.781   0.999   2.004  0.0164 -0.2786  0.2400
 6890SOL    HW231005   4.848   1.135   2.064  1.7155 -0.9837 -0.0422
 6891SOL     OW31006   1.794   1.230   1.549  0.2457  0.4283  0.1387
 6891SOL    HW131007   1.743   1.238   1.462  1.1526  1.5385 -0.3049
 6891SOL    HW231008   1.885   1.269   1.537  0.4746  0.3170  1.5198
 6892SOL     OW31009   7.496   9.608   1.558  0.3146 -0.0685  0.1757
 6892SOL    HW131010   7.557   9.625   1.480  1.4001  1.2520  1.2736
 6892SOL    HW231011   7.523   9.524   1.604  2.0900  1.1409  1.3719
 6893SOL     OW31012   1.226   4.000   1.672  0.2660  0.0949  0.4812
 6893SOL    HW131013   1.250   3.928   1.738 -1.9708 -0.4444  0.7238
 6893SOL    HW231014   1.304   4.015   1.611  1.0280 -2.0163  0.8793
 6894SOL     OW31015   1.118   5.713   2.275 -0.5156 -0.1378  0.6167
 6894SOL    HW131016   1.071   5.626   2.261 -0.9766  0.2223 -0.1448
 6894SOL    HW231017   1.110   5.740   2.371 -1.8057 -0.1270  0.5181
 6895SOL     OW31018   8.933   6.304   0.777 -0.1039  0.1808 -0.1138
 6895SOL    HW131019   9.024   6.343   0.787 -0.0984 -0.3846  2.2311
 6895SOL    HW231020   8.937   6.205   0.789 -1.1633  0.2533  0.8834
 6896SOL     OW31021   4.426   2.963   0.400 -0.1941 -0.4486 -0.0548
 6896SOL    HW131022   4.509   3.016   0.416  0.3643 -1.4952  0.5596
 6896SOL    HW231023   4.381   2.944   0.487  0.1376 -1.8200 -0.1727
 6897SOL     OW31024   3.572   9.588   2.273  0.0314  0.0540  0.4175
 6897SOL    HW131025   3.477   9.561   2.256  0.3835 -1.4939  0.8780
 6897SOL    HW231026   3.597   9.566   2.367  0.4123  1.8065  0.7555
 6898SOL     OW31027   1.649   2.031   1.080 -0.2459 -0.7063  0.3317
 6898SOL    HW131028   1.626   2.056   1.174 -0.3886  0.0877  0.0859
 6898SOL    HW231029   1.566   2.008   1.030 -0.2594 -0.2244  0.1350
 6899SOL     OW31030   1.697   1.222   3.055 -0.1624  0.0109  0.1284
 6899SOL    HW131031   1.772   1.167   3.090 -1.1457 -1.6505 -0.3384
 6899SOL    HW231032   1.728   1.317   3.043  2.3423 -0.9589 -1.5716
 6900SOL     OW31033   4.073   4.857   2.314  0.2309  0.1573  0.5174
 6900SOL    HW131034   4.087   4.758   2.305  2.1409  0.4535  0.0012
 6900SOL    HW231035   3.979   4.875   2.341 -0.2373 -1.7906  0.2589
 6901SOL     OW31036   1.310   9.396   0.493  0.0082  0.2430  0.7857
 6901SOL    HW131037   1.329   9.379   0.589 -1.6456 -0.3645  1.0239
 6901SOL    HW231038   1.365   9.473   0.461  0.7913  0.2512  2.1298
 6902SOL     OW31039   8.122   8.396   0.324 -0.2751  0.3337 -0.0556
 6902SOL    HW131040   8.144   8.398   0.227  0.7241  1.3767  0.1925
 6902SOL    HW231041   8.099   8.488   0.355  0.2196  0.1375  0.8889
 6903SOL     OW31042   0.390   8.649   3.065 -0.8345 -0.5043  0.2287
 6903SOL    HW131043   0.490   8.649   3.063 -0.7689 -0.1147  2.5283
 6903SOL    HW231044   0.357   8.743   3.061 -1.0390 -0.5199  1.3887
 6904SOL     OW31045   2.148   8.601   3.069 -0.1008 -0.2193 -0.1660
 6904SOL    HW131046   2.170   8.698   3.054  0.7922 -0.4710 -0.5109
 6904SOL    HW231047   2.085   8.593   3.146 -0.5908  0.6779 -0.4611
 6905SOL     OW31048   0.118   1.162   2.138  0.5171 -0.5205  0.0829
 6905SOL    HW131049   0.160   1.253   2.136 -1.2001  0.3395  1.0660
 6905SOL    HW231050   0.099   1.132   2.045 -0.5339  0.9413 -0.1943
 6906SOL     OW31051   3.091   8.757   1.345  0.0538  0.7039 -0.1291
 6906SOL    HW131052   3.125   8.847   1.316 -0.1658  0.5639 -0.8184
 6906SOL    HW231053   3.158   8.715   1.406 -0.8591  2.3111  2.0577
 6907SOL     OW31054   9.125   1.658   2.063 -0.2675 -0.0522  0.4767
 6907SOL    HW131055   9.188   1.599   2.114 -1.2937 -0.2827  1.4933
 6907SOL    HW231056   9.072   1.713   2.127 -1.3802 -0.1479 -0.3596
 6908SOL     OW31057   1.744   4.542   1.386  0.1866 -0.2199 -0.6387
 6908SOL    HW131058   1.666   4.605   1.376  1.0448  0.9472 -0.0643
 6908SOL    HW231059   1.798   4.543   1.302 -0.3428 -0.9369 -0.9918
 6909SOL     OW31060   1.847   0.502   0.253  0.8080  0.0726 -0.5287
 6909SOL    HW131061   1.924   0.563   0.271  0.3226  0.2362  1.0124
 6909SOL    HW231062   1.784   0.504   0.330  0.6986 -2.2677 -0.5196
 6910SOL     OW31063   9.124   9.316   0.052 -0.2853  0.1705 -0.2683
 6910SOL    HW131064   9.079   9.283  -0.031  1.2179  1.6745 -1.7185
 6910SOL    HW231065   9.210   9.267   0.066 -1.3067 -1.2213  1.3366
 6911SOL     OW31066   2.261   4.108   1.325 -0.4815 -0.0085 -0.1935
 6911SOL    HW131067   2.233   4.197   1.288  0.8063  0.9291  1.0184
 6911SOL    HW231068   2.188   4.072   1.383 -0.7622  0.5633 -0.1802
 6912SOL     OW31069   2.161   8.393   2.338  0.2120 -0.1712  0.8001
 6912SOL    HW131070   2.248   8.362   2.300 -0.7425 -1.1581 -0.6357
 6912SOL    HW231071   2.156   8.493   2.329  0.6275 -0.2351 -0.3738
 6913SOL     OW31072   1.067   0.589   2.423  0.2287  0.2138 -0.0763
 6913SOL    HW131073   1.036   0.615   2.331 -1.7152 -1.4910  0.0620
 6913SOL    HW231074   1.118   0.503   2.417 -0.8666 -0.4949  0.5506
 6914SOL     OW31075   4.399   9.054   2.565 -0.1334  1.2691 -0.4821
 6914SOL    HW131076   4.474   9.106   2.523  0.1934 -0.2690 -1.8520
 6914SOL    HW231077   4.435   9.001   2.642 -0.0316  1.4298 -0.4188
 6915SOL     OW31078   8.380   9.919   2.719  0.3235  0.1633 -0.2046
 6915SOL    HW131079   8.434   9.850   2.767 -0.2913 -1.6897 -2.0490
 6915SOL    HW231080   8.381   9.899   2.620 -0.5997  2.2881 -0.6752
 6916SOL     OW31081   4.594   8.447   3.234 -0.1250  0.3412  0.1885
 6916SOL    HW131082   4.495   8.452   3.227  0.0491  1.7104 -1.6262
 6916SOL    HW231083   4.624   8.354   3.214 -0.9127  0.3954 -1.3533
 6917SOL     OW31084   8.493   3.083   0.006  0.0423 -0.5058 -0.4286
 6917SOL    HW131085   8.552   3.157   0.039  1.8075 -1.8997 -0.4193
 6917SOL    HW231086   8.509   3.069  -0.092 -2.1719  0.8226 -1.0248
 6918SOL     OW31087   3.995   3.237   0.725  0.4189  0.0890 -0.2136
 6918SOL    HW131088   4.064   3.171   0.756 -0.5331 -0.4810  0.7171
 6918SOL    HW231089   3.904   3.197   0.734 -0.1204  1.2707 -0.3135
 6919SOL     OW31090   8.753   2.570   2.384  0.5831  0.0801  0.2900
 6919SOL    HW131091   8.799   2.522   2.309 -0.2396  0.9100 -0.7619
 6919SOL    HW231092   8.666   2.525   2.403  0.6004  0.1206  0.4616
 6920SOL     OW31093   8.092   6.057   2.187 -0.6545  0.6832  0.0953
 6920SOL    HW131094   8.131   6.110   2.263 -1.3060 -0.1972  1.0424
 6920SOL    HW231095   8.017   6.001   2.220  2.1514 -3.4290 -0.1796
 6921SOL     OW31096   8.698   9.274   2.443 -0.1111 -0.2032 -0.2167
 6921SOL    HW131097   8.647   9.250   2.360  0.6257  0.3648 -0.8434
 6921SOL    HW231098   8.744   9.362   2.430 -1.2652  0.6541  1.3885
 6922SOL     OW31099   9.710   2.845   1.192 -0.1423  0.2442  0.2214
 6922SOL    HW131100   9.661   2.809   1.112 -3.3080  0.6903  1.8729
 6922SOL    HW231101   9.777   2.912   1.162 -0.7014 -0.1762 -2.1289
 6923SOL     OW31102   8.037   6.077   0.442  0.0404 -0.1644 -0.2418
 6923SOL    HW131103   8.073   6.107   0.353  0.5045  0.7170  0.2452
 6923SOL    HW231104   8.091   6.000   0.476  0.5572  0.2201 -0.1953
 6924SOL     OW31105   1.298   5.745   2.082 -0.2252 -0.0317 -0.0410
 6924SOL    HW131106   1.223   5.741   2.148 -0.4299  1.9744 -0.1194
 6924SOL    HW231107   1.261   5.758   1.990  0.2149  1.2965 -0.0409
 6925SOL     OW31108   3.263   5.764   1.169  0.0910  0.0799 -0.1742
 6925SOL    HW131109   3.343   5.816   1.139 -0.2001 -0.8405 -2.6587
 6925SOL    HW231110   3.211   5.818   1.235  1.1409  1.9186 -0.8242
 6926SOL     OW31111   8.206   8.390   3.159 -0.0843 -0.2603 -0.3975
 6926SOL    HW131112   8.283   8.447   3.189  0.1518 -0.8001  0.0377
 6926SOL    HW231113   8.231   8.344   3.074 -0.4114  0.5609 -0.9374
 6927SOL     OW31114   4.158   2.186   3.031  0.5459 -0.2750 -0.1947
 6927SOL    HW131115   4.248   2.155   3.063  1.4495 -0.1717 -2.5504
 6927SOL    HW231116   4.148   2.284   3.049  0.9251 -0.2732  0.0102
 6928SOL     OW31117   4.499   9.043   3.126 -0.4328  0.2838 -0.0868
 6928SOL    HW131118   4.527   8.965   3.182  0.0609  0.7621  0.3262
 6928SOL    HW231119   4.579   9.089   3.089 -0.7122  0.8990  0.0716
 6929SOL     OW31120   1.981   8.572   3.333  0.4166  0.2202 -0.8474
 6929SOL    HW131121   1.947   8.490   3.379  1.4738  0.7891  0.9755
 6929SOL    HW231122   1.904   8.634   3.314  0.0343  0.2088  0.6399
 6930SOL     OW31123   7.801   9.781   0.135  0.1364 -0.2096 -0.0848
 6930SOL    HW131124   7.704   9.754   0.132  0.8538 -2.8672 -0.1834
 6930SOL    HW231125   7.822   9.817   0.226 -0.9496  0.4422 -0.0762
 6931SOL     OW31126   1.274   7.469   1.410  0.2058 -0.4008  0.2517
 6931SOL    HW131127   1.187   7.473   1.361  0.2831  1.7137  0.2426
 6931SOL    HW231128   1.350   7.481   1.346  0.3182  2.0029  0.7729
 6932SOL     OW31129   8.512   1.438   3.175  0.4836  0.0085  0.3363
 6932SOL    HW131130   8.536   1.413   3.268 -0.5380  0.1300  0.6296
 6932SOL    HW231131   8.428   1.393   3.147 -0.9866  2.4662  0.6224
 6933SOL     OW31132   8.888   3.672   1.874 -0.0542 -0.2818  0.2745
 6933SOL    HW131133   8.819   3.714   1.815 -0.1090 -0.4178  0.2419
 6933SOL    HW231134   8.956   3.741   1.900  0.1526 -0.2969 -0.2155
 6934SOL     OW31135   6.399   9.186   2.230 -0.8991  0.0239  0.0545
 6934SOL    HW131136   6.430   9.120   2.298 -1.4706  0.2608  0.5464
 6934SOL    HW231137   6.306   9.164   2.201 -0.9360  0.3625 -0.0909
 6935SOL     OW31138   8.634   5.430   2.608 -0.1646 -0.3788  0.1198
 6935SOL    HW131139   8.662   5.339   2.578 -1.0204 -0.5192 -0.2632
 6935SOL    HW231140   8.546   5.424   2.656 -0.6553  0.3507 -0.6626
 6936SOL     OW31141   2.549   5.871   3.025 -0.7723 -0.1573  0.2350
 6936SOL    HW131142   2.470   5.904   3.075  1.4477  0.6694  3.3285
 6936SOL    HW231143   2.601   5.807   3.082  1.5866  0.4745 -1.1150
 6937SOL     OW31144   2.728   1.965   1.075 -0.4764  0.3504  0.0415
 6937SOL    HW131145   2.740   2.014   1.162 -1.9288  0.5064  0.1679
 6937SOL    HW231146   2.808   1.908   1.058  0.4265  1.3672  0.8090
 6938SOL     OW31147   9.439   4.952   1.139  0.2373 -0.0268  0.0108
 6938SOL    HW131148   9.503   5.023   1.110 -0.1562  0.4417  0.2841
 6938SOL    HW231149   9.377   4.989   1.208 -0.5233 -0.3850 -0.4765
 6939SOL     OW31150   3.796   1.137   0.020  0.0865 -0.6652  0.4848
 6939SOL    HW131151   3.859   1.194   0.073 -1.2490  4.4662 -3.0696
 6939SOL    HW231152   3.702   1.159   0.045 -0.5440  1.4600 -3.3823
 6940SOL     OW31153   9.914   6.211   0.181 -0.8220  0.2463 -0.2458
 6940SOL    HW131154   9.880   6.295   0.138 -0.6063  1.6057  2.1457
 6940SOL    HW231155   9.870   6.200   0.270  1.0838 -0.8207  0.5712
 6941SOL     OW31156   0.277   4.129   0.212 -0.3017 -0.1278 -0.3728
 6941SOL    HW131157   0.207   4.185   0.169  1.1156  0.9941 -1.2819
 6941SOL    HW231158   0.326   4.076   0.142  0.5382  0.0028  0.0988
 6942SOL     OW31159   2.266   8.654   0.827  0.2237 -0.2219  0.0242
 6942SOL    HW131160   2.288   8.704   0.910 -0.6434  1.8614 -0.9568
 6942SOL    HW231161   2.168   8.634   0.825  0.3735 -0.9459 -0.1257
 6943SOL     OW31162   1.606   0.206   0.595  0.1784  0.2845 -0.0734
 6943SOL    HW131163   1.553   0.157   0.665  1.4872  0.0056  0.7435
 6943SOL    HW231164   1.662   0.140   0.545  1.9949  0.9218  1.0691
 6944SOL     OW31165   9.653   5.616   1.907 -0.1219 -0.3110 -0.5129
 6944SOL    HW131166   9.698   5.661   1.830  0.0999  0.7053  0.1927
 6944SOL    HW231167   9.718   5.558   1.956 -0.2840 -1.0205 -1.1367
 6945SOL     OW31168   2.178   2.770   0.700  0.2305  0.0582 -0.8888
 6945SOL    HW131169   2.183   2.673   0.680  0.7212 -0.5599  2.0596
 6945SOL    HW231170   2.095   2.789   0.753  0.0227  1.2748 -1.6332
 6946SOL     OW31171   2.366   5.997   1.955  0.5230 -0.0436 -0.4418
 6946SOL    HW131172   2.305   6.025   1.881 -0.2198 -1.4210 -0.3600
 6946SOL    HW231173   2.323   6.017   2.043 -0.4366 -2.2746 -0.3741
 6947SOL     OW31174   2.223   0.709   0.847  0.1560 -0.0526 -0.6656
 6947SOL    HW131175   2.303   0.743   0.896 -1.7342 -2.8473  4.7572
 6947SOL    HW231176   2.229   0.610   0.838 -2.7540 -0.3382  0.0548
 6948SOL     OW31177   8.324   7.198   2.539 -0.2801  0.0574  0.5824
 6948SOL    HW131178   8.310   7.142   2.621 -0.1052 -0.4363  0.2793
 6948SOL    HW231179   8.247   7.185   2.476 -0.1586  0.0242  0.4380
 6949SOL     OW31180   7.281   0.318   2.935 -0.0028 -0.3007  0.1515
 6949SOL    HW131181   7.249   0.247   2.998  2.9831 -1.8244  0.0496
 6949SOL    HW231182   7.291   0.404   2.986  0.2091 -0.9553  1.2435
 6950SOL     OW31183   7.974   7.737   2.849 -0.0565  0.5126  0.1480
 6950SOL    HW131184   8.021   7.805   2.794 -0.4756 -0.0525 -0.9361
 6950SOL    HW231185   8.024   7.722   2.934  2.0940 -0.5723 -1.2591
 6951SOL     OW31186   2.441   5.075   2.001  0.1606 -0.3251 -0.1763
 6951SOL    HW131187   2.430   5.140   1.926  0.4347 -0.8710 -0.6963
 6951SOL    HW231188   2.529   5.028   1.992  1.0740  1.0209  1.5977
 6952SOL     OW31189   1.314   6.495   2.238 -0.3999  0.0742 -0.1748
 6952SOL    HW131190   1.336   6.558   2.164  0.1956  0.3547  0.2380
 6952SOL    HW231191   1.221   6.513   2.271 -1.0326 -0.6801 -1.4862
 6953SOL     OW31192   4.436   0.418   1.439  0.1342 -0.2426 -0.0159
 6953SOL    HW131193   4.486   0.498   1.473 -0.1214 -0.8202  1.7763
 6953SOL    HW231194   4.488   0.335   1.459 -0.2982 -0.6431 -0.5440
 6954SOL     OW31195   3.490   0.877   1.471 -0.0394 -0.3361  0.2889
 6954SOL    HW131196   3.527   0.965   1.440 -0.6836 -0.5253 -1.0552
 6954SOL    HW231197   3.514   0.806   1.404  0.7182 -1.2391  1.5051
 6955SOL     OW31198   1.584   6.306   1.949 -0.0972  0.3403  0.4926
 6955SOL    HW131199   1.604   6.208   1.949  1.8472  0.6364 -3.3093
 6955SOL    HW231200   1.487   6.321   1.932 -0.4737 -0.9053  1.4778
 6956SOL     OW31201   0.911   0.205   2.427  0.5524 -0.4256 -0.0968
 6956SOL    HW131202   0.876   0.176   2.337 -2.0274 -1.8496  1.3239
 6956SOL    HW231203   0.909   0.305   2.433 -1.9490 -0.4166 -0.5994
 6957SOL     OW31204   1.616   9.729   0.054  0.7992  0.3876  0.5698
 6957SOL    HW131205   1.592   9.659  -0.014 -0.6158 -0.6064  2.0782
 6957SOL    HW231206   1.598   9.820   0.015  1.8698 -0.0739 -1.0930
 6958SOL     OW31207   0.955   6.981   2.983 -0.1245 -0.3747 -0.4645
 6958SOL    HW131208   1.040   7.032   2.971 -0.2868 -0.1121 -0.4899
 6958SOL    HW231209   0.900   6.987   2.900  0.6470 -2.0671 -1.1395
 6959SOL     OW31210   0.142   3.370   1.924 -0.2384 -0.1425  0.1058
 6959SOL    HW131211   0.177   3.357   1.831  1.0975  2.1733  0.2345
 6959SOL    HW231212   0.218   3.395   1.985 -0.9905 -2.2901  1.9745
 6960SOL     OW31213   9.055   7.042   0.899 -0.3661  0.6057  0.2416
 6960SOL    HW131214   8.965   6.998   0.898 -0.0803  0.0491 -0.8846
 6960SOL    HW231215   9.051   7.124   0.957 -1.9414  1.2842 -0.7846
 6961SOL     OW31216   5.560   8.597   3.081 -0.0718  0.0403 -0.4121
 6961SOL    HW131217   5.540   8.624   3.175 -0.4538 -1.1302 -0.1495
 6961SOL    HW231218   5.652   8.559   3.076  0.6536  1.8092 -0.8763
 6962SOL     OW31219   9.723   8.673   0.087  0.5268  0.0319 -0.2196
 6962SOL    HW131220   9.740   8.632  -0.002 -0.9947 -0.8189 -0.1371
 6962SOL    HW231221   9.633   8.717   0.088  0.3082 -0.4100  1.0478
 6963SOL     OW31222   3.554   3.146   3.131 -0.4669 -0.5510 -0.0483
 6963SOL    HW131223   3.550   3.214   3.059  0.1877  0.0137  0.4459
 6963SOL    HW231224   3.541   3.055   3.092 -2.2558 -0.0911 -0.5948
 6964SOL     OW31225   2.695   3.986   1.027  0.3000 -0.1138 -0.2194
 6964SOL    HW131226   2.724   3.940   0.943  1.0601  0.0674 -0.0601
 6964SOL    HW231227   2.637   4.065   1.003 -0.7060 -0.9256 -0.5039
 6965SOL     OW31228   2.061   7.352   2.047 -0.2917  0.2832  0.1210
 6965SOL    HW131229   2.128   7.301   2.101 -2.5014 -1.7013  1.0827
 6965SOL    HW231230   1.991   7.389   2.108  0.8428  3.8697 -0.6619
 6966SOL     OW31231   8.916   6.131   1.653  0.4964 -0.3339  0.5725
 6966SOL    HW131232   8.879   6.040   1.671  0.5312 -0.6076 -0.6881
 6966SOL    HW231233   9.016   6.126   1.646  0.4014 -0.4154 -0.7414
 6967SOL     OW31234   4.838   1.204   1.766 -0.6292  0.6240 -0.4163
 6967SOL    HW131235   4.771   1.267   1.806 -2.1390  0.4173 -2.5749
 6967SOL    HW231236   4.870   1.241   1.679  0.8550 -0.0810 -0.1836
 6968SOL     OW31237   9.854   3.063   0.177  0.1222 -0.3447 -0.6423
 6968SOL    HW131238   9.894   2.979   0.216  0.5731 -0.1684 -0.7219
 6968SOL    HW231239   9.760   3.073   0.209  0.2722 -0.5570 -0.1412
 6969SOL     OW31240   7.960   8.673   1.300 -0.0941  0.3447 -0.0215
 6969SOL    HW131241   8.015   8.671   1.216 -0.7744 -1.0820 -0.4493
 6969SOL    HW231242   7.984   8.594   1.357  0.4163  1.3439  1.1746
 6970SOL     OW31243   2.662   7.864   1.690  0.1684 -0.2596 -0.3786
 6970SOL    HW131244   2.667   7.948   1.636 -0.2399 -0.8813 -1.4072
 6970SOL    HW231245   2.574   7.861   1.738 -0.2764 -0.6041 -1.2026
 6971SOL     OW31246   4.343   2.879   0.859 -0.0524 -0.1703 -0.2616
 6971SOL    HW131247   4.311   2.955   0.915  2.1998  1.1005 -0.6463
 6971SOL    HW231248   4.297   2.795   0.888 -0.2404  0.7694  2.2939
 6972SOL     OW31249   3.009   5.315   0.700 -0.0969  0.0577 -0.0403
 6972SOL    HW131250   3.058   5.387   0.651 -1.1774  0.1324 -1.0365
 6972SOL    HW231251   3.047   5.306   0.792  1.3736  0.5190 -0.5866
 6973SOL     OW31252   8.540   5.961   0.793 -0.0538 -0.3447 -0.0336
 6973SOL    HW131253   8.581   5.921   0.874 -2.2736 -1.7355  0.4526
 6973SOL    HW231254   8.463   6.019   0.819 -0.2833 -0.1568 -1.0932
 6974SOL     OW31255   0.187   7.026   1.845  0.1488  0.1025  0.6031
 6974SOL    HW131256   0.260   6.963   1.819  0.0883 -0.2503  1.2765
 6974SOL    HW231257   0.181   7.030   1.945 -0.2890  0.6635  0.5525
 6975SOL     OW31258   7.441   9.968   1.812  0.2770  0.3459 -0.5997
 6975SOL    HW131259   7.438   9.993   1.908  2.7052 -1.5149  0.0001
 6975SOL    HW231260   7.517   9.906   1.795 -1.6933 -1.4987 -3.2404
 6976SOL     OW31261   4.844   8.757   3.012 -0.0217 -0.2943 -0.0405
 6976SOL    HW131262   4.851   8.856   3.012  1.9230 -0.4185  0.3818
 6976SOL    HW231263   4.798   8.727   3.096  2.5826  0.0788  1.5695
 6977SOL     OW31264   2.329   8.860   2.409  0.0282  0.0299 -0.4344
 6977SOL    HW131265   2.409   8.804   2.428 -0.0426 -0.5922 -1.9017
 6977SOL    HW231266   2.358   8.945   2.364  0.1389  1.2080  1.8048
 6978SOL     OW31267   3.339   2.415   0.988 -0.3312 -0.0575 -0.2138
 6978SOL    HW131268   3.251   2.442   1.027 -0.2728  0.0077 -0.1272
 6978SOL    HW231269   3.349   2.456   0.897 -1.1112 -1.4164 -0.9179
 6979SOL     OW31270   3.893   2.990   1.847 -0.1695  0.3178 -0.3685
 6979SOL    HW131271   3.920   3.018   1.755 -0.7764 -0.2811 -0.7352
 6979SOL    HW231272   3.808   2.936   1.842  0.1794 -0.3224  0.4708
 6980SOL     OW31273   0.426   3.950   1.486 -0.4806 -0.1643  0.2352
 6980SOL    HW131274   0.417   3.859   1.446 -2.5192 -0.0055  0.3007
 6980SOL    HW231275   0.497   4.000   1.437 -1.2330 -0.8303 -1.5923
 6981SOL     OW31276   9.544   9.433   1.758 -0.7352 -0.4710  0.3756
 6981SOL    HW131277   9.575   9.528   1.745 -0.5494 -0.5059  0.5726
 6981SOL    HW231278   9.606   9.386   1.820 -0.3567 -0.9662 -0.3823
 6982SOL     OW31279   0.478   0.872   1.067  0.0895  0.7662 -0.4709
 6982SOL    HW131280   0.387   0.904   1.042 -0.6299 -1.4933 -0.8380
 6982SOL    HW231281   0.484   0.774   1.052  2.2115  0.6888  0.7007
 6983SOL     OW31282   0.095   2.406   0.152 -0.1745 -0.5651  0.0591
 6983SOL    HW131283   0.086   2.310   0.124  0.0463 -0.3096 -0.9325
 6983SOL    HW231284   0.180   2.443   0.113  0.0879 -0.1636  1.0098
 6984SOL     OW31285   9.533   4.920   0.537 -0.4940 -0.2629 -0.0732
 6984SOL    HW131286   9.451   4.964   0.574 -0.4020 -1.0315  1.0875
 6984SOL    HW231287   9.508   4.867   0.456 -1.1365 -0.4325  0.2308
 6985SOL     OW31288   3.667   0.512   2.439 -0.4231 -0.0146 -0.4877
 6985SOL    HW131289   3.667   0.416   2.410 -1.2757 -0.4317  0.8358
 6985SOL    HW231290   3.728   0.523   2.518 -0.7425  0.4116 -0.2991
 6986SOL     OW31291   0.213   2.169   1.733  0.2291  0.6144  0.0052
 6986SOL    HW131292   0.142   2.233   1.762 -0.1132  0.7043 -0.9963
 6986SOL    HW231293   0.299   2.219   1.717 -0.5394  1.1611 -2.6414
 6987SOL     OW31294   9.662   9.179   0.123  0.0256 -0.5162 -0.0428
 6987SOL    HW131295   9.668   9.275   0.096  0.9018 -0.0240  1.8359
 6987SOL    HW231296   9.652   9.123   0.041 -2.2516  1.2803 -1.0764
 6988SOL     OW31297   1.301   3.230   1.258 -0.1444 -0.5045  0.3593
 6988SOL    HW131298   1.243   3.248   1.178  0.3422  1.8999  0.5033
 6988SOL    HW231299   1.368   3.160   1.234 -0.3098 -0.1612 -1.2210
 6989SOL     OW31300   4.662   3.294   2.374 -0.4488 -0.0376  0.2952
 6989SOL    HW131301   4.620   3.384   2.387  0.1410  0.4504 -1.1479
 6989SOL    HW231302   4.742   3.302   2.315  0.4671 -1.2919  1.3526
 6990SOL     OW31303   1.500   4.163   1.114  0.1350 -0.1212 -0.1974
 6990SOL    HW131304   1.482   4.196   1.022  0.9221  1.0717  0.0744
 6990SOL    HW231305   1.495   4.063   1.115 -1.4188 -0.0555 -1.1892
 6991SOL     OW31306   1.241   5.813   2.542  0.0300 -0.0038  0.6515
 6991SOL    HW131307   1.280   5.905   2.537 -0.3965  0.1174 -0.5181
 6991SOL    HW231308   1.314   5.746   2.555  0.3674  0.4685  1.2211
 6992SOL     OW31309   0.812   4.932   3.138  0.0268  0.0441 -0.4813
 6992SOL    HW131310   0.718   4.966   3.138  0.5533  1.5810  0.9536
 6992SOL    HW231311   0.818   4.849   3.193 -0.2024  0.8376  0.7555
 6993SOL     OW31312   2.472   4.933   0.969 -0.6031 -0.3766  0.4316
 6993SOL    HW131313   2.501   4.973   0.882  1.0616  0.5821  1.4026
 6993SOL    HW231314   2.388   4.881   0.955 -1.1036  0.8747 -1.4882
 6994SOL     OW31315   3.251   7.401   1.922 -0.7261  0.1558 -0.1569
 6994SOL    HW131316   3.209   7.440   1.840  0.8791 -0.5881 -1.3424
 6994SOL    HW231317   3.344   7.436   1.932 -1.2691  1.0940  1.9694
 6995SOL     OW31318   2.892   4.174   0.047  0.0007 -0.2340 -0.4659
 6995SOL    HW131319   2.915   4.139  -0.044  1.6143 -1.8870  0.5603
 6995SOL    HW231320   2.872   4.272   0.040  0.4562 -0.2576 -2.5440
 6996SOL     OW31321   0.879   6.198   1.842 -0.0147  0.2720 -0.6533
 6996SOL    HW131322   0.809   6.136   1.878  1.2398 -0.2068  1.0302
 6996SOL    HW231323   0.927   6.153   1.767 -0.2809 -0.1160 -0.5945
 6997SOL     OW31324   8.322   4.259   0.723  0.4613  0.3064  0.5987
 6997SOL    HW131325   8.226   4.230   0.733 -0.1889  1.2121 -2.3534
 6997SOL    HW231326   8.376   4.183   0.688  0.5354  0.1698  1.0146
 6998SOL     OW31327   8.460   6.578   2.450  0.6809  0.5871 -0.4409
 6998SOL    HW131328   8.432   6.523   2.528  1.2569  0.7988 -0.0800
 6998SOL    HW231329   8.398   6.656   2.440  0.0504  0.0418 -0.7661
 6999SOL     OW31330   2.760   1.739   0.263 -0.3095 -0.0886  0.0152
 6999SOL    HW131331   2.699   1.781   0.196 -0.4551  1.0899  0.8706
 6999SOL    HW231332   2.727   1.758   0.356  1.8933  1.4665  0.5276
 7000SOL     OW31333   7.786   8.780   3.316  0.1815 -0.0502 -0.0152
 7000SOL    HW131334   7.879   8.815   3.313  0.8433 -1.4569  2.7763
 7000SOL    HW231335   7.776   8.704   3.251  0.5257  1.0981 -1.4237
 7001SOL     OW31336   1.613   2.087   0.323 -0.4210 -0.1287  0.4502
 7001SOL    HW131337   1.602   2.179   0.360  0.1982 -0.8492  2.5153
 7001SOL    HW231338   1.630   2.092   0.224  2.1303  2.1383  0.9428
 7002SOL     OW31339   4.176   7.919   1.626  0.5468  0.1725 -0.4541
 7002SOL    HW131340   4.078   7.917   1.609  0.6889 -0.7522 -1.2225
 7002SOL    HW231341   4.193   7.936   1.723 -0.3825 -0.2059 -0.2222
 7003SOL     OW31342   9.969   5.593   0.483  0.5491 -0.0690  0.0831
 7003SOL    HW131343   9.961   5.685   0.445 -0.8272 -0.7813 -1.3687
 7003SOL    HW231344   9.922   5.589   0.572  1.2809  0.8205  0.5159
 7004SOL     OW31345   2.460   1.561   0.123  0.2073  0.3308 -0.1785
 7004SOL    HW131346   2.381   1.580   0.182 -0.0675  1.4748 -0.9077
 7004SOL    HW231347   2.523   1.637   0.126  2.4903 -1.5622  2.2540
 7005SOL     OW31348   2.873   5.594   0.586 -0.1164  0.4654  0.4623
 7005SOL    HW131349   2.876   5.553   0.495 -0.3940 -2.7141  1.7886
 7005SOL    HW231350   2.962   5.584   0.630 -0.6224 -0.1119  1.3693
 7006SOL     OW31351   0.800   9.438   0.272  0.5766  0.4443  0.4173
 7006SOL    HW131352   0.808   9.355   0.216  0.3923  0.2384  0.6965
 7006SOL    HW231353   0.753   9.416   0.358  0.0017  0.9546  0.2375
 7007SOL     OW31354   2.126   4.454   1.926  0.3290  0.2652  0.5354
 7007SOL    HW131355   2.184   4.374   1.913  0.1813  0.2102  0.2032
 7007SOL    HW231356   2.164   4.532   1.877 -0.0267  0.1562  0.0831
 7008SOL     OW31357   9.692   2.055   0.068 -0.2535  0.4948  0.4518
 7008SOL    HW131358   9.690   2.009  -0.021  0.9567 -3.3282  2.3317
 7008SOL    HW231359   9.603   2.096   0.086 -1.2751 -0.8536 -1.4060
 7009SOL     OW31360   3.895   2.979   0.328 -0.6282 -0.2808  0.5797
 7009SOL    HW131361   3.911   2.969   0.230 -0.6026 -0.5506  0.6127
 7009SOL    HW231362   3.920   3.072   0.356  1.3444 -0.8204  0.7212
 7010SOL     OW31363   4.307   0.717   2.507  0.4103  0.1941 -0.1412
 7010SOL    HW131364   4.215   0.706   2.470 -0.0544  1.8705  0.4768
 7010SOL    HW231365   4.347   0.627   2.524 -1.2635 -0.5528 -0.0666
 7011SOL     OW31366   3.668   8.392   1.603  0.1022 -0.3433  0.2213
 7011SOL    HW131367   3.749   8.430   1.559 -0.0107  1.8391  1.8135
 7011SOL    HW231368   3.587   8.415   1.549  0.2326 -0.0479  0.1529
 7012SOL     OW31369   0.592   7.716   1.841  0.1411  0.1269 -0.1757
 7012SOL    HW131370   0.506   7.709   1.789  1.1989  0.3696 -2.0229
 7012SOL    HW231371   0.627   7.625   1.861  0.2664  0.0264 -0.8368
 7013SOL     OW31372   3.077   2.199   0.175 -0.3432  0.5318 -0.6383
 7013SOL    HW131373   3.048   2.270   0.111 -1.8861  0.6704  0.1873
 7013SOL    HW231374   3.098   2.241   0.263  0.0638  0.1239 -0.5392
 7014SOL     OW31375   8.977   7.555   2.498 -0.3432  0.3982  0.0084
 7014SOL    HW131376   8.946   7.550   2.403  0.6875 -1.2302 -0.2651
 7014SOL    HW231377   8.905   7.594   2.555 -1.1757  0.8742 -1.3590
 7015SOL     OW31378   1.086   2.468   0.434 -0.1993 -0.2184  0.3502
 7015SOL    HW131379   0.990   2.458   0.460 -1.1559  0.3600 -2.7601
 7015SOL    HW231380   1.116   2.562   0.451 -1.4112  0.7070 -2.3654
 7016SOL     OW31381   4.859   0.457   3.215 -0.0171  0.2189  0.3744
 7016SOL    HW131382   4.838   0.554   3.204  0.9996  0.4634  0.5430
 7016SOL    HW231383   4.926   0.430   3.146  0.6323 -0.0733  1.1236
 7017SOL     OW31384   1.965   6.933   0.451  0.6945  0.2530  0.5527
 7017SOL    HW131385   1.939   6.959   0.358 -1.3354 -0.1344  0.9736
 7017SOL    HW231386   2.004   6.841   0.450 -1.2862 -0.6264  0.3096
 7018SOL     OW31387   0.042   4.345   0.991  0.3472 -0.0340 -0.4937
 7018SOL    HW131388  -0.028   4.278   1.016  1.8472 -1.0017  1.1728
 7018SOL    HW231389  -0.000   4.417   0.936 -2.0689 -0.4134  0.7724
 7019SOL     OW31390   8.808   4.605   3.434 -0.0997 -0.0687  0.4996
 7019SOL    HW131391   8.784   4.512   3.461 -1.6943 -0.5070 -2.2485
 7019SOL    HW231392   8.728   4.664   3.440  0.6354  0.8944  1.1183
 7020SOL     OW31393   9.214   1.963   2.324  0.2462 -0.1412  0.3946
 7020SOL    HW131394   9.207   2.035   2.255  1.2058  1.2364  1.7167
 7020SOL    HW231395   9.138   1.899   2.312 -0.7146  1.1604 -0.7039
 7021SOL     OW31396   0.931   5.527   2.211  0.0744  0.1029 -0.0548
 7021SOL    HW131397   0.840   5.527   2.251  0.6677  0.5810  1.3271
 7021SOL    HW231398   0.947   5.440   2.165 -0.4604 -0.6396  1.1417
 7022SOL     OW31399   3.781   3.041   1.317 -0.1588  0.2388 -0.4140
 7022SOL    HW131400   3.819   2.951   1.295 -0.3858 -0.1567  0.7718
 7022SOL    HW231401   3.824   3.110   1.260  0.5977 -0.5209 -0.7764
 7023SOL     OW31402   8.746   6.345   0.359 -0.1290 -0.9691  0.0639
 7023SOL    HW131403   8.798   6.426   0.385  0.5417 -1.3148 -0.1776
 7023SOL    HW231404   8.807   6.265   0.357 -0.4740 -1.2147 -1.1226
 7024SOL     OW31405   8.600   9.484   3.381  0.1767 -0.5421 -0.5338
 7024SOL    HW131406   8.651   9.549   3.325  1.2087 -0.0081  0.9710
 7024SOL    HW231407   8.651   9.466   3.465 -0.9888 -1.8775 -0.0918
 7025SOL     OW31408   1.588   7.363   2.379  0.6589  0.4133 -0.0853
 7025SOL    HW131409   1.602   7.438   2.444  2.4169 -0.1450  0.1975
 7025SOL    HW231410   1.577   7.278   2.430  0.8628  0.1515 -0.4842
 7026SOL     OW31411   3.538   0.855   3.156 -0.0412  0.2946  0.2375
 7026SOL    HW131412   3.615   0.907   3.120 -0.3316  1.6708  1.5620
 7026SOL    HW231413   3.456   0.876   3.102  0.6861 -1.9776 -1.8476
 7027SOL     OW31414   2.789   3.576   3.061  0.0082 -0.1187 -0.3367
 7027SOL    HW131415   2.796   3.478   3.044 -0.4722 -0.0488 -0.9502
 7027SOL    HW231416   2.745   3.621   2.984  0.9464  0.7018 -0.4088
 7028SOL     OW31417   3.506   7.319   2.082 -0.1766  0.7413  0.1321
 7028SOL    HW131418   3.546   7.400   2.038  0.7940 -0.3228 -0.9618
 7028SOL    HW231419   3.575   7.275   2.140  0.1127 -0.8165 -1.3710
 7029SOL     OW31420   2.168   2.903   3.358  0.4400  0.2349 -0.2476
 7029SOL    HW131421   2.252   2.852   3.376  0.1464 -0.5842 -1.1500
 7029SOL    HW231422   2.188   3.001   3.356  1.4284  0.0304 -0.7203
 7030SOL     OW31423   5.058   8.567   2.993  0.0025 -0.0115  0.2639
 7030SOL    HW131424   5.061   8.555   3.092  1.3903  0.6656  0.3120
 7030SOL    HW231425   4.994   8.642   2.971  0.3571  0.4248  0.7060
 7031SOL     OW31426   0.407   1.146   1.419  0.8889 -0.6625  0.2697
 7031SOL    HW131427   0.465   1.121   1.342  1.1963  0.7143  0.0250
 7031SOL    HW231428   0.372   1.239   1.405 -1.6621 -1.5790  0.2512
 7032SOL     OW31429   3.015   0.832   1.978  0.2474  0.1347  0.0267
 7032SOL    HW131430   3.001   0.733   1.980 -0.0706  0.1978  2.0385
 7032SOL    HW231431   2.937   0.876   1.933 -0.2579 -0.4328  0.3391
 7033SOL     OW31432   7.884   9.130   0.381 -0.1556 -1.0063 -0.1505
 7033SOL    HW131433   7.902   9.033   0.396 -1.2107 -1.4935 -1.9669
 7033SOL    HW231434   7.786   9.148   0.388  0.0785  0.0621  0.7617
 7034SOL     OW31435   3.128   4.481   2.076  0.0233  0.0221 -0.1017
 7034SOL    HW131436   3.033   4.452   2.073 -0.4935  1.6741 -0.5466
 7034SOL    HW231437   3.172   4.462   1.988  0.4002 -1.6150  0.4148
 7035SOL     OW31438   2.315   2.502   0.718  0.0125 -0.1474  0.3807
 7035SOL    HW131439   2.342   2.405   0.712  2.1120  0.4400 -0.1344
 7035SOL    HW231440   2.394   2.556   0.747 -0.7875  1.6019 -0.6776
 7036SOL     OW31441   0.656   1.033   1.971  0.3671 -0.1190 -0.0233
 7036SOL    HW131442   0.599   0.986   1.904  0.6065 -1.0858  0.4502
 7036SOL    HW231443   0.599   1.073   2.042  0.1049  0.9718 -0.8310
 7037SOL     OW31444   4.009   3.718   3.254 -0.1931  0.8321  0.0363
 7037SOL    HW131445   4.073   3.784   3.293 -0.1987  1.8671 -1.6953
 7037SOL    HW231446   4.050   3.627   3.254 -0.2265  0.7766  2.5310
 7038SOL     OW31447   3.017   0.163   2.581 -0.2112  0.0202 -0.0291
 7038SOL    HW131448   3.036   0.137   2.676  2.6412 -0.2876 -0.6528
 7038SOL    HW231449   2.952   0.239   2.580 -0.1128  0.1668  2.1882
 7039SOL     OW31450   1.596   2.642   0.067 -0.4679 -0.4326 -0.0986
 7039SOL    HW131451   1.628   2.737   0.062 -1.7720  0.1233  1.6444
 7039SOL    HW231452   1.669   2.584   0.104 -0.3145  0.2159  0.6160
 7040SOL     OW31453   8.995   9.730   2.370 -0.3284 -0.0062 -0.2008
 7040SOL    HW131454   9.040   9.804   2.419  2.1180 -0.9313 -0.9567
 7040SOL    HW231455   9.033   9.724   2.278  0.0611 -2.6329  0.0921
 7041SOL     OW31456   4.408   1.043   1.938  0.2885 -0.4180  0.6819
 7041SOL    HW131457   4.456   1.089   2.013 -1.5581  0.9875  1.0396
 7041SOL    HW231458   4.370   0.957   1.972  1.6393 -1.0274  0.6715
 7042SOL     OW31459   1.051   7.849   1.092 -0.0976  0.3887  1.1335
 7042SOL    HW131460   1.142   7.850   1.051  0.2675  2.8790  1.9180
 7042SOL    HW231461   0.987   7.897   1.032 -0.1305  1.7209  2.2330
 7043SOL     OW31462   1.980   0.388   0.917  0.3123  0.1350 -0.7924
 7043SOL    HW131463   1.951   0.314   0.978  0.1580  0.4767 -0.4513
 7043SOL    HW231464   2.078   0.378   0.897 -0.3802 -2.0981 -3.4421
 7044SOL     OW31465   8.327   4.269   1.220 -0.1512 -0.2611 -0.2592
 7044SOL    HW131466   8.251   4.281   1.156  0.5282 -0.6509 -1.1409
 7044SOL    HW231467   8.374   4.183   1.201 -0.8091 -1.0902  1.6800
 7045SOL     OW31468   4.941   9.512   0.744  0.7552  0.0670  0.5912
 7045SOL    HW131469   4.901   9.421   0.737 -0.8041  0.7334  0.4875
 7045SOL    HW231470   4.995   9.532   0.663 -2.0655  0.6913 -1.2043
 7046SOL     OW31471   0.015   6.699   1.722  0.2372 -0.3591  0.1190
 7046SOL    HW131472   0.007   6.797   1.703  0.4908 -0.0596  1.5294
 7046SOL    HW231473   0.111   6.673   1.726  0.2147 -0.2040  2.0087
 7047SOL     OW31474   1.476   4.263   0.745  0.0843  0.2709  0.3118
 7047SOL    HW131475   1.543   4.207   0.697  2.2581  1.3375  2.0215
 7047SOL    HW231476   1.410   4.300   0.680  2.6567  1.2644 -1.8043
 7048SOL     OW31477   4.393   8.655   2.537 -0.1447 -0.1480  0.2764
 7048SOL    HW131478   4.489   8.626   2.543 -0.1454 -0.1261  0.3977
 7048SOL    HW231479   4.384   8.747   2.575 -0.4798 -0.7626  1.7437
 7049SOL     OW31480   3.281   9.831   2.767  0.2710 -0.1430  0.4852
 7049SOL    HW131481   3.375   9.838   2.734  0.4607  0.2064  1.0837
 7049SOL    HW231482   3.220   9.810   2.691  0.4515  2.4627 -0.4325
 7050SOL     OW31483   9.522   5.867   1.928  0.0607 -0.2420  0.0366
 7050SOL    HW131484   9.563   5.777   1.943  0.8384  0.4116  2.0350
 7050SOL    HW231485   9.422   5.857   1.923  0.1816 -1.3060 -0.5289
 7051SOL     OW31486   4.615   0.074   1.166 -0.1467 -0.1905 -0.1017
 7051SOL    HW131487   4.572  -0.001   1.217  1.0161 -0.3496  0.6577
 7051SOL    HW231488   4.680   0.122   1.226 -1.3523  1.8477 -0.3750
 7052SOL     OW31489   7.218   8.840   2.206 -0.7252 -0.1424  0.4926
 7052SOL    HW131490   7.192   8.936   2.194  0.5406  0.1472  0.0241
 7052SOL    HW231491   7.204   8.814   2.302  0.3167  0.9391  0.9546
 7053SOL     OW31492   9.165   7.126   0.085  0.2351  0.0470 -0.3193
 7053SOL    HW131493   9.162   7.033   0.048  0.7847 -0.3598  0.6374
 7053SOL    HW231494   9.168   7.122   0.185  0.1245  1.0986 -0.2672
 7054SOL     OW31495   4.397   0.138   0.239  0.4392  0.1556  0.5290
 7054SOL    HW131496   4.460   0.166   0.310  1.2802 -0.2311 -0.0617
 7054SOL    HW231497   4.402   0.202   0.162  1.2348 -0.7240 -0.1655
 7055SOL     OW31498   1.507   6.371   0.236 -0.2780  0.3985 -0.0582
 7055SOL    HW131499   1.562   6.337   0.313 -0.2053  2.0286  0.6302
 7055SOL    HW231500   1.427   6.419   0.271 -0.1735  1.2744 -1.0019
 7056SOL     OW31501   4.034   3.674   2.905  0.0232  0.0191 -0.1004
 7056SOL    HW131502   4.005   3.711   2.994 -0.0663  1.6555 -0.7943
 7056SOL    HW231503   4.113   3.726   2.872 -0.1564 -0.3662 -1.1408
 7057SOL     OW31504   0.769   7.946   1.014 -0.4414 -0.0642  0.7686
 7057SOL    HW131505   0.740   8.038   0.990 -1.5037 -0.2672  1.2771
 7057SOL    HW231506   0.798   7.898   0.931  1.1299  1.0685  0.6320
 7058SOL     OW31507   1.211   4.018   3.369 -0.0778  0.1478 -0.0106
 7058SOL    HW131508   1.190   4.097   3.427 -4.8723 -0.9891  0.0254
 7058SOL    HW231509   1.231   4.049   3.276 -0.0703  1.4860  0.4274
 7059SOL     OW31510   3.503   2.306   2.706 -0.9450  0.5722  0.2592
 7059SOL    HW131511   3.452   2.278   2.624  0.3802  0.8161 -0.6663
 7059SOL    HW231512   3.575   2.239   2.724 -1.5255  0.2587  1.5345
 7060SOL     OW31513   1.308   8.238   1.569 -0.4318  0.1424 -0.5777
 7060SOL    HW131514   1.381   8.303   1.546  0.1452 -0.4836 -0.5543
 7060SOL    HW231515   1.324   8.201   1.661 -2.5361  2.3665  0.7198
 7061SOL     OW31516   0.992   6.460   1.797  0.8328  0.2499  0.1409
 7061SOL    HW131517   1.028   6.471   1.705 -0.8348 -0.1807 -0.5991
 7061SOL    HW231518   0.921   6.389   1.796 -0.2101  1.2500  1.4618
 7062SOL     OW31519   8.900   7.206   2.573  0.1929 -0.2484  0.1156
 7062SOL    HW131520   8.967   7.241   2.639 -0.1331  0.2729  0.1737
 7062SOL    HW231521   8.859   7.282   2.523  1.6921 -0.7447 -1.9293
 7063SOL     OW31522   0.823   2.354   0.410  0.0287 -0.3322 -0.1679
 7063SOL    HW131523   0.849   2.344   0.314  0.1946 -2.5967  0.0843
 7063SOL    HW231524   0.822   2.264   0.454 -1.6100  0.4855  1.5466
 7064SOL     OW31525   0.603   8.603   0.854 -0.4976  0.7233 -0.4125
 7064SOL    HW131526   0.554   8.561   0.930  0.2775  2.4023  1.0669
 7064SOL    HW231527   0.701   8.590   0.867 -0.2343  2.8877  0.0930
 7065SOL     OW31528   8.577   7.851   2.979  0.4708  0.1409 -0.0910
 7065SOL    HW131529   8.525   7.777   3.021  0.4892  0.5045  0.5840
 7065SOL    HW231530   8.635   7.814   2.906 -2.3213  0.0546 -2.3311
 7066SOL     OW31531   9.812   3.116   1.234  0.0229  0.0796  0.3744
 7066SOL    HW131532   9.755   3.191   1.200 -2.7193 -2.3513 -0.5174
 7066SOL    HW231533   9.834   3.132   1.330 -2.5676  0.8459  0.8769
 7067SOL     OW31534   1.921   1.020   2.773  0.3138 -0.7305  0.6710
 7067SOL    HW131535   1.844   1.025   2.709  0.9885 -0.6221 -0.1484
 7067SOL    HW231536   1.977   0.939   2.752  1.5349  0.2801 -0.0300
 7068SOL     OW31537   1.093   2.793   2.768  0.0331 -0.0789 -0.0879
 7068SOL    HW131538   1.087   2.703   2.725  0.4534 -0.9486  1.6061
 7068SOL    HW231539   1.173   2.842   2.735  0.7464 -1.0246  0.2384
 7069SOL     OW31540   9.377   5.094   2.460  0.3500 -0.6157  0.3334
 7069SOL    HW131541   9.452   5.068   2.399  1.1230  0.4889  0.7851
 7069SOL    HW231542   9.338   5.012   2.501  0.4780 -1.3004 -0.8718
 7070SOL     OW31543   2.579   3.980   1.698  0.9687 -0.5523 -0.1362
 7070SOL    HW131544   2.653   3.919   1.671  1.1288 -0.9865  1.2635
 7070SOL    HW231545   2.543   4.026   1.617  1.3686 -1.9098 -1.1028
 7071SOL     OW31546   0.050   2.323   0.999  0.0174  0.0311 -0.5041
 7071SOL    HW131547   0.090   2.340   1.089 -0.3661 -0.0670 -0.3144
 7071SOL    HW231548  -0.048   2.306   1.009  0.0991 -0.6651 -0.8666
 7072SOL     OW31549   4.496   2.686   0.361  0.6802 -0.8587  0.0388
 7072SOL    HW131550   4.504   2.652   0.267 -1.1569 -1.5270  0.0884
 7072SOL    HW231551   4.456   2.778   0.359  1.2944 -0.5941  0.1244
 7073SOL     OW31552   9.049   5.655   3.233 -0.1101 -0.4127  0.1498
 7073SOL    HW131553   9.029   5.565   3.272 -3.5698  0.4679  0.5720
 7073SOL    HW231554   9.109   5.706   3.294 -0.2939 -1.4338  1.1915
 7074SOL     OW31555   9.202   9.661   1.808 -0.2061  0.2524  0.0479
 7074SOL    HW131556   9.103   9.675   1.803 -0.1394  0.3385 -1.4030
 7074SOL    HW231557   9.223   9.597   1.881 -1.4295 -0.5049 -0.2432
 7075SOL     OW31558   1.267   6.908   0.362 -0.0740  0.0956 -0.0648
 7075SOL    HW131559   1.315   6.903   0.450 -0.1453 -0.8479 -0.0664
 7075SOL    HW231560   1.270   6.818   0.319 -0.8721  0.3201 -0.5843
 7076SOL     OW31561   3.443   7.783   1.616 -0.1273  0.0883  0.3012
 7076SOL    HW131562   3.450   7.876   1.581 -0.8554  0.7098  1.7596
 7076SOL    HW231563   3.534   7.747   1.634  0.1043  1.8526  3.0657
 7077SOL     OW31564   1.965   4.871   2.250 -0.1776  0.0454 -0.4990
 7077SOL    HW131565   1.886   4.929   2.229 -0.6334 -0.9473 -1.6425
 7077SOL    HW231566   2.015   4.852   2.166  1.0845  0.3883  0.1749
 7078SOL     OW31567   2.817   4.458   0.310  0.2797 -0.4968  0.0016
 7078SOL    HW131568   2.878   4.483   0.235 -0.0152 -1.1916 -0.4676
 7078SOL    HW231569   2.742   4.402   0.276 -0.5185  0.1814  0.6166
 7079SOL     OW31570   1.530   0.269   2.354 -0.2064 -0.1353  0.3786
 7079SOL    HW131571   1.611   0.310   2.310  0.7505 -1.2174  1.1121
 7079SOL    HW231572   1.523   0.303   2.448  0.0731 -0.9494  0.6947
 7080SOL     OW31573   3.285   5.251   0.131  0.3531  0.4382  0.8705
 7080SOL    HW131574   3.196   5.209   0.112 -1.2465  3.5334  1.1944
 7080SOL    HW231575   3.339   5.252   0.047 -0.2726 -0.6038  0.4330
 7081SOL     OW31576   9.818   7.465   1.069 -0.0099 -0.1427  0.5129
 7081SOL    HW131577   9.772   7.541   1.023  1.7290  0.1008 -0.8196
 7081SOL    HW231578   9.798   7.469   1.167 -1.5284  0.8806  0.1730
 7082SOL     OW31579   0.149   5.319   3.139 -0.2766  0.7319 -0.1407
 7082SOL    HW131580   0.111   5.302   3.048 -1.2087 -0.5195  0.4762
 7082SOL    HW231581   0.200   5.405   3.137  0.0024  0.5533 -1.9300
 7083SOL     OW31582   2.366   5.194   2.267  0.9269  0.2543  0.0348
 7083SOL    HW131583   2.402   5.287   2.277  0.8021  0.7462 -3.5406
 7083SOL    HW231584   2.414   5.148   2.192  0.2062 -2.2038  1.0390
 7084SOL     OW31585   1.153   8.644   2.890 -0.3145 -0.7400  0.0321
 7084SOL    HW131586   1.211   8.568   2.917  0.1437 -0.7851 -1.0549
 7084SOL    HW231587   1.185   8.682   2.803 -0.6790  0.5384  0.4334
 7085SOL     OW31588   0.778   6.456   2.513 -0.4987  0.0073  0.5032
 7085SOL    HW131589   0.747   6.374   2.560 -0.6711  0.3311  0.9678
 7085SOL    HW231590   0.878   6.462   2.518 -0.5767  0.5194  1.6537
 7086SOL     OW31591   0.677   1.343   3.207 -0.1277 -0.0352  0.0798
 7086SOL    HW131592   0.754   1.280   3.195  0.6107  0.8388  0.2307
 7086SOL    HW231593   0.639   1.367   3.118 -1.1568 -1.6029  0.0745
 7087SOL     OW31594   7.677   8.912   0.084 -0.0292 -0.1771 -0.5033
 7087SOL    HW131595   7.707   8.891  -0.009 -1.3893  0.8815 -1.1976
 7087SOL    HW231596   7.750   8.891   0.148  1.3220  0.1038 -1.9275
 7088SOL     OW31597   7.157   9.034   1.781 -0.5355  0.2257  0.1203
 7088SOL    HW131598   7.155   9.064   1.876  2.7281 -1.0891  0.6726
 7088SOL    HW231599   7.188   9.109   1.723  0.4212  0.1347  0.5055
 7089SOL     OW31600   4.534   0.602   3.439  0.1243 -0.4801 -0.2062
 7089SOL    HW131601   4.536   0.620   3.341 -1.1656 -0.9971 -0.3379
 7089SOL    HW231602   4.512   0.687   3.488 -0.4096 -0.4723 -0.4524
 7090SOL     OW31603   4.891   3.461   1.606  0.1142 -0.3404  0.6093
 7090SOL    HW131604   4.871   3.540   1.547  0.2930 -1.2372 -0.6833
 7090SOL    HW231605   4.822   3.390   1.589  0.4857 -0.8133  1.0941
 7091SOL     OW31606   9.380   0.221   0.186  0.1977  0.2064 -0.6567
 7091SOL    HW131607   9.388   0.236   0.088 -2.2931  0.5698 -0.8316
 7091SOL    HW231608   9.284   0.209   0.211  0.8277 -0.3741  1.6748
 7092SOL     OW31609   3.078   2.725   2.096 -0.0282 -0.1249 -0.1179
 7092SOL    HW131610   3.035   2.672   2.168  0.9109 -1.8377 -0.7977
 7092SOL    HW231611   3.173   2.744   2.120 -0.4382  1.5050  0.2509
 7093SOL     OW31612   9.484   7.070   1.903  0.7952 -0.2702  0.0650
 7093SOL    HW131613   9.516   7.163   1.919  0.8362 -0.8546  3.7845
 7093SOL    HW231614   9.384   7.066   1.909  0.4135  0.2274 -4.3342
 7094SOL     OW31615   0.209   0.407   1.950 -0.5836 -0.3521 -0.0753
 7094SOL    HW131616   0.228   0.500   1.981  0.5595 -0.6970  0.2829
 7094SOL    HW231617   0.194   0.408   1.851 -1.3630  0.3226  0.0409
 7095SOL     OW31618   4.050   9.427   2.986 -0.4713  0.0367  0.0936
 7095SOL    HW131619   4.136   9.434   2.937  0.4132  0.8440  1.7184
 7095SOL    HW231620   3.975   9.415   2.921  0.9108 -1.2204 -1.2997
 7096SOL     OW31621   3.394   1.040   0.093  0.1440 -1.0540  0.1638
 7096SOL    HW131622   3.404   0.952   0.045 -0.1663 -2.0516  1.8879
 7096SOL    HW231623   3.348   1.105   0.032  2.0197 -1.4974 -1.7972
 7097SOL     OW31624   8.467   0.603   2.487  0.5875 -0.1815 -0.6868
 7097SOL    HW131625   8.500   0.575   2.578 -1.3281 -1.7461 -0.4476
 7097SOL    HW231626   8.482   0.529   2.422 -1.3507 -0.5055 -0.8111
 7098SOL     OW31627   3.417   2.301   1.771  0.0466  0.5834 -0.1535
 7098SOL    HW131628   3.441   2.222   1.828 -3.2779 -0.9012 -0.7170
 7098SOL    HW231629   3.475   2.302   1.690  0.5092 -0.9663  0.1414
 7099SOL     OW31630   8.481   1.535   2.680  0.2027  0.2787  0.4428
 7099SOL    HW131631   8.540   1.564   2.755  1.3134  0.0573 -0.3333
 7099SOL    HW231632   8.422   1.612   2.653  2.7516  1.7373 -1.2447
 7100SOL     OW31633   5.445   8.419   3.369  0.4495  0.2371  0.0590
 7100SOL    HW131634   5.533   8.374   3.352  0.9851  0.5618  1.8747
 7100SOL    HW231635   5.371   8.352   3.359  1.0258 -0.3965 -0.0164
 7101SOL     OW31636   9.111   9.542   3.072 -0.3296  0.8250  0.0517
 7101SOL    HW131637   9.079   9.535   3.166  0.8885 -0.3943  0.3890
 7101SOL    HW231638   9.172   9.621   3.063 -0.9556  1.3197  0.1296
 7102SOL     OW31639   3.919   5.032   1.475  0.1212 -0.4169  0.3190
 7102SOL    HW131640   3.871   4.995   1.396  0.2535 -1.5416  0.7573
 7102SOL    HW231641   3.979   4.962   1.514  1.6179  0.7665  0.1773
 7103SOL     OW31642   1.417   8.072   0.342  0.4044 -0.9834  0.5163
 7103SOL    HW131643   1.464   8.018   0.272  0.2303 -0.0918 -0.2939
 7103SOL    HW231644   1.349   8.131   0.299  1.4170  0.7549  1.2589
 7104SOL     OW31645   1.484   6.865   0.924 -0.3693  0.4952 -0.0454
 7104SOL    HW131646   1.492   6.938   0.992  0.0364 -1.9161  2.6257
 7104SOL    HW231647   1.575   6.826   0.907 -0.8105 -0.4949 -0.1414
 7105SOL     OW31648   0.025   1.560   0.973 -0.3816 -0.2141 -0.1179
 7105SOL    HW131649  -0.031   1.478   0.965 -1.4872  0.0705  3.6882
 7105SOL    HW231650  -0.033   1.641   0.965  0.1425  0.1509 -0.2837
 7106SOL     OW31651   1.482   5.256   0.465 -0.5539  0.3549  0.9501
 7106SOL    HW131652   1.534   5.178   0.430 -0.3914  1.6138 -1.7291
 7106SOL    HW231653   1.417   5.225   0.534 -0.4583 -2.1444 -0.0499
 7107SOL     OW31654   3.607   0.694   1.702  0.1965  0.1295 -0.4088
 7107SOL    HW131655   3.565   0.764   1.645  1.2682  0.4448 -0.8246
 7107SOL    HW231656   3.568   0.604   1.679 -0.8325  0.5140 -0.2014
 7108SOL     OW31657   7.639   0.431   3.091  0.2509 -0.1111 -0.4891
 7108SOL    HW131658   7.547   0.454   3.125  0.6167  0.0820  0.3624
 7108SOL    HW231659   7.630   0.389   3.000 -0.7210 -0.6186 -0.1730
 7109SOL     OW31660   9.255   9.363   2.904  0.0518 -0.0832 -0.4367
 7109SOL    HW131661   9.195   9.400   2.974 -0.2714 -1.6725  0.1513
 7109SOL    HW231662   9.298   9.438   2.853 -2.8799  1.0738 -1.2881
 7110SOL     OW31663   1.430   6.241   2.284 -0.3999  0.0830 -0.5868
 7110SOL    HW131664   1.373   6.322   2.270 -1.0737 -0.1234  0.8756
 7110SOL    HW231665   1.410   6.173   2.213 -2.1811 -0.0836  0.0543
 7111SOL     OW31666   8.918   9.043   1.914  0.6480  0.2032  0.2860
 7111SOL    HW131667   8.871   8.982   1.978  0.6484 -1.9172 -1.6977
 7111SOL    HW231668   9.016   9.027   1.919  0.5586 -0.8169 -1.0835
 7112SOL     OW31669   1.429   4.024   0.113  0.2547  0.5791  0.0927
 7112SOL    HW131670   1.433   3.933   0.073 -0.7121  0.4258  0.3526
 7112SOL    HW231671   1.346   4.070   0.085  1.3680  1.8943 -1.1157
 7113SOL     OW31672   4.223   4.783   0.659 -0.3747  0.2897  0.2071
 7113SOL    HW131673   4.202   4.759   0.564  1.0367 -0.2979  0.0336
 7113SOL    HW231674   4.165   4.859   0.687 -0.4559  0.8100 -1.2946
 7114SOL     OW31675   3.175   7.068   3.222  0.3263  0.2730  0.3809
 7114SOL    HW131676   3.168   7.150   3.279 -0.9950  0.4595 -0.0279
 7114SOL    HW231677   3.100   7.005   3.245  0.8790 -0.4705  0.1532
 7115SOL     OW31678   7.429   9.932   0.535  0.0044  0.7212 -0.1073
 7115SOL    HW131679   7.446   9.968   0.443 -1.8715  1.0619 -0.3424
 7115SOL    HW231680   7.331   9.928   0.551  0.2811 -0.8650  1.2988
 7116SOL     OW31681   4.937   0.330   2.922 -0.5164 -0.4155 -1.1323
 7116SOL    HW131682   5.011   0.397   2.912  0.4965 -1.2779  0.3138
 7116SOL    HW231683   4.875   0.338   2.844  0.8867  0.5851 -2.1992
 7117SOL     OW31684   0.654   4.197   3.211 -0.0817  0.0063  0.0324
 7117SOL    HW131685   0.644   4.111   3.162 -1.6544  0.6419 -0.7859
 7117SOL    HW231686   0.652   4.179   3.310  1.7213 -1.1135 -0.1105
 7118SOL     OW31687   9.471   3.379   1.708  0.2199  0.1204  0.1729
 7118SOL    HW131688   9.506   3.339   1.623  1.5095 -0.4268  0.9388
 7118SOL    HW231689   9.515   3.334   1.786 -1.4821  0.1254  1.1484
 7119SOL     OW31690   2.013   7.327   2.690  0.2047  0.1421  0.6063
 7119SOL    HW131691   1.916   7.311   2.707  0.2196  0.4676  1.0045
 7119SOL    HW231692   2.024   7.377   2.604  0.0562 -0.4398  0.2503
 7120SOL     OW31693   2.979   5.925   3.441  0.5709 -0.1836 -0.1934
 7120SOL    HW131694   2.940   5.833   3.450  0.5190 -0.3733 -2.0973
 7120SOL    HW231695   3.078   5.919   3.427  0.3358 -0.0563 -2.0218
 7121SOL     OW31696   0.609   9.518   2.412  0.7150  0.5268  0.0656
 7121SOL    HW131697   0.536   9.451   2.418 -0.0812  1.3431 -0.4914
 7121SOL    HW231698   0.687   9.487   2.467 -0.2158 -0.1259  1.0367
 7122SOL     OW31699   3.009   4.702   0.707 -0.2871  0.5757 -0.7540
 7122SOL    HW131700   2.960   4.655   0.781 -0.3726  1.1156 -0.4645
 7122SOL    HW231701   2.953   4.704   0.625  0.1865 -0.8691 -1.1235
 7123SOL     OW31702   0.303   6.035   2.518 -0.0664  0.0417 -0.2144
 7123SOL    HW131703   0.216   5.986   2.513 -0.2788  0.2812  1.0411
 7123SOL    HW231704   0.286   6.131   2.540  0.6104 -0.3270  2.0885
 7124SOL     OW31705   1.117   9.599   0.036  0.1270 -0.0798 -0.1773
 7124SOL    HW131706   1.168   9.685   0.042  1.9592 -1.2312  1.0055
 7124SOL    HW231707   1.170   9.525   0.077 -3.4234 -0.9127  3.2459
 7125SOL     OW31708   8.232   7.253   0.258  0.1677 -0.7097 -0.2030
 7125SOL    HW131709   8.326   7.264   0.290 -0.8047  1.7939  2.0092
 7125SOL    HW231710   8.175   7.219   0.333 -1.5058  1.9428 -0.2005
 7126SOL     OW31711   1.750   6.904   2.337  0.1426 -0.6504 -0.8564
 7126SOL    HW131712   1.759   6.994   2.294 -2.1527  0.5342  0.9881
 7126SOL    HW231713   1.826   6.889   2.399 -0.7696  1.1887  0.7680
 7127SOL     OW31714   2.363   6.077   0.326 -0.7420 -0.5533  0.5648
 7127SOL    HW131715   2.360   5.987   0.370 -1.8477 -0.8481 -0.0974
 7127SOL    HW231716   2.275   6.123   0.337 -0.9979 -0.5846 -1.2451
 7128SOL     OW31717   4.197   7.598   1.500  0.0791 -0.6320 -0.4743
 7128SOL    HW131718   4.175   7.681   1.552 -0.0079 -0.9456 -0.0069
 7128SOL    HW231719   4.292   7.572   1.519  1.1330  1.1263 -3.0344
 7129SOL     OW31720   2.508   0.725   1.452  0.4218  0.8454  0.8088
 7129SOL    HW131721   2.467   0.635   1.466  0.7708  0.7262  1.0962
 7129SOL    HW231722   2.445   0.796   1.483  0.5138  0.6548  1.4528
 7130SOL     OW31723   4.570   7.417   2.886  0.4829 -0.0688  0.5899
 7130SOL    HW131724   4.577   7.394   2.983 -0.5661  1.6544  1.1123
 7130SOL    HW231725   4.611   7.506   2.870 -0.6469  0.3186 -0.2622
 7131SOL     OW31726   9.801   6.081   0.974 -0.2611  0.2003  0.3994
 7131SOL    HW131727   9.867   6.137   1.025 -1.7795  0.4317  2.1454
 7131SOL    HW231728   9.711   6.125   0.976 -0.4127  0.0802 -2.2963
 7132SOL     OW31729   8.743   2.018   2.446  0.1701 -0.2568  0.0955
 7132SOL    HW131730   8.822   2.064   2.405  0.7826 -1.8835 -0.5631
 7132SOL    HW231731   8.671   2.008   2.378  0.3982 -1.1166 -0.0212
 7133SOL     OW31732   4.772   0.205   1.363 -0.2632  0.3392 -0.8902
 7133SOL    HW131733   4.708   0.240   1.432 -2.4265 -3.1887 -0.9278
 7133SOL    HW231734   4.863   0.242   1.380 -1.7750  3.5449  0.7233
 7134SOL     OW31735   0.365   1.366   2.345  0.2545  0.0386  0.9436
 7134SOL    HW131736   0.290   1.431   2.359 -0.0575 -0.0981 -0.0395
 7134SOL    HW231737   0.368   1.302   2.422 -0.1868  0.4832  1.3382
 7135SOL     OW31738   0.234   0.396   1.066 -0.2347  0.0390 -0.2742
 7135SOL    HW131739   0.251   0.483   1.021 -0.7114  0.0333 -0.4675
 7135SOL    HW231740   0.202   0.329   0.999 -1.6107  0.2210  0.1780
 7136SOL     OW31741   8.659   5.725   2.766 -0.0616  0.0940  0.2741
 7136SOL    HW131742   8.708   5.729   2.678  0.2668  0.3021  0.4648
 7136SOL    HW231743   8.698   5.652   2.822  0.9934  1.1961  0.9972
 7137SOL     OW31744   9.429   0.414   0.385 -0.3790 -0.1364 -0.3037
 7137SOL    HW131745   9.417   0.353   0.306 -0.9446  0.8844 -1.0062
 7137SOL    HW231746   9.523   0.445   0.389 -0.2408 -0.5427 -0.3074
 7138SOL     OW31747   1.804   1.680   2.192 -0.0616 -0.2672 -0.1111
 7138SOL    HW131748   1.745   1.627   2.252  0.2141 -0.7577 -0.2686
 7138SOL    HW231749   1.887   1.627   2.172  0.0216  0.0533 -0.6102
 7139SOL     OW31750   3.234   5.113   2.350 -0.2791 -0.0513  0.0543
 7139SOL    HW131751   3.146   5.073   2.376  0.0720  0.1137  1.5448
 7139SOL    HW231752   3.220   5.188   2.286 -1.3333  0.7318  1.1723
 7140SOL     OW31753   8.714   1.625   0.577 -0.1420 -0.3287  0.1691
 7140SOL    HW131754   8.795   1.663   0.623 -0.1008 -1.0198  0.6702
 7140SOL    HW231755   8.675   1.553   0.634 -1.9936  1.0229  0.6387
 7141SOL     OW31756   9.346   4.060   3.291  0.5863  0.6691 -0.1087
 7141SOL    HW131757   9.333   3.981   3.232  3.2047  1.0185 -1.2315
 7141SOL    HW231758   9.283   4.133   3.264  0.6064  0.2275 -1.3647
 7142SOL     OW31759   9.948   1.961   0.871  0.3467  0.1869 -0.7762
 7142SOL    HW131760   9.920   1.886   0.811 -0.5226 -1.1478  1.2405
 7142SOL    HW231761   9.886   2.039   0.859 -0.2743 -0.3473 -1.0409
 7143SOL     OW31762   3.857   7.230   0.005 -0.1964 -0.1682  0.0556
 7143SOL    HW131763   3.901   7.316  -0.024  0.0456 -0.6638 -1.0579
 7143SOL    HW231764   3.924   7.156   0.002 -0.9046 -0.7729 -0.8679
 7144SOL     OW31765   2.165   0.474   2.214 -0.5093 -0.1018  0.1498
 7144SOL    HW131766   2.233   0.459   2.142 -2.3979 -0.1665 -1.6705
 7144SOL    HW231767   2.161   0.393   2.273 -0.5350 -0.9756 -1.0335
 7145SOL     OW31768   8.128   7.386   2.936  0.3464  0.2388  0.2547
 7145SOL    HW131769   8.226   7.373   2.925 -0.0604 -2.0608 -1.0346
 7145SOL    HW231770   8.088   7.413   2.849 -0.3551 -0.1755  0.4445
 7146SOL     OW31771   2.577   3.688   2.896  0.3210 -0.4163 -0.4083
 7146SOL    HW131772   2.560   3.774   2.944 -0.1226 -1.5026  1.4226
 7146SOL    HW231773   2.532   3.613   2.945  2.6465 -2.0204 -0.6850
 7147SOL     OW31774   1.552   4.221   3.426 -0.0425 -0.0846  0.0964
 7147SOL    HW131775   1.582   4.155   3.357 -0.0628 -0.1443  0.1445
 7147SOL    HW231776   1.511   4.171   3.503 -1.7790  0.0851 -0.7163
 7148SOL     OW31777   8.789   6.228   1.120 -0.1022 -0.2160  0.2823
 7148SOL    HW131778   8.733   6.258   1.043  0.9784 -0.5153 -0.6392
 7148SOL    HW231779   8.756   6.271   1.204  0.2328  2.0504 -0.7146
 7149SOL     OW31780   2.246   4.826   2.346 -0.5017  0.3218 -0.5760
 7149SOL    HW131781   2.220   4.894   2.414  0.4563 -1.6211  1.8017
 7149SOL    HW231782   2.173   4.759   2.334 -0.2360  0.0376 -0.6417
 7150SOL     OW31783   3.258   8.591   0.286 -0.1289 -0.5270  0.3481
 7150SOL    HW131784   3.222   8.685   0.288 -0.8816 -0.8131  0.7065
 7150SOL    HW231785   3.191   8.529   0.327  0.0194 -1.3433 -0.6173
 7151SOL     OW31786   0.285   0.919   3.087 -0.1690  0.3974  0.0940
 7151SOL    HW131787   0.213   0.869   3.039 -0.2810 -0.4563  1.1135
 7151SOL    HW231788   0.244   0.986   3.148 -0.1050  0.0446  0.5312
 7152SOL     OW31789   8.944   3.248   2.381 -0.7981  0.5050 -0.2370
 7152SOL    HW131790   8.982   3.286   2.297  1.4318 -0.9028  0.0804
 7152SOL    HW231791   8.924   3.322   2.445  1.4921  1.3499 -0.4189
 7153SOL     OW31792   1.227   5.202   2.785 -0.0895  0.3977 -0.2518
 7153SOL    HW131793   1.241   5.180   2.689 -0.5965 -1.8577  0.1485
 7153SOL    HW231794   1.258   5.295   2.804 -0.0641  0.8863 -2.6001
 7154SOL     OW31795   1.906   6.628   2.083  0.1958  0.5140 -0.1891
 7154SOL    HW131796   1.836   6.593   2.021 -0.0835  0.9657 -0.1283
 7154SOL    HW231797   1.995   6.591   2.057 -0.1579 -0.5625  0.1167
 7155SOL     OW31798   4.018   1.795   2.430 -0.1356  0.6243  0.7416
 7155SOL    HW131799   4.055   1.712   2.472 -0.5997  0.8796  1.6903
 7155SOL    HW231800   3.924   1.779   2.401  0.5689  0.0938 -1.3088
 7156SOL     OW31801   1.969   1.701   2.751 -0.0329 -0.1135  0.2240
 7156SOL    HW131802   1.905   1.777   2.738  0.5124  0.2538 -0.3352
 7156SOL    HW231803   1.957   1.634   2.678  0.5025  0.1565 -0.1119
 7157SOL     OW31804   1.853   2.278   0.195 -0.0896 -0.1541  0.1086
 7157SOL    HW131805   1.759   2.249   0.178 -0.9263  1.7761  1.3496
 7157SOL    HW231806   1.916   2.216   0.147 -1.9120 -2.4510  0.6042
 7158SOL     OW31807   9.255   7.443   2.269 -0.7234  0.4315  0.2116
 7158SOL    HW131808   9.161   7.415   2.250 -0.4373 -0.1612 -0.3678
 7158SOL    HW231809   9.293   7.387   2.342 -0.7721  0.5682  0.3408
 7159SOL     OW31810   7.867   9.920   0.421 -0.4772 -0.2441  0.0814
 7159SOL    HW131811   7.909   9.989   0.363 -1.5651  0.9215  0.6613
 7159SOL    HW231812   7.873   9.949   0.517 -1.1517 -0.8466  0.3073
 7160SOL     OW31813   3.169   8.107   2.170 -0.0699 -0.4310  0.1638
 7160SOL    HW131814   3.087   8.118   2.226  0.2323  1.4195  0.2694
 7160SOL    HW231815   3.144   8.112   2.073 -0.0200  0.7364  0.2019
 7161SOL     OW31816   3.347   7.517   1.088 -0.1301 -0.3146 -0.1737
 7161SOL    HW131817   3.437   7.512   1.131 -0.3427  1.7265  0.5452
 7161SOL    HW231818   3.331   7.433   1.035  2.4328 -0.4442 -0.8131
 7162SOL     OW31819   3.104   0.914   2.248  0.1057 -0.1533 -0.0249
 7162SOL    HW131820   3.073   0.942   2.157 -0.0293 -1.1815 -0.3078
 7162SOL    HW231821   3.202   0.891   2.244 -0.1014 -1.0360 -0.1128
 7163SOL     OW31822   1.125   6.203   2.214 -1.1324  0.1111  0.3793
 7163SOL    HW131823   1.100   6.154   2.130 -0.6168  0.9417 -0.2650
 7163SOL    HW231824   1.113   6.301   2.200 -1.5576  0.2134  1.4583
 7164SOL     OW31825   7.113   9.130   2.441  0.0009  0.4715 -0.2235
 7164SOL    HW131826   7.090   9.063   2.511  0.8186 -0.6241 -1.0043
 7164SOL    HW231827   7.209   9.157   2.450 -0.0958  0.8996 -0.4546
 7165SOL     OW31828   7.959   9.781   2.532 -0.1560  0.5933 -0.2269
 7165SOL    HW131829   8.023   9.828   2.593 -0.3017 -0.2589  0.5974
 7165SOL    HW231830   7.882   9.842   2.511  0.0602  1.0107  0.1775
 7166SOL     OW31831   9.823   9.515   3.406  0.3621 -0.4796 -0.0882
 7166SOL    HW131832   9.883   9.444   3.441 -0.2871 -1.5717 -1.1766
 7166SOL    HW231833   9.852   9.543   3.315 -0.3608 -0.5419 -0.3464
 7167SOL     OW31834   4.262   8.870   0.107 -0.2862  0.1640  0.2083
 7167SOL    HW131835   4.262   8.770   0.098 -2.0527  0.2975 -1.8686
 7167SOL    HW231836   4.356   8.902   0.120  0.4651 -1.6755 -0.4003
 7168SOL     OW31837   2.557   3.045   1.530 -0.0996  0.1161  0.3039
 7168SOL    HW131838   2.625   3.016   1.597 -0.8246 -2.2391  0.0580
 7168SOL    HW231839   2.592   3.028   1.437 -0.2364  0.7395  0.1345
 7169SOL     OW31840   2.623   6.330   0.922  0.1218 -0.0299 -0.0451
 7169SOL    HW131841   2.661   6.283   0.842 -0.9932  0.1295 -0.6769
 7169SOL    HW231842   2.621   6.267   0.999  0.4583 -0.4341 -0.3636
 7170SOL     OW31843   2.068   4.489   2.184  0.5756  0.0718  0.6319
 7170SOL    HW131844   2.090   4.470   2.088  0.7772  0.2153  0.6481
 7170SOL    HW231845   1.969   4.482   2.198  0.7269 -1.7829  0.8284
 7171SOL     OW31846   2.643   3.664   2.220 -0.2219  0.7026 -0.0495
 7171SOL    HW131847   2.690   3.647   2.307  1.5774 -0.3611 -1.1786
 7171SOL    HW231848   2.680   3.746   2.178 -1.0999  1.2212  0.1809
 7172SOL     OW31849   9.029   7.046   0.615 -0.3848 -0.6358 -0.3476
 7172SOL    HW131850   9.065   7.031   0.707 -1.1054  0.5522  0.1277
 7172SOL    HW231851   8.965   7.122   0.616 -0.5452 -0.7432 -1.8014
 7173SOL     OW31852   2.602   0.029   2.520  0.0616  0.3854 -0.0913
 7173SOL    HW131853   2.598   0.103   2.586  0.5935  0.2817  0.0583
 7173SOL    HW231854   2.644   0.062   2.435 -0.5422  0.4967 -0.3480
 7174SOL     OW31855   0.727   7.322   3.403  0.1063  0.2661 -0.0746
 7174SOL    HW131856   0.716   7.228   3.436  3.2247 -0.5086 -1.0763
 7174SOL    HW231857   0.645   7.348   3.351 -1.0633 -1.6573  0.7200
 7175SOL     OW31858   8.710   5.511   1.333  0.0500 -0.0335  0.2039
 7175SOL    HW131859   8.806   5.484   1.344 -0.5825 -1.6492  2.2584
 7175SOL    HW231860   8.698   5.605   1.364  0.8061 -0.1246  0.8033
 7176SOL     OW31861   0.690   6.021   1.919  0.1572 -0.0143  0.3893
 7176SOL    HW131862   0.623   5.989   1.986  0.9140 -2.3482  0.0760
 7176SOL    HW231863   0.721   5.944   1.863  2.1260  1.2652 -0.3403
 7177SOL     OW31864   9.884   9.792   0.483 -0.1440 -0.4571  0.1660
 7177SOL    HW131865   9.829   9.776   0.401 -0.6897 -0.9866  0.6289
 7177SOL    HW231866   9.829   9.842   0.550 -0.2232 -1.4185  0.8191
 7178SOL     OW31867   1.998   3.417   2.177  0.5253  1.2977 -0.0050
 7178SOL    HW131868   1.937   3.418   2.256 -1.6613 -0.9087 -1.5656
 7178SOL    HW231869   2.077   3.359   2.196  0.1067  0.9456  0.6664
 7179SOL     OW31870   2.140   1.278   2.046  0.2422  0.0880 -0.1103
 7179SOL    HW131871   2.176   1.225   2.124 -0.9145  1.3840  1.3482
 7179SOL    HW231872   2.063   1.228   2.006  1.0639 -0.7555 -0.6548
 7180SOL     OW31873   3.393   0.091   3.418  0.3260  0.3726 -0.3938
 7180SOL    HW131874   3.445   0.075   3.334  0.5200 -1.5853  0.0641
 7180SOL    HW231875   3.322   0.159   3.401  0.8757  0.5739 -1.9376
 7181SOL     OW31876   8.749   9.285   0.633 -0.0747 -0.0590  0.5021
 7181SOL    HW131877   8.676   9.218   0.647  1.7404 -2.2376 -0.1870
 7181SOL    HW231878   8.768   9.294   0.536  1.6988 -0.7776  0.7639
 7182SOL     OW31879   0.782   7.757   0.542 -0.0840 -0.4684  0.2301
 7182SOL    HW131880   0.696   7.721   0.507 -0.0023 -1.6294  1.1427
 7182SOL    HW231881   0.855   7.739   0.477 -0.2151 -1.1665  0.2674
 7183SOL     OW31882   1.293   6.769   1.224  0.3423  0.4326 -0.1735
 7183SOL    HW131883   1.228   6.804   1.292 -0.0167  1.4662 -1.0359
 7183SOL    HW231884   1.379   6.820   1.232  0.2895  0.5703 -0.5208
 7184SOL     OW31885   8.113   9.274   0.582 -0.7930  0.2078  0.4933
 7184SOL    HW131886   8.014   9.272   0.566 -0.7821 -0.2663  0.4886
 7184SOL    HW231887   8.161   9.283   0.495 -0.7617 -1.5909  0.3121
 7185SOL     OW31888   8.867   2.382   2.200 -0.1135 -0.5686  0.2795
 7185SOL    HW131889   8.888   2.442   2.123  1.7557  0.8493  1.8163
 7185SOL    HW231890   8.770   2.358   2.199 -0.7630  1.9146 -0.7926
 7186SOL     OW31891   4.218   9.456   0.449 -0.0872 -0.3875 -0.4473
 7186SOL    HW131892   4.281   9.517   0.496  0.5238 -0.1361 -1.5614
 7186SOL    HW231893   4.232   9.464   0.350 -0.1874 -2.1386 -0.6184
 7187SOL     OW31894   3.275   6.030   3.280 -0.7790  0.0906  0.3598
 7187SOL    HW131895   3.265   6.122   3.316  0.6719  0.5306 -0.3083
 7187SOL    HW231896   3.372   6.006   3.276 -0.9578 -0.4197 -2.0037
 7188SOL     OW31897   1.960   3.620   0.599  0.6796  0.1685  0.4725
 7188SOL    HW131898   1.945   3.692   0.667  0.3437  0.9851 -0.4435
 7188SOL    HW231899   2.022   3.655   0.528  0.5432 -0.4590  0.0450
 7189SOL     OW31900   1.798   2.913   1.604  0.2451 -0.1508  0.0131
 7189SOL    HW131901   1.891   2.925   1.569 -0.1152  1.4216 -0.4380
 7189SOL    HW231902   1.802   2.888   1.701  1.1224  0.4520  0.1372
 7190SOL     OW31903   0.106   5.706   1.800  0.2863 -0.3684 -0.3694
 7190SOL    HW131904   0.015   5.669   1.821 -0.8575  0.6358 -3.3173
 7190SOL    HW231905   0.119   5.793   1.848  0.2052 -1.0989  1.0174
 7191SOL     OW31906   2.065   2.384   2.356  0.4566  0.2508 -0.0367
 7191SOL    HW131907   2.111   2.350   2.273  1.5289  0.8647  0.2927
 7191SOL    HW231908   2.099   2.334   2.435 -2.7168 -2.4113 -0.2425
 7192SOL     OW31909   2.327   0.133   2.187  0.1377  0.3867 -0.7660
 7192SOL    HW131910   2.242   0.111   2.139 -1.1987  0.3463  1.5176
 7192SOL    HW231911   2.305   0.160   2.281  2.5543  1.7969 -0.5718
 7193SOL     OW31912   2.138   2.772   1.679  0.8838 -0.4717  0.1581
 7193SOL    HW131913   2.161   2.709   1.605  1.3512 -0.4055  0.2471
 7193SOL    HW231914   2.183   2.860   1.663  0.0452 -0.0883 -0.0882
 7194SOL     OW31915   7.900   1.571   0.916  0.3904 -0.5068  0.1970
 7194SOL    HW131916   7.919   1.665   0.888 -0.9410  0.4863  2.4327
 7194SOL    HW231917   7.898   1.567   1.016 -0.0250 -2.8236  0.1021
 7195SOL     OW31918   4.117   4.557   3.150 -0.3956 -0.4644 -0.1840
 7195SOL    HW131919   4.212   4.544   3.178 -0.3139  0.7833  0.1471
 7195SOL    HW231920   4.081   4.472   3.112  1.0012 -0.8117 -0.7384
 7196SOL     OW31921   9.110   3.655   0.741  0.0354  0.3253 -0.1179
 7196SOL    HW131922   9.063   3.579   0.695  0.4597 -0.1018  0.1476
 7196SOL    HW231923   9.144   3.624   0.830  0.5312  0.7230 -0.1683
 7197SOL     OW31924   3.167   7.821   1.745 -0.0010 -0.1186 -0.3007
 7197SOL    HW131925   3.132   7.728   1.729  0.5720 -0.5035  0.6068
 7197SOL    HW231926   3.264   7.824   1.722 -0.1445  0.4047 -0.8437
 7198SOL     OW31927   2.050   7.805   1.560  0.9015 -0.0899 -0.0266
 7198SOL    HW131928   2.079   7.900   1.549 -1.8910  1.2497  3.3998
 7198SOL    HW231929   2.115   7.757   1.619  1.2044  0.2559 -0.0732
 7199SOL     OW31930   3.680   0.946   0.446  0.2114  0.0182 -0.2957
 7199SOL    HW131931   3.595   0.908   0.483  0.5475 -0.8271 -0.3990
 7199SOL    HW231932   3.691   1.040   0.480 -0.1670 -0.2707  0.6574
 7200SOL     OW31933   3.617   8.301   1.273 -0.3218  0.0567  0.0253
 7200SOL    HW131934   3.682   8.374   1.250 -1.0099  0.3843 -0.9211
 7200SOL    HW231935   3.571   8.271   1.190 -0.8463 -0.6956  0.5864
 7201SOL     OW31936   9.568   8.473   2.341 -0.3422 -0.2048  0.2239
 7201SOL    HW131937   9.586   8.552   2.283 -0.6504 -0.0435  0.3499
 7201SOL    HW231938   9.570   8.500   2.437 -0.0775 -0.4229  0.2814
 7202SOL     OW31939   0.755   8.453   2.089 -0.1629 -0.0622  0.4606
 7202SOL    HW131940   0.821   8.383   2.116  0.6460  0.1122 -1.0019
 7202SOL    HW231941   0.797   8.514   2.023 -1.1975  1.1998  0.9483
 7203SOL     OW31942   5.137   0.566   2.062 -0.2364  0.8506  0.1054
 7203SOL    HW131943   5.149   0.469   2.084 -3.2826 -0.2677 -2.8138
 7203SOL    HW231944   5.054   0.600   2.105  0.2862  1.9137  0.2913
 7204SOL     OW31945   4.168   3.657   1.672  0.1759 -0.6236 -0.2554
 7204SOL    HW131946   4.129   3.593   1.607 -1.4307 -0.2144  0.2592
 7204SOL    HW231947   4.111   3.659   1.755  1.0991  0.2680  0.3763
 7205SOL     OW31948   3.700   1.302   2.472 -0.3239 -0.6239  0.2798
 7205SOL    HW131949   3.625   1.238   2.458 -0.5801 -0.0468 -1.0353
 7205SOL    HW231950   3.786   1.262   2.440 -0.5742 -0.1052 -1.0613
 7206SOL     OW31951   7.637   2.964   0.797  0.5978  0.0826 -0.0308
 7206SOL    HW131952   7.577   2.887   0.819  1.4470 -0.7253 -0.4926
 7206SOL    HW231953   7.635   2.982   0.699  1.0130  0.1233 -0.0352
 7207SOL     OW31954   2.292   3.882   0.638  0.2826 -0.1784  0.1429
 7207SOL    HW131955   2.311   3.845   0.729 -0.7837 -0.9617  0.0554
 7207SOL    HW231956   2.194   3.900   0.629  0.4368  0.2542 -0.7235
 7208SOL     OW31957   8.358   1.265   0.524 -0.1367 -0.1955 -0.4072
 7208SOL    HW131958   8.318   1.260   0.432 -0.2315  0.3627 -0.3958
 7208SOL    HW231959   8.298   1.317   0.584  1.1728  1.7299 -0.7118
 7209SOL     OW31960   2.206   6.273   2.534  0.0419  0.4030 -0.4360
 7209SOL    HW131961   2.114   6.242   2.512 -0.8987  0.5071  3.1009
 7209SOL    HW231962   2.268   6.195   2.539  0.0786  0.2817 -2.2549
 7210SOL     OW31963   4.390   9.230   0.449 -0.2944 -0.4477  0.1738
 7210SOL    HW131964   4.441   9.240   0.364 -0.9478 -0.0175 -0.1691
 7210SOL    HW231965   4.318   9.300   0.454  0.4217  0.2047  1.5709
 7211SOL     OW31966   9.410   8.341   0.379  0.2326  0.7300 -0.5558
 7211SOL    HW131967   9.424   8.358   0.282 -0.2365  1.6963 -0.4671
 7211SOL    HW231968   9.382   8.426   0.424  0.5323  0.3137  0.4391
 7212SOL     OW31969   8.679   5.044   1.978  0.5145 -0.2211  0.1036
 7212SOL    HW131970   8.743   4.977   1.941  0.0897 -0.6875  0.2141
 7212SOL    HW231971   8.719   5.135   1.970  1.4220 -0.5615  0.6699
 7213SOL     OW31972   8.598   7.738   1.246  0.3418 -0.2056  0.5667
 7213SOL    HW131973   8.605   7.823   1.194  1.7592  0.9023  2.4864
 7213SOL    HW231974   8.544   7.754   1.328 -1.9478 -1.9553 -0.5608
 7214SOL     OW31975   4.028   9.947   1.962  0.0348 -0.3075  0.2205
 7214SOL    HW131976   4.124   9.937   1.991  0.3117  1.3010 -0.0964
 7214SOL    HW231977   3.999   9.865   1.913  1.2334 -0.8305  0.3691
 7215SOL     OW31978   0.306   0.389   0.353  0.1924 -0.2452  0.0723
 7215SOL    HW131979   0.264   0.364   0.441 -0.0145 -0.6597 -0.1442
 7215SOL    HW231980   0.233   0.408   0.287  0.3371 -2.0719 -0.6263
 7216SOL     OW31981   8.020   8.468   1.057 -0.5152  0.2690  0.1887
 7216SOL    HW131982   8.036   8.400   1.128  1.9185 -0.5770 -1.0870
 7216SOL    HW231983   8.094   8.536   1.059  0.0324 -0.2164 -1.9789
 7217SOL     OW31984   1.141   2.708   0.505  0.1126 -0.2543  0.0233
 7217SOL    HW131985   1.178   2.780   0.563  0.1705 -1.3842  1.4055
 7217SOL    HW231986   1.041   2.713   0.505  0.0655 -0.9859  1.1919
 7218SOL     OW31987   8.646   8.465   3.246  0.0680  0.0275 -0.2408
 7218SOL    HW131988   8.660   8.426   3.155 -0.6787 -1.1215  0.1262
 7218SOL    HW231989   8.667   8.395   3.315  4.7563  2.0950  0.6153
 7219SOL     OW31990   1.866   3.192   2.813 -0.8561  0.0502 -0.1578
 7219SOL    HW131991   1.779   3.216   2.769 -1.6595 -0.7212  0.9973
 7219SOL    HW231992   1.875   3.093   2.817 -0.0581  0.1277  0.0060
 7220SOL     OW31993   2.550   9.193   3.319 -0.7336  0.4771  0.0556
 7220SOL    HW131994   2.476   9.209   3.384 -1.3813 -0.0249 -0.5425
 7220SOL    HW231995   2.512   9.156   3.234  0.2081  0.1802 -0.2461
 7221SOL     OW31996   8.830   7.717   0.031  0.4321 -0.8999  0.1825
 7221SOL    HW131997   8.873   7.797  -0.011 -1.3950 -0.8162 -1.6215
 7221SOL    HW231998   8.850   7.636  -0.024 -0.5874 -1.0738  0.0591
 7222SOL     OW31999   2.214   9.602   0.575 -0.4224 -0.4490 -0.5562
 7222SOL    HW132000   2.138   9.551   0.535 -0.5773 -1.3243  0.8502
 7222SOL    HW232001   2.186   9.643   0.662 -0.0187  1.2687 -1.2085
 7223SOL     OW32002   2.219   6.688   2.855 -0.1281  0.2937  0.1118
 7223SOL    HW132003   2.188   6.628   2.782  1.0774 -0.6964  0.3911
 7223SOL    HW232004   2.199   6.646   2.944  0.3362  0.5057  0.3194
 7224SOL     OW32005   2.822   4.776   1.942 -0.3870 -0.3644  0.3193
 7224SOL    HW132006   2.896   4.838   1.917  0.8353 -2.4813 -1.4836
 7224SOL    HW232007   2.847   4.725   2.024  0.4510 -1.5276 -0.6445
 7225SOL     OW32008   2.026   5.923   1.123  0.0537  0.2116  0.3718
 7225SOL    HW132009   2.063   5.953   1.035  1.5483 -2.5706  0.0067
 7225SOL    HW232010   2.046   5.992   1.192  0.4482  1.5911 -1.0808
 7226SOL     OW32011   0.930   2.575   3.158 -0.3243 -0.9535 -0.3885
 7226SOL    HW132012   1.020   2.551   3.196 -0.4688 -0.0659  0.5208
 7226SOL    HW232013   0.858   2.536   3.215 -0.5247 -0.7244 -0.4834
 7227SOL     OW32014   2.092   8.864   2.016 -0.5178  0.3090 -0.5700
 7227SOL    HW132015   2.084   8.953   2.061  1.4953  0.2759 -0.1061
 7227SOL    HW232016   2.173   8.863   1.958 -0.0667 -1.4809  0.0515
 7228SOL     OW32017   8.976   3.996   2.193 -0.2430 -0.4871 -0.0895
 7228SOL    HW132018   9.033   3.917   2.218  0.2361  0.1254  0.7577
 7228SOL    HW232019   8.949   4.045   2.275 -0.7633  0.0837 -0.6008
 7229SOL     OW32020   8.410   1.102   0.980 -0.1243 -0.4032  0.0718
 7229SOL    HW132021   8.423   1.030   1.048 -0.3642 -1.3006 -0.8242
 7229SOL    HW232022   8.405   1.062   0.889  1.3882  0.8892 -0.6023
 7230SOL     OW32023   1.316   4.383   0.338 -0.0404 -0.5509  0.0884
 7230SOL    HW132024   1.329   4.342   0.248 -0.5057  1.3540 -0.8756
 7230SOL    HW232025   1.382   4.457   0.351  0.0421 -0.8334  1.3243
 7231SOL     OW32026   2.820   0.728   3.248 -0.1199 -0.2183  0.5799
 7231SOL    HW132027   2.731   0.686   3.269 -0.8155  0.6006 -0.6985
 7231SOL    HW232028   2.880   0.660   3.206 -0.3645 -0.5979  0.8370
 7232SOL     OW32029   3.682   1.570   0.980  0.2607 -0.3008 -0.5154
 7232SOL    HW132030   3.610   1.512   1.019 -0.8485  0.0752 -1.9786
 7232SOL    HW232031   3.641   1.646   0.931  1.6812  0.2382 -0.8950
 7233SOL     OW32032   8.768   7.747   2.560 -0.1648  0.2916 -0.1221
 7233SOL    HW132033   8.758   7.731   2.658  0.4274  0.4112 -0.0415
 7233SOL    HW232034   8.704   7.689   2.510  0.0216 -0.2799  0.3021
 7234SOL     OW32035   1.371   9.774   3.209 -0.0603  0.1221  0.0439
 7234SOL    HW132036   1.311   9.752   3.132  0.2752 -1.1103  0.1257
 7234SOL    HW232037   1.338   9.857   3.254 -2.6385 -1.3948  1.0704
 7235SOL     OW32038   8.853   8.133   1.852  0.0163  0.1820 -0.3944
 7235SOL    HW132039   8.902   8.111   1.936  0.1730 -0.0133 -0.5370
 7235SOL    HW232040   8.917   8.170   1.785  0.0824 -0.6807 -0.8082
 7236SOL     OW32041   2.331   2.161   2.745 -0.3928  0.4167 -0.1298
 7236SOL    HW132042   2.295   2.202   2.829 -1.3550 -0.0633 -0.3069
 7236SOL    HW232043   2.410   2.103   2.767 -0.4960  0.4793  0.4106
 7237SOL     OW32044   0.661   6.594   1.362  0.1305 -0.1573  0.0006
 7237SOL    HW132045   0.701   6.682   1.336  1.5003 -1.1581 -1.3969
 7237SOL    HW232046   0.675   6.528   1.288 -0.2439 -1.7451  1.3143
 7238SOL     OW32047   9.357   0.546   1.580  0.0447 -0.4879 -0.0896
 7238SOL    HW132048   9.260   0.533   1.562 -0.2582  0.2664  0.9807
 7238SOL    HW232049   9.373   0.640   1.611  1.1411 -0.5556 -0.4110
 7239SOL     OW32050   3.505   5.888   2.766  0.1286  0.3795  0.1918
 7239SOL    HW132051   3.449   5.904   2.685 -1.5121  0.1962  1.2783
 7239SOL    HW232052   3.447   5.885   2.847  1.8403  1.3715  1.4908
 7240SOL     OW32053   4.832   8.551   1.826  0.6872  0.2659  0.0339
 7240SOL    HW132054   4.916   8.560   1.879  0.1946  4.1612  0.3127
 7240SOL    HW232055   4.853   8.509   1.738  2.5260 -0.8490  0.9736
 7241SOL     OW32056   8.066   1.780   2.176 -0.0463  0.2620 -0.2160
 7241SOL    HW132057   7.981   1.815   2.216  0.8744  0.2876  1.7644
 7241SOL    HW232058   8.141   1.794   2.240  1.0162 -1.9902 -0.9350
 7242SOL     OW32059   1.143   1.873   0.777  0.3051 -0.3060 -0.3185
 7242SOL    HW132060   1.058   1.833   0.742  1.3079 -1.8243 -1.0605
 7242SOL    HW232061   1.128   1.906   0.870 -0.6597 -2.1165  0.2085
 7243SOL     OW32062   8.724   0.779   0.200  0.1647  0.2336  0.2076
 7243SOL    HW132063   8.739   0.714   0.274  0.4130  0.6256  0.5066
 7243SOL    HW232064   8.676   0.859   0.235 -0.8660 -0.1475 -0.3367
 7244SOL     OW32065   2.447   6.850   2.863 -0.5304 -0.3971  0.3534
 7244SOL    HW132066   2.509   6.793   2.916 -0.0880 -0.2381  0.0152
 7244SOL    HW232067   2.354   6.815   2.871 -0.2438 -1.2297  0.0647
 7245SOL     OW32068   9.140   9.685   0.893 -0.5957 -0.1897 -0.1847
 7245SOL    HW132069   9.052   9.709   0.934 -0.7747 -0.1947 -0.5691
 7245SOL    HW232070   9.147   9.586   0.885 -1.4573 -0.1183 -2.1405
 7246SOL     OW32071   4.307   3.295   2.395  0.3116 -0.6734 -0.7912
 7246SOL    HW132072   4.264   3.280   2.484  1.0581  0.5172 -0.2044
 7246SOL    HW232073   4.246   3.264   2.322  0.3666 -3.2136  0.1805
 7247SOL     OW32074   8.947   1.748   2.860 -0.2980 -0.4729 -0.1027
 7247SOL    HW132075   8.929   1.790   2.949 -1.5547 -0.8267 -0.1894
 7247SOL    HW232076   8.877   1.774   2.795  0.8200  0.0759 -1.1054
 7248SOL     OW32077   2.366   6.398   1.234 -0.1589 -0.2069  0.5805
 7248SOL    HW132078   2.409   6.308   1.232 -0.2585 -0.2197 -0.7763
 7248SOL    HW232079   2.437   6.469   1.235 -0.0959 -0.2635  0.0674
 7249SOL     OW32080   9.636   6.163   0.106  0.5209 -0.5652  0.0785
 7249SOL    HW132081   9.665   6.074   0.140  0.9511 -0.8346 -0.9683
 7249SOL    HW232082   9.713   6.226   0.109  0.6999 -0.7345 -0.8759
 7250SOL     OW32083   0.416   1.694   2.856  0.5107  0.2331 -0.5760
 7250SOL    HW132084   0.384   1.606   2.820  0.8372 -0.0528 -0.1683
 7250SOL    HW232085   0.378   1.709   2.947 -0.6896  1.1740 -1.2286
 7251SOL     OW32086   1.963   0.501   2.891  0.0425 -0.3163 -0.2334
 7251SOL    HW132087   1.884   0.547   2.850  0.6461  1.2587  0.3279
 7251SOL    HW232088   1.936   0.459   2.978  0.0374  1.1014  0.4668
 7252SOL     OW32089   4.843   8.033   2.014  0.5838 -0.3173 -0.1221
 7252SOL    HW132090   4.778   8.109   2.014  0.6365 -0.2654 -1.8256
 7252SOL    HW232091   4.804   7.956   2.065 -0.9384 -0.3905 -1.3565
 7253SOL     OW32092   8.227   5.981   3.234  0.3070 -0.4149  0.4654
 7253SOL    HW132093   8.262   6.064   3.192 -1.7349  0.9816  1.4238
 7253SOL    HW232094   8.258   5.901   3.182  1.5016  0.9946 -1.0286
 7254SOL     OW32095   4.179   1.589   0.912 -0.0351 -0.5447 -0.9523
 7254SOL    HW132096   4.086   1.582   0.875 -0.7592  2.4240  0.1904
 7254SOL    HW232097   4.176   1.588   1.012  1.0951 -0.0279 -0.9003
 7255SOL     OW32098   1.867   4.051   2.128  0.1254  0.5620 -0.2076
 7255SOL    HW132099   1.828   4.127   2.076  1.5752  0.9891 -0.6858
 7255SOL    HW232100   1.958   4.075   2.160  0.4556 -0.8360 -0.0471
 7256SOL     OW32101   3.148   8.050   1.602  0.3280 -0.0613  0.3643
 7256SOL    HW132102   3.125   7.974   1.662  1.3217  0.4465  1.3943
 7256SOL    HW232103   3.237   8.088   1.627  2.1264 -1.6489 -3.1974
 7257SOL     OW32104   7.824   2.448   1.223  0.7108 -0.1217 -0.6792
 7257SOL    HW132105   7.868   2.425   1.136  0.7195 -1.0014 -0.4419
 7257SOL    HW232106   7.796   2.364   1.270 -0.9896  0.4133 -0.6955
 7258SOL     OW32107   8.238   1.388   3.134 -0.7637 -0.0220  0.3684
 7258SOL    HW132108   8.199   1.421   3.219 -0.2604  0.0457  0.5714
 7258SOL    HW232109   8.216   1.451   3.060 -0.2895  0.4773  0.6500
 7259SOL     OW32110   7.629   9.182   0.313 -0.1701  0.8342  0.0334
 7259SOL    HW132111   7.641   9.128   0.229  0.9329  1.1296 -0.0099
 7259SOL    HW232112   7.533   9.181   0.339 -0.4810  0.4805 -1.0694
 7260SOL     OW32113   9.034   3.405   0.667 -0.1196 -0.0184  0.1188
 7260SOL    HW132114   9.052   3.329   0.605 -0.1239  0.3220 -0.2942
 7260SOL    HW232115   9.030   3.370   0.761  2.7938 -0.1012  0.2518
 7261SOL     OW32116   3.145   5.578   0.671  0.4777  0.4836 -0.0250
 7261SOL    HW132117   3.232   5.542   0.636 -0.5512 -1.1087 -0.9707
 7261SOL    HW232118   3.152   5.591   0.770  1.2647 -1.1699  0.1411
 7262SOL     OW32119   9.717   1.013   1.388  0.7597 -0.2059 -0.1496
 7262SOL    HW132120   9.707   0.923   1.346 -1.9850  0.5804 -1.2483
 7262SOL    HW232121   9.728   1.082   1.317 -2.5776  0.9701  0.4135
 7263SOL     OW32122   2.324   9.163   0.012  0.3034  0.1535  0.2361
 7263SOL    HW132123   2.242   9.126  -0.031  0.0078  0.8654  0.1845
 7263SOL    HW232124   2.298   9.232   0.080  0.8498  0.3148  0.2871
 7264SOL     OW32125   9.936   7.275   2.284  0.3214 -0.4089 -0.2886
 7264SOL    HW132126   9.836   7.271   2.288  0.4190 -0.5498  2.6205
 7264SOL    HW232127   9.963   7.363   2.244 -0.9461  0.4290  0.6640
 7265SOL     OW32128   8.292   5.082   0.500  0.2234  0.3202 -0.0878
 7265SOL    HW132129   8.303   5.023   0.580 -1.6435  0.4675  0.2975
 7265SOL    HW232130   8.341   5.168   0.515  0.2115  0.1912  0.7286
 7266SOL     OW32131   9.731   4.940   1.980 -0.2943  0.0665 -0.0303
 7266SOL    HW132132   9.784   4.957   2.063 -0.9008  1.1225  0.1437
 7266SOL    HW232133   9.678   4.856   1.990 -1.1432  0.7168  1.0567
 7267SOL     OW32134   6.233   9.778   2.666 -0.0366 -0.2590  0.0852
 7267SOL    HW132135   6.253   9.706   2.599 -1.4723 -0.1927 -0.4333
 7267SOL    HW232136   6.147   9.823   2.642  1.2577  2.2122 -0.0692
 7268SOL     OW32137   0.512   3.995   0.076  0.0540 -0.3214 -0.1428
 7268SOL    HW132138   0.579   4.067   0.090 -1.1527  0.9343 -0.7053
 7268SOL    HW232139   0.539   3.914   0.129  1.2830  0.6150  0.7089
 7269SOL     OW32140   0.117   9.731   0.020 -0.0988 -0.3843  0.1573
 7269SOL    HW132141   0.046   9.661   0.022  0.5699 -1.1508 -1.7051
 7269SOL    HW232142   0.166   9.731   0.108 -1.3242 -0.9648  0.8527
 7270SOL     OW32143   2.660   7.852   1.030  0.0952 -0.1713 -0.1121
 7270SOL    HW132144   2.755   7.849   0.997  0.7260  1.7459  1.3908
 7270SOL    HW232145   2.612   7.926   0.984 -0.3648 -0.4583 -0.0908
 7271SOL     OW32146   0.395   6.025   0.943  0.0765 -0.5632 -0.5384
 7271SOL    HW132147   0.493   6.020   0.961 -0.3430 -1.6019  1.7205
 7271SOL    HW232148   0.345   6.006   1.028 -2.0771  0.6989 -1.4811
 7272SOL     OW32149   9.962   6.624   2.096  0.6069 -0.3434  0.5010
 7272SOL    HW132150   9.985   6.708   2.047  0.9177  0.5148  2.0559
 7272SOL    HW232151   9.865   6.603   2.083  0.6239  0.0279 -0.2366
 7273SOL     OW32152   8.984   7.839   0.832  0.4171  0.7839  0.3832
 7273SOL    HW132153   8.990   7.740   0.817  0.1208  0.8309 -0.0849
 7273SOL    HW232154   8.944   7.857   0.922 -2.1551  0.4601 -0.6594
 7274SOL     OW32155   9.088   6.434   0.103 -0.5760 -0.1253  0.2891
 7274SOL    HW132156   9.043   6.353   0.067  0.4906 -1.4594  1.8773
 7274SOL    HW232157   9.023   6.486   0.159 -1.1945  0.0108 -0.5476
 7275SOL     OW32158   8.281   1.727   2.628 -0.4302  0.1140  0.2100
 7275SOL    HW132159   8.225   1.778   2.564  1.5852  0.8153 -1.0443
 7275SOL    HW232160   8.254   1.750   2.722 -1.2465  1.5235 -0.3573
 7276SOL     OW32161   0.900   2.289   2.557  0.0615 -0.0765  0.5431
 7276SOL    HW132162   0.908   2.196   2.522 -0.9497 -0.0694  0.2803
 7276SOL    HW232163   0.937   2.354   2.491  1.0651 -0.3138  0.8663
 7277SOL     OW32164   1.905   8.008   2.325  0.2841 -0.2146  0.1793
 7277SOL    HW132165   1.819   7.982   2.283  0.6389  0.4776 -0.9920
 7277SOL    HW232166   1.905   8.107   2.342  1.8667  0.2433 -2.2560
 7278SOL     OW32167   2.409   5.456   2.285  0.2029  0.1794  0.2746
 7278SOL    HW132168   2.328   5.469   2.228  1.2166 -0.0276 -1.2313
 7278SOL    HW232169   2.428   5.540   2.335 -1.4601 -0.0494  1.3477
 7279SOL     OW32170   3.774   3.055   2.822  0.5391  0.2152  0.3622
 7279SOL    HW132171   3.808   3.066   2.729  2.8727  2.2610  1.4094
 7279SOL    HW232172   3.831   2.987   2.870 -0.3032 -0.4104  0.4968
 7280SOL     OW32173   7.886   8.312   1.669 -0.3337 -0.7147 -0.0426
 7280SOL    HW132174   7.826   8.327   1.747 -2.0624  0.4358 -1.5502
 7280SOL    HW232175   7.950   8.239   1.690 -1.2787 -0.9629  2.1499
 7281SOL     OW32176   1.996   9.592   2.474 -0.4824  0.7878 -0.5073
 7281SOL    HW132177   2.001   9.528   2.551 -0.1486  1.8931  0.4081
 7281SOL    HW232178   1.909   9.581   2.427 -1.2676  1.0495  0.8705
 7282SOL     OW32179   4.033   3.993   1.856  0.1874 -0.6960  0.0461
 7282SOL    HW132180   4.091   3.968   1.779 -0.7939 -0.0489 -0.9230
 7282SOL    HW232181   3.937   3.982   1.830 -0.1349 -1.3914  1.5001
 7283SOL     OW32182   0.342   5.867   2.031  0.3929 -0.4888  0.3922
 7283SOL    HW132183   0.292   5.947   1.997 -0.4273 -1.3158 -0.3730
 7283SOL    HW232184   0.424   5.898   2.079 -0.9125  0.8849  1.7966
 7284SOL     OW32185   9.616   1.879   0.768 -1.1038 -0.7505  0.0413
 7284SOL    HW132186   9.542   1.836   0.717 -1.8205  1.2891 -0.6870
 7284SOL    HW232187   9.590   1.884   0.865 -1.5424 -0.8381 -0.0682
 7285SOL     OW32188   3.301   0.932   0.335  0.3520  0.8566 -0.2432
 7285SOL    HW132189   3.341   0.996   0.269 -0.6788  1.4837 -0.2832
 7285SOL    HW232190   3.211   0.902   0.301 -0.3236  1.4197  1.0040
 7286SOL     OW32191   0.138   7.254   0.288 -0.4897  0.1215  0.3745
 7286SOL    HW132192   0.149   7.172   0.232 -0.8784 -0.9340  1.7921
 7286SOL    HW232193   0.062   7.309   0.254 -0.4269 -0.2648 -0.3909
 7287SOL     OW32194   4.183   2.298   1.473 -0.0406 -0.4026  0.3861
 7287SOL    HW132195   4.277   2.279   1.501 -0.4693 -0.4503  1.8258
 7287SOL    HW232196   4.170   2.267   1.378  1.1641 -1.1341  0.4445
 7288SOL     OW32197   2.193   7.580   1.385  0.1166 -0.2272 -0.1436
 7288SOL    HW132198   2.290   7.568   1.405  0.0538 -1.4131 -0.5176
 7288SOL    HW232199   2.139   7.525   1.448 -0.2474 -0.7844 -0.9418
 7289SOL     OW32200   9.228   6.371   1.705  0.5319 -0.2706 -0.1116
 7289SOL    HW132201   9.249   6.274   1.700  0.6539 -0.2295 -0.4278
 7289SOL    HW232202   9.311   6.424   1.683  0.3901 -0.0999 -0.2376
 7290SOL     OW32203   4.199   2.700   2.736  0.0076  0.3256 -0.0897
 7290SOL    HW132204   4.186   2.780   2.677  1.3651  0.0400 -0.8013
 7290SOL    HW232205   4.119   2.641   2.731 -0.5082  1.0584 -0.4815
 7291SOL     OW32206   1.586   3.653   2.172 -0.4548 -0.0765  0.4955
 7291SOL    HW132207   1.504   3.597   2.161 -0.9710  1.1000 -1.8776
 7291SOL    HW232208   1.619   3.681   2.082  0.7007  2.1103  1.5837
 7292SOL     OW32209   8.260   2.450   3.020 -0.0402 -0.4252  0.1969
 7292SOL    HW132210   8.324   2.522   2.994 -1.4881  0.7159 -0.3202
 7292SOL    HW232211   8.221   2.472   3.110  0.9149 -1.5529  0.8983
 7293SOL     OW32212   1.297   4.968   1.439  0.0911  0.5098  0.1572
 7293SOL    HW132213   1.237   5.034   1.486 -0.0920  1.2235 -1.0620
 7293SOL    HW232214   1.279   4.876   1.474  0.1743  1.0637  1.7033
 7294SOL     OW32215   1.518   6.163   0.931 -0.3859  0.0446 -0.1162
 7294SOL    HW132216   1.440   6.107   0.901 -1.4249  0.9690  0.8423
 7294SOL    HW232217   1.504   6.192   1.025  1.9243 -1.1648  0.6285
 7295SOL     OW32218   2.494   9.921   3.141 -0.4949 -0.0054  0.6510
 7295SOL    HW132219   2.530   9.964   3.224 -0.4818 -0.2773  0.7860
 7295SOL    HW232220   2.558   9.851   3.110 -0.6097 -0.0608  0.5383
 7296SOL     OW32221   3.791   5.640   2.751 -0.1921  0.2488 -0.0060
 7296SOL    HW132222   3.729   5.622   2.827  0.0033 -0.5916 -0.0419
 7296SOL    HW232223   3.749   5.608   2.666 -0.0100  0.3190 -0.1222
 7297SOL     OW32224   1.748   0.308   2.995 -0.1107  0.8350  0.3627
 7297SOL    HW132225   1.766   0.215   2.963  0.5053  1.1745 -0.2908
 7297SOL    HW232226   1.681   0.305   3.070 -0.0861 -0.1298  0.3560
 7298SOL     OW32227   9.885   0.983   3.060  0.0542  0.2433 -0.1627
 7298SOL    HW132228   9.897   0.930   3.144 -1.9672 -0.4655 -0.2913
 7298SOL    HW232229   9.946   0.947   2.989  2.9446  1.8705  1.4087
 7299SOL     OW32230   3.614   4.723   2.060  0.4245 -0.5253 -0.3482
 7299SOL    HW132231   3.643   4.673   2.142 -0.3591 -0.7647 -0.2126
 7299SOL    HW232232   3.555   4.800   2.086  1.4471  0.3428 -0.5731
 7300SOL     OW32233   5.461   8.095   3.180  0.1989 -0.5030 -0.5212
 7300SOL    HW132234   5.531   8.167   3.176 -1.6768  1.3643 -0.7784
 7300SOL    HW232235   5.392   8.112   3.110 -1.1351 -1.6555  0.4896
 7301SOL     OW32236   7.892   2.297   1.655  0.0632  0.2831  0.0796
 7301SOL    HW132237   7.922   2.375   1.601 -3.8918  1.7397 -0.2084
 7301SOL    HW232238   7.864   2.223   1.594  1.1750 -0.3218  0.2933
 7302SOL     OW32239   4.195   9.622   1.326 -0.3472 -0.2474  1.0586
 7302SOL    HW132240   4.295   9.624   1.332 -0.2052  0.3592 -1.0365
 7302SOL    HW232241   4.165   9.688   1.257 -1.9799 -2.7182 -0.6857
 7303SOL     OW32242   3.928   4.209   0.479 -0.3677  0.7070  0.2858
 7303SOL    HW132243   4.009   4.248   0.524  0.7497 -0.4738 -0.6748
 7303SOL    HW232244   3.917   4.251   0.389 -1.0709  1.1487  0.5689
 7304SOL     OW32245   3.160   8.754   3.098 -0.2189  0.1366 -0.4067
 7304SOL    HW132246   3.192   8.707   3.180  0.4487 -1.8376 -1.7607
 7304SOL    HW232247   3.114   8.839   3.124 -0.7672 -0.8653  2.0518
 7305SOL     OW32248   9.694   7.744   0.238  0.3473  0.3542 -0.4901
 7305SOL    HW132249   9.694   7.687   0.156  0.0079 -0.6081  0.1682
 7305SOL    HW232250   9.610   7.796   0.243 -0.4782 -1.0056  0.1993
 7306SOL     OW32251   2.256   8.447   0.541  0.3115  0.5172  0.3709
 7306SOL    HW132252   2.257   8.506   0.622 -0.1506  0.8016  0.1722
 7306SOL    HW232253   2.249   8.503   0.459 -0.8375  0.1540  0.2168
 7307SOL     OW32254   8.205   0.681   2.211  0.2666  0.5752 -0.6886
 7307SOL    HW132255   8.200   0.602   2.150 -2.7716  0.6931 -0.6504
 7307SOL    HW232256   8.164   0.760   2.166 -0.7038  1.0226  0.9480
 7308SOL     OW32257   1.289   0.961   1.345  0.2494 -0.1472  0.3663
 7308SOL    HW132258   1.247   0.986   1.258 -1.3058 -2.7816  0.3203
 7308SOL    HW232259   1.387   0.944   1.331  0.0544 -0.3308 -0.8088
 7309SOL     OW32260   0.388   7.288   2.321  0.1004  0.6634 -0.1304
 7309SOL    HW132261   0.454   7.234   2.374 -0.1452 -1.8379 -2.2690
 7309SOL    HW232262   0.331   7.342   2.383  0.6297 -1.2421  2.0636
 7310SOL     OW32263   8.648   2.302   3.017 -0.7708 -0.3105  0.3750
 7310SOL    HW132264   8.667   2.308   2.919  0.9381 -0.9695  0.6373
 7310SOL    HW232265   8.678   2.386   3.061  0.7560 -0.9690  0.6514
 7311SOL     OW32266   3.002   2.822   1.855  0.1468  0.6660  0.1854
 7311SOL    HW132267   3.078   2.799   1.793  0.2628  0.1034  0.5258
 7311SOL    HW232268   3.026   2.793   1.948 -0.4011  0.6715  0.3281
 7312SOL     OW32269   2.245   1.147   2.337 -0.1738  0.0508 -0.1536
 7312SOL    HW132270   2.203   1.167   2.425 -0.4709  1.6948 -0.6525
 7312SOL    HW232271   2.180   1.098   2.279 -0.4016  0.0437  0.1077
 7313SOL     OW32272   0.593   0.436   0.317 -0.1659 -0.2898 -0.1479
 7313SOL    HW132273   0.543   0.349   0.323 -0.5897 -0.1886 -1.8215
 7313SOL    HW232274   0.529   0.512   0.322  0.0680 -0.1097  0.0720
 7314SOL     OW32275   2.278   6.782   3.205  0.1110  0.0819  0.3512
 7314SOL    HW132276   2.251   6.873   3.172  1.3703  0.1965 -0.3689
 7314SOL    HW232277   2.222   6.713   3.160  1.4344  0.2723 -1.6433
 7315SOL     OW32278   9.735   7.727   2.142  0.9623 -0.3420  0.0448
 7315SOL    HW132279   9.754   7.691   2.233  0.7629  1.7898  0.9733
 7315SOL    HW232280   9.743   7.827   2.143 -1.6348 -0.0427 -1.6116
 7316SOL     OW32281   4.628   8.185   3.204 -0.1157 -0.1275  0.2608
 7316SOL    HW132282   4.571   8.139   3.272 -1.3650 -1.3421 -1.5651
 7316SOL    HW232283   4.724   8.170   3.225 -0.5039 -1.0310  1.3986
 7317SOL     OW32284   8.377   8.545   3.291 -0.1706  0.6690 -0.2569
 7317SOL    HW132285   8.368   8.622   3.229 -1.0048  0.8690  0.1007
 7317SOL    HW232286   8.472   8.516   3.295  0.5333  3.0121  1.1815
 7318SOL     OW32287   9.987   2.783   2.145  0.3517  0.3977  0.2887
 7318SOL    HW132288  10.041   2.713   2.098 -0.6790 -0.1497 -0.0983
 7318SOL    HW232289  10.025   2.874   2.124  1.3736  0.0021  0.3726
 7319SOL     OW32290   1.365   9.453   1.971 -0.2811 -0.1177  0.4398
 7319SOL    HW132291   1.429   9.415   1.904 -0.2744 -0.9052  0.8777
 7319SOL    HW232292   1.272   9.444   1.936 -0.4531 -2.3760  1.3611
 7320SOL     OW32293   4.478   3.590   2.708 -0.1163  0.2276 -0.0940
 7320SOL    HW132294   4.442   3.564   2.619  0.6776 -0.0585 -0.3392
 7320SOL    HW232295   4.439   3.532   2.779 -0.8671  0.5572 -0.2385
 7321SOL     OW32296   2.036   3.622   1.952 -0.5923 -0.5270 -0.4225
 7321SOL    HW132297   2.015   3.557   2.025  0.2954 -1.0471 -0.6197
 7321SOL    HW232298   1.976   3.701   1.960  0.6851  0.2748  2.0117
 7322SOL     OW32299   3.200   6.826   2.676  0.5695  0.2085 -0.4057
 7322SOL    HW132300   3.259   6.827   2.757 -1.5585  3.2868  1.2103
 7322SOL    HW232301   3.205   6.915   2.631 -0.3248 -0.5936 -2.1163
 7323SOL     OW32302   2.619   2.065   0.050  0.9933 -0.1675  0.0131
 7323SOL    HW132303   2.620   2.132  -0.023  0.1435 -1.8826 -1.6276
 7323SOL    HW232304   2.614   2.111   0.139 -1.0763  1.8740 -1.1324
 7324SOL     OW32305   4.529   8.255   2.523  0.2603  0.3992  0.2902
 7324SOL    HW132306   4.557   8.254   2.427 -0.9758 -0.7918 -0.0753
 7324SOL    HW232307   4.463   8.328   2.538 -1.1064 -0.6959 -0.2493
 7325SOL     OW32308   1.466   6.113   1.428  0.3725 -0.4480  0.0771
 7325SOL    HW132309   1.540   6.142   1.490  1.0891 -0.3921 -0.7970
 7325SOL    HW232310   1.466   6.013   1.422 -0.5903 -0.5365  1.2406
 7326SOL     OW32311   3.074   0.041   2.857 -0.3977  0.4698 -0.2799
 7326SOL    HW132312   3.095   0.138   2.871  0.7242  0.8329 -3.8256
 7326SOL    HW232313   3.160  -0.011   2.855 -0.9591 -0.5203  0.9811
 7327SOL     OW32314   3.260   5.016   1.485  0.0605 -0.0343 -0.3752
 7327SOL    HW132315   3.224   5.093   1.538  0.6653  0.6715 -0.9722
 7327SOL    HW232316   3.360   5.018   1.488  0.0819 -1.7676  0.9722
 7328SOL     OW32317   3.668   1.230   1.843  0.3180 -0.0046 -0.1270
 7328SOL    HW132318   3.751   1.226   1.787 -1.3821  1.0681 -2.7937
 7328SOL    HW232319   3.611   1.150   1.824 -1.0871  1.2555 -1.2375
 7329SOL     OW32320   0.139   7.293   1.600 -0.1824  0.0272 -0.0089
 7329SOL    HW132321   0.101   7.384   1.587  0.9063  0.7916  1.8653
 7329SOL    HW232322   0.083   7.242   1.665  0.4989  0.2354  0.7640
 7330SOL     OW32323   0.243   6.252   1.198 -0.7140  0.2723  0.3938
 7330SOL    HW132324   0.202   6.299   1.275 -0.2814 -0.9206  1.3734
 7330SOL    HW232325   0.282   6.165   1.229  0.3302  0.2303 -0.9736
 7331SOL     OW32326   3.539   8.490   2.086  0.0971 -0.5567  0.2359
 7331SOL    HW132327   3.593   8.484   2.002  0.3823 -1.9908  0.5145
 7331SOL    HW232328   3.479   8.570   2.082 -2.3700 -2.4560 -2.7583
 7332SOL     OW32329   1.312   3.963   2.200  0.0456 -0.1689 -0.7141
 7332SOL    HW132330   1.254   4.045   2.197 -0.3796 -0.2969  2.1101
 7332SOL    HW232331   1.406   3.988   2.175 -0.2348  1.0499 -0.6005
 7333SOL     OW32332   9.527   8.027   2.353 -0.1251 -0.4864 -0.0942
 7333SOL    HW132333   9.517   7.964   2.430  0.9613  0.3263  0.7306
 7333SOL    HW232334   9.611   8.080   2.364  0.0181 -0.3229 -1.8209
 7334SOL     OW32335   5.831   9.187   2.320 -0.0237  0.1761 -0.4339
 7334SOL    HW132336   5.757   9.241   2.362  0.2038 -0.0293  0.2336
 7334SOL    HW232337   5.861   9.116   2.383  1.1439  0.6237 -0.4781
 7335SOL     OW32338   0.059   9.281   1.294  0.0417  0.0618  0.4607
 7335SOL    HW132339  -0.038   9.269   1.273  0.2619  0.3452 -0.7509
 7335SOL    HW232340   0.087   9.374   1.271  0.7311 -0.1847  0.2911
 7336SOL     OW32341   2.525   1.510   2.847  0.3822 -0.2017 -0.1018
 7336SOL    HW132342   2.492   1.418   2.827 -1.0426  0.3036 -0.1105
 7336SOL    HW232343   2.457   1.559   2.903  1.4737  0.5745  0.5778
 7337SOL     OW32344   9.277   5.264   0.706  0.3350 -0.0444 -0.3843
 7337SOL    HW132345   9.377   5.271   0.713  0.2839  0.8196 -0.5324
 7337SOL    HW232346   9.252   5.240   0.612  0.4631 -1.4232 -0.0723
 7338SOL     OW32347   2.066   4.755   0.305  0.2164  0.1140  0.4364
 7338SOL    HW132348   2.134   4.681   0.312  0.2538  0.3567  2.9673
 7338SOL    HW232349   2.080   4.820   0.379  0.0610  2.6101 -1.6815
 7339SOL     OW32350   2.581   5.610   1.224  0.4411 -0.4730 -0.1161
 7339SOL    HW132351   2.507   5.654   1.274 -0.4354 -2.2544  0.1810
 7339SOL    HW232352   2.666   5.660   1.240  0.1177 -0.8412  2.9322
 7340SOL     OW32353   4.775   2.988   1.167  0.2681  0.5390  0.8094
 7340SOL    HW132354   4.782   3.015   1.263 -1.3601 -1.2291  1.4736
 7340SOL    HW232355   4.795   2.890   1.159 -2.4486  0.0106 -0.1817
 7341SOL     OW32356   0.979   2.348   0.936  0.2440  0.7014 -0.4121
 7341SOL    HW132357   0.916   2.292   0.883 -1.3716  0.7189  1.4461
 7341SOL    HW232358   0.945   2.358   1.030  2.2330  1.9726  0.2161
 7342SOL     OW32359   9.463   6.097   1.817  0.1168  0.4886 -0.1272
 7342SOL    HW132360   9.491   6.115   1.723  1.4686  0.1624  0.2002
 7342SOL    HW232361   9.510   6.014   1.850  0.3047  1.0740  1.1044
 7343SOL     OW32362   9.920   6.050   0.711  0.2971 -0.1659 -0.0510
 7343SOL    HW132363   9.903   6.076   0.806  2.0257  0.0004  0.2287
 7343SOL    HW232364   9.897   6.127   0.651  0.0520  0.0393  0.3065
 7344SOL     OW32365   8.503   4.121   1.604  0.6435  0.1687 -0.4791
 7344SOL    HW132366   8.584   4.164   1.645 -0.9985  1.4948  1.4562
 7344SOL    HW232367   8.455   4.188   1.547 -0.1250 -0.0635 -0.1067
 7345SOL     OW32368   1.983   1.965   1.272  0.1060 -0.4051  0.8164
 7345SOL    HW132369   1.924   1.909   1.214 -0.6289  1.9318 -0.7642
 7345SOL    HW232370   1.927   2.016   1.337  0.5962  0.0246  0.9057
 7346SOL     OW32371   0.959   4.138   2.392  0.0208  0.3811  0.2542
 7346SOL    HW132372   0.956   4.043   2.425  1.5495  0.6881  1.2767
 7346SOL    HW232373   0.916   4.142   2.302 -2.0211 -0.8922  1.1268
 7347SOL     OW32374   8.164   6.849   1.732  0.4681 -0.1212 -0.3854
 7347SOL    HW132375   8.246   6.897   1.700  0.0075  0.7991 -0.2108
 7347SOL    HW232376   8.174   6.826   1.828  0.3978  0.2747 -0.2804
 7348SOL     OW32377   0.853   7.691   2.209  0.1657 -0.3177 -0.3011
 7348SOL    HW132378   0.880   7.602   2.248 -1.8713 -0.4292  0.9043
 7348SOL    HW232379   0.784   7.677   2.138  0.2953  0.2608 -0.5435
 7349SOL     OW32380   0.850   3.087   2.668 -0.2509  0.0396  0.8476
 7349SOL    HW132381   0.874   3.070   2.764 -0.3413  0.2548  0.9094
 7349SOL    HW232382   0.764   3.041   2.647  0.9046 -1.8690  0.2460
 7350SOL     OW32383   2.502   5.779   2.054  0.0301  0.4156 -0.4435
 7350SOL    HW132384   2.476   5.703   1.995  0.6257  1.5507 -2.2089
 7350SOL    HW232385   2.454   5.862   2.025 -0.3614  0.8047  1.2507
 7351SOL     OW32386   2.569   5.318   2.487 -0.1755  0.0261 -0.2282
 7351SOL    HW132387   2.483   5.359   2.456 -0.3727  0.9547  1.4727
 7351SOL    HW232388   2.563   5.219   2.480 -1.4087  0.0807 -0.0774
 7352SOL     OW32389   1.686   8.494   1.834  0.5928  1.1551  0.5553
 7352SOL    HW132390   1.748   8.573   1.837 -0.3612  1.9362 -0.0864
 7352SOL    HW232391   1.740   8.410   1.842  1.6394  1.8518  1.0860
 7353SOL     OW32392   2.885   8.538   1.906  0.5880 -0.2735  0.3197
 7353SOL    HW132393   2.963   8.597   1.884  0.4915 -0.4209 -0.4350
 7353SOL    HW232394   2.812   8.594   1.946  0.8389 -0.0316  0.4437
 7354SOL     OW32395   9.728   3.711   3.384 -0.4002 -0.4197 -0.0275
 7354SOL    HW132396   9.738   3.734   3.287  0.5412  2.6465  0.7362
 7354SOL    HW232397   9.635   3.735   3.414 -0.4321 -0.6041  0.0174
 7355SOL     OW32398   1.010   2.602   0.783 -0.3359  0.5349  0.3906
 7355SOL    HW132399   0.977   2.524   0.836  0.3441 -0.0128  0.0140
 7355SOL    HW232400   1.066   2.662   0.842  0.0876  0.1381  0.3922
 7356SOL     OW32401   3.662   9.312   0.301 -0.6074  0.3684  0.2510
 7356SOL    HW132402   3.716   9.323   0.217 -1.6422 -0.4900 -0.5461
 7356SOL    HW232403   3.706   9.244   0.360  1.2864  2.5566  1.4000
 7357SOL     OW32404   2.346   1.351   1.007 -0.4791  0.2710 -0.1951
 7357SOL    HW132405   2.297   1.399   1.079 -0.5612 -0.4575  0.2396
 7357SOL    HW232406   2.351   1.408   0.926  2.0215  2.2680  1.2702
 7358SOL     OW32407   8.243   0.260   2.227 -0.1479 -0.5751 -0.0133
 7358SOL    HW132408   8.197   0.317   2.159 -1.1540 -0.8432  0.4299
 7358SOL    HW232409   8.285   0.182   2.182 -1.1380 -0.9595 -0.2957
 7359SOL     OW32410   3.909   4.157   3.337  0.0606  0.0598  0.6228
 7359SOL    HW132411   3.815   4.125   3.333 -0.0203  0.5166 -1.4778
 7359SOL    HW232412   3.968   4.082   3.368 -0.4888 -1.3875 -1.7260
 7360SOL     OW32413   9.977   9.699   3.166 -0.0512 -0.0561 -1.1156
 7360SOL    HW132414   9.942   9.608   3.144 -1.7344  0.9333 -2.6841
 7360SOL    HW232415  10.062   9.691   3.218  0.2047 -2.5143 -1.8710
 7361SOL     OW32416   8.302   0.701   3.328 -0.5478  0.6725 -0.2189
 7361SOL    HW132417   8.301   0.795   3.361 -3.3520  1.3117 -2.0266
 7361SOL    HW232418   8.349   0.696   3.240 -0.4627  0.3677 -0.1602
 7362SOL     OW32419   3.256   1.471   3.345 -0.0537 -0.9750 -0.3912
 7362SOL    HW132420   3.158   1.486   3.340 -0.1690 -1.2616  0.9407
 7362SOL    HW232421   3.304   1.558   3.336 -0.4308 -0.8160 -0.8889
 7363SOL     OW32422   3.083   8.737   1.858  0.5697 -0.0451  0.0872
 7363SOL    HW132423   3.181   8.758   1.859  0.5955 -0.0647 -1.2450
 7363SOL    HW232424   3.031   8.821   1.871  0.7372  0.2585 -1.1696
 7364SOL     OW32425   2.553   3.570   0.983 -0.4197 -0.6629 -0.3511
 7364SOL    HW132426   2.539   3.482   1.029 -1.7606  0.2993  1.1380
 7364SOL    HW232427   2.485   3.636   1.016  1.0791  1.1631 -0.8520
 7365SOL     OW32428   0.903   2.967   2.922  0.0114 -0.2122  0.3944
 7365SOL    HW132429   0.980   2.910   2.893 -0.6116 -0.6300 -0.4416
 7365SOL    HW232430   0.875   2.941   3.014  1.6014  0.7050  1.1675
 7366SOL     OW32431   1.431   9.311   2.581 -0.4851  0.1673 -0.2386
 7366SOL    HW132432   1.365   9.279   2.649 -0.2516  2.4675  1.1561
 7366SOL    HW232433   1.384   9.369   2.514 -0.1222  0.7288 -0.0110
 7367SOL     OW32434   2.589   3.819   1.250 -0.2736  0.5049  0.4405
 7367SOL    HW132435   2.490   3.815   1.259 -0.4229 -1.1792 -1.4704
 7367SOL    HW232436   2.613   3.866   1.166  0.5376  0.5188  0.6756
 7368SOL     OW32437   1.670   6.787   2.951 -0.1191  0.0078  0.3513
 7368SOL    HW132438   1.652   6.706   2.897  0.5874  0.1462 -0.0874
 7368SOL    HW232439   1.733   6.765   3.026 -0.2378  0.0617  0.4682
 7369SOL     OW32440   8.850   3.078   2.638 -0.4506 -0.2092  0.0336
 7369SOL    HW132441   8.826   3.155   2.697 -0.2290  0.1838 -0.3831
 7369SOL    HW232442   8.882   3.113   2.550 -1.5278 -0.8029 -0.5985
 7370SOL     OW32443   1.680   4.536   0.205  0.0024  0.0458  0.0334
 7370SOL    HW132444   1.719   4.535   0.113 -2.0011 -1.8615 -0.8571
 7370SOL    HW232445   1.702   4.451   0.252  0.2676  0.6396  1.0071
 7371SOL     OW32446   8.434   0.558   0.615  0.5648  0.3572 -0.0201
 7371SOL    HW132447   8.415   0.479   0.675  1.4059  0.8678  0.9339
 7371SOL    HW232448   8.363   0.627   0.629  1.1491  0.7779  0.9367
 7372SOL     OW32449   1.510   6.255   1.185 -0.4796 -0.3152 -0.3575
 7372SOL    HW132450   1.503   6.198   1.267  0.0968 -0.2818 -0.2827
 7372SOL    HW232451   1.459   6.340   1.199  1.1065  0.4961  0.6640
 7373SOL     OW32452   1.229   0.993   2.500 -0.1576 -0.0939 -0.4645
 7373SOL    HW132453   1.133   1.022   2.494  0.1484  0.6306 -2.1971
 7373SOL    HW232454   1.271   1.000   2.410  1.1129 -1.8867 -0.0346
 7374SOL     OW32455   1.297   1.348   0.378  0.8082  0.0058 -0.0475
 7374SOL    HW132456   1.365   1.417   0.404  0.4101 -0.1799  1.5540
 7374SOL    HW232457   1.250   1.315   0.460  1.1208 -2.3022 -0.7469
 7375SOL     OW32458   1.749   3.439   2.345 -0.0313  0.5652  0.6072
 7375SOL    HW132459   1.706   3.521   2.308  1.5359  1.1843  0.0782
 7375SOL    HW232460   1.758   3.448   2.445  0.0218  0.9987  0.5654
 7376SOL     OW32461   3.159   9.277   0.524  0.3183  0.0318  0.1805
 7376SOL    HW132462   3.228   9.335   0.568  0.6733  2.2712 -3.1403
 7376SOL    HW232463   3.204   9.197   0.485  1.1629  1.5984 -2.1721
 7377SOL     OW32464   0.352   2.739   3.001 -0.2647 -0.4102 -0.3429
 7377SOL    HW132465   0.418   2.808   3.031  0.2268 -0.5778 -1.0176
 7377SOL    HW232466   0.328   2.756   2.905 -0.1668 -1.1525 -0.5037
 7378SOL     OW32467   1.600   9.115   0.333 -0.2046 -0.4729  0.0024
 7378SOL    HW132468   1.568   9.158   0.417 -0.9128 -1.4964  0.2625
 7378SOL    HW232469   1.600   9.183   0.259  2.5745  1.0207  1.3091
 7379SOL     OW32470   4.740   3.562   2.423 -0.0990  0.5354 -0.0026
 7379SOL    HW132471   4.718   3.647   2.471  0.0295  0.6825 -0.2020
 7379SOL    HW232472   4.798   3.504   2.480 -0.0137  0.6734  0.0484
 7380SOL     OW32473   0.695   2.448   2.927  0.0934  0.4595 -0.4434
 7380SOL    HW132474   0.604   2.472   2.962 -0.1550 -1.5805  0.3648
 7380SOL    HW232475   0.765   2.486   2.988 -0.3272 -2.5686  2.0325
 7381SOL     OW32476   3.720   7.774   0.715 -0.4787 -0.0595  0.2297
 7381SOL    HW132477   3.817   7.765   0.738 -0.1396 -1.7914 -1.7919
 7381SOL    HW232478   3.690   7.695   0.662 -2.7366  0.9769 -0.1167
 7382SOL     OW32479   0.278   0.636   2.066 -0.1399  0.1221  0.0864
 7382SOL    HW132480   0.304   0.617   2.160  0.7933 -2.9412 -0.7184
 7382SOL    HW232481   0.355   0.678   2.018 -0.2546  0.7052  0.4126
 7383SOL     OW32482   1.432   0.456   1.939 -0.5326  0.0048  0.2773
 7383SOL    HW132483   1.497   0.523   1.974 -1.1426  1.2641 -0.9558
 7383SOL    HW232484   1.344   0.466   1.987 -0.9599  0.8373 -0.6680
 7384SOL     OW32485   0.156   2.981   0.673  0.1044  1.0787 -0.5939
 7384SOL    HW132486   0.098   2.965   0.593 -1.6090 -0.4992  0.9027
 7384SOL    HW232487   0.099   3.005   0.752  1.5575  0.6004  0.6476
 7385SOL     OW32488   8.572   9.649   2.729 -0.1390  0.1792  0.2275
 7385SOL    HW132489   8.530   9.605   2.808 -1.4450  0.1571 -0.4646
 7385SOL    HW232490   8.671   9.637   2.732 -0.4205 -2.4434  0.2701
 7386SOL     OW32491   1.393   9.723   2.104 -0.4239  0.2065  0.3131
 7386SOL    HW132492   1.381   9.624   2.104 -1.6885  0.3190 -1.8154
 7386SOL    HW232493   1.479   9.746   2.058 -1.3989  0.1728 -1.5915
 7387SOL     OW32494   0.152   5.567   1.167 -0.3300  0.2392  0.3098
 7387SOL    HW132495   0.144   5.540   1.071 -1.9012 -1.1400  0.8007
 7387SOL    HW232496   0.248   5.581   1.190  0.1294 -0.1845 -1.2512
 7388SOL     OW32497   9.301   2.706   1.630 -0.4724 -0.2859  0.0123
 7388SOL    HW132498   9.285   2.668   1.721  0.1794  0.8136  0.5982
 7388SOL    HW232499   9.222   2.689   1.572 -1.3370 -0.0584  1.1082
 7389SOL     OW32500   8.734   8.973   3.359 -0.3385 -0.0107 -0.0834
 7389SOL    HW132501   8.760   8.999   3.266  1.0375 -0.2536  0.2347
 7389SOL    HW232502   8.769   8.882   3.380 -1.1879 -0.2225  0.4622
 7390SOL     OW32503   9.845   9.158   2.650 -0.1916 -0.7801  0.4929
 7390SOL    HW132504   9.848   9.230   2.719  0.5064 -0.6302  0.3090
 7390SOL    HW232505   9.904   9.082   2.677  2.6839  0.6635 -1.4425
 7391SOL     OW32506   0.155   2.609   1.191  0.1779  0.3934  0.2480
 7391SOL    HW132507   0.191   2.517   1.175  0.0179  0.4688 -0.5386
 7391SOL    HW232508   0.231   2.671   1.210  0.1923 -0.1618  2.1018
 7392SOL     OW32509   2.637   0.290   2.668  0.0901 -0.2625 -0.1890
 7392SOL    HW132510   2.659   0.262   2.762  0.2516  1.3721  0.2822
 7392SOL    HW232511   2.590   0.378   2.670  1.7621  0.7096 -1.7408
 7393SOL     OW32512   9.330   0.298   2.529  0.6382  0.2614 -0.1734
 7393SOL    HW132513   9.416   0.350   2.521  0.2184  0.7193 -1.8524
 7393SOL    HW232514   9.349   0.201   2.517  1.0771  0.2500  0.5633
 7394SOL     OW32515   4.959   8.843   2.668 -0.0892 -0.2283  0.0186
 7394SOL    HW132516   5.006   8.856   2.580 -0.5982 -1.9824 -0.5322
 7394SOL    HW232517   5.026   8.814   2.736 -0.0427 -0.8922 -0.3044
 7395SOL     OW32518   3.625   3.282   2.841 -0.4324  0.1588 -0.2369
 7395SOL    HW132519   3.657   3.188   2.832  0.2280  0.2608  0.9092
 7395SOL    HW232520   3.577   3.309   2.758 -0.8087 -1.2498 -0.4914
 7396SOL     OW32521   8.204   8.385   1.721 -0.1770 -0.2437 -0.4217
 7396SOL    HW132522   8.300   8.385   1.692 -0.2947  1.1629 -0.8180
 7396SOL    HW232523   8.180   8.293   1.754  0.7034 -1.1635 -2.2534
 7397SOL     OW32524   0.713   8.309   0.937 -0.7915  0.5306  0.8440
 7397SOL    HW132525   0.712   8.290   0.839 -0.4255  0.5179  0.8444
 7397SOL    HW232526   0.630   8.273   0.978  0.2285 -1.6977  0.9786
 7398SOL     OW32527   4.021   9.439   1.098 -0.2682  0.1257 -0.2391
 7398SOL    HW132528   4.033   9.375   1.022 -2.8739 -1.3748  0.5524
 7398SOL    HW232529   4.099   9.433   1.160 -0.3459 -2.0717 -0.3381
 7399SOL     OW32530   0.517   3.641   2.341  0.3684 -0.7314  0.4031
 7399SOL    HW132531   0.514   3.542   2.336 -2.6815 -0.7361  1.4162
 7399SOL    HW232532   0.493   3.671   2.433  0.4778  0.9772 -0.1008
 7400SOL     OW32533   2.577   8.283   0.081  0.2424 -0.2584 -0.8903
 7400SOL    HW132534   2.501   8.287   0.016 -0.7977  0.1452  0.3260
 7400SOL    HW232535   2.644   8.354   0.058 -0.7335  0.7142 -0.7581
 7401SOL     OW32536   8.922   7.108   2.189 -0.0930 -0.4382 -0.0097
 7401SOL    HW132537   8.995   7.052   2.151 -2.5187 -1.1119 -3.9312
 7401SOL    HW232538   8.855   7.050   2.234  0.0777 -0.1524  0.6182
 7402SOL     OW32539   1.867   4.331   0.746 -0.3438  0.1540  0.6820
 7402SOL    HW132540   1.921   4.412   0.724 -2.1651  1.4170  0.7175
 7402SOL    HW232541   1.793   4.356   0.809 -2.5414 -0.9858 -1.3759
 7403SOL     OW32542   5.909   9.020   2.544 -0.3200  0.2714 -0.3088
 7403SOL    HW132543   5.930   9.112   2.577 -1.9955  0.5222  0.0856
 7403SOL    HW232544   5.894   8.959   2.621 -0.3578 -0.0614 -0.5757
 7404SOL     OW32545   1.542   8.973   2.995 -0.1599  0.4068  0.0452
 7404SOL    HW132546   1.536   9.072   3.005 -0.4234  0.1281  3.3242
 7404SOL    HW232547   1.451   8.933   2.999 -0.0900  0.0491 -1.7052
 7405SOL     OW32548   1.224   0.603   2.695  0.0005  0.0586 -0.0575
 7405SOL    HW132549   1.256   0.511   2.671  0.7917  0.2129  0.3888
 7405SOL    HW232550   1.152   0.631   2.631 -0.5345 -1.0318  0.0504
 7406SOL     OW32551   1.833   9.888   2.373  0.3936 -0.3710  0.0345
 7406SOL    HW132552   1.838   9.975   2.325  1.3182 -1.0794 -1.1909
 7406SOL    HW232553   1.738   9.859   2.381 -0.0590  1.5367  1.9388
 7407SOL     OW32554   2.171   7.995   2.273 -0.6135  0.0187 -0.1742
 7407SOL    HW132555   2.242   8.011   2.341  0.9543  0.9628 -1.9788
 7407SOL    HW232556   2.081   8.004   2.315  0.3124 -1.1171  2.1374
 7408SOL     OW32557   4.460   0.314   0.056  0.4572 -0.2392  0.8429
 7408SOL    HW132558   4.495   0.407   0.046 -2.8295  1.0961  1.2737
 7408SOL    HW232559   4.469   0.265  -0.031  0.4662  1.0919  0.0844
 7409SOL     OW32560   2.966   7.463   2.544  0.4291 -0.1491  0.1590
 7409SOL    HW132561   2.958   7.515   2.459  0.3008  1.2711  1.0124
 7409SOL    HW232562   3.053   7.484   2.588  0.8398 -1.4865 -0.0155
 7410SOL     OW32563   3.623   2.051   3.444  0.5452  0.3489  0.0475
 7410SOL    HW132564   3.680   2.091   3.373 -0.2517 -2.6495 -2.4201
 7410SOL    HW232565   3.658   1.960   3.467  0.0689  0.7905  2.6651
 7411SOL     OW32566   7.914   9.919   2.880 -0.1582  0.1730 -0.3507
 7411SOL    HW132567   7.994   9.978   2.878 -0.7912  1.0476 -0.2695
 7411SOL    HW232568   7.939   9.829   2.916  1.1418 -0.1227 -1.9334
 7412SOL     OW32569   2.063   7.211   3.222  0.3749 -0.2630  0.3115
 7412SOL    HW132570   2.133   7.268   3.266  0.1595  0.1594  0.1114
 7412SOL    HW232571   1.978   7.218   3.273  0.6637 -1.3239  0.9576
 7413SOL     OW32572   1.247   4.804   2.197 -0.3518  0.0642 -0.0770
 7413SOL    HW132573   1.282   4.731   2.256 -0.8591 -2.1123 -2.3415
 7413SOL    HW232574   1.317   4.827   2.128 -0.6933  0.7940 -0.1826
 7414SOL     OW32575   1.669   5.011   1.908  0.6642 -0.2517 -0.3428
 7414SOL    HW132576   1.586   5.059   1.880  0.2177 -0.5796  0.4044
 7414SOL    HW232577   1.654   4.912   1.900  0.1307 -0.3915  2.1192
 7415SOL     OW32578   4.236   2.773   3.105 -0.8570  0.2482 -0.0143
 7415SOL    HW132579   4.293   2.850   3.135 -0.7504  0.4119 -0.6471
 7415SOL    HW232580   4.151   2.773   3.158 -1.5781  1.7765 -1.1437
 7416SOL     OW32581   3.654   9.257   1.009 -0.1925 -0.4769  0.3609
 7416SOL    HW132582   3.555   9.263   1.020 -0.1318  1.6042 -0.0445
 7416SOL    HW232583   3.682   9.309   0.928  1.1347 -1.9542 -0.1815
 7417SOL     OW32584   5.218   3.578   0.809 -0.1782 -0.0749  0.1731
 7417SOL    HW132585   5.156   3.554   0.735 -0.4016  0.8371  0.0526
 7417SOL    HW232586   5.311   3.585   0.773 -0.2989  0.4466 -0.0396
 7418SOL     OW32587   0.841   2.580   0.573 -0.0351 -0.6130 -0.1454
 7418SOL    HW132588   0.904   2.603   0.648 -1.7564 -0.7779  1.3670
 7418SOL    HW232589   0.840   2.482   0.559 -0.4376 -0.6671  0.2598
 7419SOL     OW32590   9.741   6.558   0.633  0.4902 -0.0218  0.0034
 7419SOL    HW132591   9.663   6.614   0.604 -0.4723 -1.1318  0.3710
 7419SOL    HW232592   9.819   6.617   0.654  0.5158  0.9672 -2.6644
 7420SOL     OW32593   1.289   5.069   3.081  0.3428 -0.2395 -0.0877
 7420SOL    HW132594   1.234   5.118   3.013  1.7972  0.1501 -1.0197
 7420SOL    HW232595   1.358   5.131   3.119 -1.0646 -0.1985  2.4618
 7421SOL     OW32596   2.160   5.668   2.447 -0.2404 -0.0261  0.5416
 7421SOL    HW132597   2.138   5.695   2.353 -1.1934  1.9850  1.3210
 7421SOL    HW232598   2.259   5.677   2.461  0.3921 -3.3849 -1.1776
 7422SOL     OW32599   3.224   0.533   1.587  0.1313  0.4477  0.1902
 7422SOL    HW132600   3.290   0.477   1.637 -1.9273  0.7562  3.3592
 7422SOL    HW232601   3.249   0.629   1.594  0.4359  0.4116 -0.3345
 7423SOL     OW32602   9.974   4.678   1.757 -0.4140  0.2491 -0.1238
 7423SOL    HW132603   9.973   4.702   1.659 -0.0261  0.8060  0.0074
 7423SOL    HW232604  10.068   4.663   1.787 -0.5323  0.0881  0.1696
 7424SOL     OW32605   9.156   6.873   0.021  0.4384 -1.0033  0.0053
 7424SOL    HW132606   9.060   6.842   0.019 -0.1369  0.7764 -1.9360
 7424SOL    HW232607   9.215   6.798   0.050 -1.4597 -2.3805  0.3865
 7425SOL     OW32608   3.792   5.760   3.161  0.4702 -0.1255  0.2561
 7425SOL    HW132609   3.870   5.704   3.132 -0.4557 -0.1636 -2.2660
 7425SOL    HW232610   3.800   5.851   3.121 -1.5614 -0.6157 -1.3589
 7426SOL     OW32611   8.506   2.605   1.402  0.0056 -0.3752  0.4133
 7426SOL    HW132612   8.598   2.601   1.364  0.4024  0.1221  1.2884
 7426SOL    HW232613   8.481   2.516   1.438  0.3785 -0.3708  0.6910
 7427SOL     OW32614   1.227   0.346   0.654 -0.0595  0.2041 -0.1755
 7427SOL    HW132615   1.292   0.356   0.729 -0.3537 -1.2841  0.2849
 7427SOL    HW232616   1.276   0.325   0.570  0.4349  3.6402 -0.8229
 7428SOL     OW32617   2.648   6.497   2.920  0.4623  0.0715  0.3968
 7428SOL    HW132618   2.610   6.578   2.876 -0.3544 -0.6691 -0.2728
 7428SOL    HW232619   2.591   6.472   2.999 -0.0895 -0.6735 -0.2354
 7429SOL     OW32620   2.071   4.242   0.456 -0.1269 -0.3854 -0.3676
 7429SOL    HW132621   2.132   4.273   0.528 -1.7243 -1.4039  1.4641
 7429SOL    HW232622   2.086   4.144   0.439 -0.5905 -0.4235 -0.5639
 7430SOL     OW32623   7.960   0.271   0.826 -0.4761 -0.0013  0.2731
 7430SOL    HW132624   7.861   0.259   0.821 -0.4441 -0.4353  0.7092
 7430SOL    HW232625   7.999   0.206   0.892  0.0949  0.1793  0.1185
 7431SOL     OW32626   0.862   4.934   1.518  0.0629  0.1347 -0.4849
 7431SOL    HW132627   0.864   4.961   1.422  0.1691 -2.3246 -1.2015
 7431SOL    HW232628   0.832   5.012   1.573  3.2831  2.6434 -2.0882
 7432SOL     OW32629   2.770   4.490   2.533 -0.6172 -0.4628 -0.0298
 7432SOL    HW132630   2.783   4.582   2.571 -0.3179 -0.7310  0.5205
 7432SOL    HW232631   2.679   4.456   2.559 -0.2768 -0.7858  0.7374
 7433SOL     OW32632   1.894   0.088   2.819 -0.2403 -0.4952  0.0800
 7433SOL    HW132633   1.989   0.093   2.786 -1.0373 -1.1007 -2.4078
 7433SOL    HW232634   1.869  -0.007   2.835 -0.5430 -0.3556  0.4564
 7434SOL     OW32635   9.813   2.792   2.733 -0.3318 -0.5413 -0.4185
 7434SOL    HW132636   9.830   2.841   2.647 -0.5463  1.0370  0.4321
 7434SOL    HW232637   9.721   2.811   2.765  0.3554  0.3079  1.0928
 7435SOL     OW32638   2.152   1.200   2.585 -0.3764 -0.3656 -0.3037
 7435SOL    HW132639   2.153   1.296   2.611  0.1411 -0.1793 -1.0066
 7435SOL    HW232640   2.121   1.145   2.663 -0.8191  0.3781  0.0500
 7436SOL     OW32641   8.096   9.424   1.573 -0.6581  0.3631 -0.3710
 7436SOL    HW132642   8.067   9.351   1.511  0.2870 -0.2235 -0.1229
 7436SOL    HW232643   8.109   9.508   1.520 -0.8102  0.1079 -0.8171
 7437SOL     OW32644   9.020   5.191   2.528  0.5136  0.2524 -0.5834
 7437SOL    HW132645   9.036   5.257   2.455 -1.6401 -0.5110 -1.7731
 7437SOL    HW232646   8.969   5.113   2.492 -2.0884  0.6417  2.0921
 7438SOL     OW32647   3.156   9.857   0.690  0.0569 -0.3054 -0.0122
 7438SOL    HW132648   3.158   9.953   0.717  2.0949 -0.5717  0.8814
 7438SOL    HW232649   3.079   9.841   0.629 -1.6033  1.4270  1.5567
 7439SOL     OW32650   1.229   5.262   1.091 -0.4043 -0.3226 -0.1241
 7439SOL    HW132651   1.219   5.321   1.011 -1.4701  0.7256  0.7669
 7439SOL    HW232652   1.293   5.188   1.070  1.0053  1.1767 -1.2554
 7440SOL     OW32653   1.834   4.724   1.599  0.0953  0.4897 -0.0497
 7440SOL    HW132654   1.928   4.705   1.570  0.0420  0.4473 -0.1972
 7440SOL    HW232655   1.777   4.736   1.518  0.0822  1.0424  0.0370
  10.00000  10.00000   3.44529
