chitosan Film  in water:acetic acid 2%
10223
    1CHTO  H203    1   3.854   5.314   0.240
    1CHTO   O82    2   3.915   5.385   0.238
    1CHTO  C123    3   4.013   5.370   0.342
    1CHTO  H227    4   3.962   5.343   0.436
    1CHTO   O77    5   4.094   5.257   0.297
    1CHTO  C118    6   4.194   5.216   0.390
    1CHTO  H222    7   4.148   5.195   0.488
    1CHTO  C125    8   4.257   5.082   0.336
    1CHTO   O84    9   4.161   4.976   0.332
    1CHTO  H205   10   4.096   4.994   0.267
    1CHTO  C114   11   4.299   5.328   0.405
    1CHTO  H218   12   4.347   5.344   0.308
    1CHTO  C116   13   4.231   5.462   0.448
    1CHTO  H220   14   4.200   5.453   0.555
    1CHTO   O79   15   4.328   5.567   0.444
    1CHTO  H201   16   4.359   5.580   0.356
    1CHTO  C120   17   4.104   5.497   0.360
    1CHTO  H224   18   4.143   5.529   0.261
    1CHTO   N21   19   4.029   5.612   0.416
    1CHTO  H211   20   3.955   5.578   0.488
    1CHTO  H212   21   4.096   5.684   0.461
    1CHTO   O75   22   4.395   5.283   0.503
    1CHTO  C112   23   4.544   5.236   0.447
    1CHTO  H216   24   4.549   5.250   0.338
    1CHTO   O73   25   4.560   5.098   0.484
    1CHTO  C113   26   4.685   5.039   0.446
    1CHTO  H217   27   4.699   5.051   0.336
    1CHTO  C124   28   4.670   4.889   0.474
    1CHTO   O83   29   4.782   4.811   0.433
    1CHTO  H204   30   4.786   4.808   0.339
    1CHTO  C109   31   4.801   5.108   0.524
    1CHTO  H213   32   4.780   5.092   0.631
    1CHTO  C110   33   4.798   5.260   0.490
    1CHTO  H214   34   4.825   5.272   0.384
    1CHTO   O78   35   4.899   5.328   0.567
    1CHTO  H200   36   4.985   5.301   0.539
    1CHTO  C111   37   4.658   5.322   0.516
    1CHTO  H215   38   4.639   5.320   0.625
    1CHTO   N19   39   4.646   5.464   0.474
    1CHTO  H207   40   4.666   5.473   0.368
    1CHTO  H208   41   4.716   5.525   0.529
    1CHTO   O74   42   4.930   5.047   0.492
    1CHTO  C115   43   5.042   5.059   0.612
    1CHTO  H219   44   5.012   5.133   0.687
    1CHTO   O76   45   5.055   4.922   0.694
    1CHTO  C122   46   5.106   4.810   0.619
    1CHTO  H226   47   5.023   4.768   0.562
    1CHTO  C126   48   5.151   4.698   0.719
    1CHTO   O85   49   5.044   4.641   0.795
    1CHTO  H206   50   4.988   4.591   0.738
    1CHTO  C121   51   5.226   4.848   0.523
    1CHTO  H225   52   5.305   4.771   0.533
    1CHTO   O81   53   5.184   4.846   0.386
    1CHTO  H202   54   5.258   4.856   0.329
    1CHTO  C119   55   5.287   4.986   0.564
    1CHTO  H223   56   5.309   4.979   0.670
    1CHTO  C117   57   5.180   5.101   0.546
    1CHTO  H221   58   5.156   5.125   0.443
    1CHTO   N20   59   5.232   5.229   0.604
    1CHTO  H209   60   5.325   5.257   0.556
    1CHTO  H210   61   5.159   5.308   0.590
    1CHTO   O80   62   5.433   5.010   0.502
    1CHTO  C103   63   5.567   4.959   0.584
    1CHTO  H190   64   5.593   5.031   0.661
    1CHTO  C101   65   5.560   4.815   0.650
    1CHTO  H188   66   5.518   4.745   0.577
    1CHTO   O68   67   5.466   4.820   0.775
    1CHTO  H168   68   5.379   4.843   0.748
    1CHTO   C99   69   5.705   4.761   0.692
    1CHTO  H186   70   5.743   4.824   0.776
    1CHTO   N17   71   5.705   4.619   0.743
    1CHTO  H174   72   5.776   4.558   0.689
    1CHTO  H175   73   5.606   4.577   0.739
    1CHTO   C97   74   5.806   4.782   0.576
    1CHTO  H184   75   5.777   4.715   0.494
    1CHTO   O64   76   5.806   4.920   0.534
    1CHTO  C104   77   5.682   4.962   0.476
    1CHTO  H191   78   5.653   4.898   0.393
    1CHTO  C108   79   5.699   5.103   0.418
    1CHTO   O71   80   5.794   5.104   0.310
    1CHTO  H171   81   5.880   5.087   0.343
    1CHTO   O62   82   5.942   4.757   0.618
    1CHTO   C91   83   6.041   4.717   0.521
    1CHTO  H178   84   6.018   4.768   0.427
    1CHTO   C92   85   6.031   4.563   0.494
    1CHTO  H179   86   6.011   4.513   0.590
    1CHTO   O66   87   5.913   4.539   0.414
    1CHTO  H166   88   5.836   4.560   0.462
    1CHTO   C93   89   6.156   4.499   0.422
    1CHTO  H180   90   6.148   4.523   0.315
    1CHTO   N16   91   6.156   4.350   0.429
    1CHTO  H172   92   6.156   4.318   0.532
    1CHTO  H173   93   6.069   4.311   0.378
    1CHTO   C94   94   6.291   4.557   0.476
    1CHTO  H181   95   6.310   4.528   0.579
    1CHTO   O61   96   6.286   4.701   0.474
    1CHTO   C95   97   6.188   4.755   0.564
    1CHTO  H182   98   6.206   4.715   0.664
    1CHTO  C106   99   6.206   4.910   0.575
    1CHTO   O69  100   6.186   4.975   0.449
    1CHTO  H169  101   6.198   5.067   0.459
    1CHTO   O63  102   6.414   4.508   0.380
    1CHTO   C96  103   6.559   4.542   0.429
    1CHTO  H183  104   6.558   4.644   0.466
    1CHTO   C98  105   6.664   4.532   0.313
    1CHTO  H185  106   6.627   4.587   0.225
    1CHTO   O67  107   6.784   4.600   0.352
    1CHTO  H167  108   6.844   4.604   0.280
    1CHTO  C102  109   6.700   4.381   0.272
    1CHTO  H189  110   6.792   4.387   0.213
    1CHTO   N18  111   6.602   4.312   0.185
    1CHTO  H176  112   6.591   4.366   0.092
    1CHTO  H177  113   6.506   4.307   0.234
    1CHTO  C105  114   6.732   4.298   0.400
    1CHTO  H192  115   6.735   4.192   0.374
    1CHTO   O65  116   6.635   4.313   0.506
    1CHTO  C100  117   6.597   4.445   0.549
    1CHTO  H187  118   6.507   4.432   0.611
    1CHTO  C107  119   6.705   4.507   0.642
    1CHTO   O70  120   6.736   4.421   0.753
    1CHTO  H170  121   6.798   4.463   0.808
    1CHTO   O57  122   6.877   4.344   0.439
    1CHTO   C85  123   6.988   4.255   0.417
    1CHTO  H157  124   6.962   4.193   0.328
    1CHTO   C83  125   7.001   4.156   0.537
    1CHTO  H155  126   6.910   4.097   0.542
    1CHTO   O56  127   7.011   4.229   0.661
    1CHTO  H135  128   6.932   4.277   0.676
    1CHTO   C81  129   7.121   4.061   0.509
    1CHTO  H153  130   7.104   4.012   0.413
    1CHTO   N14  131   7.130   3.949   0.606
    1CHTO  H141  132   7.153   3.986   0.704
    1CHTO  H142  133   7.206   3.880   0.576
    1CHTO   C79  134   7.255   4.144   0.498
    1CHTO  H151  135   7.333   4.075   0.467
    1CHTO   O52  136   7.243   4.243   0.390
    1CHTO   C86  137   7.125   4.330   0.397
    1CHTO  H158  138   7.146   4.397   0.484
    1CHTO   C90  139   7.119   4.422   0.273
    1CHTO   O60  140   7.232   4.509   0.266
    1CHTO  H138  141   7.228   4.573   0.334
    1CHTO   O50  142   7.296   4.209   0.619
    1CHTO   C73  143   7.426   4.203   0.681
    1CHTO  H145  144   7.503   4.180   0.606
    1CHTO   C74  145   7.429   4.091   0.790
    1CHTO  H146  146   7.401   3.997   0.741
    1CHTO   O54  147   7.565   4.074   0.835
    1CHTO  H133  148   7.618   4.039   0.766
    1CHTO   C75  149   7.329   4.129   0.907
    1CHTO  H147  150   7.227   4.134   0.865
    1CHTO   N13  151   7.322   4.028   1.016
    1CHTO  H139  152   7.290   3.933   0.976
    1CHTO  H140  153   7.251   4.060   1.091
    1CHTO   C76  154   7.365   4.275   0.962
    1CHTO  H148  155   7.463   4.271   1.009
    1CHTO   O49  156   7.367   4.372   0.852
    1CHTO   C77  157   7.462   4.339   0.749
    1CHTO  H149  158   7.561   4.330   0.794
    1CHTO   C88  159   7.475   4.455   0.649
    1CHTO   O58  160   7.347   4.497   0.592
    1CHTO  H136  161   7.321   4.437   0.525
    1CHTO   O51  162   7.249   4.327   1.067
    1CHTO   C78  163   7.256   4.482   1.098
    1CHTO  H150  164   7.325   4.535   1.029
    1CHTO   C80  165   7.302   4.507   1.243
    1CHTO  H152  166   7.233   4.454   1.312
    1CHTO   O55  167   7.433   4.449   1.258
    1CHTO  H134  168   7.496   4.493   1.204
    1CHTO   C84  169   7.302   4.662   1.277
    1CHTO  H156  170   7.381   4.708   1.217
    1CHTO   N15  171   7.337   4.691   1.420
    1CHTO  H143  172   7.436   4.655   1.442
    1CHTO  H144  173   7.267   4.641   1.485
    1CHTO   C87  174   7.168   4.728   1.237
    1CHTO  H159  175   7.090   4.701   1.308
    1CHTO   O53  176   7.127   4.685   1.095
    1CHTO   C82  177   7.116   4.544   1.077
    1CHTO  H154  178   7.044   4.502   1.147
    1CHTO   C89  179   7.060   4.521   0.935
    1CHTO   O59  180   7.021   4.385   0.914
    1CHTO  H137  181   7.097   4.329   0.912
    1CHTO   O45  182   7.188   4.895   1.236
    1CHTO   C67  183   7.080   4.981   1.195
    1CHTO  H124  184   7.110   5.082   1.222
    1CHTO   C65  185   7.053   4.977   1.040
    1CHTO  H122  186   7.120   4.901   0.999
    1CHTO   O44  187   7.092   5.104   0.987
    1CHTO  H102  188   7.089   5.102   0.893
    1CHTO   C63  189   6.907   4.928   1.006
    1CHTO  H120  190   6.895   4.827   1.045
    1CHTO   N11  191   6.877   4.909   0.860
    1CHTO  H108  192   6.879   5.004   0.810
    1CHTO  H109  193   6.949   4.844   0.816
    1CHTO   C61  194   6.806   5.020   1.084
    1CHTO  H118  195   6.706   4.976   1.072
    1CHTO   O40  196   6.833   5.027   1.227
    1CHTO   C68  197   6.948   4.953   1.279
    1CHTO  H125  198   6.923   4.845   1.278
    1CHTO   C72  199   6.967   4.992   1.428
    1CHTO   O48  200   6.995   5.131   1.448
    1CHTO  H105  201   7.079   5.153   1.412
    1CHTO   O38  202   6.808   5.155   1.032
    1CHTO   C55  203   6.715   5.252   1.084
    1CHTO  H112  204   6.680   5.221   1.184
    1CHTO   C56  205   6.595   5.272   0.982
    1CHTO  H113  206   6.639   5.281   0.881
    1CHTO   O42  207   6.514   5.153   0.980
    1CHTO  H100  208   6.564   5.080   0.947
    1CHTO   C57  209   6.509   5.400   1.016
    1CHTO  H114  210   6.458   5.381   1.110
    1CHTO   N10  211   6.405   5.431   0.914
    1CHTO  H106  212   6.384   5.537   0.912
    1CHTO  H107  213   6.438   5.400   0.816
    1CHTO   C58  214   6.606   5.520   1.036
    1CHTO  H115  215   6.662   5.538   0.941
    1CHTO   O37  216   6.700   5.490   1.141
    1CHTO   C59  217   6.792   5.386   1.106
    1CHTO  H116  218   6.847   5.414   1.016
    1CHTO   C70  219   6.893   5.370   1.220
    1CHTO   O46  220   6.975   5.486   1.240
    1CHTO  H103  221   7.035   5.494   1.168
    1CHTO   O39  222   6.529   5.657   1.082
    1CHTO   C60  223   6.599   5.775   1.039
    1CHTO  H117  224   6.706   5.759   1.049
    1CHTO   C62  225   6.569   5.809   0.889
    1CHTO  H119  226   6.604   5.721   0.830
    1CHTO   O43  227   6.427   5.822   0.869
    1CHTO  H101  228   6.394   5.894   0.919
    1CHTO   C66  229   6.654   5.939   0.845
    1CHTO  H123  230   6.759   5.919   0.863
    1CHTO   N12  231   6.642   5.968   0.700
    1CHTO  H110  232   6.680   5.884   0.643
    1CHTO  H111  233   6.539   5.988   0.674
    1CHTO   C69  234   6.613   6.059   0.933
    1CHTO  H126  235   6.505   6.082   0.918
    1CHTO   O41  236   6.638   6.023   1.084
    1CHTO   C64  237   6.563   5.896   1.130
    1CHTO  H121  238   6.453   5.913   1.125
    1CHTO   C71  239   6.600   5.866   1.278
    1CHTO   O47  240   6.559   5.974   1.363
    1CHTO  H104  241   6.465   5.976   1.369
    1CHTO   O34  242   6.697   6.193   0.897
    1CHTO   C49  243   6.817   6.279   0.951
    1CHTO   H91  244   6.822   6.365   0.885
    1CHTO   C47  245   6.950   6.200   0.940
    1CHTO   H89  246   6.976   6.202   0.831
    1CHTO   O33  247   6.932   6.064   0.981
    1CHTO   H70  248   6.874   6.019   0.922
    1CHTO   C45  249   7.067   6.264   1.032
    1CHTO   H87  250   7.069   6.207   1.126
    1CHTO    N8  251   7.199   6.247   0.966
    1CHTO   H75  252   7.252   6.341   0.962
    1CHTO   H76  253   7.258   6.174   1.019
    1CHTO   C43  254   7.031   6.413   1.079
    1CHTO   H85  255   7.113   6.446   1.143
    1CHTO   O29  256   6.905   6.413   1.149
    1CHTO   C50  257   6.800   6.329   1.097
    1CHTO   H92  258   6.790   6.241   1.162
    1CHTO   C54  259   6.665   6.403   1.113
    1CHTO   O36  260   6.634   6.423   1.252
    1CHTO   H72  261   6.618   6.341   1.293
    1CHTO   O27  262   7.026   6.505   0.969
    1CHTO   C37  263   7.046   6.644   0.940
    1CHTO   H79  264   7.010   6.706   1.024
    1CHTO   C38  265   7.198   6.676   0.922
    1CHTO   H80  266   7.242   6.599   0.857
    1CHTO   O31  267   7.260   6.667   1.052
    1CHTO   H68  268   7.229   6.734   1.109
    1CHTO   C39  269   7.222   6.818   0.855
    1CHTO   H81  270   7.187   6.894   0.925
    1CHTO    N7  271   7.367   6.846   0.827
    1CHTO   H73  272   7.377   6.944   0.783
    1CHTO   H74  273   7.406   6.772   0.759
    1CHTO   C40  274   7.133   6.826   0.726
    1CHTO   H82  275   7.164   6.746   0.658
    1CHTO   O26  276   6.995   6.813   0.765
    1CHTO   C41  277   6.962   6.680   0.814
    1CHTO   H83  278   6.981   6.606   0.735
    1CHTO   C52  279   6.811   6.677   0.847
    1CHTO   O35  280   6.726   6.705   0.731
    1CHTO   H71  281   6.734   6.796   0.708
    1CHTO   O28  282   7.139   6.952   0.654
    1CHTO   C42  283   7.121   6.948   0.508
    1CHTO   H84  284   7.081   6.848   0.486
    1CHTO   C44  285   7.251   6.961   0.423
    1CHTO   H86  286   7.290   7.062   0.434
    1CHTO   O32  287   7.349   6.869   0.477
    1CHTO   H69  288   7.320   6.780   0.467
    1CHTO   C48  289   7.222   6.933   0.270
    1CHTO   H90  290   7.198   6.827   0.261
    1CHTO    N9  291   7.344   6.953   0.183
    1CHTO   H77  292   7.380   7.054   0.192
    1CHTO   H78  293   7.421   6.883   0.211
    1CHTO   C51  294   7.099   7.016   0.216
    1CHTO   H93  295   7.131   7.118   0.195
    1CHTO   O30  296   6.987   7.013   0.306
    1CHTO   C46  297   7.019   7.051   0.453
    1CHTO   H88  298   7.063   7.150   0.455
    1CHTO   C53  299   6.885   7.051   0.533
    1CHTO   O72  300   6.819   6.925   0.527
    1CHTO  H199  301   6.740   6.928   0.578
    1CHTO   O22  302   7.051   6.953   0.096
    1CHTO   C31  303   6.957   7.015   0.001
    1CHTO   H59  304   6.910   7.101   0.054
    1CHTO   C29  305   7.026   7.071   2.759
    1CHTO   H57  306   7.087   6.989   2.717
    1CHTO   O21  307   7.118   7.174   2.801
    1CHTO   H37  308   7.173   7.199   2.729
    1CHTO   C27  309   6.925   7.122   2.647
    1CHTO   H55  310   6.876   7.213   2.684
    1CHTO    N5  311   6.993   7.152   2.519
    1CHTO   H43  312   7.036   7.062   2.477
    1CHTO   H44  313   6.923   7.197   2.450
    1CHTO   C25  314   6.812   7.015   2.627
    1CHTO   H53  315   6.856   6.923   2.585
    1CHTO   O17  316   6.751   6.984   2.755
    1CHTO   C32  317   6.840   6.919   2.846
    1CHTO   H60  318   6.881   6.830   2.799
    1CHTO   C36  319   6.753   6.875   0.081
    1CHTO   O25  320   6.824   6.800   0.179
    1CHTO   H40  321   6.851   6.718   0.143
    1CHTO   O15  322   6.697   7.067   2.528
    1CHTO   C19  323   6.606   6.990   2.444
    1CHTO   H47  324   6.528   7.063   2.416
    1CHTO   C20  325   6.670   6.933   2.314
    1CHTO   H48  326   6.757   6.868   2.336
    1CHTO   O19  327   6.720   7.045   2.238
    1CHTO   H35  328   6.650   7.102   2.213
    1CHTO   C21  329   6.567   6.848   2.228
    1CHTO   H49  330   6.490   6.916   2.190
    1CHTO    N4  331   6.628   6.782   2.109
    1CHTO   H41  332   6.706   6.715   2.141
    1CHTO   H42  333   6.670   6.857   2.043
    1CHTO   C22  334   6.497   6.746   2.321
    1CHTO   H50  335   6.572   6.674   2.355
    1CHTO   O14  336   6.438   6.814   2.432
    1CHTO   C23  337   6.532   6.876   2.520
    1CHTO   H51  338   6.602   6.798   2.555
    1CHTO   C34  339   6.455   6.927   2.642
    1CHTO   O23  340   6.397   6.821   2.719
    1CHTO   H38  341   6.326   6.783   2.672
    1CHTO   O16  342   6.384   6.680   2.262
    1CHTO   C24  343   6.379   6.515   2.283
    1CHTO   H52  344   6.477   6.469   2.269
    1CHTO   C26  345   6.281   6.459   2.178
    1CHTO   H54  346   6.185   6.516   2.185
    1CHTO   O20  347   6.338   6.485   2.048
    1CHTO   H36  348   6.277   6.461   1.981
    1CHTO   C30  349   6.249   6.307   2.199
    1CHTO   H58  350   6.339   6.248   2.177
    1CHTO    N6  351   6.144   6.260   2.104
    1CHTO   H45  352   6.055   6.229   2.157
    1CHTO   H46  353   6.181   6.176   2.047
    1CHTO   C33  354   6.213   6.279   2.348
    1CHTO   H61  355   6.118   6.329   2.374
    1CHTO   O18  356   6.317   6.333   2.431
    1CHTO   C28  357   6.331   6.475   2.426
    1CHTO   H56  358   6.236   6.525   2.447
    1CHTO   C35  359   6.430   6.511   2.540
    1CHTO   O24  360   6.562   6.458   2.522
    1CHTO   H39  361   6.561   6.365   2.533
    1CHTO    O9  362   6.192   6.139   2.374
    1CHTO   C13  363   6.158   6.101   2.530
    1CHTO   H26  364   6.095   6.182   2.571
    1CHTO   C11  365   6.292   6.085   2.611
    1CHTO   H24  366   6.337   6.185   2.622
    1CHTO    O8  367   6.386   6.003   2.539
    1CHTO    H3  368   6.467   5.999   2.584
    1CHTO    C9  369   6.257   6.032   2.752
    1CHTO   H22  370   6.180   6.100   2.791
    1CHTO    N2  371   6.370   6.045   2.848
    1CHTO   H10  372   6.346   6.116   0.042
    1CHTO   H11  373   6.394   5.949   0.008
    1CHTO    C7  374   6.195   5.888   2.739
    1CHTO   H20  375   6.167   5.861   2.843
    1CHTO    O4  376   6.075   5.893   2.660
    1CHTO   C14  377   6.067   5.970   2.537
    1CHTO   H27  378   5.962   6.004   2.532
    1CHTO   C18  379   6.090   5.875   2.416
    1CHTO   O13  380   5.981   5.784   2.402
    1CHTO    H7  381   5.978   5.726   2.476
    1CHTO    O2  382   6.302   5.768   2.673
    1CHTO    C1  383   6.323   5.655   2.760
    1CHTO   H14  384   6.252   5.660   2.845
    1CHTO    C2  385   6.471   5.644   2.817
    1CHTO   H15  386   6.537   5.640   2.729
    1CHTO    O6  387   6.501   5.761   0.010
    1CHTO    H1  388   6.591   5.759   0.037
    1CHTO    C3  389   6.489   5.512   0.023
    1CHTO   H16  390   6.438   5.531   0.119
    1CHTO    N1  391   6.633   5.486   0.056
    1CHTO    H8  392   6.642   5.398   0.118
    1CHTO    H9  393   6.675   5.571   0.109
    1CHTO    C4  394   6.418   5.385   2.846
    1CHTO   H17  395   6.483   5.340   2.770
    1CHTO    O1  396   6.290   5.417   2.788
    1CHTO    C5  397   6.294   5.520   2.688
    1CHTO   H18  398   6.374   5.500   2.617
    1CHTO   C16  399   6.159   5.514   2.614
    1CHTO   O11  400   6.172   5.568   2.482
    1CHTO    H5  401   6.089   5.563   2.438
    1CHTO    O3  402   6.390   5.290   0.067
    1CHTO    C6  403   6.346   5.156   0.029
    1CHTO   H19  404   6.308   5.151   2.811
    1CHTO    C8  405   6.466   5.056   0.043
    1CHTO   H21  406   6.515   5.075   0.138
    1CHTO    O7  407   6.556   5.088   2.819
    1CHTO    H2  408   6.635   5.036   2.828
    1CHTO   C12  409   6.418   4.905   0.037
    1CHTO   H25  410   6.382   4.887   2.817
    1CHTO    N3  411   6.533   4.811   0.061
    1CHTO   H12  412   6.498   4.709   0.058
    1CHTO   H13  413   6.609   4.826   2.870
    1CHTO   C15  414   6.298   4.884   0.135
    1CHTO   H28  415   6.328   4.896   0.239
    1CHTO   O10  416   6.228   4.747   0.119
    1CHTO    H4  417   6.285   4.679   0.147
    1CHTO    O5  418   6.193   4.976   0.103
    1CHTO   C10  419   6.227   5.114   0.122
    1CHTO   H23  420   6.255   5.129   0.227
    1CHTO   C17  421   6.098   5.193   0.096
    1CHTO   O12  422   6.113   5.332   0.125
    1CHTO    H6  423   6.029   5.368   0.148
    2CHTO  H203  424   3.548   3.009   1.177
    2CHTO   O82  425   3.538   3.073   1.245
    2CHTO  C123  426   3.611   3.192   1.213
    2CHTO  H227  427   3.712   3.164   1.178
    2CHTO   O77  428   3.535   3.252   1.103
    2CHTO  C118  429   3.599   3.366   1.044
    2CHTO  H222  430   3.698   3.338   1.005
    2CHTO  C125  431   3.509   3.413   0.923
    2CHTO   O84  432   3.499   3.311   0.823
    2CHTO  H205  433   3.446   3.342   0.752
    2CHTO  C114  434   3.612   3.479   1.148
    2CHTO  H218  435   3.513   3.514   1.175
    2CHTO  C116  436   3.682   3.430   1.279
    2CHTO  H220  437   3.791   3.416   1.258
    2CHTO   O79  438   3.673   3.536   1.376
    2CHTO  H201  439   3.719   3.513   1.454
    2CHTO  C120  440   3.619   3.295   1.332
    2CHTO  H224  441   3.517   3.320   1.367
    2CHTO   N21  442   3.696   3.242   1.448
    2CHTO  H211  443   3.656   3.284   1.540
    2CHTO  H212  444   3.691   3.135   1.451
    2CHTO   O75  445   3.685   3.582   1.079
    2CHTO  C112  446   3.635   3.732   1.113
    2CHTO  H216  447   3.591   3.734   1.215
    2CHTO   O73  448   3.538   3.768   1.013
    2CHTO  C113  449   3.487   3.902   1.022
    2CHTO  H217  450   3.438   3.915   1.122
    2CHTO  C124  451   3.377   3.920   0.917
    2CHTO   O83  452   3.422   3.898   0.782
    2CHTO  H204  453   3.438   3.807   0.769
    2CHTO  C109  454   3.602   4.005   1.007
    2CHTO  H213  455   3.645   3.989   0.907
    2CHTO  C110  456   3.709   3.978   1.117
    2CHTO  H214  457   3.665   3.997   1.215
    2CHTO   O78  458   3.818   4.071   1.099
    2CHTO  H200  459   3.790   4.158   1.118
    2CHTO  C111  460   3.758   3.831   1.108
    2CHTO  H215  461   3.807   3.816   1.011
    2CHTO   N19  462   3.858   3.794   1.213
    2CHTO  H207  463   3.881   3.878   1.277
    2CHTO  H208  464   3.949   3.758   1.167
    2CHTO   O74  465   3.549   4.141   1.014
    2CHTO  C115  466   3.626   4.241   0.916
    2CHTO  H219  467   3.728   4.208   0.896
    2CHTO   O76  468   3.557   4.248   0.776
    2CHTO  C122  469   3.421   4.294   0.779
    2CHTO  H226  470   3.359   4.209   0.810
    2CHTO  C126  471   3.377   4.327   0.632
    2CHTO   O85  472   3.456   4.430   0.572
    2CHTO  H206  473   3.427   4.445   0.484
    2CHTO  C121  474   3.397   4.417   0.876
    2CHTO  H225  475   3.334   4.492   0.823
    2CHTO   O81  476   3.323   4.376   0.991
    2CHTO  H202  477   3.371   4.312   1.040
    2CHTO  C119  478   3.532   4.485   0.915
    2CHTO  H223  479   3.578   4.514   0.821
    2CHTO  C117  480   3.629   4.383   0.987
    2CHTO  H221  481   3.604   4.363   1.091
    2CHTO   N20  482   3.769   4.440   0.991
    2CHTO  H209  483   3.833   4.375   1.050
    2CHTO  H210  484   3.808   4.450   0.891
    2CHTO   O80  485   3.514   4.628   0.990
    2CHTO  C103  486   3.513   4.768   0.903
    2CHTO  H190  487   3.546   4.849   0.968
    2CHTO  C101  488   3.601   4.773   0.773
    2CHTO  H188  489   3.571   4.693   0.705
    2CHTO   O68  490   3.750   4.752   0.813
    2CHTO  H168  491   3.803   4.746   0.736
    2CHTO   C99  492   3.579   4.913   0.697
    2CHTO  H186  493   3.612   4.995   0.763
    2CHTO   N17  494   3.656   4.926   0.568
    2CHTO  H174  495   3.705   4.833   0.543
    2CHTO  H175  496   3.728   5.007   0.577
    2CHTO   C97  497   3.427   4.936   0.674
    2CHTO  H184  498   3.390   4.862   0.601
    2CHTO   O64  499   3.356   4.927   0.799
    2CHTO  C104  500   3.363   4.799   0.864
    2CHTO  H191  501   3.325   4.719   0.801
    2CHTO  C108  502   3.269   4.806   0.986
    2CHTO   O71  503   3.243   4.677   1.044
    2CHTO  H171  504   3.320   4.645   1.086
    2CHTO   O62  505   3.402   5.070   0.624
    2CHTO   C91  506   3.268   5.112   0.591
    2CHTO  H178  507   3.197   5.054   0.650
    2CHTO   C92  508   3.236   5.083   0.440
    2CHTO  H179  509   3.319   5.119   0.379
    2CHTO   O66  510   3.233   4.940   0.423
    2CHTO  H166  511   3.222   4.919   0.332
    2CHTO   C93  512   3.099   5.149   0.394
    2CHTO  H180  513   3.018   5.101   0.451
    2CHTO   N16  514   3.067   5.129   0.250
    2CHTO  H172  515   2.973   5.077   0.240
    2CHTO  H173  516   3.146   5.076   0.200
    2CHTO   C94  517   3.104   5.301   0.431
    2CHTO  H181  518   3.190   5.351   0.386
    2CHTO   O61  519   3.118   5.313   0.574
    2CHTO   C95  520   3.245   5.265   0.622
    2CHTO  H182  521   3.324   5.322   0.574
    2CHTO  C106  522   3.255   5.295   0.776
    2CHTO   O69  523   3.153   5.228   0.851
    2CHTO  H169  524   3.069   5.265   0.830
    2CHTO   O63  525   2.969   5.382   0.392
    2CHTO   C96  526   3.001   5.516   0.311
    2CHTO  H183  527   3.078   5.493   0.237
    2CHTO   C98  528   3.051   5.637   0.395
    2CHTO  H185  529   2.979   5.659   0.476
    2CHTO   O67  530   3.173   5.600   0.461
    2CHTO  H167  531   3.157   5.533   0.524
    2CHTO  C102  532   3.073   5.768   0.303
    2CHTO  H189  533   3.154   5.742   0.233
    2CHTO   N18  534   3.118   5.890   0.375
    2CHTO  H176  535   3.132   5.971   0.305
    2CHTO  H177  536   3.212   5.870   0.426
    2CHTO  C105  537   2.943   5.793   0.221
    2CHTO  H192  538   2.863   5.824   0.288
    2CHTO   O65  539   2.901   5.675   0.150
    2CHTO  C100  540   2.873   5.560   0.231
    2CHTO  H187  541   2.793   5.586   0.303
    2CHTO  C107  542   2.820   5.447   0.140
    2CHTO   O70  543   2.698   5.485   0.077
    2CHTO  H170  544   2.667   5.414   0.024
    2CHTO   O57  545   2.976   5.911   0.111
    2CHTO   C85  546   2.871   5.996   0.060
    2CHTO  H157  547   2.828   6.049   0.148
    2CHTO   C83  548   2.753   5.910   0.001
    2CHTO  H155  549   2.709   5.853   0.082
    2CHTO   O56  550   2.806   5.815   2.791
    2CHTO  H135  551   2.861   5.753   2.835
    2CHTO   C81  552   2.645   6.005   2.825
    2CHTO  H153  553   2.612   6.072   0.020
    2CHTO   N14  554   2.521   5.933   2.784
    2CHTO  H141  555   2.481   5.879   2.867
    2CHTO  H142  556   2.543   5.865   2.705
    2CHTO   C79  557   2.707   6.092   2.710
    2CHTO  H151  558   2.630   6.163   2.677
    2CHTO   O52  559   2.818   6.173   2.763
    2CHTO   C86  560   2.921   6.096   2.833
    2CHTO  H158  561   2.974   6.041   2.753
    2CHTO   C90  562   3.025   6.194   0.010
    2CHTO   O60  563   3.097   6.264   2.791
    2CHTO  H138  564   3.040   6.326   2.750
    2CHTO   O50  565   2.750   6.017   2.595
    2CHTO   C73  566   2.778   6.001   2.455
    2CHTO  H145  567   2.756   6.094   2.400
    2CHTO   C74  568   2.690   5.885   2.396
    2CHTO  H146  569   2.585   5.913   2.412
    2CHTO   O54  570   2.710   5.883   2.253
    2CHTO  H133  571   2.656   5.817   2.214
    2CHTO   C75  572   2.728   5.750   2.468
    2CHTO  H147  573   2.699   5.759   2.574
    2CHTO   N13  574   2.651   5.632   2.420
    2CHTO  H139  575   2.597   5.586   2.501
    2CHTO  H140  576   2.717   5.559   2.375
    2CHTO   C76  577   2.887   5.726   2.464
    2CHTO  H148  578   2.915   5.700   2.362
    2CHTO   O49  579   2.962   5.845   2.507
    2CHTO   C77  580   2.928   5.965   2.434
    2CHTO  H149  581   2.946   5.948   2.327
    2CHTO   C88  582   3.021   6.080   2.474
    2CHTO   O58  583   3.163   6.050   2.441
    2CHTO  H136  584   3.174   6.049   2.348
    2CHTO   O51  585   2.925   5.613   2.570
    2CHTO   C78  586   3.071   5.558   2.554
    2CHTO  H150  587   3.134   5.628   2.495
    2CHTO   C80  588   3.069   5.421   2.482
    2CHTO  H152  589   2.997   5.355   2.535
    2CHTO   O55  590   3.020   5.445   2.349
    2CHTO  H134  591   3.007   5.363   2.305
    2CHTO   C84  592   3.212   5.353   2.482
    2CHTO  H156  593   3.279   5.415   2.422
    2CHTO   N15  594   3.211   5.217   2.419
    2CHTO  H143  595   3.146   5.151   2.474
    2CHTO  H144  596   3.310   5.175   2.419
    2CHTO   C87  597   3.267   5.349   2.627
    2CHTO  H159  598   3.203   5.285   2.688
    2CHTO   O53  599   3.267   5.494   2.683
    2CHTO   C82  600   3.134   5.546   2.694
    2CHTO  H154  601   3.074   5.479   2.757
    2CHTO   C89  602   3.138   5.683   2.767
    2CHTO   O59  603   3.214   5.780   2.694
    2CHTO  H137  604   3.305   5.757   2.694
    2CHTO   O45  605   3.423   5.293   2.634
    2CHTO   C67  606   3.471   5.283   2.769
    2CHTO  H124  607   3.428   5.364   2.827
    2CHTO   C65  608   3.430   5.147   2.836
    2CHTO  H122  609   3.427   5.073   2.756
    2CHTO   O44  610   3.297   5.166   0.004
    2CHTO  H102  611   3.300   5.220   0.080
    2CHTO   C63  612   3.540   5.092   0.052
    2CHTO  H120  613   3.619   5.044   2.878
    2CHTO   N11  614   3.497   4.979   0.141
    2CHTO  H108  615   3.581   4.940   0.194
    2CHTO  H109  616   3.423   5.014   0.211
    2CHTO   C61  617   3.608   5.213   0.127
    2CHTO  H118  618   3.689   5.170   0.188
    2CHTO   O40  619   3.671   5.306   0.034
    2CHTO   C68  620   3.627   5.305   2.778
    2CHTO  H125  621   3.680   5.223   2.725
    2CHTO   C72  622   3.671   5.437   2.711
    2CHTO   O48  623   3.615   5.554   2.773
    2CHTO  H105  624   3.522   5.555   2.760
    2CHTO   O38  625   3.514   5.283   0.211
    2CHTO   C55  626   3.564   5.388   0.295
    2CHTO  H112  627   3.648   5.439   0.246
    2CHTO   C56  628   3.606   5.331   0.438
    2CHTO  H113  629   3.522   5.270   0.474
    2CHTO   O42  630   3.717   5.240   0.425
    2CHTO  H100  631   3.792   5.284   0.390
    2CHTO   C57  632   3.638   5.447   0.541
    2CHTO  H114  633   3.731   5.495   0.508
    2CHTO   N10  634   3.659   5.399   0.680
    2CHTO  H106  635   3.726   5.465   0.733
    2CHTO  H107  636   3.566   5.392   0.734
    2CHTO   C58  637   3.524   5.552   0.536
    2CHTO  H115  638   3.429   5.504   0.570
    2CHTO   O37  639   3.508   5.598   0.401
    2CHTO   C59  640   3.455   5.497   0.315
    2CHTO  H116  641   3.366   5.453   0.361
    2CHTO   C70  642   3.413   5.564   0.184
    2CHTO   O46  643   3.314   5.489   0.114
    2CHTO  H103  644   3.232   5.494   0.159
    2CHTO   O39  645   3.552   5.683   0.627
    2CHTO   C60  646   3.431   5.761   0.639
    2CHTO  H117  647   3.366   5.742   0.554
    2CHTO   C62  648   3.350   5.724   0.766
    2CHTO  H119  649   3.332   5.614   0.760
    2CHTO   O43  650   3.428   5.750   0.884
    2CHTO  H101  651   3.382   5.722   0.961
    2CHTO   C66  652   3.209   5.801   0.763
    2CHTO  H123  653   3.158   5.774   0.670
    2CHTO   N12  654   3.118   5.760   0.873
    2CHTO  H110  655   3.164   5.686   0.937
    2CHTO  H111  656   3.024   5.724   0.833
    2CHTO   C69  657   3.231   5.954   0.759
    2CHTO  H126  658   3.273   5.990   0.855
    2CHTO   O41  659   3.333   5.993   0.639
    2CHTO   C64  660   3.463   5.913   0.637
    2CHTO  H121  661   3.523   5.939   0.726
    2CHTO   C71  662   3.546   5.951   0.512
    2CHTO   O47  663   3.476   5.925   0.390
    2CHTO  H104  664   3.529   5.951   0.317
    2CHTO   O34  665   3.096   6.030   0.733
    2CHTO   C49  666   2.963   6.094   0.776
    2CHTO   H91  667   2.923   6.034   0.857
    2CHTO   C47  668   2.867   6.093   0.655
    2CHTO   H89  669   2.769   6.129   0.691
    2CHTO   O33  670   2.852   5.956   0.611
    2CHTO   H70  671   2.787   5.951   0.544
    2CHTO   C45  672   2.924   6.190   0.540
    2CHTO   H87  673   3.024   6.154   0.511
    2CHTO    N8  674   2.838   6.190   0.419
    2CHTO   H75  675   2.827   6.090   0.381
    2CHTO   H76  676   2.741   6.231   0.442
    2CHTO   C43  677   2.949   6.339   0.598
    2CHTO   H85  678   3.004   6.392   0.521
    2CHTO   O29  679   3.023   6.333   0.722
    2CHTO   C50  680   2.983   6.240   0.825
    2CHTO   H92  681   3.062   6.239   0.901
    2CHTO   C54  682   2.859   6.290   0.904
    2CHTO   O36  683   2.878   6.423   0.952
    2CHTO   H72  684   2.800   6.452   0.997
    2CHTO   O27  685   2.828   6.414   0.620
    2CHTO   C37  686   2.775   6.545   0.594
    2CHTO   H79  687   2.782   6.568   0.486
    2CHTO   C38  688   2.623   6.550   0.632
    2CHTO   H80  689   2.612   6.513   0.735
    2CHTO   O31  690   2.554   6.460   0.543
    2CHTO   H68  691   2.464   6.451   0.569
    2CHTO   C39  692   2.563   6.697   0.623
    2CHTO   H81  693   2.561   6.725   0.517
    2CHTO    N7  694   2.422   6.707   0.673
    2CHTO   H73  695   2.418   6.679   0.778
    2CHTO   H74  696   2.385   6.807   0.659
    2CHTO   C40  697   2.658   6.799   0.696
    2CHTO   H82  698   2.654   6.783   0.804
    2CHTO   O26  699   2.790   6.784   0.645
    2CHTO   C41  700   2.850   6.655   0.674
    2CHTO   H83  701   2.843   6.634   0.782
    2CHTO   C52  702   3.000   6.668   0.638
    2CHTO   O35  703   3.068   6.770   0.723
    2CHTO   H71  704   3.035   6.856   0.701
    2CHTO   O28  705   2.626   6.938   0.669
    2CHTO   C42  706   2.679   7.046   0.753
    2CHTO   H84  707   2.653   7.136   0.697
    2CHTO   C44  708   2.834   7.050   0.772
    2CHTO   H86  709   2.867   6.954   0.812
    2CHTO   O32  710   2.890   7.067   0.640
    2CHTO   H69  711   2.984   7.060   0.644
    2CHTO   C48  712   2.883   7.162   0.873
    2CHTO   H90  713   2.861   7.259   0.829
    2CHTO    N9  714   3.032   7.158   0.894
    2CHTO   H77  715   3.061   7.062   0.935
    2CHTO   H78  716   3.061   7.238   0.961
    2CHTO   C51  717   2.801   7.148   1.007
    2CHTO   H93  718   2.820   7.048   1.048
    2CHTO   O30  719   2.663   7.167   0.976
    2CHTO   C46  720   2.605   7.055   0.890
    2CHTO   H88  721   2.616   6.961   0.944
    2CHTO   C53  722   2.454   7.084   0.869
    2CHTO   O72  723   2.384   7.083   0.994
    2CHTO  H199  724   2.293   7.102   0.978
    2CHTO   O22  725   2.833   7.249   1.104
    2CHTO   C31  726   2.809   7.231   1.249
    2CHTO   H59  727   2.834   7.328   1.296
    2CHTO   C29  728   2.663   7.199   1.289
    2CHTO   H57  729   2.636   7.101   1.245
    2CHTO   O21  730   2.578   7.297   1.229
    2CHTO   H37  731   2.488   7.274   1.240
    2CHTO   C27  732   2.645   7.192   1.446
    2CHTO   H55  733   2.660   7.294   1.487
    2CHTO    N5  734   2.510   7.145   1.487
    2CHTO   H43  735   2.434   7.209   1.444
    2CHTO   H44  736   2.495   7.043   1.454
    2CHTO   C25  737   2.757   7.103   1.512
    2CHTO   H53  738   2.737   6.997   1.492
    2CHTO   O17  739   2.890   7.134   1.460
    2CHTO   C32  740   2.902   7.125   1.317
    2CHTO   H60  741   2.873   7.025   1.284
    2CHTO   C36  742   3.052   7.144   1.280
    2CHTO   O25  743   3.099   7.274   1.316
    2CHTO   H40  744   3.191   7.281   1.294
    2CHTO   O15  745   2.761   7.127   1.667
    2CHTO   C19  746   2.794   7.094   1.805
    2CHTO   H47  747   2.762   7.183   1.861
    2CHTO   C20  748   2.716   6.970   1.859
    2CHTO   H48  749   2.731   6.881   1.795
    2CHTO   O19  750   2.576   7.004   1.852
    2CHTO   H35  751   2.523   6.930   1.876
    2CHTO   C21  752   2.757   6.933   2.007
    2CHTO   H49  753   2.721   7.011   2.074
    2CHTO    N4  754   2.697   6.805   2.053
    2CHTO   H41  755   2.589   6.813   2.052
    2CHTO   H42  756   2.726   6.724   1.987
    2CHTO   C22  757   2.912   6.931   2.020
    2CHTO   H50  758   2.949   6.848   1.961
    2CHTO   O14  759   2.970   7.053   1.970
    2CHTO   C23  760   2.946   7.077   1.830
    2CHTO   H51  761   2.988   6.992   1.774
    2CHTO   C34  762   3.024   7.202   1.789
    2CHTO   O23  763   3.166   7.183   1.802
    2CHTO   H38  764   3.189   7.179   1.893
    2CHTO   O16  765   2.957   6.913   2.157
    2CHTO   C24  766   2.979   7.045   2.254
    2CHTO   H52  767   2.941   7.136   2.209
    2CHTO   C26  768   3.130   7.059   2.282
    2CHTO   H54  769   3.170   6.960   2.313
    2CHTO   O20  770   3.196   7.094   2.158
    2CHTO   H36  771   3.169   7.179   2.129
    2CHTO   C30  772   3.161   7.162   2.396
    2CHTO   H58  773   3.138   7.264   2.361
    2CHTO    N6  774   3.305   7.161   2.433
    2CHTO   H45  775   3.334   7.063   2.469
    2CHTO   H46  776   3.324   7.234   2.510
    2CHTO   C33  777   3.069   7.135   2.519
    2CHTO   H61  778   3.092   7.036   2.561
    2CHTO   O18  779   2.932   7.134   2.474
    2CHTO   C28  780   2.901   7.025   2.387
    2CHTO   H56  781   2.932   6.930   2.432
    2CHTO   C35  782   2.749   7.021   2.365
    2CHTO   O24  783   2.676   6.995   2.485
    2CHTO   H39  784   2.690   6.906   2.512
    2CHTO    O9  785   3.088   7.229   2.626
    2CHTO   C13  786   3.056   7.165   2.773
    2CHTO   H26  787   3.107   7.068   2.778
    2CHTO   C11  788   2.899   7.149   2.794
    2CHTO   H24  789   2.866   7.059   2.739
    2CHTO    O8  790   2.829   7.262   2.739
    2CHTO    H3  791   2.737   7.249   2.745
    2CHTO    C9  792   2.871   7.130   0.062
    2CHTO   H22  793   2.937   7.047   0.093
    2CHTO    N2  794   2.735   7.081   0.092
    2CHTO   H10  795   2.662   7.156   0.065
    2CHTO   H11  796   2.716   6.989   0.039
    2CHTO    C7  797   2.916   7.260   0.141
    2CHTO   H20  798   2.953   7.221   0.238
    2CHTO    O4  799   3.022   7.331   0.073
    2CHTO   C14  800   3.121   7.251   0.006
    2CHTO   H27  801   3.166   7.183   0.081
    2CHTO   C18  802   3.233   7.347   2.843
    2CHTO   O13  803   3.343   7.276   2.787
    2CHTO    H7  804   3.410   7.336   2.760
    2CHTO    O2  805   2.791   7.370   0.170
    2CHTO    C1  806   2.809   7.465   0.278
    2CHTO   H14  807   2.737   7.549   0.260
    2CHTO    C2  808   2.955   7.527   0.292
    2CHTO   H15  809   3.025   7.443   0.300
    2CHTO    O6  810   2.984   7.603   0.173
    2CHTO    H1  811   2.994   7.546   0.100
    2CHTO    C3  812   2.968   7.619   0.423
    2CHTO   H16  813   2.905   7.709   0.410
    2CHTO    N1  814   3.109   7.667   0.445
    2CHTO    H8  815   3.175   7.582   0.457
    2CHTO    H9  816   3.141   7.726   0.361
    2CHTO    C4  817   2.910   7.543   0.547
    2CHTO   H17  818   2.976   7.460   0.572
    2CHTO    O1  819   2.778   7.496   0.521
    2CHTO    C5  820   2.763   7.402   0.413
    2CHTO   H18  821   2.823   7.313   0.433
    2CHTO   C16  822   2.613   7.363   0.416
    2CHTO   O11  823   2.582   7.255   0.328
    2CHTO    H5  824   2.489   7.241   0.327
    2CHTO    O3  825   2.895   7.632   0.660
    2CHTO    C6  826   2.909   7.570   0.792
    2CHTO   H19  827   2.904   7.461   0.788
    2CHTO    C8  828   3.047   7.609   0.854
    2CHTO   H21  829   3.058   7.718   0.847
    2CHTO    O7  830   3.149   7.545   0.775
    2CHTO    H2  831   3.152   7.583   0.689
    2CHTO   C12  832   3.057   7.567   1.006
    2CHTO   H25  833   3.060   7.456   1.008
    2CHTO    N3  834   3.186   7.616   1.068
    2CHTO   H12  835   3.240   7.533   1.111
    2CHTO   H13  836   3.167   7.692   1.142
    2CHTO   C15  837   2.928   7.615   1.083
    2CHTO   H28  838   2.923   7.724   1.089
    2CHTO   O10  839   2.917   7.555   1.224
    2CHTO    H4  840   2.843   7.591   1.269
    2CHTO    O5  841   2.811   7.563   1.018
    2CHTO   C10  842   2.792   7.616   0.885
    2CHTO   H23  843   2.788   7.725   0.890
    2CHTO   C17  844   2.654   7.566   0.839
    2CHTO   O12  845   2.609   7.633   0.721
    2CHTO    H6  846   2.587   7.722   0.741
    3CHTO  H203  847   6.701   2.345   2.125
    3CHTO   O82  848   6.651   2.275   2.087
    3CHTO  C123  849   6.730   2.154   2.081
    3CHTO  H227  850   6.829   2.179   2.040
    3CHTO   O77  851   6.743   2.115   2.221
    3CHTO  C118  852   6.822   1.998   2.243
    3CHTO  H222  853   6.921   2.012   2.197
    3CHTO  C125  854   6.842   1.979   2.399
    3CHTO   O84  855   6.718   1.959   2.467
    3CHTO  H205  856   6.735   1.945   2.559
    3CHTO  C114  857   6.752   1.877   2.178
    3CHTO  H218  858   6.653   1.866   2.222
    3CHTO  C116  859   6.732   1.901   2.025
    3CHTO  H220  860   6.832   1.900   1.975
    3CHTO   O79  861   6.658   1.791   1.971
    3CHTO  H201  862   6.653   1.798   1.877
    3CHTO  C120  863   6.660   2.040   1.998
    3CHTO  H224  864   6.555   2.027   2.033
    3CHTO   N21  865   6.655   2.073   1.853
    3CHTO  H211  866   6.566   2.031   1.808
    3CHTO  H212  867   6.744   2.038   1.803
    3CHTO   O75  868   6.835   1.764   2.209
    3CHTO  C112  869   6.748   1.629   2.246
    3CHTO  H216  870   6.679   1.607   2.163
    3CHTO   O73  871   6.678   1.656   2.369
    3CHTO  C113  872   6.584   1.554   2.405
    3CHTO  H217  873   6.508   1.545   2.324
    3CHTO  C124  874   6.513   1.605   2.531
    3CHTO   O83  875   6.402   1.524   2.571
    3CHTO  H204  876   6.333   1.531   2.508
    3CHTO  C109  877   6.656   1.417   2.428
    3CHTO  H213  878   6.710   1.426   2.523
    3CHTO  C110  879   6.755   1.383   2.312
    3CHTO  H214  880   6.697   1.348   2.226
    3CHTO   O78  881   6.836   1.271   2.353
    3CHTO  H200  882   6.889   1.294   2.427
    3CHTO  C111  883   6.842   1.505   2.270
    3CHTO  H215  884   6.910   1.530   2.353
    3CHTO   N19  885   6.927   1.480   2.151
    3CHTO  H207  886   6.998   1.400   2.172
    3CHTO  H208  887   6.866   1.451   2.067
    3CHTO   O74  888   6.556   1.311   2.439
    3CHTO  C115  889   6.568   1.215   2.566
    3CHTO  H219  890   6.651   1.245   2.631
    3CHTO   O76  891   6.441   1.223   2.657
    3CHTO  C122  892   6.320   1.196   2.582
    3CHTO  H226  893   6.297   1.286   2.525
    3CHTO  C126  894   6.202   1.177   2.683
    3CHTO   O85  895   6.175   1.295   2.760
    3CHTO  H206  896   6.138   1.362   2.705
    3CHTO  C121  897   6.333   1.072   2.484
    3CHTO  H225  898   6.241   1.010   2.493
    3CHTO   O81  899   6.338   1.117   2.348
    3CHTO  H202  900   6.335   1.044   2.289
    3CHTO  C119  901   6.456   0.984   2.521
    3CHTO  H223  902   6.440   0.956   2.626
    3CHTO  C117  903   6.591   1.068   2.513
    3CHTO  H221  904   6.630   1.081   2.412
    3CHTO   N20  905   6.701   0.998   2.587
    3CHTO  H209  906   6.677   0.992   2.693
    3CHTO  H210  907   6.794   1.050   2.573
    3CHTO   O80  908   6.460   0.842   2.450
    3CHTO  C103  909   6.388   0.715   2.519
    3CHTO  H190  910   6.410   0.713   2.626
    3CHTO  C101  911   6.232   0.704   2.498
    3CHTO  H188  912   6.210   0.731   2.395
    3CHTO   O68  913   6.163   0.806   2.591
    3CHTO  H168  914   6.072   0.812   2.570
    3CHTO   C99  915   6.177   0.556   2.525
    3CHTO  H186  916   6.188   0.533   2.634
    3CHTO   N17  917   6.032   0.539   2.491
    3CHTO  H174  918   6.016   0.554   2.386
    3CHTO  H175  919   5.972   0.608   2.549
    3CHTO   C97  920   6.266   0.451   2.452
    3CHTO  H184  921   6.255   0.467   2.344
    3CHTO   O64  922   6.403   0.466   2.495
    3CHTO  C104  923   6.462   0.591   2.454
    3CHTO  H191  924   6.458   0.601   2.346
    3CHTO  C108  925   6.611   0.590   2.491
    3CHTO   O71  926   6.633   0.573   2.632
    3CHTO  H171  927   6.610   0.486   2.658
    3CHTO   O62  928   6.230   0.315   2.487
    3CHTO   C91  929   6.263   0.210   2.394
    3CHTO  H178  930   6.352   0.241   2.338
    3CHTO   C92  931   6.149   0.186   2.290
    3CHTO  H179  932   6.055   0.166   2.345
    3CHTO   O66  933   6.125   0.307   2.216
    3CHTO  H166  934   6.093   0.374   2.272
    3CHTO   C93  935   6.181   0.067   2.190
    3CHTO  H180  936   6.253   0.105   2.117
    3CHTO   N16  937   6.062   0.027   2.111
    3CHTO  H172  938   6.024   0.111   2.055
    3CHTO  H173  939   6.087   9.946   2.044
    3CHTO   C94  940   6.244   9.941   2.263
    3CHTO  H181  941   6.168   9.880   2.312
    3CHTO   O61  942   6.341   9.979   2.363
    3CHTO   C95  943   6.293   0.071   2.462
    3CHTO  H182  944   6.201   0.032   2.506
    3CHTO  C106  945   6.398   0.084   2.578
    3CHTO   O69  946   6.421   9.958   2.642
    3CHTO  H169  947   6.344   9.931   2.688
    3CHTO   O63  948   6.329   9.855   2.156
    3CHTO   C96  949   6.284   9.700   2.123
    3CHTO  H183  950   6.367   9.656   2.068
    3CHTO   C98  951   6.157   9.681   2.036
    3CHTO  H185  952   6.069   9.723   2.088
    3CHTO   O67  953   6.174   9.760   1.917
    3CHTO  H167  954   6.167   9.851   1.937
    3CHTO  C102  955   6.134   9.527   2.000
    3CHTO  H189  956   6.217   9.499   1.934
    3CHTO   N18  957   6.010   9.497   1.923
    3CHTO  H176  958   6.005   9.392   1.899
    3CHTO  H177  959   6.009   9.555   1.832
    3CHTO  C105  960   6.145   9.439   2.128
    3CHTO  H192  961   6.052   9.448   2.186
    3CHTO   O65  962   6.254   9.475   2.214
    3CHTO  C100  963   6.264   9.613   2.253
    3CHTO  H187  964   6.171   9.643   2.303
    3CHTO  C107  965   6.381   9.629   2.353
    3CHTO   O70  966   6.359   9.553   2.472
    3CHTO  H170  967   6.365   9.462   2.454
    3CHTO   O57  968   6.167   9.280   2.071
    3CHTO   C85  969   6.146   9.161   2.150
    3CHTO  H157  970   6.193   9.080   2.090
    3CHTO   C83  971   5.993   9.125   2.155
    3CHTO  H155  972   5.960   9.104   2.053
    3CHTO   O56  973   5.917   9.239   2.200
    3CHTO  H135  974   5.825   9.220   2.195
    3CHTO   C81  975   5.973   8.997   2.242
    3CHTO  H153  976   6.034   8.918   2.199
    3CHTO   N14  977   5.834   8.944   2.240
    3CHTO  H141  978   5.832   8.848   2.193
    3CHTO  H142  979   5.768   9.010   2.187
    3CHTO   C79  980   6.025   9.025   2.388
    3CHTO  H151  981   6.013   8.932   2.445
    3CHTO   O52  982   6.168   9.055   2.385
    3CHTO   C86  983   6.204   9.167   2.297
    3CHTO  H158  984   6.166   9.256   2.350
    3CHTO   C90  985   6.358   9.181   2.296
    3CHTO   O60  986   6.407   9.228   2.422
    3CHTO  H138  987   6.400   9.161   2.486
    3CHTO   O50  988   5.955   9.130   2.457
    3CHTO   C73  989   5.927   9.175   2.590
    3CHTO  H145  990   6.010   9.149   2.658
    3CHTO   C74  991   5.796   9.109   2.643
    3CHTO  H146  992   5.812   9.000   2.641
    3CHTO   O54  993   5.780   9.145   2.782
    3CHTO  H133  994   5.768   9.237   2.791
    3CHTO   C75  995   5.676   9.153   2.550
    3CHTO  H147  996   5.694   9.113   2.449
    3CHTO   N13  997   5.545   9.096   2.591
    3CHTO  H139  998   5.468   9.128   2.523
    3CHTO  H140  999   5.520   9.128   2.691
    3CHTO   C76 1000   5.671   9.313   2.537
    3CHTO  H148 1001   5.638   9.355   2.632
    3CHTO   O49 1002   5.802   9.369   2.502
    3CHTO   C77 1003   5.909   9.330   2.590
    3CHTO  H149 1004   5.887   9.363   2.692
    3CHTO   C88 1005   6.039   9.401   2.550
    3CHTO   O58 1006   6.030   9.541   2.565
    3CHTO  H136 1007   6.108   9.581   2.533
    3CHTO   O51 1008   5.574   9.354   2.414
    3CHTO   C78 1009   5.542   9.509   2.408
    3CHTO  H150 1010   5.613   9.568   2.471
    3CHTO   C80 1011   5.398   9.535   2.458
    3CHTO  H152 1012   5.328   9.469   2.401
    3CHTO   O55 1013   5.392   9.496   2.596
    3CHTO  H134 1014   5.400   9.403   2.605
    3CHTO   C84 1015   5.354   9.686   2.440
    3CHTO  H156 1016   5.412   9.746   2.510
    3CHTO   N15 1017   5.209   9.707   2.473
    3CHTO  H143 1018   5.147   9.647   2.410
    3CHTO  H144 1019   5.190   9.682   2.575
    3CHTO   C87 1020   5.386   9.737   2.297
    3CHTO  H159 1021   5.318   9.690   2.226
    3CHTO   O53 1022   5.533   9.700   2.260
    3CHTO   C82 1023   5.556   9.559   2.263
    3CHTO  H154 1024   5.487   9.507   2.197
    3CHTO   C89 1025   5.699   9.529   2.210
    3CHTO   O59 1026   5.718   9.579   2.078
    3CHTO  H137 1027   5.666   9.530   2.017
    3CHTO   O45 1028   5.366   9.908   2.283
    3CHTO   C67 1029   5.478   9.988   2.324
    3CHTO  H124 1030   5.546   9.926   2.384
    3CHTO   C65 1031   5.557   0.043   2.199
    3CHTO  H122 1032   5.482   0.057   2.120
    3CHTO   O44 1033   5.649   9.940   2.158
    3CHTO  H102 1034   5.602   9.865   2.127
    3CHTO   C63 1035   5.617   0.188   2.222
    3CHTO  H120 1036   5.536   0.260   2.214
    3CHTO   N11 1037   5.711   0.239   2.117
    3CHTO  H108 1038   5.803   0.185   2.121
    3CHTO  H109 1039   5.731   0.343   2.133
    3CHTO   C61 1040   5.669   0.200   2.371
    3CHTO  H118 1041   5.698   0.305   2.385
    3CHTO   O40 1042   5.561   0.174   2.467
    3CHTO   C68 1043   5.438   0.109   2.417
    3CHTO  H125 1044   5.379   0.184   2.360
    3CHTO   C72 1045   5.354   0.069   2.540
    3CHTO   O48 1046   5.218   0.041   2.505
    3CHTO  H105 1047   5.170   0.017   2.581
    3CHTO   O38 1048   5.785   0.117   2.393
    3CHTO   C55 1049   5.813   0.060   2.523
    3CHTO  H112 1050   5.720   0.027   2.571
    3CHTO   C56 1051   5.895   0.161   2.614
    3CHTO  H113 1052   5.982   0.194   2.556
    3CHTO   O42 1053   5.816   0.280   2.639
    3CHTO  H100 1054   5.739   0.258   2.688
    3CHTO   C57 1055   5.940   0.092   2.750
    3CHTO  H114 1056   5.851   0.083   2.811
    3CHTO   N10 1057   6.036   0.175   2.828
    3CHTO  H106 1058   6.138   0.155   2.797
    3CHTO  H107 1059   6.027   0.154   0.049
    3CHTO   C58 1060   5.998   9.950   2.724
    3CHTO  H115 1061   6.101   9.959   2.682
    3CHTO   O37 1062   5.916   9.872   2.635
    3CHTO   C59 1063   5.898   9.932   2.506
    3CHTO  H116 1064   5.995   9.956   2.462
    3CHTO   C70 1065   5.829   9.830   2.415
    3CHTO   O46 1066   5.917   9.726   2.373
    3CHTO  H103 1067   5.981   9.760   2.314
    3CHTO   O39 1068   6.003   9.868   2.865
    3CHTO   C60 1069   6.066   9.739   2.857
    3CHTO  H117 1070   6.033   9.688   2.767
    3CHTO   C62 1071   6.221   9.752   2.850
    3CHTO  H119 1072   6.243   9.803   2.753
    3CHTO   O43 1073   6.268   9.835   0.074
    3CHTO  H101 1074   6.240   9.923   0.062
    3CHTO   C66 1075   6.288   9.606   2.847
    3CHTO  H123 1076   6.246   9.549   2.764
    3CHTO   N12 1077   6.435   9.613   2.823
    3CHTO  H110 1078   6.490   9.567   0.020
    3CHTO  H111 1079   6.460   9.568   2.728
    3CHTO   C69 1080   6.249   9.532   0.094
    3CHTO  H126 1081   6.280   9.592   0.182
    3CHTO   O41 1082   6.096   9.518   0.094
    3CHTO   C64 1083   6.022   9.651   0.094
    3CHTO  H121 1084   6.042   9.705   0.189
    3CHTO   C71 1085   5.870   9.617   0.088
    3CHTO   O47 1086   5.789   9.733   0.109
    3CHTO  H104 1087   5.699   9.710   0.097
    3CHTO   O34 1088   6.312   9.391   0.108
    3CHTO   C49 1089   6.390   9.271   0.062
    3CHTO   H91 1090   6.479   9.313   0.015
    3CHTO   C47 1091   6.311   9.191   2.840
    3CHTO   H89 1092   6.321   9.249   2.745
    3CHTO   O33 1093   6.172   9.183   2.874
    3CHTO   H70 1094   6.124   9.142   2.805
    3CHTO   C45 1095   6.370   9.040   2.824
    3CHTO   H87 1096   6.313   8.975   0.009
    3CHTO    N8 1097   6.349   8.989   2.686
    3CHTO   H75 1098   6.407   9.047   2.616
    3CHTO   H76 1099   6.245   8.993   2.660
    3CHTO   C43 1100   6.521   9.030   2.879
    3CHTO   H85 1101   6.554   8.927   2.864
    3CHTO   O29 1102   6.523   9.068   0.134
    3CHTO   C50 1103   6.436   9.175   0.175
    3CHTO   H92 1104   6.346   9.131   0.221
    3CHTO   C54 1105   6.502   9.252   0.294
    3CHTO   O36 1106   6.628   9.309   0.258
    3CHTO   H72 1107   6.666   9.350   0.333
    3CHTO   O27 1108   6.611   9.113   2.804
    3CHTO   C37 1109   6.716   9.154   2.714
    3CHTO   H79 1110   6.813   9.118   2.751
    3CHTO   C38 1111   6.695   9.093   2.572
    3CHTO   H80 1112   6.589   9.107   2.544
    3CHTO   O31 1113   6.720   8.952   2.581
    3CHTO   H68 1114   6.655   8.910   2.635
    3CHTO   C39 1115   6.787   9.160   2.463
    3CHTO   H81 1116   6.890   9.133   2.485
    3CHTO    N7 1117   6.758   9.113   2.323
    3CHTO   H73 1118   6.825   9.162   2.253
    3CHTO   H74 1119   6.772   9.006   2.317
    3CHTO   C40 1120   6.777   9.317   2.474
    3CHTO   H82 1121   6.677   9.351   2.448
    3CHTO   O26 1122   6.813   9.355   2.608
    3CHTO   C41 1123   6.719   9.309   2.709
    3CHTO   H83 1124   6.619   9.348   2.688
    3CHTO   C52 1125   6.767   9.368   2.844
    3CHTO   O35 1126   6.769   9.517   2.844
    3CHTO   H71 1127   6.835   9.548   2.784
    3CHTO   O28 1128   6.873   9.387   2.392
    3CHTO   C42 1129   6.861   9.530   2.361
    3CHTO   H84 1130   6.957   9.554   2.315
    3CHTO   C44 1131   6.845   9.629   2.481
    3CHTO   H86 1132   6.751   9.606   2.533
    3CHTO   O32 1133   6.954   9.606   2.572
    3CHTO   H69 1134   6.947   9.521   2.611
    3CHTO   C48 1135   6.840   9.780   2.436
    3CHTO   H90 1136   6.941   9.807   2.405
    3CHTO    N9 1137   6.806   9.874   2.549
    3CHTO   H77 1138   6.709   9.850   2.589
    3CHTO   H78 1139   6.808   9.976   2.514
    3CHTO   C51 1140   6.745   9.802   2.312
    3CHTO   H93 1141   6.641   9.804   2.345
    3CHTO   O30 1142   6.768   9.702   2.212
    3CHTO   C46 1143   6.751   9.561   2.256
    3CHTO   H88 1144   6.653   9.549   2.302
    3CHTO   C53 1145   6.762   9.471   2.131
    3CHTO   O72 1146   6.657   9.503   2.039
    3CHTO  H199 1147   6.663   9.447   1.964
    3CHTO   O22 1148   6.780   9.925   2.245
    3CHTO   C31 1149   6.689   0.004   2.159
    3CHTO   H59 1150   6.589   9.955   2.165
    3CHTO   C29 1151   6.673   0.149   2.209
    3CHTO   H57 1152   6.774   0.190   2.221
    3CHTO   O21 1153   6.615   0.143   2.341
    3CHTO   H37 1154   6.617   0.229   2.380
    3CHTO   C27 1155   6.592   0.240   2.109
    3CHTO   H55 1156   6.489   0.202   2.102
    3CHTO    N5 1157   6.586   0.382   2.152
    3CHTO   H43 1158   6.527   0.440   2.083
    3CHTO   H44 1159   6.686   0.423   2.158
    3CHTO   C25 1160   6.657   0.226   1.967
    3CHTO   H53 1161   6.763   0.258   1.973
    3CHTO   O17 1162   6.652   0.087   1.926
    3CHTO   C32 1163   6.732   9.999   2.008
    3CHTO   H60 1164   6.836   0.029   2.000
    3CHTO   C36 1165   6.719   9.858   1.945
    3CHTO   O25 1166   6.584   9.810   1.947
    3CHTO   H40 1167   6.580   9.725   1.908
    3CHTO   O15 1168   6.588   0.308   1.860
    3CHTO   C19 1169   6.483   0.307   1.760
    3CHTO   H47 1170   6.521   0.238   1.683
    3CHTO   C20 1171   6.346   0.253   1.812
    3CHTO   H48 1172   6.312   0.308   1.901
    3CHTO   O19 1173   6.367   0.116   1.851
    3CHTO   H35 1174   6.289   0.081   1.891
    3CHTO   C21 1175   6.233   0.263   1.702
    3CHTO   H49 1176   6.256   0.193   1.622
    3CHTO    N4 1177   6.098   0.226   1.754
    3CHTO   H41 1178   6.072   0.289   1.838
    3CHTO   H42 1179   6.098   0.123   1.785
    3CHTO   C22 1180   6.235   0.405   1.640
    3CHTO   H50 1181   6.211   0.477   1.719
    3CHTO   O14 1182   6.366   0.433   1.588
    3CHTO   C23 1183   6.466   0.445   1.690
    3CHTO   H51 1184   6.433   0.523   1.761
    3CHTO   C34 1185   6.594   0.494   1.622
    3CHTO   O23 1186   6.693   0.535   1.717
    3CHTO   H38 1187   6.666   0.614   1.760
    3CHTO   O16 1188   6.144   0.421   1.529
    3CHTO   C24 1189   6.135   0.575   1.480
    3CHTO   H52 1190   6.225   0.631   1.504
    3CHTO   C26 1191   6.014   0.646   1.547
    3CHTO   H54 1192   5.922   0.589   1.521
    3CHTO   O20 1193   6.031   0.641   1.690
    3CHTO   H36 1194   6.108   0.689   1.716
    3CHTO   C30 1195   6.000   0.791   1.492
    3CHTO   H58 1196   6.089   0.850   1.522
    3CHTO    N6 1197   5.882   0.860   1.552
    3CHTO   H45 1198   5.811   0.889   1.476
    3CHTO   H46 1199   5.914   0.949   1.605
    3CHTO   C33 1200   5.998   0.790   1.336
    3CHTO   H61 1201   5.905   0.742   1.302
    3CHTO   O18 1202   6.109   0.715   1.284
    3CHTO   C28 1203   6.119   0.579   1.326
    3CHTO   H56 1204   6.029   0.523   1.299
    3CHTO   C35 1205   6.240   0.516   1.254
    3CHTO   O24 1206   6.366   0.578   1.284
    3CHTO   H39 1207   6.368   0.664   1.246
    3CHTO    O9 1208   5.994   0.924   1.280
    3CHTO   C13 1209   6.141   0.990   1.233
    3CHTO   H26 1210   6.203   0.911   1.187
    3CHTO   C11 1211   6.214   1.054   1.359
    3CHTO   H24 1212   6.254   0.971   1.421
    3CHTO    O8 1213   6.120   1.128   1.439
    3CHTO    H3 1214   6.160   1.156   1.519
    3CHTO    C9 1215   6.333   1.141   1.309
    3CHTO   H22 1216   6.395   1.074   1.248
    3CHTO    N2 1217   6.424   1.185   1.418
    3CHTO   H10 1218   6.457   1.100   1.475
    3CHTO   H11 1219   6.509   1.237   1.376
    3CHTO    C7 1220   6.278   1.257   1.214
    3CHTO   H20 1221   6.349   1.254   1.129
    3CHTO    O4 1222   6.144   1.232   1.165
    3CHTO   C14 1223   6.122   1.098   1.117
    3CHTO   H27 1224   6.196   1.078   1.037
    3CHTO   C18 1225   5.982   1.094   1.052
    3CHTO   O13 1226   5.958   0.969   0.986
    3CHTO    H7 1227   5.951   0.900   1.050
    3CHTO    O2 1228   6.279   1.406   1.279
    3CHTO    C1 1229   6.304   1.508   1.181
    3CHTO   H14 1230   6.280   1.469   1.079
    3CHTO    C2 1231   6.454   1.558   1.182
    3CHTO   H15 1232   6.476   1.588   1.286
    3CHTO    O6 1233   6.540   1.448   1.146
    3CHTO    H1 1234   6.521   1.419   1.058
    3CHTO    C3 1235   6.471   1.683   1.083
    3CHTO   H16 1236   6.452   1.650   0.980
    3CHTO    N1 1237   6.611   1.740   1.086
    3CHTO    H8 1238   6.681   1.665   1.055
    3CHTO    H9 1239   6.635   1.773   1.186
    3CHTO    C4 1240   6.361   1.790   1.115
    3CHTO   H17 1241   6.378   1.830   1.215
    3CHTO    O1 1242   6.230   1.731   1.107
    3CHTO    C5 1243   6.206   1.627   1.204
    3CHTO   H18 1244   6.222   1.666   1.305
    3CHTO   C16 1245   6.057   1.586   1.189
    3CHTO   O11 1246   6.013   1.503   1.297
    3CHTO    H5 1247   5.923   1.479   1.282
    3CHTO    O3 1248   6.361   1.898   1.019
    3CHTO    C6 1249   6.296   2.022   1.065
    3CHTO   H19 1250   6.226   2.005   1.147
    3CHTO    C8 1251   6.402   2.126   1.113
    3CHTO   H21 1252   6.474   2.142   1.032
    3CHTO    O7 1253   6.471   2.070   1.227
    3CHTO    H2 1254   6.524   1.998   1.200
    3CHTO   C12 1255   6.333   2.264   1.148
    3CHTO   H25 1256   6.271   2.245   1.238
    3CHTO    N3 1257   6.434   2.368   1.188
    3CHTO   H12 1258   6.414   2.402   1.289
    3CHTO   H13 1259   6.434   2.451   1.119
    3CHTO   C15 1260   6.238   2.309   1.031
    3CHTO   H28 1261   6.294   2.344   0.945
    3CHTO   O10 1262   6.139   2.415   1.076
    3CHTO    H4 1263   6.097   2.453   1.001
    3CHTO    O5 1264   6.148   2.203   0.992
    3CHTO   C10 1265   6.214   2.083   0.949
    3CHTO   H23 1266   6.281   2.108   0.866
    3CHTO   C17 1267   6.107   1.987   0.896
    3CHTO   O12 1268   6.047   2.037   0.776
    3CHTO    H6 1269   5.998   1.969   0.734
    4CHTO  H203 1270   5.606   6.064   0.153
    4CHTO   O82 1271   5.529   6.085   0.203
    4CHTO  C123 1272   5.510   6.228   0.209
    4CHTO  H227 1273   5.416   6.249   0.263
    4CHTO   O77 1274   5.624   6.275   0.287
    4CHTO  C118 1275   5.625   6.416   0.314
    4CHTO  H222 1276   5.533   6.446   0.365
    4CHTO  C125 1277   5.748   6.441   0.410
    4CHTO   O84 1278   5.748   6.572   0.466
    4CHTO  H205 1279   5.679   6.580   0.529
    4CHTO  C114 1280   5.638   6.492   0.180
    4CHTO  H218 1281   5.733   6.464   0.133
    4CHTO  C116 1282   5.523   6.453   0.081
    4CHTO  H220 1283   5.428   6.496   0.120
    4CHTO   O79 1284   5.549   6.516   2.839
    4CHTO  H201 1285   5.477   6.502   2.780
    4CHTO  C120 1286   5.510   6.296   0.066
    4CHTO  H224 1287   5.597   6.262   0.008
    4CHTO   N21 1288   5.390   6.258   2.871
    4CHTO  H211 1289   5.415   6.255   2.766
    4CHTO  H212 1290   5.351   6.162   0.019
    4CHTO   O75 1291   5.638   6.631   0.214
    4CHTO  C112 1292   5.744   6.725   0.127
    4CHTO  H216 1293   5.742   6.694   0.022
    4CHTO   O73 1294   5.874   6.708   0.186
    4CHTO  C113 1295   5.977   6.789   0.126
    4CHTO  H217 1296   5.980   6.768   0.017
    4CHTO  C124 1297   6.114   6.747   0.183
    4CHTO   O83 1298   6.124   6.760   0.325
    4CHTO  H204 1299   6.126   6.851   0.348
    4CHTO  C109 1300   5.947   6.940   0.148
    4CHTO  H213 1301   5.946   6.956   0.257
    4CHTO  C110 1302   5.808   6.973   0.087
    4CHTO  H214 1303   5.816   6.967   2.862
    4CHTO   O78 1304   5.778   7.110   0.121
    4CHTO  H200 1305   5.700   7.138   0.076
    4CHTO  C111 1306   5.698   6.876   0.139
    4CHTO  H215 1307   5.681   6.897   0.246
    4CHTO   N19 1308   5.566   6.894   0.071
    4CHTO  H207 1309   5.573   6.967   2.876
    4CHTO  H208 1310   5.491   6.924   0.142
    4CHTO   O74 1311   6.051   7.024   0.088
    4CHTO  C115 1312   6.106   7.143   0.185
    4CHTO  H219 1313   6.044   7.155   0.274
    4CHTO   O76 1314   6.248   7.112   0.238
    4CHTO  C122 1315   6.342   7.085   0.133
    4CHTO  H226 1316   6.327   6.982   0.101
    4CHTO  C126 1317   6.486   7.091   0.195
    4CHTO   O85 1318   6.521   7.219   0.247
    4CHTO  H206 1319   6.539   7.278   0.177
    4CHTO  C121 1320   6.328   7.183   0.008
    4CHTO  H225 1321   6.429   7.211   2.855
    4CHTO   O81 1322   6.258   7.120   2.784
    4CHTO  H202 1323   6.308   7.048   2.751
    4CHTO  C119 1324   6.253   7.313   0.049
    4CHTO  H223 1325   6.310   7.355   0.132
    4CHTO  C117 1326   6.107   7.278   0.101
    4CHTO  H221 1327   6.034   7.261   0.022
    4CHTO   N20 1328   6.050   7.393   0.180
    4CHTO  H209 1329   6.109   7.410   0.269
    4CHTO  H210 1330   6.047   7.482   0.119
    4CHTO   O80 1331   6.260   7.431   2.826
    4CHTO  C103 1332   6.407   7.501   2.785
    4CHTO  H190 1333   6.391   7.608   2.772
    4CHTO  C101 1334   6.531   7.485   2.882
    4CHTO  H188 1335   6.555   7.379   0.009
    4CHTO   O68 1336   6.495   7.543   0.138
    4CHTO  H168 1337   6.481   7.636   0.133
    4CHTO   C99 1338   6.659   7.559   2.819
    4CHTO  H186 1339   6.640   7.668   2.825
    4CHTO   N17 1340   6.786   7.535   0.013
    4CHTO  H174 1341   6.838   7.628   0.031
    4CHTO  H175 1342   6.849   7.463   2.847
    4CHTO   C97 1343   6.679   7.528   2.667
    4CHTO  H184 1344   6.731   7.431   2.657
    4CHTO   O64 1345   6.554   7.529   2.595
    4CHTO  C104 1346   6.451   7.444   2.645
    4CHTO  H191 1347   6.485   7.341   2.657
    4CHTO  C108 1348   6.339   7.440   2.540
    4CHTO   O71 1349   6.245   7.334   2.564
    4CHTO  H171 1350   6.176   7.339   2.501
    4CHTO   O62 1351   6.758   7.632   2.605
    4CHTO   C91 1352   6.813   7.605   2.474
    4CHTO  H178 1353   6.771   7.512   2.436
    4CHTO   C92 1354   6.967   7.584   2.483
    4CHTO  H179 1355   7.014   7.675   2.522
    4CHTO   O66 1356   6.995   7.482   2.581
    4CHTO  H166 1357   6.959   7.399   2.553
    4CHTO   C93 1358   7.028   7.546   2.341
    4CHTO  H180 1359   6.994   7.443   2.319
    4CHTO   N16 1360   7.176   7.539   2.340
    4CHTO  H172 1361   7.218   7.635   2.369
    4CHTO  H173 1362   7.210   7.462   2.408
    4CHTO   C94 1363   6.976   7.642   2.226
    4CHTO  H181 1364   7.028   7.738   2.226
    4CHTO   O61 1365   6.835   7.671   2.237
    4CHTO   C95 1366   6.792   7.718   2.366
    4CHTO  H182 1367   6.850   7.806   2.393
    4CHTO  C106 1368   6.642   7.764   2.356
    4CHTO   O69 1369   6.557   7.657   2.315
    4CHTO  H169 1370   6.469   7.687   2.311
    4CHTO   O63 1371   6.995   7.566   2.084
    4CHTO   C96 1372   7.051   7.649   1.957
    4CHTO  H183 1373   7.076   7.574   1.881
    4CHTO   C98 1374   7.177   7.738   1.977
    4CHTO  H185 1375   7.154   7.818   2.048
    4CHTO   O67 1376   7.280   7.659   2.038
    4CHTO  H167 1377   7.354   7.713   2.059
    4CHTO  C102 1378   7.230   7.797   1.837
    4CHTO  H189 1379   7.297   7.721   1.796
    4CHTO   N18 1380   7.312   7.920   1.848
    4CHTO  H176 1381   7.346   7.951   1.751
    4CHTO  H177 1382   7.255   7.999   1.894
    4CHTO  C105 1383   7.112   7.812   1.735
    4CHTO  H192 1384   7.132   7.896   1.668
    4CHTO   O65 1385   6.984   7.836   1.797
    4CHTO  C100 1386   6.937   7.740   1.895
    4CHTO  H187 1387   6.892   7.798   1.977
    4CHTO  C107 1388   6.826   7.654   1.832
    4CHTO   O70 1389   6.713   7.734   1.794
    4CHTO  H170 1390   6.649   7.680   1.752
    4CHTO   O57 1391   7.118   7.672   1.647
    4CHTO   C85 1392   7.091   7.675   1.506
    4CHTO  H157 1393   7.051   7.776   1.483
    4CHTO   C83 1394   6.977   7.574   1.473
    4CHTO  H155 1395   6.888   7.604   1.530
    4CHTO   O56 1396   7.012   7.442   1.519
    4CHTO  H135 1397   7.087   7.410   1.472
    4CHTO   C81 1398   6.943   7.583   1.321
    4CHTO  H153 1399   6.917   7.686   1.298
    4CHTO   N14 1400   6.822   7.505   1.284
    4CHTO  H141 1401   6.739   7.536   1.345
    4CHTO  H142 1402   6.798   7.522   1.181
    4CHTO   C79 1403   7.070   7.544   1.235
    4CHTO  H151 1404   7.046   7.565   1.131
    4CHTO   O52 1405   7.183   7.630   1.270
    4CHTO   C86 1406   7.215   7.639   1.414
    4CHTO  H158 1407   7.256   7.538   1.439
    4CHTO   C90 1408   7.330   7.739   1.436
    4CHTO   O60 1409   7.450   7.696   1.370
    4CHTO  H138 1410   7.485   7.620   1.413
    4CHTO   O50 1411   7.108   7.405   1.244
    4CHTO   C73 1412   7.156   7.320   1.139
    4CHTO  H145 1413   7.216   7.379   1.067
    4CHTO   C74 1414   7.038   7.254   1.062
    4CHTO  H146 1415   6.974   7.336   1.023
    4CHTO   O54 1416   7.091   7.187   0.946
    4CHTO  H133 1417   7.021   7.151   0.895
    4CHTO   C75 1418   6.958   7.159   1.160
    4CHTO  H147 1419   6.916   7.220   1.241
    4CHTO   N13 1420   6.842   7.092   1.097
    4CHTO  H139 1421   6.791   7.030   1.169
    4CHTO  H140 1422   6.772   7.166   1.061
    4CHTO   C76 1423   7.059   7.054   1.228
    4CHTO  H148 1424   7.094   6.984   1.152
    4CHTO   O49 1425   7.172   7.125   1.288
    4CHTO   C77 1426   7.246   7.208   1.198
    4CHTO  H149 1427   7.286   7.147   1.116
    4CHTO   C88 1428   7.369   7.266   1.270
    4CHTO   O58 1429   7.462   7.158   1.309
    4CHTO  H136 1430   7.540   7.195   1.345
    4CHTO   O51 1431   6.986   6.980   1.354
    4CHTO   C78 1432   7.052   6.838   1.413
    4CHTO  H150 1433   7.025   6.827   1.520
    4CHTO   C80 1434   7.206   6.831   1.401
    4CHTO  H152 1435   7.234   6.840   1.293
    4CHTO   O55 1436   7.260   6.942   1.474
    4CHTO  H134 1437   7.353   6.948   1.460
    4CHTO   C84 1438   7.262   6.695   1.459
    4CHTO  H156 1439   7.244   6.696   1.567
    4CHTO   N15 1440   7.411   6.680   1.440
    4CHTO  H143 1441   7.444   6.587   1.483
    4CHTO  H144 1442   7.461   6.760   1.489
    4CHTO   C87 1443   7.185   6.573   1.400
    4CHTO  H159 1444   7.216   6.555   1.297
    4CHTO   O53 1445   7.035   6.597   1.407
    4CHTO   C82 1446   6.990   6.717   1.341
    4CHTO  H154 1447   7.017   6.714   1.236
    4CHTO   C89 1448   6.835   6.715   1.349
    4CHTO   O59 1449   6.774   6.808   1.259
    4CHTO  H137 1450   6.792   6.896   1.288
    4CHTO   O45 1451   7.217   6.442   1.490
    4CHTO   C67 1452   7.166   6.316   1.441
    4CHTO  H124 1453   7.156   6.316   1.333
    4CHTO   C65 1454   7.264   6.202   1.484
    4CHTO  H122 1455   7.362   6.235   1.451
    4CHTO   O44 1456   7.231   6.079   1.418
    4CHTO  H102 1457   7.297   6.015   1.434
    4CHTO   C63 1458   7.271   6.198   1.641
    4CHTO  H120 1459   7.304   6.296   1.676
    4CHTO   N11 1460   7.377   6.108   1.698
    4CHTO  H108 1461   7.412   6.040   1.624
    4CHTO  H109 1462   7.460   6.166   1.734
    4CHTO   C61 1463   7.127   6.178   1.705
    4CHTO  H118 1464   7.138   6.215   1.808
    4CHTO   O40 1465   7.021   6.258   1.643
    4CHTO   C68 1466   7.022   6.291   1.500
    4CHTO  H125 1467   6.966   6.386   1.491
    4CHTO   C72 1468   6.943   6.186   1.417
    4CHTO   O48 1469   6.802   6.195   1.435
    4CHTO  H105 1470   6.759   6.127   1.386
    4CHTO   O38 1471   7.081   6.041   1.707
    4CHTO   C55 1472   7.002   6.007   1.823
    4CHTO  H112 1473   6.951   6.097   1.862
    4CHTO   C56 1474   7.091   5.937   1.934
    4CHTO  H113 1475   7.139   5.849   1.887
    4CHTO   O42 1476   7.196   6.025   1.976
    4CHTO  H100 1477   7.256   6.040   1.906
    4CHTO   C57 1478   7.002   5.892   2.057
    4CHTO  H114 1479   6.969   5.984   2.106
    4CHTO   N10 1480   7.075   5.812   2.159
    4CHTO  H106 1481   7.030   5.828   2.256
    4CHTO  H107 1482   7.178   5.842   2.162
    4CHTO   C58 1483   6.876   5.815   2.008
    4CHTO  H115 1484   6.906   5.713   1.973
    4CHTO   O37 1485   6.807   5.884   1.902
    4CHTO   C59 1486   6.888   5.909   1.786
    4CHTO  H116 1487   6.928   5.815   1.747
    4CHTO   C70 1488   6.798   5.970   1.677
    4CHTO   O46 1489   6.705   5.877   1.622
    4CHTO  H103 1490   6.642   5.853   1.686
    4CHTO   O39 1491   6.769   5.802   2.133
    4CHTO   C60 1492   6.651   5.725   2.104
    4CHTO  H117 1493   6.624   5.737   1.999
    4CHTO   C62 1494   6.674   5.573   2.131
    4CHTO  H119 1495   6.758   5.542   2.066
    4CHTO   O43 1496   6.714   5.553   2.268
    4CHTO  H101 1497   6.645   5.579   2.327
    4CHTO   C66 1498   6.542   5.492   2.089
    4CHTO  H123 1499   6.521   5.512   1.984
    4CHTO   N12 1500   6.559   5.345   2.100
    4CHTO  H110 1501   6.639   5.312   2.036
    4CHTO  H111 1502   6.578   5.318   2.203
    4CHTO   C69 1503   6.419   5.544   2.169
    4CHTO  H126 1504   6.430   5.517   2.277
    4CHTO   O41 1505   6.407   5.701   2.156
    4CHTO   C64 1506   6.532   5.778   2.188
    4CHTO  H121 1507   6.556   5.767   2.296
    4CHTO   C71 1508   6.508   5.928   2.160
    4CHTO   O47 1509   6.402   5.980   2.239
    4CHTO  H104 1510   6.390   6.071   2.220
    4CHTO   O34 1511   6.284   5.478   2.115
    4CHTO   C49 1512   6.157   5.537   2.047
    4CHTO   H91 1513   6.103   5.592   2.124
    4CHTO   C47 1514   6.071   5.419   1.995
    4CHTO   H89 1515   5.977   5.467   1.959
    4CHTO   O33 1516   6.037   5.331   2.104
    4CHTO   H70 1517   5.974   5.268   2.075
    4CHTO   C45 1518   6.147   5.339   1.877
    4CHTO   H87 1519   6.205   5.257   1.922
    4CHTO    N8 1520   6.045   5.280   1.786
    4CHTO   H75 1521   6.093   5.217   1.713
    4CHTO   H76 1522   5.991   5.359   1.735
    4CHTO   C43 1523   6.258   5.433   1.807
    4CHTO   H85 1524   6.344   5.428   1.873
    4CHTO   O29 1525   6.207   5.567   1.796
    4CHTO   C50 1526   6.187   5.631   1.925
    4CHTO   H92 1527   6.279   5.688   1.947
    4CHTO   C54 1528   6.080   5.741   1.908
    4CHTO   O36 1529   6.069   5.825   2.023
    4CHTO   H72 1530   6.006   5.892   2.007
    4CHTO   O27 1531   6.308   5.383   1.681
    4CHTO   C37 1532   6.439   5.350   1.633
    4CHTO   H79 1533   6.433   5.316   1.528
    4CHTO   C38 1534   6.533   5.475   1.633
    4CHTO   H80 1535   6.527   5.523   1.732
    4CHTO   O31 1536   6.482   5.567   1.534
    4CHTO   H68 1537   6.488   5.531   1.448
    4CHTO   C39 1538   6.684   5.436   1.603
    4CHTO   H81 1539   6.689   5.397   1.501
    4CHTO    N7 1540   6.780   5.552   1.611
    4CHTO   H73 1541   6.728   5.643   1.635
    4CHTO   H74 1542   6.858   5.533   1.683
    4CHTO   C40 1543   6.725   5.318   1.700
    4CHTO   H82 1544   6.719   5.354   1.803
    4CHTO   O26 1545   6.636   5.207   1.676
    4CHTO   C41 1546   6.499   5.235   1.718
    4CHTO   H83 1547   6.498   5.263   1.824
    4CHTO   C52 1548   6.418   5.104   1.703
    4CHTO   O35 1549   6.470   4.995   1.789
    4CHTO   H71 1550   6.556   4.969   1.760
    4CHTO   O28 1551   6.857   5.266   1.676
    4CHTO   C42 1552   6.929   5.198   1.784
    4CHTO   H84 1553   7.016   5.155   1.735
    4CHTO   C44 1554   6.854   5.078   1.852
    4CHTO   H86 1555   6.757   5.115   1.889
    4CHTO   O32 1556   6.828   4.981   1.749
    4CHTO   H69 1557   6.766   5.015   1.687
    4CHTO   C48 1558   6.932   5.017   1.975
    4CHTO   H90 1559   7.021   4.967   1.938
    4CHTO    N9 1560   6.852   4.910   2.045
    4CHTO   H77 1561   6.760   4.951   2.084
    4CHTO   H78 1562   6.911   4.866   2.124
    4CHTO   C51 1563   6.974   5.134   2.071
    4CHTO   H93 1564   6.882   5.184   2.104
    4CHTO   O30 1565   7.059   5.222   1.997
    4CHTO   C46 1566   6.983   5.298   1.892
    4CHTO   H88 1567   6.899   5.349   1.939
    4CHTO   C53 1568   7.079   5.402   1.830
    4CHTO   O72 1569   7.120   5.499   1.927
    4CHTO  H199 1570   7.175   5.459   1.991
    4CHTO   O22 1571   7.051   5.090   2.185
    4CHTO   C31 1572   7.069   5.178   2.302
    4CHTO   H59 1573   7.125   5.117   2.377
    4CHTO   C29 1574   7.153   5.304   2.275
    4CHTO   H57 1575   7.101   5.364   2.199
    4CHTO   O21 1576   7.278   5.263   2.218
    4CHTO   H37 1577   7.326   5.338   2.187
    4CHTO   C27 1578   7.172   5.392   2.405
    4CHTO   H55 1579   7.231   5.334   2.478
    4CHTO    N5 1580   7.244   5.520   2.378
    4CHTO   H43 1581   7.188   5.580   2.308
    4CHTO   H44 1582   7.342   5.499   2.340
    4CHTO   C25 1583   7.031   5.418   2.470
    4CHTO   H53 1584   6.970   5.479   2.401
    4CHTO   O17 1585   6.961   5.292   2.493
    4CHTO   C32 1586   6.935   5.219   2.372
    4CHTO   H60 1587   6.878   5.283   2.305
    4CHTO   C36 1588   6.844   5.097   2.407
    4CHTO   O25 1589   6.903   5.009   2.503
    4CHTO   H40 1590   6.979   4.968   2.466
    4CHTO   O15 1591   7.042   5.490   2.603
    4CHTO   C19 1592   7.094   5.500   2.738
    4CHTO   H47 1593   7.010   5.470   2.802
    4CHTO   C20 1594   7.216   5.405   2.767
    4CHTO   H48 1595   7.301   5.428   2.702
    4CHTO   O19 1596   7.174   5.271   2.737
    4CHTO   H35 1597   7.105   5.244   2.795
    4CHTO   C21 1598   7.265   5.420   0.033
    4CHTO   H49 1599   7.185   5.388   0.100
    4CHTO    N4 1600   7.384   5.336   0.064
    4CHTO   H41 1601   7.466   5.362   2.882
    4CHTO   H42 1602   7.359   5.231   0.050
    4CHTO   C22 1603   7.290   5.571   0.061
    4CHTO   H50 1604   7.371   5.604   2.879
    4CHTO   O14 1605   7.172   5.647   0.032
    4CHTO   C23 1606   7.131   5.645   2.778
    4CHTO   H51 1607   7.215   5.685   2.718
    4CHTO   C34 1608   7.013   5.742   2.766
    4CHTO   O23 1609   6.980   5.768   2.629
    4CHTO   H38 1610   6.910   5.831   2.624
    4CHTO   O16 1611   7.328   5.603   0.197
    4CHTO   C24 1612   7.216   5.606   0.322
    4CHTO   H52 1613   7.132   5.539   0.303
    4CHTO   C26 1614   7.165   5.750   0.343
    4CHTO   H54 1615   7.252   5.820   0.332
    4CHTO   O20 1616   7.072   5.784   0.238
    4CHTO   H36 1617   6.997   5.727   0.241
    4CHTO   C30 1618   7.100   5.775   0.483
    4CHTO   H58 1619   7.003   5.724   0.488
    4CHTO    N6 1620   7.072   5.920   0.506
    4CHTO   H45 1621   7.127   5.958   0.591
    4CHTO   H46 1622   6.966   5.936   0.522
    4CHTO   C33 1623   7.187   5.712   0.595
    4CHTO   H61 1624   7.285   5.762   0.598
    4CHTO   O18 1625   7.207   5.573   0.564
    4CHTO   C28 1626   7.289   5.552   0.448
    4CHTO   H56 1627   7.384   5.604   0.459
    4CHTO   C35 1628   7.317   5.401   0.435
    4CHTO   O24 1629   7.392   5.350   0.546
    4CHTO   H39 1630   7.407   5.258   0.534
    4CHTO    O9 1631   7.130   5.729   0.727
    4CHTO   C13 1632   7.238   5.770   0.840
    4CHTO   H26 1633   7.290   5.861   0.804
    4CHTO   C11 1634   7.339   5.651   0.865
    4CHTO   H24 1635   7.400   5.639   0.774
    4CHTO    O8 1636   7.269   5.526   0.884
    4CHTO    H3 1637   7.216   5.530   0.962
    4CHTO    C9 1638   7.432   5.692   0.982
    4CHTO   H22 1639   7.475   5.789   0.953
    4CHTO    N2 1640   7.551   5.604   0.999
    4CHTO   H10 1641   7.616   5.645   1.075
    4CHTO   H11 1642   7.604   5.595   0.905
    4CHTO    C7 1643   7.345   5.713   1.112
    4CHTO   H20 1644   7.418   5.748   1.189
    4CHTO    O4 1645   7.249   5.818   1.089
    4CHTO   C14 1646   7.163   5.813   0.973
    4CHTO   H27 1647   7.129   5.917   0.958
    4CHTO   C18 1648   7.037   5.728   1.002
    4CHTO   O13 1649   6.960   5.782   1.110
    4CHTO    H7 1650   7.008   5.775   1.190
    4CHTO    O2 1651   7.264   5.576   1.167
    4CHTO    C1 1652   7.339   5.492   1.256
    4CHTO   H14 1653   7.445   5.526   1.260
    4CHTO    C2 1654   7.336   5.340   1.213
    4CHTO   H15 1655   7.231   5.307   1.216
    4CHTO    O6 1656   7.387   5.327   1.079
    4CHTO    H1 1657   7.327   5.366   1.018
    4CHTO    C3 1658   7.423   5.255   1.318
    4CHTO   H16 1659   7.526   5.293   1.316
    4CHTO    N1 1660   7.430   5.108   1.286
    4CHTO    H8 1661   7.388   5.049   1.365
    4CHTO    H9 1662   7.379   5.087   1.193
    4CHTO    C4 1663   7.370   5.284   1.464
    4CHTO   H17 1664   7.270   5.241   1.474
    4CHTO    O1 1665   7.366   5.425   1.491
    4CHTO    C5 1666   7.285   5.503   1.402
    4CHTO   H18 1667   7.182   5.465   1.403
    4CHTO   C16 1668   7.283   5.650   1.453
    4CHTO   O11 1669   7.224   5.660   1.583
    4CHTO    H5 1670   7.282   5.624   1.647
    4CHTO    O3 1671   7.459   5.229   1.562
    4CHTO    C6 1672   7.399   5.194   1.691
    4CHTO   H19 1673   7.308   5.250   1.712
    4CHTO    C8 1674   7.364   5.041   1.696
    4CHTO   H21 1675   7.452   4.985   1.663
    4CHTO    O7 1676   7.256   5.018   1.602
    4CHTO    H2 1677   7.179   5.064   1.629
    4CHTO   C12 1678   7.325   4.995   1.842
    4CHTO   H25 1679   7.229   5.046   1.866
    4CHTO    N3 1680   7.300   4.847   1.848
    4CHTO   H12 1681   7.201   4.827   1.886
    4CHTO   H13 1682   7.374   4.798   1.909
    4CHTO   C15 1683   7.435   5.045   1.943
    4CHTO   H28 1684   7.530   4.995   1.927
    4CHTO   O10 1685   7.393   5.027   2.091
    4CHTO    H4 1686   7.465   5.047   2.147
    4CHTO    O5 1687   7.451   5.188   1.932
    4CHTO   C10 1688   7.500   5.229   1.803
    4CHTO   H23 1689   7.595   5.178   1.784
    4CHTO   C17 1690   7.529   5.380   1.808
    4CHTO   O12 1691   7.639   5.409   1.894
    4CHTO    H6 1692   7.616   5.391   1.983
    5CHTO  H203 1693   6.829   3.251   0.065
    5CHTO   O82 1694   6.743   3.255   0.026
    5CHTO  C123 1695   6.642   3.253   0.127
    5CHTO  H227 1696   6.656   3.342   0.192
    5CHTO   O77 1697   6.519   3.267   0.050
    5CHTO  C118 1698   6.398   3.270   0.129
    5CHTO  H222 1699   6.405   3.353   0.201
    5CHTO  C125 1700   6.277   3.297   0.031
    5CHTO   O84 1701   6.267   3.198   2.811
    5CHTO  H205 1702   6.341   3.206   2.753
    5CHTO  C114 1703   6.384   3.137   0.206
    5CHTO  H218 1704   6.381   3.055   0.134
    5CHTO  C116 1705   6.507   3.114   0.298
    5CHTO  H220 1706   6.510   3.193   0.377
    5CHTO   O79 1707   6.491   2.989   0.367
    5CHTO  H201 1708   6.491   2.917   0.306
    5CHTO  C120 1709   6.640   3.120   0.212
    5CHTO  H224 1710   6.637   3.032   0.143
    5CHTO   N21 1711   6.762   3.105   0.296
    5CHTO  H211 1712   6.841   3.060   0.238
    5CHTO  H212 1713   6.794   3.201   0.334
    5CHTO   O75 1714   6.259   3.146   0.277
    5CHTO  C112 1715   6.163   3.013   0.254
    5CHTO  H216 1716   6.221   2.922   0.276
    5CHTO   O73 1717   6.118   3.016   0.117
    5CHTO  C113 1718   6.043   2.901   0.077
    5CHTO  H217 1719   6.103   2.809   0.097
    5CHTO  C124 1720   6.027   2.914   2.809
    5CHTO   O83 1721   6.004   2.789   2.744
    5CHTO  H204 1722   5.919   2.756   2.767
    5CHTO  C109 1723   5.909   2.897   0.156
    5CHTO  H213 1724   5.851   2.986   0.125
    5CHTO  C110 1725   5.939   2.900   0.309
    5CHTO  H214 1726   5.984   2.805   0.337
    5CHTO   O78 1727   5.814   2.910   0.380
    5CHTO  H200 1728   5.828   2.902   0.472
    5CHTO  C111 1729   6.036   3.017   0.347
    5CHTO  H215 1730   5.984   3.112   0.329
    5CHTO   N19 1731   6.077   3.018   0.490
    5CHTO  H207 1732   6.127   2.925   0.514
    5CHTO  H208 1733   5.990   3.030   0.553
    5CHTO   O74 1734   5.831   2.777   0.125
    5CHTO  C115 1735   5.707   2.792   0.014
    5CHTO  H219 1736   5.692   2.896   2.869
    5CHTO   O76 1737   5.739   2.714   2.765
    5CHTO  C122 1738   5.635   2.707   2.666
    5CHTO  H226 1739   5.671   2.641   2.587
    5CHTO  C126 1740   5.616   2.848   2.599
    5CHTO   O85 1741   5.517   2.848   2.495
    5CHTO  H206 1742   5.432   2.839   2.533
    5CHTO  C121 1743   5.504   2.646   2.728
    5CHTO  H225 1744   5.423   2.655   2.652
    5CHTO   O81 1745   5.525   2.506   2.750
    5CHTO  H202 1746   5.589   2.493   2.817
    5CHTO  C119 1747   5.459   2.722   2.857
    5CHTO  H223 1748   5.435   2.823   2.822
    5CHTO  C117 1749   5.574   2.738   0.080
    5CHTO  H221 1750   5.605   2.647   0.131
    5CHTO   N20 1751   5.529   2.831   0.189
    5CHTO  H209 1752   5.439   2.793   0.234
    5CHTO  H210 1753   5.607   2.840   0.264
    5CHTO   O80 1754   5.312   2.673   0.031
    5CHTO  C103 1755   5.281   2.516   0.055
    5CHTO  H190 1756   5.303   2.458   2.850
    5CHTO  C101 1757   5.353   2.447   0.179
    5CHTO  H188 1758   5.342   2.512   0.266
    5CHTO   O68 1759   5.501   2.431   0.149
    5CHTO  H168 1760   5.541   2.515   0.137
    5CHTO   C99 1761   5.287   2.305   0.212
    5CHTO  H186 1762   5.307   2.236   0.127
    5CHTO   N17 1763   5.342   2.239   0.335
    5CHTO  H174 1764   5.449   2.226   0.325
    5CHTO  H175 1765   5.319   2.299   0.422
    5CHTO   C97 1766   5.132   2.318   0.219
    5CHTO  H184 1767   5.106   2.376   0.309
    5CHTO   O64 1768   5.080   2.378   0.099
    5CHTO  C104 1769   5.125   2.512   0.076
    5CHTO  H191 1770   5.098   2.578   0.158
    5CHTO  C108 1771   5.053   2.567   2.836
    5CHTO   O71 1772   4.912   2.579   2.858
    5CHTO  H171 1773   4.895   2.648   0.035
    5CHTO   O62 1774   5.070   2.188   0.222
    5CHTO   C91 1775   4.940   2.178   0.284
    5CHTO  H178 1776   4.936   2.250   0.366
    5CHTO   C92 1777   4.931   2.036   0.350
    5CHTO  H179 1778   5.021   2.018   0.412
    5CHTO   O66 1779   4.821   2.037   0.442
    5CHTO  H166 1780   4.820   1.958   0.493
    5CHTO   C93 1781   4.909   1.921   0.245
    5CHTO  H180 1782   4.870   1.834   0.300
    5CHTO   N16 1783   5.034   1.873   0.182
    5CHTO  H172 1784   5.012   1.793   0.112
    5CHTO  H173 1785   5.103   1.839   0.257
    5CHTO   C94 1786   4.803   1.964   0.136
    5CHTO  H181 1787   4.849   1.986   0.039
    5CHTO   O61 1788   4.732   2.084   0.173
    5CHTO   C95 1789   4.818   2.199   0.184
    5CHTO  H182 1790   4.858   2.223   0.085
    5CHTO  C106 1791   4.732   2.323   0.227
    5CHTO   O69 1792   4.636   2.358   0.126
    5CHTO  H169 1793   4.680   2.390   0.050
    5CHTO   O63 1794   4.700   1.846   0.121
    5CHTO   C96 1795   4.643   1.836   2.860
    5CHTO  H183 1796   4.701   1.901   2.794
    5CHTO   C98 1797   4.494   1.877   2.846
    5CHTO  H185 1798   4.432   1.816   0.029
    5CHTO   O67 1799   4.482   2.012   0.011
    5CHTO  H167 1800   4.392   2.039   0.011
    5CHTO  C102 1801   4.445   1.866   2.694
    5CHTO  H189 1802   4.497   1.947   2.640
    5CHTO   N18 1803   4.300   1.891   2.674
    5CHTO  H176 1804   4.275   1.885   2.570
    5CHTO  H177 1805   4.242   1.819   2.730
    5CHTO  C105 1806   4.491   1.731   2.630
    5CHTO  H192 1807   4.419   1.652   2.657
    5CHTO   O65 1808   4.623   1.686   2.666
    5CHTO  C100 1809   4.656   1.690   2.806
    5CHTO  H187 1810   4.587   1.624   2.861
    5CHTO  C107 1811   4.800   1.635   2.825
    5CHTO   O70 1812   4.810   1.497   2.787
    5CHTO  H170 1813   4.763   1.444   2.849
    5CHTO   O57 1814   4.490   1.760   2.473
    5CHTO   C85 1815   4.421   1.673   2.381
    5CHTO  H157 1816   4.324   1.647   2.430
    5CHTO   C83 1817   4.499   1.538   2.365
    5CHTO  H155 1818   4.496   1.486   2.460
    5CHTO   O56 1819   4.638   1.565   2.338
    5CHTO  H135 1820   4.647   1.607   2.254
    5CHTO   C81 1821   4.428   1.451   2.257
    5CHTO  H153 1822   4.324   1.436   2.289
    5CHTO   N14 1823   4.483   1.314   2.247
    5CHTO  H141 1824   4.482   1.266   2.343
    5CHTO  H142 1825   4.424   1.256   2.179
    5CHTO   C79 1826   4.426   1.528   2.120
    5CHTO  H151 1827   4.372   1.465   2.048
    5CHTO   O52 1828   4.349   1.651   2.135
    5CHTO   C86 1829   4.399   1.740   2.240
    5CHTO  H158 1830   4.495   1.779   2.200
    5CHTO   C90 1831   4.306   1.863   2.253
    5CHTO   O60 1832   4.303   1.939   2.131
    5CHTO  H138 1833   4.386   1.979   2.116
    5CHTO   O50 1834   4.556   1.558   2.066
    5CHTO   C73 1835   4.631   1.568   1.944
    5CHTO  H145 1836   4.564   1.586   1.859
    5CHTO   C74 1837   4.712   1.438   1.919
    5CHTO  H146 1838   4.639   1.355   1.913
    5CHTO   O54 1839   4.773   1.446   1.788
    5CHTO  H133 1840   4.837   1.514   1.786
    5CHTO   C75 1841   4.815   1.417   2.037
    5CHTO  H147 1842   4.758   1.403   2.130
    5CHTO   N13 1843   4.897   1.294   2.022
    5CHTO  H139 1844   5.002   1.319   2.014
    5CHTO  H140 1845   4.883   1.229   2.106
    5CHTO   C76 1846   4.904   1.549   2.058
    5CHTO  H148 1847   4.974   1.558   1.974
    5CHTO   O49 1848   4.821   1.670   2.065
    5CHTO   C77 1849   4.731   1.687   1.954
    5CHTO  H149 1850   4.789   1.692   1.861
    5CHTO   C88 1851   4.660   1.822   1.964
    5CHTO   O58 1852   4.755   1.931   1.950
    5CHTO  H136 1853   4.710   2.013   1.959
    5CHTO   O51 1854   4.979   1.543   2.201
    5CHTO   C78 1855   5.082   1.664   2.224
    5CHTO  H150 1856   5.067   1.745   2.150
    5CHTO   C80 1857   5.227   1.612   2.212
    5CHTO  H152 1858   5.239   1.524   2.280
    5CHTO   O55 1859   5.245   1.564   2.077
    5CHTO  H134 1860   5.238   1.635   2.016
    5CHTO   C84 1861   5.334   1.723   2.249
    5CHTO  H156 1862   5.330   1.799   2.171
    5CHTO   N15 1863   5.474   1.668   2.251
    5CHTO  H143 1864   5.518   1.675   2.348
    5CHTO  H144 1865   5.536   1.722   2.181
    5CHTO   C87 1866   5.298   1.793   2.383
    5CHTO  H159 1867   5.318   1.726   2.468
    5CHTO   O53 1868   5.148   1.835   2.383
    5CHTO   C82 1869   5.059   1.724   2.364
    5CHTO  H154 1870   5.076   1.649   2.441
    5CHTO   C89 1871   4.913   1.773   2.380
    5CHTO   O59 1872   4.886   1.816   2.513
    5CHTO  H137 1873   4.933   1.896   2.531
    5CHTO   O45 1874   5.385   1.933   2.400
    5CHTO   C67 1875   5.437   1.956   2.532
    5CHTO  H124 1876   5.381   1.898   2.605
    5CHTO   C65 1877   5.589   1.918   2.542
    5CHTO  H122 1878   5.609   1.850   2.460
    5CHTO   O44 1879   5.610   1.850   2.667
    5CHTO  H102 1880   5.698   1.817   2.671
    5CHTO   C63 1881   5.679   2.045   2.520
    5CHTO  H120 1882   5.647   2.095   2.428
    5CHTO   N11 1883   5.825   2.018   2.491
    5CHTO  H108 1884   5.849   2.047   2.391
    5CHTO  H109 1885   5.887   2.071   2.560
    5CHTO   C61 1886   5.651   2.147   2.638
    5CHTO  H118 1887   5.679   2.247   2.602
    5CHTO   O40 1888   5.509   2.153   2.674
    5CHTO   C68 1889   5.414   2.109   2.572
    5CHTO  H125 1890   5.426   2.173   2.482
    5CHTO   C72 1891   5.270   2.132   2.624
    5CHTO   O48 1892   5.241   2.271   2.646
    5CHTO  H105 1893   5.240   2.317   2.565
    5CHTO   O38 1894   5.724   2.113   2.758
    5CHTO   C55 1895   5.717   2.203   2.871
    5CHTO  H112 1896   5.619   2.251   2.875
    5CHTO   C56 1897   5.836   2.309   2.868
    5CHTO  H113 1898   5.929   2.252   2.853
    5CHTO   O42 1899   5.823   2.394   2.752
    5CHTO  H100 1900   5.742   2.442   2.756
    5CHTO   C57 1901   5.842   2.394   0.118
    5CHTO  H114 1902   5.757   2.463   0.115
    5CHTO   N10 1903   5.965   2.478   0.127
    5CHTO  H106 1904   5.947   2.574   0.081
    5CHTO  H107 1905   5.993   2.493   0.230
    5CHTO   C58 1906   5.828   2.303   0.242
    5CHTO  H115 1907   5.922   2.243   0.255
    5CHTO   O37 1908   5.717   2.213   0.229
    5CHTO   C59 1909   5.729   2.122   0.119
    5CHTO  H116 1910   5.825   2.070   0.124
    5CHTO   C70 1911   5.618   2.016   0.130
    5CHTO   O46 1912   5.636   1.931   0.244
    5CHTO  H103 1913   5.626   1.981   0.323
    5CHTO   O39 1914   5.805   2.400   0.382
    5CHTO   C60 1915   5.701   2.356   0.473
    5CHTO  H117 1916   5.613   2.331   0.414
    5CHTO   C62 1917   5.744   2.231   0.554
    5CHTO  H119 1918   5.770   2.152   0.479
    5CHTO   O43 1919   5.863   2.259   0.630
    5CHTO  H101 1920   5.846   2.325   0.695
    5CHTO   C66 1921   5.620   2.181   0.643
    5CHTO  H123 1922   5.535   2.164   0.576
    5CHTO   N12 1923   5.646   2.051   0.709
    5CHTO  H110 1924   5.730   2.060   0.776
    5CHTO  H111 1925   5.558   2.018   0.761
    5CHTO   C69 1926   5.579   2.294   0.741
    5CHTO  H126 1927   5.661   2.315   0.813
    5CHTO   O41 1928   5.546   2.424   0.661
    5CHTO   C64 1929   5.660   2.471   0.569
    5CHTO  H121 1930   5.748   2.502   0.629
    5CHTO   C71 1931   5.611   2.594   0.488
    5CHTO   O47 1932   5.579   2.703   0.576
    5CHTO  H104 1933   5.544   2.774   0.526
    5CHTO   O34 1934   5.454   2.256   0.821
    5CHTO   C49 1935   5.343   2.270   0.920
    5CHTO   H91 1936   5.376   2.220   1.011
    5CHTO   C47 1937   5.219   2.199   0.862
    5CHTO   H89 1938   5.141   2.202   0.941
    5CHTO   O33 1939   5.254   2.062   0.836
    5CHTO   H70 1940   5.178   2.015   0.806
    5CHTO   C45 1941   5.170   2.281   0.732
    5CHTO   H87 1942   5.256   2.294   0.664
    5CHTO    N8 1943   5.062   2.213   0.656
    5CHTO   H75 1944   5.095   2.115   0.625
    5CHTO   H76 1945   4.974   2.204   0.718
    5CHTO   C43 1946   5.130   2.429   0.779
    5CHTO   H85 1947   5.100   2.483   0.689
    5CHTO   O29 1948   5.241   2.492   0.845
    5CHTO   C50 1949   5.310   2.420   0.950
    5CHTO   H92 1950   5.406   2.471   0.965
    5CHTO   C54 1951   5.238   2.441   1.085
    5CHTO   O36 1952   5.306   2.379   1.194
    5CHTO   H72 1953   5.301   2.286   1.187
    5CHTO   O27 1954   5.013   2.428   0.863
    5CHTO   C37 1955   4.907   2.461   0.954
    5CHTO   H79 1956   4.934   2.433   1.057
    5CHTO   C38 1957   4.877   2.613   0.953
    5CHTO   H80 1958   4.859   2.645   0.849
    5CHTO   O31 1959   4.995   2.680   1.003
    5CHTO   H68 1960   4.984   2.773   0.997
    5CHTO   C39 1961   4.750   2.646   1.041
    5CHTO   H81 1962   4.774   2.621   1.145
    5CHTO    N7 1963   4.712   2.791   1.038
    5CHTO   H73 1964   4.794   2.851   1.074
    5CHTO   H74 1965   4.625   2.808   1.101
    5CHTO   C40 1966   4.629   2.555   0.998
    5CHTO   H82 1967   4.591   2.586   0.900
    5CHTO   O26 1968   4.666   2.416   0.999
    5CHTO   C41 1969   4.779   2.381   0.914
    5CHTO   H83 1970   4.754   2.404   0.809
    5CHTO   C52 1971   4.798   2.228   0.926
    5CHTO   O35 1972   4.823   2.182   1.067
    5CHTO   H71 1973   4.743   2.187   1.116
    5CHTO   O28 1974   4.524   2.552   1.096
    5CHTO   C42 1975   4.382   2.551   1.058
    5CHTO   H84 1976   4.363   2.651   1.020
    5CHTO   C44 1977   4.287   2.532   1.181
    5CHTO   H86 1978   4.327   2.592   1.264
    5CHTO   O32 1979   4.158   2.588   1.154
    5CHTO   H69 1980   4.104   2.586   1.231
    5CHTO   C48 1981   4.271   2.380   1.227
    5CHTO   H90 1982   4.165   2.354   1.217
    5CHTO    N9 1983   4.299   2.361   1.373
    5CHTO   H77 1984   4.284   2.258   1.401
    5CHTO   H78 1985   4.401   2.391   1.394
    5CHTO   C51 1986   4.349   2.278   1.134
    5CHTO   H93 1987   4.456   2.289   1.152
    5CHTO   O30 1988   4.313   2.306   0.998
    5CHTO   C46 1989   4.346   2.449   0.943
    5CHTO   H88 1990   4.432   2.438   0.878
    5CHTO   C53 1991   4.227   2.499   0.859
    5CHTO   O72 1992   4.207   2.413   0.745
    5CHTO  H199 1993   4.134   2.445   0.695
    5CHTO   O22 1994   4.307   2.142   1.157
    5CHTO   C31 1995   4.379   2.020   1.111
    5CHTO   H59 1996   4.304   1.938   1.117
    5CHTO   C29 1997   4.428   2.024   0.964
    5CHTO   H57 1998   4.492   2.113   0.953
    5CHTO   O21 1999   4.313   2.044   0.880
    5CHTO   H37 2000   4.339   2.061   0.792
    5CHTO   C27 2001   4.511   1.895   0.922
    5CHTO   H55 2002   4.443   1.808   0.926
    5CHTO    N5 2003   4.568   1.905   0.786
    5CHTO   H43 2004   4.617   1.813   0.759
    5CHTO   H44 2005   4.638   1.987   0.781
    5CHTO   C25 2006   4.622   1.871   1.030
    5CHTO   H53 2007   4.691   1.957   1.030
    5CHTO   O17 2008   4.561   1.859   1.161
    5CHTO   C32 2009   4.495   1.978   1.208
    5CHTO   H60 2010   4.566   2.060   1.215
    5CHTO   C36 2011   4.442   1.941   1.348
    5CHTO   O25 2012   4.400   2.055   1.423
    5CHTO   H40 2013   4.370   2.028   1.507
    5CHTO   O15 2014   4.707   1.736   1.001
    5CHTO   C19 2015   4.837   1.706   1.062
    5CHTO   H47 2016   4.857   1.793   1.127
    5CHTO   C20 2017   4.840   1.577   1.149
    5CHTO   H48 2018   4.815   1.487   1.090
    5CHTO   O19 2019   4.739   1.593   1.251
    5CHTO   H35 2020   4.654   1.590   1.213
    5CHTO   C21 2021   4.983   1.555   1.214
    5CHTO   H49 2022   5.001   1.635   1.286
    5CHTO    N4 2023   4.995   1.428   1.291
    5CHTO   H41 2024   5.032   1.447   1.390
    5CHTO   H42 2025   4.899   1.378   1.298
    5CHTO   C22 2026   5.094   1.568   1.106
    5CHTO   H50 2027   5.092   1.480   1.041
    5CHTO   O14 2028   5.079   1.687   1.028
    5CHTO   C23 2029   4.954   1.701   0.959
    5CHTO   H51 2030   4.944   1.615   0.891
    5CHTO   C34 2031   4.961   1.827   0.871
    5CHTO   O23 2032   4.988   1.945   0.948
    5CHTO   H38 2033   4.915   1.965   1.002
    5CHTO   O16 2034   5.224   1.584   1.167
    5CHTO   C24 2035   5.349   1.541   1.072
    5CHTO   H52 2036   5.318   1.522   0.969
    5CHTO   C26 2037   5.413   1.414   1.131
    5CHTO   H54 2038   5.437   1.432   1.239
    5CHTO   O20 2039   5.315   1.309   1.123
    5CHTO   H36 2040   5.346   1.232   1.166
    5CHTO   C30 2041   5.546   1.377   1.057
    5CHTO   H58 2042   5.523   1.351   0.952
    5CHTO    N6 2043   5.611   1.257   1.117
    5CHTO   H45 2044   5.709   1.281   1.155
    5CHTO   H46 2045   5.619   1.178   1.044
    5CHTO   C33 2046   5.639   1.503   1.053
    5CHTO   H61 2047   5.665   1.530   1.157
    5CHTO   O18 2048   5.568   1.612   0.994
    5CHTO   C28 2049   5.453   1.656   1.067
    5CHTO   H56 2050   5.480   1.684   1.169
    5CHTO   C35 2051   5.393   1.780   0.995
    5CHTO   O24 2052   5.483   1.891   0.992
    5CHTO   H39 2053   5.556   1.872   0.936
    5CHTO    O9 2054   5.766   1.480   0.988
    5CHTO   C13 2055   5.763   1.459   0.827
    5CHTO   H26 2056   5.667   1.411   0.799
    5CHTO   C11 2057   5.886   1.368   0.785
    5CHTO   H24 2058   5.873   1.271   0.835
    5CHTO    O8 2059   6.010   1.424   0.834
    5CHTO    H3 2060   6.081   1.364   0.818
    5CHTO    C9 2061   5.880   1.346   0.632
    5CHTO   H22 2062   5.783   1.299   0.613
    5CHTO    N2 2063   5.979   1.247   0.583
    5CHTO   H10 2064   5.962   1.227   0.478
    5CHTO   H11 2065   5.971   1.155   0.640
    5CHTO    C7 2066   5.883   1.484   0.555
    5CHTO   H20 2067   5.854   1.457   0.453
    5CHTO    O4 2068   5.784   1.577   0.606
    5CHTO   C14 2069   5.766   1.597   0.747
    5CHTO   H27 2070   5.667   1.645   0.759
    5CHTO   C18 2071   5.872   1.700   0.797
    5CHTO   O13 2072   5.845   1.744   0.930
    5CHTO    H7 2073   5.914   1.801   0.958
    5CHTO    O2 2074   6.030   1.558   0.548
    5CHTO    C1 2075   6.067   1.596   0.413
    5CHTO   H14 2076   5.982   1.578   0.343
    5CHTO    C2 2077   6.193   1.515   0.359
    5CHTO   H15 2078   6.269   1.522   0.438
    5CHTO    O6 2079   6.156   1.378   0.341
    5CHTO    H1 2080   6.232   1.326   0.323
    5CHTO    C3 2081   6.248   1.578   0.221
    5CHTO   H16 2082   6.174   1.560   0.142
    5CHTO    N1 2083   6.377   1.514   0.177
    5CHTO    H8 2084   6.362   1.408   0.162
    5CHTO    H9 2085   6.453   1.530   0.252
    5CHTO    C4 2086   6.260   1.734   0.235
    5CHTO   H17 2087   6.338   1.757   0.307
    5CHTO    O1 2088   6.135   1.790   0.276
    5CHTO    C5 2089   6.093   1.749   0.408
    5CHTO   H18 2090   6.171   1.774   0.480
    5CHTO   C16 2091   5.965   1.830   0.443
    5CHTO   O11 2092   5.992   1.971   0.448
    5CHTO    H5 2093   5.911   2.017   0.461
    5CHTO    O3 2094   6.289   1.797   0.108
    5CHTO    C6 2095   6.360   1.925   0.119
    5CHTO   H19 2096   6.354   1.968   0.219
    5CHTO    C8 2097   6.511   1.905   0.084
    5CHTO   H21 2098   6.517   1.857   2.869
    5CHTO    O7 2099   6.567   1.817   0.183
    5CHTO    H2 2100   6.656   1.796   0.161
    5CHTO   C12 2101   6.585   2.044   0.079
    5CHTO   H25 2102   6.583   2.085   0.182
    5CHTO    N3 2103   6.730   2.029   0.040
    5CHTO   H12 2104   6.781   1.968   0.113
    5CHTO   H13 2105   6.738   1.986   2.826
    5CHTO   C15 2106   6.506   2.142   2.869
    5CHTO   H28 2107   6.510   2.110   2.765
    5CHTO   O10 2108   6.555   2.289   2.879
    5CHTO    H4 2109   6.555   2.317   0.085
    5CHTO    O5 2110   6.369   2.152   0.028
    5CHTO   C10 2111   6.296   2.028   0.021
    5CHTO   H23 2112   6.300   1.991   2.803
    5CHTO   C17 2113   6.150   2.061   0.054
    5CHTO   O12 2114   6.062   1.952   0.026
    5CHTO    H6 2115   5.975   1.975   0.052
    6CHTO  H203 2116   3.603   3.912   0.656
    6CHTO   O82 2117   3.643   3.886   0.575
    6CHTO  C123 2118   3.775   3.834   0.598
    6CHTO  H227 2119   3.817   3.799   0.502
    6CHTO   O77 2120   3.850   3.950   0.645
    6CHTO  C118 2121   3.989   3.925   0.668
    6CHTO  H222 2122   4.035   3.884   0.576
    6CHTO  C125 2123   4.056   4.064   0.698
    6CHTO   O84 2124   3.995   4.130   0.809
    6CHTO  H205 2125   4.040   4.210   0.827
    6CHTO  C114 2126   4.005   3.824   0.783
    6CHTO  H218 2127   3.960   3.867   0.873
    6CHTO  C116 2128   3.930   3.692   0.750
    6CHTO  H220 2129   3.984   3.640   0.667
    6CHTO   O79 2130   3.939   3.605   0.864
    6CHTO  H201 2131   3.903   3.521   0.844
    6CHTO  C120 2132   3.780   3.721   0.708
    6CHTO  H224 2133   3.727   3.755   0.800
    6CHTO   N21 2134   3.710   3.598   0.660
    6CHTO  H211 2135   3.605   3.606   0.681
    6CHTO  H212 2136   3.751   3.510   0.708
    6CHTO   O75 2137   4.147   3.807   0.801
    6CHTO  C112 2138   4.196   3.833   0.957
    6CHTO  H216 2139   4.126   3.782   1.025
    6CHTO   O73 2140   4.196   3.975   0.979
    6CHTO  C113 2141   4.222   4.012   1.114
    6CHTO  H217 2142   4.147   3.965   1.181
    6CHTO  C124 2143   4.205   4.164   1.125
    6CHTO   O83 2144   4.076   4.211   1.085
    6CHTO  H204 2145   4.069   4.207   0.991
    6CHTO  C109 2146   4.366   3.970   1.156
    6CHTO  H213 2147   4.436   4.033   1.098
    6CHTO  C110 2148   4.391   3.819   1.123
    6CHTO  H214 2149   4.340   3.759   1.199
    6CHTO   O78 2150   4.532   3.795   1.137
    6CHTO  H200 2151   4.551   3.703   1.128
    6CHTO  C111 2152   4.342   3.779   0.981
    6CHTO  H215 2153   4.407   3.826   0.906
    6CHTO   N19 2154   4.348   3.632   0.956
    6CHTO  H207 2155   4.251   3.590   0.938
    6CHTO  H208 2156   4.413   3.611   0.873
    6CHTO   O74 2157   4.385   3.998   1.298
    6CHTO  C115 2158   4.537   4.039   1.342
    6CHTO  H219 2159   4.611   3.976   1.293
    6CHTO   O76 2160   4.572   4.184   1.299
    6CHTO  C122 2161   4.479   4.282   1.349
    6CHTO  H226 2162   4.391   4.279   1.286
    6CHTO  C126 2163   4.542   4.424   1.327
    6CHTO   O85 2164   4.567   4.453   1.189
    6CHTO  H206 2165   4.637   4.399   1.157
    6CHTO  C121 2166   4.438   4.260   1.500
    6CHTO  H225 2167   4.440   4.358   1.553
    6CHTO   O81 2168   4.302   4.214   1.508
    6CHTO  H202 2169   4.293   4.130   1.466
    6CHTO  C119 2170   4.535   4.162   1.573
    6CHTO  H223 2171   4.632   4.212   1.568
    6CHTO  C117 2172   4.547   4.022   1.499
    6CHTO  H221 2173   4.467   3.952   1.523
    6CHTO   N20 2174   4.673   3.950   1.539
    6CHTO  H209 2175   4.650   3.862   1.596
    6CHTO  H210 2176   4.740   4.014   1.594
    6CHTO   O80 2177   4.509   4.156   1.732
    6CHTO  C103 2178   4.634   4.150   1.835
    6CHTO  H190 2179   4.688   4.056   1.826
    6CHTO  C101 2180   4.738   4.270   1.832
    6CHTO  H188 2181   4.683   4.363   1.822
    6CHTO   O68 2182   4.830   4.253   1.707
    6CHTO  H168 2183   4.779   4.254   1.628
    6CHTO   C99 2184   4.826   4.278   1.966
    6CHTO  H186 2185   4.892   4.189   1.971
    6CHTO   N17 2186   4.915   4.398   1.974
    6CHTO  H174 2187   4.856   4.489   1.980
    6CHTO  H175 2188   4.982   4.390   2.058
    6CHTO   C97 2189   4.733   4.268   2.091
    6CHTO  H184 2190   4.668   4.357   2.094
    6CHTO   O64 2191   4.657   4.147   2.082
    6CHTO  C104 2192   4.561   4.148   1.976
    6CHTO  H191 2193   4.497   4.236   1.983
    6CHTO  C108 2194   4.469   4.027   1.994
    6CHTO   O71 2195   4.541   3.902   1.996
    6CHTO  H171 2196   4.578   3.885   1.911
    6CHTO   O62 2197   4.804   4.252   2.215
    6CHTO   C91 2198   4.741   4.301   2.336
    6CHTO  H178 2199   4.743   4.410   2.330
    6CHTO   C92 2200   4.834   4.261   2.456
    6CHTO  H179 2201   4.936   4.298   2.437
    6CHTO   O66 2202   4.790   4.332   2.573
    6CHTO  H166 2203   4.850   4.319   2.644
    6CHTO   C93 2204   4.830   4.106   2.486
    6CHTO  H180 2205   4.845   4.092   2.595
    6CHTO   N16 2206   4.940   4.030   2.422
    6CHTO  H172 2207   5.035   4.070   2.455
    6CHTO  H173 2208   4.933   3.925   2.446
    6CHTO   C94 2209   4.689   4.045   2.448
    6CHTO  H181 2210   4.685   4.015   2.343
    6CHTO   O61 2211   4.587   4.145   2.465
    6CHTO   C95 2212   4.591   4.250   2.366
    6CHTO  H182 2213   4.544   4.213   2.275
    6CHTO  C106 2214   4.498   4.366   2.417
    6CHTO   O69 2215   4.485   4.469   2.318
    6CHTO  H169 2216   4.431   4.439   2.247
    6CHTO   O63 2217   4.656   3.921   2.540
    6CHTO   C96 2218   4.529   3.843   2.488
    6CHTO  H183 2219   4.501   3.882   2.390
    6CHTO   C98 2220   4.405   3.855   2.580
    6CHTO  H185 2221   4.428   3.812   2.679
    6CHTO   O67 2222   4.378   3.994   2.604
    6CHTO  H167 2223   4.308   4.003   2.666
    6CHTO  C102 2224   4.278   3.783   2.514
    6CHTO  H189 2225   4.241   3.854   2.437
    6CHTO   N18 2226   4.163   3.763   2.605
    6CHTO  H176 2227   4.081   3.716   2.553
    6CHTO  H177 2228   4.131   3.858   2.646
    6CHTO  C105 2229   4.322   3.653   2.440
    6CHTO  H192 2230   4.249   3.573   2.458
    6CHTO   O65 2231   4.450   3.602   2.482
    6CHTO  C100 2232   4.564   3.689   2.471
    6CHTO  H187 2233   4.633   3.662   2.553
    6CHTO  C107 2234   4.638   3.659   2.338
    6CHTO   O70 2235   4.762   3.729   2.331
    6CHTO  H170 2236   4.804   3.709   2.249
    6CHTO   O57 2237   4.318   3.692   2.280
    6CHTO   C85 2238   4.220   3.629   2.196
    6CHTO  H157 2239   4.143   3.587   2.264
    6CHTO   C83 2240   4.284   3.507   2.122
    6CHTO  H155 2241   4.325   3.439   2.198
    6CHTO   O56 2242   4.395   3.550   2.042
    6CHTO  H135 2243   4.463   3.586   2.096
    6CHTO   C81 2244   4.172   3.433   2.044
    6CHTO  H153 2245   4.096   3.401   2.115
    6CHTO   N14 2246   4.218   3.305   1.982
    6CHTO  H141 2247   4.174   3.221   2.032
    6CHTO  H142 2248   4.324   3.296   1.986
    6CHTO   C79 2249   4.103   3.529   1.939
    6CHTO  H151 2250   4.013   3.478   1.903
    6CHTO   O52 2251   4.056   3.652   2.004
    6CHTO   C86 2252   4.157   3.722   2.085
    6CHTO  H158 2253   4.233   3.756   2.012
    6CHTO   C90 2254   4.093   3.849   2.144
    6CHTO   O60 2255   4.190   3.938   2.201
    6CHTO  H138 2256   4.222   3.902   2.281
    6CHTO   O50 2257   4.182   3.563   1.824
    6CHTO   C73 2258   4.128   3.594   1.694
    6CHTO  H145 2259   4.033   3.649   1.705
    6CHTO   C74 2260   4.101   3.464   1.611
    6CHTO  H146 2261   4.031   3.403   1.670
    6CHTO   O54 2262   4.030   3.500   1.491
    6CHTO  H133 2263   4.083   3.556   1.437
    6CHTO   C75 2264   4.238   3.390   1.585
    6CHTO  H147 2265   4.280   3.359   1.682
    6CHTO   N13 2266   4.226   3.265   1.507
    6CHTO  H139 2267   4.161   3.195   1.558
    6CHTO  H140 2268   4.183   3.286   1.410
    6CHTO   C76 2269   4.344   3.490   1.519
    6CHTO  H148 2270   4.313   3.512   1.417
    6CHTO   O49 2271   4.352   3.616   1.595
    6CHTO   C77 2272   4.227   3.683   1.613
    6CHTO  H149 2273   4.184   3.705   1.516
    6CHTO   C88 2274   4.251   3.821   1.677
    6CHTO   O58 2275   4.332   3.812   1.793
    6CHTO  H136 2276   4.345   3.898   1.829
    6CHTO   O51 2277   4.495   3.424   1.527
    6CHTO   C78 2278   4.612   3.530   1.501
    6CHTO  H150 2279   4.577   3.634   1.519
    6CHTO   C80 2280   4.665   3.520   1.357
    6CHTO  H152 2281   4.708   3.419   1.342
    6CHTO   O55 2282   4.553   3.536   1.267
    6CHTO  H134 2283   4.494   3.463   1.275
    6CHTO   C84 2284   4.776   3.629   1.334
    6CHTO  H156 2285   4.728   3.727   1.346
    6CHTO   N15 2286   4.835   3.629   1.196
    6CHTO  H143 2287   4.878   3.533   1.175
    6CHTO  H144 2288   4.760   3.651   1.124
    6CHTO   C87 2289   4.887   3.616   1.442
    6CHTO  H159 2290   4.949   3.529   1.422
    6CHTO   O53 2291   4.825   3.607   1.586
    6CHTO   C82 2292   4.727   3.503   1.599
    6CHTO  H154 2293   4.773   3.406   1.579
    6CHTO   C89 2294   4.678   3.499   1.746
    6CHTO   O59 2295   4.621   3.623   1.789
    6CHTO  H137 2296   4.601   3.618   1.881
    6CHTO   O45 2297   4.974   3.748   1.442
    6CHTO   C67 2298   5.116   3.728   1.449
    6CHTO  H124 2299   5.147   3.643   1.388
    6CHTO   C65 2300   5.187   3.857   1.398
    6CHTO  H122 2301   5.140   3.879   1.302
    6CHTO   O44 2302   5.327   3.832   1.376
    6CHTO  H102 2303   5.367   3.905   1.334
    6CHTO   C63 2304   5.151   3.976   1.493
    6CHTO  H120 2305   5.042   3.985   1.497
    6CHTO   N11 2306   5.192   4.112   1.443
    6CHTO  H108 2307   5.106   4.169   1.415
    6CHTO  H109 2308   5.247   4.165   1.518
    6CHTO   C61 2309   5.197   3.942   1.640
    6CHTO  H118 2310   5.147   4.016   1.704
    6CHTO   O40 2311   5.153   3.811   1.687
    6CHTO   C68 2312   5.158   3.694   1.599
    6CHTO  H125 2313   5.082   3.623   1.638
    6CHTO   C72 2314   5.295   3.623   1.611
    6CHTO   O48 2315   5.303   3.501   1.537
    6CHTO  H105 2316   5.246   3.437   1.577
    6CHTO   O38 2317   5.340   3.950   1.656
    6CHTO   C55 2318   5.390   4.018   1.773
    6CHTO  H112 2319   5.329   3.989   1.860
    6CHTO   C56 2320   5.391   4.176   1.751
    6CHTO  H113 2321   5.427   4.193   1.648
    6CHTO   O42 2322   5.257   4.227   1.756
    6CHTO  H100 2323   5.207   4.194   1.684
    6CHTO   C57 2324   5.483   4.252   1.855
    6CHTO  H114 2325   5.434   4.248   1.952
    6CHTO   N10 2326   5.501   4.396   1.820
    6CHTO  H106 2327   5.595   4.433   1.857
    6CHTO  H107 2328   5.497   4.410   1.713
    6CHTO   C58 2329   5.619   4.178   1.864
    6CHTO  H115 2330   5.667   4.178   1.763
    6CHTO   O37 2331   5.596   4.042   1.906
    6CHTO   C59 2332   5.533   3.964   1.803
    6CHTO  H116 2333   5.594   3.964   1.713
    6CHTO   C70 2334   5.523   3.818   1.851
    6CHTO   O46 2335   5.650   3.761   1.883
    6CHTO  H103 2336   5.637   3.672   1.912
    6CHTO   O39 2337   5.721   4.246   1.974
    6CHTO   C60 2338   5.856   4.255   1.923
    6CHTO  H117 2339   5.880   4.163   1.871
    6CHTO   C62 2340   5.871   4.374   1.823
    6CHTO  H119 2341   5.799   4.355   1.740
    6CHTO   O43 2342   5.835   4.497   1.888
    6CHTO  H101 2343   5.838   4.568   1.827
    6CHTO   C66 2344   6.020   4.375   1.762
    6CHTO  H123 2345   6.038   4.279   1.714
    6CHTO   N12 2346   6.038   4.478   1.657
    6CHTO  H110 2347   5.947   4.534   1.640
    6CHTO  H111 2348   6.073   4.433   1.565
    6CHTO   C69 2349   6.124   4.388   1.877
    6CHTO  H126 2350   6.113   4.487   1.927
    6CHTO   O41 2351   6.100   4.272   1.983
    6CHTO   C64 2352   5.958   4.270   2.039
    6CHTO  H121 2353   5.939   4.366   2.092
    6CHTO   C71 2354   5.943   4.157   2.145
    6CHTO   O47 2355   5.964   4.027   2.090
    6CHTO  H104 2356   5.896   4.007   2.029
    6CHTO   O34 2357   6.272   4.377   1.821
    6CHTO   C49 2358   6.380   4.487   1.815
    6CHTO   H91 2359   6.341   4.568   1.753
    6CHTO   C47 2360   6.508   4.429   1.752
    6CHTO   H89 2361   6.579   4.513   1.740
    6CHTO   O33 2362   6.475   4.379   1.620
    6CHTO   H70 2363   6.416   4.306   1.627
    6CHTO   C45 2364   6.570   4.316   1.849
    6CHTO   H87 2365   6.494   4.236   1.858
    6CHTO    N8 2366   6.693   4.257   1.791
    6CHTO   H75 2367   6.676   4.153   1.765
    6CHTO   H76 2368   6.775   4.263   1.861
    6CHTO   C43 2369   6.589   4.372   2.000
    6CHTO   H85 2370   6.606   4.283   2.061
    6CHTO   O29 2371   6.472   4.444   2.044
    6CHTO   C50 2372   6.413   4.542   1.956
    6CHTO   H92 2373   6.318   4.574   2.002
    6CHTO   C54 2374   6.494   4.674   1.948
    6CHTO   O36 2375   6.512   4.735   2.076
    6CHTO   H72 2376   6.429   4.768   2.107
    6CHTO   O27 2377   6.705   4.455   2.019
    6CHTO   C37 2378   6.800   4.448   2.127
    6CHTO   H79 2379   6.797   4.348   2.173
    6CHTO   C38 2380   6.945   4.466   2.072
    6CHTO   H80 2381   6.948   4.557   2.011
    6CHTO   O31 2382   6.973   4.352   1.989
    6CHTO   H68 2383   7.056   4.362   1.947
    6CHTO   C39 2384   7.051   4.479   2.189
    6CHTO   H81 2385   7.052   4.384   2.242
    6CHTO    N7 2386   7.192   4.506   2.141
    6CHTO   H73 2387   7.258   4.427   2.174
    6CHTO   H74 2388   7.195   4.514   2.033
    6CHTO   C40 2389   7.005   4.589   2.291
    6CHTO   H82 2390   7.009   4.688   2.245
    6CHTO   O26 2391   6.873   4.558   2.338
    6CHTO   C41 2392   6.769   4.555   2.236
    6CHTO   H83 2393   6.762   4.654   2.189
    6CHTO   C52 2394   6.637   4.528   2.310
    6CHTO   O35 2395   6.635   4.395   2.379
    6CHTO   H71 2396   6.547   4.376   2.407
    6CHTO   O28 2397   7.083   4.590   2.412
    6CHTO   C42 2398   7.086   4.709   2.498
    6CHTO   H84 2399   7.004   4.772   2.463
    6CHTO   C44 2400   7.216   4.796   2.484
    6CHTO   H86 2401   7.302   4.732   2.502
    6CHTO   O32 2402   7.223   4.842   2.348
    6CHTO   H69 2403   7.239   4.770   2.290
    6CHTO   C48 2404   7.222   4.918   2.586
    6CHTO   H90 2405   7.150   4.992   2.553
    6CHTO    N9 2406   7.355   4.989   2.584
    6CHTO   H77 2407   7.421   4.945   2.511
    6CHTO   H78 2408   7.402   4.987   2.682
    6CHTO   C51 2409   7.179   4.873   2.731
    6CHTO   H93 2410   7.257   4.809   2.773
    6CHTO   O30 2411   7.052   4.805   2.724
    6CHTO   C46 2412   7.059   4.677   2.647
    6CHTO   H88 2413   7.141   4.616   2.687
    6CHTO   C53 2414   6.925   4.603   2.667
    6CHTO   O72 2415   6.908   4.564   2.804
    6CHTO  H199 2416   6.827   4.517   2.814
    6CHTO   O22 2417   7.158   4.988   2.815
    6CHTO   C31 2418   7.087   4.989   0.061
    6CHTO   H59 2419   7.023   4.898   0.062
    6CHTO   C29 2420   7.179   4.981   0.185
    6CHTO   H57 2421   7.251   5.065   0.178
    6CHTO   O21 2422   7.256   4.860   0.177
    6CHTO   H37 2423   7.314   4.862   0.103
    6CHTO   C27 2424   7.098   4.993   0.320
    6CHTO   H55 2425   7.036   4.904   0.332
    6CHTO    N5 2426   7.187   5.003   0.439
    6CHTO   H43 2427   7.248   5.092   0.432
    6CHTO   H44 2428   7.250   4.916   0.446
    6CHTO   C25 2429   7.000   5.116   0.313
    6CHTO   H53 2430   7.059   5.209   0.306
    6CHTO   O17 2431   6.916   5.106   0.194
    6CHTO   C32 2432   6.990   5.110   0.072
    6CHTO   H60 2433   7.049   5.202   0.069
    6CHTO   C36 2434   6.891   5.111   2.837
    6CHTO   O25 2435   6.827   5.238   2.826
    6CHTO   H40 2436   6.769   5.237   2.751
    6CHTO   O15 2437   6.906   5.124   0.440
    6CHTO   C19 2438   6.802   5.218   0.481
    6CHTO   H47 2439   6.795   5.203   0.590
    6CHTO   C20 2440   6.835   5.368   0.453
    6CHTO   H48 2441   6.850   5.387   0.346
    6CHTO   O19 2442   6.958   5.396   0.521
    6CHTO   H35 2443   6.989   5.482   0.499
    6CHTO   C21 2444   6.718   5.462   0.505
    6CHTO   H49 2445   6.712   5.453   0.613
    6CHTO    N4 2446   6.742   5.605   0.474
    6CHTO   H41 2447   6.660   5.665   0.510
    6CHTO   H42 2448   6.752   5.619   0.368
    6CHTO   C22 2449   6.582   5.411   0.448
    6CHTO   H50 2450   6.583   5.425   0.339
    6CHTO   O14 2451   6.563   5.272   0.478
    6CHTO   C23 2452   6.662   5.183   0.423
    6CHTO   H51 2453   6.658   5.193   0.313
    6CHTO   C34 2454   6.623   5.039   0.458
    6CHTO   O23 2455   6.498   5.001   0.399
    6CHTO   H38 2456   6.508   4.996   0.306
    6CHTO   O16 2457   6.469   5.477   0.508
    6CHTO   C24 2458   6.349   5.509   0.400
    6CHTO   H52 2459   6.363   5.455   0.306
    6CHTO   C26 2460   6.344   5.661   0.373
    6CHTO   H54 2461   6.327   5.714   0.469
    6CHTO   O20 2462   6.472   5.704   0.322
    6CHTO   H36 2463   6.490   5.664   0.239
    6CHTO   C30 2464   6.229   5.696   0.274
    6CHTO   H58 2465   6.255   5.658   0.174
    6CHTO    N6 2466   6.213   5.843   0.258
    6CHTO   H45 2467   6.134   5.865   0.188
    6CHTO   H46 2468   6.305   5.887   0.222
    6CHTO   C33 2469   6.094   5.627   0.311
    6CHTO   H61 2470   6.044   5.683   0.393
    6CHTO   O18 2471   6.112   5.491   0.356
    6CHTO   C28 2472   6.212   5.466   0.456
    6CHTO   H56 2473   6.190   5.524   0.547
    6CHTO   C35 2474   6.212   5.316   0.490
    6CHTO   O24 2475   6.085   5.272   0.541
    6CHTO   H39 2476   6.060   5.193   0.497
    6CHTO    O9 2477   6.004   5.634   0.198
    6CHTO   C13 2478   5.848   5.665   0.231
    6CHTO   H26 2479   5.844   5.752   0.300
    6CHTO   C11 2480   5.779   5.537   0.295
    6CHTO   H24 2481   5.826   5.519   0.393
    6CHTO    O8 2482   5.803   5.421   0.212
    6CHTO    H3 2483   5.895   5.403   0.208
    6CHTO    C9 2484   5.628   5.570   0.314
    6CHTO   H22 2485   5.626   5.663   0.372
    6CHTO    N2 2486   5.558   5.472   0.401
    6CHTO   H10 2487   5.612   5.460   0.494
    6CHTO   H11 2488   5.457   5.505   0.419
    6CHTO    C7 2489   5.560   5.599   0.173
    6CHTO   H20 2490   5.499   5.690   0.192
    6CHTO    O4 2491   5.655   5.626   0.068
    6CHTO   C14 2492   5.767   5.711   0.101
    6CHTO   H27 2493   5.726   5.813   0.119
    6CHTO   C18 2494   5.855   5.722   2.857
    6CHTO   O13 2495   5.898   5.593   2.810
    6CHTO    H7 2496   5.824   5.546   2.775
    6CHTO    O2 2497   5.458   5.477   0.119
    6CHTO    C1 2498   5.352   5.522   0.033
    6CHTO   H14 2499   5.383   5.617   2.867
    6CHTO    C2 2500   5.215   5.546   0.109
    6CHTO   H15 2501   5.194   5.453   0.164
    6CHTO    O6 2502   5.233   5.654   0.202
    6CHTO    H1 2503   5.156   5.663   0.256
    6CHTO    C3 2504   5.096   5.578   0.005
    6CHTO   H16 2505   5.115   5.676   2.844
    6CHTO    N1 2506   4.962   5.584   0.073
    6CHTO    H8 2507   4.963   5.661   0.149
    6CHTO    H9 2508   4.885   5.607   0.000
    6CHTO    C4 2509   5.098   5.474   2.770
    6CHTO   H17 2510   5.066   5.377   2.808
    6CHTO    O1 2511   5.229   5.462   2.713
    6CHTO    C5 2512   5.331   5.418   2.804
    6CHTO   H18 2513   5.301   5.323   2.850
    6CHTO   C16 2514   5.460   5.395   2.722
    6CHTO   O11 2515   5.440   5.297   2.619
    6CHTO    H5 2516   5.426   5.213   2.658
    6CHTO    O3 2517   5.012   5.507   2.658
    6CHTO    C6 2518   5.001   5.642   2.598
    6CHTO   H19 2519   4.983   5.719   2.673
    6CHTO    C8 2520   5.128   5.684   2.516
    6CHTO   H21 2521   5.158   5.599   2.453
    6CHTO    O7 2522   5.234   5.714   2.609
    6CHTO    H2 2523   5.261   5.636   2.654
    6CHTO   C12 2524   5.102   5.809   2.423
    6CHTO   H25 2525   5.096   5.897   2.490
    6CHTO    N3 2526   5.218   5.834   2.330
    6CHTO   H12 2527   5.233   5.748   2.267
    6CHTO   H13 2528   5.199   5.922   2.270
    6CHTO   C15 2529   4.965   5.796   2.347
    6CHTO   H28 2530   4.968   5.720   2.269
    6CHTO   O10 2531   4.917   5.930   2.286
    6CHTO    H4 2532   4.918   5.998   2.351
    6CHTO    O5 2533   4.859   5.767   2.440
    6CHTO   C10 2534   4.876   5.640   2.506
    6CHTO   H23 2535   4.887   5.562   2.430
    6CHTO   C17 2536   4.747   5.609   2.583
    6CHTO   O12 2537   4.636   5.594   2.495
    6CHTO    H6 2538   4.557   5.582   2.545
    7CHTO  H203 2539   4.247   1.001   0.654
    7CHTO   O82 2540   4.330   0.963   0.676
    7CHTO  C123 2541   4.415   0.959   0.560
    7CHTO  H227 2542   4.358   0.921   0.474
    7CHTO   O77 2543   4.449   1.100   0.538
    7CHTO  C118 2544   4.530   1.125   0.422
    7CHTO  H222 2545   4.478   1.088   0.331
    7CHTO  C125 2546   4.544   1.281   0.412
    7CHTO   O84 2547   4.601   1.324   0.288
    7CHTO  H205 2548   4.543   1.304   0.217
    7CHTO  C114 2549   4.666   1.053   0.438
    7CHTO  H218 2550   4.716   1.094   0.526
    7CHTO  C116 2551   4.646   0.901   0.463
    7CHTO  H220 2552   4.607   0.854   0.370
    7CHTO   O79 2553   4.777   0.843   0.486
    7CHTO  H201 2554   4.770   0.750   0.494
    7CHTO  C120 2555   4.547   0.876   0.584
    7CHTO  H224 2556   4.599   0.912   0.676
    7CHTO   N21 2557   4.520   0.731   0.602
    7CHTO  H211 2558   4.593   0.688   0.668
    7CHTO  H212 2559   4.421   0.715   0.642
    7CHTO   O75 2560   4.741   1.082   0.319
    7CHTO  C112 2561   4.893   1.143   0.347
    7CHTO  H216 2562   4.952   1.066   0.400
    7CHTO   O73 2563   4.878   1.262   0.427
    7CHTO  C113 2564   5.002   1.324   0.464
    7CHTO  H217 2565   5.065   1.250   0.519
    7CHTO  C124 2566   4.966   1.437   0.562
    7CHTO   O83 2567   5.079   1.487   0.634
    7CHTO  H204 2568   5.051   1.554   0.694
    7CHTO  C109 2569   5.074   1.375   0.336
    7CHTO  H213 2570   5.007   1.451   0.291
    7CHTO  C110 2571   5.096   1.257   0.237
    7CHTO  H214 2572   5.170   1.189   0.281
    7CHTO   O78 2573   5.153   1.308   0.116
    7CHTO  H200 2574   5.094   1.368   0.074
    7CHTO  C111 2575   4.963   1.180   0.211
    7CHTO  H215 2576   4.895   1.246   0.156
    7CHTO   N19 2577   4.980   1.058   0.128
    7CHTO  H207 2578   5.050   0.990   0.174
    7CHTO  H208 2579   5.016   1.085   0.029
    7CHTO   O74 2580   5.202   1.438   0.370
    7CHTO  C115 2581   5.223   1.578   0.304
    7CHTO  H219 2582   5.152   1.595   0.223
    7CHTO   O76 2583   5.199   1.698   0.408
    7CHTO  C122 2584   5.298   1.706   0.512
    7CHTO  H226 2585   5.294   1.615   0.572
    7CHTO  C126 2586   5.261   1.823   0.608
    7CHTO   O85 2587   5.259   1.951   0.542
    7CHTO  H206 2588   5.236   2.017   0.604
    7CHTO  C121 2589   5.442   1.722   0.450
    7CHTO  H225 2590   5.443   1.813   0.386
    7CHTO   O81 2591   5.541   1.740   0.552
    7CHTO  H202 2592   5.623   1.762   0.514
    7CHTO  C119 2593   5.472   1.597   0.361
    7CHTO  H223 2594   5.571   1.614   0.318
    7CHTO  C117 2595   5.369   1.580   0.242
    7CHTO  H221 2596   5.376   1.486   0.188
    7CHTO   N20 2597   5.382   1.686   0.137
    7CHTO  H209 2598   5.312   1.668   0.057
    7CHTO  H210 2599   5.483   1.686   0.097
    7CHTO   O80 2600   5.495   1.467   0.444
    7CHTO  C103 2601   5.517   1.332   0.371
    7CHTO  H190 2602   5.439   1.315   0.297
    7CHTO  C101 2603   5.657   1.313   0.301
    7CHTO  H188 2604   5.735   1.321   0.376
    7CHTO   O68 2605   5.677   1.423   0.193
    7CHTO  H168 2606   5.766   1.422   0.162
    7CHTO   C99 2607   5.667   1.167   0.238
    7CHTO  H186 2608   5.589   1.159   0.160
    7CHTO   N17 2609   5.800   1.136   0.174
    7CHTO  H174 2610   5.789   1.127   0.067
    7CHTO  H175 2611   5.873   1.212   0.199
    7CHTO   C97 2612   5.632   1.060   0.346
    7CHTO  H184 2613   5.716   1.056   0.418
    7CHTO   O64 2614   5.508   1.092   0.412
    7CHTO  C104 2615   5.502   1.218   0.479
    7CHTO  H191 2616   5.581   1.229   0.554
    7CHTO  C108 2617   5.369   1.223   0.556
    7CHTO   O71 2618   5.362   1.331   0.650
    7CHTO  H171 2619   5.419   1.313   0.722
    7CHTO   O62 2620   5.612   0.925   0.296
    7CHTO   C91 2621   5.539   0.896   0.175
    7CHTO  H178 2622   5.569   0.968   0.099
    7CHTO   C92 2623   5.383   0.915   0.193
    7CHTO  H179 2624   5.361   1.014   0.235
    7CHTO   O66 2625   5.324   0.916   0.062
    7CHTO  H166 2626   5.350   0.993   0.015
    7CHTO   C93 2627   5.317   0.798   0.276
    7CHTO  H180 2628   5.213   0.788   0.241
    7CHTO   N16 2629   5.303   0.828   0.421
    7CHTO  H172 2630   5.339   0.928   0.444
    7CHTO  H173 2631   5.354   0.755   0.482
    7CHTO   C94 2632   5.392   0.662   0.252
    7CHTO  H181 2633   5.471   0.645   0.326
    7CHTO   O61 2634   5.458   0.662   0.124
    7CHTO   C95 2635   5.571   0.751   0.117
    7CHTO  H182 2636   5.653   0.708   0.175
    7CHTO  C106 2637   5.619   0.756   2.852
    7CHTO   O69 2638   5.738   0.834   2.838
    7CHTO  H169 2639   5.763   0.838   2.747
    7CHTO   O63 2640   5.291   0.546   0.252
    7CHTO   C96 2641   5.312   0.447   0.369
    7CHTO  H183 2642   5.318   0.507   0.461
    7CHTO   C98 2643   5.444   0.363   0.361
    7CHTO  H185 2644   5.531   0.428   0.342
    7CHTO   O67 2645   5.467   0.303   0.489
    7CHTO  H167 2646   5.551   0.261   0.491
    7CHTO  C102 2647   5.434   0.246   0.251
    7CHTO  H189 2648   5.515   0.176   0.275
    7CHTO   N18 2649   5.460   0.289   0.111
    7CHTO  H176 2650   5.390   0.366   0.082
    7CHTO  H177 2651   5.561   0.327   0.103
    7CHTO  C105 2652   5.298   0.171   0.265
    7CHTO  H192 2653   5.237   0.184   0.175
    7CHTO   O65 2654   5.216   0.213   0.377
    7CHTO  C100 2655   5.184   0.353   0.377
    7CHTO  H187 2656   5.122   0.372   0.288
    7CHTO  C107 2657   5.097   0.384   0.500
    7CHTO   O70 2658   5.164   0.352   0.623
    7CHTO  H170 2659   5.236   0.411   0.636
    7CHTO   O57 2660   5.339   0.022   0.281
    7CHTO   C85 2661   5.269   9.920   0.210
    7CHTO  H157 2662   5.218   9.969   0.124
    7CHTO   C83 2663   5.153   9.863   0.299
    7CHTO  H155 2664   5.082   9.944   0.317
    7CHTO   O56 2665   5.205   9.826   0.429
    7CHTO  H135 2666   5.237   9.901   0.474
    7CHTO   C81 2667   5.081   9.748   0.224
    7CHTO  H153 2668   5.043   9.788   0.130
    7CHTO   N14 2669   4.960   9.698   0.295
    7CHTO  H141 2670   4.910   9.626   0.234
    7CHTO  H142 2671   4.894   9.779   0.315
    7CHTO   C79 2672   5.184   9.634   0.189
    7CHTO  H151 2673   5.131   9.560   0.129
    7CHTO   O52 2674   5.291   9.687   0.104
    7CHTO   C86 2675   5.362   9.801   0.162
    7CHTO  H158 2676   5.420   9.758   0.247
    7CHTO   C90 2677   5.468   9.849   0.059
    7CHTO   O60 2678   5.562   9.941   0.117
    7CHTO  H138 2679   5.518   0.020   0.143
    7CHTO   O50 2680   5.240   9.568   0.304
    7CHTO   C73 2681   5.305   9.440   0.313
    7CHTO  H145 2682   5.379   9.429   0.232
    7CHTO   C74 2683   5.200   9.325   0.299
    7CHTO  H146 2684   5.150   9.337   0.201
    7CHTO   O54 2685   5.269   9.199   0.293
    7CHTO  H133 2686   5.317   9.192   0.213
    7CHTO   C75 2687   5.098   9.335   0.419
    7CHTO  H147 2688   5.047   9.433   0.413
    7CHTO   N13 2689   4.990   9.234   0.415
    7CHTO  H139 2690   4.924   9.247   0.500
    7CHTO  H140 2691   4.931   9.246   0.325
    7CHTO   C76 2692   5.178   9.333   0.557
    7CHTO  H148 2693   5.221   9.234   0.570
    7CHTO   O49 2694   5.284   9.434   0.560
    7CHTO   C77 2695   5.377   9.426   0.450
    7CHTO  H149 2696   5.426   9.329   0.454
    7CHTO   C88 2697   5.490   9.529   0.469
    7CHTO   O58 2698   5.441   9.665   0.495
    7CHTO  H136 2699   5.514   9.722   0.508
    7CHTO   O51 2700   5.081   9.373   0.675
    7CHTO   C78 2701   5.140   9.341   0.812
    7CHTO  H150 2702   5.250   9.325   0.806
    7CHTO   C80 2703   5.073   9.214   0.869
    7CHTO  H152 2704   4.963   9.228   0.865
    7CHTO   O55 2705   5.107   9.104   0.783
    7CHTO  H134 2706   5.065   9.113   0.700
    7CHTO   C84 2707   5.117   9.185   1.018
    7CHTO  H156 2708   5.223   9.158   1.017
    7CHTO   N15 2709   5.042   9.070   1.080
    7CHTO  H143 2710   5.111   8.993   1.109
    7CHTO  H144 2711   4.971   9.029   1.012
    7CHTO   C87 2712   5.101   9.313   1.103
    7CHTO  H159 2713   4.995   9.337   1.115
    7CHTO   O53 2714   5.175   9.430   1.033
    7CHTO   C82 2715   5.117   9.462   0.906
    7CHTO  H154 2716   5.011   9.484   0.917
    7CHTO   C89 2717   5.186   9.591   0.855
    7CHTO   O59 2718   5.119   9.648   0.741
    7CHTO  H137 2719   5.130   9.592   0.667
    7CHTO   O45 2720   5.168   9.296   1.253
    7CHTO   C67 2721   5.173   9.419   1.328
    7CHTO  H124 2722   5.208   9.499   1.263
    7CHTO   C65 2723   5.031   9.457   1.383
    7CHTO  H122 2724   4.978   9.363   1.401
    7CHTO   O44 2725   4.965   9.530   1.278
    7CHTO  H102 2726   4.950   9.474   1.204
    7CHTO   C63 2727   5.037   9.527   1.525
    7CHTO  H120 2728   5.050   9.449   1.601
    7CHTO   N11 2729   4.910   9.593   1.571
    7CHTO  H108 2730   4.928   9.694   1.602
    7CHTO  H109 2731   4.865   9.538   1.651
    7CHTO   C61 2732   5.166   9.617   1.534
    7CHTO  H118 2733   5.169   9.657   1.636
    7CHTO   O40 2734   5.287   9.539   1.516
    7CHTO   C68 2735   5.280   9.411   1.444
    7CHTO  H125 2736   5.254   9.331   1.517
    7CHTO   C72 2737   5.423   9.381   1.393
    7CHTO   O48 2738   5.437   9.253   1.331
    7CHTO  H105 2739   5.527   9.239   1.308
    7CHTO   O38 2740   5.165   9.725   1.438
    7CHTO   C55 2741   5.261   9.830   1.462
    7CHTO  H112 2742   5.343   9.793   1.526
    7CHTO   C56 2743   5.188   9.955   1.526
    7CHTO  H113 2744   5.102   9.980   1.461
    7CHTO   O42 2745   5.131   9.918   1.654
    7CHTO  H100 2746   5.198   9.892   1.713
    7CHTO   C57 2747   5.286   0.079   1.540
    7CHTO  H114 2748   5.357   0.055   1.618
    7CHTO   N10 2749   5.216   0.203   1.582
    7CHTO  H106 2750   5.213   0.209   1.689
    7CHTO  H107 2751   5.267   0.291   1.544
    7CHTO   C58 2752   5.365   0.101   1.408
    7CHTO  H115 2753   5.295   0.137   1.329
    7CHTO   O37 2754   5.424   9.978   1.362
    7CHTO   C59 2755   5.328   9.876   1.330
    7CHTO  H116 2756   5.254   9.914   1.260
    7CHTO   C70 2757   5.402   9.760   1.262
    7CHTO   O46 2758   5.458   9.797   1.135
    7CHTO  H103 2759   5.526   9.860   1.148
    7CHTO   O39 2760   5.486   0.218   1.434
    7CHTO   C60 2761   5.619   0.187   1.388
    7CHTO  H117 2762   5.642   0.083   1.411
    7CHTO   C62 2763   5.633   0.207   1.234
    7CHTO  H119 2764   5.560   0.136   1.188
    7CHTO   O43 2765   5.593   0.341   1.200
    7CHTO  H101 2766   5.594   0.352   1.106
    7CHTO   C66 2767   5.782   0.169   1.187
    7CHTO  H123 2768   5.803   0.067   1.218
    7CHTO   N12 2769   5.796   0.172   1.040
    7CHTO  H110 2770   5.897   0.145   1.012
    7CHTO  H111 2771   5.725   0.104   0.995
    7CHTO   C69 2772   5.884   0.262   1.260
    7CHTO  H126 2773   5.862   0.368   1.234
    7CHTO   O41 2774   5.866   0.242   1.414
    7CHTO   C64 2775   5.724   0.274   1.465
    7CHTO  H121 2776   5.702   0.382   1.448
    7CHTO   C71 2777   5.722   0.247   1.617
    7CHTO   O47 2778   5.602   0.294   1.680
    7CHTO  H104 2779   5.528   0.245   1.650
    7CHTO   O34 2780   6.040   0.230   1.219
    7CHTO   C49 2781   6.110   0.097   1.187
    7CHTO   H91 2782   6.032   0.020   1.190
    7CHTO   C47 2783   6.217   0.064   1.293
    7CHTO   H89 2784   6.243   9.957   1.279
    7CHTO   O33 2785   6.156   0.080   1.423
    7CHTO   H70 2786   6.136   0.170   1.439
    7CHTO   C45 2787   6.348   0.156   1.277
    7CHTO   H87 2788   6.318   0.259   1.295
    7CHTO    N8 2789   6.453   0.120   1.377
    7CHTO   H75 2790   6.468   0.201   1.446
    7CHTO   H76 2791   6.546   0.095   1.328
    7CHTO   C43 2792   6.402   0.155   1.125
    7CHTO   H85 2793   6.477   0.234   1.120
    7CHTO   O29 2794   6.293   0.178   1.033
    7CHTO   C50 2795   6.173   0.100   1.045
    7CHTO   H92 2796   6.099   0.146   0.978
    7CHTO   C54 2797   6.190   9.958   0.985
    7CHTO   O36 2798   6.065   9.888   0.977
    7CHTO   H72 2799   6.077   9.807   0.933
    7CHTO   O27 2800   6.471   0.034   1.089
    7CHTO   C37 2801   6.586   9.988   1.016
    7CHTO   H79 2802   6.675   0.042   1.049
    7CHTO   C38 2803   6.610   9.836   1.045
    7CHTO   H80 2804   6.515   9.782   1.027
    7CHTO   O31 2805   6.644   9.826   1.184
    7CHTO   H68 2806   6.652   9.736   1.209
    7CHTO   C39 2807   6.723   9.776   0.952
    7CHTO   H81 2808   6.816   9.825   0.978
    7CHTO    N7 2809   6.743   9.628   0.971
    7CHTO   H73 2810   6.653   9.575   0.946
    7CHTO   H74 2811   6.826   9.594   0.911
    7CHTO   C40 2812   6.692   9.811   0.801
    7CHTO   H82 2813   6.600   9.760   0.771
    7CHTO   O26 2814   6.680   9.954   0.790
    7CHTO   C41 2815   6.567   0.011   0.862
    7CHTO   H83 2816   6.474   9.963   0.829
    7CHTO   C52 2817   6.561   0.160   0.824
    7CHTO   O35 2818   6.535   0.180   0.679
    7CHTO   H71 2819   6.529   0.272   0.660
    7CHTO   O28 2820   6.797   9.768   0.711
    7CHTO   C42 2821   6.815   9.819   0.575
    7CHTO   H84 2822   6.876   9.742   0.527
    7CHTO   C44 2823   6.900   9.951   0.567
    7CHTO   H86 2824   6.853   0.026   0.631
    7CHTO   O32 2825   7.030   9.921   0.621
    7CHTO   H69 2826   7.024   9.907   0.714
    7CHTO   C48 2827   6.908   0.010   0.421
    7CHTO   H90 2828   6.965   9.942   0.358
    7CHTO    N9 2829   6.982   0.141   0.417
    7CHTO   H77 2830   6.988   0.178   0.316
    7CHTO   H78 2831   6.933   0.213   0.480
    7CHTO   C51 2832   6.762   0.021   0.364
    7CHTO   H93 2833   6.705   0.085   0.432
    7CHTO   O30 2834   6.707   9.889   0.357
    7CHTO   C46 2835   6.682   9.829   0.494
    7CHTO   H88 2836   6.611   9.893   0.547
    7CHTO   C53 2837   6.621   9.688   0.472
    7CHTO   O72 2838   6.495   9.695   0.403
    7CHTO  H199 2839   6.510   9.718   0.313
    7CHTO   O22 2840   6.754   0.068   0.227
    7CHTO   C31 2841   6.665   0.177   0.182
    7CHTO   H59 2842   6.639   0.153   0.077
    7CHTO   C29 2843   6.531   0.192   0.258
    7CHTO   H57 2844   6.553   0.210   0.365
    7CHTO   O21 2845   6.461   0.066   0.251
    7CHTO   H37 2846   6.387   0.067   0.307
    7CHTO   C27 2847   6.445   0.314   0.204
    7CHTO   H55 2848   6.418   0.293   0.099
    7CHTO    N5 2849   6.321   0.336   0.282
    7CHTO   H43 2850   6.265   0.418   0.239
    7CHTO   H44 2851   6.261   0.246   0.283
    7CHTO   C25 2852   6.535   0.442   0.204
    7CHTO   H53 2853   6.565   0.466   0.308
    7CHTO   O17 2854   6.656   0.418   0.126
    7CHTO   C32 2855   6.740   0.314   0.177
    7CHTO   H60 2856   6.772   0.340   0.278
    7CHTO   C36 2857   6.867   0.307   0.087
    7CHTO   O25 2858   6.835   0.277   2.835
    7CHTO   H40 2859   6.914   0.270   2.785
    7CHTO   O15 2860   6.463   0.568   0.141
    7CHTO   C19 2861   6.431   0.703   0.184
    7CHTO   H47 2862   6.425   0.760   0.090
    7CHTO   C20 2863   6.296   0.717   0.260
    7CHTO   H48 2864   6.295   0.658   0.354
    7CHTO   O19 2865   6.193   0.665   0.174
    7CHTO   H35 2866   6.203   0.572   0.165
    7CHTO   C21 2867   6.266   0.868   0.297
    7CHTO   H49 2868   6.253   0.925   0.205
    7CHTO    N4 2869   6.141   0.887   0.376
    7CHTO   H41 2870   6.056   0.853   0.318
    7CHTO   H42 2871   6.146   0.830   0.468
    7CHTO   C22 2872   6.390   0.929   0.370
    7CHTO   H50 2873   6.400   0.883   0.468
    7CHTO   O14 2874   6.509   0.908   0.293
    7CHTO   C23 2875   6.544   0.771   0.268
    7CHTO   H51 2876   6.559   0.722   0.365
    7CHTO   C34 2877   6.679   0.769   0.193
    7CHTO   O23 2878   6.784   0.823   0.274
    7CHTO   H38 2879   6.801   0.766   0.346
    7CHTO   O16 2880   6.379   1.072   0.380
    7CHTO   C24 2881   6.474   1.141   0.489
    7CHTO   H52 2882   6.546   1.070   0.530
    7CHTO   C26 2883   6.385   1.197   0.602
    7CHTO   H54 2884   6.298   1.250   0.556
    7CHTO   O20 2885   6.332   1.085   0.676
    7CHTO   H36 2886   6.270   1.114   0.739
    7CHTO   C30 2887   6.461   1.298   0.694
    7CHTO   H58 2888   6.541   1.247   0.749
    7CHTO    N6 2889   6.372   1.360   0.796
    7CHTO   H45 2890   6.270   1.324   0.788
    7CHTO   H46 2891   6.371   1.468   0.788
    7CHTO   C33 2892   6.530   1.403   0.601
    7CHTO   H61 2893   6.453   1.450   0.539
    7CHTO   O18 2894   6.621   1.332   0.516
    7CHTO   C28 2895   6.555   1.252   0.417
    7CHTO   H56 2896   6.486   1.314   0.359
    7CHTO   C35 2897   6.661   1.193   0.322
    7CHTO   O24 2898   6.734   1.293   0.251
    7CHTO   H39 2899   6.791   1.339   0.310
    7CHTO    O9 2900   6.596   1.513   0.669
    7CHTO   C13 2901   6.615   1.636   0.564
    7CHTO   H26 2902   6.624   1.593   0.462
    7CHTO   C11 2903   6.741   1.725   0.601
    7CHTO   H24 2904   6.830   1.661   0.593
    7CHTO    O8 2905   6.734   1.775   0.736
    7CHTO    H3 2906   6.738   1.703   0.797
    7CHTO    C9 2907   6.749   1.836   0.492
    7CHTO   H22 2908   6.757   1.782   0.396
    7CHTO    N2 2909   6.874   1.915   0.498
    7CHTO   H10 2910   6.875   1.976   0.587
    7CHTO   H11 2911   6.883   1.977   0.410
    7CHTO    C7 2912   6.617   1.922   0.489
    7CHTO   H20 2913   6.626   1.979   0.394
    7CHTO    O4 2914   6.497   1.842   0.481
    7CHTO   C14 2915   6.483   1.723   0.560
    7CHTO   H27 2916   6.406   1.663   0.509
    7CHTO   C18 2917   6.427   1.756   0.702
    7CHTO   O13 2918   6.288   1.786   0.698
    7CHTO    H7 2919   6.239   1.708   0.682
    7CHTO    O2 2920   6.602   2.028   0.614
    7CHTO    C1 2921   6.535   2.151   0.583
    7CHTO   H14 2922   6.521   2.206   0.678
    7CHTO    C2 2923   6.392   2.135   0.513
    7CHTO   H15 2924   6.406   2.072   0.424
    7CHTO    O6 2925   6.303   2.070   0.605
    7CHTO    H1 2926   6.331   1.981   0.619
    7CHTO    C3 2927   6.334   2.278   0.469
    7CHTO   H16 2928   6.318   2.340   0.558
    7CHTO    N1 2929   6.203   2.268   0.397
    7CHTO    H8 2930   6.130   2.221   0.461
    7CHTO    H9 2931   6.168   2.366   0.369
    7CHTO    C4 2932   6.444   2.352   0.384
    7CHTO   H17 2933   6.464   2.294   0.294
    7CHTO    O1 2934   6.563   2.366   0.463
    7CHTO    C5 2935   6.627   2.241   0.495
    7CHTO   H18 2936   6.651   2.189   0.403
    7CHTO   C16 2937   6.760   2.275   0.569
    7CHTO   O11 2938   6.850   2.343   0.482
    7CHTO    H5 2939   6.930   2.362   0.528
    7CHTO    O3 2940   6.409   2.488   0.350
    7CHTO    C6 2941   6.471   2.538   0.226
    7CHTO   H19 2942   6.544   2.468   0.185
    7CHTO    C8 2943   6.361   2.562   0.117
    7CHTO   H21 2944   6.286   2.630   0.159
    7CHTO    O7 2945   6.302   2.434   0.090
    7CHTO    H2 2946   6.228   2.444   0.032
    7CHTO   C12 2947   6.426   2.627   2.873
    7CHTO   H25 2948   6.497   2.552   2.832
    7CHTO    N3 2949   6.324   2.654   2.765
    7CHTO   H12 2950   6.249   2.722   2.802
    7CHTO   H13 2951   6.279   2.561   2.734
    7CHTO   C15 2952   6.507   2.755   0.030
    7CHTO   H28 2953   6.441   2.836   0.064
    7CHTO   O10 2954   6.599   2.808   2.799
    7CHTO    H4 2955   6.641   2.887   2.825
    7CHTO    O5 2956   6.603   2.723   0.133
    7CHTO   C10 2957   6.547   2.671   0.254
    7CHTO   H23 2958   6.478   2.744   0.296
    7CHTO   C17 2959   6.661   2.650   0.354
    7CHTO   O12 2960   6.727   2.773   0.386
    7CHTO    H6 2961   6.800   2.756   0.442
    8CHTO  H203 2962   7.243   6.984   1.850
    8CHTO   O82 2963   7.240   7.011   1.760
    8CHTO  C123 2964   7.119   7.083   1.731
    8CHTO  H227 2965   7.124   7.120   1.627
    8CHTO   O77 2966   7.015   6.982   1.743
    8CHTO  C118 2967   6.886   7.026   1.699
    8CHTO  H222 2968   6.892   7.063   1.596
    8CHTO  C125 2969   6.793   6.899   1.703
    8CHTO   O84 2970   6.673   6.918   1.627
    8CHTO  H205 2971   6.622   6.840   1.630
    8CHTO  C114 2972   6.835   7.138   1.793
    8CHTO  H218 2973   6.815   7.095   1.891
    8CHTO  C116 2974   6.941   7.252   1.814
    8CHTO  H220 2975   6.936   7.321   1.726
    8CHTO   O79 2976   6.903   7.331   1.928
    8CHTO  H201 2977   6.957   7.407   1.935
    8CHTO  C120 2978   7.089   7.199   1.833
    8CHTO  H224 2979   7.095   7.159   1.937
    8CHTO   N21 2980   7.190   7.308   1.822
    8CHTO  H211 2981   7.276   7.284   1.883
    8CHTO  H212 2982   7.148   7.402   1.854
    8CHTO   O75 2983   6.711   7.179   1.732
    8CHTO  C112 2984   6.639   7.314   1.791
    8CHTO  H216 2985   6.711   7.397   1.784
    8CHTO   O73 2986   6.601   7.287   1.927
    8CHTO  C113 2987   6.548   7.402   1.994
    8CHTO  H217 2988   6.623   7.484   1.991
    8CHTO  C124 2989   6.526   7.367   2.142
    8CHTO   O83 2990   6.650   7.347   2.212
    8CHTO  H204 2991   6.632   7.329   2.302
    8CHTO  C109 2992   6.416   7.450   1.926
    8CHTO  H213 2993   6.343   7.369   1.939
    8CHTO  C110 2994   6.443   7.477   1.774
    8CHTO  H214 2995   6.509   7.563   1.766
    8CHTO   O78 2996   6.320   7.513   1.710
    8CHTO  H200 2997   6.259   7.442   1.712
    8CHTO  C111 2998   6.511   7.353   1.708
    8CHTO  H215 2999   6.441   7.268   1.711
    8CHTO   N19 3000   6.546   7.373   1.565
    8CHTO  H207 3001   6.613   7.458   1.554
    8CHTO  H208 3002   6.457   7.389   1.506
    8CHTO   O74 3003   6.368   7.570   1.993
    8CHTO  C115 3004   6.209   7.578   2.018
    8CHTO  H219 3005   6.158   7.489   1.981
    8CHTO   O76 3006   6.174   7.587   2.174
    8CHTO  C122 3007   6.214   7.708   2.240
    8CHTO  H226 3008   6.321   7.702   2.259
    8CHTO  C126 3009   6.145   7.712   2.381
    8CHTO   O85 3010   6.003   7.700   2.374
    8CHTO  H206 3011   5.967   7.773   2.328
    8CHTO  C121 3012   6.183   7.843   2.161
    8CHTO  H225 3013   6.075   7.866   2.171
    8CHTO   O81 3014   6.254   7.953   2.220
    8CHTO  H202 3015   6.347   7.938   2.216
    8CHTO  C119 3016   6.217   7.830   2.008
    8CHTO  H223 3017   6.176   7.918   1.959
    8CHTO  C117 3018   6.152   7.703   1.942
    8CHTO  H221 3019   6.180   7.687   1.838
    8CHTO   N20 3020   6.001   7.705   1.941
    8CHTO  H209 3021   5.961   7.619   1.992
    8CHTO  H210 3022   5.964   7.796   1.985
    8CHTO   O80 3023   6.371   7.842   1.974
    8CHTO  C103 3024   6.432   7.978   1.930
    8CHTO  H190 3025   6.362   8.060   1.948
    8CHTO  C101 3026   6.570   8.009   1.999
    8CHTO  H188 3027   6.632   7.919   1.996
    8CHTO   O68 3028   6.543   8.045   2.149
    8CHTO  H168 3029   6.504   7.971   2.192
    8CHTO   C99 3030   6.649   8.127   1.925
    8CHTO  H186 3031   6.592   8.221   1.937
    8CHTO   N17 3032   6.786   8.151   1.982
    8CHTO  H174 3033   6.862   8.145   1.905
    8CHTO  H175 3034   6.789   8.247   2.031
    8CHTO   C97 3035   6.652   8.100   1.772
    8CHTO  H184 3036   6.716   8.013   1.752
    8CHTO   O64 3037   6.519   8.082   1.721
    8CHTO  C104 3038   6.451   7.966   1.773
    8CHTO  H191 3039   6.505   7.875   1.750
    8CHTO  C108 3040   6.316   7.955   1.700
    8CHTO   O71 3041   6.333   7.930   1.560
    8CHTO  H171 3042   6.370   8.006   1.519
    8CHTO   O62 3043   6.696   8.216   1.698
    8CHTO   C91 3044   6.820   8.203   1.625
    8CHTO  H178 3045   6.885   8.135   1.680
    8CHTO   C92 3046   6.891   8.343   1.627
    8CHTO  H179 3047   6.891   8.383   1.730
    8CHTO   O66 3048   7.030   8.323   1.594
    8CHTO  H166 3049   7.073   8.275   1.662
    8CHTO   C93 3050   6.832   8.446   1.524
    8CHTO  H180 3051   6.908   8.525   1.511
    8CHTO   N16 3052   6.712   8.518   1.573
    8CHTO  H172 3053   6.736   8.571   1.665
    8CHTO  H173 3054   6.677   8.587   1.498
    8CHTO   C94 3055   6.806   8.377   1.384
    8CHTO  H181 3056   6.700   8.369   1.361
    8CHTO   O61 3057   6.858   8.243   1.377
    8CHTO   C95 3058   6.803   8.152   1.474
    8CHTO  H182 3059   6.697   8.138   1.453
    8CHTO  C106 3060   6.872   8.013   1.451
    8CHTO   O69 3061   6.814   7.910   1.532
    8CHTO  H169 3062   6.728   7.889   1.500
    8CHTO   O63 3063   6.879   8.462   1.273
    8CHTO   C96 3064   6.825   8.432   1.130
    8CHTO  H183 3065   6.738   8.367   1.140
    8CHTO   C98 3066   6.925   8.360   1.035
    8CHTO  H185 3067   7.018   8.418   1.030
    8CHTO   O67 3068   6.960   8.234   1.094
    8CHTO  H167 3069   6.885   8.178   1.100
    8CHTO  C102 3070   6.863   8.340   0.888
    8CHTO  H189 3071   6.783   8.265   0.899
    8CHTO   N18 3072   6.957   8.285   0.787
    8CHTO  H176 3073   6.991   8.187   0.819
    8CHTO  H177 3074   7.041   8.351   0.775
    8CHTO  C105 3075   6.796   8.472   0.838
    8CHTO  H192 3076   6.873   8.542   0.806
    8CHTO   O65 3077   6.714   8.536   0.937
    8CHTO  C100 3078   6.779   8.565   1.062
    8CHTO  H187 3079   6.867   8.628   1.042
    8CHTO  C107 3080   6.682   8.647   1.150
    8CHTO   O70 3081   6.560   8.576   1.179
    8CHTO  H170 3082   6.509   8.568   1.101
    8CHTO   O57 3083   6.701   8.430   0.712
    8CHTO   C85 3084   6.668   8.525   0.609
    8CHTO  H157 3085   6.766   8.561   0.570
    8CHTO   C83 3086   6.598   8.651   0.669
    8CHTO  H155 3087   6.669   8.701   0.735
    8CHTO   O56 3088   6.487   8.611   0.752
    8CHTO  H135 3089   6.420   8.571   0.700
    8CHTO   C81 3090   6.561   8.749   0.554
    8CHTO  H153 3091   6.652   8.773   0.499
    8CHTO   N14 3092   6.513   8.880   0.603
    8CHTO  H141 3093   6.497   8.947   0.521
    8CHTO  H142 3094   6.585   8.924   0.669
    8CHTO   C79 3095   6.461   8.678   0.454
    8CHTO  H151 3096   6.444   8.747   0.371
    8CHTO   O52 3097   6.526   8.559   0.396
    8CHTO   C86 3098   6.577   8.464   0.495
    8CHTO  H158 3099   6.485   8.419   0.538
    8CHTO   C90 3100   6.650   8.348   0.423
    8CHTO   O60 3101   6.762   8.396   0.346
    8CHTO  H138 3102   6.803   8.324   0.303
    8CHTO   O50 3103   6.334   8.641   0.510
    8CHTO   C73 3104   6.194   8.612   0.499
    8CHTO  H145 3105   6.178   8.523   0.436
    8CHTO   C74 3106   6.117   8.733   0.437
    8CHTO  H146 3107   6.156   8.748   0.335
    8CHTO   O54 3108   5.978   8.697   0.421
    8CHTO  H133 3109   5.969   8.628   0.358
    8CHTO   C75 3110   6.139   8.859   0.528
    8CHTO  H147 3111   6.245   8.886   0.523
    8CHTO   N13 3112   6.069   8.982   0.482
    8CHTO  H139 3113   5.962   8.964   0.479
    8CHTO  H140 3114   6.102   9.008   0.382
    8CHTO   C76 3115   6.105   8.825   0.681
    8CHTO  H148 3116   5.997   8.825   0.695
    8CHTO   O49 3117   6.160   8.697   0.726
    8CHTO   C77 3118   6.136   8.584   0.640
    8CHTO  H149 3119   6.029   8.566   0.632
    8CHTO   C88 3120   6.196   8.457   0.702
    8CHTO   O58 3121   6.137   8.427   0.835
    8CHTO  H136 3122   6.047   8.403   0.826
    8CHTO   O51 3123   6.180   8.932   0.774
    8CHTO   C78 3124   6.120   8.939   0.915
    8CHTO  H150 3125   6.047   8.857   0.933
    8CHTO   C80 3126   6.048   9.074   0.934
    8CHTO  H152 3127   6.120   9.157   0.912
    8CHTO   O55 3128   5.942   9.079   0.836
    8CHTO  H134 3129   5.901   9.163   0.837
    8CHTO   C84 3130   5.992   9.090   1.081
    8CHTO  H156 3131   5.913   9.017   1.094
    8CHTO   N15 3132   5.930   9.225   1.105
    8CHTO  H143 3133   5.850   9.240   1.036
    8CHTO  H144 3134   5.892   9.230   1.205
    8CHTO   C87 3135   6.102   9.059   1.185
    8CHTO  H159 3136   6.175   9.140   1.188
    8CHTO   O53 3137   6.171   8.926   1.150
    8CHTO   C82 3138   6.232   8.926   1.020
    8CHTO  H154 3139   6.302   9.010   1.012
    8CHTO   C89 3140   6.315   8.796   1.003
    8CHTO   O59 3141   6.237   8.678   1.022
    8CHTO  H137 3142   6.174   8.669   0.953
    8CHTO   O45 3143   6.031   9.039   1.335
    8CHTO   C67 3144   6.114   9.036   1.453
    8CHTO  H124 3145   6.047   9.023   1.538
    8CHTO   C65 3146   6.219   8.920   1.454
    8CHTO  H122 3147   6.188   8.848   1.378
    8CHTO   O44 3148   6.215   8.855   1.583
    8CHTO  H102 3149   6.266   8.777   1.581
    8CHTO   C63 3150   6.361   8.972   1.411
    8CHTO  H120 3151   6.352   9.025   1.316
    8CHTO   N11 3152   6.463   8.868   1.378
    8CHTO  H108 3153   6.425   8.801   1.304
    8CHTO  H109 3154   6.488   8.812   1.467
    8CHTO   C61 3155   6.407   9.079   1.518
    8CHTO  H118 3156   6.485   9.142   1.470
    8CHTO   O40 3157   6.300   9.169   1.560
    8CHTO   C68 3158   6.183   9.179   1.475
    8CHTO  H125 3159   6.214   9.224   1.379
    8CHTO   C72 3160   6.084   9.279   1.541
    8CHTO   O48 3161   5.973   9.311   1.457
    8CHTO  H105 3162   5.919   9.235   1.444
    8CHTO   O38 3163   6.458   9.018   1.638
    8CHTO   C55 3164   6.527   9.107   1.728
    8CHTO  H112 3165   6.517   9.211   1.694
    8CHTO   C56 3166   6.680   9.062   1.737
    8CHTO  H113 3167   6.706   9.021   1.638
    8CHTO   O42 3168   6.765   9.176   1.755
    8CHTO  H100 3169   6.855   9.152   1.746
    8CHTO   C57 3170   6.709   8.957   1.852
    8CHTO  H114 3171   6.743   9.013   1.939
    8CHTO   N10 3172   6.819   8.864   1.817
    8CHTO  H106 3173   6.870   8.831   1.907
    8CHTO  H107 3174   6.781   8.777   1.764
    8CHTO   C58 3175   6.578   8.883   1.891
    8CHTO  H115 3176   6.538   8.831   1.801
    8CHTO   O37 3177   6.479   8.977   1.938
    8CHTO   C59 3178   6.453   9.099   1.865
    8CHTO  H116 3179   6.346   9.106   1.849
    8CHTO   C70 3180   6.491   9.219   1.953
    8CHTO   O46 3181   6.444   9.344   1.901
    8CHTO  H103 3182   6.490   9.364   1.821
    8CHTO   O39 3183   6.602   8.774   2.013
    8CHTO   C60 3184   6.495   8.679   2.025
    8CHTO  H117 3185   6.399   8.731   2.013
    8CHTO   C62 3186   6.503   8.566   1.918
    8CHTO  H119 3187   6.503   8.617   1.819
    8CHTO   O43 3188   6.628   8.495   1.930
    8CHTO  H101 3189   6.632   8.450   2.013
    8CHTO   C66 3190   6.373   8.474   1.930
    8CHTO  H123 3191   6.285   8.537   1.923
    8CHTO   N12 3192   6.362   8.378   1.817
    8CHTO  H110 3193   6.273   8.318   1.828
    8CHTO  H111 3194   6.361   8.431   1.723
    8CHTO   C69 3195   6.370   8.404   2.068
    8CHTO  H126 3196   6.455   8.333   2.077
    8CHTO   O41 3197   6.380   8.514   2.185
    8CHTO   C64 3198   6.494   8.617   2.168
    8CHTO  H121 3199   6.592   8.567   2.185
    8CHTO   C71 3200   6.479   8.727   2.277
    8CHTO   O47 3201   6.352   8.794   2.269
    8CHTO  H104 3202   6.347   8.858   2.337
    8CHTO   O34 3203   6.231   8.319   2.088
    8CHTO   C49 3204   6.084   8.361   2.135
    8CHTO   H91 3205   6.078   8.339   2.242
    8CHTO   C47 3206   5.981   8.276   2.058
    8CHTO   H89 3207   5.882   8.297   2.102
    8CHTO   O33 3208   6.012   8.137   2.081
    8CHTO   H70 3209   5.948   8.082   2.040
    8CHTO   C45 3210   5.984   8.316   1.902
    8CHTO   H87 3211   6.084   8.294   1.864
    8CHTO    N8 3212   5.887   8.236   1.823
    8CHTO   H75 3213   5.786   8.262   1.851
    8CHTO   H76 3214   5.901   8.254   1.718
    8CHTO   C43 3215   5.967   8.476   1.880
    8CHTO   H85 3216   5.999   8.494   1.778
    8CHTO   O29 3217   6.045   8.552   1.974
    8CHTO   C50 3218   6.057   8.511   2.112
    8CHTO   H92 3219   6.144   8.566   2.151
    8CHTO   C54 3220   5.943   8.568   2.203
    8CHTO   O36 3221   5.811   8.526   2.168
    8CHTO   H72 3222   5.802   8.434   2.183
    8CHTO   O27 3223   5.831   8.525   1.887
    8CHTO   C37 3224   5.750   8.630   1.831
    8CHTO   H79 3225   5.741   8.617   1.722
    8CHTO   C38 3226   5.607   8.623   1.891
    8CHTO   H80 3227   5.616   8.617   2.001
    8CHTO   O31 3228   5.546   8.500   1.846
    8CHTO   H68 3229   5.536   8.501   1.753
    8CHTO   C39 3230   5.516   8.747   1.853
    8CHTO   H81 3231   5.491   8.737   1.748
    8CHTO    N7 3232   5.387   8.752   1.931
    8CHTO   H73 3233   5.303   8.749   1.863
    8CHTO   H74 3234   5.381   8.670   2.001
    8CHTO   C40 3235   5.595   8.883   1.870
    8CHTO   H82 3236   5.603   8.908   1.976
    8CHTO   O26 3237   5.723   8.874   1.808
    8CHTO   C41 3238   5.811   8.771   1.859
    8CHTO   H83 3239   5.826   8.784   1.967
    8CHTO   C52 3240   5.947   8.795   1.789
    8CHTO   O35 3241   6.010   8.926   1.828
    8CHTO   H71 3242   6.031   8.925   1.919
    8CHTO   O28 3243   5.534   8.999   1.806
    8CHTO   C42 3244   5.475   9.016   1.672
    8CHTO   H84 3245   5.477   9.125   1.659
    8CHTO   C44 3246   5.323   8.977   1.662
    8CHTO   H86 3247   5.313   8.871   1.687
    8CHTO   O32 3248   5.253   9.054   1.761
    8CHTO   H69 3249   5.256   9.146   1.740
    8CHTO   C48 3250   5.263   8.996   1.517
    8CHTO   H90 3251   5.261   9.103   1.494
    8CHTO    N9 3252   5.120   8.949   1.508
    8CHTO   H77 3253   5.058   9.006   1.576
    8CHTO   H78 3254   5.114   8.844   1.531
    8CHTO   C51 3255   5.356   8.925   1.412
    8CHTO   H93 3256   5.356   8.818   1.434
    8CHTO   O30 3257   5.486   8.982   1.423
    8CHTO   C46 3258   5.556   8.954   1.553
    8CHTO   H88 3259   5.565   8.847   1.567
    8CHTO   C53 3260   5.696   9.018   1.538
    8CHTO   O72 3261   5.772   8.950   1.437
    8CHTO  H199 3262   5.796   8.865   1.468
    8CHTO   O22 3263   5.314   8.949   1.276
    8CHTO   C31 3264   5.369   8.873   1.161
    8CHTO   H59 3265   5.308   8.904   1.073
    8CHTO   C29 3266   5.516   8.905   1.128
    8CHTO   H57 3267   5.577   8.881   1.217
    8CHTO   O21 3268   5.527   9.047   1.107
    8CHTO   H37 3269   5.617   9.072   1.098
    8CHTO   C27 3270   5.569   8.820   1.005
    8CHTO   H55 3271   5.513   8.849   0.916
    8CHTO    N5 3272   5.714   8.842   0.979
    8CHTO   H43 3273   5.773   8.810   1.064
    8CHTO   H44 3274   5.744   8.788   0.890
    8CHTO   C25 3275   5.538   8.669   1.033
    8CHTO   H53 3276   5.593   8.636   1.122
    8CHTO   O17 3277   5.395   8.650   1.057
    8CHTO   C32 3278   5.348   8.719   1.174
    8CHTO   H60 3279   5.403   8.683   1.261
    8CHTO   C36 3280   5.198   8.683   1.193
    8CHTO   O25 3281   5.181   8.544   1.222
    8CHTO   H40 3282   5.218   8.523   1.305
    8CHTO   O15 3283   5.577   8.581   0.920
    8CHTO   C19 3284   5.585   8.512   0.793
    8CHTO   H47 3285   5.528   8.420   0.810
    8CHTO   C20 3286   5.520   8.590   0.674
    8CHTO   H48 3287   5.569   8.688   0.658
    8CHTO   O19 3288   5.383   8.614   0.710
    8CHTO   H35 3289   5.378   8.678   0.778
    8CHTO   C21 3290   5.532   8.507   0.540
    8CHTO   H49 3291   5.477   8.413   0.552
    8CHTO    N4 3292   5.473   8.576   0.422
    8CHTO   H41 3293   5.525   8.670   0.405
    8CHTO   H42 3294   5.482   8.514   0.334
    8CHTO   C22 3295   5.681   8.469   0.520
    8CHTO   H50 3296   5.739   8.561   0.506
    8CHTO   O14 3297   5.730   8.396   0.633
    8CHTO   C23 3298   5.731   8.468   0.757
    8CHTO   H51 3299   5.798   8.555   0.745
    8CHTO   C34 3300   5.791   8.374   0.862
    8CHTO   O23 3301   5.816   8.439   0.987
    8CHTO   H38 3302   5.886   8.501   0.977
    8CHTO   O16 3303   5.701   8.379   0.408
    8CHTO   C24 3304   5.844   8.399   0.335
    8CHTO   H52 3305   5.914   8.456   0.396
    8CHTO   C26 3306   5.820   8.473   0.201
    8CHTO   H54 3307   5.740   8.419   0.145
    8CHTO   O20 3308   5.772   8.605   0.231
    8CHTO   H36 3309   5.752   8.651   0.152
    8CHTO   C30 3310   5.949   8.474   0.113
    8CHTO   H58 3311   6.028   8.532   0.163
    8CHTO    N6 3312   5.927   8.541   2.865
    8CHTO   H45 3313   5.943   8.473   2.783
    8CHTO   H46 3314   5.828   8.583   2.857
    8CHTO   C33 3315   6.003   8.329   0.099
    8CHTO   H61 3316   5.926   8.266   0.050
    8CHTO   O18 3317   6.026   8.277   0.231
    8CHTO   C28 3318   5.909   8.260   0.312
    8CHTO   H56 3319   5.837   8.194   0.263
    8CHTO   C35 3320   5.958   8.195   0.444
    8CHTO   O24 3321   5.852   8.155   0.531
    8CHTO   H39 3322   5.802   8.087   0.491
    8CHTO    O9 3323   6.121   8.317   0.017
    8CHTO   C13 3324   6.134   8.170   2.827
    8CHTO   H26 3325   6.043   8.155   2.765
    8CHTO   C11 3326   6.151   8.054   0.051
    8CHTO   H24 3327   6.052   8.035   0.096
    8CHTO    O8 3328   6.242   8.094   0.155
    8CHTO    H3 3329   6.206   8.166   0.203
    8CHTO    C9 3330   6.199   7.926   2.861
    8CHTO   H22 3331   6.129   7.912   2.777
    8CHTO    N2 3332   6.184   7.801   0.057
    8CHTO   H10 3333   6.251   7.804   0.142
    8CHTO   H11 3334   6.082   7.790   0.090
    8CHTO    C7 3335   6.344   7.952   2.802
    8CHTO   H20 3336   6.345   7.895   2.706
    8CHTO    O4 3337   6.368   8.092   2.774
    8CHTO   C14 3338   6.256   8.167   2.723
    8CHTO   H27 3339   6.221   8.116   2.630
    8CHTO   C18 3340   6.304   8.308   2.682
    8CHTO   O13 3341   6.396   8.301   2.573
    8CHTO    H7 3342   6.421   8.387   2.547
    8CHTO    O2 3343   6.466   7.893   0.016
    8CHTO    C1 3344   6.586   7.970   0.037
    8CHTO   H14 3345   6.558   8.077   0.054
    8CHTO    C2 3346   6.688   7.963   2.799
    8CHTO   H15 3347   6.688   7.858   2.765
    8CHTO    O6 3348   6.640   8.046   2.692
    8CHTO    H1 3349   6.694   8.036   2.616
    8CHTO    C3 3350   6.838   8.005   2.842
    8CHTO   H16 3351   6.841   8.113   2.861
    8CHTO    N1 3352   6.938   7.977   2.732
    8CHTO    H8 3353   7.014   7.909   2.766
    8CHTO    H9 3354   6.890   7.937   2.645
    8CHTO    C4 3355   6.873   7.936   0.094
    8CHTO   H17 3356   6.870   7.827   0.080
    8CHTO    O1 3357   6.778   7.976   0.193
    8CHTO    C5 3358   6.648   7.920   0.172
    8CHTO   H18 3359   6.655   7.811   0.168
    8CHTO   C16 3360   6.564   7.960   0.295
    8CHTO   O11 3361   6.439   7.891   0.301
    8CHTO    H5 3362   6.392   7.919   0.378
    8CHTO    O3 3363   7.002   7.974   0.146
    8CHTO    C6 3364   7.064   7.872   0.232
    8CHTO   H19 3365   6.991   7.802   0.273
    8CHTO    C8 3366   7.170   7.790   0.152
    8CHTO   H21 3367   7.242   7.860   0.108
    8CHTO    O7 3368   7.100   7.719   0.048
    8CHTO    H2 3369   7.162   7.676   2.876
    8CHTO   C12 3370   7.248   7.691   0.249
    8CHTO   H25 3371   7.173   7.616   0.282
    8CHTO    N3 3372   7.356   7.616   0.176
    8CHTO   H12 3373   7.428   7.686   0.136
    8CHTO   H13 3374   7.403   7.546   0.243
    8CHTO   C15 3375   7.300   7.769   0.375
    8CHTO   H28 3376   7.382   7.837   0.350
    8CHTO   O10 3377   7.344   7.675   0.489
    8CHTO    H4 3378   7.418   7.624   0.460
    8CHTO    O5 3379   7.193   7.842   0.438
    8CHTO   C10 3380   7.133   7.941   0.353
    8CHTO   H23 3381   7.210   8.010   0.318
    8CHTO   C17 3382   7.033   8.023   0.437
    8CHTO   O12 3383   7.100   8.093   0.543
    8CHTO    H6 3384   7.154   8.161   0.507
    9CHTO  H203 3385   6.663   2.820   1.993
    9CHTO   O82 3386   6.610   2.883   1.949
    9CHTO  C123 3387   6.503   2.818   1.878
    9CHTO  H227 3388   6.440   2.765   1.950
    9CHTO   O77 3389   6.430   2.931   1.821
    9CHTO  C118 3390   6.315   2.894   1.744
    9CHTO  H222 3391   6.248   2.831   1.806
    9CHTO  C125 3392   6.238   3.025   1.704
    9CHTO   O84 3393   6.183   3.089   1.820
    9CHTO  H205 3394   6.112   3.039   1.854
    9CHTO  C114 3395   6.360   2.814   1.620
    9CHTO  H218 3396   6.430   2.876   1.564
    9CHTO  C116 3397   6.437   2.686   1.665
    9CHTO  H220 3398   6.366   2.616   1.714
    9CHTO   O79 3399   6.487   2.617   1.548
    9CHTO  H201 3400   6.415   2.583   1.497
    9CHTO  C120 3401   6.555   2.722   1.764
    9CHTO  H224 3402   6.632   2.775   1.703
    9CHTO   N21 3403   6.621   2.601   1.821
    9CHTO  H211 3404   6.549   2.520   1.831
    9CHTO  H212 3405   6.703   2.570   1.758
    9CHTO   O75 3406   6.241   2.790   1.544
    9CHTO  C112 3407   6.264   2.748   1.383
    9CHTO  H216 3408   6.287   2.640   1.377
    9CHTO   O73 3409   6.372   2.828   1.331
    9CHTO  C113 3410   6.406   2.799   1.194
    9CHTO  H217 3411   6.429   2.691   1.186
    9CHTO  C124 3412   6.536   2.874   1.159
    9CHTO   O83 3413   6.526   3.016   1.178
    9CHTO  H204 3414   6.467   3.052   1.115
    9CHTO  C109 3415   6.287   2.836   1.101
    9CHTO  H213 3416   6.269   2.944   1.115
    9CHTO  C110 3417   6.160   2.757   1.147
    9CHTO  H214 3418   6.175   2.652   1.127
    9CHTO   O78 3419   6.048   2.800   1.067
    9CHTO  H200 3420   6.030   2.891   1.081
    9CHTO  C111 3421   6.133   2.777   1.300
    9CHTO  H215 3422   6.105   2.882   1.317
    9CHTO   N19 3423   6.020   2.694   1.351
    9CHTO  H207 3424   5.930   2.718   1.297
    9CHTO  H208 3425   6.005   2.713   1.456
    9CHTO   O74 3426   6.318   2.813   0.960
    9CHTO  C115 3427   6.341   2.661   0.915
    9CHTO  H219 3428   6.360   2.596   1.001
    9CHTO   O76 3429   6.212   2.600   0.844
    9CHTO  C122 3430   6.179   2.661   0.718
    9CHTO  H226 3431   6.148   2.764   0.736
    9CHTO  C126 3432   6.052   2.585   0.665
    9CHTO   O85 3433   5.994   2.646   0.549
    9CHTO  H206 3434   5.917   2.598   0.524
    9CHTO  C121 3435   6.302   2.655   0.618
    9CHTO  H225 3436   6.325   2.549   0.597
    9CHTO   O81 3437   6.271   2.717   0.492
    9CHTO  H202 3438   6.250   2.808   0.505
    9CHTO  C119 3439   6.428   2.721   0.684
    9CHTO  H223 3440   6.510   2.706   0.614
    9CHTO  C117 3441   6.468   2.656   0.822
    9CHTO  H221 3442   6.544   2.710   0.878
    9CHTO   N20 3443   6.522   2.516   0.806
    9CHTO  H209 3444   6.465   2.445   0.864
    9CHTO  H210 3445   6.626   2.513   0.835
    9CHTO   O80 3446   6.419   2.875   0.686
    9CHTO  C103 3447   6.540   2.961   0.744
    9CHTO  H190 3448   6.548   2.948   0.852
    9CHTO  C101 3449   6.683   2.940   0.681
    9CHTO  H188 3450   6.675   2.948   0.572
    9CHTO   O68 3451   6.736   2.797   0.716
    9CHTO  H168 3452   6.747   2.789   0.808
    9CHTO   C99 3453   6.784   3.053   0.732
    9CHTO  H186 3454   6.794   3.045   0.843
    9CHTO   N17 3455   6.923   3.044   0.676
    9CHTO  H174 3456   6.963   2.945   0.694
    9CHTO  H175 3457   6.986   3.119   0.720
    9CHTO   C97 3458   6.722   3.193   0.706
    9CHTO  H184 3459   6.718   3.209   0.597
    9CHTO   O64 3460   6.592   3.204   0.766
    9CHTO  C104 3461   6.494   3.110   0.718
    9CHTO  H191 3462   6.479   3.124   0.611
    9CHTO  C108 3463   6.359   3.141   0.785
    9CHTO   O71 3464   6.366   3.132   0.927
    9CHTO  H171 3465   6.282   3.151   0.964
    9CHTO   O62 3466   6.793   3.299   0.773
    9CHTO   C91 3467   6.827   3.421   0.705
    9CHTO  H178 3468   6.896   3.395   0.624
    9CHTO   C92 3469   6.910   3.501   0.811
    9CHTO  H179 3470   6.867   3.481   0.911
    9CHTO   O66 3471   7.041   3.442   0.814
    9CHTO  H166 3472   7.092   3.480   0.884
    9CHTO   C93 3473   6.918   3.657   0.787
    9CHTO  H180 3474   6.981   3.674   0.699
    9CHTO   N16 3475   6.983   3.730   0.899
    9CHTO  H172 3476   6.929   3.713   0.991
    9CHTO  H173 3477   7.086   3.698   0.909
    9CHTO   C94 3478   6.774   3.710   0.758
    9CHTO  H181 3479   6.704   3.683   0.837
    9CHTO   O61 3480   6.729   3.648   0.637
    9CHTO   C95 3481   6.706   3.506   0.642
    9CHTO  H182 3482   6.616   3.487   0.700
    9CHTO  C106 3483   6.677   3.459   0.495
    9CHTO   O69 3484   6.563   3.523   0.436
    9CHTO  H169 3485   6.580   3.614   0.424
    9CHTO   O63 3486   6.773   3.874   0.733
    9CHTO   C96 3487   6.645   3.944   0.791
    9CHTO  H183 3488   6.608   3.884   0.875
    9CHTO   C98 3489   6.529   3.960   0.689
    9CHTO  H185 3490   6.568   4.009   0.598
    9CHTO   O67 3491   6.487   3.829   0.648
    9CHTO  H167 3492   6.555   3.787   0.597
    9CHTO  C102 3493   6.407   4.044   0.750
    9CHTO  H189 3494   6.367   3.983   0.832
    9CHTO   N18 3495   6.292   4.067   0.658
    9CHTO  H176 3496   6.202   4.025   0.699
    9CHTO  H177 3497   6.312   4.023   0.561
    9CHTO  C105 3498   6.461   4.176   0.810
    9CHTO  H192 3499   6.499   4.240   0.730
    9CHTO   O65 3500   6.569   4.153   0.903
    9CHTO  C100 3501   6.683   4.086   0.848
    9CHTO  H187 3502   6.723   4.147   0.766
    9CHTO  C107 3503   6.794   4.077   0.957
    9CHTO   O70 3504   6.750   4.004   1.072
    9CHTO  H170 3505   6.820   3.999   1.134
    9CHTO   O57 3506   6.336   4.252   0.891
    9CHTO   C85 3507   6.309   4.390   0.861
    9CHTO  H157 3508   6.313   4.398   0.750
    9CHTO   C83 3509   6.425   4.480   0.914
    9CHTO  H155 3510   6.517   4.450   0.863
    9CHTO   O56 3511   6.449   4.452   1.054
    9CHTO  H135 3512   6.376   4.481   1.105
    9CHTO   C81 3513   6.396   4.629   0.882
    9CHTO  H153 3514   6.382   4.638   0.774
    9CHTO   N14 3515   6.510   4.719   0.910
    9CHTO  H141 3516   6.598   4.686   0.858
    9CHTO  H142 3517   6.531   4.721   1.015
    9CHTO   C79 3518   6.263   4.673   0.952
    9CHTO  H151 3519   6.241   4.775   0.920
    9CHTO   O52 3520   6.152   4.590   0.905
    9CHTO   C86 3521   6.171   4.445   0.918
    9CHTO  H158 3522   6.163   4.426   1.027
    9CHTO   C90 3523   6.049   4.375   0.854
    9CHTO   O60 3524   6.048   4.234   0.878
    9CHTO  H138 3525   6.119   4.193   0.832
    9CHTO   O50 3526   6.269   4.672   1.096
    9CHTO   C73 3527   6.225   4.706   1.228
    9CHTO  H145 3528   6.116   4.705   1.233
    9CHTO   C74 3529   6.276   4.847   1.271
    9CHTO  H146 3530   6.236   4.920   1.198
    9CHTO   O54 3531   6.216   4.879   1.398
    9CHTO  H133 3532   6.124   4.893   1.389
    9CHTO   C75 3533   6.433   4.848   1.274
    9CHTO  H147 3534   6.470   4.832   1.172
    9CHTO   N13 3535   6.493   4.977   1.316
    9CHTO  H139 3536   6.462   5.002   1.416
    9CHTO  H140 3537   6.601   4.971   1.314
    9CHTO   C76 3538   6.487   4.726   1.364
    9CHTO  H148 3539   6.465   4.747   1.468
    9CHTO   O49 3540   6.424   4.599   1.326
    9CHTO   C77 3541   6.280   4.601   1.329
    9CHTO  H149 3542   6.246   4.626   1.430
    9CHTO   C88 3543   6.224   4.461   1.300
    9CHTO   O58 3544   6.272   4.364   1.394
    9CHTO  H136 3545   6.364   4.349   1.381
    9CHTO   O51 3546   6.641   4.703   1.336
    9CHTO   C78 3547   6.706   4.603   1.435
    9CHTO  H150 3548   6.631   4.535   1.480
    9CHTO   C80 3549   6.779   4.679   1.548
    9CHTO  H152 3550   6.843   4.756   1.501
    9CHTO   O55 3551   6.678   4.746   1.626
    9CHTO  H134 3552   6.639   4.816   1.577
    9CHTO   C84 3553   6.868   4.585   1.637
    9CHTO  H156 3554   6.801   4.521   1.695
    9CHTO   N15 3555   6.951   4.661   1.736
    9CHTO  H143 3556   6.888   4.718   1.801
    9CHTO  H144 3557   7.009   4.593   1.795
    9CHTO   C87 3558   6.956   4.494   1.548
    9CHTO  H159 3559   7.033   4.553   1.498
    9CHTO   O53 3560   6.868   4.422   1.445
    9CHTO   C82 3561   6.805   4.515   1.356
    9CHTO  H154 3562   6.879   4.576   1.305
    9CHTO   C89 3563   6.730   4.435   1.246
    9CHTO   O59 3564   6.821   4.357   1.168
    9CHTO  H137 3565   6.773   4.309   1.103
    9CHTO   O45 3566   7.025   4.381   1.635
    9CHTO   C67 3567   7.119   4.303   1.560
    9CHTO  H124 3568   7.128   4.338   1.457
    9CHTO   C65 3569   7.259   4.311   1.629
    9CHTO  H122 3570   7.276   4.418   1.648
    9CHTO   O44 3571   7.361   4.261   1.541
    9CHTO  H102 3572   7.368   4.315   1.465
    9CHTO   C63 3573   7.250   4.244   1.771
    9CHTO  H120 3574   7.170   4.293   1.828
    9CHTO   N11 3575   7.369   4.265   1.860
    9CHTO  H108 3576   7.390   4.370   1.868
    9CHTO  H109 3577   7.349   4.225   1.957
    9CHTO   C61 3578   7.207   4.093   1.754
    9CHTO  H118 3579   7.184   4.056   1.855
    9CHTO   O40 3580   7.084   4.079   1.677
    9CHTO   C68 3581   7.066   4.154   1.551
    9CHTO  H125 3582   6.956   4.160   1.534
    9CHTO   C72 3583   7.125   4.073   1.432
    9CHTO   O48 3584   7.098   4.135   1.306
    9CHTO  H105 3585   7.136   4.083   1.237
    9CHTO   O38 3586   7.308   4.012   1.691
    9CHTO   C55 3587   7.380   3.920   1.775
    9CHTO  H112 3588   7.371   3.951   1.881
    9CHTO   C56 3589   7.532   3.919   1.726
    9CHTO  H113 3590   7.568   4.023   1.731
    9CHTO   O42 3591   7.612   3.846   1.821
    9CHTO  H100 3592   7.703   3.856   1.800
    9CHTO   C57 3593   7.548   3.855   1.582
    9CHTO  H114 3594   7.635   3.788   1.586
    9CHTO   N10 3595   7.578   3.953   1.475
    9CHTO  H106 3596   7.684   3.968   1.466
    9CHTO  H107 3597   7.531   4.048   1.497
    9CHTO   C58 3598   7.424   3.770   1.546
    9CHTO  H115 3599   7.342   3.837   1.511
    9CHTO   O37 3600   7.379   3.696   1.661
    9CHTO   C59 3601   7.316   3.777   1.763
    9CHTO  H116 3602   7.210   3.786   1.739
    9CHTO   C70 3603   7.325   3.700   1.895
    9CHTO   O46 3604   7.248   3.760   2.000
    9CHTO  H103 3605   7.157   3.754   1.981
    9CHTO   O39 3606   7.460   3.665   1.429
    9CHTO   C60 3607   7.353   3.579   1.383
    9CHTO  H117 3608   7.336   3.503   1.459
    9CHTO   C62 3609   7.218   3.654   1.358
    9CHTO  H119 3610   7.185   3.692   1.457
    9CHTO   O43 3611   7.242   3.765   1.270
    9CHTO  H101 3612   7.164   3.816   1.261
    9CHTO   C66 3613   7.108   3.551   1.303
    9CHTO  H123 3614   7.099   3.468   1.373
    9CHTO   N12 3615   6.973   3.612   1.294
    9CHTO  H110 3616   6.940   3.643   1.392
    9CHTO  H111 3617   6.975   3.696   1.226
    9CHTO   C69 3618   7.159   3.494   1.168
    9CHTO  H126 3619   7.176   3.576   1.095
    9CHTO   O41 3620   7.292   3.419   1.195
    9CHTO   C64 3621   7.402   3.504   1.255
    9CHTO  H121 3622   7.436   3.579   1.180
    9CHTO   C71 3623   7.520   3.408   1.284
    9CHTO   O47 3624   7.640   3.477   1.321
    9CHTO  H104 3625   7.631   3.514   1.406
    9CHTO   O34 3626   7.056   3.393   1.102
    9CHTO   C49 3627   7.031   3.250   1.142
    9CHTO   H91 3628   7.033   3.252   1.251
    9CHTO   C47 3629   7.145   3.158   1.091
    9CHTO   H89 3630   7.231   3.177   1.159
    9CHTO   O33 3631   7.185   3.194   0.957
    9CHTO   H70 3632   7.220   3.281   0.955
    9CHTO   C45 3633   7.103   3.002   1.091
    9CHTO   H87 3634   7.064   2.978   0.991
    9CHTO    N8 3635   7.220   2.916   1.117
    9CHTO   H75 3636   7.193   2.812   1.105
    9CHTO   H76 3637   7.257   2.932   1.217
    9CHTO   C43 3638   6.978   2.977   1.188
    9CHTO   H85 3639   6.955   2.871   1.185
    9CHTO   O29 3640   6.866   3.058   1.143
    9CHTO   C50 3641   6.894   3.192   1.098
    9CHTO   H92 3642   6.892   3.193   0.988
    9CHTO   C54 3643   6.779   3.286   1.140
    9CHTO   O36 3644   6.658   3.256   1.068
    9CHTO   H72 3645   6.624   3.174   1.097
    9CHTO   O27 3646   7.010   3.009   1.325
    9CHTO   C37 3647   7.021   3.032   1.466
    9CHTO   H79 3648   7.041   2.938   1.518
    9CHTO   C38 3649   7.140   3.129   1.497
    9CHTO   H80 3650   7.136   3.213   1.426
    9CHTO   O31 3651   7.261   3.055   1.473
    9CHTO   H68 3652   7.336   3.112   1.482
    9CHTO   C39 3653   7.134   3.186   1.644
    9CHTO   H81 3654   7.153   3.104   1.713
    9CHTO    N7 3655   7.239   3.291   1.670
    9CHTO   H73 3656   7.338   3.249   1.654
    9CHTO   H74 3657   7.231   3.327   1.772
    9CHTO   C40 3658   6.989   3.241   1.672
    9CHTO   H82 3659   6.970   3.322   1.602
    9CHTO   O26 3660   6.897   3.132   1.655
    9CHTO   C41 3661   6.885   3.090   1.516
    9CHTO   H83 3662   6.856   3.176   1.453
    9CHTO   C52 3663   6.773   2.984   1.507
    9CHTO   O35 3664   6.642   3.038   1.547
    9CHTO   H71 3665   6.578   2.970   1.543
    9CHTO   O28 3666   6.969   3.290   1.806
    9CHTO   C42 3667   6.852   3.372   1.840
    9CHTO   H84 3668   6.873   3.405   1.942
    9CHTO   C44 3669   6.715   3.295   1.847
    9CHTO   H86 3670   6.699   3.244   1.752
    9CHTO   O32 3671   6.726   3.196   1.950
    9CHTO   H69 3672   6.787   3.129   1.925
    9CHTO   C48 3673   6.590   3.391   1.869
    9CHTO   H90 3674   6.596   3.433   1.970
    9CHTO    N9 3675   6.460   3.317   1.862
    9CHTO   H77 3676   6.449   3.269   1.766
    9CHTO   H78 3677   6.454   3.244   1.942
    9CHTO   C51 3678   6.599   3.508   1.765
    9CHTO   H93 3679   6.601   3.462   1.665
    9CHTO   O30 3680   6.720   3.580   1.793
    9CHTO   C46 3681   6.840   3.501   1.753
    9CHTO   H88 3682   6.829   3.473   1.648
    9CHTO   C53 3683   6.963   3.593   1.769
    9CHTO   O72 3684   6.958   3.702   1.677
    9CHTO  H199 3685   7.036   3.755   1.686
    9CHTO   O22 3686   6.492   3.604   1.773
    9CHTO   C31 3687   6.465   3.698   1.662
    9CHTO   H59 3688   6.372   3.750   1.689
    9CHTO   C29 3689   6.574   3.807   1.643
    9CHTO   H57 3690   6.670   3.755   1.628
    9CHTO   O21 3691   6.584   3.880   1.767
    9CHTO   H37 3692   6.659   3.937   1.765
    9CHTO   C27 3693   6.547   3.901   1.519
    9CHTO   H55 3694   6.457   3.961   1.539
    9CHTO    N5 3695   6.661   3.994   1.493
    9CHTO   H43 3696   6.628   4.096   1.502
    9CHTO   H44 3697   6.704   3.977   1.396
    9CHTO   C25 3698   6.515   3.812   1.394
    9CHTO   H53 3699   6.604   3.751   1.370
    9CHTO   O17 3700   6.403   3.724   1.424
    9CHTO   C32 3701   6.435   3.627   1.526
    9CHTO   H60 3702   6.523   3.571   1.495
    9CHTO   C36 3703   6.317   3.527   1.535
    9CHTO   O25 3704   6.192   3.591   1.564
    9CHTO   H40 3705   6.124   3.527   1.568
    9CHTO   O15 3706   6.478   3.897   1.268
    9CHTO   C19 3707   6.427   3.855   1.138
    9CHTO   H47 3708   6.477   3.922   1.067
    9CHTO   C20 3709   6.460   3.707   1.100
    9CHTO   H48 3710   6.419   3.636   1.173
    9CHTO   O19 3711   6.604   3.695   1.103
    9CHTO   H35 3712   6.629   3.605   1.091
    9CHTO   C21 3713   6.404   3.669   0.957
    9CHTO   H49 3714   6.462   3.722   0.882
    9CHTO    N4 3715   6.420   3.524   0.926
    9CHTO   H41 3716   6.482   3.510   0.839
    9CHTO   H42 3717   6.464   3.470   1.009
    9CHTO   C22 3718   6.257   3.716   0.941
    9CHTO   H50 3719   6.189   3.647   0.991
    9CHTO   O14 3720   6.236   3.850   0.987
    9CHTO   C23 3721   6.275   3.880   1.122
    9CHTO   H51 3722   6.215   3.816   1.190
    9CHTO   C34 3723   6.242   4.027   1.150
    9CHTO   O23 3724   6.102   4.055   1.132
    9CHTO   H38 3725   6.052   4.011   1.199
    9CHTO   O16 3726   6.222   3.734   0.802
    9CHTO   C24 3727   6.146   3.618   0.727
    9CHTO   H52 3728   6.153   3.523   0.781
    9CHTO   C26 3729   6.208   3.604   0.587
    9CHTO   H54 3730   6.214   3.706   0.541
    9CHTO   O20 3731   6.343   3.556   0.604
    9CHTO   H36 3732   6.388   3.557   0.522
    9CHTO   C30 3733   6.126   3.512   0.491
    9CHTO   H58 3734   6.136   3.407   0.524
    9CHTO    N6 3735   6.178   3.515   0.352
    9CHTO   H45 3736   6.265   3.578   0.343
    9CHTO   H46 3737   6.103   3.549   0.282
    9CHTO   C33 3738   5.974   3.545   0.500
    9CHTO   H61 3739   5.955   3.645   0.457
    9CHTO   O18 3740   5.934   3.547   0.638
    9CHTO   C28 3741   5.995   3.651   0.716
    9CHTO   H56 3742   5.984   3.748   0.667
    9CHTO   C35 3743   5.926   3.656   0.854
    9CHTO   O24 3744   5.787   3.688   0.845
    9CHTO   H39 3745   5.776   3.776   0.813
    9CHTO    O9 3746   5.893   3.454   0.423
    9CHTO   C13 3747   5.739   3.507   0.392
    9CHTO   H26 3748   5.746   3.601   0.334
    9CHTO   C11 3749   5.659   3.526   0.527
    9CHTO   H24 3750   5.703   3.611   0.581
    9CHTO    O8 3751   5.673   3.409   0.609
    9CHTO    H3 3752   5.763   3.397   0.634
    9CHTO    C9 3753   5.511   3.562   0.495
    9CHTO   H22 3754   5.516   3.654   0.434
    9CHTO    N2 3755   5.432   3.599   0.615
    9CHTO   H10 3756   5.422   3.514   0.681
    9CHTO   H11 3757   5.335   3.635   0.586
    9CHTO    C7 3758   5.447   3.447   0.412
    9CHTO   H20 3759   5.350   3.490   0.378
    9CHTO    O4 3760   5.522   3.413   0.294
    9CHTO   C14 3761   5.666   3.402   0.296
    9CHTO   H27 3762   5.699   3.425   0.192
    9CHTO   C18 3763   5.707   3.256   0.325
    9CHTO   O13 3764   5.662   3.168   0.221
    9CHTO    H7 3765   5.685   3.079   0.243
    9CHTO    O2 3766   5.425   3.314   0.505
    9CHTO    C1 3767   5.301   3.243   0.485
    9CHTO   H14 3768   5.285   3.228   0.376
    9CHTO    C2 3769   5.171   3.311   0.547
    9CHTO   H15 3770   5.190   3.321   0.655
    9CHTO    O6 3771   5.149   3.442   0.490
    9CHTO    H1 3772   5.083   3.487   0.539
    9CHTO    C3 3773   5.043   3.218   0.520
    9CHTO   H16 3774   5.020   3.221   0.413
    9CHTO    N1 3775   4.920   3.267   0.592
    9CHTO    H8 3776   4.897   3.368   0.560
    9CHTO    H9 3777   4.836   3.203   0.570
    9CHTO    C4 3778   5.073   3.066   0.553
    9CHTO   H17 3779   5.066   3.050   0.661
    9CHTO    O1 3780   5.201   3.024   0.504
    9CHTO    C5 3781   5.313   3.102   0.549
    9CHTO   H18 3782   5.309   3.113   0.658
    9CHTO   C16 3783   5.441   3.024   0.511
    9CHTO   O11 3784   5.557   3.073   0.579
    9CHTO    H5 3785   5.550   3.053   0.671
    9CHTO    O3 3786   4.982   2.980   0.481
    9CHTO    C6 3787   4.924   2.866   0.552
    9CHTO   H19 3788   4.948   2.864   0.659
    9CHTO    C8 3789   4.769   2.872   0.537
    9CHTO   H21 3790   4.746   2.891   0.432
    9CHTO    O7 3791   4.723   2.983   0.616
    9CHTO    H2 3792   4.632   2.999   0.601
    9CHTO   C12 3793   4.699   2.736   0.580
    9CHTO   H25 3794   4.711   2.729   0.690
    9CHTO    N3 3795   4.552   2.740   0.552
    9CHTO   H12 3796   4.506   2.647   0.582
    9CHTO   H13 3797   4.534   2.758   0.447
    9CHTO   C15 3798   4.773   2.615   0.513
    9CHTO   H28 3799   4.760   2.615   0.405
    9CHTO   O10 3800   4.730   2.479   0.570
    9CHTO    H4 3801   4.768   2.410   0.519
    9CHTO    O5 3802   4.913   2.619   0.546
    9CHTO   C10 3803   4.981   2.733   0.491
    9CHTO   H23 3804   4.967   2.734   0.383
    9CHTO   C17 3805   5.131   2.716   0.519
    9CHTO   O12 3806   5.184   2.600   0.455
    9CHTO    H6 3807   5.154   2.523   0.498
   10CHTO  H203 3808   3.687   6.307   2.109
   10CHTO   O82 3809   3.617   6.288   2.169
   10CHTO  C123 3810   3.652   6.335   2.301
   10CHTO  H227 3811   3.678   6.442   2.295
   10CHTO   O77 3812   3.529   6.316   2.377
   10CHTO  C118 3813   3.532   6.378   2.507
   10CHTO  H222 3814   3.545   6.487   2.495
   10CHTO  C125 3815   3.392   6.351   2.574
   10CHTO   O84 3816   3.287   6.415   2.502
   10CHTO  H205 3817   3.206   6.402   2.548
   10CHTO  C114 3818   3.645   6.320   2.594
   10CHTO  H218 3819   3.617   6.220   2.625
   10CHTO  C116 3820   3.781   6.307   2.519
   10CHTO  H220 3821   3.830   6.407   2.516
   10CHTO   O79 3822   3.867   6.224   2.598
   10CHTO  H201 3823   3.834   6.136   2.602
   10CHTO  C120 3824   3.765   6.252   2.371
   10CHTO  H224 3825   3.734   6.145   2.381
   10CHTO   N21 3826   3.893   6.254   2.296
   10CHTO  H211 3827   3.955   6.336   2.328
   10CHTO  H212 3828   3.875   6.258   2.190
   10CHTO   O75 3829   3.650   6.407   2.710
   10CHTO  C112 3830   3.675   6.331   2.857
   10CHTO  H216 3831   3.729   6.236   2.840
   10CHTO   O73 3832   3.545   6.309   0.031
   10CHTO  C113 3833   3.546   6.249   0.162
   10CHTO  H217 3834   3.598   6.150   0.155
   10CHTO  C124 3835   3.402   6.222   0.205
   10CHTO   O83 3836   3.338   6.122   0.124
   10CHTO  H204 3837   3.248   6.115   0.148
   10CHTO  C109 3838   3.621   6.339   0.264
   10CHTO  H213 3839   3.565   6.434   0.269
   10CHTO  C110 3840   3.765   6.364   0.212
   10CHTO  H214 3841   3.818   6.269   0.211
   10CHTO   O78 3842   3.835   6.449   0.305
   10CHTO  H200 3843   3.847   6.405   0.387
   10CHTO  C111 3844   3.761   6.424   0.068
   10CHTO  H215 3845   3.711   6.522   0.073
   10CHTO   N19 3846   3.895   6.447   0.009
   10CHTO  H207 3847   3.950   6.354   0.002
   10CHTO  H208 3848   3.886   6.492   2.795
   10CHTO   O74 3849   3.624   6.277   0.397
   10CHTO  C115 3850   3.568   6.376   0.516
   10CHTO  H219 3851   3.619   6.473   0.515
   10CHTO   O76 3852   3.413   6.411   0.495
   10CHTO  C122 3853   3.350   6.479   0.604
   10CHTO  H226 3854   3.243   6.485   0.581
   10CHTO  C126 3855   3.402   6.628   0.609
   10CHTO   O85 3856   3.351   6.703   0.720
   10CHTO  H206 3857   3.259   6.716   0.710
   10CHTO  C121 3858   3.368   6.399   0.738
   10CHTO  H225 3859   3.319   6.456   0.819
   10CHTO   O81 3860   3.304   6.272   0.730
   10CHTO  H202 3861   3.211   6.283   0.720
   10CHTO  C119 3862   3.519   6.382   0.773
   10CHTO  H223 3863   3.561   6.482   0.783
   10CHTO  C117 3864   3.596   6.308   0.656
   10CHTO  H221 3865   3.567   6.204   0.642
   10CHTO   N20 3866   3.744   6.305   0.682
   10CHTO  H209 3867   3.770   6.362   0.770
   10CHTO  H210 3868   3.778   6.203   0.693
   10CHTO   O80 3869   3.548   6.320   0.925
   10CHTO  C103 3870   3.478   6.387   1.060
   10CHTO  H190 3871   3.542   6.368   1.146
   10CHTO  C101 3872   3.452   6.543   1.055
   10CHTO  H188 3873   3.404   6.570   0.961
   10CHTO   O68 3874   3.585   6.613   1.059
   10CHTO  H168 3875   3.572   6.706   1.049
   10CHTO   C99 3876   3.355   6.589   1.174
   10CHTO  H186 3877   3.405   6.568   1.270
   10CHTO   N17 3878   3.322   6.736   1.175
   10CHTO  H174 3879   3.360   6.784   1.086
   10CHTO  H175 3880   3.216   6.752   1.186
   10CHTO   C97 3881   3.228   6.499   1.172
   10CHTO  H184 3882   3.178   6.513   1.075
   10CHTO   O64 3883   3.268   6.362   1.191
   10CHTO  C104 3884   3.344   6.306   1.083
   10CHTO  H191 3885   3.287   6.303   0.991
   10CHTO  C108 3886   3.372   6.159   1.122
   10CHTO   O71 3887   3.438   6.085   1.020
   10CHTO  H171 3888   3.453   5.997   1.050
   10CHTO   O62 3889   3.138   6.525   1.282
   10CHTO   C91 3890   2.997   6.517   1.255
   10CHTO  H178 3891   2.981   6.444   1.176
   10CHTO   C92 3892   2.943   6.655   1.202
   10CHTO  H179 3893   2.982   6.735   1.267
   10CHTO   O66 3894   3.001   6.679   1.072
   10CHTO  H166 3895   2.977   6.765   1.041
   10CHTO   C93 3896   2.786   6.662   1.193
   10CHTO  H180 3897   2.754   6.593   1.113
   10CHTO   N16 3898   2.733   6.795   1.155
   10CHTO  H172 3899   2.767   6.870   1.224
   10CHTO  H173 3900   2.765   6.819   1.054
   10CHTO   C94 3901   2.723   6.613   1.329
   10CHTO  H181 3902   2.754   6.675   1.413
   10CHTO   O61 3903   2.770   6.479   1.355
   10CHTO   C95 3904   2.911   6.471   1.380
   10CHTO  H182 3905   2.936   6.535   1.465
   10CHTO  C106 3906   2.948   6.325   1.421
   10CHTO   O69 3907   2.886   6.290   1.545
   10CHTO  H169 3908   2.902   6.200   1.564
   10CHTO   O63 3909   2.560   6.611   1.317
   10CHTO   C96 3910   2.475   6.558   1.437
   10CHTO  H183 3911   2.493   6.451   1.446
   10CHTO   C98 3912   2.324   6.579   1.409
   10CHTO  H185 3913   2.304   6.683   1.380
   10CHTO   O67 3914   2.292   6.499   1.294
   10CHTO  H167 3915   2.203   6.514   1.268
   10CHTO  C102 3916   2.235   6.539   1.536
   10CHTO  H189 3917   2.258   6.433   1.555
   10CHTO   N18 3918   2.088   6.545   1.517
   10CHTO  H176 3919   2.058   6.477   1.439
   10CHTO  H177 3920   2.058   6.645   1.491
   10CHTO  C105 3921   2.280   6.622   1.659
   10CHTO  H192 3922   2.210   6.704   1.677
   10CHTO   O65 3923   2.410   6.686   1.650
   10CHTO  C100 3924   2.518   6.628   1.574
   10CHTO  H187 3925   2.584   6.712   1.549
   10CHTO  C107 3926   2.602   6.533   1.664
   10CHTO   O70 3927   2.529   6.417   1.706
   10CHTO  H170 3928   2.585   6.362   1.759
   10CHTO   O57 3929   2.273   6.519   1.778
   10CHTO   C85 3930   2.214   6.558   1.903
   10CHTO  H157 3931   2.128   6.623   1.878
   10CHTO   C83 3932   2.313   6.649   1.983
   10CHTO  H155 3933   2.328   6.742   1.927
   10CHTO   O56 3934   2.442   6.584   1.989
   10CHTO  H135 3935   2.505   6.642   2.028
   10CHTO   C81 3936   2.252   6.683   2.121
   10CHTO  H153 3937   2.156   6.732   2.105
   10CHTO   N14 3938   2.331   6.783   2.198
   10CHTO  H141 3939   2.426   6.742   2.225
   10CHTO  H142 3940   2.279   6.811   2.287
   10CHTO   C79 3941   2.226   6.550   2.201
   10CHTO  H151 3942   2.178   6.578   2.296
   10CHTO   O52 3943   2.130   6.467   2.128
   10CHTO   C86 3944   2.171   6.435   1.992
   10CHTO  H158 3945   2.256   6.363   2.004
   10CHTO   C90 3946   2.059   6.355   1.921
   10CHTO   O60 3947   2.032   6.232   1.988
   10CHTO  H138 3948   1.960   6.189   1.947
   10CHTO   O50 3949   2.344   6.474   2.230
   10CHTO   C73 3950   2.373   6.358   2.309
   10CHTO  H145 3951   2.310   6.274   2.278
   10CHTO   C74 3952   2.345   6.387   2.460
   10CHTO  H146 3953   2.239   6.414   2.469
   10CHTO   O54 3954   2.362   6.266   2.535
   10CHTO  H133 3955   2.451   6.236   2.531
   10CHTO   C75 3956   2.440   6.505   2.506
   10CHTO  H147 3957   2.418   6.594   2.445
   10CHTO   N13 3958   2.417   6.548   2.646
   10CHTO  H139 3959   2.436   6.466   2.714
   10CHTO  H140 3960   2.483   6.630   2.671
   10CHTO   C76 3961   2.592   6.464   2.477
   10CHTO  H148 3962   2.619   6.381   2.544
   10CHTO   O49 3963   2.611   6.422   2.338
   10CHTO   C77 3964   2.523   6.318   2.292
   10CHTO  H149 3965   2.542   6.227   2.348
   10CHTO   C88 3966   2.559   6.287   2.146
   10CHTO   O58 3967   2.478   6.176   2.092
   10CHTO  H136 3968   2.499   6.163   2.002
   10CHTO   O51 3969   2.686   6.588   2.492
   10CHTO   C78 3970   2.822   6.555   2.562
   10CHTO  H150 3971   2.842   6.446   2.564
   10CHTO   C80 3972   2.819   6.608   2.707
   10CHTO  H152 3973   2.784   6.714   2.705
   10CHTO   O55 3974   2.721   6.530   2.779
   10CHTO  H134 3975   2.635   6.551   2.750
   10CHTO   C84 3976   2.960   6.601   2.777
   10CHTO  H156 3977   2.985   6.495   2.789
   10CHTO   N15 3978   2.960   6.661   0.030
   10CHTO  H143 3979   2.935   6.765   0.025
   10CHTO  H144 3980   3.056   6.651   0.075
   10CHTO   C87 3981   3.067   6.665   2.685
   10CHTO  H159 3982   3.049   6.773   2.677
   10CHTO   O53 3983   3.061   6.600   2.546
   10CHTO   C82 3984   2.935   6.621   2.481
   10CHTO  H154 3985   2.916   6.728   2.472
   10CHTO   C89 3986   2.942   6.564   2.337
   10CHTO   O59 3987   2.973   6.425   2.334
   10CHTO  H137 3988   2.980   6.396   2.245
   10CHTO   O45 3989   3.217   6.637   2.744
   10CHTO   C67 3990   3.307   6.747   2.721
   10CHTO  H124 3991   3.293   6.789   2.622
   10CHTO   C65 3992   3.285   6.859   2.828
   10CHTO  H122 3993   3.177   6.877   2.830
   10CHTO   O44 3994   3.352   6.979   2.787
   10CHTO  H102 3995   3.316   7.012   2.707
   10CHTO   C63 3996   3.322   6.804   0.086
   10CHTO  H120 3997   3.266   6.711   0.103
   10CHTO   N11 3998   3.278   6.888   0.202
   10CHTO  H108 3999   3.297   6.836   0.294
   10CHTO  H109 4000   3.173   6.909   0.194
   10CHTO   C61 4001   3.474   6.765   0.087
   10CHTO  H118 4002   3.487   6.708   0.180
   10CHTO   O40 4003   3.510   6.675   2.862
   10CHTO   C68 4004   3.456   6.693   2.726
   10CHTO  H125 4005   3.454   6.592   2.683
   10CHTO   C72 4006   3.555   6.776   2.641
   10CHTO   O48 4007   3.519   6.779   2.502
   10CHTO  H105 4008   3.582   6.830   2.455
   10CHTO   O38 4009   3.561   6.881   0.090
   10CHTO   C55 4010   3.704   6.862   0.093
   10CHTO  H112 4011   3.733   6.789   0.016
   10CHTO   C56 4012   3.758   6.822   0.237
   10CHTO  H113 4013   3.725   6.901   0.307
   10CHTO   O42 4014   3.698   6.700   0.283
   10CHTO  H100 4015   3.725   6.681   0.371
   10CHTO   C57 4016   3.916   6.811   0.236
   10CHTO  H114 4017   3.941   6.724   0.175
   10CHTO   N10 4018   3.977   6.789   0.370
   10CHTO  H106 4019   3.917   6.836   0.447
   10CHTO  H107 4020   3.984   6.684   0.391
   10CHTO   C58 4021   3.978   6.937   0.169
   10CHTO  H115 4022   3.967   7.024   0.238
   10CHTO   O37 4023   3.916   6.968   0.043
   10CHTO   C59 4024   3.775   6.995   0.054
   10CHTO  H116 4025   3.758   7.072   0.129
   10CHTO   C70 4026   3.727   7.051   2.803
   10CHTO   O46 4027   3.787   7.177   2.771
   10CHTO  H103 4028   3.754   7.208   2.689
   10CHTO   O39 4029   4.132   6.913   0.133
   10CHTO   C60 4030   4.203   7.037   0.116
   10CHTO  H117 4031   4.134   7.115   0.084
   10CHTO   C62 4032   4.267   7.082   0.251
   10CHTO  H119 4033   4.182   7.093   0.323
   10CHTO   O43 4034   4.355   6.980   0.302
   10CHTO  H101 4035   4.427   6.967   0.243
   10CHTO   C66 4036   4.338   7.224   0.231
   10CHTO  H123 4037   4.265   7.294   0.191
   10CHTO   N12 4038   4.385   7.283   0.359
   10CHTO  H110 4039   4.367   7.217   0.442
   10CHTO  H111 4040   4.489   7.312   0.353
   10CHTO   C69 4041   4.449   7.207   0.124
   10CHTO  H126 4042   4.523   7.134   0.160
   10CHTO   O41 4043   4.387   7.156   2.874
   10CHTO   C64 4044   4.311   7.023   0.005
   10CHTO  H121 4045   4.382   6.942   0.034
   10CHTO   C71 4046   4.246   6.985   2.754
   10CHTO   O47 4047   4.346   6.964   2.654
   10CHTO  H104 4048   4.305   6.939   2.573
   10CHTO   O34 4049   4.520   7.334   0.097
   10CHTO   C49 4050   4.637   7.400   0.041
   10CHTO   H91 4051   4.721   7.330   0.052
   10CHTO   C47 4052   4.662   7.528   0.123
   10CHTO   H89 4053   4.757   7.572   0.085
   10CHTO   O33 4054   4.680   7.491   0.261
   10CHTO   H70 4055   4.701   7.568   0.312
   10CHTO   C45 4056   4.540   7.629   0.098
   10CHTO   H87 4057   4.446   7.578   0.124
   10CHTO    N8 4058   4.549   7.752   0.181
   10CHTO   H75 4059   4.636   7.810   0.153
   10CHTO   H76 4060   4.460   7.812   0.169
   10CHTO   C43 4061   4.529   7.661   2.824
   10CHTO   H85 4062   4.438   7.721   2.812
   10CHTO   O29 4063   4.522   7.539   2.747
   10CHTO   C50 4064   4.618   7.434   2.775
   10CHTO   H92 4065   4.582   7.343   2.725
   10CHTO   C54 4066   4.755   7.459   2.705
   10CHTO   O36 4067   4.742   7.477   2.564
   10CHTO   H72 4068   4.699   7.559   2.546
   10CHTO   O27 4069   4.638   7.742   2.778
   10CHTO   C37 4070   4.669   7.837   2.676
   10CHTO   H79 4071   4.696   7.786   2.582
   10CHTO   C38 4072   4.544   7.927   2.645
   10CHTO   H80 4073   4.500   7.958   2.742
   10CHTO   O31 4074   4.449   7.845   2.575
   10CHTO   H68 4075   4.414   7.779   2.633
   10CHTO   C39 4076   4.580   8.056   2.561
   10CHTO   H81 4077   4.606   8.023   2.461
   10CHTO    N7 4078   4.464   8.150   2.549
   10CHTO   H73 4079   4.492   8.235   2.487
   10CHTO   H74 4080   4.433   8.185   2.646
   10CHTO   C40 4081   4.707   8.126   2.623
   10CHTO   H82 4082   4.683   8.165   2.722
   10CHTO   O26 4083   4.814   8.030   2.627
   10CHTO   C41 4084   4.790   7.923   2.722
   10CHTO   H83 4085   4.770   7.966   2.822
   10CHTO   C52 4086   4.921   7.841   2.731
   10CHTO   O35 4087   4.922   7.745   2.841
   10CHTO   H71 4088   5.004   7.699   2.842
   10CHTO   O28 4089   4.754   8.235   2.542
   10CHTO   C42 4090   4.878   8.308   2.566
   10CHTO   H84 4091   4.956   8.232   2.558
   10CHTO   C44 4092   4.896   8.375   2.707
   10CHTO   H86 4093   4.808   8.436   2.728
   10CHTO   O32 4094   4.902   8.269   2.805
   10CHTO   H69 4095   4.907   8.305   0.007
   10CHTO   C48 4096   5.024   8.469   2.715
   10CHTO   H90 4097   5.113   8.407   2.709
   10CHTO    N9 4098   5.033   8.542   2.846
   10CHTO   H77 4099   5.040   8.471   0.043
   10CHTO   H78 4100   5.120   8.606   2.846
   10CHTO   C51 4101   5.022   8.566   2.592
   10CHTO   H93 4102   4.932   8.628   2.598
   10CHTO   O30 4103   5.024   8.487   2.473
   10CHTO   C46 4104   4.902   8.410   2.450
   10CHTO   H88 4105   4.817   8.478   2.442
   10CHTO   C53 4106   4.924   8.338   2.314
   10CHTO   O72 4107   4.809   8.268   2.267
   10CHTO  H199 4108   4.830   8.224   2.187
   10CHTO   O22 4109   5.140   8.649   2.582
   10CHTO   C31 4110   5.131   8.774   2.504
   10CHTO   H59 4111   5.031   8.774   2.455
   10CHTO   C29 4112   5.139   8.902   2.590
   10CHTO   H57 4113   5.239   8.906   2.636
   10CHTO   O21 4114   5.044   8.891   2.698
   10CHTO   H37 4115   5.069   8.823   2.757
   10CHTO   C27 4116   5.117   9.031   2.503
   10CHTO   H55 4117   5.013   9.030   2.465
   10CHTO    N5 4118   5.137   9.157   2.580
   10CHTO   H43 4119   5.071   9.159   2.665
   10CHTO   H44 4120   5.117   9.243   2.516
   10CHTO   C25 4121   5.211   9.026   2.377
   10CHTO   H53 4122   5.315   9.040   2.409
   10CHTO   O17 4123   5.202   8.898   2.308
   10CHTO   C32 4124   5.235   8.784   2.388
   10CHTO   H60 4125   5.335   8.796   2.431
   10CHTO   C36 4126   5.236   8.663   2.292
   10CHTO   O25 4127   5.288   8.545   2.355
   10CHTO   H40 4128   5.228   8.514   2.420
   10CHTO   O15 4129   5.174   9.133   2.277
   10CHTO   C19 4130   5.198   9.194   2.148
   10CHTO   H47 4131   5.186   9.111   2.076
   10CHTO   C20 4132   5.095   9.306   2.115
   10CHTO   H48 4133   5.092   9.383   2.194
   10CHTO   O19 4134   4.966   9.243   2.110
   10CHTO   H35 4135   4.899   9.307   2.095
   10CHTO   C21 4136   5.128   9.379   1.978
   10CHTO   H49 4137   5.113   9.308   1.896
   10CHTO    N4 4138   5.038   9.495   1.951
   10CHTO   H41 4139   5.065   9.541   1.857
   10CHTO   H42 4140   4.936   9.462   1.946
   10CHTO   C22 4141   5.278   9.419   1.978
   10CHTO   H50 4142   5.294   9.493   2.057
   10CHTO   O14 4143   5.360   9.303   2.000
   10CHTO   C23 4144   5.344   9.246   2.131
   10CHTO   H51 4145   5.370   9.322   2.205
   10CHTO   C34 4146   5.447   9.132   2.144
   10CHTO   O23 4147   5.582   9.181   2.137
   10CHTO   H38 4148   5.601   9.209   2.050
   10CHTO   O16 4149   5.321   9.470   1.850
   10CHTO   C24 4150   5.451   9.555   1.862
   10CHTO   H52 4151   5.504   9.536   1.955
   10CHTO   C26 4152   5.415   9.705   1.855
   10CHTO   H54 4153   5.347   9.721   1.767
   10CHTO   O20 4154   5.341   9.739   1.974
   10CHTO   H36 4155   5.258   9.695   1.975
   10CHTO   C30 4156   5.541   9.794   1.836
   10CHTO   H58 4157   5.607   9.786   1.924
   10CHTO    N6 4158   5.508   9.939   1.824
   10CHTO   H45 4159   5.442   9.955   1.740
   10CHTO   H46 4160   5.459   9.973   1.914
   10CHTO   C33 4161   5.622   9.740   1.715
   10CHTO   H61 4162   5.557   9.741   1.625
   10CHTO   O18 4163   5.657   9.604   1.744
   10CHTO   C28 4164   5.546   9.514   1.747
   10CHTO   H56 4165   5.492   9.517   1.653
   10CHTO   C35 4166   5.601   9.371   1.769
   10CHTO   O24 4167   5.687   9.329   1.663
   10CHTO   H39 4168   5.716   9.242   1.678
   10CHTO    O9 4169   5.737   9.818   1.680
   10CHTO   C13 4170   5.779   9.817   1.521
   10CHTO   H26 4171   5.714   9.890   1.470
   10CHTO   C11 4172   5.768   9.673   1.454
   10CHTO   H24 4173   5.662   9.643   1.454
   10CHTO    O8 4174   5.840   9.575   1.531
   10CHTO    H3 4175   5.826   9.489   1.495
   10CHTO    C9 4176   5.816   9.686   1.307
   10CHTO   H22 4177   5.754   9.765   1.262
   10CHTO    N2 4178   5.787   9.565   1.225
   10CHTO   H10 4179   5.810   9.585   1.121
   10CHTO   H11 4180   5.844   9.481   1.261
   10CHTO    C7 4181   5.966   9.732   1.304
   10CHTO   H20 4182   5.986   9.754   1.197
   10CHTO    O4 4183   5.987   9.853   1.380
   10CHTO   C14 4184   5.926   9.873   1.508
   10CHTO   H27 4185   5.919   9.984   1.521
   10CHTO   C18 4186   6.016   9.820   1.623
   10CHTO   O13 4187   6.136   9.897   1.638
   10CHTO    H7 4188   6.193   9.882   1.565
   10CHTO    O2 4189   6.069   9.616   1.357
   10CHTO    C1 4190   6.195   9.610   1.287
   10CHTO   H14 4191   6.227   9.713   1.260
   10CHTO    C2 4192   6.192   9.521   1.155
   10CHTO   H15 4193   6.145   9.426   1.184
   10CHTO    O6 4194   6.111   9.586   1.055
   10CHTO    H1 4195   6.021   9.589   1.082
   10CHTO    C3 4196   6.340   9.493   1.099
   10CHTO   H16 4197   6.383   9.588   1.063
   10CHTO    N1 4198   6.342   9.397   0.982
   10CHTO    H8 4199   6.398   9.308   1.006
   10CHTO    H9 4200   6.241   9.371   0.953
   10CHTO    C4 4201   6.433   9.447   1.217
   10CHTO   H17 4202   6.399   9.349   1.253
   10CHTO    O1 4203   6.430   9.543   1.323
   10CHTO    C5 4204   6.302   9.555   1.386
   10CHTO   H18 4205   6.270   9.456   1.418
   10CHTO   C16 4206   6.322   9.644   1.511
   10CHTO   O11 4207   6.369   9.775   1.478
   10CHTO    H5 4208   6.377   9.826   1.556
   10CHTO    O3 4209   6.572   9.440   1.180
   10CHTO    C6 4210   6.657   9.357   1.267
   10CHTO   H19 4211   6.606   9.327   1.359
   10CHTO    C8 4212   6.700   9.229   1.190
   10CHTO   H21 4213   6.744   9.259   1.095
   10CHTO    O7 4214   6.581   9.152   1.167
   10CHTO    H2 4215   6.600   9.078   1.111
   10CHTO   C12 4216   6.808   9.147   1.273
   10CHTO   H25 4217   6.756   9.109   1.364
   10CHTO    N3 4218   6.857   9.028   1.197
   10CHTO   H12 4219   6.904   9.060   1.105
   10CHTO   H13 4220   6.927   8.972   1.257
   10CHTO   C15 4221   6.923   9.244   1.320
   10CHTO   H28 4222   6.984   9.278   1.235
   10CHTO   O10 4223   7.015   9.181   1.426
   10CHTO    H4 4224   7.064   9.111   1.388
   10CHTO    O5 4225   6.870   9.357   1.390
   10CHTO   C10 4226   6.783   9.438   1.310
   10CHTO   H23 4227   6.838   9.471   1.222
   10CHTO   C17 4228   6.749   9.565   1.391
   10CHTO   O12 4229   6.683   9.535   1.515
   10CHTO    H6 4230   6.743   9.496   1.575
   11CHTO  H203 4231   4.641   4.475   1.711
   11CHTO   O82 4232   4.632   4.526   1.633
   11CHTO  C123 4233   4.738   4.622   1.624
   11CHTO  H227 4234   4.747   4.675   1.720
   11CHTO   O77 4235   4.857   4.541   1.600
   11CHTO  C118 4236   4.981   4.613   1.599
   11CHTO  H222 4237   4.997   4.662   1.696
   11CHTO  C125 4238   5.090   4.501   1.579
   11CHTO   O84 4239   5.224   4.549   1.600
   11CHTO  H205 4240   5.247   4.609   1.532
   11CHTO  C114 4241   4.978   4.717   1.485
   11CHTO  H218 4242   4.967   4.664   1.390
   11CHTO  C116 4243   4.853   4.810   1.496
   11CHTO  H220 4244   4.862   4.874   1.587
   11CHTO   O79 4245   4.854   4.900   1.383
   11CHTO  H201 4246   4.784   4.962   1.390
   11CHTO  C120 4247   4.721   4.724   1.505
   11CHTO  H224 4248   4.713   4.669   1.409
   11CHTO   N21 4249   4.599   4.808   1.520
   11CHTO  H211 4250   4.622   4.898   1.574
   11CHTO  H212 4251   4.559   4.831   1.423
   11CHTO   O75 4252   5.105   4.786   1.483
   11CHTO  C112 4253   5.156   4.880   1.617
   11CHTO  H216 4254   5.158   4.817   1.707
   11CHTO   O73 4255   5.065   4.991   1.631
   11CHTO  C113 4256   5.092   5.072   1.746
   11CHTO  H217 4257   5.092   5.009   1.836
   11CHTO  C124 4258   4.972   5.168   1.762
   11CHTO   O83 4259   4.980   5.252   1.878
   11CHTO  H204 4260   5.050   5.313   1.868
   11CHTO  C109 4261   5.230   5.144   1.729
   11CHTO  H213 4262   5.219   5.212   1.643
   11CHTO  C110 4263   5.341   5.038   1.700
   11CHTO  H214 4264   5.362   4.984   1.793
   11CHTO   O78 4265   5.462   5.106   1.663
   11CHTO  H200 4266   5.497   5.153   1.737
   11CHTO  C111 4267   5.299   4.938   1.589
   11CHTO  H215 4268   5.296   4.992   1.493
   11CHTO   N19 4269   5.396   4.826   1.571
   11CHTO  H207 4270   5.364   4.762   1.490
   11CHTO  H208 4271   5.494   4.866   1.548
   11CHTO   O74 4272   5.264   5.222   1.848
   11CHTO  C115 4273   5.341   5.364   1.815
   11CHTO  H219 4274   5.369   5.371   1.710
   11CHTO   O76 4275   5.250   5.486   1.840
   11CHTO  C122 4276   5.222   5.503   1.979
   11CHTO  H226 4277   5.180   5.409   2.016
   11CHTO  C126 4278   5.107   5.609   1.996
   11CHTO   O85 4279   5.140   5.736   1.941
   11CHTO  H206 4280   5.209   5.776   1.989
   11CHTO  C121 4281   5.352   5.540   2.063
   11CHTO  H225 4282   5.351   5.649   2.084
   11CHTO   O81 4283   5.349   5.470   2.187
   11CHTO  H202 4284   5.277   5.500   2.240
   11CHTO  C119 4285   5.483   5.506   1.985
   11CHTO  H223 4286   5.496   5.587   1.912
   11CHTO  C117 4287   5.473   5.370   1.905
   11CHTO  H221 4288   5.468   5.281   1.968
   11CHTO   N20 4289   5.598   5.353   1.823
   11CHTO  H209 4290   5.655   5.269   1.860
   11CHTO  H210 4291   5.574   5.338   1.718
   11CHTO   O80 4292   5.622   5.523   2.078
   11CHTO  C103 4293   5.679   5.669   2.117
   11CHTO  H190 4294   5.787   5.663   2.129
   11CHTO  C101 4295   5.649   5.788   2.019
   11CHTO  H188 4296   5.542   5.795   2.002
   11CHTO   O68 4297   5.720   5.760   1.881
   11CHTO  H168 4298   5.813   5.756   1.893
   11CHTO   C99 4299   5.698   5.926   2.086
   11CHTO  H186 4300   5.807   5.920   2.107
   11CHTO   N17 4301   5.676   6.047   2.000
   11CHTO  H174 4302   5.728   6.035   1.906
   11CHTO  H175 4303   5.571   6.063   1.984
   11CHTO   C97 4304   5.629   5.940   2.225
   11CHTO  H184 4305   5.520   5.945   2.208
   11CHTO   O64 4306   5.666   5.828   2.307
   11CHTO  C104 4307   5.619   5.700   2.260
   11CHTO  H191 4308   5.510   5.697   2.255
   11CHTO  C108 4309   5.660   5.592   2.361
   11CHTO   O71 4310   5.601   5.616   2.489
   11CHTO  H171 4311   5.634   5.553   2.551
   11CHTO   O62 4312   5.672   6.056   2.301
   11CHTO   C91 4313   5.586   6.096   2.409
   11CHTO  H178 4314   5.485   6.062   2.386
   11CHTO   C92 4315   5.578   6.253   2.412
   11CHTO  H179 4316   5.557   6.291   2.311
   11CHTO   O66 4317   5.464   6.290   2.491
   11CHTO  H166 4318   5.385   6.264   2.449
   11CHTO   C93 4319   5.705   6.321   2.477
   11CHTO  H180 4320   5.674   6.420   2.512
   11CHTO   N16 4321   5.812   6.348   2.377
   11CHTO  H172 4322   5.904   6.298   2.403
   11CHTO  H173 4323   5.829   6.454   2.367
   11CHTO   C94 4324   5.759   6.238   2.600
   11CHTO  H181 4325   5.847   6.179   2.575
   11CHTO   O61 4326   5.660   6.144   2.647
   11CHTO   C95 4327   5.629   6.040   2.552
   11CHTO  H182 4328   5.716   5.976   2.541
   11CHTO  C106 4329   5.515   5.950   2.613
   11CHTO   O69 4330   5.556   5.888   2.735
   11CHTO  H169 4331   5.563   5.952   2.803
   11CHTO   O63 4332   5.793   6.336   2.719
   11CHTO   C96 4333   5.913   6.283   2.813
   11CHTO  H183 4334   5.981   6.223   2.753
   11CHTO   C98 4335   5.868   6.196   0.050
   11CHTO  H185 4336   5.785   6.246   0.101
   11CHTO   O67 4337   5.814   6.074   2.881
   11CHTO  H167 4338   5.779   6.022   0.067
   11CHTO  C102 4339   5.986   6.165   0.155
   11CHTO  H189 4340   6.050   6.091   0.107
   11CHTO   N18 4341   5.939   6.103   0.282
   11CHTO  H176 4342   5.832   6.089   0.281
   11CHTO  H177 4343   5.988   6.008   0.297
   11CHTO  C105 4344   6.071   6.293   0.182
   11CHTO  H192 4345   6.015   6.361   0.245
   11CHTO   O65 4346   6.107   6.362   0.061
   11CHTO  C100 4347   5.994   6.407   2.867
   11CHTO  H187 4348   5.929   6.467   0.048
   11CHTO  C107 4349   6.043   6.499   2.753
   11CHTO   O70 4350   6.124   6.428   2.659
   11CHTO  H170 4351   6.207   6.408   2.698
   11CHTO   O57 4352   6.209   6.241   0.259
   11CHTO   C85 4353   6.279   6.330   0.348
   11CHTO  H157 4354   6.201   6.391   0.398
   11CHTO   C83 4355   6.364   6.431   0.264
   11CHTO  H155 4356   6.296   6.496   0.210
   11CHTO   O56 4357   6.442   6.361   0.165
   11CHTO  H135 4358   6.385   6.321   0.102
   11CHTO   C81 4359   6.450   6.518   0.360
   11CHTO  H153 4360   6.383   6.568   0.430
   11CHTO   N14 4361   6.520   6.630   0.292
   11CHTO  H141 4362   6.449   6.691   0.240
   11CHTO  H142 4363   6.591   6.592   0.222
   11CHTO   C79 4364   6.548   6.427   0.444
   11CHTO  H151 4365   6.602   6.492   0.513
   11CHTO   O52 4366   6.469   6.335   0.525
   11CHTO   C86 4367   6.371   6.253   0.454
   11CHTO  H158 4368   6.432   6.174   0.405
   11CHTO   C90 4369   6.286   6.181   0.562
   11CHTO   O60 4370   6.199   6.083   0.507
   11CHTO  H138 4371   6.149   6.043   0.575
   11CHTO   O50 4372   6.644   6.354   0.366
   11CHTO   C73 4373   6.769   6.287   0.394
   11CHTO  H145 4374   6.757   6.221   0.481
   11CHTO   C74 4375   6.882   6.390   0.425
   11CHTO  H146 4376   6.849   6.450   0.512
   11CHTO   O54 4377   6.998   6.317   0.468
   11CHTO  H133 4378   7.068   6.377   0.487
   11CHTO   C75 4379   6.905   6.481   0.297
   11CHTO  H147 4380   6.814   6.542   0.282
   11CHTO   N13 4381   7.015   6.579   0.315
   11CHTO  H139 4382   7.094   6.562   0.242
   11CHTO  H140 4383   6.978   6.680   0.302
   11CHTO   C76 4384   6.922   6.392   0.164
   11CHTO  H148 4385   7.023   6.350   0.163
   11CHTO   O49 4386   6.823   6.284   0.154
   11CHTO   C77 4387   6.814   6.202   0.272
   11CHTO  H149 4388   6.912   6.159   0.293
   11CHTO   C88 4389   6.724   6.080   0.247
   11CHTO   O58 4390   6.590   6.115   0.208
   11CHTO  H136 4391   6.546   6.157   0.280
   11CHTO   O51 4392   6.890   6.484   0.035
   11CHTO   C78 4393   6.986   6.457   2.794
   11CHTO  H150 4394   7.050   6.367   2.811
   11CHTO   C80 4395   7.077   6.580   2.774
   11CHTO  H152 4396   7.013   6.670   2.769
   11CHTO   O55 4397   7.161   6.590   0.007
   11CHTO  H134 4398   7.213   6.668   0.002
   11CHTO   C84 4399   7.164   6.570   2.642
   11CHTO  H156 4400   7.235   6.489   2.656
   11CHTO   N15 4401   7.243   6.695   2.615
   11CHTO  H143 4402   7.178   6.779   2.607
   11CHTO  H144 4403   7.312   6.712   2.695
   11CHTO   C87 4404   7.074   6.534   2.521
   11CHTO  H159 4405   7.008   6.617   2.496
   11CHTO   O53 4406   6.989   6.408   2.557
   11CHTO   C82 4407   6.902   6.430   2.668
   11CHTO  H154 4408   6.833   6.512   2.648
   11CHTO   C89 4409   6.816   6.301   2.682
   11CHTO   O59 4410   6.703   6.321   2.769
   11CHTO  H137 4411   6.640   6.377   2.727
   11CHTO   O45 4412   7.165   6.495   2.394
   11CHTO   C67 4413   7.093   6.484   2.270
   11CHTO  H124 4414   6.989   6.456   2.290
   11CHTO   C65 4415   7.093   6.621   2.191
   11CHTO  H122 4416   7.179   6.677   2.229
   11CHTO   O44 4417   6.972   6.690   2.228
   11CHTO  H102 4418   6.975   6.715   2.318
   11CHTO   C63 4419   7.122   6.602   2.037
   11CHTO  H120 4420   7.228   6.579   2.025
   11CHTO   N11 4421   7.109   6.725   1.952
   11CHTO  H108 4422   7.145   6.705   1.854
   11CHTO  H109 4423   7.006   6.755   1.947
   11CHTO   C61 4424   7.043   6.476   1.985
   11CHTO  H118 4425   7.073   6.462   1.880
   11CHTO   O40 4426   7.078   6.354   2.055
   11CHTO   C68 4427   7.152   6.367   2.182
   11CHTO  H125 4428   7.258   6.389   2.158
   11CHTO   C72 4429   7.150   6.231   2.256
   11CHTO   O48 4430   7.018   6.186   2.289
   11CHTO  H105 4431   6.971   6.164   2.211
   11CHTO   O38 4432   6.901   6.495   1.995
   11CHTO   C55 4433   6.822   6.408   1.911
   11CHTO  H112 4434   6.880   6.319   1.883
   11CHTO   C56 4435   6.771   6.487   1.784
   11CHTO  H113 4436   6.715   6.575   1.821
   11CHTO   O42 4437   6.883   6.540   1.709
   11CHTO  H100 4438   6.937   6.470   1.677
   11CHTO   C57 4439   6.679   6.395   1.695
   11CHTO  H114 4440   6.747   6.324   1.647
   11CHTO   N10 4441   6.610   6.469   1.586
   11CHTO  H106 4442   6.671   6.471   1.497
   11CHTO  H107 4443   6.588   6.570   1.616
   11CHTO   C58 4444   6.576   6.316   1.780
   11CHTO  H115 4445   6.490   6.382   1.807
   11CHTO   O37 4446   6.631   6.260   1.901
   11CHTO   C59 4447   6.697   6.355   1.986
   11CHTO  H116 4448   6.629   6.437   2.010
   11CHTO   C70 4449   6.737   6.286   2.117
   11CHTO   O46 4450   6.623   6.251   2.196
   11CHTO  H103 4451   6.651   6.212   2.277
   11CHTO   O39 4452   6.527   6.188   1.696
   11CHTO   C60 4453   6.387   6.159   1.706
   11CHTO  H117 4454   6.352   6.182   1.807
   11CHTO   C62 4455   6.305   6.244   1.605
   11CHTO  H119 4456   6.322   6.350   1.633
   11CHTO   O43 4457   6.355   6.224   1.471
   11CHTO  H101 4458   6.344   6.134   1.445
   11CHTO   C66 4459   6.149   6.209   1.621
   11CHTO  H123 4460   6.120   6.225   1.725
   11CHTO   N12 4461   6.063   6.300   1.540
   11CHTO  H110 4462   6.076   6.402   1.572
   11CHTO  H111 4463   6.085   6.288   1.435
   11CHTO   C69 4464   6.127   6.059   1.588
   11CHTO  H126 4465   6.156   6.038   1.483
   11CHTO   O41 4466   6.215   5.973   1.685
   11CHTO   C64 4467   6.363   6.007   1.683
   11CHTO  H121 4468   6.406   5.978   1.585
   11CHTO   C71 4469   6.432   5.925   1.794
   11CHTO   O47 4470   6.434   5.785   1.761
   11CHTO  H104 4471   6.347   5.750   1.767
   11CHTO   O34 4472   5.978   6.016   1.608
   11CHTO   C49 4473   5.884   5.913   1.545
   11CHTO   H91 4474   5.793   5.918   1.605
   11CHTO   C47 4475   5.941   5.770   1.556
   11CHTO   H89 4476   5.933   5.744   1.664
   11CHTO   O33 4477   6.079   5.763   1.517
   11CHTO   H70 4478   6.132   5.816   1.575
   11CHTO   C45 4479   5.860   5.664   1.463
   11CHTO   H87 4480   5.922   5.645   1.374
   11CHTO    N8 4481   5.840   5.536   1.534
   11CHTO   H75 4482   5.898   5.458   1.487
   11CHTO   H76 4483   5.866   5.543   1.638
   11CHTO   C43 4484   5.727   5.728   1.400
   11CHTO   H85 4485   5.685   5.652   1.334
   11CHTO   O29 4486   5.763   5.848   1.329
   11CHTO   C50 4487   5.846   5.944   1.397
   11CHTO   H92 4488   5.939   5.956   1.340
   11CHTO   C54 4489   5.780   6.084   1.385
   11CHTO   O36 4490   5.652   6.090   1.448
   11CHTO   H72 4491   5.590   6.040   1.400
   11CHTO   O27 4492   5.626   5.758   1.498
   11CHTO   C37 4493   5.504   5.738   1.569
   11CHTO   H79 4494   5.522   5.688   1.665
   11CHTO   C38 4495   5.440   5.877   1.602
   11CHTO   H80 4496   5.437   5.936   1.509
   11CHTO   O31 4497   5.525   5.944   1.696
   11CHTO   H68 4498   5.527   5.899   1.778
   11CHTO   C39 4499   5.293   5.864   1.657
   11CHTO   H81 4500   5.300   5.818   1.756
   11CHTO    N7 4501   5.223   5.996   1.675
   11CHTO   H73 4502   5.277   6.057   1.745
   11CHTO   H74 4503   5.216   6.047   1.580
   11CHTO   C40 4504   5.209   5.766   1.567
   11CHTO   H82 4505   5.190   5.812   1.469
   11CHTO   O26 4506   5.278   5.641   1.554
   11CHTO   C41 4507   5.406   5.652   1.485
   11CHTO   H83 4508   5.391   5.698   1.387
   11CHTO   C52 4509   5.458   5.508   1.463
   11CHTO   O35 4510   5.372   5.430   1.375
   11CHTO   H71 4511   5.407   5.344   1.366
   11CHTO   O28 4512   5.083   5.729   1.626
   11CHTO   C42 4513   4.970   5.681   1.546
   11CHTO   H84 4514   5.006   5.683   1.442
   11CHTO   C44 4515   4.845   5.775   1.549
   11CHTO   H86 4516   4.822   5.798   1.654
   11CHTO   O32 4517   4.883   5.899   1.487
   11CHTO   H69 4518   4.900   5.887   1.395
   11CHTO   C48 4519   4.716   5.710   1.484
   11CHTO   H90 4520   4.734   5.698   1.377
   11CHTO    N9 4521   4.595   5.799   1.497
   11CHTO   H77 4522   4.557   5.825   1.400
   11CHTO   H78 4523   4.519   5.752   1.557
   11CHTO   C51 4524   4.696   5.569   1.548
   11CHTO   H93 4525   4.688   5.581   1.657
   11CHTO   O30 4526   4.809   5.489   1.512
   11CHTO   C46 4527   4.935   5.533   1.579
   11CHTO   H88 4528   4.922   5.522   1.686
   11CHTO   C53 4529   5.045   5.435   1.531
   11CHTO   O72 4530   5.061   5.435   1.389
   11CHTO  H199 4531   5.129   5.376   1.365
   11CHTO   O22 4532   4.583   5.495   1.497
   11CHTO   C31 4533   4.518   5.397   1.587
   11CHTO   H59 4534   4.588   5.379   1.671
   11CHTO   C29 4535   4.386   5.449   1.648
   11CHTO   H57 4536   4.317   5.469   1.564
   11CHTO   O21 4537   4.413   5.574   1.712
   11CHTO   H37 4538   4.333   5.615   1.739
   11CHTO   C27 4539   4.319   5.345   1.747
   11CHTO   H55 4540   4.379   5.343   1.839
   11CHTO    N5 4541   4.180   5.385   1.781
   11CHTO   H43 4542   4.173   5.410   1.886
   11CHTO   H44 4543   4.109   5.307   1.758
   11CHTO   C25 4544   4.326   5.198   1.691
   11CHTO   H53 4545   4.248   5.184   1.615
   11CHTO   O17 4546   4.454   5.167   1.628
   11CHTO   C32 4547   4.492   5.257   1.523
   11CHTO   H60 4548   4.412   5.266   1.449
   11CHTO   C36 4549   4.618   5.198   1.453
   11CHTO   O25 4550   4.650   5.268   1.332
   11CHTO   H40 4551   4.584   5.252   1.268
   11CHTO   O15 4552   4.301   5.097   1.810
   11CHTO   C19 4553   4.311   4.952   1.814
   11CHTO   H47 4554   4.315   4.922   1.708
   11CHTO   C20 4555   4.438   4.896   1.886
   11CHTO   H48 4556   4.441   4.926   1.993
   11CHTO   O19 4557   4.553   4.956   1.822
   11CHTO   H35 4558   4.631   4.932   1.867
   11CHTO   C21 4559   4.443   4.738   1.879
   11CHTO   H49 4560   4.452   4.708   1.775
   11CHTO    N4 4561   4.559   4.677   1.952
   11CHTO   H41 4562   4.619   4.620   1.883
   11CHTO   H42 4563   4.620   4.754   1.997
   11CHTO   C22 4564   4.307   4.681   1.929
   11CHTO   H50 4565   4.296   4.705   2.035
   11CHTO   O14 4566   4.199   4.740   1.855
   11CHTO   C23 4567   4.186   4.882   1.874
   11CHTO   H51 4568   4.176   4.900   1.982
   11CHTO   C34 4569   4.055   4.929   1.808
   11CHTO   O23 4570   3.942   4.865   1.867
   11CHTO   H38 4571   3.864   4.892   1.824
   11CHTO   O16 4572   4.297   4.538   1.909
   11CHTO   C24 4573   4.156   4.476   1.951
   11CHTO   H52 4574   4.077   4.552   1.956
   11CHTO   C26 4575   4.165   4.404   2.086
   11CHTO   H54 4576   4.245   4.327   2.081
   11CHTO   O20 4577   4.202   4.501   2.186
   11CHTO   H36 4578   4.290   4.530   2.174
   11CHTO   C30 4579   4.030   4.334   2.121
   11CHTO   H58 4580   3.953   4.410   2.139
   11CHTO    N6 4581   4.038   4.255   2.248
   11CHTO   H45 4582   4.135   4.264   2.293
   11CHTO   H46 4583   4.015   4.151   2.231
   11CHTO   C33 4584   3.979   4.248   2.000
   11CHTO   H61 4585   4.045   4.160   1.988
   11CHTO   O18 4586   3.984   4.324   1.878
   11CHTO   C28 4587   4.113   4.376   1.841
   11CHTO   H56 4588   4.186   4.295   1.836
   11CHTO   C35 4589   4.104   4.443   1.702
   11CHTO   O24 4590   4.010   4.551   1.696
   11CHTO   H39 4591   3.923   4.519   1.706
   11CHTO    O9 4592   3.847   4.196   2.023
   11CHTO   C13 4593   3.819   4.051   1.955
   11CHTO   H26 4594   3.887   3.979   2.004
   11CHTO   C11 4595   3.839   4.054   1.798
   11CHTO   H24 4596   3.945   4.077   1.778
   11CHTO    O8 4597   3.760   4.158   1.737
   11CHTO    H3 4598   3.778   4.162   1.645
   11CHTO    C9 4599   3.811   3.910   1.746
   11CHTO   H22 4600   3.880   3.845   1.800
   11CHTO    N2 4601   3.845   3.890   1.603
   11CHTO   H10 4602   3.780   3.950   1.540
   11CHTO   H11 4603   3.948   3.917   1.585
   11CHTO    C7 4604   3.663   3.868   1.781
   11CHTO   H20 4605   3.662   3.760   1.757
   11CHTO    O4 4606   3.633   3.883   1.921
   11CHTO   C14 4607   3.673   4.001   1.994
   11CHTO   H27 4608   3.677   3.971   2.101
   11CHTO   C18 4609   3.566   4.113   1.982
   11CHTO   O13 4610   3.442   4.073   2.043
   11CHTO    H7 4611   3.400   4.008   1.991
   11CHTO    O2 4612   3.551   3.950   1.691
   11CHTO    C1 4613   3.435   3.882   1.637
   11CHTO   H14 4614   3.346   3.918   1.693
   11CHTO    C2 4615   3.435   3.723   1.640
   11CHTO   H15 4616   3.531   3.691   1.596
   11CHTO    O6 4617   3.426   3.679   1.776
   11CHTO    H1 4618   3.435   3.586   1.781
   11CHTO    C3 4619   3.313   3.661   1.554
   11CHTO   H16 4620   3.219   3.682   1.606
   11CHTO    N1 4621   3.323   3.512   1.540
   11CHTO    H8 4622   3.239   3.474   1.484
   11CHTO    H9 4623   3.415   3.486   1.489
   11CHTO    C4 4624   3.301   3.733   1.414
   11CHTO   H17 4625   3.386   3.704   1.352
   11CHTO    O1 4626   3.298   3.876   1.432
   11CHTO    C5 4627   3.416   3.932   1.491
   11CHTO   H18 4628   3.504   3.902   1.433
   11CHTO   C16 4629   3.403   4.086   1.484
   11CHTO   O11 4630   3.394   4.130   1.348
   11CHTO    H5 4631   3.371   4.221   1.346
   11CHTO    O3 4632   3.176   3.703   1.349
   11CHTO    C6 4633   3.180   3.703   1.202
   11CHTO   H19 4634   3.275   3.738   1.162
   11CHTO    C8 4635   3.155   3.558   1.149
   11CHTO   H21 4636   3.061   3.522   1.191
   11CHTO    O7 4637   3.263   3.475   1.195
   11CHTO    H2 4638   3.257   3.462   1.288
   11CHTO   C12 4639   3.144   3.558   0.991
   11CHTO   H25 4640   3.245   3.584   0.953
   11CHTO    N3 4641   3.110   3.422   0.938
   11CHTO   H12 4642   3.186   3.351   0.967
   11CHTO   H13 4643   3.102   3.425   0.830
   11CHTO   C15 4644   3.043   3.669   0.943
   11CHTO   H28 4645   2.940   3.642   0.965
   11CHTO   O10 4646   3.057   3.700   0.791
   11CHTO    H4 4647   3.146   3.721   0.770
   11CHTO    O5 4648   3.074   3.797   1.002
   11CHTO   C10 4649   3.070   3.797   1.146
   11CHTO   H23 4650   2.972   3.763   1.179
   11CHTO   C17 4651   3.087   3.942   1.193
   11CHTO   O12 4652   2.978   4.024   1.150
   11CHTO    H6 4653   2.991   4.112   1.180
   12CHTO  H203 4654   5.107   0.894   2.785
   12CHTO   O82 4655   5.117   0.816   2.734
   12CHTO  C123 4656   5.108   0.700   2.820
   12CHTO  H227 4657   5.170   0.717   0.025
   12CHTO   O77 4658   4.967   0.697   2.857
   12CHTO  C118 4659   4.933   0.593   0.066
   12CHTO  H222 4660   4.995   0.603   0.157
   12CHTO  C125 4661   4.781   0.611   0.106
   12CHTO   O84 4662   4.760   0.735   0.174
   12CHTO  H205 4663   4.773   0.807   0.115
   12CHTO  C114 4664   4.958   0.456   0.001
   12CHTO  H218 4665   4.896   0.448   2.796
   12CHTO  C116 4666   5.108   0.444   2.840
   12CHTO  H220 4667   5.173   0.442   0.046
   12CHTO   O79 4668   5.129   0.318   2.773
   12CHTO  H201 4669   5.116   0.247   2.832
   12CHTO  C120 4670   5.147   0.566   2.747
   12CHTO  H224 4671   5.088   0.555   2.654
   12CHTO   N21 4672   5.291   0.564   2.709
   12CHTO  H211 4673   5.328   0.463   2.703
   12CHTO  H212 4674   5.305   0.615   2.615
   12CHTO   O75 4675   4.914   0.361   0.100
   12CHTO  C112 4676   4.907   0.201   0.053
   12CHTO  H216 4677   5.006   0.155   0.071
   12CHTO   O73 4678   4.870   0.195   2.798
   12CHTO  C113 4679   4.882   0.063   2.744
   12CHTO  H217 4680   4.985   0.025   2.764
   12CHTO  C124 4681   4.866   0.069   2.592
   12CHTO   O83 4682   4.739   0.118   2.549
   12CHTO  H204 4683   4.734   0.115   2.455
   12CHTO  C109 4684   4.779   9.968   2.811
   12CHTO  H213 4685   4.679   0.002   2.778
   12CHTO  C110 4686   4.789   9.976   0.083
   12CHTO  H214 4687   4.878   9.921   0.113
   12CHTO   O78 4688   4.677   9.906   0.141
   12CHTO  H200 4689   4.596   9.947   0.117
   12CHTO  C111 4690   4.798   0.122   0.136
   12CHTO  H215 4691   4.701   0.171   0.120
   12CHTO   N19 4692   4.827   0.131   0.281
   12CHTO  H207 4693   4.830   0.234   0.313
   12CHTO  H208 4694   4.750   0.079   0.337
   12CHTO   O74 4695   4.802   9.832   2.764
   12CHTO  C115 4696   4.671   9.749   2.724
   12CHTO  H219 4697   4.581   9.812   2.726
   12CHTO   O76 4698   4.679   9.694   2.578
   12CHTO  C122 4699   4.799   9.619   2.555
   12CHTO  H226 4700   4.881   9.691   2.545
   12CHTO  C126 4701   4.789   9.548   2.415
   12CHTO   O85 4702   4.679   9.457   2.406
   12CHTO  H206 4703   4.675   9.421   2.320
   12CHTO  C121 4704   4.834   9.515   2.671
   12CHTO  H225 4705   4.858   9.417   2.626
   12CHTO   O81 4706   4.951   9.559   2.742
   12CHTO  H202 4707   5.026   9.555   2.685
   12CHTO  C119 4708   4.715   9.496   2.770
   12CHTO  H223 4709   4.637   9.447   2.711
   12CHTO  C117 4710   4.657   9.632   2.828
   12CHTO  H221 4711   4.710   9.668   0.033
   12CHTO   N20 4712   4.515   9.614   2.875
   12CHTO  H209 4713   4.480   9.704   0.039
   12CHTO  H210 4714   4.451   9.591   2.790
   12CHTO   O80 4715   4.744   9.390   2.879
   12CHTO  C103 4716   4.663   9.259   2.884
   12CHTO  H190 4717   4.556   9.279   2.870
   12CHTO  C101 4718   4.708   9.146   2.783
   12CHTO  H188 4719   4.817   9.143   2.781
   12CHTO   O68 4720   4.657   9.183   2.640
   12CHTO  H168 4721   4.694   9.265   2.613
   12CHTO   C99 4722   4.656   9.002   2.830
   12CHTO  H186 4723   4.545   9.000   2.828
   12CHTO   N17 4724   4.703   8.888   2.743
   12CHTO  H174 4725   4.811   8.881   2.747
   12CHTO  H175 4726   4.656   8.796   2.775
   12CHTO   C97 4727   4.696   8.981   0.095
   12CHTO  H184 4728   4.806   8.987   0.102
   12CHTO   O64 4729   4.631   9.082   0.174
   12CHTO  C104 4730   4.683   9.214   0.150
   12CHTO  H191 4731   4.789   9.219   0.175
   12CHTO  C108 4732   4.612   9.313   0.244
   12CHTO   O71 4733   4.641   9.285   0.381
   12CHTO  H171 4734   4.602   9.351   0.436
   12CHTO   O62 4735   4.646   8.859   0.154
   12CHTO   C91 4736   4.739   8.788   0.239
   12CHTO  H178 4737   4.818   8.751   0.174
   12CHTO   C92 4738   4.665   8.662   0.296
   12CHTO  H179 4739   4.622   8.604   0.213
   12CHTO   O66 4740   4.762   8.575   0.355
   12CHTO  H166 4741   4.808   8.618   0.425
   12CHTO   C93 4742   4.557   8.699   0.406
   12CHTO  H180 4743   4.555   8.617   0.479
   12CHTO   N16 4744   4.418   8.709   0.353
   12CHTO  H172 4745   4.414   8.681   0.249
   12CHTO  H173 4746   4.352   8.646   0.411
   12CHTO   C94 4747   4.597   8.832   0.481
   12CHTO  H181 4748   4.563   8.922   0.428
   12CHTO   O61 4749   4.741   8.843   0.488
   12CHTO   C95 4750   4.803   8.872   0.361
   12CHTO  H182 4751   4.793   8.979   0.341
   12CHTO  C106 4752   4.957   8.844   0.377
   12CHTO   O69 4753   5.030   8.887   0.262
   12CHTO  H169 4754   5.032   8.981   0.258
   12CHTO   O63 4755   4.535   8.837   0.631
   12CHTO   C96 4756   4.589   8.732   0.736
   12CHTO  H183 4757   4.606   8.638   0.684
   12CHTO   C98 4758   4.486   8.706   0.850
   12CHTO  H185 4759   4.388   8.680   0.808
   12CHTO   O67 4760   4.529   8.590   0.923
   12CHTO  H167 4761   4.465   8.566   0.987
   12CHTO  C102 4762   4.474   8.829   0.953
   12CHTO  H189 4763   4.432   8.787   1.045
   12CHTO   N18 4764   4.380   8.936   0.912
   12CHTO  H176 4765   4.376   9.013   0.987
   12CHTO  H177 4766   4.410   8.978   0.817
   12CHTO  C105 4767   4.616   8.886   0.986
   12CHTO  H192 4768   4.628   8.986   0.942
   12CHTO   O65 4769   4.725   8.806   0.937
   12CHTO  C100 4770   4.728   8.785   0.795
   12CHTO  H187 4771   4.752   8.881   0.748
   12CHTO  C107 4772   4.844   8.688   0.762
   12CHTO   O70 4773   4.971   8.745   0.794
   12CHTO  H170 4774   4.991   8.814   0.734
   12CHTO   O57 4775   4.615   8.898   1.149
   12CHTO   C85 4776   4.711   8.824   1.226
   12CHTO  H157 4777   4.809   8.837   1.174
   12CHTO   C83 4778   4.679   8.672   1.221
   12CHTO  H155 4779   4.678   8.641   1.117
   12CHTO   O56 4780   4.545   8.649   1.270
   12CHTO  H135 4781   4.521   8.560   1.258
   12CHTO   C81 4782   4.790   8.594   1.296
   12CHTO  H153 4783   4.886   8.618   1.249
   12CHTO   N14 4784   4.779   8.446   1.279
   12CHTO  H141 4785   4.688   8.420   1.228
   12CHTO  H142 4786   4.862   8.408   1.225
   12CHTO   C79 4787   4.797   8.640   1.446
   12CHTO  H151 4788   4.886   8.594   1.490
   12CHTO   O52 4789   4.817   8.785   1.454
   12CHTO   C86 4790   4.722   8.866   1.378
   12CHTO  H158 4791   4.625   8.853   1.432
   12CHTO   C90 4792   4.760   9.015   1.394
   12CHTO   O60 4793   4.656   9.102   1.348
   12CHTO  H138 4794   4.582   9.098   1.407
   12CHTO   O50 4795   4.683   8.603   1.525
   12CHTO   C73 4796   4.606   8.619   1.646
   12CHTO  H145 4797   4.511   8.670   1.623
   12CHTO   C74 4798   4.683   8.704   1.752
   12CHTO  H146 4799   4.706   8.801   1.705
   12CHTO   O54 4800   4.593   8.732   1.861
   12CHTO  H133 4801   4.524   8.789   1.832
   12CHTO   C75 4802   4.814   8.627   1.797
   12CHTO  H147 4803   4.879   8.617   1.709
   12CHTO   N13 4804   4.895   8.700   1.897
   12CHTO  H139 4805   4.984   8.643   1.921
   12CHTO  H140 4806   4.838   8.714   1.988
   12CHTO   C76 4807   4.777   8.478   1.845
   12CHTO  H148 4808   4.720   8.488   1.938
   12CHTO   O49 4809   4.694   8.409   1.747
   12CHTO   C77 4810   4.574   8.478   1.706
   12CHTO  H149 4811   4.508   8.490   1.792
   12CHTO   C88 4812   4.500   8.387   1.608
   12CHTO   O58 4813   4.376   8.444   1.566
   12CHTO  H136 4814   4.332   8.384   1.508
   12CHTO   O51 4815   4.913   8.378   1.866
   12CHTO   C78 4816   5.039   8.391   1.757
   12CHTO  H150 4817   5.055   8.497   1.727
   12CHTO   C80 4818   5.018   8.306   1.630
   12CHTO  H152 4819   5.011   8.199   1.660
   12CHTO   O55 4820   4.892   8.345   1.571
   12CHTO  H134 4821   4.821   8.319   1.626
   12CHTO   C84 4822   5.137   8.326   1.528
   12CHTO  H156 4823   5.133   8.430   1.494
   12CHTO   N15 4824   5.121   8.241   1.405
   12CHTO  H143 4825   5.121   8.302   1.317
   12CHTO  H144 4826   5.201   8.169   1.397
   12CHTO   C87 4827   5.274   8.305   1.598
   12CHTO  H159 4828   5.295   8.198   1.610
   12CHTO   O53 4829   5.278   8.376   1.734
   12CHTO   C82 4830   5.170   8.344   1.822
   12CHTO  H154 4831   5.168   8.236   1.842
   12CHTO   C89 4832   5.200   8.414   1.957
   12CHTO   O59 4833   5.119   8.362   2.063
   12CHTO  H137 4834   5.144   8.274   2.082
   12CHTO   O45 4835   5.394   8.378   1.517
   12CHTO   C67 4836   5.465   8.305   1.415
   12CHTO  H124 4837   5.397   8.253   1.348
   12CHTO   C65 4838   5.549   8.407   1.333
   12CHTO  H122 4839   5.481   8.490   1.311
   12CHTO   O44 4840   5.592   8.349   1.209
   12CHTO  H102 4841   5.632   8.414   1.155
   12CHTO   C63 4842   5.661   8.467   1.425
   12CHTO  H120 4843   5.616   8.503   1.518
   12CHTO   N11 4844   5.730   8.591   1.375
   12CHTO  H108 4845   5.657   8.666   1.352
   12CHTO  H109 4846   5.787   8.567   1.287
   12CHTO   C61 4847   5.759   8.351   1.465
   12CHTO  H118 4848   5.824   8.393   1.543
   12CHTO   O40 4849   5.691   8.238   1.526
   12CHTO   C68 4850   5.559   8.192   1.479
   12CHTO  H125 4851   5.507   8.154   1.570
   12CHTO   C72 4852   5.578   8.070   1.386
   12CHTO   O48 4853   5.456   8.002   1.355
   12CHTO  H105 4854   5.401   8.058   1.303
   12CHTO   O38 4855   5.838   8.306   1.353
   12CHTO   C55 4856   5.969   8.247   1.374
   12CHTO  H112 4857   5.961   8.171   1.454
   12CHTO   C56 4858   6.080   8.357   1.406
   12CHTO  H113 4859   6.067   8.438   1.332
   12CHTO   O42 4860   6.056   8.416   1.535
   12CHTO  H100 4861   6.117   8.486   1.550
   12CHTO   C57 4862   6.227   8.298   1.398
   12CHTO  H114 4863   6.240   8.230   1.483
   12CHTO   N10 4864   6.333   8.402   1.408
   12CHTO  H106 4865   6.357   8.419   1.512
   12CHTO  H107 4866   6.422   8.372   1.355
   12CHTO   C58 4867   6.243   8.215   1.268
   12CHTO  H115 4868   6.234   8.284   1.180
   12CHTO   O37 4869   6.141   8.115   1.259
   12CHTO   C59 4870   6.009   8.170   1.244
   12CHTO  H116 4871   6.008   8.237   1.159
   12CHTO   C70 4872   5.912   8.056   1.211
   12CHTO   O46 4873   5.909   7.952   1.309
   12CHTO  H103 4874   5.848   7.885   1.282
   12CHTO   O39 4875   6.386   8.138   1.264
   12CHTO   C60 4876   6.416   8.070   1.140
   12CHTO  H117 4877   6.333   8.003   1.117
   12CHTO   C62 4878   6.434   8.167   1.019
   12CHTO  H119 4879   6.336   8.216   1.002
   12CHTO   O43 4880   6.530   8.269   1.055
   12CHTO  H101 4881   6.539   8.331   0.985
   12CHTO   C66 4882   6.475   8.084   0.888
   12CHTO  H123 4883   6.397   8.011   0.867
   12CHTO   N12 4884   6.483   8.169   0.766
   12CHTO  H110 4885   6.387   8.215   0.747
   12CHTO  H111 4886   6.560   8.244   0.779
   12CHTO   C69 4887   6.606   8.006   0.916
   12CHTO  H126 4888   6.687   8.077   0.945
   12CHTO   O41 4889   6.578   7.910   1.033
   12CHTO   C64 4890   6.542   7.981   1.161
   12CHTO  H121 4891   6.626   8.046   1.193
   12CHTO   C71 4892   6.517   7.876   1.272
   12CHTO   O47 4893   6.634   7.798   1.296
   12CHTO  H104 4894   6.616   7.733   1.360
   12CHTO   O34 4895   6.657   7.923   0.793
   12CHTO   C49 4896   6.802   7.867   0.783
   12CHTO   H91 4897   6.867   7.952   0.762
   12CHTO   C47 4898   6.809   7.766   0.667
   12CHTO   H89 4899   6.918   7.743   0.656
   12CHTO   O33 4900   6.764   7.826   0.545
   12CHTO   H70 4901   6.780   7.769   0.472
   12CHTO   C45 4902   6.722   7.632   0.699
   12CHTO   H87 4903   6.625   7.641   0.649
   12CHTO    N8 4904   6.793   7.514   0.642
   12CHTO   H75 4905   6.809   7.528   0.536
   12CHTO   H76 4906   6.888   7.501   0.692
   12CHTO   C43 4907   6.687   7.624   0.856
   12CHTO   H85 4908   6.607   7.696   0.870
   12CHTO   O29 4909   6.803   7.658   0.934
   12CHTO   C50 4910   6.851   7.793   0.914
   12CHTO   H92 4911   6.820   7.853   1.000
   12CHTO   C54 4912   7.005   7.792   0.927
   12CHTO   O36 4913   7.061   7.924   0.926
   12CHTO   H72 4914   7.034   7.970   1.002
   12CHTO   O27 4915   6.628   7.499   0.897
   12CHTO   C37 4916   6.494   7.459   0.931
   12CHTO   H79 4917   6.494   7.355   0.968
   12CHTO   C38 4918   6.436   7.548   1.047
   12CHTO   H80 4919   6.452   7.654   1.021
   12CHTO   O31 4920   6.511   7.517   1.166
   12CHTO   H68 4921   6.598   7.551   1.159
   12CHTO   C39 4922   6.282   7.524   1.070
   12CHTO   H81 4923   6.270   7.422   1.108
   12CHTO    N7 4924   6.222   7.618   1.171
   12CHTO   H73 4925   6.148   7.683   1.126
   12CHTO   H74 4926   6.177   7.562   1.252
   12CHTO   C40 4927   6.206   7.531   0.932
   12CHTO   H82 4928   6.210   7.633   0.893
   12CHTO   O26 4929   6.264   7.436   0.841
   12CHTO   C41 4930   6.402   7.466   0.805
   12CHTO   H83 4931   6.408   7.567   0.761
   12CHTO   C52 4932   6.446   7.364   0.697
   12CHTO   O35 4933   6.364   7.372   0.574
   12CHTO   H71 4934   6.277   7.341   0.591
   12CHTO   O28 4935   6.069   7.487   0.941
   12CHTO   C42 4936   5.959   7.547   0.864
   12CHTO   H84 4937   5.896   7.462   0.839
   12CHTO   C44 4938   5.993   7.617   0.728
   12CHTO   H86 4939   6.059   7.702   0.748
   12CHTO   O32 4940   6.065   7.523   0.647
   12CHTO   H69 4941   6.010   7.450   0.624
   12CHTO   C48 4942   5.864   7.672   0.654
   12CHTO   H90 4943   5.808   7.585   0.619
   12CHTO    N9 4944   5.899   7.751   0.531
   12CHTO   H77 4945   5.866   7.854   0.540
   12CHTO   H78 4946   5.855   7.706   0.443
   12CHTO   C51 4947   5.769   7.752   0.753
   12CHTO   H93 4948   5.812   7.850   0.772
   12CHTO   O30 4949   5.746   7.678   0.874
   12CHTO   C46 4950   5.872   7.643   0.950
   12CHTO   H88 4951   5.928   7.735   0.969
   12CHTO   C53 4952   5.830   7.581   1.086
   12CHTO   O72 4953   5.752   7.462   1.069
   12CHTO  H199 4954   5.728   7.428   1.153
   12CHTO   O22 4955   5.638   7.764   0.695
   12CHTO   C31 4956   5.542   7.875   0.715
   12CHTO   H59 4957   5.444   7.833   0.687
   12CHTO   C29 4958   5.529   7.928   0.859
   12CHTO   H57 4959   5.628   7.968   0.890
   12CHTO   O21 4960   5.497   7.818   0.946
   12CHTO   H37 4961   5.569   7.758   0.951
   12CHTO   C27 4962   5.422   8.044   0.868
   12CHTO   H55 4963   5.323   8.002   0.845
   12CHTO    N5 4964   5.415   8.107   1.003
   12CHTO   H43 4965   5.336   8.181   1.005
   12CHTO   H44 4966   5.398   8.032   1.078
   12CHTO   C25 4967   5.452   8.152   0.758
   12CHTO   H53 4968   5.549   8.201   0.781
   12CHTO   O17 4969   5.464   8.090   0.628
   12CHTO   C32 4970   5.568   7.992   0.616
   12CHTO   H60 4971   5.664   8.037   0.639
   12CHTO   C36 4972   5.568   7.943   0.469
   12CHTO   O25 4973   5.600   8.049   0.378
   12CHTO   H40 4974   5.530   8.111   0.375
   12CHTO   O15 4975   5.337   8.264   0.748
   12CHTO   C19 4976   5.213   8.297   0.680
   12CHTO   H47 4977   5.226   8.403   0.652
   12CHTO   C20 4978   5.187   8.215   0.550
   12CHTO   H48 4979   5.187   8.106   0.569
   12CHTO   O19 4980   5.297   8.243   0.460
   12CHTO   H35 4981   5.292   8.187   0.385
   12CHTO   C21 4982   5.050   8.253   0.480
   12CHTO   H49 4983   5.061   8.353   0.436
   12CHTO    N4 4984   5.016   8.162   0.367
   12CHTO   H41 4985   5.007   8.061   0.403
   12CHTO   H42 4986   5.093   8.166   0.292
   12CHTO   C22 4987   4.935   8.265   0.583
   12CHTO   H50 4988   4.900   8.166   0.612
   12CHTO   O14 4989   4.973   8.341   0.699
   12CHTO   C23 4990   5.087   8.291   0.771
   12CHTO   H51 4991   5.065   8.188   0.804
   12CHTO   C34 4992   5.107   8.377   0.897
   12CHTO   O23 4993   4.996   8.367   0.986
   12CHTO   H38 4994   4.921   8.411   0.949
   12CHTO   O16 4995   4.828   8.345   0.526
   12CHTO   C24 4996   4.669   8.313   0.559
   12CHTO   H52 4997   4.606   8.398   0.536
   12CHTO   C26 4998   4.645   8.277   0.707
   12CHTO   H54 4999   4.705   8.186   0.733
   12CHTO   O20 5000   4.693   8.386   0.788
   12CHTO   H36 5001   4.642   8.464   0.772
   12CHTO   C30 5002   4.494   8.245   0.730
   12CHTO   H58 5003   4.434   8.335   0.709
   12CHTO    N6 5004   4.466   8.209   0.872
   12CHTO   H45 5005   4.393   8.276   0.915
   12CHTO   H46 5006   4.430   8.107   0.881
   12CHTO   C33 5007   4.446   8.136   0.629
   12CHTO   H61 5008   4.496   8.040   0.651
   12CHTO   O18 5009   4.481   8.176   0.495
   12CHTO   C28 5010   4.621   8.195   0.470
   12CHTO   H56 5011   4.678   8.106   0.495
   12CHTO   C35 5012   4.640   8.228   0.320
   12CHTO   O24 5013   4.603   8.119   0.236
   12CHTO   H39 5014   4.622   8.140   0.147
   12CHTO    O9 5015   4.305   8.109   0.640
   12CHTO   C13 5016   4.250   7.996   0.535
   12CHTO   H26 5017   4.316   7.997   0.445
   12CHTO   C11 5018   4.099   8.029   0.498
   12CHTO   H24 5019   4.100   8.123   0.440
   12CHTO    O8 5020   4.021   8.053   0.616
   12CHTO    H3 5021   4.017   7.975   0.669
   12CHTO    C9 5022   4.045   7.916   0.406
   12CHTO   H22 5023   4.113   7.913   0.320
   12CHTO    N2 5024   3.912   7.946   0.347
   12CHTO   H10 5025   3.919   7.958   0.240
   12CHTO   H11 5026   3.840   7.869   0.372
   12CHTO    C7 5027   4.055   7.778   0.481
   12CHTO   H20 5028   4.023   7.703   0.406
   12CHTO    O4 5029   4.192   7.752   0.519
   12CHTO   C14 5030   4.265   7.850   0.596
   12CHTO   H27 5031   4.372   7.822   0.589
   12CHTO   C18 5032   4.226   7.843   0.747
   12CHTO   O13 5033   4.252   7.713   0.802
   12CHTO    H7 5034   4.191   7.651   0.766
   12CHTO    O2 5035   3.961   7.767   0.615
   12CHTO    C1 5036   3.839   7.691   0.606
   12CHTO   H14 5037   3.809   7.679   0.499
   12CHTO    C2 5038   3.722   7.763   0.684
   12CHTO   H15 5039   3.763   7.786   0.784
   12CHTO    O6 5040   3.690   7.886   0.617
   12CHTO    H1 5041   3.761   7.947   0.624
   12CHTO    C3 5042   3.592   7.670   0.699
   12CHTO   H16 5043   3.546   7.656   0.600
   12CHTO    N1 5044   3.488   7.731   0.789
   12CHTO    H8 5045   3.402   7.667   0.794
   12CHTO    H9 5046   3.529   7.745   0.889
   12CHTO    C4 5047   3.635   7.526   0.746
   12CHTO   H17 5048   3.673   7.532   0.849
   12CHTO    O1 5049   3.736   7.475   0.658
   12CHTO    C5 5050   3.860   7.547   0.664
   12CHTO   H18 5051   3.893   7.557   0.768
   12CHTO   C16 5052   3.962   7.460   0.588
   12CHTO   O11 5053   4.097   7.494   0.623
   12CHTO    H5 5054   4.156   7.435   0.580
   12CHTO    O3 5055   3.526   7.432   0.741
   12CHTO    C6 5056   3.554   7.300   0.798
   12CHTO   H19 5057   3.661   7.280   0.810
   12CHTO    C8 5058   3.488   7.286   0.939
   12CHTO   H21 5059   3.381   7.308   0.930
   12CHTO    O7 5060   3.550   7.383   1.026
   12CHTO    H2 5061   3.523   7.470   1.002
   12CHTO   C12 5062   3.505   7.138   0.994
   12CHTO   H25 5063   3.614   7.123   1.010
   12CHTO    N3 5064   3.437   7.121   1.127
   12CHTO   H12 5065   3.509   7.089   1.201
   12CHTO   H13 5066   3.356   7.051   1.121
   12CHTO   C15 5067   3.455   7.037   0.884
   12CHTO   H28 5068   3.347   7.043   0.869
   12CHTO   O10 5069   3.494   6.892   0.915
   12CHTO    H4 5070   3.454   6.834   0.853
   12CHTO    O5 5071   3.524   7.060   0.760
   12CHTO   C10 5072   3.499   7.189   0.703
   12CHTO   H23 5073   3.391   7.201   0.689
   12CHTO   C17 5074   3.564   7.189   0.564
   12CHTO   O12 5075   3.527   7.303   0.487
   12CHTO    H6 5076   3.567   7.299   0.402
   13CHTO  H203 5077   7.080   3.188   0.088
   13CHTO   O82 5078   7.152   3.242   0.062
   13CHTO  C123 5079   7.123   3.381   0.086
   13CHTO  H227 5080   7.212   3.441   0.059
   13CHTO   O77 5081   7.014   3.411   2.878
   13CHTO  C118 5082   6.971   3.548   2.878
   13CHTO  H222 5083   7.055   3.614   2.856
   13CHTO  C125 5084   6.865   3.561   2.761
   13CHTO   O84 5085   6.834   3.697   2.730
   13CHTO  H205 5086   6.908   3.738   2.690
   13CHTO  C114 5087   6.912   3.579   0.133
   13CHTO  H218 5088   6.830   3.510   0.153
   13CHTO  C116 5089   7.020   3.557   0.243
   13CHTO  H220 5090   7.102   3.631   0.230
   13CHTO   O79 5091   6.962   3.585   0.372
   13CHTO  H201 5092   6.892   3.525   0.391
   13CHTO  C120 5093   7.079   3.410   0.235
   13CHTO  H224 5094   6.996   3.341   0.263
   13CHTO   N21 5095   7.189   3.389   0.332
   13CHTO  H211 5096   7.149   3.355   0.426
   13CHTO  H212 5097   7.261   3.318   0.294
   13CHTO   O75 5098   6.865   3.715   0.128
   13CHTO  C112 5099   6.713   3.730   0.186
   13CHTO  H216 5100   6.695   3.649   0.259
   13CHTO   O73 5101   6.624   3.720   0.073
   13CHTO  C113 5102   6.485   3.723   0.108
   13CHTO  H217 5103   6.462   3.638   0.177
   13CHTO  C124 5104   6.402   3.702   2.865
   13CHTO   O83 5105   6.428   3.577   2.800
   13CHTO  H204 5106   6.395   3.507   2.852
   13CHTO  C109 5107   6.450   3.858   0.176
   13CHTO  H213 5108   6.467   3.937   0.101
   13CHTO  C110 5109   6.543   3.883   0.299
   13CHTO  H214 5110   6.518   3.810   0.376
   13CHTO   O78 5111   6.514   4.014   0.351
   13CHTO  H200 5112   6.430   4.015   0.391
   13CHTO  C111 5113   6.692   3.868   0.258
   13CHTO  H215 5114   6.717   3.948   0.186
   13CHTO   N19 5115   6.786   3.883   0.372
   13CHTO  H207 5116   6.769   3.805   0.445
   13CHTO  H208 5117   6.888   3.877   0.337
   13CHTO   O74 5118   6.310   3.859   0.217
   13CHTO  C115 5119   6.224   3.994   0.175
   13CHTO  H219 5120   6.237   4.075   0.247
   13CHTO   O76 5121   6.273   4.054   0.034
   13CHTO  C122 5122   6.195   4.162   2.865
   13CHTO  H226 5123   6.231   4.180   2.763
   13CHTO  C126 5124   6.226   4.295   0.060
   13CHTO   O85 5125   6.158   4.410   0.008
   13CHTO  H206 5126   6.066   4.401   0.023
   13CHTO  C121 5127   6.042   4.127   2.859
   13CHTO  H225 5128   5.986   4.219   2.832
   13CHTO   O81 5129   6.019   4.032   2.754
   13CHTO  H202 5130   6.040   4.069   2.671
   13CHTO  C119 5131   5.987   4.073   0.111
   13CHTO  H223 5132   5.991   4.157   0.181
   13CHTO  C117 5133   6.072   3.955   0.171
   13CHTO  H221 5134   6.069   3.862   0.114
   13CHTO   N20 5135   6.022   3.919   0.308
   13CHTO  H209 5136   5.984   3.818   0.309
   13CHTO  H210 5137   6.099   3.930   0.383
   13CHTO   O80 5138   5.832   4.047   0.103
   13CHTO  C103 5139   5.733   4.147   0.166
   13CHTO  H190 5140   5.753   4.159   0.273
   13CHTO  C101 5141   5.723   4.289   0.099
   13CHTO  H188 5142   5.720   4.276   2.875
   13CHTO   O68 5143   5.851   4.371   0.136
   13CHTO  H168 5144   5.851   4.453   0.090
   13CHTO   C99 5145   5.590   4.366   0.145
   13CHTO  H186 5146   5.597   4.389   0.254
   13CHTO   N17 5147   5.569   4.497   0.075
   13CHTO  H174 5148   5.484   4.549   0.117
   13CHTO  H175 5149   5.556   4.481   2.853
   13CHTO   C97 5150   5.466   4.273   0.130
   13CHTO  H184 5151   5.447   4.253   0.023
   13CHTO   O64 5152   5.488   4.151   0.204
   13CHTO  C104 5153   5.596   4.071   0.153
   13CHTO  H191 5154   5.579   4.044   0.049
   13CHTO  C108 5155   5.601   3.938   0.231
   13CHTO   O71 5156   5.487   3.856   0.203
   13CHTO  H171 5157   5.490   3.779   0.257
   13CHTO   O62 5158   5.348   4.323   0.196
   13CHTO   C91 5159   5.230   4.358   0.121
   13CHTO  H178 5160   5.261   4.393   0.022
   13CHTO   C92 5161   5.169   4.481   0.196
   13CHTO  H179 5162   5.168   4.459   0.304
   13CHTO   O66 5163   5.260   4.591   0.180
   13CHTO  H166 5164   5.231   4.665   0.231
   13CHTO   C93 5165   5.024   4.519   0.148
   13CHTO  H180 5166   5.031   4.555   0.044
   13CHTO   N16 5167   4.962   4.630   0.226
   13CHTO  H172 5168   5.024   4.718   0.218
   13CHTO  H173 5169   4.863   4.650   0.189
   13CHTO   C94 5170   4.934   4.391   0.150
   13CHTO  H181 5171   4.925   4.349   0.250
   13CHTO   O61 5172   4.993   4.291   0.065
   13CHTO   C95 5173   5.122   4.242   0.105
   13CHTO  H182 5174   5.112   4.187   0.198
   13CHTO  C106 5175   5.159   4.138   2.877
   13CHTO   O69 5176   5.273   4.059   0.027
   13CHTO  H169 5177   5.288   3.995   2.844
   13CHTO   O63 5178   4.791   4.420   0.087
   13CHTO   C96 5179   4.670   4.357   0.163
   13CHTO  H183 5180   4.684   4.375   0.270
   13CHTO   C98 5181   4.652   4.203   0.141
   13CHTO  H185 5182   4.674   4.180   0.036
   13CHTO   O67 5183   4.755   4.137   0.217
   13CHTO  H167 5184   4.750   4.044   0.205
   13CHTO  C102 5185   4.506   4.146   0.181
   13CHTO  H189 5186   4.503   4.146   0.291
   13CHTO   N18 5187   4.482   4.006   0.140
   13CHTO  H176 5188   4.457   3.945   0.225
   13CHTO  H177 5189   4.403   4.000   0.066
   13CHTO  C105 5190   4.397   4.245   0.131
   13CHTO  H192 5191   4.395   4.243   0.022
   13CHTO   O65 5192   4.422   4.379   0.174
   13CHTO  C100 5193   4.541   4.436   0.118
   13CHTO  H187 5194   4.534   4.430   0.008
   13CHTO  C107 5195   4.548   4.586   0.155
   13CHTO   O70 5196   4.548   4.607   0.297
   13CHTO  H170 5197   4.464   4.585   0.333
   13CHTO   O57 5198   4.253   4.199   0.191
   13CHTO   C85 5199   4.142   4.191   0.100
   13CHTO  H157 5200   4.174   4.120   0.021
   13CHTO   C83 5201   4.117   4.327   0.027
   13CHTO  H155 5202   4.209   4.355   2.857
   13CHTO   O56 5203   4.096   4.431   0.125
   13CHTO  H135 5204   4.091   4.515   0.083
   13CHTO   C81 5205   4.002   4.310   2.808
   13CHTO  H153 5206   4.031   4.230   2.739
   13CHTO   N14 5207   3.984   4.427   2.718
   13CHTO  H141 5208   3.881   4.456   2.713
   13CHTO  H142 5209   4.042   4.511   2.753
   13CHTO   C79 5210   3.871   4.264   2.882
   13CHTO  H151 5211   3.797   4.242   2.805
   13CHTO   O52 5212   3.895   4.140   0.071
   13CHTO   C86 5213   4.006   4.147   0.166
   13CHTO  H158 5214   3.973   4.221   0.243
   13CHTO   C90 5215   4.021   4.012   0.241
   13CHTO   O60 5216   3.905   3.981   0.318
   13CHTO  H138 5217   3.832   3.965   0.261
   13CHTO   O50 5218   3.816   4.363   0.088
   13CHTO   C73 5219   3.697   4.441   0.076
   13CHTO  H145 5220   3.643   4.415   2.867
   13CHTO   C74 5221   3.733   4.593   0.073
   13CHTO  H146 5222   3.802   4.608   2.873
   13CHTO   O54 5223   3.614   4.666   0.038
   13CHTO  H133 5224   3.549   4.657   0.106
   13CHTO   C75 5225   3.797   4.635   0.211
   13CHTO  H147 5226   3.889   4.576   0.226
   13CHTO   N13 5227   3.838   4.777   0.215
   13CHTO  H139 5228   3.882   4.800   0.311
   13CHTO  H140 5229   3.911   4.797   0.138
   13CHTO   C76 5230   3.695   4.597   0.328
   13CHTO  H148 5231   3.604   4.654   0.311
   13CHTO   O49 5232   3.661   4.455   0.321
   13CHTO   C77 5233   3.601   4.414   0.197
   13CHTO  H149 5234   3.510   4.472   0.183
   13CHTO   C88 5235   3.554   4.268   0.207
   13CHTO   O58 5236   3.661   4.176   0.250
   13CHTO  H136 5237   3.628   4.089   0.255
   13CHTO   O51 5238   3.754   4.625   0.484
   13CHTO   C78 5239   3.899   4.567   0.547
   13CHTO  H150 5240   3.894   4.573   0.659
   13CHTO   C80 5241   4.020   4.648   0.499
   13CHTO  H152 5242   4.031   4.635   0.390
   13CHTO   O55 5243   3.992   4.787   0.529
   13CHTO  H134 5244   3.988   4.801   0.621
   13CHTO   C84 5245   4.152   4.598   0.571
   13CHTO  H156 5246   4.138   4.617   0.678
   13CHTO   N15 5247   4.275   4.674   0.531
   13CHTO  H143 5248   4.264   4.778   0.556
   13CHTO  H144 5249   4.290   4.666   0.425
   13CHTO   C87 5250   4.170   4.446   0.552
   13CHTO  H159 5251   4.208   4.423   0.452
   13CHTO   O53 5252   4.039   4.369   0.577
   13CHTO   C82 5253   3.920   4.418   0.514
   13CHTO  H154 5254   3.923   4.401   0.407
   13CHTO   C89 5255   3.802   4.335   0.569
   13CHTO   O59 5256   3.804   4.202   0.518
   13CHTO  H137 5257   3.749   4.147   0.570
   13CHTO   O45 5258   4.273   4.391   0.665
   13CHTO   C67 5259   4.364   4.288   0.623
   13CHTO  H124 5260   4.318   4.221   0.550
   13CHTO   C65 5261   4.491   4.354   0.561
   13CHTO  H122 5262   4.455   4.426   0.487
   13CHTO   O44 5263   4.571   4.254   0.494
   13CHTO  H102 5264   4.642   4.295   0.449
   13CHTO   C63 5265   4.566   4.436   0.672
   13CHTO  H120 5266   4.496   4.509   0.714
   13CHTO   N11 5267   4.676   4.524   0.623
   13CHTO  H108 5268   4.640   4.589   0.545
   13CHTO  H109 5269   4.715   4.583   0.704
   13CHTO   C61 5270   4.607   4.339   0.789
   13CHTO  H118 5271   4.644   4.404   0.869
   13CHTO   O40 5272   4.492   4.267   0.843
   13CHTO   C68 5273   4.401   4.199   0.750
   13CHTO  H125 5274   4.306   4.182   0.806
   13CHTO   C72 5275   4.458   4.058   0.715
   13CHTO   O48 5276   4.373   3.981   0.629
   13CHTO  H105 5277   4.413   3.898   0.611
   13CHTO   O38 5278   4.706   4.241   0.751
   13CHTO   C55 5279   4.819   4.211   0.835
   13CHTO  H112 5280   4.855   4.112   0.800
   13CHTO   C56 5281   4.789   4.210   0.991
   13CHTO  H113 5282   4.740   4.305   1.017
   13CHTO   O42 5283   4.694   4.106   1.021
   13CHTO  H100 5284   4.612   4.124   0.980
   13CHTO   C57 5285   4.922   4.194   1.075
   13CHTO  H114 5286   4.958   4.093   1.059
   13CHTO   N10 5287   4.901   4.212   1.221
   13CHTO  H106 5288   4.820   4.282   1.240
   13CHTO  H107 5289   4.876   4.117   1.267
   13CHTO   C58 5290   5.029   4.294   1.023
   13CHTO  H115 5291   4.995   4.398   1.044
   13CHTO   O37 5292   5.051   4.278   0.882
   13CHTO   C59 5293   4.935   4.309   0.802
   13CHTO  H116 5294   4.904   4.412   0.820
   13CHTO   C70 5295   4.973   4.295   0.653
   13CHTO   O46 5296   5.055   4.401   0.606
   13CHTO  H103 5297   5.140   4.397   0.645
   13CHTO   O39 5298   5.174   4.265   1.097
   13CHTO   C60 5299   5.280   4.360   1.073
   13CHTO  H117 5300   5.302   4.362   0.966
   13CHTO   C62 5301   5.242   4.505   1.117
   13CHTO  H119 5302   5.159   4.538   1.050
   13CHTO   O43 5303   5.194   4.503   1.253
   13CHTO  H101 5304   5.111   4.459   1.257
   13CHTO   C66 5305   5.366   4.606   1.096
   13CHTO  H123 5306   5.394   4.604   0.991
   13CHTO   N12 5307   5.331   4.748   1.126
   13CHTO  H110 5308   5.388   4.785   1.210
   13CHTO  H111 5309   5.225   4.760   1.141
   13CHTO   C69 5310   5.487   4.553   1.177
   13CHTO  H126 5311   5.463   4.550   1.285
   13CHTO   O41 5312   5.521   4.411   1.126
   13CHTO   C64 5313   5.409   4.312   1.145
   13CHTO  H121 5314   5.388   4.300   1.254
   13CHTO   C71 5315   5.460   4.176   1.091
   13CHTO   O47 5316   5.376   4.066   1.130
   13CHTO  H104 5317   5.385   4.051   1.222
   13CHTO   O34 5318   5.613   4.641   1.157
   13CHTO   C49 5319   5.747   4.708   1.149
   13CHTO   H91 5320   5.808   4.649   1.081
   13CHTO   C47 5321   5.811   4.712   1.289
   13CHTO   H89 5322   5.914   4.752   1.275
   13CHTO   O33 5323   5.821   4.577   1.339
   13CHTO   H70 5324   5.880   4.527   1.286
   13CHTO   C45 5325   5.727   4.810   1.385
   13CHTO   H87 5326   5.626   4.768   1.393
   13CHTO    N8 5327   5.785   4.816   1.522
   13CHTO   H75 5328   5.721   4.874   1.587
   13CHTO   H76 5329   5.796   4.716   1.562
   13CHTO   C43 5330   5.708   4.955   1.318
   13CHTO   H85 5331   5.633   5.006   1.380
   13CHTO   O29 5332   5.665   4.945   1.180
   13CHTO   C50 5333   5.732   4.852   1.093
   13CHTO   H92 5334   5.671   4.844   1.002
   13CHTO   C54 5335   5.868   4.906   1.040
   13CHTO   O36 5336   5.849   5.020   0.956
   13CHTO   H72 5337   5.933   5.052   0.928
   13CHTO   O27 5338   5.826   5.038   1.324
   13CHTO   C37 5339   5.876   5.172   1.337
   13CHTO   H79 5340   5.840   5.217   1.431
   13CHTO   C38 5341   6.032   5.168   1.345
   13CHTO   H80 5342   6.068   5.100   1.266
   13CHTO   O31 5343   6.067   5.110   1.472
   13CHTO   H68 5344   6.038   5.165   1.543
   13CHTO   C39 5345   6.099   5.309   1.328
   13CHTO   H81 5346   6.080   5.366   1.419
   13CHTO    N7 5347   6.248   5.302   1.311
   13CHTO   H73 5348   6.290   5.401   1.302
   13CHTO   H74 5349   6.292   5.251   1.396
   13CHTO   C40 5350   6.034   5.389   1.209
   13CHTO   H82 5351   6.064   5.348   1.112
   13CHTO   O26 5352   5.891   5.392   1.225
   13CHTO   C41 5353   5.829   5.260   1.218
   13CHTO   H83 5354   5.856   5.212   1.123
   13CHTO   C52 5355   5.676   5.283   1.219
   13CHTO   O35 5356   5.629   5.363   1.103
   13CHTO   H71 5357   5.642   5.315   1.024
   13CHTO   O28 5358   6.067   5.529   1.215
   13CHTO   C42 5359   6.078   5.628   1.107
   13CHTO   H84 5360   6.160   5.593   1.044
   13CHTO   C44 5361   6.122   5.767   1.163
   13CHTO   H86 5362   6.051   5.796   1.242
   13CHTO   O32 5363   6.250   5.747   1.225
   13CHTO   H69 5364   6.277   5.825   1.270
   13CHTO   C48 5365   6.125   5.882   1.055
   13CHTO   H90 5366   6.206   5.861   0.986
   13CHTO    N9 5367   6.158   6.016   1.117
   13CHTO   H77 5368   6.255   6.012   1.165
   13CHTO   H78 5369   6.157   6.093   1.041
   13CHTO   C51 5370   5.990   5.884   0.975
   13CHTO   H93 5371   5.909   5.910   1.044
   13CHTO   O30 5372   5.971   5.756   0.916
   13CHTO   C46 5373   5.951   5.642   1.015
   13CHTO   H88 5374   5.864   5.664   1.077
   13CHTO   C53 5375   5.925   5.518   0.927
   13CHTO   O72 5376   5.801   5.529   0.857
   13CHTO  H199 5377   5.788   5.453   0.804
   13CHTO   O22 5378   5.994   5.976   0.864
   13CHTO   C31 5379   5.873   6.034   0.802
   13CHTO   H59 5380   5.910   6.096   0.717
   13CHTO   C29 5381   5.774   5.932   0.742
   13CHTO   H57 5382   5.741   5.866   0.823
   13CHTO   O21 5383   5.846   5.849   0.649
   13CHTO   H37 5384   5.872   5.898   0.573
   13CHTO   C27 5385   5.648   6.002   0.676
   13CHTO   H55 5386   5.682   6.061   0.590
   13CHTO    N5 5387   5.546   5.904   0.628
   13CHTO   H43 5388   5.569   5.804   0.660
   13CHTO   H44 5389   5.446   5.932   0.660
   13CHTO   C25 5390   5.586   6.104   0.779
   13CHTO   H53 5391   5.545   6.049   0.865
   13CHTO   O17 5392   5.688   6.196   0.827
   13CHTO   C32 5393   5.798   6.133   0.896
   13CHTO   H60 5394   5.760   6.078   0.982
   13CHTO   C36 5395   5.894   6.243   0.946
   13CHTO   O25 5396   5.836   6.325   1.047
   13CHTO   H40 5397   5.766   6.376   1.011
   13CHTO   O15 5398   5.469   6.190   0.711
   13CHTO   C19 5399   5.345   6.264   0.733
   13CHTO   H47 5400   5.346   6.286   0.841
   13CHTO   C20 5401   5.338   6.399   0.654
   13CHTO   H48 5402   5.353   6.383   0.546
   13CHTO   O19 5403   5.447   6.480   0.702
   13CHTO   H35 5404   5.530   6.445   0.674
   13CHTO   C21 5405   5.200   6.473   0.674
   13CHTO   H49 5406   5.193   6.507   0.778
   13CHTO    N4 5407   5.187   6.594   0.589
   13CHTO   H41 5408   5.265   6.665   0.613
   13CHTO   H42 5409   5.091   6.641   0.606
   13CHTO   C22 5410   5.083   6.373   0.654
   13CHTO   H50 5411   5.079   6.343   0.549
   13CHTO   O14 5412   5.101   6.258   0.737
   13CHTO   C23 5413   5.217   6.180   0.706
   13CHTO   H51 5414   5.210   6.148   0.601
   13CHTO   C34 5415   5.214   6.053   0.793
   13CHTO   O23 5416   5.102   5.969   0.762
   13CHTO   H38 5417   5.115   5.930   0.678
   13CHTO   O16 5418   4.955   6.425   0.698
   13CHTO   C24 5419   4.846   6.449   0.579
   13CHTO   H52 5420   4.893   6.451   0.480
   13CHTO   C26 5421   4.772   6.582   0.603
   13CHTO   H54 5422   4.723   6.578   0.703
   13CHTO   O20 5423   4.869   6.689   0.604
   13CHTO   H36 5424   4.922   6.683   0.681
   13CHTO   C30 5425   4.661   6.605   0.495
   13CHTO   H58 5426   4.708   6.618   0.396
   13CHTO    N6 5427   4.583   6.729   0.520
   13CHTO   H45 5428   4.513   6.746   0.440
   13CHTO   H46 5429   4.528   6.720   0.613
   13CHTO   C33 5430   4.569   6.479   0.485
   13CHTO   H61 5431   4.510   6.469   0.578
   13CHTO   O18 5432   4.649   6.360   0.470
   13CHTO   C28 5433   4.742   6.333   0.576
   13CHTO   H56 5434   4.691   6.329   0.672
   13CHTO   C35 5435   4.809   6.196   0.548
   13CHTO   O24 5436   4.715   6.088   0.546
   13CHTO   H39 5437   4.681   6.073   0.633
   13CHTO    O9 5438   4.473   6.491   0.378
   13CHTO   C13 5439   4.329   6.420   0.407
   13CHTO   H26 5440   4.286   6.469   0.497
   13CHTO   C11 5441   4.348   6.264   0.428
   13CHTO   H24 5442   4.397   6.249   0.525
   13CHTO    O8 5443   4.433   6.210   0.326
   13CHTO    H3 5444   4.452   6.119   0.343
   13CHTO    C9 5445   4.207   6.199   0.430
   13CHTO   H22 5446   4.149   6.257   0.504
   13CHTO    N2 5447   4.205   6.060   0.482
   13CHTO   H10 5448   4.156   6.056   0.578
   13CHTO   H11 5449   4.306   6.020   0.489
   13CHTO    C7 5450   4.138   6.219   0.288
   13CHTO   H20 5451   4.031   6.240   0.315
   13CHTO    O4 5452   4.191   6.331   0.214
   13CHTO   C14 5453   4.224   6.449   0.289
   13CHTO   H27 5454   4.130   6.489   0.333
   13CHTO   C18 5455   4.273   6.554   0.186
   13CHTO   O13 5456   4.296   6.682   0.247
   13CHTO    H7 5457   4.369   6.677   0.304
   13CHTO    O2 5458   4.145   6.086   0.190
   13CHTO    C1 5459   4.019   6.053   0.129
   13CHTO   H14 5460   3.954   6.141   0.128
   13CHTO    C2 5461   3.944   5.935   0.204
   13CHTO   H15 5462   4.018   5.854   0.215
   13CHTO    O6 5463   3.903   5.982   0.334
   13CHTO    H1 5464   3.978   5.996   0.388
   13CHTO    C3 5465   3.817   5.883   0.120
   13CHTO   H16 5466   3.739   5.961   0.123
   13CHTO    N1 5467   3.757   5.759   0.181
   13CHTO    H8 5468   3.671   5.728   0.124
   13CHTO    H9 5469   3.830   5.680   0.182
   13CHTO    C4 5470   3.854   5.865   2.852
   13CHTO   H17 5471   3.923   5.781   2.842
   13CHTO    O1 5472   3.916   5.985   2.802
   13CHTO    C5 5473   4.042   6.016   2.864
   13CHTO   H18 5474   4.108   5.929   2.861
   13CHTO   C16 5475   4.109   6.133   2.788
   13CHTO   O11 5476   4.137   6.098   2.652
   13CHTO    H5 5477   4.179   6.170   2.610
   13CHTO    O3 5478   3.735   5.835   2.776
   13CHTO    C6 5479   3.714   5.882   2.639
   13CHTO   H19 5480   3.760   5.980   2.619
   13CHTO    C8 5481   3.772   5.780   2.535
   13CHTO   H21 5482   3.732   5.681   2.559
   13CHTO    O7 5483   3.915   5.779   2.550
   13CHTO    H2 5484   3.939   5.741   2.632
   13CHTO   C12 5485   3.729   5.819   2.388
   13CHTO   H25 5486   3.786   5.911   2.362
   13CHTO    N3 5487   3.771   5.713   2.289
   13CHTO   H12 5488   3.723   5.619   2.313
   13CHTO   H13 5489   3.878   5.702   2.290
   13CHTO   C15 5490   3.575   5.852   2.382
   13CHTO   H28 5491   3.514   5.762   2.392
   13CHTO   O10 5492   3.536   5.926   2.253
   13CHTO    H4 5493   3.548   5.870   2.179
   13CHTO    O5 5494   3.539   5.948   2.483
   13CHTO   C10 5495   3.562   5.899   2.616
   13CHTO   H23 5496   3.511   5.803   2.628
   13CHTO   C17 5497   3.502   5.996   2.719
   13CHTO   O12 5498   3.363   6.022   2.696
   13CHTO    H6 5499   3.352   6.072   2.617
   14CHTO  H203 5500   5.818   4.245   0.411
   14CHTO   O82 5501   5.821   4.283   0.497
   14CHTO  C123 5502   5.713   4.235   0.578
   14CHTO  H227 5503   5.721   4.281   0.678
   14CHTO   O77 5504   5.594   4.286   0.510
   14CHTO  C118 5505   5.472   4.254   0.578
   14CHTO  H222 5506   5.478   4.284   0.684
   14CHTO  C125 5507   5.356   4.334   0.510
   14CHTO   O84 5508   5.377   4.476   0.521
   14CHTO  H205 5509   5.309   4.521   0.475
   14CHTO  C114 5510   5.449   4.102   0.569
   14CHTO  H218 5511   5.450   4.072   0.464
   14CHTO  C116 5512   5.568   4.030   0.641
   14CHTO  H220 5513   5.561   4.049   0.751
   14CHTO   O79 5514   5.553   3.888   0.624
   14CHTO  H201 5515   5.620   3.843   0.672
   14CHTO  C120 5516   5.709   4.078   0.586
   14CHTO  H224 5517   5.718   4.036   0.484
   14CHTO   N21 5518   5.822   4.025   0.665
   14CHTO  H211 5519   5.794   4.011   0.769
   14CHTO  H212 5520   5.856   3.931   0.623
   14CHTO   O75 5521   5.319   4.078   0.626
   14CHTO  C112 5522   5.240   3.934   0.578
   14CHTO  H216 5523   5.302   3.848   0.610
   14CHTO   O73 5524   5.223   3.937   0.435
   14CHTO  C113 5525   5.159   3.819   0.384
   14CHTO  H217 5526   5.213   3.728   0.420
   14CHTO  C124 5527   5.169   3.820   0.231
   14CHTO   O83 5528   5.140   3.694   0.170
   14CHTO  H204 5529   5.208   3.632   0.192
   14CHTO  C109 5530   5.011   3.817   0.433
   14CHTO  H213 5531   4.965   3.911   0.399
   14CHTO  C110 5532   5.012   3.810   0.589
   14CHTO  H214 5533   5.053   3.713   0.619
   14CHTO   O78 5534   4.877   3.818   0.636
   14CHTO  H200 5535   4.829   3.741   0.611
   14CHTO  C111 5536   5.099   3.925   0.649
   14CHTO  H215 5537   5.048   4.020   0.630
   14CHTO   N19 5538   5.119   3.915   0.797
   14CHTO  H207 5539   5.068   3.828   0.837
   14CHTO  H208 5540   5.081   4.004   0.845
   14CHTO   O74 5541   4.937   3.704   0.376
   14CHTO  C115 5542   4.792   3.748   0.312
   14CHTO  H219 5543   4.745   3.827   0.371
   14CHTO   O76 5544   4.808   3.811   0.165
   14CHTO  C122 5545   4.816   3.712   0.061
   14CHTO  H226 5546   4.904   3.651   0.080
   14CHTO  C126 5547   4.841   3.783   2.808
   14CHTO   O85 5548   4.970   3.845   2.799
   14CHTO  H206 5549   4.976   3.915   2.861
   14CHTO  C121 5550   4.688   3.619   0.055
   14CHTO  H225 5551   4.623   3.652   2.854
   14CHTO   O81 5552   4.731   3.485   0.030
   14CHTO  H202 5553   4.657   3.431   0.007
   14CHTO  C119 5554   4.603   3.625   0.186
   14CHTO  H223 5555   4.554   3.723   0.186
   14CHTO  C117 5556   4.697   3.620   0.312
   14CHTO  H221 5557   4.765   3.535   0.317
   14CHTO   N20 5558   4.619   3.614   0.440
   14CHTO  H209 5559   4.557   3.526   0.441
   14CHTO  H210 5560   4.557   3.703   0.450
   14CHTO   O80 5561   4.473   3.524   0.183
   14CHTO  C103 5562   4.370   3.531   0.061
   14CHTO  H190 5563   4.394   3.614   2.879
   14CHTO  C101 5564   4.359   3.399   2.858
   14CHTO  H188 5565   4.344   3.314   0.042
   14CHTO   O68 5566   4.494   3.378   2.784
   14CHTO  H168 5567   4.492   3.296   2.738
   14CHTO   C99 5568   4.237   3.406   2.756
   14CHTO  H186 5569   4.258   3.485   2.681
   14CHTO   N17 5570   4.215   3.278   2.678
   14CHTO  H174 5571   4.307   3.250   2.628
   14CHTO  H175 5572   4.135   3.291   2.608
   14CHTO   C97 5573   4.107   3.450   2.829
   14CHTO  H184 5574   4.073   3.368   0.010
   14CHTO   O64 5575   4.129   3.571   0.019
   14CHTO  C104 5576   4.228   3.561   0.124
   14CHTO  H191 5577   4.202   3.483   0.196
   14CHTO  C108 5578   4.223   3.694   0.200
   14CHTO   O71 5579   4.293   3.689   0.325
   14CHTO  H171 5580   4.289   3.773   0.366
   14CHTO   O62 5581   4.004   3.486   2.733
   14CHTO   C91 5582   3.867   3.478   2.776
   14CHTO  H178 5583   3.860   3.403   2.855
   14CHTO   C92 5584   3.784   3.423   2.655
   14CHTO  H179 5585   3.829   3.329   2.619
   14CHTO   O66 5586   3.653   3.386   2.703
   14CHTO  H166 5587   3.659   3.312   2.759
   14CHTO   C93 5588   3.766   3.528   2.539
   14CHTO  H180 5589   3.674   3.501   2.485
   14CHTO   N16 5590   3.873   3.524   2.436
   14CHTO  H172 5591   3.947   3.450   2.460
   14CHTO  H173 5592   3.831   3.505   2.338
   14CHTO   C94 5593   3.749   3.674   2.597
   14CHTO  H181 5594   3.842   3.730   2.596
   14CHTO   O61 5595   3.706   3.671   2.735
   14CHTO   C95 5596   3.806   3.617   2.825
   14CHTO  H182 5597   3.886   3.690   2.835
   14CHTO  C106 5598   3.742   3.602   0.084
   14CHTO   O69 5599   3.698   3.728   0.136
   14CHTO  H169 5600   3.621   3.756   0.090
   14CHTO   O63 5601   3.640   3.749   2.511
   14CHTO   C96 5602   3.630   3.905   2.540
   14CHTO  H183 5603   3.687   3.928   2.630
   14CHTO   C98 5604   3.484   3.952   2.562
   14CHTO  H185 5605   3.420   3.911   2.483
   14CHTO   O67 5606   3.439   3.890   2.684
   14CHTO  H167 5607   3.347   3.908   2.697
   14CHTO  C102 5608   3.471   4.112   2.568
   14CHTO  H189 5609   3.524   4.144   2.660
   14CHTO   N18 5610   3.332   4.162   2.583
   14CHTO  H176 5611   3.287   4.122   2.673
   14CHTO  H177 5612   3.332   4.270   2.589
   14CHTO  C105 5613   3.544   4.174   2.445
   14CHTO  H192 5614   3.490   4.146   2.354
   14CHTO   O65 5615   3.679   4.127   2.434
   14CHTO  C100 5616   3.693   3.984   2.419
   14CHTO  H187 5617   3.642   3.954   2.327
   14CHTO  C107 5618   3.843   3.953   2.401
   14CHTO   O70 5619   3.922   3.996   2.513
   14CHTO  H170 5620   3.921   4.090   2.519
   14CHTO   O57 5621   3.547   4.336   2.464
   14CHTO   C85 5622   3.517   4.420   2.352
   14CHTO  H157 5623   3.442   4.364   2.290
   14CHTO   C83 5624   3.642   4.438   2.260
   14CHTO  H155 5625   3.670   4.340   2.221
   14CHTO   O56 5626   3.753   4.484   2.339
   14CHTO  H135 5627   3.831   4.487   2.287
   14CHTO   C81 5628   3.606   4.531   2.140
   14CHTO  H153 5629   3.522   4.485   2.086
   14CHTO   N14 5630   3.713   4.540   2.038
   14CHTO  H141 5631   3.798   4.591   2.078
   14CHTO  H142 5632   3.678   4.595   1.952
   14CHTO   C79 5633   3.558   4.672   2.192
   14CHTO  H151 5634   3.523   4.728   2.106
   14CHTO   O52 5635   3.441   4.654   2.280
   14CHTO   C86 5636   3.463   4.563   2.392
   14CHTO  H158 5637   3.536   4.616   2.458
   14CHTO   C90 5638   3.333   4.551   2.475
   14CHTO   O60 5639   3.295   4.677   2.531
   14CHTO  H138 5640   3.214   4.667   2.578
   14CHTO   O50 5641   3.660   4.749   2.259
   14CHTO   C73 5642   3.644   4.875   2.326
   14CHTO  H145 5643   3.558   4.870   2.395
   14CHTO   C74 5644   3.618   4.990   2.224
   14CHTO  H146 5645   3.530   4.962   2.164
   14CHTO   O54 5646   3.580   5.109   2.297
   14CHTO  H133 5647   3.497   5.097   2.338
   14CHTO   C75 5648   3.746   5.011   2.134
   14CHTO  H147 5649   3.765   4.917   2.079
   14CHTO   N13 5650   3.731   5.115   2.029
   14CHTO  H139 5651   3.800   5.196   2.044
   14CHTO  H140 5652   3.630   5.155   2.028
   14CHTO   C76 5653   3.872   5.036   2.229
   14CHTO  H148 5654   3.856   5.130   2.282
   14CHTO   O49 5655   3.886   4.927   2.325
   14CHTO   C77 5656   3.772   4.908   2.409
   14CHTO  H149 5657   3.754   4.999   2.467
   14CHTO   C88 5658   3.802   4.798   2.512
   14CHTO   O58 5659   3.915   4.837   2.600
   14CHTO  H136 5660   3.934   4.766   2.659
   14CHTO   O51 5661   4.009   5.037   2.146
   14CHTO   C78 5662   4.124   5.115   2.224
   14CHTO  H150 5663   4.094   5.138   2.329
   14CHTO   C80 5664   4.156   5.248   2.151
   14CHTO  H152 5665   4.181   5.224   2.045
   14CHTO   O55 5666   4.037   5.328   2.153
   14CHTO  H134 5667   3.972   5.292   2.095
   14CHTO   C84 5668   4.278   5.324   2.218
   14CHTO  H156 5669   4.246   5.358   2.317
   14CHTO   N15 5670   4.318   5.446   2.141
   14CHTO  H143 5671   4.350   5.420   2.043
   14CHTO  H144 5672   4.398   5.497   2.191
   14CHTO   C87 5673   4.398   5.228   2.237
   14CHTO  H159 5674   4.440   5.202   2.140
   14CHTO   O53 5675   4.350   5.098   2.309
   14CHTO   C82 5676   4.251   5.029   2.231
   14CHTO  H154 5677   4.290   5.010   2.131
   14CHTO   C89 5678   4.220   4.891   2.294
   14CHTO   O59 5679   4.334   4.804   2.291
   14CHTO  H137 5680   4.354   4.780   2.203
   14CHTO   O45 5681   4.516   5.301   2.334
   14CHTO   C67 5682   4.652   5.254   2.322
   14CHTO  H124 5683   4.712   5.313   2.392
   14CHTO   C65 5684   4.667   5.102   2.360
   14CHTO  H122 5685   4.574   5.072   2.408
   14CHTO   O44 5686   4.773   5.090   2.457
   14CHTO  H102 5687   4.856   5.107   2.417
   14CHTO   C63 5688   4.681   5.013   2.232
   14CHTO  H120 5689   4.597   5.033   2.166
   14CHTO   N11 5690   4.669   4.865   2.254
   14CHTO  H108 5691   4.577   4.843   2.304
   14CHTO  H109 5692   4.751   4.830   2.313
   14CHTO   C61 5693   4.812   5.057   2.156
   14CHTO  H118 5694   4.804   5.019   2.053
   14CHTO   O40 5695   4.828   5.202   2.147
   14CHTO   C68 5696   4.712   5.286   2.177
   14CHTO  H125 5697   4.636   5.269   2.098
   14CHTO   C72 5698   4.760   5.432   2.165
   14CHTO   O48 5699   4.655   5.529   2.183
   14CHTO  H105 5700   4.596   5.525   2.111
   14CHTO   O38 5701   4.931   5.009   2.221
   14CHTO   C55 5702   5.051   5.001   2.142
   14CHTO  H112 5703   5.046   5.073   2.059
   14CHTO   C56 5704   5.071   4.852   2.092
   14CHTO  H113 5705   5.055   4.786   2.179
   14CHTO   O42 5706   4.967   4.820   1.997
   14CHTO  H100 5707   4.973   4.729   1.972
   14CHTO   C57 5708   5.215   4.829   2.030
   14CHTO  H114 5709   5.218   4.881   1.934
   14CHTO   N10 5710   5.244   4.686   2.001
   14CHTO  H106 5711   5.153   4.633   1.975
   14CHTO  H107 5712   5.314   4.679   1.919
   14CHTO   C58 5713   5.323   4.891   2.122
   14CHTO  H115 5714   5.329   4.832   2.217
   14CHTO   O37 5715   5.292   5.028   2.153
   14CHTO   C59 5716   5.172   5.046   2.229
   14CHTO  H116 5717   5.177   4.988   2.322
   14CHTO   C70 5718   5.164   5.194   2.267
   14CHTO   O46 5719   5.059   5.225   2.359
   14CHTO  H103 5720   5.052   5.318   2.369
   14CHTO   O39 5721   5.465   4.897   2.049
   14CHTO   C60 5722   5.575   4.858   2.133
   14CHTO  H117 5723   5.561   4.899   2.233
   14CHTO   C62 5724   5.588   4.703   2.145
   14CHTO  H119 5725   5.497   4.668   2.198
   14CHTO   O43 5726   5.589   4.648   2.012
   14CHTO  H101 5727   5.588   4.554   2.017
   14CHTO   C66 5728   5.719   4.664   2.230
   14CHTO  H123 5729   5.712   4.712   2.328
   14CHTO   N12 5730   5.727   4.519   2.256
   14CHTO  H110 5731   5.815   4.497   2.316
   14CHTO  H111 5732   5.729   4.464   2.163
   14CHTO   C69 5733   5.843   4.722   2.157
   14CHTO  H126 5734   5.846   4.685   2.052
   14CHTO   O41 5735   5.826   4.876   2.157
   14CHTO   C64 5736   5.706   4.922   2.077
   14CHTO  H121 5737   5.717   4.892   1.971
   14CHTO   C71 5738   5.697   5.076   2.084
   14CHTO   O47 5739   5.814   5.136   2.025
   14CHTO  H104 5740   5.888   5.120   2.080
   14CHTO   O34 5741   5.977   4.685   2.224
   14CHTO   C49 5742   6.123   4.730   2.199
   14CHTO   H91 5743   6.147   4.706   2.095
   14CHTO   C47 5744   6.213   4.650   2.296
   14CHTO   H89 5745   6.317   4.678   2.268
   14CHTO   O33 5746   6.198   4.508   2.274
   14CHTO   H70 5747   6.111   4.481   2.296
   14CHTO   C45 5748   6.181   4.688   2.451
   14CHTO   H87 5749   6.107   4.616   2.490
   14CHTO    N8 5750   6.305   4.675   2.532
   14CHTO   H75 5751   6.380   4.745   2.497
   14CHTO   H76 5752   6.343   4.574   2.526
   14CHTO   C43 5753   6.108   4.831   2.457
   14CHTO   H85 5754   6.005   4.808   2.429
   14CHTO   O29 5755   6.170   4.921   2.364
   14CHTO   C50 5756   6.146   4.883   2.227
   14CHTO   H92 5757   6.057   4.937   2.193
   14CHTO   C54 5758   6.258   4.940   2.137
   14CHTO   O36 5759   6.257   5.083   2.137
   14CHTO   H72 5760   6.324   5.115   2.079
   14CHTO   O27 5761   6.095   4.888   2.589
   14CHTO   C37 5762   5.975   4.951   2.638
   14CHTO   H79 5763   5.997   5.004   2.732
   14CHTO   C38 5764   5.923   5.059   2.537
   14CHTO   H80 5765   5.925   5.016   2.435
   14CHTO   O31 5766   6.014   5.170   2.541
   14CHTO   H68 5767   6.097   5.146   2.504
   14CHTO   C39 5768   5.775   5.105   2.567
   14CHTO   H81 5769   5.777   5.164   2.659
   14CHTO    N7 5770   5.719   5.194   2.459
   14CHTO   H73 5771   5.619   5.225   2.485
   14CHTO   H74 5772   5.719   5.141   2.365
   14CHTO   C40 5773   5.683   4.980   2.593
   14CHTO   H82 5774   5.676   4.921   2.501
   14CHTO   O26 5775   5.739   4.903   2.701
   14CHTO   C41 5776   5.867   4.842   2.666
   14CHTO   H83 5777   5.853   4.779   2.577
   14CHTO   C52 5778   5.909   4.748   2.782
   14CHTO   O35 5779   5.926   4.818   0.030
   14CHTO   H71 5780   5.999   4.877   0.025
   14CHTO   O28 5781   5.550   5.016   2.636
   14CHTO   C42 5782   5.443   4.918   2.661
   14CHTO   H84 5783   5.492   4.838   2.717
   14CHTO   C44 5784   5.378   4.850   2.536
   14CHTO   H86 5785   5.347   4.928   2.466
   14CHTO   O32 5786   5.480   4.773   2.470
   14CHTO   H69 5787   5.509   4.703   2.525
   14CHTO   C48 5788   5.251   4.762   2.572
   14CHTO   H90 5789   5.284   4.677   2.632
   14CHTO    N9 5790   5.184   4.704   2.450
   14CHTO   H77 5791   5.182   4.596   2.456
   14CHTO   H78 5792   5.084   4.743   2.438
   14CHTO   C51 5793   5.153   4.849   2.660
   14CHTO   H93 5794   5.127   4.938   2.602
   14CHTO   O30 5795   5.224   4.882   2.780
   14CHTO   C46 5796   5.336   4.981   2.755
   14CHTO   H88 5797   5.294   5.070   2.708
   14CHTO   C53 5798   5.398   5.017   0.008
   14CHTO   O72 5799   5.302   5.083   0.092
   14CHTO  H199 5800   5.341   5.103   0.175
   14CHTO   O22 5801   5.035   4.780   2.705
   14CHTO   C31 5802   4.901   4.841   2.690
   14CHTO   H59 5803   4.907   4.909   2.602
   14CHTO   C29 5804   4.790   4.737   2.658
   14CHTO   H57 5805   4.787   4.666   2.742
   14CHTO   O21 5806   4.830   4.663   2.541
   14CHTO   H37 5807   4.772   4.592   2.527
   14CHTO   C27 5808   4.647   4.804   2.642
   14CHTO   H55 5809   4.650   4.869   2.553
   14CHTO    N5 5810   4.538   4.706   2.625
   14CHTO   H43 5811   4.557   4.644   2.538
   14CHTO   H44 5812   4.530   4.644   2.713
   14CHTO   C25 5813   4.618   4.898   2.764
   14CHTO   H53 5814   4.605   4.837   2.855
   14CHTO   O17 5815   4.729   4.989   2.787
   14CHTO   C32 5816   4.857   4.929   2.811
   14CHTO   H60 5817   4.850   4.866   0.016
   14CHTO   C36 5818   4.953   5.046   2.843
   14CHTO   O25 5819   4.968   5.136   2.732
   14CHTO   H40 5820   5.026   5.205   2.755
   14CHTO   O15 5821   4.483   4.989   2.740
   14CHTO   C19 5822   4.417   5.106   2.684
   14CHTO   H47 5823   4.451   5.108   2.579
   14CHTO   C20 5824   4.261   5.099   2.686
   14CHTO   H48 5825   4.222   5.085   2.789
   14CHTO   O19 5826   4.223   4.983   2.610
   14CHTO   H35 5827   4.131   4.970   2.613
   14CHTO   C21 5828   4.193   5.231   2.628
   14CHTO   H49 5829   4.218   5.239   2.522
   14CHTO    N4 5830   4.044   5.231   2.637
   14CHTO   H41 5831   4.008   5.140   2.682
   14CHTO   H42 5832   4.001   5.242   2.539
   14CHTO   C22 5833   4.257   5.354   2.698
   14CHTO   H50 5834   4.234   5.347   2.805
   14CHTO   O14 5835   4.399   5.348   2.677
   14CHTO   C23 5836   4.463   5.241   2.746
   14CHTO   H51 5837   4.436   5.247   2.853
   14CHTO   C34 5838   4.614   5.267   2.735
   14CHTO   O23 5839   4.653   5.382   2.811
   14CHTO   H38 5840   4.641   5.365   0.019
   14CHTO   O16 5841   4.213   5.482   2.648
   14CHTO   C24 5842   4.323   5.611   2.671
   14CHTO   H52 5843   4.425   5.584   2.641
   14CHTO   C26 5844   4.328   5.656   2.819
   14CHTO   H54 5845   4.225   5.686   2.850
   14CHTO   O20 5846   4.370   5.545   0.017
   14CHTO   H36 5847   4.363   5.567   0.108
   14CHTO   C30 5848   4.423   5.779   2.837
   14CHTO   H58 5849   4.527   5.747   2.821
   14CHTO    N6 5850   4.417   5.833   0.092
   14CHTO   H45 5851   4.454   5.759   0.162
   14CHTO   H46 5852   4.477   5.922   0.100
   14CHTO   C33 5853   4.393   5.888   2.730
   14CHTO   H61 5854   4.295   5.932   2.753
   14CHTO   O18 5855   4.385   5.831   2.599
   14CHTO   C28 5856   4.282   5.732   2.584
   14CHTO   H56 5857   4.186   5.770   2.618
   14CHTO   C35 5858   4.273   5.696   2.434
   14CHTO   O24 5859   4.156   5.618   2.402
   14CHTO   H39 5860   4.164   5.533   2.439
   14CHTO    O9 5861   4.485   5.999   2.734
   14CHTO   C13 5862   4.638   5.969   2.680
   14CHTO   H26 5863   4.637   5.873   2.624
   14CHTO   C11 5864   4.740   5.965   2.803
   14CHTO   H24 5865   4.747   5.860   2.837
   14CHTO    O8 5866   4.689   6.044   0.028
   14CHTO    H3 5867   4.744   6.034   0.103
   14CHTO    C9 5868   4.880   6.013   2.756
   14CHTO   H22 5869   4.905   5.951   2.668
   14CHTO    N2 5870   4.990   5.987   2.852
   14CHTO   H10 5871   5.085   6.014   2.808
   14CHTO   H11 5872   4.991   5.883   2.880
   14CHTO    C7 5873   4.866   6.164   2.710
   14CHTO   H20 5874   4.955   6.180   2.644
   14CHTO    O4 5875   4.745   6.191   2.635
   14CHTO   C14 5876   4.682   6.078   2.572
   14CHTO   H27 5877   4.754   6.033   2.501
   14CHTO   C18 5878   4.563   6.132   2.488
   14CHTO   O13 5879   4.507   6.028   2.406
   14CHTO    H7 5880   4.466   5.963   2.460
   14CHTO    O2 5881   4.871   6.266   2.835
   14CHTO    C1 5882   4.894   6.403   2.800
   14CHTO   H14 5883   4.861   6.422   2.695
   14CHTO    C2 5884   5.046   6.445   2.813
   14CHTO   H15 5885   5.079   6.408   0.028
   14CHTO    O6 5886   5.120   6.376   2.710
   14CHTO    H1 5887   5.212   6.392   2.721
   14CHTO    C3 5888   5.065   6.604   2.804
   14CHTO   H16 5889   5.036   6.639   2.704
   14CHTO    N1 5890   5.207   6.646   2.828
   14CHTO    H8 5891   5.239   6.614   0.042
   14CHTO    H9 5892   5.271   6.604   2.752
   14CHTO    C4 5893   4.964   6.671   0.020
   14CHTO   H17 5894   4.987   6.637   0.121
   14CHTO    O1 5895   4.830   6.631   2.868
   14CHTO    C5 5896   4.803   6.492   0.006
   14CHTO   H18 5897   4.821   6.467   0.111
   14CHTO   C16 5898   4.651   6.474   2.860
   14CHTO   O11 5899   4.603   6.344   0.011
   14CHTO    H5 5900   4.604   6.333   0.104
   14CHTO    O3 5901   4.965   6.815   0.015
   14CHTO    C6 5902   4.901   6.876   0.132
   14CHTO   H19 5903   4.841   6.805   0.190
   14CHTO    C8 5904   5.008   6.936   0.229
   14CHTO   H21 5905   5.066   7.010   0.175
   14CHTO    O7 5906   5.093   6.827   0.271
   14CHTO    H2 5907   5.166   6.861   0.320
   14CHTO   C12 5908   4.936   7.005   0.352
   14CHTO   H25 5909   4.885   6.924   0.408
   14CHTO    N3 5910   5.034   7.068   0.447
   14CHTO   H12 5911   5.102   6.993   0.484
   14CHTO   H13 5912   4.981   7.115   0.529
   14CHTO   C15 5913   4.827   7.106   0.300
   14CHTO   H28 5914   4.872   7.194   0.254
   14CHTO   O10 5915   4.727   7.150   0.411
   14CHTO    H4 5916   4.689   7.075   0.453
   14CHTO    O5 5917   4.739   7.042   0.205
   14CHTO   C10 5918   4.804   6.990   0.088
   14CHTO   H23 5919   4.859   7.070   0.039
   14CHTO   C17 5920   4.693   6.943   2.877
   14CHTO   O12 5921   4.744   6.911   2.747
   14CHTO    H6 5922   4.674   6.880   2.692
   15CHTO  H203 5923   5.686   3.987   2.577
   15CHTO   O82 5924   5.729   4.026   2.504
   15CHTO  C123 5925   5.647   4.018   2.386
   15CHTO  H227 5926   5.700   4.068   2.303
   15CHTO   O77 5927   5.641   3.874   2.360
   15CHTO  C118 5928   5.566   3.837   2.242
   15CHTO  H222 5929   5.610   3.886   2.154
   15CHTO  C125 5930   5.578   3.681   2.226
   15CHTO   O84 5931   5.713   3.641   2.199
   15CHTO  H205 5932   5.737   3.669   2.113
   15CHTO  C114 5933   5.420   3.882   2.259
   15CHTO  H218 5934   5.379   3.834   2.349
   15CHTO  C116 5935   5.413   4.036   2.282
   15CHTO  H220 5936   5.449   4.088   2.190
   15CHTO   O79 5937   5.275   4.074   2.298
   15CHTO  H201 5938   5.238   4.033   2.375
   15CHTO  C120 5939   5.502   4.077   2.406
   15CHTO  H224 5940   5.455   4.031   2.496
   15CHTO   N21 5941   5.504   4.224   2.427
   15CHTO  H211 5942   5.421   4.253   2.491
   15CHTO  H212 5943   5.597   4.256   2.471
   15CHTO   O75 5944   5.350   3.839   2.141
   15CHTO  C112 5945   5.208   3.766   2.177
   15CHTO  H216 5946   5.157   3.823   2.255
   15CHTO   O73 5947   5.241   3.633   2.221
   15CHTO  C113 5948   5.127   3.555   2.261
   15CHTO  H217 5949   5.071   3.610   2.340
   15CHTO  C124 5950   5.182   3.427   2.326
   15CHTO   O83 5951   5.263   3.348   2.239
   15CHTO  H204 5952   5.293   3.271   2.284
   15CHTO  C109 5953   5.035   3.529   2.139
   15CHTO  H213 5954   5.093   3.468   2.067
   15CHTO  C110 5955   4.994   3.665   2.074
   15CHTO  H214 5956   4.923   3.714   2.140
   15CHTO   O78 5957   4.925   3.636   1.951
   15CHTO  H200 5958   4.889   3.715   1.915
   15CHTO  C111 5959   5.117   3.758   2.049
   15CHTO  H215 5960   5.177   3.716   1.967
   15CHTO   N19 5961   5.078   3.895   2.006
   15CHTO  H207 5962   5.023   3.891   1.913
   15CHTO  H208 5963   5.016   3.941   2.082
   15CHTO   O74 5964   4.914   3.455   2.177
   15CHTO  C115 5965   4.916   3.294   2.154
   15CHTO  H219 5966   5.013   3.250   2.182
   15CHTO   O76 5967   4.812   3.220   2.246
   15CHTO  C122 5968   4.677   3.242   2.203
   15CHTO  H226 5969   4.659   3.350   2.204
   15CHTO  C126 5970   4.578   3.182   2.310
   15CHTO   O85 5971   4.590   3.245   2.438
   15CHTO  H206 5972   4.673   3.223   2.476
   15CHTO  C121 5973   4.650   3.183   2.058
   15CHTO  H225 5974   4.590   3.090   2.068
   15CHTO   O81 5975   4.572   3.278   1.984
   15CHTO  H202 5976   4.544   3.240   1.903
   15CHTO  C119 5977   4.783   3.150   1.984
   15CHTO  H223 5978   4.823   3.062   2.034
   15CHTO  C117 5979   4.889   3.266   2.000
   15CHTO  H221 5980   4.858   3.362   1.958
   15CHTO   N20 5981   5.016   3.232   1.928
   15CHTO  H209 5982   5.061   3.143   1.971
   15CHTO  H210 5983   5.085   3.314   1.933
   15CHTO   O80 5984   4.762   3.093   1.832
   15CHTO  C103 5985   4.702   2.951   1.808
   15CHTO  H190 5986   4.655   2.912   1.898
   15CHTO  C101 5987   4.598   2.947   1.688
   15CHTO  H188 5988   4.640   3.004   1.605
   15CHTO   O68 5989   4.467   3.018   1.734
   15CHTO  H168 5990   4.425   2.968   1.802
   15CHTO   C99 5991   4.572   2.797   1.637
   15CHTO  H186 5992   4.523   2.739   1.719
   15CHTO   N17 5993   4.481   2.789   1.518
   15CHTO  H174 5994   4.462   2.685   1.493
   15CHTO  H175 5995   4.526   2.841   1.434
   15CHTO   C97 5996   4.708   2.728   1.611
   15CHTO  H184 5997   4.760   2.781   1.529
   15CHTO   O64 5998   4.786   2.728   1.732
   15CHTO  C104 5999   4.826   2.858   1.776
   15CHTO  H191 6000   4.887   2.906   1.699
   15CHTO  C108 6001   4.919   2.839   1.897
   15CHTO   O71 6002   4.853   2.775   2.007
   15CHTO  H171 6003   4.831   2.687   1.984
   15CHTO   O62 6004   4.697   2.586   1.584
   15CHTO   C91 6005   4.750   2.540   1.459
   15CHTO  H178 6006   4.715   2.608   1.381
   15CHTO   C92 6007   4.685   2.401   1.429
   15CHTO  H179 6008   4.578   2.403   1.457
   15CHTO   O66 6009   4.686   2.379   1.287
   15CHTO  H166 6010   4.774   2.379   1.254
   15CHTO   C93 6011   4.759   2.280   1.497
   15CHTO  H180 6012   4.716   2.189   1.453
   15CHTO   N16 6013   4.733   2.266   1.643
   15CHTO  H172 6014   4.768   2.354   1.695
   15CHTO  H173 6015   4.782   2.178   1.681
   15CHTO   C94 6016   4.914   2.285   1.463
   15CHTO  H181 6017   4.976   2.279   1.552
   15CHTO   O61 6018   4.954   2.404   1.393
   15CHTO   C95 6019   4.910   2.528   1.453
   15CHTO  H182 6020   4.949   2.534   1.555
   15CHTO  C106 6021   4.974   2.646   1.373
   15CHTO   O69 6022   5.116   2.642   1.382
   15CHTO  H169 6023   5.153   2.711   1.332
   15CHTO   O63 6024   4.943   2.168   1.368
   15CHTO   C96 6025   5.053   2.072   1.417
   15CHTO  H183 6026   5.054   2.072   1.526
   15CHTO   C98 6027   5.195   2.109   1.367
   15CHTO  H185 6028   5.190   2.136   1.260
   15CHTO   O67 6029   5.234   2.230   1.435
   15CHTO  H167 6030   5.181   2.302   1.408
   15CHTO  C102 6031   5.305   1.994   1.391
   15CHTO  H189 6032   5.324   1.994   1.499
   15CHTO   N18 6033   5.436   2.020   1.327
   15CHTO  H176 6034   5.516   2.015   1.399
   15CHTO  H177 6035   5.455   1.951   1.246
   15CHTO  C105 6036   5.245   1.856   1.352
   15CHTO  H192 6037   5.231   1.852   1.244
   15CHTO   O65 6038   5.117   1.834   1.414
   15CHTO  C100 6039   5.015   1.926   1.372
   15CHTO  H187 6040   5.006   1.922   1.262
   15CHTO  C107 6041   4.883   1.876   1.434
   15CHTO   O70 6042   4.771   1.943   1.377
   15CHTO  H170 6043   4.692   1.914   1.418
   15CHTO   O57 6044   5.348   1.736   1.400
   15CHTO   C85 6045   5.383   1.716   1.538
   15CHTO  H157 6046   5.349   1.805   1.594
   15CHTO   C83 6047   5.539   1.716   1.549
   15CHTO  H155 6048   5.575   1.813   1.516
   15CHTO   O56 6049   5.593   1.619   1.457
   15CHTO  H135 6050   5.687   1.626   1.454
   15CHTO   C81 6051   5.580   1.694   1.698
   15CHTO  H153 6052   5.536   1.775   1.757
   15CHTO   N14 6053   5.727   1.709   1.720
   15CHTO  H141 6054   5.760   1.804   1.683
   15CHTO  H142 6055   5.749   1.702   1.824
   15CHTO   C79 6056   5.523   1.558   1.751
   15CHTO  H151 6057   5.545   1.553   1.858
   15CHTO   O52 6058   5.377   1.556   1.737
   15CHTO   C86 6059   5.328   1.582   1.602
   15CHTO  H158 6060   5.358   1.493   1.542
   15CHTO   C90 6061   5.173   1.581   1.605
   15CHTO   O60 6062   5.122   1.452   1.644
   15CHTO  H138 6063   5.138   1.390   1.576
   15CHTO   O50 6064   5.580   1.441   1.688
   15CHTO   C73 6065   5.544   1.303   1.672
   15CHTO  H145 6066   5.465   1.294   1.596
   15CHTO   C74 6067   5.491   1.244   1.806
   15CHTO  H146 6068   5.405   1.305   1.838
   15CHTO   O54 6069   5.438   1.112   1.780
   15CHTO  H133 6070   5.400   1.077   1.857
   15CHTO   C75 6071   5.607   1.244   1.913
   15CHTO  H147 6072   5.639   1.348   1.929
   15CHTO   N13 6073   5.565   1.194   2.047
   15CHTO  H139 6074   5.486   1.257   2.087
   15CHTO  H140 6075   5.528   1.093   2.039
   15CHTO   C76 6076   5.731   1.164   1.853
   15CHTO  H148 6077   5.700   1.060   1.839
   15CHTO   O49 6078   5.772   1.220   1.725
   15CHTO   C77 6079   5.669   1.223   1.624
   15CHTO  H149 6080   5.638   1.121   1.600
   15CHTO   C88 6081   5.727   1.281   1.495
   15CHTO   O58 6082   5.835   1.199   1.442
   15CHTO  H136 6083   5.884   1.248   1.379
   15CHTO   O51 6084   5.856   1.177   1.945
   15CHTO   C78 6085   5.964   1.068   1.916
   15CHTO  H150 6086   5.950   1.024   1.815
   15CHTO   C80 6087   5.956   0.956   2.022
   15CHTO  H152 6088   5.956   1.002   2.123
   15CHTO   O55 6089   5.830   0.888   2.003
   15CHTO  H134 6090   5.759   0.944   2.027
   15CHTO   C84 6091   6.078   0.856   2.011
   15CHTO  H156 6092   6.071   0.804   1.916
   15CHTO   N15 6093   6.077   0.750   2.118
   15CHTO  H143 6094   5.989   0.690   2.109
   15CHTO  H144 6095   6.079   0.795   2.215
   15CHTO   C87 6096   6.211   0.936   2.012
   15CHTO  H159 6097   6.224   0.987   2.108
   15CHTO   O53 6098   6.204   1.038   1.897
   15CHTO   C82 6099   6.102   1.137   1.916
   15CHTO  H154 6100   6.118   1.192   2.009
   15CHTO   C89 6101   6.110   1.239   1.801
   15CHTO   O59 6102   6.236   1.308   1.800
   15CHTO  H137 6103   6.241   1.366   1.873
   15CHTO   O45 6104   6.341   0.838   1.985
   15CHTO   C67 6105   6.461   0.911   1.953
   15CHTO  H124 6106   6.439   1.017   1.946
   15CHTO   C65 6107   6.570   0.891   2.065
   15CHTO  H122 6108   6.556   0.789   2.103
   15CHTO   O44 6109   6.537   0.985   2.168
   15CHTO  H102 6110   6.592   0.970   2.243
   15CHTO   C63 6111   6.718   0.892   2.007
   15CHTO  H120 6112   6.739   0.794   1.964
   15CHTO   N11 6113   6.828   0.904   2.108
   15CHTO  H108 6114   6.826   1.002   2.152
   15CHTO  H109 6115   6.815   0.830   2.185
   15CHTO   C61 6116   6.726   0.994   1.887
   15CHTO  H118 6117   6.827   0.986   1.846
   15CHTO   O40 6118   6.634   0.957   1.779
   15CHTO   C68 6119   6.520   0.870   1.812
   15CHTO  H125 6120   6.555   0.765   1.813
   15CHTO   C72 6121   6.419   0.883   1.695
   15CHTO   O48 6122   6.309   0.791   1.705
   15CHTO  H105 6123   6.256   0.812   1.779
   15CHTO   O38 6124   6.704   1.130   1.933
   15CHTO   C55 6125   6.656   1.234   1.844
   15CHTO  H112 6126   6.566   1.198   1.793
   15CHTO   C56 6127   6.768   1.281   1.741
   15CHTO  H113 6128   6.860   1.297   1.799
   15CHTO   O42 6129   6.796   1.174   1.649
   15CHTO  H100 6130   6.869   1.196   1.594
   15CHTO   C57 6131   6.725   1.413   1.665
   15CHTO  H114 6132   6.641   1.388   1.601
   15CHTO   N10 6133   6.833   1.468   1.578
   15CHTO  H106 6134   6.896   1.536   1.634
   15CHTO  H107 6135   6.790   1.521   1.494
   15CHTO   C58 6136   6.678   1.518   1.769
   15CHTO  H115 6137   6.764   1.542   1.837
   15CHTO   O37 6138   6.572   1.464   1.849
   15CHTO   C59 6139   6.611   1.354   1.932
   15CHTO  H116 6140   6.691   1.385   1.999
   15CHTO   C70 6141   6.490   1.313   2.018
   15CHTO   O46 6142   6.448   1.417   2.107
   15CHTO  H103 6143   6.414   1.490   2.058
   15CHTO   O39 6144   6.625   1.662   1.699
   15CHTO   C60 6145   6.506   1.669   1.619
   15CHTO  H117 6146   6.515   1.600   1.534
   15CHTO   C62 6147   6.376   1.631   1.698
   15CHTO  H119 6148   6.382   1.522   1.718
   15CHTO   O43 6149   6.377   1.703   1.823
   15CHTO  H101 6150   6.447   1.673   1.878
   15CHTO   C66 6151   6.244   1.659   1.611
   15CHTO  H123 6152   6.250   1.600   1.519
   15CHTO   N12 6153   6.120   1.614   1.679
   15CHTO  H110 6154   6.108   1.667   1.773
   15CHTO  H111 6155   6.035   1.629   1.615
   15CHTO   C69 6156   6.241   1.809   1.572
   15CHTO  H126 6157   6.248   1.872   1.663
   15CHTO   O41 6158   6.364   1.832   1.482
   15CHTO   C64 6159   6.495   1.813   1.559
   15CHTO  H121 6160   6.501   1.887   1.642
   15CHTO   C71 6161   6.611   1.844   1.460
   15CHTO   O47 6162   6.738   1.854   1.524
   15CHTO  H104 6163   6.741   1.932   1.576
   15CHTO   O34 6164   6.108   1.849   1.494
   15CHTO   C49 6165   6.054   1.928   1.380
   15CHTO   H91 6166   6.103   1.889   1.290
   15CHTO   C47 6167   6.090   2.077   1.398
   15CHTO   H89 6168   6.067   2.126   1.300
   15CHTO   O33 6169   6.231   2.088   1.423
   15CHTO   H70 6170   6.256   2.178   1.427
   15CHTO   C45 6171   5.999   2.142   1.513
   15CHTO   H87 6172   6.012   2.084   1.606
   15CHTO    N8 6173   6.035   2.284   1.542
   15CHTO   H75 6174   5.974   2.321   1.623
   15CHTO   H76 6175   6.139   2.290   1.571
   15CHTO   C43 6176   5.845   2.126   1.472
   15CHTO   H85 6177   5.787   2.168   1.555
   15CHTO   O29 6178   5.814   1.986   1.452
   15CHTO   C50 6179   5.900   1.908   1.366
   15CHTO   H92 6180   5.880   1.803   1.392
   15CHTO   C54 6181   5.854   1.917   1.219
   15CHTO   O36 6182   5.725   1.858   1.201
   15CHTO   H72 6183   5.700   1.864   1.111
   15CHTO   O27 6184   5.811   2.205   1.356
   15CHTO   C37 6185   5.714   2.296   1.303
   15CHTO   H79 6186   5.619   2.244   1.284
   15CHTO   C38 6187   5.682   2.413   1.401
   15CHTO   H80 6188   5.777   2.460   1.430
   15CHTO   O31 6189   5.621   2.355   1.518
   15CHTO   H68 6190   5.609   2.421   1.584
   15CHTO   C39 6191   5.588   2.520   1.334
   15CHTO   H81 6192   5.490   2.473   1.321
   15CHTO    N7 6193   5.565   2.641   1.421
   15CHTO   H73 6194   5.521   2.611   1.515
   15CHTO   H74 6195   5.499   2.710   1.370
   15CHTO   C40 6196   5.639   2.562   1.191
   15CHTO   H82 6197   5.727   2.627   1.200
   15CHTO   O26 6198   5.666   2.446   1.111
   15CHTO   C41 6199   5.766   2.355   1.168
   15CHTO   H83 6200   5.859   2.411   1.186
   15CHTO   C52 6201   5.796   2.246   1.064
   15CHTO   O35 6202   5.676   2.159   1.034
   15CHTO   H71 6203   5.609   2.211   0.993
   15CHTO   O28 6204   5.536   2.628   1.114
   15CHTO   C42 6205   5.557   2.741   1.022
   15CHTO   H84 6206   5.491   2.717   0.939
   15CHTO   C44 6207   5.699   2.760   0.960
   15CHTO   H86 6208   5.771   2.772   1.042
   15CHTO   O32 6209   5.729   2.638   0.890
   15CHTO   H69 6210   5.818   2.639   0.860
   15CHTO   C48 6211   5.709   2.888   0.867
   15CHTO   H90 6212   5.644   2.872   0.781
   15CHTO    N9 6213   5.847   2.906   0.811
   15CHTO   H77 6214   5.918   2.921   0.891
   15CHTO   H78 6215   5.848   2.991   0.743
   15CHTO   C51 6216   5.659   3.014   0.947
   15CHTO   H93 6217   5.722   3.024   1.036
   15CHTO   O30 6218   5.522   2.992   0.982
   15CHTO   C46 6219   5.504   2.875   1.083
   15CHTO   H88 6220   5.560   2.899   1.174
   15CHTO   C53 6221   5.353   2.869   1.114
   15CHTO   O72 6222   5.322   2.782   1.223
   15CHTO  H199 6223   5.354   2.819   1.303
   15CHTO   O22 6224   5.661   3.134   0.867
   15CHTO   C31 6225   5.664   3.273   0.918
   15CHTO   H59 6226   5.709   3.333   0.837
   15CHTO   C29 6227   5.524   3.332   0.946
   15CHTO   H57 6228   5.476   3.271   1.024
   15CHTO   O21 6229   5.444   3.318   0.827
   15CHTO   H37 6230   5.427   3.227   0.810
   15CHTO   C27 6231   5.533   3.483   0.995
   15CHTO   H55 6232   5.576   3.543   0.914
   15CHTO    N5 6233   5.401   3.541   1.032
   15CHTO   H43 6234   5.335   3.538   0.947
   15CHTO   H44 6235   5.358   3.485   1.114
   15CHTO   C25 6236   5.633   3.490   1.117
   15CHTO   H53 6237   5.592   3.431   1.200
   15CHTO   O17 6238   5.761   3.434   1.079
   15CHTO   C32 6239   5.758   3.295   1.042
   15CHTO   H60 6240   5.720   3.236   1.126
   15CHTO   C36 6241   5.904   3.253   1.011
   15CHTO   O25 6242   5.986   3.259   1.127
   15CHTO   H40 6243   5.999   3.349   1.153
   15CHTO   O15 6244   5.659   3.644   1.167
   15CHTO   C19 6245   5.738   3.716   1.266
   15CHTO   H47 6246   5.838   3.670   1.259
   15CHTO   C20 6247   5.751   3.869   1.239
   15CHTO   H48 6248   5.652   3.917   1.231
   15CHTO   O19 6249   5.815   3.884   1.110
   15CHTO   H35 6250   5.902   3.850   1.113
   15CHTO   C21 6251   5.833   3.946   1.352
   15CHTO   H49 6252   5.937   3.915   1.346
   15CHTO    N4 6253   5.831   4.094   1.333
   15CHTO   H41 6254   5.730   4.131   1.339
   15CHTO   H42 6255   5.890   4.141   1.410
   15CHTO   C22 6256   5.780   3.904   1.492
   15CHTO   H50 6257   5.677   3.940   1.501
   15CHTO   O14 6258   5.779   3.761   1.503
   15CHTO   C23 6259   5.690   3.693   1.413
   15CHTO   H51 6260   5.589   3.732   1.430
   15CHTO   C34 6261   5.690   3.544   1.452
   15CHTO   O23 6262   5.638   3.524   1.584
   15CHTO   H38 6263   5.546   3.544   1.585
   15CHTO   O16 6264   5.857   3.956   1.602
   15CHTO   C24 6265   5.998   3.877   1.654
   15CHTO   H52 6266   6.040   3.813   1.576
   15CHTO   C26 6267   5.965   3.794   1.779
   15CHTO   H54 6268   5.901   3.856   1.847
   15CHTO   O20 6269   5.885   3.680   1.739
   15CHTO   H36 6270   5.934   3.624   1.682
   15CHTO   C30 6271   6.091   3.748   1.860
   15CHTO   H58 6272   6.145   3.670   1.803
   15CHTO    N6 6273   6.051   3.684   1.988
   15CHTO   H45 6274   6.139   3.652   2.042
   15CHTO   H46 6275   5.989   3.597   1.969
   15CHTO   C33 6276   6.190   3.866   1.879
   15CHTO   H61 6277   6.144   3.944   1.942
   15CHTO   O18 6278   6.218   3.923   1.750
   15CHTO   C28 6279   6.105   3.985   1.686
   15CHTO   H56 6280   6.061   4.060   1.751
   15CHTO   C35 6281   6.155   4.052   1.557
   15CHTO   O24 6282   6.257   4.150   1.583
   15CHTO   H39 6283   6.336   4.107   1.608
   15CHTO    O9 6284   6.312   3.828   1.947
   15CHTO   C13 6285   6.320   3.870   2.105
   15CHTO   H26 6286   6.226   3.839   2.153
   15CHTO   C11 6287   6.345   4.025   2.119
   15CHTO   H24 6288   6.257   4.077   2.077
   15CHTO    O8 6289   6.459   4.066   2.042
   15CHTO    H3 6290   6.444   4.052   1.950
   15CHTO    C9 6291   6.354   4.057   2.270
   15CHTO   H22 6292   6.260   4.019   2.314
   15CHTO    N2 6293   6.352   4.203   2.300
   15CHTO   H10 6294   6.442   4.249   2.263
   15CHTO   H11 6295   6.343   4.218   2.407
   15CHTO    C7 6296   6.475   3.980   2.334
   15CHTO   H20 6297   6.462   3.997   2.443
   15CHTO    O4 6298   6.470   3.838   2.309
   15CHTO   C14 6299   6.434   3.786   2.179
   15CHTO   H27 6300   6.392   3.685   2.196
   15CHTO   C18 6301   6.561   3.767   2.092
   15CHTO   O13 6302   6.651   3.672   2.149
   15CHTO    H7 6303   6.613   3.586   2.146
   15CHTO    O2 6304   6.618   4.039   2.284
   15CHTO    C1 6305   6.737   4.002   2.356
   15CHTO   H14 6306   6.750   3.892   2.349
   15CHTO    C2 6307   6.740   4.044   2.511
   15CHTO   H15 6308   6.700   4.146   2.514
   15CHTO    O6 6309   6.654   3.957   2.586
   15CHTO    H1 6310   6.684   3.868   2.580
   15CHTO    C3 6311   6.889   4.042   2.574
   15CHTO   H16 6312   6.921   3.938   2.586
   15CHTO    N1 6313   6.893   4.106   2.710
   15CHTO    H8 6314   6.827   4.053   2.777
   15CHTO    H9 6315   6.994   4.102   2.749
   15CHTO    C4 6316   6.991   4.107   2.474
   15CHTO   H17 6317   6.967   4.214   2.463
   15CHTO    O1 6318   6.981   4.040   2.347
   15CHTO    C5 6319   6.858   4.066   2.279
   15CHTO   H18 6320   6.841   4.173   2.273
   15CHTO   C16 6321   6.877   4.010   2.136
   15CHTO   O11 6322   6.772   4.051   2.048
   15CHTO    H5 6323   6.789   4.017   1.962
   15CHTO    O3 6324   7.129   4.091   2.513
   15CHTO    C6 6325   7.220   4.188   2.449
   15CHTO   H19 6326   7.172   4.245   2.370
   15CHTO    C8 6327   7.273   4.289   2.555
   15CHTO   H21 6328   7.322   4.233   2.635
   15CHTO    O7 6329   7.159   4.359   2.609
   15CHTO    H2 6330   7.118   4.411   2.542
   15CHTO   C12 6331   7.378   4.388   2.489
   15CHTO   H25 6332   7.321   4.451   2.417
   15CHTO    N3 6333   7.438   4.481   2.590
   15CHTO   H12 6334   7.504   4.550   2.541
   15CHTO   H13 6335   7.491   4.425   2.665
   15CHTO   C15 6336   7.486   4.306   2.408
   15CHTO   H28 6337   7.556   4.256   2.474
   15CHTO   O10 6338   7.564   4.397   2.309
   15CHTO    H4 6339   7.634   4.348   2.269
   15CHTO    O5 6340   7.425   4.211   2.319
   15CHTO   C10 6341   7.341   4.115   2.385
   15CHTO   H23 6342   7.399   4.064   2.462
   15CHTO   C17 6343   7.299   4.009   2.281
   15CHTO   O12 6344   7.411   3.934   2.234
   15CHTO    H6 6345   7.445   3.880   2.303
   16CHTO  H203 6346   3.869   3.323   0.406
   16CHTO   O82 6347   3.960   3.339   0.424
   16CHTO  C123 6348   4.009   3.242   0.519
   16CHTO  H227 6349   3.991   3.141   0.479
   16CHTO   O77 6350   4.152   3.270   0.523
   16CHTO  C118 6351   4.226   3.177   0.604
   16CHTO  H222 6352   4.204   3.074   0.572
   16CHTO  C125 6353   4.379   3.207   0.582
   16CHTO   O84 6354   4.418   3.184   0.446
   16CHTO  H205 6355   4.417   3.092   0.427
   16CHTO  C114 6356   4.184   3.195   0.751
   16CHTO  H218 6357   4.209   3.297   0.782
   16CHTO  C116 6358   4.030   3.178   0.769
   16CHTO  H220 6359   4.006   3.069   0.761
   16CHTO   O79 6360   3.996   3.216   0.904
   16CHTO  H201 6361   3.904   3.203   0.919
   16CHTO  C120 6362   3.947   3.260   0.663
   16CHTO  H224 6363   3.954   3.367   0.693
   16CHTO   N21 6364   3.803   3.224   0.666
   16CHTO  H211 6365   3.773   3.197   0.766
   16CHTO  H212 6366   3.783   3.142   0.598
   16CHTO   O75 6367   4.258   3.098   0.827
   16CHTO  C112 6368   4.346   3.162   0.949
   16CHTO  H216 6369   4.284   3.237   1.001
   16CHTO   O73 6370   4.462   3.220   0.889
   16CHTO  C113 6371   4.552   3.286   0.979
   16CHTO  H217 6372   4.497   3.366   1.034
   16CHTO  C124 6373   4.654   3.353   0.887
   16CHTO   O83 6374   4.728   3.457   0.952
   16CHTO  H204 6375   4.790   3.493   0.892
   16CHTO  C109 6376   4.611   3.181   1.078
   16CHTO  H213 6377   4.666   3.108   1.017
   16CHTO  C110 6378   4.493   3.111   1.152
   16CHTO  H214 6379   4.443   3.184   1.216
   16CHTO   O78 6380   4.547   3.010   1.241
   16CHTO  H200 6381   4.590   2.943   1.191
   16CHTO  C111 6382   4.390   3.051   1.051
   16CHTO  H215 6383   4.441   2.971   0.994
   16CHTO   N19 6384   4.272   2.989   1.115
   16CHTO  H207 6385   4.216   3.063   1.172
   16CHTO  H208 6386   4.207   2.944   1.040
   16CHTO   O74 6387   4.702   3.242   1.174
   16CHTO  C115 6388   4.859   3.196   1.157
   16CHTO  H219 6389   4.868   3.092   1.125
   16CHTO   O76 6390   4.931   3.280   1.046
   16CHTO  C122 6391   5.074   3.274   1.035
   16CHTO  H226 6392   5.103   3.362   0.976
   16CHTO  C126 6393   5.120   3.150   0.950
   16CHTO   O85 6394   5.072   3.023   0.997
   16CHTO  H206 6395   5.104   2.955   0.941
   16CHTO  C121 6396   5.147   3.286   1.174
   16CHTO  H225 6397   5.252   3.260   1.156
   16CHTO   O81 6398   5.141   3.422   1.219
   16CHTO  H202 6399   5.198   3.434   1.292
   16CHTO  C119 6400   5.089   3.190   1.282
   16CHTO  H223 6401   5.107   3.089   1.247
   16CHTO  C117 6402   4.932   3.209   1.297
   16CHTO  H221 6403   4.901   3.306   1.336
   16CHTO   N20 6404   4.875   3.108   1.393
   16CHTO  H209 6405   4.839   3.157   1.482
   16CHTO  H210 6406   4.948   3.031   1.418
   16CHTO   O80 6407   5.176   3.194   1.422
   16CHTO  C103 6408   5.306   3.098   1.438
   16CHTO  H190 6409   5.292   3.005   1.383
   16CHTO  C101 6410   5.447   3.158   1.399
   16CHTO  H188 6411   5.461   3.253   1.451
   16CHTO   O68 6412   5.452   3.183   1.251
   16CHTO  H168 6413   5.387   3.247   1.227
   16CHTO   C99 6414   5.565   3.059   1.441
   16CHTO  H186 6415   5.556   2.966   1.380
   16CHTO   N17 6416   5.704   3.112   1.415
   16CHTO  H174 6417   5.712   3.144   1.312
   16CHTO  H175 6418   5.777   3.035   1.437
   16CHTO   C97 6419   5.550   3.013   1.589
   16CHTO  H184 6420   5.580   3.094   1.657
   16CHTO   O64 6421   5.416   2.966   1.616
   16CHTO  C104 6422   5.311   3.061   1.591
   16CHTO  H191 6423   5.328   3.152   1.649
   16CHTO  C108 6424   5.179   3.002   1.642
   16CHTO   O71 6425   5.147   2.877   1.579
   16CHTO  H171 6426   5.071   2.840   1.620
   16CHTO   O62 6427   5.629   2.895   1.612
   16CHTO   C91 6428   5.692   2.868   1.738
   16CHTO  H178 6429   5.716   2.963   1.786
   16CHTO   C92 6430   5.828   2.800   1.701
   16CHTO  H179 6431   5.811   2.734   1.614
   16CHTO   O66 6432   5.917   2.902   1.652
   16CHTO  H166 6433   5.937   2.964   1.720
   16CHTO   C93 6434   5.895   2.716   1.816
   16CHTO  H180 6435   5.931   2.787   1.893
   16CHTO   N16 6436   6.014   2.637   1.774
   16CHTO  H172 6437   6.100   2.666   1.831
   16CHTO  H173 6438   6.033   2.650   1.668
   16CHTO   C94 6439   5.786   2.624   1.880
   16CHTO  H181 6440   5.736   2.562   1.805
   16CHTO   O61 6441   5.686   2.710   1.936
   16CHTO   C95 6442   5.606   2.779   1.838
   16CHTO  H182 6443   5.550   2.706   1.780
   16CHTO  C106 6444   5.501   2.866   1.916
   16CHTO   O69 6445   5.410   2.783   1.989
   16CHTO  H169 6446   5.348   2.837   2.035
   16CHTO   O63 6447   5.845   2.529   2.003
   16CHTO   C96 6448   5.762   2.392   2.026
   16CHTO  H183 6449   5.810   2.338   2.108
   16CHTO   C98 6450   5.759   2.295   1.903
   16CHTO  H185 6451   5.733   2.351   1.812
   16CHTO   O67 6452   5.893   2.247   1.883
   16CHTO  H167 6453   5.948   2.317   1.853
   16CHTO  C102 6454   5.656   2.173   1.922
   16CHTO  H189 6455   5.697   2.110   2.002
   16CHTO   N18 6456   5.641   2.084   1.804
   16CHTO  H176 6457   5.572   2.003   1.826
   16CHTO  H177 6458   5.737   2.042   1.778
   16CHTO  C105 6459   5.520   2.232   1.968
   16CHTO  H192 6460   5.482   2.299   1.891
   16CHTO   O65 6461   5.536   2.307   2.090
   16CHTO  C100 6462   5.615   2.426   2.074
   16CHTO  H187 6463   5.566   2.490   1.999
   16CHTO  C107 6464   5.617   2.502   2.209
   16CHTO   O70 6465   5.485   2.545   2.246
   16CHTO  H170 6466   5.455   2.611   2.187
   16CHTO   O57 6467   5.409   2.109   1.994
   16CHTO   C85 6468   5.274   2.134   1.950
   16CHTO  H157 6469   5.283   2.158   1.842
   16CHTO   C83 6470   5.218   2.263   2.018
   16CHTO  H155 6471   5.283   2.347   1.990
   16CHTO   O56 6472   5.226   2.253   2.162
   16CHTO  H135 6473   5.315   2.246   2.189
   16CHTO   C81 6474   5.075   2.288   1.963
   16CHTO  H153 6475   5.080   2.286   1.854
   16CHTO   N14 6476   5.031   2.427   1.993
   16CHTO  H141 6477   5.101   2.498   1.954
   16CHTO  H142 6478   4.935   2.445   1.948
   16CHTO   C79 6479   4.978   2.171   2.010
   16CHTO  H151 6480   4.916   2.146   1.924
   16CHTO   O52 6481   5.050   2.048   2.049
   16CHTO   C86 6482   5.172   2.014   1.976
   16CHTO  H158 6483   5.219   1.937   2.040
   16CHTO   C90 6484   5.138   1.943   1.842
   16CHTO   O60 6485   5.063   1.823   1.865
   16CHTO  H138 6486   5.030   1.791   1.784
   16CHTO   O50 6487   4.890   2.202   2.118
   16CHTO   C73 6488   4.761   2.174   2.176
   16CHTO  H145 6489   4.744   2.066   2.181
   16CHTO   C74 6490   4.648   2.239   2.090
   16CHTO  H146 6491   4.656   2.198   1.989
   16CHTO   O54 6492   4.520   2.195   2.142
   16CHTO  H133 6493   4.508   2.104   2.125
   16CHTO   C75 6494   4.665   2.397   2.091
   16CHTO  H147 6495   4.759   2.421   2.040
   16CHTO   N13 6496   4.561   2.472   2.016
   16CHTO  H139 6497   4.490   2.405   1.971
   16CHTO  H140 6498   4.606   2.531   1.938
   16CHTO   C76 6499   4.680   2.451   2.242
   16CHTO  H148 6500   4.583   2.444   2.291
   16CHTO   O49 6501   4.779   2.374   2.318
   16CHTO   C77 6502   4.755   2.233   2.320
   16CHTO  H149 6503   4.656   2.214   2.361
   16CHTO   C88 6504   4.853   2.165   2.417
   16CHTO   O58 6505   4.995   2.191   2.385
   16CHTO  H136 6506   5.050   2.148   2.448
   16CHTO   O51 6507   4.740   2.602   2.240
   16CHTO   C78 6508   4.771   2.660   2.385
   16CHTO  H150 6509   4.793   2.579   2.458
   16CHTO   C80 6510   4.652   2.743   2.437
   16CHTO  H152 6511   4.625   2.819   2.361
   16CHTO   O55 6512   4.541   2.652   2.452
   16CHTO  H134 6513   4.464   2.698   2.476
   16CHTO   C84 6514   4.687   2.814   2.574
   16CHTO  H156 6515   4.706   2.737   2.648
   16CHTO   N15 6516   4.574   2.899   2.628
   16CHTO  H143 6517   4.603   3.002   2.635
   16CHTO  H144 6518   4.488   2.892   2.565
   16CHTO   C87 6519   4.818   2.895   2.556
   16CHTO  H159 6520   4.801   2.975   2.484
   16CHTO   O53 6521   4.930   2.801   2.505
   16CHTO   C82 6522   4.898   2.747   2.376
   16CHTO  H154 6523   4.883   2.829   2.305
   16CHTO   C89 6524   5.020   2.665   2.324
   16CHTO   O59 6525   5.053   2.554   2.409
   16CHTO  H137 6526   4.986   2.488   2.402
   16CHTO   O45 6527   4.868   2.960   2.700
   16CHTO   C67 6528   4.971   3.059   2.689
   16CHTO  H124 6529   5.059   3.013   2.643
   16CHTO   C65 6530   4.926   3.182   2.601
   16CHTO  H122 6531   4.820   3.168   2.579
   16CHTO   O44 6532   5.001   3.177   2.478
   16CHTO  H102 6533   4.978   3.100   2.430
   16CHTO   C63 6534   4.930   3.319   2.679
   16CHTO  H120 6535   4.858   3.314   2.760
   16CHTO   N11 6536   4.883   3.439   2.603
   16CHTO  H108 6537   4.877   3.524   2.669
   16CHTO  H109 6538   4.787   3.420   2.561
   16CHTO   C61 6539   5.072   3.334   2.747
   16CHTO  H118 6540   5.064   3.419   2.818
   16CHTO   O40 6541   5.111   3.218   2.825
   16CHTO   C68 6542   5.018   3.105   2.834
   16CHTO  H125 6543   4.931   3.136   0.011
   16CHTO   C72 6544   5.091   2.993   0.028
   16CHTO   O48 6545   5.005   2.885   0.064
   16CHTO  H105 6546   5.054   2.818   0.107
   16CHTO   O38 6547   5.176   3.359   2.650
   16CHTO   C55 6548   5.302   3.405   2.702
   16CHTO  H112 6549   5.312   3.379   2.808
   16CHTO   C56 6550   5.317   3.561   2.677
   16CHTO  H113 6551   5.296   3.579   2.570
   16CHTO   O42 6552   5.215   3.630   2.751
   16CHTO  H100 6553   5.217   3.722   2.731
   16CHTO   C57 6554   5.462   3.611   2.715
   16CHTO  H114 6555   5.472   3.602   2.823
   16CHTO   N10 6556   5.486   3.754   2.680
   16CHTO  H106 6557   5.559   3.797   2.747
   16CHTO  H107 6558   5.522   3.764   2.578
   16CHTO   C58 6559   5.568   3.519   2.648
   16CHTO  H115 6560   5.565   3.533   2.538
   16CHTO   O37 6561   5.543   3.381   2.680
   16CHTO   C59 6562   5.419   3.330   2.630
   16CHTO  H116 6563   5.414   3.344   2.522
   16CHTO   C70 6564   5.417   3.180   2.660
   16CHTO   O46 6565   5.310   3.109   2.596
   16CHTO  H103 6566   5.228   3.136   2.633
   16CHTO   O39 6567   5.716   3.549   2.705
   16CHTO   C60 6568   5.821   3.526   2.609
   16CHTO  H117 6569   5.781   3.474   2.522
   16CHTO   C62 6570   5.880   3.661   2.560
   16CHTO  H119 6571   5.796   3.717   2.513
   16CHTO   O43 6572   5.928   3.737   2.673
   16CHTO  H101 6573   5.856   3.764   2.727
   16CHTO   C66 6574   5.993   3.634   2.449
   16CHTO  H123 6575   5.947   3.578   2.367
   16CHTO   N12 6576   6.044   3.760   2.389
   16CHTO  H110 6577   6.117   3.737   2.312
   16CHTO  H111 6578   6.086   3.823   2.465
   16CHTO   C69 6579   6.105   3.545   2.508
   16CHTO  H126 6580   6.158   3.599   2.590
   16CHTO   O41 6581   6.042   3.412   2.566
   16CHTO   C64 6582   5.932   3.435   2.668
   16CHTO  H121 6583   5.975   3.486   2.758
   16CHTO   C71 6584   5.877   3.298   2.715
   16CHTO   O47 6585   5.824   3.222   2.606
   16CHTO  H104 6586   5.791   3.140   2.638
   16CHTO   O34 6587   6.211   3.506   2.398
   16CHTO   C49 6588   6.272   3.372   2.348
   16CHTO   H91 6589   6.226   3.294   2.409
   16CHTO   C47 6590   6.425   3.370   2.372
   16CHTO   H89 6591   6.437   3.335   2.478
   16CHTO   O33 6592   6.481   3.501   2.360
   16CHTO   H70 6593   6.570   3.502   2.392
   16CHTO   C45 6594   6.502   3.272   2.269
   16CHTO   H87 6595   6.528   3.331   2.180
   16CHTO    N8 6596   6.628   3.221   2.328
   16CHTO   H75 6597   6.607   3.158   2.413
   16CHTO   H76 6598   6.691   3.304   2.359
   16CHTO   C43 6599   6.405   3.158   2.213
   16CHTO   H85 6600   6.464   3.097   2.144
   16CHTO   O29 6601   6.292   3.218   2.146
   16CHTO   C50 6602   6.239   3.341   2.199
   16CHTO   H92 6603   6.274   3.425   2.138
   16CHTO   C54 6604   6.085   3.340   2.177
   16CHTO   O36 6605   6.051   3.331   2.038
   16CHTO   H72 6606   6.071   3.246   2.006
   16CHTO   O27 6607   6.359   3.069   2.317
   16CHTO   C37 6608   6.290   2.943   2.322
   16CHTO   H79 6609   6.284   2.908   2.427
   16CHTO   C38 6610   6.143   2.957   2.271
   16CHTO   H80 6611   6.145   3.007   2.173
   16CHTO   O31 6612   6.073   3.042   2.364
   16CHTO   H68 6613   6.067   3.001   2.448
   16CHTO   C39 6614   6.072   2.817   2.256
   16CHTO   H81 6615   6.059   2.776   2.357
   16CHTO    N7 6616   5.934   2.826   2.195
   16CHTO   H73 6617   5.907   2.928   2.174
   16CHTO   H74 6618   5.861   2.781   2.260
   16CHTO   C40 6619   6.164   2.715   2.177
   16CHTO   H82 6620   6.171   2.744   2.072
   16CHTO   O26 6621   6.293   2.710   2.240
   16CHTO   C41 6622   6.366   2.837   2.238
   16CHTO   H83 6623   6.375   2.872   2.135
   16CHTO   C52 6624   6.508   2.811   2.294
   16CHTO   O35 6625   6.584   2.716   2.210
   16CHTO   H71 6626   6.670   2.705   2.245
   16CHTO   O28 6627   6.109   2.581   2.183
   16CHTO   C42 6628   6.183   2.457   2.160
   16CHTO   H84 6629   6.282   2.474   2.202
   16CHTO   C44 6630   6.206   2.417   2.011
   16CHTO   H86 6631   6.109   2.412   1.961
   16CHTO   O32 6632   6.282   2.522   1.948
   16CHTO   H69 6633   6.369   2.526   1.985
   16CHTO   C48 6634   6.277   2.276   1.995
   16CHTO   H90 6635   6.380   2.286   2.027
   16CHTO    N9 6636   6.283   2.230   1.852
   16CHTO   H77 6637   6.332   2.134   1.845
   16CHTO   H78 6638   6.336   2.303   1.792
   16CHTO   C51 6639   6.207   2.170   2.088
   16CHTO   H93 6640   6.106   2.151   2.050
   16CHTO   O30 6641   6.204   2.221   2.222
   16CHTO   C46 6642   6.120   2.339   2.240
   16CHTO   H88 6643   6.020   2.318   2.202
   16CHTO   C53 6644   6.115   2.365   2.392
   16CHTO   O72 6645   6.022   2.469   2.427
   16CHTO  H199 6646   6.055   2.552   2.398
   16CHTO   O22 6647   6.282   2.048   2.096
   16CHTO   C31 6648   6.227   1.932   2.170
   16CHTO   H59 6649   6.142   1.971   2.230
   16CHTO   C29 6650   6.171   1.822   2.078
   16CHTO   H57 6651   6.254   1.790   2.014
   16CHTO   O21 6652   6.072   1.879   1.991
   16CHTO   H37 6653   5.996   1.904   2.040
   16CHTO   C27 6654   6.118   1.696   2.159
   16CHTO   H55 6655   6.028   1.727   2.215
   16CHTO    N5 6656   6.082   1.582   2.070
   16CHTO   H43 6657   5.976   1.562   2.077
   16CHTO   H44 6658   6.110   1.601   1.968
   16CHTO   C25 6659   6.225   1.653   2.265
   16CHTO   H53 6660   6.315   1.616   2.213
   16CHTO   O17 6661   6.265   1.767   2.346
   16CHTO   C32 6662   6.329   1.872   2.272
   16CHTO   H60 6663   6.414   1.832   2.217
   16CHTO   C36 6664   6.380   1.975   2.376
   16CHTO   O25 6665   6.462   2.075   2.316
   16CHTO   H40 6666   6.542   2.037   2.286
   16CHTO   O15 6667   6.173   1.543   2.362
   16CHTO   C19 6668   6.074   1.494   2.457
   16CHTO   H47 6669   6.130   1.421   2.517
   16CHTO   C20 6670   6.016   1.602   2.555
   16CHTO   H48 6671   5.965   1.683   2.501
   16CHTO   O19 6672   6.129   1.658   2.625
   16CHTO   H35 6673   6.101   1.731   2.677
   16CHTO   C21 6674   5.912   1.536   2.655
   16CHTO   H49 6675   5.963   1.461   2.715
   16CHTO    N4 6676   5.852   1.634   2.750
   16CHTO   H41 6677   5.930   1.680   2.809
   16CHTO   H42 6678   5.783   1.583   2.816
   16CHTO   C22 6679   5.805   1.462   2.570
   16CHTO   H50 6680   5.753   1.536   2.508
   16CHTO   O14 6681   5.869   1.364   2.487
   16CHTO   C23 6682   5.959   1.415   2.388
   16CHTO   H51 6683   5.901   1.479   2.319
   16CHTO   C34 6684   6.014   1.296   2.309
   16CHTO   O23 6685   5.910   1.230   2.236
   16CHTO   H38 6686   5.881   1.284   2.166
   16CHTO   O16 6687   5.710   1.385   2.647
   16CHTO   C24 6688   5.571   1.362   2.563
   16CHTO   H52 6689   5.577   1.402   2.462
   16CHTO   C26 6690   5.456   1.433   2.638
   16CHTO   H54 6691   5.450   1.390   2.741
   16CHTO   O20 6692   5.487   1.573   2.651
   16CHTO   H36 6693   5.491   1.614   2.566
   16CHTO   C30 6694   5.319   1.410   2.566
   16CHTO   H58 6695   5.318   1.470   2.474
   16CHTO    N6 6696   5.205   1.460   2.648
   16CHTO   H45 6697   5.216   1.566   2.667
   16CHTO   H46 6698   5.112   1.443   2.595
   16CHTO   C33 6699   5.299   1.262   2.522
   16CHTO   H61 6700   5.270   1.200   2.609
   16CHTO   O18 6701   5.419   1.206   2.466
   16CHTO   C28 6702   5.535   1.212   2.550
   16CHTO   H56 6703   5.514   1.171   2.650
   16CHTO   C35 6704   5.646   1.127   2.483
   16CHTO   O24 6705   5.758   1.103   2.569
   16CHTO   H39 6706   5.733   1.045   2.638
   16CHTO    O9 6707   5.189   1.253   2.429
   16CHTO   C13 6708   5.141   1.102   2.395
   16CHTO   H26 6709   5.176   1.034   2.476
   16CHTO   C11 6710   5.201   1.058   2.253
   16CHTO   H24 6711   5.311   1.055   2.262
   16CHTO    O8 6712   5.168   1.161   2.157
   16CHTO    H3 6713   5.213   1.240   2.178
   16CHTO    C9 6714   5.150   0.915   2.217
   16CHTO   H22 6715   5.205   0.847   2.284
   16CHTO    N2 6716   5.192   0.870   2.082
   16CHTO   H10 6717   5.140   0.927   2.007
   16CHTO   H11 6718   5.170   0.765   2.070
   16CHTO    C7 6719   4.995   0.899   2.251
   16CHTO   H20 6720   4.998   0.841   2.346
   16CHTO    O4 6721   4.933   1.027   2.274
   16CHTO   C14 6722   4.982   1.091   2.393
   16CHTO   H27 6723   4.950   1.029   2.481
   16CHTO   C18 6724   4.911   1.228   2.407
   16CHTO   O13 6725   4.769   1.213   2.421
   16CHTO    H7 6726   4.749   1.171   2.502
   16CHTO    O2 6727   4.901   0.811   2.137
   16CHTO    C1 6728   4.773   0.759   2.180
   16CHTO   H14 6729   4.735   0.694   2.098
   16CHTO    C2 6730   4.664   0.872   2.209
   16CHTO   H15 6731   4.709   0.942   2.280
   16CHTO    O6 6732   4.638   0.940   2.085
   16CHTO    H1 6733   4.578   1.011   2.099
   16CHTO    C3 6734   4.531   0.809   2.272
   16CHTO   H16 6735   4.483   0.743   2.199
   16CHTO    N1 6736   4.430   0.915   2.309
   16CHTO    H8 6737   4.342   0.869   2.350
   16CHTO    H9 6738   4.473   0.983   2.382
   16CHTO    C4 6739   4.571   0.718   2.394
   16CHTO   H17 6740   4.619   0.780   2.470
   16CHTO    O1 6741   4.661   0.616   2.348
   16CHTO    C5 6742   4.789   0.664   2.304
   16CHTO   H18 6743   4.835   0.719   2.386
   16CHTO   C16 6744   4.874   0.538   2.273
   16CHTO   O11 6745   5.011   0.569   2.245
   16CHTO    H5 6746   5.057   0.490   2.226
   16CHTO    O3 6747   4.458   0.649   2.451
   16CHTO    C6 6748   4.475   0.611   2.592
   16CHTO   H19 6749   4.580   0.613   2.624
   16CHTO    C8 6750   4.394   0.706   2.685
   16CHTO   H21 6751   4.289   0.705   2.652
   16CHTO    O7 6752   4.449   0.838   2.670
   16CHTO    H2 6753   4.396   0.900   2.718
   16CHTO   C12 6754   4.401   0.656   2.835
   16CHTO   H25 6755   4.506   0.671   2.868
   16CHTO    N3 6756   4.315   0.739   0.042
   16CHTO   H12 6757   4.348   0.842   0.039
   16CHTO   H13 6758   4.319   0.701   0.143
   16CHTO   C15 6759   4.368   0.502   2.844
   16CHTO   H28 6760   4.262   0.482   2.829
   16CHTO   O10 6761   4.413   0.440   0.096
   16CHTO    H4 6762   4.384   0.351   0.103
   16CHTO    O5 6763   4.446   0.426   2.749
   16CHTO   C10 6764   4.425   0.465   2.613
   16CHTO   H23 6765   4.318   0.459   2.590
   16CHTO   C17 6766   4.497   0.365   2.521
   16CHTO   O12 6767   4.436   0.236   2.528
   16CHTO    H6 6768   4.480   0.178   2.469
   17CHTO  H203 6769   3.393   4.456   1.358
   17CHTO   O82 6770   3.473   4.414   1.331
   17CHTO  C123 6771   3.585   4.472   1.400
   17CHTO  H227 6772   3.570   4.461   1.508
   17CHTO   O77 6773   3.696   4.387   1.357
   17CHTO  C118 6774   3.825   4.425   1.409
   17CHTO  H222 6775   3.821   4.428   1.519
   17CHTO  C125 6776   3.930   4.317   1.364
   17CHTO   O84 6777   3.900   4.189   1.421
   17CHTO  H205 6778   3.964   4.127   1.394
   17CHTO  C114 6779   3.860   4.565   1.354
   17CHTO  H218 6780   3.854   4.562   1.245
   17CHTO  C116 6781   3.754   4.668   1.404
   17CHTO  H220 6782   3.759   4.674   1.515
   17CHTO   O79 6783   3.787   4.799   1.354
   17CHTO  H201 6784   3.865   4.830   1.394
   17CHTO  C120 6785   3.609   4.622   1.359
   17CHTO  H224 6786   3.607   4.632   1.248
   17CHTO   N21 6787   3.502   4.711   1.412
   17CHTO  H211 6788   3.484   4.793   1.345
   17CHTO  H212 6789   3.528   4.747   1.511
   17CHTO   O75 6790   3.995   4.593   1.395
   17CHTO  C112 6791   4.076   4.681   1.282
   17CHTO  H216 6792   4.005   4.751   1.234
   17CHTO   O73 6793   4.131   4.588   1.186
   17CHTO  C113 6794   4.193   4.655   1.075
   17CHTO  H217 6795   4.119   4.723   1.028
   17CHTO  C124 6796   4.230   4.551   0.968
   17CHTO   O83 6797   4.326   4.455   1.012
   17CHTO  H204 6798   4.342   4.393   0.943
   17CHTO  C109 6799   4.316   4.737   1.123
   17CHTO  H213 6800   4.388   4.665   1.165
   17CHTO  C110 6801   4.270   4.838   1.233
   17CHTO  H214 6802   4.206   4.913   1.187
   17CHTO   O78 6803   4.385   4.909   1.284
   17CHTO  H200 6804   4.445   4.850   1.324
   17CHTO  C111 6805   4.193   4.764   1.346
   17CHTO  H215 6806   4.262   4.695   1.397
   17CHTO   N19 6807   4.140   4.855   1.451
   17CHTO  H207 6808   4.089   4.798   1.527
   17CHTO  H208 6809   4.221   4.911   1.496
   17CHTO   O74 6810   4.378   4.805   1.010
   17CHTO  C115 6811   4.538   4.819   1.024
   17CHTO  H219 6812   4.569   4.828   1.129
   17CHTO   O76 6813   4.613   4.691   0.968
   17CHTO  C122 6814   4.757   4.697   0.970
   17CHTO  H226 6815   4.793   4.611   0.913
   17CHTO  C126 6816   4.810   4.677   1.116
   17CHTO   O85 6817   4.953   4.678   1.123
   17CHTO  H206 6818   4.980   4.670   1.213
   17CHTO  C121 6819   4.811   4.829   0.902
   17CHTO  H225 6820   4.920   4.835   0.920
   17CHTO   O81 6821   4.793   4.819   0.760
   17CHTO  H202 6822   4.702   4.815   0.738
   17CHTO  C119 6823   4.744   4.958   0.957
   17CHTO  H223 6824   4.772   4.963   1.063
   17CHTO  C117 6825   4.587   4.949   0.950
   17CHTO  H221 6826   4.544   4.943   0.850
   17CHTO   N20 6827   4.524   5.071   1.011
   17CHTO  H209 6828   4.555   5.160   0.957
   17CHTO  H210 6829   4.552   5.079   1.115
   17CHTO   O80 6830   4.812   5.092   0.899
   17CHTO  C103 6831   4.905   5.176   0.991
   17CHTO  H190 6832   4.862   5.185   1.091
   17CHTO  C101 6833   5.053   5.125   1.006
   17CHTO  H188 6834   5.096   5.111   0.906
   17CHTO   O68 6835   5.053   4.987   1.079
   17CHTO  H168 6836   5.011   4.923   1.026
   17CHTO   C99 6837   5.142   5.232   1.084
   17CHTO  H186 6838   5.105   5.238   1.189
   17CHTO   N17 6839   5.288   5.195   1.093
   17CHTO  H174 6840   5.332   5.196   0.995
   17CHTO  H175 6841   5.339   5.262   1.160
   17CHTO   C97 6842   5.124   5.375   1.025
   17CHTO  H184 6843   5.178   5.380   0.928
   17CHTO   O64 6844   4.985   5.408   1.010
   17CHTO  C104 6845   4.907   5.320   0.928
   17CHTO  H191 6846   4.949   5.315   0.828
   17CHTO  C108 6847   4.766   5.380   0.912
   17CHTO   O71 6848   4.699   5.398   1.037
   17CHTO  H171 6849   4.679   5.315   1.075
   17CHTO   O62 6850   5.174   5.475   1.116
   17CHTO   C91 6851   5.204   5.606   1.065
   17CHTO  H178 6852   5.171   5.612   0.961
   17CHTO   C92 6853   5.360   5.623   1.064
   17CHTO  H179 6854   5.400   5.587   1.160
   17CHTO   O66 6855   5.413   5.533   0.964
   17CHTO  H166 6856   5.507   5.534   0.966
   17CHTO   C93 6857   5.408   5.772   1.037
   17CHTO  H180 6858   5.388   5.795   0.932
   17CHTO   N16 6859   5.555   5.790   1.056
   17CHTO  H172 6860   5.582   5.892   1.035
   17CHTO  H173 6861   5.609   5.723   0.991
   17CHTO   C94 6862   5.326   5.871   1.127
   17CHTO  H181 6863   5.343   5.853   1.234
   17CHTO   O61 6864   5.187   5.850   1.100
   17CHTO   C95 6865   5.136   5.724   1.145
   17CHTO  H182 6866   5.157   5.713   1.252
   17CHTO  C106 6867   4.981   5.730   1.127
   17CHTO   O69 6868   4.916   5.620   1.193
   17CHTO  H169 6869   4.823   5.625   1.177
   17CHTO   O63 6870   5.355   6.023   1.092
   17CHTO   C96 6871   5.319   6.130   1.209
   17CHTO  H183 6872   5.386   6.111   1.294
   17CHTO   C98 6873   5.172   6.132   1.263
   17CHTO  H185 6874   5.102   6.136   1.178
   17CHTO   O67 6875   5.147   6.006   1.328
   17CHTO  H167 6876   5.057   6.000   1.352
   17CHTO  C102 6877   5.145   6.253   1.365
   17CHTO  H189 6878   5.205   6.230   1.455
   17CHTO   N18 6879   5.005   6.266   1.413
   17CHTO  H176 6880   5.000   6.256   1.520
   17CHTO  H177 6881   4.941   6.192   1.366
   17CHTO  C105 6882   5.198   6.386   1.306
   17CHTO  H192 6883   5.133   6.418   1.224
   17CHTO   O65 6884   5.332   6.375   1.253
   17CHTO  C100 6885   5.351   6.273   1.154
   17CHTO  H187 6886   5.284   6.294   1.070
   17CHTO  C107 6887   5.496   6.285   1.100
   17CHTO   O70 6888   5.592   6.278   1.206
   17CHTO  H170 6889   5.678   6.287   1.171
   17CHTO   O57 6890   5.196   6.500   1.429
   17CHTO   C85 6891   5.317   6.549   1.488
   17CHTO  H157 6892   5.383   6.576   1.404
   17CHTO   C83 6893   5.391   6.435   1.565
   17CHTO  H155 6894   5.420   6.358   1.493
   17CHTO   O56 6895   5.299   6.372   1.656
   17CHTO  H135 6896   5.339   6.299   1.699
   17CHTO   C81 6897   5.519   6.492   1.632
   17CHTO  H153 6898   5.581   6.537   1.554
   17CHTO   N14 6899   5.606   6.386   1.690
   17CHTO  H141 6900   5.557   6.339   1.773
   17CHTO  H142 6901   5.698   6.429   1.725
   17CHTO   C79 6902   5.480   6.604   1.735
   17CHTO  H151 6903   5.573   6.648   1.773
   17CHTO   O52 6904   5.408   6.712   1.666
   17CHTO   C86 6905   5.293   6.670   1.586
   17CHTO  H158 6906   5.215   6.645   1.661
   17CHTO   C90 6907   5.237   6.791   1.506
   17CHTO   O60 6908   5.193   6.895   1.593
   17CHTO  H138 6909   5.160   6.967   1.542
   17CHTO   O50 6910   5.404   6.557   1.848
   17CHTO   C73 6911   5.359   6.566   1.984
   17CHTO  H145 6912   5.411   6.647   2.036
   17CHTO   C74 6913   5.386   6.432   2.059
   17CHTO  H146 6914   5.494   6.413   2.054
   17CHTO   O54 6915   5.356   6.451   2.199
   17CHTO  H133 6916   5.416   6.512   2.238
   17CHTO   C75 6917   5.302   6.315   1.993
   17CHTO  H147 6918   5.340   6.299   1.891
   17CHTO   N13 6919   5.317   6.184   2.059
   17CHTO  H139 6920   5.420   6.152   2.057
   17CHTO  H140 6921   5.285   6.191   2.162
   17CHTO   C76 6922   5.148   6.358   1.979
   17CHTO  H148 6923   5.103   6.358   2.079
   17CHTO   O49 6924   5.134   6.491   1.919
   17CHTO   C77 6925   5.206   6.594   1.988
   17CHTO  H149 6926   5.174   6.600   2.092
   17CHTO   C88 6927   5.171   6.731   1.928
   17CHTO   O58 6928   5.027   6.758   1.937
   17CHTO  H136 6929   5.002   6.769   2.027
   17CHTO   O51 6930   5.070   6.262   1.877
   17CHTO   C78 6931   4.930   6.207   1.935
   17CHTO  H150 6932   4.915   6.238   2.040
   17CHTO   C80 6933   4.929   6.053   1.927
   17CHTO  H152 6934   4.954   6.022   1.823
   17CHTO   O55 6935   5.034   6.005   2.014
   17CHTO  H134 6936   5.015   6.026   2.103
   17CHTO   C84 6937   4.788   5.993   1.967
   17CHTO  H156 6938   4.770   6.018   2.071
   17CHTO   N15 6939   4.783   5.843   1.955
   17CHTO  H143 6940   4.801   5.813   1.854
   17CHTO  H144 6941   4.687   5.807   1.986
   17CHTO   C87 6942   4.679   6.061   1.881
   17CHTO  H159 6943   4.692   6.034   1.776
   17CHTO   O53 6944   4.689   6.213   1.898
   17CHTO   C82 6945   4.814   6.267   1.853
   17CHTO  H154 6946   4.828   6.248   1.746
   17CHTO   C89 6947   4.810   6.421   1.871
   17CHTO   O59 6948   4.705   6.481   1.794
   17CHTO  H137 6949   4.707   6.574   1.805
   17CHTO   O45 6950   4.530   6.018   1.933
   17CHTO   C67 6951   4.440   5.985   1.825
   17CHTO  H124 6952   4.495   5.943   1.741
   17CHTO   C65 6953   4.335   5.881   1.875
   17CHTO  H122 6954   4.392   5.806   1.930
   17CHTO   O44 6955   4.272   5.820   1.762
   17CHTO  H102 6956   4.218   5.749   1.790
   17CHTO   C63 6957   4.239   5.949   1.980
   17CHTO  H120 6958   4.299   5.992   2.060
   17CHTO   N11 6959   4.149   5.855   2.055
   17CHTO  H108 6960   4.207   5.778   2.101
   17CHTO  H109 6961   4.095   5.908   2.130
   17CHTO   C61 6962   4.164   6.067   1.909
   17CHTO  H118 6963   4.107   6.119   1.988
   17CHTO   O40 6964   4.258   6.163   1.854
   17CHTO   C68 6965   4.372   6.118   1.772
   17CHTO  H125 6966   4.447   6.199   1.778
   17CHTO   C72 6967   4.330   6.108   1.622
   17CHTO   O48 6968   4.441   6.099   1.533
   17CHTO  H105 6969   4.488   6.180   1.532
   17CHTO   O38 6970   4.074   6.023   1.804
   17CHTO   C55 6971   3.947   6.088   1.787
   17CHTO  H112 6972   3.931   6.162   1.867
   17CHTO   C56 6973   3.833   5.976   1.787
   17CHTO  H113 6974   3.871   5.892   1.727
   17CHTO   O42 6975   3.817   5.926   1.921
   17CHTO  H100 6976   3.894   5.880   1.949
   17CHTO   C57 6977   3.695   6.028   1.728
   17CHTO  H114 6978   3.655   6.101   1.798
   17CHTO   N10 6979   3.594   5.920   1.710
   17CHTO  H106 6980   3.536   5.909   1.800
   17CHTO  H107 6981   3.642   5.826   1.687
   17CHTO   C58 6982   3.724   6.099   1.593
   17CHTO  H115 6983   3.771   6.026   1.523
   17CHTO   O37 6984   3.815   6.207   1.616
   17CHTO   C59 6985   3.947   6.169   1.654
   17CHTO  H116 6986   3.994   6.112   1.573
   17CHTO   C70 6987   4.027   6.299   1.673
   17CHTO   O46 6988   4.036   6.380   1.556
   17CHTO  H103 6989   3.952   6.416   1.536
   17CHTO   O39 6990   3.585   6.164   1.519
   17CHTO   C60 6991   3.524   6.279   1.581
   17CHTO  H117 6992   3.530   6.269   1.689
   17CHTO   C62 6993   3.595   6.412   1.540
   17CHTO  H119 6994   3.701   6.404   1.571
   17CHTO   O43 6995   3.592   6.427   1.396
   17CHTO  H101 6996   3.646   6.362   1.356
   17CHTO   C66 6997   3.530   6.535   1.619
   17CHTO  H123 6998   3.538   6.516   1.726
   17CHTO   N12 6999   3.603   6.663   1.596
   17CHTO  H110 7000   3.600   6.689   1.492
   17CHTO  H111 7001   3.560   6.741   1.657
   17CHTO   C69 7002   3.379   6.544   1.585
   17CHTO  H126 7003   3.364   6.572   1.479
   17CHTO   O41 7004   3.310   6.405   1.613
   17CHTO   C64 7005   3.373   6.288   1.544
   17CHTO  H121 7006   3.363   6.299   1.434
   17CHTO   C71 7007   3.293   6.162   1.587
   17CHTO   O47 7008   3.324   6.048   1.505
   17CHTO  H104 7009   3.273   5.975   1.533
   17CHTO   O34 7010   3.313   6.647   1.670
   17CHTO   C49 7011   3.203   6.724   1.717
   17CHTO   H91 7012   3.192   6.809   1.650
   17CHTO   C47 7013   3.237   6.771   1.860
   17CHTO   H89 7014   3.152   6.837   1.890
   17CHTO   O33 7015   3.357   6.851   1.860
   17CHTO   H70 7016   3.344   6.930   1.810
   17CHTO   C45 7017   3.252   6.645   1.960
   17CHTO   H87 7018   3.355   6.606   1.953
   17CHTO    N8 7019   3.230   6.691   2.100
   17CHTO   H75 7020   3.243   6.609   2.168
   17CHTO   H76 7021   3.301   6.769   2.124
   17CHTO   C43 7022   3.158   6.522   1.910
   17CHTO   H85 7023   3.220   6.466   1.841
   17CHTO   O29 7024   3.040   6.575   1.846
   17CHTO   C50 7025   3.069   6.642   1.722
   17CHTO   H92 7026   3.073   6.565   1.643
   17CHTO   C54 7027   2.945   6.726   1.684
   17CHTO   O36 7028   2.958   6.788   1.555
   17CHTO   H72 7029   2.881   6.837   1.536
   17CHTO   O27 7030   3.124   6.427   2.012
   17CHTO   C37 7031   3.072   6.293   2.016
   17CHTO   H79 7032   3.040   6.268   2.119
   17CHTO   C38 7033   2.948   6.275   1.924
   17CHTO   H80 7034   2.976   6.306   1.822
   17CHTO   O31 7035   2.846   6.364   1.973
   17CHTO   H68 7036   2.773   6.365   1.914
   17CHTO   C39 7037   2.898   6.125   1.921
   17CHTO   H81 7038   2.861   6.102   2.021
   17CHTO    N7 7039   2.784   6.101   1.826
   17CHTO   H73 7040   2.757   6.191   1.774
   17CHTO   H74 7041   2.808   6.023   1.755
   17CHTO   C40 7042   3.020   6.027   1.894
   17CHTO   H82 7043   3.051   6.034   1.789
   17CHTO   O26 7044   3.128   6.056   1.983
   17CHTO   C41 7045   3.181   6.191   1.973
   17CHTO   H83 7046   3.210   6.211   1.869
   17CHTO   C52 7047   3.308   6.199   2.061
   17CHTO   O35 7048   3.418   6.111   2.009
   17CHTO   H71 7049   3.391   6.022   2.012
   17CHTO   O28 7050   2.983   5.890   1.921
   17CHTO   C42 7051   3.067   5.773   1.890
   17CHTO   H84 7052   3.005   5.689   1.922
   17CHTO   C44 7053   3.201   5.761   1.969
   17CHTO   H86 7054   3.266   5.844   1.941
   17CHTO   O32 7055   3.169   5.771   2.109
   17CHTO   H69 7056   3.142   5.858   2.130
   17CHTO   C48 7057   3.278   5.626   1.935
   17CHTO   H90 7058   3.216   5.543   1.969
   17CHTO    N9 7059   3.408   5.613   2.009
   17CHTO   H77 7060   3.492   5.604   1.941
   17CHTO   H78 7061   3.424   5.696   2.076
   17CHTO   C51 7062   3.295   5.613   1.778
   17CHTO   H93 7063   3.361   5.693   1.745
   17CHTO   O30 7064   3.166   5.621   1.716
   17CHTO   C46 7065   3.094   5.754   1.738
   17CHTO   H88 7066   3.157   5.836   1.701
   17CHTO   C53 7067   2.961   5.750   1.658
   17CHTO   O72 7068   2.987   5.736   1.517
   17CHTO  H199 7069   2.906   5.727   1.472
   17CHTO   O22 7070   3.346   5.484   1.739
   17CHTO   C31 7071   3.431   5.466   1.618
   17CHTO   H59 7072   3.434   5.356   1.601
   17CHTO   C29 7073   3.374   5.530   1.489
   17CHTO   H57 7074   3.357   5.637   1.510
   17CHTO   O21 7075   3.245   5.471   1.465
   17CHTO   H37 7076   3.202   5.515   1.394
   17CHTO   C27 7077   3.473   5.517   1.366
   17CHTO   H55 7078   3.483   5.410   1.340
   17CHTO    N5 7079   3.423   5.589   1.246
   17CHTO   H43 7080   3.406   5.520   1.165
   17CHTO   H44 7081   3.491   5.667   1.215
   17CHTO   C25 7082   3.615   5.566   1.410
   17CHTO   H53 7083   3.609   5.673   1.438
   17CHTO   O17 7084   3.659   5.489   1.526
   17CHTO   C32 7085   3.579   5.510   1.643
   17CHTO   H60 7086   3.580   5.615   1.671
   17CHTO   C36 7087   3.642   5.427   1.758
   17CHTO   O25 7088   3.773   5.475   1.790
   17CHTO   H40 7089   3.811   5.421   1.856
   17CHTO   O15 7090   3.727   5.548   1.297
   17CHTO   C19 7091   3.808   5.645   1.225
   17CHTO   H47 7092   3.897   5.588   1.194
   17CHTO   C20 7093   3.740   5.702   1.096
   17CHTO   H48 7094   3.643   5.750   1.119
   17CHTO   O19 7095   3.715   5.589   1.010
   17CHTO   H35 7096   3.666   5.616   0.935
   17CHTO   C21 7097   3.830   5.811   1.024
   17CHTO   H49 7098   3.921   5.762   0.988
   17CHTO    N4 7099   3.766   5.872   0.904
   17CHTO   H41 7100   3.751   5.978   0.917
   17CHTO   H42 7101   3.670   5.825   0.883
   17CHTO   C22 7102   3.874   5.915   1.130
   17CHTO   H50 7103   3.784   5.964   1.169
   17CHTO   O14 7104   3.944   5.849   1.236
   17CHTO   C23 7105   3.861   5.762   1.315
   17CHTO   H51 7106   3.779   5.822   1.357
   17CHTO   C34 7107   3.946   5.709   1.431
   17CHTO   O23 7108   3.993   5.815   1.515
   17CHTO   H38 7109   3.921   5.855   1.559
   17CHTO   O16 7110   3.965   6.014   1.078
   17CHTO   C24 7111   3.996   6.133   1.183
   17CHTO   H52 7112   3.974   6.103   1.286
   17CHTO   C26 7113   3.909   6.255   1.146
   17CHTO   H54 7114   3.926   6.280   1.039
   17CHTO   O20 7115   3.770   6.221   1.162
   17CHTO   H36 7116   3.751   6.201   1.251
   17CHTO   C30 7117   3.949   6.379   1.232
   17CHTO   H58 7118   3.919   6.362   1.337
   17CHTO    N6 7119   3.876   6.502   1.190
   17CHTO   H45 7120   3.770   6.488   1.201
   17CHTO   H46 7121   3.898   6.524   1.086
   17CHTO   C33 7122   4.104   6.400   1.232
   17CHTO   H61 7123   4.136   6.429   1.130
   17CHTO   O18 7124   4.169   6.277   1.268
   17CHTO   C28 7125   4.146   6.169   1.176
   17CHTO   H56 7126   4.172   6.198   1.075
   17CHTO   C35 7127   4.237   6.052   1.220
   17CHTO   O24 7128   4.239   5.944   1.125
   17CHTO   H39 7129   4.155   5.902   1.123
   17CHTO    O9 7130   4.144   6.509   1.318
   17CHTO   C13 7131   4.297   6.557   1.297
   17CHTO   H26 7132   4.322   6.544   1.190
   17CHTO   C11 7133   4.394   6.472   1.391
   17CHTO   H24 7134   4.406   6.372   1.345
   17CHTO    O8 7135   4.335   6.455   1.521
   17CHTO    H3 7136   4.259   6.400   1.516
   17CHTO    C9 7137   4.531   6.543   1.396
   17CHTO   H22 7138   4.560   6.560   1.291
   17CHTO    N2 7139   4.641   6.460   1.451
   17CHTO   H10 7140   4.603   6.368   1.492
   17CHTO   H11 7141   4.715   6.439   1.375
   17CHTO    C7 7142   4.513   6.685   1.465
   17CHTO   H20 7143   4.586   6.750   1.410
   17CHTO    O4 7144   4.380   6.740   1.450
   17CHTO   C14 7145   4.314   6.713   1.325
   17CHTO   H27 7146   4.377   6.757   1.243
   17CHTO   C18 7147   4.180   6.790   1.322
   17CHTO   O13 7148   4.199   6.932   1.328
   17CHTO    H7 7149   4.232   6.956   1.413
   17CHTO    O2 7150   4.550   6.688   1.625
   17CHTO    C1 7151   4.580   6.820   1.673
   17CHTO   H14 7152   4.537   6.896   1.604
   17CHTO    C2 7153   4.735   6.847   1.688
   17CHTO   H15 7154   4.774   6.769   1.755
   17CHTO    O6 7155   4.797   6.835   1.559
   17CHTO    H1 7156   4.764   6.900   1.500
   17CHTO    C3 7157   4.759   6.992   1.754
   17CHTO   H16 7158   4.719   7.069   1.685
   17CHTO    N1 7159   4.905   7.023   1.774
   17CHTO    H8 7160   4.948   6.950   1.842
   17CHTO    H9 7161   4.916   7.122   1.815
   17CHTO    C4 7162   4.674   7.004   1.886
   17CHTO   H17 7163   4.713   6.933   1.959
   17CHTO    O1 7164   4.536   6.977   1.858
   17CHTO    C5 7165   4.509   6.844   1.811
   17CHTO   H18 7166   4.547   6.770   1.882
   17CHTO   C16 7167   4.355   6.830   1.803
   17CHTO   O11 7168   4.313   6.695   1.779
   17CHTO    H5 7169   4.220   6.693   1.770
   17CHTO    O3 7170   4.682   7.138   1.941
   17CHTO    C6 7171   4.598   7.180   2.054
   17CHTO   H19 7172   4.492   7.164   2.033
   17CHTO    C8 7173   4.632   7.106   2.188
   17CHTO   H21 7174   4.740   7.109   2.201
   17CHTO    O7 7175   4.588   6.970   2.175
   17CHTO    H2 7176   4.640   6.924   2.112
   17CHTO   C12 7177   4.563   7.175   2.313
   17CHTO   H25 7178   4.455   7.152   2.305
   17CHTO    N3 7179   4.610   7.115   2.442
   17CHTO   H12 7180   4.561   7.163   2.525
   17CHTO   H13 7181   4.717   7.126   2.451
   17CHTO   C15 7182   4.580   7.331   2.307
   17CHTO   H28 7183   4.684   7.361   2.326
   17CHTO   O10 7184   4.487   7.406   2.405
   17CHTO    H4 7185   4.510   7.386   2.493
   17CHTO    O5 7186   4.537   7.383   2.180
   17CHTO   C10 7187   4.618   7.333   2.071
   17CHTO   H23 7188   4.722   7.354   2.094
   17CHTO   C17 7189   4.584   7.412   1.944
   17CHTO   O12 7190   4.450   7.389   1.899
   17CHTO    H6 7191   4.389   7.430   1.958
   18CHTO  H203 7192   6.099   6.974   2.667
   18CHTO   O82 7193   6.069   6.892   2.633
   18CHTO  C123 7194   6.010   6.911   2.503
   18CHTO  H227 7195   5.941   6.997   2.507
   18CHTO   O77 7196   6.125   6.943   2.418
   18CHTO  C118 7197   6.089   6.976   2.283
   18CHTO  H222 7198   6.013   7.056   2.283
   18CHTO  C125 7199   6.218   7.030   2.211
   18CHTO   O84 7200   6.265   7.151   2.271
   18CHTO  H205 7201   6.205   7.221   2.252
   18CHTO  C114 7202   6.031   6.851   2.214
   18CHTO  H218 7203   6.106   6.772   2.216
   18CHTO  C116 7204   5.906   6.800   2.294
   18CHTO  H220 7205   5.823   6.873   2.281
   18CHTO   O79 7206   5.860   6.677   2.235
   18CHTO  H201 7207   5.826   6.692   2.149
   18CHTO  C120 7208   5.938   6.782   2.448
   18CHTO  H224 7209   6.007   6.694   2.456
   18CHTO   N21 7210   5.817   6.750   2.528
   18CHTO  H211 7211   5.746   6.694   2.469
   18CHTO  H212 7212   5.844   6.694   2.616
   18CHTO   O75 7213   5.998   6.888   2.079
   18CHTO  C112 7214   6.093   6.817   1.960
   18CHTO  H216 7215   6.150   6.733   2.004
   18CHTO   O73 7216   6.179   6.920   1.909
   18CHTO  C113 7217   6.273   6.874   1.810
   18CHTO  H217 7218   6.333   6.790   1.853
   18CHTO  C124 7219   6.370   6.989   1.779
   18CHTO   O83 7220   6.449   7.027   1.892
   18CHTO  H204 7221   6.509   6.958   1.913
   18CHTO  C109 7222   6.198   6.826   1.684
   18CHTO  H213 7223   6.145   6.914   1.643
   18CHTO  C110 7224   6.094   6.716   1.723
   18CHTO  H214 7225   6.149   6.626   1.752
   18CHTO   O78 7226   6.015   6.683   1.608
   18CHTO  H200 7227   6.068   6.642   1.542
   18CHTO  C111 7228   6.004   6.762   1.841
   18CHTO  H215 7229   5.941   6.846   1.806
   18CHTO   N19 7230   5.911   6.657   1.892
   18CHTO  H207 7231   5.808   6.689   1.880
   18CHTO  H208 7232   5.926   6.564   1.840
   18CHTO   O74 7233   6.295   6.779   1.584
   18CHTO  C115 7234   6.249   6.800   1.434
   18CHTO  H219 7235   6.160   6.742   1.410
   18CHTO   O76 7236   6.206   6.954   1.405
   18CHTO  C122 7237   6.312   7.044   1.370
   18CHTO  H226 7238   6.372   7.059   1.460
   18CHTO  C126 7239   6.250   7.184   1.335
   18CHTO   O85 7240   6.157   7.178   1.226
   18CHTO  H206 7241   6.126   7.264   1.207
   18CHTO  C121 7242   6.403   6.990   1.251
   18CHTO  H225 7243   6.389   7.056   1.162
   18CHTO   O81 7244   6.541   6.999   1.289
   18CHTO  H202 7245   6.565   7.089   1.302
   18CHTO  C119 7246   6.367   6.844   1.211
   18CHTO  H223 7247   6.265   6.848   1.174
   18CHTO  C117 7248   6.366   6.752   1.338
   18CHTO  H221 7249   6.456   6.754   1.399
   18CHTO   N20 7250   6.348   6.607   1.301
   18CHTO  H209 7251   6.260   6.565   1.347
   18CHTO  H210 7252   6.436   6.550   1.328
   18CHTO   O80 7253   6.449   6.794   1.075
   18CHTO  C103 7254   6.367   6.772   0.936
   18CHTO  H190 7255   6.437   6.748   0.856
   18CHTO  C101 7256   6.257   6.660   0.940
   18CHTO  H188 7257   6.199   6.671   1.033
   18CHTO   O68 7258   6.328   6.520   0.943
   18CHTO  H168 7259   6.381   6.513   1.021
   18CHTO   C99 7260   6.155   6.673   0.817
   18CHTO  H186 7261   6.211   6.661   0.722
   18CHTO   N17 7262   6.046   6.571   0.818
   18CHTO  H174 7263   5.984   6.582   0.730
   18CHTO  H175 7264   6.088   6.472   0.823
   18CHTO   C97 7265   6.100   6.819   0.815
   18CHTO  H184 7266   6.051   6.838   0.913
   18CHTO   O64 7267   6.210   6.908   0.792
   18CHTO  C104 7268   6.304   6.914   0.901
   18CHTO  H191 7269   6.254   6.954   0.989
   18CHTO  C108 7270   6.414   7.015   0.866
   18CHTO   O71 7271   6.484   6.980   0.746
   18CHTO  H171 7272   6.549   7.045   0.727
   18CHTO   O62 7273   6.010   6.848   0.705
   18CHTO   C91 7274   5.893   6.926   0.735
   18CHTO  H178 7275   5.888   6.945   0.842
   18CHTO   C92 7276   5.766   6.842   0.700
   18CHTO  H179 7277   5.778   6.802   0.597
   18CHTO   O66 7278   5.762   6.726   0.786
   18CHTO  H166 7279   5.834   6.669   0.768
   18CHTO   C93 7280   5.630   6.922   0.713
   18CHTO  H180 7281   5.610   6.935   0.820
   18CHTO   N16 7282   5.513   6.848   0.659
   18CHTO  H172 7283   5.424   6.908   0.671
   18CHTO  H173 7284   5.502   6.754   0.710
   18CHTO   C94 7285   5.643   7.064   0.647
   18CHTO  H181 7286   5.652   7.058   0.538
   18CHTO   O61 7287   5.761   7.132   0.694
   18CHTO   C95 7288   5.883   7.065   0.661
   18CHTO  H182 7289   5.888   7.050   0.554
   18CHTO  C106 7290   6.004   7.160   0.697
   18CHTO   O69 7291   6.011   7.190   0.837
   18CHTO  H169 7292   5.937   7.242   0.862
   18CHTO   O63 7293   5.515   7.152   0.690
   18CHTO   C96 7294   5.482   7.283   0.606
   18CHTO  H183 7295   5.374   7.281   0.590
   18CHTO   C98 7296   5.548   7.303   0.466
   18CHTO  H185 7297   5.658   7.301   0.478
   18CHTO   O67 7298   5.518   7.192   0.380
   18CHTO  H167 7299   5.426   7.184   0.366
   18CHTO  C102 7300   5.501   7.439   0.394
   18CHTO  H189 7301   5.420   7.410   0.325
   18CHTO   N18 7302   5.603   7.504   0.308
   18CHTO  H176 7303   5.689   7.530   0.367
   18CHTO  H177 7304   5.632   7.436   0.229
   18CHTO  C105 7305   5.437   7.538   0.496
   18CHTO  H192 7306   5.444   7.641   0.458
   18CHTO   O65 7307   5.498   7.536   0.626
   18CHTO  C100 7308   5.516   7.409   0.694
   18CHTO  H187 7309   5.622   7.403   0.721
   18CHTO  C107 7310   5.434   7.409   0.825
   18CHTO   O70 7311   5.482   7.510   0.915
   18CHTO  H170 7312   5.432   7.506   0.995
   18CHTO   O57 7313   5.282   7.495   0.500
   18CHTO   C85 7314   5.178   7.595   0.489
   18CHTO  H157 7315   5.209   7.662   0.406
   18CHTO   C83 7316   5.174   7.683   0.618
   18CHTO  H155 7317   5.268   7.737   0.624
   18CHTO   O56 7318   5.166   7.599   0.734
   18CHTO  H135 7319   5.244   7.547   0.742
   18CHTO   C81 7320   5.058   7.786   0.607
   18CHTO  H153 7321   5.075   7.847   0.518
   18CHTO   N14 7322   5.056   7.884   0.719
   18CHTO  H141 7323   4.981   7.958   0.702
   18CHTO  H142 7324   5.151   7.933   0.726
   18CHTO   C79 7325   4.920   7.711   0.589
   18CHTO  H151 7326   4.844   7.788   0.572
   18CHTO   O52 7327   4.924   7.628   0.468
   18CHTO   C86 7328   5.035   7.532   0.464
   18CHTO  H158 7329   5.010   7.459   0.543
   18CHTO   C90 7330   5.031   7.454   0.331
   18CHTO   O60 7331   5.038   7.540   0.217
   18CHTO  H138 7332   5.032   7.489   0.138
   18CHTO   O50 7333   4.882   7.633   0.702
   18CHTO   C73 7334   4.770   7.554   0.744
   18CHTO  H145 7335   4.744   7.480   0.667
   18CHTO   C74 7336   4.645   7.644   0.769
   18CHTO  H146 7337   4.625   7.699   0.676
   18CHTO   O54 7338   4.530   7.560   0.791
   18CHTO  H133 7339   4.541   7.510   0.870
   18CHTO   C75 7340   4.676   7.742   0.889
   18CHTO  H147 7341   4.761   7.807   0.859
   18CHTO   N13 7342   4.566   7.836   0.920
   18CHTO  H139 7343   4.594   7.901   1.002
   18CHTO  H140 7344   4.478   7.781   0.950
   18CHTO   C76 7345   4.723   7.658   1.017
   18CHTO  H148 7346   4.638   7.598   1.051
   18CHTO   O49 7347   4.835   7.570   0.983
   18CHTO   C77 7348   4.806   7.478   0.875
   18CHTO  H149 7349   4.723   7.414   0.903
   18CHTO   C88 7350   4.926   7.385   0.852
   18CHTO   O58 7351   4.956   7.309   0.969
   18CHTO  H136 7352   4.989   7.365   1.036
   18CHTO   O51 7353   4.776   7.759   1.129
   18CHTO   C78 7354   4.841   7.699   1.259
   18CHTO  H150 7355   4.915   7.619   1.233
   18CHTO   C80 7356   4.735   7.639   1.354
   18CHTO  H152 7357   4.651   7.712   1.363
   18CHTO   O55 7358   4.685   7.519   1.293
   18CHTO  H134 7359   4.632   7.540   1.218
   18CHTO   C84 7360   4.793   7.609   1.499
   18CHTO  H156 7361   4.864   7.527   1.490
   18CHTO   N15 7362   4.686   7.564   1.594
   18CHTO  H143 7363   4.640   7.475   1.558
   18CHTO  H144 7364   4.729   7.544   1.690
   18CHTO   C87 7365   4.868   7.733   1.552
   18CHTO  H159 7366   4.798   7.816   1.564
   18CHTO   O53 7367   4.976   7.771   1.448
   18CHTO   C82 7368   4.919   7.814   1.325
   18CHTO  H154 7369   4.852   7.898   1.343
   18CHTO   C89 7370   5.032   7.866   1.232
   18CHTO   O59 7371   5.131   7.766   1.204
   18CHTO  H137 7372   5.194   7.800   1.143
   18CHTO   O45 7373   4.940   7.704   1.705
   18CHTO   C67 7374   5.083   7.704   1.710
   18CHTO  H124 7375   5.122   7.676   1.612
   18CHTO   C65 7376   5.139   7.847   1.747
   18CHTO  H122 7377   5.064   7.893   1.810
   18CHTO   O44 7378   5.148   7.920   1.623
   18CHTO  H102 7379   5.167   8.010   1.641
   18CHTO   C63 7380   5.269   7.840   1.836
   18CHTO  H120 7381   5.239   7.818   1.939
   18CHTO   N11 7382   5.343   7.971   1.854
   18CHTO  H108 7383   5.332   8.006   1.955
   18CHTO  H109 7384   5.446   7.959   1.831
   18CHTO   C61 7385   5.358   7.719   1.792
   18CHTO  H118 7386   5.441   7.713   1.864
   18CHTO   O40 7387   5.287   7.592   1.801
   18CHTO   C68 7388   5.140   7.595   1.809
   18CHTO  H125 7389   5.111   7.618   1.914
   18CHTO   C72 7390   5.089   7.452   1.778
   18CHTO   O48 7391   4.950   7.435   1.806
   18CHTO  H105 7392   4.924   7.348   1.782
   18CHTO   O38 7393   5.410   7.735   1.658
   18CHTO   C55 7394   5.525   7.653   1.627
   18CHTO  H112 7395   5.530   7.566   1.694
   18CHTO   C56 7396   5.658   7.740   1.635
   18CHTO  H113 7397   5.646   7.824   1.565
   18CHTO   O42 7398   5.672   7.797   1.766
   18CHTO  H100 7399   5.746   7.855   1.769
   18CHTO   C57 7400   5.785   7.652   1.597
   18CHTO  H114 7401   5.801   7.586   1.682
   18CHTO   N10 7402   5.910   7.731   1.579
   18CHTO  H106 7403   5.995   7.669   1.604
   18CHTO  H107 7404   5.909   7.818   1.643
   18CHTO   C58 7405   5.759   7.566   1.470
   18CHTO  H115 7406   5.771   7.629   1.379
   18CHTO   O37 7407   5.628   7.506   1.468
   18CHTO   C59 7408   5.517   7.595   1.483
   18CHTO  H116 7409   5.522   7.674   1.408
   18CHTO   C70 7410   5.390   7.512   1.460
   18CHTO   O46 7411   5.275   7.592   1.438
   18CHTO  H103 7412   5.200   7.537   1.424
   18CHTO   O39 7413   5.874   7.436   1.468
   18CHTO   C60 7414   5.833   7.324   1.547
   18CHTO  H117 7415   5.768   7.359   1.628
   18CHTO   C62 7416   5.754   7.221   1.462
   18CHTO  H119 7417   5.677   7.278   1.405
   18CHTO   O43 7418   5.840   7.159   1.365
   18CHTO  H101 7419   5.791   7.101   1.311
   18CHTO   C66 7420   5.681   7.121   1.562
   18CHTO  H123 7421   5.624   7.180   1.634
   18CHTO   N12 7422   5.581   7.032   1.497
   18CHTO  H110 7423   5.578   7.049   1.390
   18CHTO  H111 7424   5.483   7.046   1.541
   18CHTO   C69 7425   5.784   7.039   1.645
   18CHTO  H126 7426   5.824   6.955   1.584
   18CHTO   O41 7427   5.907   7.128   1.697
   18CHTO   C64 7428   5.953   7.252   1.614
   18CHTO  H121 7429   6.025   7.220   1.536
   18CHTO   C71 7430   6.027   7.348   1.710
   18CHTO   O47 7431   6.140   7.282   1.768
   18CHTO  H104 7432   6.186   7.342   1.824
   18CHTO   O34 7433   5.710   6.976   1.774
   18CHTO   C49 7434   5.687   7.012   1.930
   18CHTO   H91 7435   5.736   6.933   1.987
   18CHTO   C47 7436   5.536   7.014   1.960
   18CHTO   H89 7437   5.526   7.022   2.071
   18CHTO   O33 7438   5.480   6.888   1.918
   18CHTO   H70 7439   5.512   6.818   1.972
   18CHTO   C45 7440   5.468   7.141   1.889
   18CHTO   H87 7441   5.487   7.134   1.781
   18CHTO    N8 7442   5.320   7.144   1.908
   18CHTO   H75 7443   5.297   7.159   2.013
   18CHTO   H76 7444   5.277   7.224   1.850
   18CHTO   C43 7445   5.541   7.277   1.937
   18CHTO   H85 7446   5.498   7.358   1.877
   18CHTO   O29 7447   5.684   7.266   1.918
   18CHTO   C50 7448   5.751   7.149   1.969
   18CHTO   H92 7449   5.853   7.149   1.929
   18CHTO   C54 7450   5.777   7.158   2.122
   18CHTO   O36 7451   5.867   7.265   2.154
   18CHTO   H72 7452   5.828   7.347   2.134
   18CHTO   O27 7453   5.512   7.311   2.074
   18CHTO   C37 7454   5.492   7.418   2.168
   18CHTO   H79 7455   5.534   7.390   2.266
   18CHTO   C38 7456   5.563   7.550   2.124
   18CHTO   H80 7457   5.536   7.571   2.019
   18CHTO   O31 7458   5.704   7.527   2.131
   18CHTO   H68 7459   5.751   7.600   2.096
   18CHTO   C39 7460   5.520   7.674   2.214
   18CHTO   H81 7461   5.560   7.657   2.314
   18CHTO    N7 7462   5.576   7.805   2.166
   18CHTO   H73 7463   5.543   7.825   2.065
   18CHTO   H74 7464   5.683   7.803   2.170
   18CHTO   C40 7465   5.363   7.680   2.226
   18CHTO   H82 7466   5.318   7.703   2.129
   18CHTO   O26 7467   5.318   7.553   2.277
   18CHTO   C41 7468   5.339   7.442   2.186
   18CHTO   H83 7469   5.294   7.464   2.088
   18CHTO   C52 7470   5.269   7.318   2.245
   18CHTO   O35 7471   5.123   7.337   2.256
   18CHTO   H71 7472   5.085   7.261   2.296
   18CHTO   O28 7473   5.314   7.776   2.323
   18CHTO   C42 7474   5.174   7.821   2.322
   18CHTO   H84 7475   5.160   7.861   2.423
   18CHTO   C44 7476   5.065   7.710   2.303
   18CHTO   H86 7477   5.088   7.655   2.212
   18CHTO   O32 7478   5.077   7.620   2.415
   18CHTO   H69 7479   5.157   7.571   2.409
   18CHTO   C48 7480   4.917   7.764   2.291
   18CHTO   H90 7481   4.885   7.798   2.390
   18CHTO    N9 7482   4.822   7.654   2.253
   18CHTO   H77 7483   4.722   7.692   2.246
   18CHTO   H78 7484   4.852   7.610   2.159
   18CHTO   C51 7485   4.909   7.887   2.193
   18CHTO   H93 7486   4.926   7.851   2.091
   18CHTO   O30 7487   5.004   7.986   2.232
   18CHTO   C46 7488   5.150   7.939   2.223
   18CHTO   H88 7489   5.168   7.904   2.122
   18CHTO   C53 7490   5.242   8.060   2.253
   18CHTO   O72 7491   5.212   8.122   2.379
   18CHTO  H199 7492   5.232   8.063   2.449
   18CHTO   O22 7493   4.782   7.955   2.204
   18CHTO   C31 7494   4.686   7.981   2.094
   18CHTO   H59 7495   4.632   8.074   2.122
   18CHTO   C29 7496   4.748   8.006   1.954
   18CHTO   H57 7497   4.802   7.916   1.923
   18CHTO   O21 7498   4.845   8.112   1.966
   18CHTO   H37 7499   4.891   8.122   1.885
   18CHTO   C27 7500   4.636   8.038   1.846
   18CHTO   H55 7501   4.586   8.132   1.873
   18CHTO    N5 7502   4.690   8.052   1.708
   18CHTO   H43 7503   4.764   8.130   1.706
   18CHTO   H44 7504   4.610   8.075   1.639
   18CHTO   C25 7505   4.526   7.925   1.851
   18CHTO   H53 7506   4.571   7.830   1.817
   18CHTO   O17 7507   4.477   7.907   1.987
   18CHTO   C32 7508   4.577   7.870   2.083
   18CHTO   H60 7509   4.625   7.777   2.051
   18CHTO   C36 7510   4.505   7.847   2.218
   18CHTO   O25 7511   4.426   7.728   2.215
   18CHTO   H40 7512   4.355   7.738   2.153
   18CHTO   O15 7513   4.399   7.960   1.760
   18CHTO   C19 7514   4.321   7.878   1.667
   18CHTO   H47 7515   4.218   7.915   1.682
   18CHTO   C20 7516   4.359   7.900   1.518
   18CHTO   H48 7517   4.467   7.885   1.501
   18CHTO   O19 7518   4.329   8.038   1.489
   18CHTO   H35 7519   4.389   8.095   1.533
   18CHTO   C21 7520   4.281   7.801   1.422
   18CHTO   H49 7521   4.174   7.821   1.432
   18CHTO    N4 7522   4.316   7.822   1.279
   18CHTO   H41 7523   4.290   7.922   1.249
   18CHTO   H42 7524   4.260   7.752   1.218
   18CHTO   C22 7525   4.307   7.657   1.473
   18CHTO   H50 7526   4.415   7.642   1.477
   18CHTO   O14 7527   4.252   7.647   1.606
   18CHTO   C23 7528   4.318   7.727   1.706
   18CHTO   H51 7529   4.419   7.686   1.719
   18CHTO   C34 7530   4.242   7.709   1.838
   18CHTO   O23 7531   4.238   7.573   1.881
   18CHTO   H38 7532   4.183   7.523   1.823
   18CHTO   O16 7533   4.243   7.551   1.399
   18CHTO   C24 7534   4.350   7.431   1.345
   18CHTO   H52 7535   4.453   7.452   1.374
   18CHTO   C26 7536   4.341   7.424   1.191
   18CHTO   H54 7537   4.235   7.407   1.162
   18CHTO   O20 7538   4.384   7.550   1.137
   18CHTO   H36 7539   4.369   7.553   1.045
   18CHTO   C30 7540   4.427   7.307   1.134
   18CHTO   H58 7541   4.533   7.330   1.150
   18CHTO    N6 7542   4.411   7.293   0.986
   18CHTO   H45 7543   4.472   7.212   0.950
   18CHTO   H46 7544   4.441   7.385   0.937
   18CHTO   C33 7545   4.397   7.174   1.209
   18CHTO   H61 7546   4.293   7.143   1.186
   18CHTO   O18 7547   4.406   7.195   1.351
   18CHTO   C28 7548   4.314   7.292   1.405
   18CHTO   H56 7549   4.211   7.266   1.378
   18CHTO   C35 7550   4.330   7.288   1.559
   18CHTO   O24 7551   4.225   7.357   1.628
   18CHTO   H39 7552   4.233   7.449   1.614
   18CHTO    O9 7553   4.480   7.065   1.165
   18CHTO   C13 7554   4.619   7.026   1.247
   18CHTO   H26 7555   4.589   6.984   1.346
   18CHTO   C11 7556   4.718   7.149   1.264
   18CHTO   H24 7557   4.669   7.223   1.330
   18CHTO    O8 7558   4.741   7.213   1.137
   18CHTO    H3 7559   4.793   7.291   1.149
   18CHTO    C9 7560   4.848   7.099   1.334
   18CHTO   H22 7561   4.814   7.053   1.428
   18CHTO    N2 7562   4.940   7.207   1.375
   18CHTO   H10 7563   4.887   7.279   1.436
   18CHTO   H11 7564   5.024   7.166   1.429
   18CHTO    C7 7565   4.915   6.987   1.245
   18CHTO   H20 7566   4.999   6.949   1.308
   18CHTO    O4 7567   4.824   6.878   1.218
   18CHTO   C14 7568   4.691   6.907   1.170
   18CHTO   H27 7569   4.632   6.815   1.189
   18CHTO   C18 7570   4.691   6.929   1.016
   18CHTO   O13 7571   4.725   6.809   0.944
   18CHTO    H7 7572   4.656   6.746   0.954
   18CHTO    O2 7573   4.976   7.045   1.101
   18CHTO    C1 7574   5.098   6.986   1.051
   18CHTO   H14 7575   5.112   7.022   0.946
   18CHTO    C2 7576   5.103   6.827   1.049
   18CHTO   H15 7577   5.076   6.793   1.150
   18CHTO    O6 7578   5.005   6.780   0.955
   18CHTO    H1 7579   4.998   6.687   0.959
   18CHTO    C3 7580   5.249   6.773   1.010
   18CHTO   H16 7581   5.269   6.796   0.904
   18CHTO    N1 7582   5.260   6.624   1.025
   18CHTO    H8 7583   5.188   6.575   0.960
   18CHTO    H9 7584   5.241   6.596   1.127
   18CHTO    C4 7585   5.359   6.848   1.092
   18CHTO   H17 7586   5.350   6.820   1.197
   18CHTO    O1 7587   5.343   6.990   1.077
   18CHTO    C5 7588   5.220   7.043   1.130
   18CHTO   H18 7589   5.210   7.015   1.235
   18CHTO   C16 7590   5.230   7.197   1.120
   18CHTO   O11 7591   5.336   7.249   1.201
   18CHTO    H5 7592   5.342   7.341   1.189
   18CHTO    O3 7593   5.492   6.822   1.042
   18CHTO    C6 7594   5.595   6.830   1.146
   18CHTO   H19 7595   5.558   6.869   1.241
   18CHTO    C8 7596   5.656   6.689   1.173
   18CHTO   H21 7597   5.697   6.650   1.079
   18CHTO    O7 7598   5.549   6.603   1.217
   18CHTO    H2 7599   5.514   6.632   1.299
   18CHTO   C12 7600   5.771   6.699   1.281
   18CHTO   H25 7601   5.720   6.727   1.376
   18CHTO    N3 7602   5.837   6.566   1.305
   18CHTO   H12 7603   5.830   6.539   1.409
   18CHTO   H13 7604   5.940   6.567   1.272
   18CHTO   C15 7605   5.872   6.814   1.243
   18CHTO   H28 7606   5.942   6.783   1.166
   18CHTO   O10 7607   5.947   6.861   1.364
   18CHTO    H4 7608   5.887   6.883   1.433
   18CHTO    O5 7609   5.807   6.936   1.204
   18CHTO   C10 7610   5.709   6.925   1.100
   18CHTO   H23 7611   5.756   6.887   1.010
   18CHTO   C17 7612   5.658   7.067   1.070
   18CHTO   O12 7613   5.762   7.150   1.016
   18CHTO    H6 7614   5.728   7.236   1.001
   19CHTO  H203 7615   5.649   8.802   2.560
   19CHTO   O82 7616   5.690   8.721   2.534
   19CHTO  C123 7617   5.594   8.615   2.535
   19CHTO  H227 7618   5.512   8.641   2.467
   19CHTO   O77 7619   5.670   8.502   2.481
   19CHTO  C118 7620   5.592   8.382   2.462
   19CHTO  H222 7621   5.506   8.405   2.397
   19CHTO  C125 7622   5.683   8.275   2.390
   19CHTO   O84 7623   5.801   8.244   2.465
   19CHTO  H205 7624   5.858   8.319   2.468
   19CHTO  C114 7625   5.540   8.332   2.598
   19CHTO  H218 7626   5.626   8.306   2.661
   19CHTO  C116 7627   5.459   8.443   2.672
   19CHTO  H220 7628   5.363   8.459   2.618
   19CHTO   O79 7629   5.425   8.393   2.803
   19CHTO  H201 7630   5.369   8.455   2.847
   19CHTO  C120 7631   5.541   8.578   2.679
   19CHTO  H224 7632   5.627   8.560   2.747
   19CHTO   N21 7633   5.461   8.689   2.738
   19CHTO  H211 7634   5.526   8.760   2.787
   19CHTO  H212 7635   5.388   8.650   2.808
   19CHTO   O75 7636   5.461   8.215   2.568
   19CHTO  C112 7637   5.492   8.085   2.662
   19CHTO  H216 7638   5.526   8.119   2.762
   19CHTO   O73 7639   5.594   8.008   2.595
   19CHTO  C113 7640   5.625   7.881   2.654
   19CHTO  H217 7641   5.657   7.896   2.759
   19CHTO  C124 7642   5.743   7.819   2.579
   19CHTO   O83 7643   5.864   7.894   2.593
   19CHTO  H204 7644   5.896   7.886   2.681
   19CHTO  C109 7645   5.499   7.791   2.650
   19CHTO  H213 7646   5.468   7.784   2.544
   19CHTO  C110 7647   5.388   7.860   2.734
   19CHTO  H214 7648   5.421   7.866   2.838
   19CHTO   O78 7649   5.270   7.777   2.731
   19CHTO  H200 7650   5.206   7.809   2.792
   19CHTO  C111 7651   5.359   8.002   2.678
   19CHTO  H215 7652   5.316   7.991   2.577
   19CHTO   N19 7653   5.260   8.080   2.758
   19CHTO  H207 7654   5.228   8.025   2.845
   19CHTO  H208 7655   5.174   8.106   2.698
   19CHTO   O74 7656   5.527   7.656   2.700
   19CHTO  C115 7657   5.490   7.540   2.592
   19CHTO  H219 7658   5.428   7.578   2.511
   19CHTO   O76 7659   5.621   7.482   2.521
   19CHTO  C122 7660   5.696   7.395   2.606
   19CHTO  H226 7661   5.729   7.454   2.692
   19CHTO  C126 7662   5.827   7.353   2.530
   19CHTO   O85 7663   5.915   7.274   2.612
   19CHTO  H206 7664   5.993   7.254   2.563
   19CHTO  C121 7665   5.611   7.269   2.653
   19CHTO  H225 7666   5.649   7.178   2.602
   19CHTO   O81 7667   5.629   7.250   2.794
   19CHTO  H202 7668   5.590   7.169   2.821
   19CHTO  C119 7669   5.459   7.285   2.619
   19CHTO  H223 7670   5.454   7.287   2.510
   19CHTO  C117 7671   5.409   7.426   2.669
   19CHTO  H221 7672   5.424   7.446   2.775
   19CHTO   N20 7673   5.261   7.442   2.647
   19CHTO  H209 7674   5.229   7.539   2.683
   19CHTO  H210 7675   5.208   7.364   2.700
   19CHTO   O80 7676   5.372   7.154   2.654
   19CHTO  C103 7677   5.326   7.059   2.538
   19CHTO  H190 7678   5.288   7.118   2.454
   19CHTO  C101 7679   5.435   6.960   2.482
   19CHTO  H188 7680   5.478   6.904   2.566
   19CHTO   O68 7681   5.549   7.043   2.414
   19CHTO  H168 7682   5.592   7.096   2.478
   19CHTO   C99 7683   5.370   6.857   2.378
   19CHTO  H186 7684   5.337   6.914   2.289
   19CHTO   N17 7685   5.467   6.753   2.329
   19CHTO  H174 7686   5.555   6.801   2.289
   19CHTO  H175 7687   5.420   6.691   2.254
   19CHTO   C97 7688   5.241   6.792   2.437
   19CHTO  H184 7689   5.270   6.719   2.514
   19CHTO   O64 7690   5.152   6.892   2.489
   19CHTO  C104 7691   5.205   6.975   2.594
   19CHTO  H191 7692   5.240   6.915   2.677
   19CHTO  C108 7693   5.092   7.064   2.649
   19CHTO   O71 7694   5.034   7.147   2.548
   19CHTO  H171 7695   4.965   7.199   2.586
   19CHTO   O62 7696   5.169   6.723   2.332
   19CHTO   C91 7697   5.042   6.662   2.362
   19CHTO  H178 7698   5.016   6.683   2.466
   19CHTO   C92 7699   5.054   6.507   2.349
   19CHTO  H179 7700   5.095   6.483   2.251
   19CHTO   O66 7701   5.152   6.461   2.444
   19CHTO  H166 7702   5.237   6.494   2.421
   19CHTO   C93 7703   4.915   6.433   2.370
   19CHTO  H180 7704   4.890   6.441   2.477
   19CHTO   N16 7705   4.921   6.287   2.342
   19CHTO  H172 7706   4.861   6.261   2.256
   19CHTO  H173 7707   5.023   6.254   2.329
   19CHTO   C94 7708   4.801   6.504   2.287
   19CHTO  H181 7709   4.815   6.490   2.179
   19CHTO   O61 7710   4.804   6.645   2.312
   19CHTO   C95 7711   4.924   6.709   2.270
   19CHTO  H182 7712   4.944   6.682   2.166
   19CHTO  C106 7713   4.900   6.864   2.274
   19CHTO   O69 7714   5.007   6.936   2.211
   19CHTO  H169 7715   4.986   7.027   2.210
   19CHTO   O63 7716   4.654   6.452   2.330
   19CHTO   C96 7717   4.539   6.509   2.231
   19CHTO  H183 7718   4.578   6.503   2.130
   19CHTO   C98 7719   4.495   6.657   2.259
   19CHTO  H185 7720   4.582   6.720   2.281
   19CHTO   O67 7721   4.438   6.711   2.138
   19CHTO  H167 7722   4.362   6.662   2.113
   19CHTO  C102 7723   4.386   6.667   2.376
   19CHTO  H189 7724   4.356   6.773   2.378
   19CHTO   N18 7725   4.437   6.640   2.514
   19CHTO  H176 7726   4.386   6.556   2.558
   19CHTO  H177 7727   4.543   6.622   2.513
   19CHTO  C105 7728   4.263   6.580   2.336
   19CHTO  H192 7729   4.223   6.529   2.424
   19CHTO   O65 7730   4.288   6.481   2.234
   19CHTO  C100 7731   4.413   6.411   2.243
   19CHTO  H187 7732   4.416   6.361   2.341
   19CHTO  C107 7733   4.415   6.302   2.134
   19CHTO   O70 7734   4.531   6.219   2.148
   19CHTO  H170 7735   4.532   6.155   2.080
   19CHTO   O57 7736   4.159   6.689   2.288
   19CHTO   C85 7737   4.029   6.648   2.242
   19CHTO  H157 7738   4.011   6.545   2.280
   19CHTO   C83 7739   4.028   6.638   2.086
   19CHTO  H155 7740   4.102   6.563   2.057
   19CHTO   O56 7741   4.072   6.763   2.029
   19CHTO  H135 7742   4.011   6.831   2.049
   19CHTO   C81 7743   3.887   6.591   2.038
   19CHTO  H153 7744   3.867   6.494   2.083
   19CHTO   N14 7745   3.880   6.566   1.892
   19CHTO  H141 7746   3.873   6.461   1.871
   19CHTO  H142 7747   3.965   6.606   1.841
   19CHTO   C79 7748   3.775   6.691   2.088
   19CHTO  H151 7749   3.679   6.645   2.065
   19CHTO   O52 7750   3.781   6.706   2.234
   19CHTO   C86 7751   3.912   6.746   2.284
   19CHTO  H158 7752   3.928   6.848   2.241
   19CHTO   C90 7753   3.908   6.767   2.438
   19CHTO   O60 7754   3.867   6.649   2.507
   19CHTO  H138 7755   3.932   6.582   2.497
   19CHTO   O50 7756   3.779   6.820   2.024
   19CHTO   C73 7757   3.698   6.929   1.979
   19CHTO  H145 7758   3.596   6.893   1.956
   19CHTO   C74 7759   3.760   6.992   1.850
   19CHTO  H146 7760   3.765   6.912   1.775
   19CHTO   O54 7761   3.668   7.090   1.798
   19CHTO  H133 7762   3.589   7.050   1.768
   19CHTO   C75 7763   3.902   7.050   1.885
   19CHTO  H147 7764   3.966   6.967   1.918
   19CHTO   N13 7765   3.973   7.110   1.770
   19CHTO  H139 7766   3.917   7.193   1.730
   19CHTO  H140 7767   4.070   7.146   1.801
   19CHTO   C76 7768   3.889   7.151   2.008
   19CHTO  H148 7769   3.833   7.238   1.974
   19CHTO   O49 7770   3.819   7.089   2.122
   19CHTO   C77 7771   3.688   7.040   2.089
   19CHTO  H149 7772   3.626   7.121   2.052
   19CHTO   C88 7773   3.621   6.992   2.219
   19CHTO   O58 7774   3.485   6.941   2.194
   19CHTO  H136 7775   3.451   6.905   2.273
   19CHTO   O51 7776   4.034   7.189   2.063
   19CHTO   C78 7777   4.035   7.290   2.184
   19CHTO  H150 7778   3.948   7.273   2.252
   19CHTO   C80 7779   4.030   7.435   2.131
   19CHTO  H152 7780   4.106   7.446   2.051
   19CHTO   O55 7781   3.900   7.454   2.071
   19CHTO  H134 7782   3.894   7.539   2.033
   19CHTO   C84 7783   4.056   7.542   2.244
   19CHTO  H156 7784   3.970   7.539   2.311
   19CHTO   N15 7785   4.064   7.681   2.189
   19CHTO  H143 7786   4.144   7.689   2.119
   19CHTO  H144 7787   4.080   7.751   2.269
   19CHTO   C87 7788   4.184   7.504   2.324
   19CHTO  H159 7789   4.271   7.512   2.259
   19CHTO   O53 7790   4.170   7.360   2.373
   19CHTO   C82 7791   4.163   7.264   2.267
   19CHTO  H154 7792   4.252   7.270   2.204
   19CHTO   C89 7793   4.161   7.123   2.332
   19CHTO   O59 7794   4.180   7.018   2.236
   19CHTO  H137 7795   4.106   7.013   2.179
   19CHTO   O45 7796   4.212   7.604   2.459
   19CHTO   C67 7797   4.106   7.614   2.557
   19CHTO  H124 7798   4.011   7.599   2.507
   19CHTO   C65 7799   4.121   7.505   2.670
   19CHTO  H122 7800   4.228   7.482   2.676
   19CHTO   O44 7801   4.050   7.389   2.626
   19CHTO  H102 7802   3.957   7.403   2.630
   19CHTO   C63 7803   4.084   7.561   2.814
   19CHTO  H120 7804   4.166   7.626   2.848
   19CHTO   N11 7805   4.078   7.459   0.040
   19CHTO  H108 7806   4.159   7.473   0.109
   19CHTO  H109 7807   3.985   7.466   0.093
   19CHTO   C61 7808   3.958   7.654   2.801
   19CHTO  H118 7809   3.940   7.697   0.016
   19CHTO   O40 7810   3.982   7.766   2.710
   19CHTO   C68 7811   4.098   7.759   2.620
   19CHTO  H125 7812   4.190   7.782   2.678
   19CHTO   C72 7813   4.080   7.873   2.516
   19CHTO   O48 7814   4.194   7.892   2.432
   19CHTO  H105 7815   4.176   7.959   2.370
   19CHTO   O38 7816   3.841   7.579   2.758
   19CHTO   C55 7817   3.717   7.652   2.743
   19CHTO  H112 7818   3.737   7.757   2.717
   19CHTO   C56 7819   3.627   7.639   2.873
   19CHTO  H113 7820   3.613   7.532   0.009
   19CHTO   O42 7821   3.697   7.691   0.104
   19CHTO  H100 7822   3.716   7.782   0.092
   19CHTO   C57 7823   3.488   7.712   2.852
   19CHTO  H114 7824   3.509   7.819   2.849
   19CHTO   N10 7825   3.391   7.690   0.079
   19CHTO  H106 7826   3.404   7.766   0.155
   19CHTO  H107 7827   3.405   7.593   0.123
   19CHTO   C58 7828   3.425   7.670   2.716
   19CHTO  H115 7829   3.385   7.567   2.724
   19CHTO   O37 7830   3.519   7.676   2.607
   19CHTO   C59 7831   3.635   7.595   2.624
   19CHTO  H116 7832   3.606   7.491   2.644
   19CHTO   C70 7833   3.717   7.596   2.495
   19CHTO   O46 7834   3.648   7.536   2.385
   19CHTO  H103 7835   3.702   7.537   2.309
   19CHTO   O39 7836   3.308   7.775   2.676
   19CHTO   C60 7837   3.194   7.715   2.613
   19CHTO  H117 7838   3.220   7.616   2.574
   19CHTO   C62 7839   3.077   7.697   2.715
   19CHTO  H119 7840   3.115   7.627   2.793
   19CHTO   O43 7841   3.048   7.824   2.778
   19CHTO  H101 7842   3.120   7.851   2.832
   19CHTO   C66 7843   2.950   7.631   2.643
   19CHTO  H123 7844   2.979   7.535   2.601
   19CHTO   N12 7845   2.839   7.601   2.737
   19CHTO  H110 7846   2.750   7.657   2.713
   19CHTO  H111 7847   2.869   7.617   2.839
   19CHTO   C69 7848   2.906   7.722   2.524
   19CHTO  H126 7849   2.873   7.821   2.562
   19CHTO   O41 7850   3.027   7.740   2.426
   19CHTO   C64 7851   3.148   7.801   2.492
   19CHTO  H121 7852   3.125   7.904   2.528
   19CHTO   C71 7853   3.262   7.812   2.387
   19CHTO   O47 7854   3.225   7.900   2.281
   19CHTO  H104 7855   3.296   7.907   2.220
   19CHTO   O34 7856   2.790   7.659   2.445
   19CHTO   C49 7857   2.671   7.620   2.366
   19CHTO   H91 7858   2.584   7.630   2.432
   19CHTO   C47 7859   2.687   7.473   2.322
   19CHTO   H89 7860   2.588   7.447   2.278
   19CHTO   O33 7861   2.710   7.387   2.435
   19CHTO   H70 7862   2.791   7.409   2.477
   19CHTO   C45 7863   2.806   7.456   2.213
   19CHTO   H87 7864   2.897   7.423   2.265
   19CHTO    N8 7865   2.768   7.350   2.116
   19CHTO   H75 7866   2.747   7.258   2.169
   19CHTO   H76 7867   2.680   7.380   2.060
   19CHTO   C43 7868   2.845   7.598   2.147
   19CHTO   H85 7869   2.910   7.647   2.220
   19CHTO   O29 7870   2.727   7.675   2.121
   19CHTO   C50 7871   2.650   7.708   2.239
   19CHTO   H92 7872   2.673   7.812   2.267
   19CHTO   C54 7873   2.500   7.715   2.199
   19CHTO   O36 7874   2.476   7.816   2.101
   19CHTO   H72 7875   2.386   7.814   2.075
   19CHTO   O27 7876   2.927   7.587   2.030
   19CHTO   C37 7877   3.063   7.610   1.992
   19CHTO   H79 7878   3.095   7.710   2.024
   19CHTO   C38 7879   3.159   7.506   2.059
   19CHTO   H80 7880   3.121   7.405   2.039
   19CHTO   O31 7881   3.155   7.528   2.202
   19CHTO   H68 7882   3.187   7.613   2.224
   19CHTO   C39 7883   3.306   7.519   2.003
   19CHTO   H81 7884   3.346   7.614   2.037
   19CHTO    N7 7885   3.399   7.412   2.055
   19CHTO   H73 7886   3.404   7.417   2.163
   19CHTO   H74 7887   3.363   7.314   2.025
   19CHTO   C40 7888   3.305   7.521   1.846
   19CHTO   H82 7889   3.279   7.422   1.806
   19CHTO   O26 7890   3.214   7.622   1.799
   19CHTO   C41 7891   3.076   7.600   1.837
   19CHTO   H83 7892   3.043   7.501   1.803
   19CHTO   C52 7893   2.992   7.707   1.762
   19CHTO   O35 7894   2.847   7.683   1.771
   19CHTO   H71 7895   2.801   7.742   1.715
   19CHTO   O28 7896   3.427   7.569   1.786
   19CHTO   C42 7897   3.534   7.486   1.732
   19CHTO   H84 7898   3.535   7.395   1.793
   19CHTO   C44 7899   3.675   7.552   1.750
   19CHTO   H86 7900   3.673   7.650   1.702
   19CHTO   O32 7901   3.695   7.573   1.891
   19CHTO   H69 7902   3.636   7.638   1.923
   19CHTO   C48 7903   3.793   7.468   1.686
   19CHTO   H90 7904   3.807   7.378   1.747
   19CHTO    N9 7905   3.924   7.541   1.692
   19CHTO   H77 7906   3.916   7.635   1.638
   19CHTO   H78 7907   3.952   7.560   1.794
   19CHTO   C51 7908   3.756   7.424   1.540
   19CHTO   H93 7909   3.751   7.514   1.478
   19CHTO   O30 7910   3.632   7.354   1.543
   19CHTO   C46 7911   3.516   7.443   1.584
   19CHTO   H88 7912   3.515   7.531   1.521
   19CHTO   C53 7913   3.387   7.361   1.558
   19CHTO   O72 7914   3.371   7.334   1.418
   19CHTO  H199 7915   3.437   7.274   1.389
   19CHTO   O22 7916   3.852   7.331   1.485
   19CHTO   C31 7917   3.844   7.286   1.345
   19CHTO   H59 7918   3.736   7.293   1.316
   19CHTO   C29 7919   3.923   7.372   1.244
   19CHTO   H57 7920   4.029   7.368   1.274
   19CHTO   O21 7921   3.882   7.509   1.257
   19CHTO   H37 7922   3.794   7.520   1.228
   19CHTO   C27 7923   3.909   7.316   1.097
   19CHTO   H55 7924   3.804   7.325   1.066
   19CHTO    N5 7925   3.992   7.391   0.999
   19CHTO   H43 7926   3.964   7.495   0.998
   19CHTO   H44 7927   4.097   7.381   1.024
   19CHTO   C25 7928   3.944   7.163   1.095
   19CHTO   H53 7929   4.050   7.150   1.122
   19CHTO   O17 7930   3.864   7.092   1.194
   19CHTO   C32 7931   3.883   7.136   1.329
   19CHTO   H60 7932   3.988   7.124   1.356
   19CHTO   C36 7933   3.801   7.043   1.423
   19CHTO   O25 7934   3.660   7.049   1.397
   19CHTO   H40 7935   3.627   7.133   1.422
   19CHTO   O15 7936   3.916   7.097   0.952
   19CHTO   C19 7937   3.994   6.994   0.883
   19CHTO   H47 7938   3.946   6.986   0.785
   19CHTO   C20 7939   4.144   7.032   0.862
   19CHTO   H48 7940   4.194   7.055   0.957
   19CHTO   O19 7941   4.144   7.152   0.782
   19CHTO   H35 7942   4.231   7.185   0.773
   19CHTO   C21 7943   4.225   6.917   0.790
   19CHTO   H49 7944   4.186   6.904   0.689
   19CHTO    N4 7945   4.371   6.947   0.777
   19CHTO   H41 7946   4.399   6.952   0.673
   19CHTO   H42 7947   4.396   7.040   0.826
   19CHTO   C22 7948   4.200   6.783   0.865
   19CHTO   H50 7949   4.240   6.791   0.966
   19CHTO   O14 7950   4.059   6.757   0.872
   19CHTO   C23 7951   3.983   6.852   0.948
   19CHTO   H51 7952   4.021   6.851   1.052
   19CHTO   C34 7953   3.838   6.801   0.949
   19CHTO   O23 7954   3.758   6.869   1.046
   19CHTO   H38 7955   3.671   6.835   1.045
   19CHTO   O16 7956   4.255   6.670   0.796
   19CHTO   C24 7957   4.305   6.551   0.893
   19CHTO   H52 7958   4.250   6.551   0.988
   19CHTO   C26 7959   4.455   6.568   0.921
   19CHTO   H54 7960   4.507   6.586   0.824
   19CHTO   O20 7961   4.470   6.685   1.003
   19CHTO   H36 7962   4.561   6.706   1.013
   19CHTO   C30 7963   4.520   6.443   0.990
   19CHTO   H58 7964   4.486   6.437   1.094
   19CHTO    N6 7965   4.668   6.455   0.995
   19CHTO   H45 7966   4.696   6.544   1.051
   19CHTO   H46 7967   4.710   6.368   1.044
   19CHTO   C33 7968   4.474   6.311   0.921
   19CHTO   H61 7969   4.518   6.304   0.821
   19CHTO   O18 7970   4.330   6.311   0.909
   19CHTO   C28 7971   4.276   6.415   0.825
   19CHTO   H56 7972   4.323   6.413   0.727
   19CHTO   C35 7973   4.124   6.394   0.811
   19CHTO   O24 7974   4.090   6.265   0.760
   19CHTO   H39 7975   4.112   6.198   0.822
   19CHTO    O9 7976   4.520   6.195   0.994
   19CHTO   C13 7977   4.590   6.079   0.904
   19CHTO   H26 7978   4.676   6.125   0.850
   19CHTO   C11 7979   4.485   6.015   0.802
   19CHTO   H24 7980   4.484   6.076   0.710
   19CHTO    O8 7981   4.352   6.017   0.857
   19CHTO    H3 7982   4.324   6.105   0.871
   19CHTO    C9 7983   4.531   5.871   0.767
   19CHTO   H22 7984   4.636   5.880   0.736
   19CHTO    N2 7985   4.463   5.812   0.649
   19CHTO   H10 7986   4.509   5.717   0.624
   19CHTO   H11 7987   4.358   5.799   0.669
   19CHTO    C7 7988   4.524   5.783   0.899
   19CHTO   H20 7989   4.594   5.698   0.879
   19CHTO    O4 7990   4.568   5.854   1.017
   19CHTO   C14 7991   4.656   5.967   0.997
   19CHTO   H27 7992   4.749   5.929   0.949
   19CHTO   C18 7993   4.697   6.020   1.137
   19CHTO   O13 7994   4.796   6.122   1.125
   19CHTO    H7 7995   4.820   6.153   1.211
   19CHTO    O2 7996   4.374   5.727   0.928
   19CHTO    C1 7997   4.364   5.589   0.967
   19CHTO   H14 7998   4.464   5.552   0.998
   19CHTO    C2 7999   4.309   5.497   0.851
   19CHTO   H15 8000   4.226   5.553   0.804
   19CHTO    O6 8001   4.414   5.479   0.755
   19CHTO    H1 8002   4.383   5.430   0.681
   19CHTO    C3 8003   4.254   5.356   0.906
   19CHTO   H16 8004   4.338   5.298   0.946
   19CHTO    N1 8005   4.189   5.274   0.799
   19CHTO    H8 8006   4.106   5.329   0.756
   19CHTO    H9 8007   4.261   5.251   0.722
   19CHTO    C4 8008   4.160   5.384   1.029
   19CHTO   H17 8009   4.078   5.449   0.996
   19CHTO    O1 8010   4.235   5.450   1.131
   19CHTO    C5 8011   4.273   5.584   1.095
   19CHTO   H18 8012   4.183   5.643   1.075
   19CHTO   C16 8013   4.346   5.645   1.218
   19CHTO   O11 8014   4.469   5.578   1.248
   19CHTO    H5 8015   4.453   5.489   1.271
   19CHTO    O3 8016   4.107   5.264   1.090
   19CHTO    C6 8017   3.973   5.279   1.148
   19CHTO   H19 8018   3.951   5.382   1.176
   19CHTO    C8 8019   3.863   5.233   1.047
   19CHTO   H21 8020   3.889   5.132   1.012
   19CHTO    O7 8021   3.867   5.324   0.936
   19CHTO    H2 8022   3.808   5.296   0.869
   19CHTO   C12 8023   3.721   5.229   1.116
   19CHTO   H25 8024   3.695   5.335   1.139
   19CHTO    N3 8025   3.613   5.179   1.022
   19CHTO   H12 8026   3.653   5.163   0.923
   19CHTO   H13 8027   3.569   5.088   1.060
   19CHTO   C15 8028   3.729   5.149   1.251
   19CHTO   H28 8029   3.746   5.043   1.233
   19CHTO   O10 8030   3.605   5.168   1.339
   19CHTO    H4 8031   3.530   5.133   1.295
   19CHTO    O5 8032   3.833   5.202   1.335
   19CHTO   C10 8033   3.964   5.195   1.278
   19CHTO   H23 8034   3.986   5.090   1.255
   19CHTO   C17 8035   4.067   5.240   1.383
   19CHTO   O12 8036   4.043   5.374   1.430
   19CHTO    H6 8037   3.965   5.376   1.481
   20CHTO  H203 8038   5.142   9.845   2.011
   20CHTO   O82 8039   5.104   9.867   2.094
   20CHTO  C123 8040   5.051   0.000   2.092
   20CHTO  H227 8041   5.004   0.021   2.190
   20CHTO   O77 8042   5.169   0.085   2.076
   20CHTO  C118 8043   5.141   0.226   2.078
   20CHTO  H222 8044   5.090   0.253   2.171
   20CHTO  C125 8045   5.280   0.302   2.073
   20CHTO   O84 8046   5.355   0.271   1.955
   20CHTO  H205 8047   5.380   0.180   1.955
   20CHTO  C114 8048   5.051   0.263   1.958
   20CHTO  H218 8049   5.101   0.234   1.866
   20CHTO  C116 8050   4.918   0.181   1.964
   20CHTO  H220 8051   4.859   0.213   2.053
   20CHTO   O79 8052   4.839   0.213   1.848
   20CHTO  H201 8053   4.806   0.301   1.855
   20CHTO  C120 8054   4.949   0.026   1.974
   20CHTO  H224 8055   4.997   9.998   1.877
   20CHTO   N21 8056   4.825   9.945   1.987
   20CHTO  H211 8057   4.799   9.932   2.091
   20CHTO  H212 8058   4.839   9.848   1.940
   20CHTO   O75 8059   5.031   0.406   1.964
   20CHTO  C112 8060   5.085   0.484   1.826
   20CHTO  H216 8061   5.090   0.412   1.743
   20CHTO   O73 8062   5.214   0.540   1.856
   20CHTO  C113 8063   5.282   0.591   1.740
   20CHTO  H217 8064   5.297   0.509   1.667
   20CHTO  C124 8065   5.422   0.639   1.783
   20CHTO   O83 8066   5.502   0.535   1.839
   20CHTO  H204 8067   5.583   0.571   1.869
   20CHTO  C109 8068   5.202   0.707   1.674
   20CHTO  H213 8069   5.209   0.794   1.742
   20CHTO  C110 8070   5.052   0.668   1.654
   20CHTO  H214 8071   5.045   0.599   1.570
   20CHTO   O78 8072   4.980   0.787   1.616
   20CHTO  H200 8073   4.892   0.766   1.593
   20CHTO  C111 8074   4.991   0.603   1.782
   20CHTO  H215 8075   4.990   0.678   1.863
   20CHTO   N19 8076   4.851   0.556   1.764
   20CHTO  H207 8077   4.814   0.513   1.856
   20CHTO  H208 8078   4.846   0.482   1.686
   20CHTO   O74 8079   5.263   0.742   1.546
   20CHTO  C115 8080   5.329   0.888   1.538
   20CHTO  H219 8081   5.344   0.931   1.638
   20CHTO   O76 8082   5.475   0.884   1.472
   20CHTO  C122 8083   5.476   0.823   1.342
   20CHTO  H226 8084   5.478   0.715   1.356
   20CHTO  C126 8085   5.613   0.859   1.273
   20CHTO   O85 8086   5.633   0.791   1.148
   20CHTO  H206 8087   5.647   0.700   1.164
   20CHTO  C121 8088   5.352   0.866   1.251
   20CHTO  H225 8089   5.388   0.886   1.148
   20CHTO   O81 8090   5.260   0.757   1.243
   20CHTO  H202 8091   5.300   0.683   1.201
   20CHTO  C119 8092   5.285   0.996   1.306
   20CHTO  H223 8093   5.367   1.067   1.310
   20CHTO  C117 8094   5.232   0.980   1.454
   20CHTO  H221 8095   5.135   0.931   1.463
   20CHTO   N20 8096   5.211   1.114   1.518
   20CHTO  H209 8097   5.305   1.167   1.525
   20CHTO  H210 8098   5.140   1.172   1.461
   20CHTO   O80 8099   5.187   1.068   1.206
   20CHTO  C103 8100   5.059   0.994   1.148
   20CHTO  H190 8101   5.088   0.910   1.084
   20CHTO  C101 8102   4.949   0.944   1.251
   20CHTO  H188 8103   4.943   1.016   1.333
   20CHTO   O68 8104   4.993   0.807   1.309
   20CHTO  H168 8105   4.935   0.782   1.379
   20CHTO   C99 8106   4.803   0.930   1.186
   20CHTO  H186 8107   4.803   0.846   1.114
   20CHTO   N17 8108   4.694   0.899   1.286
   20CHTO  H174 8109   4.617   0.975   1.285
   20CHTO  H175 8110   4.735   0.888   1.385
   20CHTO   C97 8111   4.772   1.057   1.103
   20CHTO  H184 8112   4.770   1.144   1.171
   20CHTO   O64 8113   4.872   1.071   1.001
   20CHTO  C104 8114   5.001   1.106   1.053
   20CHTO  H191 8115   4.996   1.200   1.107
   20CHTO  C108 8116   5.097   1.130   0.935
   20CHTO   O71 8117   5.060   1.246   0.859
   20CHTO  H171 8118   5.076   1.323   0.909
   20CHTO   O62 8119   4.649   1.048   1.028
   20CHTO   C91 8120   4.579   1.171   1.002
   20CHTO  H178 8121   4.629   1.254   1.053
   20CHTO   C92 8122   4.437   1.160   1.067
   20CHTO  H179 8123   4.395   1.061   1.042
   20CHTO   O66 8124   4.454   1.158   1.211
   20CHTO  H166 8125   4.489   1.240   1.241
   20CHTO   C93 8126   4.337   1.274   1.024
   20CHTO  H180 8127   4.371   1.368   1.070
   20CHTO   N16 8128   4.198   1.252   1.072
   20CHTO  H172 8129   4.197   1.244   1.180
   20CHTO  H173 8130   4.135   1.334   1.041
   20CHTO   C94 8131   4.341   1.289   0.868
   20CHTO  H181 8132   4.311   1.198   0.817
   20CHTO   O61 8133   4.476   1.318   0.828
   20CHTO   C95 8134   4.567   1.209   0.849
   20CHTO  H182 8135   4.532   1.122   0.793
   20CHTO  C106 8136   4.706   1.249   0.788
   20CHTO   O69 8137   4.761   1.365   0.852
   20CHTO  H169 8138   4.847   1.382   0.818
   20CHTO   O63 8139   4.252   1.412   0.817
   20CHTO   C96 8140   4.244   1.417   0.661
   20CHTO  H183 8141   4.308   1.339   0.620
   20CHTO   C98 8142   4.290   1.553   0.600
   20CHTO  H185 8143   4.234   1.635   0.647
   20CHTO   O67 8144   4.427   1.573   0.636
   20CHTO  H167 8145   4.436   1.585   0.729
   20CHTO  C102 8146   4.272   1.556   0.440
   20CHTO  H189 8147   4.350   1.490   0.400
   20CHTO   N18 8148   4.296   1.689   0.378
   20CHTO  H176 8149   4.285   1.682   0.270
   20CHTO  H177 8150   4.396   1.723   0.402
   20CHTO  C105 8151   4.134   1.496   0.399
   20CHTO  H192 8152   4.056   1.571   0.415
   20CHTO   O65 8153   4.096   1.378   0.471
   20CHTO  C100 8154   4.098   1.388   0.614
   20CHTO  H187 8155   4.033   1.471   0.645
   20CHTO  C107 8156   4.042   1.257   0.674
   20CHTO   O70 8157   3.905   1.236   0.635
   20CHTO  H170 8158   3.874   1.156   0.671
   20CHTO   O57 8159   4.144   1.461   0.241
   20CHTO   C85 8160   4.220   1.349   0.192
   20CHTO  H157 8161   4.280   1.311   0.277
   20CHTO   C83 8162   4.326   1.402   0.088
   20CHTO  H155 8163   4.404   1.455   0.144
   20CHTO   O56 8164   4.266   1.499   0.001
   20CHTO  H135 8165   4.331   1.539   2.831
   20CHTO   C81 8166   4.392   1.283   0.012
   20CHTO  H153 8167   4.440   1.218   0.085
   20CHTO   N14 8168   4.502   1.323   2.805
   20CHTO  H141 8169   4.464   1.385   2.726
   20CHTO  H142 8170   4.577   1.377   2.859
   20CHTO   C79 8171   4.280   1.199   2.824
   20CHTO  H151 8172   4.330   1.117   2.771
   20CHTO   O52 8173   4.196   1.138   0.041
   20CHTO   C86 8174   4.129   1.235   0.128
   20CHTO  H158 8175   4.051   1.278   0.064
   20CHTO   C90 8176   4.054   1.156   0.239
   20CHTO   O60 8177   4.144   1.083   0.323
   20CHTO  H138 8178   4.096   1.041   0.391
   20CHTO   O50 8179   4.201   1.274   2.730
   20CHTO   C73 8180   4.127   1.270   2.606
   20CHTO  H145 8181   4.180   1.206   2.534
   20CHTO   C74 8182   4.116   1.414   2.547
   20CHTO  H146 8183   4.218   1.454   2.539
   20CHTO   O54 8184   4.067   1.401   2.412
   20CHTO  H133 8185   4.064   1.485   2.370
   20CHTO   C75 8186   4.023   1.504   2.638
   20CHTO  H147 8187   4.071   1.514   2.737
   20CHTO   N13 8188   4.004   1.642   2.588
   20CHTO  H139 8189   4.038   1.714   2.661
   20CHTO  H140 8190   4.060   1.658   2.497
   20CHTO   C76 8191   3.883   1.431   2.663
   20CHTO  H148 8192   3.834   1.422   2.566
   20CHTO   O49 8193   3.907   1.296   2.716
   20CHTO   C77 8194   3.983   1.212   2.628
   20CHTO  H149 8195   3.933   1.207   2.531
   20CHTO   C88 8196   3.981   1.069   2.684
   20CHTO   O58 8197   4.055   0.974   2.595
   20CHTO  H136 8198   4.009   0.966   2.513
   20CHTO   O51 8199   3.785   1.515   2.773
   20CHTO   C78 8200   3.809   1.485   0.045
   20CHTO  H150 8201   3.908   1.438   0.062
   20CHTO   C80 8202   3.699   1.392   0.100
   20CHTO  H152 8203   3.600   1.439   0.080
   20CHTO   O55 8204   3.704   1.268   0.026
   20CHTO  H134 8205   3.675   1.281   2.822
   20CHTO   C84 8206   3.715   1.366   0.255
   20CHTO  H156 8207   3.806   1.309   0.270
   20CHTO   N15 8208   3.603   1.284   0.313
   20CHTO  H143 8209   3.619   1.266   0.417
   20CHTO  H144 8210   3.597   1.189   0.262
   20CHTO   C87 8211   3.731   1.500   0.332
   20CHTO  H159 8212   3.636   1.554   0.337
   20CHTO   O53 8213   3.839   1.588   0.262
   20CHTO   C82 8214   3.806   1.616   0.125
   20CHTO  H154 8215   3.707   1.661   0.120
   20CHTO   C89 8216   3.906   1.722   0.071
   20CHTO   O59 8217   4.043   1.681   0.079
   20CHTO  H137 8218   4.057   1.607   0.023
   20CHTO   O45 8219   3.786   1.471   0.484
   20CHTO   C67 8220   3.759   1.565   0.590
   20CHTO  H124 8221   3.821   1.535   0.674
   20CHTO   C65 8222   3.794   1.714   0.554
   20CHTO  H122 8223   3.774   1.728   0.448
   20CHTO   O44 8224   3.935   1.727   0.577
   20CHTO  H102 8225   3.965   1.811   0.547
   20CHTO   C63 8226   3.699   1.819   0.625
   20CHTO  H120 8227   3.604   1.823   0.571
   20CHTO   N11 8228   3.742   1.963   0.618
   20CHTO  H108 8229   3.761   1.990   0.517
   20CHTO  H109 8230   3.830   1.977   0.677
   20CHTO   C61 8231   3.664   1.767   0.769
   20CHTO  H118 8232   3.595   1.840   0.814
   20CHTO   O40 8233   3.595   1.639   0.765
   20CHTO   C68 8234   3.610   1.556   0.644
   20CHTO  H125 8235   3.540   1.594   0.567
   20CHTO   C72 8236   3.566   1.411   0.677
   20CHTO   O48 8237   3.644   1.349   0.780
   20CHTO  H105 8238   3.732   1.336   0.750
   20CHTO   O38 8239   3.783   1.754   0.850
   20CHTO   C55 8240   3.767   1.762   0.993
   20CHTO  H112 8241   3.664   1.738   1.021
   20CHTO   C56 8242   3.810   1.907   1.043
   20CHTO  H113 8243   3.908   1.929   0.997
   20CHTO   O42 8244   3.718   2.005   0.992
   20CHTO  H100 8245   3.721   2.007   0.899
   20CHTO   C57 8246   3.820   1.914   1.201
   20CHTO  H114 8247   3.719   1.909   1.240
   20CHTO   N10 8248   3.880   2.041   1.250
   20CHTO  H106 8249   3.931   2.028   1.344
   20CHTO  H107 8250   3.804   2.116   1.262
   20CHTO   C58 8251   3.900   1.792   1.255
   20CHTO  H115 8252   4.007   1.801   1.224
   20CHTO   O37 8253   3.845   1.669   1.203
   20CHTO   C59 8254   3.857   1.655   1.061
   20CHTO  H116 8255   3.961   1.666   1.031
   20CHTO   C70 8256   3.811   1.514   1.023
   20CHTO   O46 8257   3.892   1.412   1.080
   20CHTO  H103 8258   3.861   1.328   1.053
   20CHTO   O39 8259   3.889   1.781   1.419
   20CHTO   C60 8260   3.981   1.686   1.474
   20CHTO  H117 8261   4.025   1.626   1.395
   20CHTO   C62 8262   4.097   1.757   1.550
   20CHTO  H119 8263   4.142   1.828   1.477
   20CHTO   O43 8264   4.044   1.834   1.660
   20CHTO  H101 8265   4.113   1.882   1.701
   20CHTO   C66 8266   4.206   1.648   1.592
   20CHTO  H123 8267   4.241   1.597   1.502
   20CHTO   N12 8268   4.328   1.706   1.655
   20CHTO  H110 8269   4.415   1.686   1.594
   20CHTO  H111 8270   4.316   1.812   1.671
   20CHTO   C69 8271   4.144   1.538   1.683
   20CHTO  H126 8272   4.127   1.578   1.786
   20CHTO   O41 8273   4.005   1.485   1.625
   20CHTO   C64 8274   3.908   1.587   1.569
   20CHTO  H121 8275   3.861   1.644   1.653
   20CHTO   C71 8276   3.796   1.511   1.494
   20CHTO   O47 8277   3.724   1.424   1.583
   20CHTO  H104 8278   3.659   1.377   1.534
   20CHTO   O34 8279   4.243   1.413   1.692
   20CHTO   C49 8280   4.317   1.319   1.587
   20CHTO   H91 8281   4.390   1.382   1.535
   20CHTO   C47 8282   4.215   1.262   1.486
   20CHTO   H89 8283   4.273   1.202   1.412
   20CHTO   O33 8284   4.150   1.370   1.416
   20CHTO   H70 8285   4.212   1.415   1.362
   20CHTO   C45 8286   4.115   1.165   1.568
   20CHTO   H87 8287   4.077   1.220   1.655
   20CHTO    N8 8288   3.998   1.119   1.488
   20CHTO   H75 8289   3.942   1.205   1.453
   20CHTO   H76 8290   4.032   1.062   1.403
   20CHTO   C43 8291   4.202   1.044   1.626
   20CHTO   H85 8292   4.134   0.980   1.683
   20CHTO   O29 8293   4.308   1.096   1.710
   20CHTO   C50 8294   4.391   1.202   1.658
   20CHTO   H92 8295   4.444   1.246   1.744
   20CHTO   C54 8296   4.508   1.147   1.571
   20CHTO   O36 8297   4.592   1.059   1.645
   20CHTO   H72 8298   4.546   0.979   1.664
   20CHTO   O27 8299   4.258   0.961   1.522
   20CHTO   C37 8300   4.249   0.842   1.443
   20CHTO   H79 8301   4.148   0.799   1.450
   20CHTO   C38 8302   4.275   0.873   1.293
   20CHTO   H80 8303   4.369   0.929   1.285
   20CHTO   O31 8304   4.166   0.956   1.247
   20CHTO   H68 8305   4.181   0.984   1.159
   20CHTO   C39 8306   4.285   0.741   1.207
   20CHTO   H81 8307   4.187   0.695   1.208
   20CHTO    N7 8308   4.319   0.766   1.062
   20CHTO   H73 8309   4.327   0.872   1.041
   20CHTO   H74 8310   4.411   0.716   1.034
   20CHTO   C40 8311   4.386   0.640   1.275
   20CHTO   H82 8312   4.487   0.680   1.268
   20CHTO   O26 8313   4.347   0.617   1.411
   20CHTO   C41 8314   4.351   0.737   1.495
   20CHTO   H83 8315   4.452   0.781   1.492
   20CHTO   C52 8316   4.321   0.695   1.640
   20CHTO   O35 8317   4.420   0.601   1.693
   20CHTO   H71 8318   4.396   0.576   1.781
   20CHTO   O28 8319   4.381   0.508   1.218
   20CHTO   C42 8320   4.504   0.431   1.198
   20CHTO   H84 8321   4.468   0.328   1.189
   20CHTO   C44 8322   4.607   0.428   1.317
   20CHTO   H86 8323   4.633   0.531   1.343
   20CHTO   O32 8324   4.540   0.370   1.431
   20CHTO   H69 8325   4.519   0.280   1.414
   20CHTO   C48 8326   4.742   0.352   1.280
   20CHTO   H90 8327   4.719   0.246   1.267
   20CHTO    N9 8328   4.843   0.359   1.391
   20CHTO   H77 8329   4.932   0.304   1.363
   20CHTO   H78 8330   4.867   0.462   1.413
   20CHTO   C51 8331   4.796   0.410   1.145
   20CHTO   H93 8332   4.814   0.517   1.159
   20CHTO   O30 8333   4.697   0.386   1.045
   20CHTO   C46 8334   4.573   0.467   1.063
   20CHTO   H88 8335   4.599   0.573   1.062
   20CHTO   C53 8336   4.479   0.434   0.944
   20CHTO   O72 8337   4.540   0.468   0.819
   20CHTO  H199 8338   4.483   0.444   0.749
   20CHTO   O22 8339   4.913   0.344   1.094
   20CHTO   C31 8340   5.016   0.418   1.016
   20CHTO   H59 8341   5.068   0.341   0.955
   20CHTO   C29 8342   4.962   0.526   0.918
   20CHTO   H57 8343   4.898   0.594   0.976
   20CHTO   O21 8344   4.877   0.460   0.823
   20CHTO   H37 8345   4.831   0.523   0.772
   20CHTO   C27 8346   5.076   0.610   0.847
   20CHTO   H55 8347   5.129   0.544   0.777
   20CHTO    N5 8348   5.023   0.726   0.772
   20CHTO   H43 8349   4.951   0.693   0.698
   20CHTO   H44 8350   4.976   0.796   0.840
   20CHTO   C25 8351   5.182   0.654   0.954
   20CHTO   H53 8352   5.134   0.724   1.024
   20CHTO   O17 8353   5.228   0.540   1.031
   20CHTO   C32 8354   5.125   0.479   1.109
   20CHTO   H60 8355   5.078   0.554   1.174
   20CHTO   C36 8356   5.191   0.372   1.199
   20CHTO   O25 8357   5.280   0.431   1.293
   20CHTO   H40 8358   5.318   0.364   1.347
   20CHTO   O15 8359   5.304   0.721   0.891
   20CHTO   C19 8360   5.419   0.730   0.802
   20CHTO   H47 8361   5.376   0.719   0.701
   20CHTO   C20 8362   5.493   0.867   0.811
   20CHTO   H48 8363   5.526   0.889   0.914
   20CHTO   O19 8364   5.396   0.967   0.775
   20CHTO   H35 8365   5.433   1.053   0.785
   20CHTO   C21 8366   5.620   0.873   0.717
   20CHTO   H49 8367   5.587   0.872   0.613
   20CHTO    N4 8368   5.698   0.999   0.735
   20CHTO   H41 8369   5.782   1.000   0.666
   20CHTO   H42 8370   5.736   1.005   0.836
   20CHTO   C22 8371   5.706   0.745   0.739
   20CHTO   H50 8372   5.745   0.747   0.841
   20CHTO   O14 8373   5.624   0.629   0.719
   20CHTO   C23 8374   5.521   0.614   0.818
   20CHTO   H51 8375   5.568   0.614   0.918
   20CHTO   C34 8376   5.456   0.476   0.797
   20CHTO   O23 8377   5.550   0.371   0.824
   20CHTO   H38 8378   5.508   0.288   0.814
   20CHTO   O16 8379   5.816   0.735   0.645
   20CHTO   C24 8380   5.894   0.590   0.646
   20CHTO   H52 8381   5.827   0.508   0.673
   20CHTO   C26 8382   6.014   0.591   0.742
   20CHTO   H54 8383   6.084   0.672   0.710
   20CHTO   O20 8384   5.965   0.622   0.874
   20CHTO   H36 8385   6.038   0.636   0.932
   20CHTO   C30 8386   6.088   0.454   0.737
   20CHTO   H58 8387   6.023   0.376   0.779
   20CHTO    N6 8388   6.211   0.455   0.822
   20CHTO   H45 8389   6.185   0.478   0.924
   20CHTO   H46 8390   6.258   0.358   0.818
   20CHTO   C33 8391   6.119   0.410   0.590
   20CHTO   H61 8392   6.202   0.471   0.551
   20CHTO   O18 8393   6.005   0.430   0.503
   20CHTO   C28 8394   5.944   0.560   0.503
   20CHTO   H56 8395   6.017   0.636   0.474
   20CHTO   C35 8396   5.827   0.561   0.402
   20CHTO   O24 8397   5.870   0.541   0.267
   20CHTO   H39 8398   5.905   0.454   0.257
   20CHTO    O9 8399   6.166   0.273   0.586
   20CHTO   C13 8400   6.076   0.159   0.500
   20CHTO   H26 8401   6.066   0.196   0.396
   20CHTO   C11 8402   5.934   0.138   0.568
   20CHTO   H24 8403   5.874   0.229   0.551
   20CHTO    O8 8404   5.947   0.123   0.710
   20CHTO    H3 8405   5.995   0.045   0.731
   20CHTO    C9 8406   5.864   0.020   0.496
   20CHTO   H22 8407   5.866   0.044   0.389
   20CHTO    N2 8408   5.719   0.004   0.528
   20CHTO   H10 8409   5.690   0.072   0.607
   20CHTO   H11 8410   5.659   0.021   0.439
   20CHTO    C7 8411   5.949   9.890   0.519
   20CHTO   H20 8412   5.894   9.809   0.464
   20CHTO    O4 8413   6.079   9.905   0.459
   20CHTO   C14 8414   6.158   0.023   0.489
   20CHTO   H27 8415   6.228   0.035   0.403
   20CHTO   C18 8416   6.246   9.997   0.614
   20CHTO   O13 8417   6.343   9.895   0.590
   20CHTO    H7 8418   6.300   9.812   0.578
   20CHTO    O2 8419   5.967   9.851   0.680
   20CHTO    C1 8420   5.952   9.713   0.718
   20CHTO   H14 8421   5.986   9.704   0.824
   20CHTO    C2 8422   6.035   9.608   0.632
   20CHTO   H15 8423   6.006   9.623   0.527
   20CHTO    O6 8424   6.175   9.637   0.647
   20CHTO    H1 8425   6.202   9.624   0.736
   20CHTO    C3 8426   5.999   9.458   0.679
   20CHTO   H16 8427   6.032   9.444   0.783
   20CHTO    N1 8428   6.069   9.355   0.595
   20CHTO    H8 8429   6.041   9.366   0.491
   20CHTO    H9 8430   6.176   9.366   0.605
   20CHTO    C4 8431   5.843   9.440   0.680
   20CHTO   H17 8432   5.806   9.450   0.577
   20CHTO    O1 8433   5.782   9.539   0.764
   20CHTO    C5 8434   5.801   9.675   0.721
   20CHTO   H18 8435   5.762   9.686   0.620
   20CHTO   C16 8436   5.719   9.766   0.816
   20CHTO   O11 8437   5.767   9.762   0.951
   20CHTO    H5 8438   5.717   9.821   1.004
   20CHTO    O3 8439   5.801   9.314   0.737
   20CHTO    C6 8440   5.677   9.259   0.680
   20CHTO   H19 8441   5.620   9.333   0.624
   20CHTO    C8 8442   5.712   9.143   0.581
   20CHTO   H21 8443   5.777   9.072   0.633
   20CHTO    O7 8444   5.783   9.200   0.470
   20CHTO    H2 8445   5.729   9.260   0.423
   20CHTO   C12 8446   5.582   9.066   0.534
   20CHTO   H25 8447   5.527   9.137   0.468
   20CHTO    N3 8448   5.618   8.947   0.449
   20CHTO   H12 8449   5.573   8.956   0.351
   20CHTO   H13 8450   5.587   8.855   0.496
   20CHTO   C15 8451   5.492   9.031   0.657
   20CHTO   H28 8452   5.536   8.953   0.719
   20CHTO   O10 8453   5.349   8.990   0.616
   20CHTO    H4 8454   5.353   8.912   0.565
   20CHTO    O5 8455   5.466   9.148   0.737
   20CHTO   C10 8456   5.584   9.207   0.794
   20CHTO   H23 8457   5.636   9.132   0.854
   20CHTO   C17 8458   5.535   9.318   0.888
   20CHTO   O12 8459   5.639   9.368   0.972
   20CHTO    H6 8460   5.701   9.418   0.921
   21GLOH   H03 8461   2.811   8.358   1.276
   21GLOH    O1 8462   2.774   8.266   1.265
   21GLOH    C1 8463   2.795   8.228   1.128
   21GLOH   H02 8464   2.805   8.317   1.065
   21GLOH   H08 8465   2.710   8.172   1.090
   21GLOH    C2 8466   2.920   8.141   1.105
   21GLOH   H04 8467   2.923   8.117   0.998
   21GLOH    O2 8468   3.040   8.214   1.140
   21GLOH   H05 8469   3.050   8.291   1.077
   21GLOH    C3 8470   2.908   8.008   1.181
   21GLOH   H06 8471   3.004   7.958   1.180
   21GLOH   H07 8472   2.838   7.944   1.127
   21GLOH    O3 8473   2.863   8.027   1.317
   21GLOH   H01 8474   2.838   8.123   1.324
   22GLOH   H03 8475   3.577   8.554   2.372
   22GLOH    O1 8476   3.625   8.474   2.408
   22GLOH    C1 8477   3.660   8.499   2.545
   22GLOH   H02 8478   3.676   8.606   2.562
   22GLOH   H08 8479   3.753   8.449   2.570
   22GLOH    C2 8480   3.552   8.450   2.643
   22GLOH   H04 8481   3.549   8.340   2.637
   22GLOH    O2 8482   3.586   8.487   2.779
   22GLOH   H05 8483   3.510   8.462   2.835
   22GLOH    C3 8484   3.412   8.502   2.606
   22GLOH   H06 8485   3.381   8.456   2.512
   22GLOH   H07 8486   3.418   8.609   2.588
   22GLOH    O3 8487   3.315   8.473   2.709
   22GLOH   H01 8488   3.309   8.375   2.723
   23GLOH   H03 8489   2.736   8.906   0.719
   23GLOH    O1 8490   2.797   8.978   0.748
   23GLOH    C1 8491   2.759   9.096   0.676
   23GLOH   H02 8492   2.657   9.126   0.703
   23GLOH   H08 8493   2.758   9.076   0.568
   23GLOH    C2 8494   2.851   9.217   0.701
   23GLOH   H04 8495   2.954   9.188   0.673
   23GLOH    O2 8496   2.810   9.328   0.620
   23GLOH   H05 8497   2.723   9.366   0.654
   23GLOH    C3 8498   2.851   9.254   0.850
   23GLOH   H06 8499   2.751   9.288   0.878
   23GLOH   H07 8500   2.919   9.338   0.866
   23GLOH    O3 8501   2.891   9.143   0.931
   23GLOH   H01 8502   2.845   9.064   0.893
   24GLOH   H03 8503   3.322   9.076   1.376
   24GLOH    O1 8504   3.252   9.147   1.373
   24GLOH    C1 8505   3.232   9.189   1.237
   24GLOH   H02 8506   3.220   9.103   1.172
   24GLOH   H08 8507   3.320   9.244   1.201
   24GLOH    C2 8508   3.109   9.280   1.220
   24GLOH   H04 8509   3.118   9.363   1.292
   24GLOH    O2 8510   3.099   9.336   1.087
   24GLOH   H05 8511   3.153   9.281   1.023
   24GLOH    C3 8512   2.981   9.203   1.257
   24GLOH   H06 8513   2.897   9.272   1.255
   24GLOH   H07 8514   2.990   9.168   1.360
   24GLOH    O3 8515   2.956   9.092   1.169
   24GLOH   H01 8516   2.935   9.126   1.078
   25GLOH   H03 8517   3.530   8.270   1.038
   25GLOH    O1 8518   3.561   8.201   0.973
   25GLOH    C1 8519   3.454   8.108   0.950
   25GLOH   H02 8520   3.445   8.040   1.035
   25GLOH   H08 8521   3.478   8.046   0.863
   25GLOH    C2 8522   3.318   8.175   0.926
   25GLOH   H04 8523   3.297   8.240   1.012
   25GLOH    O2 8524   3.318   8.257   0.807
   25GLOH   H05 8525   3.376   8.337   0.823
   25GLOH    C3 8526   3.207   8.069   0.922
   25GLOH   H06 8527   3.114   8.118   0.896
   25GLOH   H07 8528   3.195   8.028   1.022
   25GLOH    O3 8529   3.234   7.963   0.828
   25GLOH   H01 8530   3.233   8.001   0.737
   26GLOH   H03 8531   4.790   9.522   1.070
   26GLOH    O1 8532   4.754   9.430   1.071
   26GLOH    C1 8533   4.664   9.413   1.182
   26GLOH   H02 8534   4.689   9.482   1.263
   26GLOH   H08 8535   4.673   9.313   1.222
   26GLOH    C2 8536   4.517   9.437   1.142
   26GLOH   H04 8537   4.490   9.364   1.064
   26GLOH    O2 8538   4.431   9.419   1.256
   26GLOH   H05 8539   4.347   9.371   1.228
   26GLOH    C3 8540   4.505   9.578   1.082
   26GLOH   H06 8541   4.578   9.586   1.001
   26GLOH   H07 8542   4.535   9.650   1.158
   26GLOH    O3 8543   4.374   9.609   1.033
   26GLOH   H01 8544   4.317   9.625   1.114
   27GLOH   H03 8545   3.523   8.515   0.785
   27GLOH    O1 8546   3.462   8.465   0.843
   27GLOH    C1 8547   3.439   8.542   0.963
   27GLOH   H02 8548   3.336   8.530   0.995
   27GLOH   H08 8549   3.452   8.648   0.942
   27GLOH    C2 8550   3.531   8.505   1.081
   27GLOH   H04 8551   3.518   8.582   1.159
   27GLOH    O2 8552   3.494   8.377   1.136
   27GLOH   H05 8553   3.465   8.388   1.232
   27GLOH    C3 8554   3.679   8.501   1.040
   27GLOH   H06 8555   3.694   8.420   0.969
   27GLOH   H07 8556   3.738   8.477   1.129
   27GLOH    O3 8557   3.726   8.625   0.983
   27GLOH   H01 8558   3.823   8.634   1.002
   28GLOH   H03 8559   4.121   9.919   2.068
   28GLOH    O1 8560   4.127   9.850   1.996
   28GLOH    C1 8561   4.001   9.842   1.926
   28GLOH   H02 8562   4.015   9.786   1.833
   28GLOH   H08 8563   3.967   9.941   1.897
   28GLOH    C2 8564   3.888   9.772   2.004
   28GLOH   H04 8565   3.807   9.754   1.932
   28GLOH    O2 8566   3.928   9.644   2.058
   28GLOH   H05 8567   3.993   9.660   2.131
   28GLOH    C3 8568   3.829   9.864   2.113
   28GLOH   H06 8569   3.908   9.892   2.182
   28GLOH   H07 8570   3.755   9.807   2.169
   28GLOH    O3 8571   3.767   9.981   2.055
   28GLOH   H01 8572   3.748   0.047   2.125
   29GLOH   H03 8573   3.810   0.290   1.246
   29GLOH    O1 8574   3.775   0.382   1.229
   29GLOH    C1 8575   3.812   0.416   1.094
   29GLOH   H02 8576   3.790   0.521   1.075
   29GLOH   H08 8577   3.753   0.358   1.024
   29GLOH    C2 8578   3.962   0.394   1.064
   29GLOH   H04 8579   3.992   0.295   1.100
   29GLOH    O2 8580   3.985   0.400   0.921
   29GLOH   H05 8581   4.072   0.358   0.899
   29GLOH    C3 8582   4.047   0.500   1.136
   29GLOH   H06 8583   4.012   0.598   1.105
   29GLOH   H07 8584   4.150   0.491   1.099
   29GLOH    O3 8585   4.046   0.488   1.280
   29GLOH   H01 8586   4.104   0.409   1.300
   30GLOH   H03 8587   3.353   9.005   0.492
   30GLOH    O1 8588   3.441   9.016   0.538
   30GLOH    C1 8589   3.523   8.906   0.493
   30GLOH   H02 8590   3.513   8.892   0.386
   30GLOH   H08 8591   3.487   8.814   0.539
   30GLOH    C2 8592   3.672   8.921   0.529
   30GLOH   H04 8593   3.700   9.027   0.524
   30GLOH    O2 8594   3.696   8.873   0.664
   30GLOH   H05 8595   3.742   8.942   0.719
   30GLOH    C3 8596   3.760   8.842   0.429
   30GLOH   H06 8597   3.731   8.737   0.435
   30GLOH   H07 8598   3.863   8.848   0.462
   30GLOH    O3 8599   3.749   8.890   0.294
   30GLOH   H01 8600   3.779   8.815   0.235
   31GLOH   H03 8601   3.128   0.095   0.418
   31GLOH    O1 8602   3.188   0.172   0.401
   31GLOH    C1 8603   3.304   0.128   0.327
   31GLOH   H02 8604   3.367   0.066   0.390
   31GLOH   H08 8605   3.364   0.214   0.297
   31GLOH    C2 8606   3.267   0.048   0.201
   31GLOH   H04 8607   3.356   0.042   0.137
   31GLOH    O2 8608   3.225   9.915   0.237
   31GLOH   H05 8609   3.163   9.885   0.167
   31GLOH    C3 8610   3.158   0.119   0.120
   31GLOH   H06 8611   3.192   0.220   0.096
   31GLOH   H07 8612   3.069   0.129   0.182
   31GLOH    O3 8613   3.126   0.046   2.884
   31GLOH   H01 8614   3.204   0.046   2.824
   32GLOH   H03 8615   3.120   9.973   0.769
   32GLOH    O1 8616   3.058   0.050   0.757
   32GLOH    C1 8617   2.938   0.001   0.695
   32GLOH   H02 8618   2.851   0.034   0.752
   32GLOH   H08 8619   2.935   9.892   0.694
   32GLOH    C2 8620   2.922   0.051   0.549
   32GLOH   H04 8621   2.936   0.160   0.551
   32GLOH    O2 8622   3.020   9.995   0.459
   32GLOH   H05 8623   3.006   9.896   0.450
   32GLOH    C3 8624   2.778   0.025   0.499
   32GLOH   H06 8625   2.771   0.062   0.397
   32GLOH   H07 8626   2.711   0.087   0.559
   32GLOH    O3 8627   2.737   9.887   0.505
   32GLOH   H01 8628   2.731   9.854   0.412
   33GLOH   H03 8629   3.762   8.873   1.926
   33GLOH    O1 8630   3.820   8.861   2.007
   33GLOH    C1 8631   3.733   8.832   2.118
   33GLOH   H02 8632   3.771   8.748   2.175
   33GLOH   H08 8633   3.634   8.803   2.082
   33GLOH    C2 8634   3.715   8.952   2.214
   33GLOH   H04 8635   3.657   9.029   2.163
   33GLOH    O2 8636   3.643   8.909   2.332
   33GLOH   H05 8637   3.666   8.968   2.409
   33GLOH    C3 8638   3.851   9.013   2.254
   33GLOH   H06 8639   3.906   8.941   2.315
   33GLOH   H07 8640   3.832   9.100   2.316
   33GLOH    O3 8641   3.929   9.051   2.139
   33GLOH   H01 8642   3.906   8.986   2.067
   34GLOH   H03 8643   3.489   9.166   0.503
   34GLOH    O1 8644   3.503   9.264   0.497
   34GLOH    C1 8645   3.537   9.303   0.363
   34GLOH   H02 8646   3.576   9.404   0.362
   34GLOH   H08 8647   3.448   9.304   0.300
   34GLOH    C2 8648   3.641   9.210   0.296
   34GLOH   H04 8649   3.720   9.188   0.369
   34GLOH    O2 8650   3.581   9.086   0.254
   34GLOH   H05 8651   3.647   9.011   0.263
   34GLOH    C3 8652   3.706   9.280   0.176
   34GLOH   H06 8653   3.628   9.321   0.112
   34GLOH   H07 8654   3.760   9.206   0.117
   34GLOH    O3 8655   3.796   9.385   0.218
   34GLOH   H01 8656   3.879   9.340   0.249
   35GLOH   H03 8657   3.960   0.531   0.293
   35GLOH    O1 8658   3.984   0.514   0.388
   35GLOH    C1 8659   3.880   0.570   0.471
   35GLOH   H02 8660   3.871   0.513   0.563
   35GLOH   H08 8661   3.783   0.562   0.420
   35GLOH    C2 8662   3.902   0.718   0.508
   35GLOH   H04 8663   3.914   0.775   0.415
   35GLOH    O2 8664   3.786   0.768   0.578
   35GLOH   H05 8665   3.786   0.733   0.672
   35GLOH    C3 8666   4.029   0.737   0.593
   35GLOH   H06 8667   4.030   0.839   0.631
   35GLOH   H07 8668   4.115   0.729   0.527
   35GLOH    O3 8669   4.040   0.643   0.702
   35GLOH   H01 8670   3.957   0.645   0.755
   36GLOH   H03 8671   3.620   9.410   2.586
   36GLOH    O1 8672   3.630   9.500   2.623
   36GLOH    C1 8673   3.654   9.593   2.516
   36GLOH   H02 8674   3.609   9.690   2.540
   36GLOH   H08 8675   3.607   9.559   2.424
   36GLOH    C2 8676   3.804   9.613   2.490
   36GLOH   H04 8677   3.845   9.518   2.453
   36GLOH    O2 8678   3.825   9.715   2.389
   36GLOH   H05 8679   3.764   9.792   2.406
   36GLOH    C3 8680   3.877   9.647   2.621
   36GLOH   H06 8681   3.856   9.570   2.695
   36GLOH   H07 8682   3.836   9.740   2.661
   36GLOH    O3 8683   4.019   9.659   2.603
   36GLOH   H01 8684   4.033   9.710   2.520
   37GLOH   H03 8685   3.956   0.611   1.304
   37GLOH    O1 8686   3.903   0.689   1.335
   37GLOH    C1 8687   3.806   0.641   1.430
   37GLOH   H02 8688   3.754   0.553   1.392
   37GLOH   H08 8689   3.728   0.717   1.446
   37GLOH    C2 8690   3.867   0.606   1.567
   37GLOH   H04 8691   3.788   0.558   1.627
   37GLOH    O2 8692   3.975   0.511   1.552
   37GLOH   H05 8693   4.007   0.512   1.458
   37GLOH    C3 8694   3.912   0.733   1.642
   37GLOH   H06 8695   3.988   0.783   1.583
   37GLOH   H07 8696   3.960   0.702   1.735
   37GLOH    O3 8697   3.804   0.823   1.671
   37GLOH   H01 8698   3.726   0.771   1.706
   38GLOH   H03 8699   3.700   8.736   1.521
   38GLOH    O1 8700   3.722   8.736   1.617
   38GLOH    C1 8701   3.848   8.668   1.632
   38GLOH   H02 8702   3.911   8.721   1.703
   38GLOH   H08 8703   3.903   8.666   1.538
   38GLOH    C2 8704   3.833   8.523   1.682
   38GLOH   H04 8705   3.927   8.471   1.662
   38GLOH    O2 8706   3.806   8.518   1.824
   38GLOH   H05 8707   3.873   8.573   1.873
   38GLOH    C3 8708   3.721   8.449   1.605
   38GLOH   H06 8709   3.629   8.506   1.613
   38GLOH   H07 8710   3.702   8.354   1.655
   38GLOH    O3 8711   3.750   8.426   1.466
   38GLOH   H01 8712   3.703   8.343   1.442
   39GLOH   H03 8713   4.729   8.757   2.266
   39GLOH    O1 8714   4.668   8.686   2.297
   39GLOH    C1 8715   4.648   8.591   2.190
   39GLOH   H02 8716   4.733   8.523   2.184
   39GLOH   H08 8717   4.643   8.643   2.094
   39GLOH    C2 8718   4.519   8.509   2.206
   39GLOH   H04 8719   4.433   8.577   2.203
   39GLOH    O2 8720   4.510   8.415   2.097
   39GLOH   H05 8721   4.416   8.398   2.070
   39GLOH    C3 8722   4.517   8.435   2.342
   39GLOH   H06 8723   4.587   8.352   2.338
   39GLOH   H07 8724   4.417   8.392   2.355
   39GLOH    O3 8725   4.547   8.523   2.451
   39GLOH   H01 8726   4.606   8.592   2.412
   40GLOH   H03 8727   2.680   8.226   0.487
   40GLOH    O1 8728   2.673   8.325   0.504
   40GLOH    C1 8729   2.594   8.342   0.623
   40GLOH   H02 8730   2.507   8.275   0.621
   40GLOH   H08 8731   2.554   8.443   0.627
   40GLOH    C2 8732   2.671   8.316   0.755
   40GLOH   H04 8733   2.721   8.219   0.746
   40GLOH    O2 8734   2.771   8.417   0.779
   40GLOH   H05 8735   2.861   8.381   0.754
   40GLOH    C3 8736   2.571   8.307   0.872
   40GLOH   H06 8737   2.497   8.387   0.860
   40GLOH   H07 8738   2.622   8.328   0.965
   40GLOH    O3 8739   2.505   8.180   0.877
   40GLOH   H01 8740   2.482   8.159   0.971
   41GLOH   H03 8741   2.999   0.188   1.550
   41GLOH    O1 8742   2.927   0.156   1.611
   41GLOH    C1 8743   2.982   0.154   1.744
   41GLOH   H02 8744   2.990   0.256   1.782
   41GLOH   H08 8745   3.083   0.113   1.743
   41GLOH    C2 8746   2.895   0.072   1.841
   41GLOH   H04 8747   2.887   9.970   1.800
   41GLOH    O2 8748   2.950   0.063   1.974
   41GLOH   H05 8749   3.005   0.144   1.993
   41GLOH    C3 8750   2.754   0.133   1.845
   41GLOH   H06 8751   2.762   0.238   1.873
   41GLOH   H07 8752   2.695   0.084   1.923
   41GLOH    O3 8753   2.692   0.120   1.716
   41GLOH   H01 8754   2.763   0.141   1.651
   42GLOH   H03 8755   3.257   9.708   2.482
   42GLOH    O1 8756   3.308   9.765   2.419
   42GLOH    C1 8757   3.364   9.875   2.493
   42GLOH   H02 8758   3.442   9.839   2.561
   42GLOH   H08 8759   3.287   9.920   2.555
   42GLOH    C2 8760   3.425   9.984   2.404
   42GLOH   H04 8761   3.351   0.012   2.327
   42GLOH    O2 8762   3.454   0.100   2.486
   42GLOH   H05 8763   3.541   0.088   2.529
   42GLOH    C3 8764   3.553   9.935   2.332
   42GLOH   H06 8765   3.575   0.006   2.252
   42GLOH   H07 8766   3.530   9.840   2.284
   42GLOH    O3 8767   3.669   9.919   2.417
   42GLOH   H01 8768   3.699   0.008   2.451
   43GLOH   H03 8769   3.571   9.580   2.748
   43GLOH    O1 8770   3.524   9.632   2.818
   43GLOH    C1 8771   3.383   9.633   2.787
   43GLOH   H02 8772   3.359   9.721   2.729
   43GLOH   H08 8773   3.325   9.640   2.879
   43GLOH    C2 8774   3.333   9.509   2.709
   43GLOH   H04 8775   3.390   9.504   2.615
   43GLOH    O2 8776   3.356   9.387   2.782
   43GLOH   H05 8777   3.336   9.399   2.877
   43GLOH    C3 8778   3.185   9.521   2.669
   43GLOH   H06 8779   3.125   9.533   2.759
   43GLOH   H07 8780   3.154   9.427   2.622
   43GLOH    O3 8781   3.162   9.631   2.579
   43GLOH   H01 8782   3.067   9.627   2.551
   44GLOH   H03 8783   4.002   9.472   0.465
   44GLOH    O1 8784   3.959   9.419   0.538
   44GLOH    C1 8785   3.823   9.467   0.553
   44GLOH   H02 8786   3.755   9.406   0.493
   44GLOH   H08 8787   3.813   9.569   0.519
   44GLOH    C2 8788   3.776   9.458   0.700
   44GLOH   H04 8789   3.848   9.514   0.762
   44GLOH    O2 8790   3.645   9.516   0.718
   44GLOH   H05 8791   3.576   9.444   0.722
   44GLOH    C3 8792   3.775   9.312   0.746
   44GLOH   H06 8793   3.699   9.257   0.691
   44GLOH   H07 8794   3.748   9.308   0.851
   44GLOH    O3 8795   3.904   9.252   0.725
   44GLOH   H01 8796   3.947   9.307   0.654
   45GLOH   H03 8797   4.370   8.491   2.811
   45GLOH    O1 8798   4.320   8.471   0.009
   45GLOH    C1 8799   4.350   8.338   0.056
   45GLOH   H02 8800   4.449   8.337   0.102
   45GLOH   H08 8801   4.354   8.268   2.857
   45GLOH    C2 8802   4.249   8.286   0.161
   45GLOH   H04 8803   4.286   8.189   0.198
   45GLOH    O2 8804   4.240   8.377   0.272
   45GLOH   H05 8805   4.261   8.466   0.235
   45GLOH    C3 8806   4.111   8.263   0.097
   45GLOH   H06 8807   4.068   8.360   0.070
   45GLOH   H07 8808   4.045   8.219   0.172
   45GLOH    O3 8809   4.118   8.178   2.865
   45GLOH   H01 8810   4.028   8.149   2.836
   46GLOH   H03 8811   2.906   8.422   2.435
   46GLOH    O1 8812   2.962   8.491   2.477
   46GLOH    C1 8813   3.065   8.527   2.383
   46GLOH   H02 8814   3.147   8.455   2.386
   46GLOH   H08 8815   3.107   8.624   2.409
   46GLOH    C2 8816   3.011   8.534   2.239
   46GLOH   H04 8817   2.932   8.611   2.235
   46GLOH    O2 8818   3.114   8.570   2.145
   46GLOH   H05 8819   3.079   8.564   2.052
   46GLOH    C3 8820   2.948   8.399   2.201
   46GLOH   H06 8821   3.027   8.323   2.202
   46GLOH   H07 8822   2.913   8.404   2.098
   46GLOH    O3 8823   2.840   8.359   2.287
   46GLOH   H01 8824   2.808   8.272   2.251
   47GLOH   H03 8825   3.079   9.324   1.621
   47GLOH    O1 8826   3.031   9.257   1.677
   47GLOH    C1 8827   2.920   9.322   1.741
   47GLOH   H02 8828   2.862   9.250   1.800
   47GLOH   H08 8829   2.852   9.361   1.666
   47GLOH    C2 8830   2.961   9.439   1.832
   47GLOH   H04 8831   2.996   9.520   1.767
   47GLOH    O2 8832   2.846   9.484   1.906
   47GLOH   H05 8833   2.876   9.543   1.980
   47GLOH    C3 8834   3.077   9.401   1.927
   47GLOH   H06 8835   3.156   9.352   1.869
   47GLOH   H07 8836   3.041   9.329   2.000
   47GLOH    O3 8837   3.130   9.518   1.993
   47GLOH   H01 8838   3.191   9.489   2.067
   48GLOH   H03 8839   3.628   8.634   2.807
   48GLOH    O1 8840   3.645   8.730   2.823
   48GLOH    C1 8841   3.532   8.808   2.779
   48GLOH   H02 8842   3.506   8.883   2.854
   48GLOH   H08 8843   3.444   8.745   2.766
   48GLOH    C2 8844   3.562   8.880   2.646
   48GLOH   H04 8845   3.579   8.803   2.569
   48GLOH    O2 8846   3.450   8.961   2.606
   48GLOH   H05 8847   3.482   9.052   2.586
   48GLOH    C3 8848   3.691   8.963   2.660
   48GLOH   H06 8849   3.773   8.895   2.683
   48GLOH   H07 8850   3.680   9.029   2.746
   48GLOH    O3 8851   3.723   9.040   2.542
   48GLOH   H01 8852   3.800   9.098   2.563
   49GLOH   H03 8853   2.563   9.287   1.833
   49GLOH    O1 8854   2.560   9.226   1.754
   49GLOH    C1 8855   2.565   9.310   1.637
   49GLOH   H02 8856   2.643   9.386   1.647
   49GLOH   H08 8857   2.471   9.364   1.627
   49GLOH    C2 8858   2.589   9.233   1.505
   49GLOH   H04 8859   2.498   9.174   1.484
   49GLOH    O2 8860   2.612   9.325   1.397
   49GLOH   H05 8861   2.569   9.414   1.418
   49GLOH    C3 8862   2.707   9.135   1.518
   49GLOH   H06 8863   2.799   9.191   1.529
   49GLOH   H07 8864   2.716   9.078   1.426
   49GLOH    O3 8865   2.688   9.046   1.630
   49GLOH   H01 8866   2.639   9.100   1.697
   50GLOH   H03 8867   4.066   8.867   1.276
   50GLOH    O1 8868   4.152   8.916   1.264
   50GLOH    C1 8869   4.123   9.053   1.231
   50GLOH   H02 8870   4.052   9.095   1.302
   50GLOH   H08 8871   4.077   9.059   1.133
   50GLOH    C2 8872   4.250   9.142   1.230
   50GLOH   H04 8873   4.316   9.105   1.150
   50GLOH    O2 8874   4.218   9.280   1.204
   50GLOH   H05 8875   4.133   9.286   1.154
   50GLOH    C3 8876   4.325   9.127   1.364
   50GLOH   H06 8877   4.263   9.167   1.444
   50GLOH   H07 8878   4.415   9.188   1.360
   50GLOH    O3 8879   4.357   8.990   1.387
   50GLOH   H01 8880   4.286   8.939   1.340
   51GLOH   H03 8881   3.184   8.171   1.771
   51GLOH    O1 8882   3.281   8.150   1.770
   51GLOH    C1 8883   3.307   8.046   1.867
   51GLOH   H02 8884   3.226   7.973   1.867
   51GLOH   H08 8885   3.310   8.089   1.967
   51GLOH    C2 8886   3.439   7.972   1.841
   51GLOH   H04 8887   3.522   8.043   1.859
   51GLOH    O2 8888   3.453   7.860   1.930
   51GLOH   H05 8889   3.548   7.851   1.959
   51GLOH    C3 8890   3.444   7.927   1.694
   51GLOH   H06 8891   3.360   7.861   1.675
   51GLOH   H07 8892   3.534   7.869   1.676
   51GLOH    O3 8893   3.440   8.042   1.607
   51GLOH   H01 8894   3.380   8.105   1.656
   52GLOH   H03 8895   3.004   8.983   1.898
   52GLOH    O1 8896   3.032   8.973   1.993
   52GLOH    C1 8897   2.918   8.982   2.081
   52GLOH   H02 8898   2.951   9.012   2.181
   52GLOH   H08 8899   2.871   8.884   2.092
   52GLOH    C2 8900   2.811   9.083   2.034
   52GLOH   H04 8901   2.862   9.178   2.012
   52GLOH    O2 8902   2.748   9.035   1.913
   52GLOH   H05 8903   2.815   9.026   1.840
   52GLOH    C3 8904   2.709   9.108   2.146
   52GLOH   H06 8905   2.659   9.014   2.170
   52GLOH   H07 8906   2.632   9.176   2.108
   52GLOH    O3 8907   2.772   9.164   2.263
   52GLOH   H01 8908   2.708   9.177   2.336
   53GLOH   H03 8909   3.776   7.887   2.046
   53GLOH    O1 8910   3.690   7.841   2.031
   53GLOH    C1 8911   3.649   7.778   2.154
   53GLOH   H02 8912   3.721   7.702   2.183
   53GLOH   H08 8913   3.553   7.727   2.141
   53GLOH    C2 8914   3.634   7.878   2.271
   53GLOH   H04 8915   3.584   7.826   2.354
   53GLOH    O2 8916   3.764   7.925   2.315
   53GLOH   H05 8917   3.817   7.954   2.236
   53GLOH    C3 8918   3.544   7.996   2.228
   53GLOH   H06 8919   3.454   7.956   2.182
   53GLOH   H07 8920   3.596   8.052   2.150
   53GLOH    O3 8921   3.511   8.083   2.337
   53GLOH   H01 8922   3.588   8.143   2.351
   54GLOH   H03 8923   3.824   7.950   1.528
   54GLOH    O1 8924   3.773   7.886   1.583
   54GLOH    C1 8925   3.792   7.926   1.721
   54GLOH   H02 8926   3.888   7.890   1.758
   54GLOH   H08 8927   3.715   7.882   1.784
   54GLOH    C2 8928   3.788   8.079   1.736
   54GLOH   H04 8929   3.690   8.115   1.701
   54GLOH    O2 8930   3.804   8.121   1.874
   54GLOH   H05 8931   3.745   8.201   1.890
   54GLOH    C3 8932   3.897   8.139   1.646
   54GLOH   H06 8933   3.993   8.095   1.674
   54GLOH   H07 8934   3.904   8.246   1.664
   54GLOH    O3 8935   3.871   8.112   1.506
   54GLOH   H01 8936   3.943   8.154   1.452
   55GLOH   H03 8937   4.498   9.867   1.339
   55GLOH    O1 8938   4.432   9.804   1.376
   55GLOH    C1 8939   4.458   9.794   1.517
   55GLOH   H02 8940   4.535   9.719   1.536
   55GLOH   H08 8941   4.368   9.761   1.570
   55GLOH    C2 8942   4.504   9.928   1.576
   55GLOH   H04 8943   4.428   0.004   1.555
   55GLOH    O2 8944   4.521   9.917   1.719
   55GLOH   H05 8945   4.527   0.009   1.761
   55GLOH    C3 8946   4.635   9.971   1.508
   55GLOH   H06 8947   4.714   9.900   1.534
   55GLOH   H07 8948   4.666   0.068   1.548
   55GLOH    O3 8949   4.620   9.978   1.365
   55GLOH   H01 8950   4.711   9.985   1.324
   56GLOH   H03 8951   2.514   9.091   0.499
   56GLOH    O1 8952   2.520   8.992   0.510
   56GLOH    C1 8953   2.562   8.933   0.386
   56GLOH   H02 8954   2.656   8.977   0.352
   56GLOH   H08 8955   2.488   8.952   0.308
   56GLOH    C2 8956   2.581   8.781   0.399
   56GLOH   H04 8957   2.485   8.736   0.426
   56GLOH    O2 8958   2.625   8.723   0.274
   56GLOH   H05 8959   2.622   8.624   0.281
   56GLOH    C3 8960   2.682   8.750   0.511
   56GLOH   H06 8961   2.780   8.788   0.482
   56GLOH   H07 8962   2.690   8.642   0.523
   56GLOH    O3 8963   2.639   8.810   0.635
   56GLOH   H01 8964   2.577   8.882   0.606
   57GLOH   H03 8965   2.527   8.791   1.918
   57GLOH    O1 8966   2.561   8.700   1.942
   57GLOH    C1 8967   2.590   8.701   2.083
   57GLOH   H02 8968   2.499   8.718   2.141
   57GLOH   H08 8969   2.658   8.782   2.108
   57GLOH    C2 8970   2.653   8.569   2.129
   57GLOH   H04 8971   2.748   8.556   2.074
   57GLOH    O2 8972   2.681   8.570   2.270
   57GLOH   H05 8973   2.740   8.493   2.292
   57GLOH    C3 8974   2.561   8.451   2.094
   57GLOH   H06 8975   2.464   8.467   2.142
   57GLOH   H07 8976   2.603   8.359   2.135
   57GLOH    O3 8977   2.545   8.440   1.952
   57GLOH   H01 8978   2.534   8.533   1.919
   58GLOH   H03 8979   4.187   8.583   1.251
   58GLOH    O1 8980   4.165   8.563   1.345
   58GLOH    C1 8981   4.069   8.456   1.348
   58GLOH   H02 8982   4.008   8.456   1.258
   58GLOH   H08 8983   4.001   8.470   1.432
   58GLOH    C2 8984   4.135   8.317   1.363
   58GLOH   H04 8985   4.177   8.310   1.464
   58GLOH    O2 8986   4.036   8.213   1.347
   58GLOH   H05 8987   4.030   8.189   1.251
   58GLOH    C3 8988   4.251   8.300   1.263
   58GLOH   H06 8989   4.292   8.200   1.276
   58GLOH   H07 8990   4.330   8.370   1.289
   58GLOH    O3 8991   4.210   8.319   1.126
   58GLOH   H01 8992   4.148   8.245   1.102
   59GLOH   H03 8993   3.871   9.118   0.781
   59GLOH    O1 8994   3.858   9.024   0.814
   59GLOH    C1 8995   3.976   8.954   0.771
   59GLOH   H02 8996   4.066   9.006   0.806
   59GLOH   H08 8997   3.981   8.953   0.662
   59GLOH    C2 8998   3.983   8.808   0.819
   59GLOH   H04 8999   3.895   8.754   0.782
   59GLOH    O2 9000   4.103   8.746   0.766
   59GLOH   H05 9001   4.095   8.647   0.769
   59GLOH    C3 9002   3.982   8.803   0.973
   59GLOH   H06 9003   3.900   8.865   1.009
   59GLOH   H07 9004   4.074   8.849   1.010
   59GLOH    O3 9005   3.969   8.670   1.027
   59GLOH   H01 9006   4.060   8.632   1.037
   60GLOH   H03 9007   2.723   9.129   2.544
   60GLOH    O1 9008   2.667   9.203   2.509
   60GLOH    C1 9009   2.720   9.330   2.551
   60GLOH   H02 9010   2.641   9.406   2.545
   60GLOH   H08 9011   2.798   9.362   2.482
   60GLOH    C2 9012   2.777   9.332   2.694
   60GLOH   H04 9013   2.858   9.258   2.699
   60GLOH    O2 9014   2.831   9.463   2.725
   60GLOH   H05 9015   2.869   9.460   2.814
   60GLOH    C3 9016   2.669   9.292   2.798
   60GLOH   H06 9017   2.630   9.195   2.769
   60GLOH   H07 9018   2.587   9.363   2.790
   60GLOH    O3 9019   2.718   9.287   0.049
   60GLOH   H01 9020   2.732   9.378   0.088
   61GLOH   H03 9021   3.387   8.685   1.916
   61GLOH    O1 9022   3.383   8.586   1.914
   61GLOH    C1 9023   3.517   8.535   1.902
   61GLOH   H02 9024   3.585   8.592   1.966
   61GLOH   H08 9025   3.552   8.548   1.800
   61GLOH    C2 9026   3.528   8.386   1.939
   61GLOH   H04 9027   3.457   8.329   1.878
   61GLOH    O2 9028   3.662   8.335   1.914
   61GLOH   H05 9029   3.719   8.410   1.881
   61GLOH    C3 9030   3.491   8.366   2.087
   61GLOH   H06 9031   3.555   8.429   2.148
   61GLOH   H07 9032   3.511   8.263   2.116
   61GLOH    O3 9033   3.353   8.398   2.112
   61GLOH   H01 9034   3.330   8.479   2.060
   62GLOH   H03 9035   3.100   8.637   1.620
   62GLOH    O1 9036   3.103   8.669   1.712
   62GLOH    C1 9037   3.175   8.794   1.712
   62GLOH   H02 9038   3.282   8.777   1.697
   62GLOH   H08 9039   3.165   8.843   1.809
   62GLOH    C2 9040   3.126   8.890   1.603
   62GLOH   H04 9041   3.192   8.977   1.601
   62GLOH    O2 9042   3.133   8.824   1.475
   62GLOH   H05 9043   3.060   8.859   1.415
   62GLOH    C3 9044   2.983   8.939   1.635
   62GLOH   H06 9045   2.919   8.852   1.648
   62GLOH   H07 9046   2.945   8.993   1.549
   62GLOH    O3 9047   2.978   9.023   1.752
   62GLOH   H01 9048   3.004   9.114   1.721
   63GLOH   H03 9049   5.094   0.027   1.024
   63GLOH    O1 9050   5.003   0.002   1.055
   63GLOH    C1 9051   4.981   9.864   1.019
   63GLOH   H02 9052   5.063   9.802   1.056
   63GLOH   H08 9053   4.979   9.852   0.911
   63GLOH    C2 9054   4.849   9.809   1.077
   63GLOH   H04 9055   4.766   9.867   1.034
   63GLOH    O2 9056   4.832   9.670   1.041
   63GLOH   H05 9057   4.819   9.665   0.941
   63GLOH    C3 9058   4.848   9.827   1.230
   63GLOH   H06 9059   4.935   9.777   1.272
   63GLOH   H07 9060   4.760   9.779   1.271
   63GLOH    O3 9061   4.851   9.967   1.265
   63GLOH   H01 9062   4.916   0.009   1.203
   64GLOH   H03 9063   4.345   0.062   0.300
   64GLOH    O1 9064   4.313   0.150   0.267
   64GLOH    C1 9065   4.286   0.232   0.382
   64GLOH   H02 9066   4.181   0.223   0.410
   64GLOH   H08 9067   4.303   0.336   0.357
   64GLOH    C2 9068   4.374   0.196   0.504
   64GLOH   H04 9069   4.478   0.220   0.478
   64GLOH    O2 9070   4.335   0.274   0.620
   64GLOH   H05 9071   4.292   0.360   0.589
   64GLOH    C3 9072   4.365   0.046   0.536
   64GLOH   H06 9073   4.267   0.024   0.578
   64GLOH   H07 9074   4.438   0.024   0.615
   64GLOH    O3 9075   4.390   9.962   0.421
   64GLOH   H01 9076   4.379   9.867   0.448
   65GLOH   H03 9077   3.847   7.875   1.162
   65GLOH    O1 9078   3.895   7.933   1.097
   65GLOH    C1 9079   3.798   7.997   1.012
   65GLOH   H02 9080   3.721   8.045   1.074
   65GLOH   H08 9081   3.747   7.924   0.950
   65GLOH    C2 9082   3.863   8.104   0.921
   65GLOH   H04 9083   3.939   8.053   0.860
   65GLOH    O2 9084   3.765   8.166   0.835
   65GLOH   H05 9085   3.680   8.181   0.887
   65GLOH    C3 9086   3.934   8.209   1.009
   65GLOH   H06 9087   3.858   8.265   1.064
   65GLOH   H07 9088   3.986   8.280   0.944
   65GLOH    O3 9089   4.026   8.146   1.099
   65GLOH   H01 9090   3.995   8.052   1.104
   66GLOH   H03 9091   4.179   8.379   0.424
   66GLOH    O1 9092   4.131   8.403   0.507
   66GLOH    C1 9093   3.989   8.393   0.485
   66GLOH   H02 9094   3.956   8.291   0.502
   66GLOH   H08 9095   3.965   8.416   0.381
   66GLOH    C2 9096   3.908   8.487   0.576
   66GLOH   H04 9097   3.935   8.591   0.551
   66GLOH    O2 9098   3.766   8.470   0.556
   66GLOH   H05 9099   3.717   8.530   0.620
   66GLOH    C3 9100   3.946   8.462   0.723
   66GLOH   H06 9101   3.925   8.358   0.747
   66GLOH   H07 9102   3.884   8.523   0.788
   66GLOH    O3 9103   4.085   8.492   0.745
   66GLOH   H01 9104   4.132   8.453   0.666
   67GLOH   H03 9105   4.287   9.479   2.021
   67GLOH    O1 9106   4.280   9.380   2.015
   67GLOH    C1 9107   4.149   9.346   1.965
   67GLOH   H02 9108   4.074   9.412   2.010
   67GLOH   H08 9109   4.123   9.245   1.995
   67GLOH    C2 9110   4.135   9.355   1.812
   67GLOH   H04 9111   4.206   9.283   1.768
   67GLOH    O2 9112   4.001   9.319   1.772
   67GLOH   H05 9113   3.934   9.370   1.825
   67GLOH    C3 9114   4.172   9.495   1.759
   67GLOH   H06 9115   4.273   9.519   1.792
   67GLOH   H07 9116   4.105   9.568   1.807
   67GLOH    O3 9117   4.164   9.507   1.616
   67GLOH   H01 9118   4.070   9.491   1.587
   68GLOH   H03 9119   3.129   9.638   1.906
   68GLOH    O1 9120   3.132   9.720   1.849
   68GLOH    C1 9121   3.267   9.771   1.846
   68GLOH   H02 9122   3.335   9.700   1.801
   68GLOH   H08 9123   3.302   9.789   1.948
   68GLOH    C2 9124   3.275   9.905   1.769
   68GLOH   H04 9125   3.214   9.978   1.824
   68GLOH    O2 9126   3.410   9.954   1.762
   68GLOH   H05 9127   3.411   0.038   1.707
   68GLOH    C3 9128   3.216   9.888   1.627
   68GLOH   H06 9129   3.281   9.823   1.569
   68GLOH   H07 9130   3.215   9.986   1.578
   68GLOH    O3 9131   3.083   9.835   1.633
   68GLOH   H01 9132   3.080   9.784   1.718
   69GLOH   H03 9133   4.447   0.446   1.988
   69GLOH    O1 9134   4.485   0.355   1.985
   69GLOH    C1 9135   4.438   0.282   2.100
   69GLOH   H02 9136   4.331   0.295   2.113
   69GLOH   H08 9137   4.485   0.320   2.191
   69GLOH    C2 9138   4.467   0.131   2.092
   69GLOH   H04 9139   4.575   0.115   2.108
   69GLOH    O2 9140   4.394   0.059   2.195
   69GLOH   H05 9141   4.430   9.965   2.199
   69GLOH    C3 9142   4.430   0.075   1.954
   69GLOH   H06 9143   4.323   0.093   1.937
   69GLOH   H07 9144   4.444   9.967   1.955
   69GLOH    O3 9145   4.508   0.136   1.849
   69GLOH   H01 9146   4.516   0.231   1.876
   70GLOH   H03 9147   3.146   8.922   2.070
   70GLOH    O1 9148   3.228   8.892   2.118
   70GLOH    C1 9149   3.194   8.867   2.255
   70GLOH   H02 9150   3.121   8.786   2.262
   70GLOH   H08 9151   3.148   8.955   2.299
   70GLOH    C2 9152   3.318   8.830   2.338
   70GLOH   H04 9153   3.390   8.912   2.328
   70GLOH    O2 9154   3.279   8.818   2.476
   70GLOH   H05 9155   3.344   8.868   2.532
   70GLOH    C3 9156   3.384   8.701   2.285
   70GLOH   H06 9157   3.383   8.703   2.176
   70GLOH   H07 9158   3.324   8.616   2.316
   70GLOH    O3 9159   3.519   8.686   2.333
   70GLOH   H01 9160   3.563   8.776   2.331
   71GLOH   H03 9161   4.406   8.982   1.528
   71GLOH    O1 9162   4.426   8.984   1.626
   71GLOH    C1 9163   4.302   8.988   1.699
   71GLOH   H02 9164   4.231   9.053   1.649
   71GLOH   H08 9165   4.319   9.030   1.798
   71GLOH    C2 9166   4.239   8.848   1.715
   71GLOH   H04 9167   4.309   8.785   1.771
   71GLOH    O2 9168   4.116   8.862   1.790
   71GLOH   H05 9169   4.137   8.862   1.888
   71GLOH    C3 9170   4.215   8.783   1.577
   71GLOH   H06 9171   4.310   8.784   1.523
   71GLOH   H07 9172   4.146   8.846   1.521
   71GLOH    O3 9173   4.167   8.648   1.583
   71GLOH   H01 9174   4.165   8.614   1.489
   72GLOH   H03 9175   2.959   8.100   2.416
   72GLOH    O1 9176   2.885   8.057   2.367
   72GLOH    C1 9177   2.934   8.020   2.237
   72GLOH   H02 9178   2.963   7.915   2.238
   72GLOH   H08 9179   3.025   8.076   2.214
   72GLOH    C2 9180   2.834   8.040   2.121
   72GLOH   H04 9181   2.753   7.966   2.131
   72GLOH    O2 9182   2.778   8.173   2.119
   72GLOH   H05 9183   2.710   8.178   2.047
   72GLOH    C3 9184   2.911   8.011   1.991
   72GLOH   H06 9185   2.939   7.905   1.992
   72GLOH   H07 9186   3.004   8.067   1.993
   72GLOH    O3 9187   2.839   8.040   1.869
   72GLOH   H01 9188   2.758   8.094   1.888
   73GLOH   H03 9189   4.065   9.938   1.261
   73GLOH    O1 9190   4.069   0.026   1.307
   73GLOH    C1 9191   4.116   0.013   1.442
   73GLOH   H02 9192   4.212   9.962   1.444
   73GLOH   H08 9193   4.046   9.953   1.501
   73GLOH    C2 9194   4.132   0.151   1.508
   73GLOH   H04 9195   4.036   0.204   1.495
   73GLOH    O2 9196   4.158   0.143   1.650
   73GLOH   H05 9197   4.192   0.052   1.677
   73GLOH    C3 9198   4.240   0.235   1.437
   73GLOH   H06 9199   4.327   0.172   1.419
   73GLOH   H07 9200   4.272   0.315   1.504
   73GLOH    O3 9201   4.193   0.292   1.313
   73GLOH   H01 9202   4.226   0.238   1.236
   74GLOH   H03 9203   3.115   8.042   0.568
   74GLOH    O1 9204   3.038   7.989   0.536
   74GLOH    C1 9205   2.919   8.069   0.542
   74GLOH   H02 9206   2.937   8.168   0.500
   74GLOH   H08 9207   2.888   8.084   0.646
   74GLOH    C2 9208   2.804   8.003   0.465
   74GLOH   H04 9209   2.790   7.902   0.506
   74GLOH    O2 9210   2.681   8.077   0.485
   74GLOH   H05 9211   2.632   8.036   0.563
   74GLOH    C3 9212   2.840   7.988   0.316
   74GLOH   H06 9213   2.757   7.936   0.267
   74GLOH   H07 9214   2.926   7.921   0.309
   74GLOH    O3 9215   2.868   8.111   0.248
   74GLOH   H01 9216   2.783   8.158   0.232
   75GLOH   H03 9217   3.278   0.479   0.825
   75GLOH    O1 9218   3.282   0.456   0.921
   75GLOH    C1 9219   3.344   0.564   0.993
   75GLOH   H02 9220   3.284   0.589   1.080
   75GLOH   H08 9221   3.347   0.654   0.931
   75GLOH    C2 9222   3.487   0.532   1.038
   75GLOH   H04 9223   3.490   0.428   1.075
   75GLOH    O2 9224   3.581   0.546   0.929
   75GLOH   H05 9225   3.555   0.485   0.853
   75GLOH    C3 9226   3.526   0.623   1.156
   75GLOH   H06 9227   3.525   0.727   1.121
   75GLOH   H07 9228   3.628   0.601   1.186
   75GLOH    O3 9229   3.437   0.608   1.268
   75GLOH   H01 9230   3.448   0.689   1.326
   76GLOH   H03 9231   3.094   0.360   1.964
   76GLOH    O1 9232   3.097   0.270   2.005
   76GLOH    C1 9233   3.228   0.243   2.057
   76GLOH   H02 9234   3.236   0.139   2.088
   76GLOH   H08 9235   3.247   0.304   2.146
   76GLOH    C2 9236   3.340   0.271   1.955
   76GLOH   H04 9237   3.310   0.222   1.861
   76GLOH    O2 9238   3.354   0.413   1.928
   76GLOH   H05 9239   3.263   0.449   1.905
   76GLOH    C3 9240   3.473   0.206   1.998
   76GLOH   H06 9241   3.552   0.240   1.931
   76GLOH   H07 9242   3.464   0.099   1.984
   76GLOH    O3 9243   3.510   0.233   2.135
   76GLOH   H01 9244   3.504   0.331   2.152
   77GLOH   H03 9245   3.957   0.413   2.080
   77GLOH    O1 9246   3.963   0.350   2.157
   77GLOH    C1 9247   4.028   0.229   2.113
   77GLOH   H02 9248   4.119   0.252   2.057
   77GLOH   H08 9249   3.963   0.175   2.045
   77GLOH    C2 9250   4.065   0.135   2.229
   77GLOH   H04 9251   3.972   0.097   2.273
   77GLOH    O2 9252   4.142   0.024   2.179
   77GLOH   H05 9253   4.240   0.042   2.195
   77GLOH    C3 9254   4.141   0.211   2.340
   77GLOH   H06 9255   4.238   0.244   2.302
   77GLOH   H07 9256   4.162   0.142   2.422
   77GLOH    O3 9257   4.065   0.323   2.387
   77GLOH   H01 9258   4.011   0.354   2.310
   78GLOH   H03 9259   3.021   9.484   1.015
   78GLOH    O1 9260   3.049   9.557   0.954
   78GLOH    C1 9261   2.937   9.626   0.895
   78GLOH   H02 9262   2.873   9.556   0.841
   78GLOH   H08 9263   2.973   9.698   0.822
   78GLOH    C2 9264   2.851   9.701   0.998
   78GLOH   H04 9265   2.917   9.752   1.070
   78GLOH    O2 9266   2.769   9.801   0.933
   78GLOH   H05 9267   2.767   9.880   0.993
   78GLOH    C3 9268   2.760   9.604   1.075
   78GLOH   H06 9269   2.694   9.555   1.004
   78GLOH   H07 9270   2.696   9.663   1.142
   78GLOH    O3 9271   2.832   9.506   1.151
   78GLOH   H01 9272   2.779   9.422   1.148
   79GLOH   H03 9273   4.714   9.127   1.833
   79GLOH    O1 9274   4.730   9.184   1.913
   79GLOH    C1 9275   4.710   9.319   1.867
   79GLOH   H02 9276   4.800   9.356   1.818
   79GLOH   H08 9277   4.690   9.386   1.951
   79GLOH    C2 9278   4.593   9.330   1.767
   79GLOH   H04 9279   4.501   9.299   1.818
   79GLOH    O2 9280   4.578   9.465   1.719
   79GLOH   H05 9281   4.515   9.465   1.640
   79GLOH    C3 9282   4.618   9.232   1.650
   79GLOH   H06 9283   4.706   9.266   1.595
   79GLOH   H07 9284   4.533   9.237   1.582
   79GLOH    O3 9285   4.637   9.097   1.696
   79GLOH   H01 9286   4.557   9.044   1.670
   80GLOH   H03 9287   3.243   8.183   0.172
   80GLOH    O1 9288   3.298   8.201   0.251
   80GLOH    C1 9289   3.232   8.147   0.367
   80GLOH   H02 9290   3.202   8.044   0.348
   80GLOH   H08 9291   3.141   8.202   0.388
   80GLOH    C2 9292   3.319   8.149   0.495
   80GLOH   H04 9293   3.363   8.249   0.505
   80GLOH    O2 9294   3.239   8.120   0.612
   80GLOH   H05 9295   3.274   8.180   0.687
   80GLOH    C3 9296   3.434   8.046   0.485
   80GLOH   H06 9297   3.393   7.952   0.449
   80GLOH   H07 9298   3.472   8.028   0.586
   80GLOH    O3 9299   3.541   8.090   0.401
   80GLOH   H01 9300   3.607   8.137   0.458
   81GLOH   H03 9301   2.968   9.152   0.171
   81GLOH    O1 9302   3.041   9.208   0.208
   81GLOH    C1 9303   3.095   9.146   0.326
   81GLOH   H02 9304   3.015   9.114   0.393
   81GLOH   H08 9305   3.154   9.219   0.382
   81GLOH    C2 9306   3.185   9.025   0.295
   81GLOH   H04 9307   3.274   9.063   0.243
   81GLOH    O2 9308   3.228   8.961   0.418
   81GLOH   H05 9309   3.246   8.863   0.401
   81GLOH    C3 9310   3.114   8.926   0.199
   81GLOH   H06 9311   3.178   8.839   0.186
   81GLOH   H07 9312   3.108   8.974   0.101
   81GLOH    O3 9313   2.983   8.886   0.243
   81GLOH   H01 9314   2.918   8.950   0.203
   82GLOH   H03 9315   3.104   8.325   1.513
   82GLOH    O1 9316   3.097   8.399   1.579
   82GLOH    C1 9317   2.971   8.385   1.648
   82GLOH   H02 9318   2.902   8.324   1.590
   82GLOH   H08 9319   2.924   8.483   1.658
   82GLOH    C2 9320   2.984   8.322   1.788
   82GLOH   H04 9321   2.884   8.322   1.834
   82GLOH    O2 9322   3.032   8.186   1.781
   82GLOH   H05 9323   2.956   8.124   1.798
   82GLOH    C3 9324   3.076   8.407   1.879
   82GLOH   H06 9325   3.174   8.414   1.831
   82GLOH   H07 9326   3.092   8.352   1.972
   82GLOH    O3 9327   3.023   8.538   1.905
   82GLOH   H01 9328   3.056   8.597   1.831
   83GLOH   H03 9329   3.950   0.110   1.278
   83GLOH    O1 9330   3.861   0.150   1.256
   83GLOH    C1 9331   3.763   0.098   1.348
   83GLOH   H02 9332   3.668   0.150   1.336
   83GLOH   H08 9333   3.796   0.113   1.451
   83GLOH    C2 9334   3.739   9.947   1.327
   83GLOH   H04 9335   3.834   9.896   1.346
   83GLOH    O2 9336   3.639   9.900   1.420
   83GLOH   H05 9337   3.563   9.861   1.370
   83GLOH    C3 9338   3.694   9.919   1.182
   83GLOH   H06 9339   3.595   9.961   1.170
   83GLOH   H07 9340   3.685   9.811   1.171
   83GLOH    O3 9341   3.782   9.971   1.082
   83GLOH   H01 9342   3.824   0.052   1.120
   84GLOH   H03 9343   4.013   9.968   0.748
   84GLOH    O1 9344   4.048   0.057   0.721
   84GLOH    C1 9345   3.990   0.092   0.594
   84GLOH   H02 9346   3.909   0.025   0.567
   84GLOH   H08 9347   4.065   0.082   0.515
   84GLOH    C2 9348   3.935   0.236   0.591
   84GLOH   H04 9349   4.012   0.305   0.630
   84GLOH    O2 9350   3.901   0.274   0.455
   84GLOH   H05 9351   3.947   0.359   0.432
   84GLOH    C3 9352   3.809   0.248   0.679
   84GLOH   H06 9353   3.735   0.178   0.641
   84GLOH   H07 9354   3.767   0.348   0.665
   84GLOH    O3 9355   3.832   0.224   0.818
   84GLOH   H01 9356   3.886   0.298   0.855
   85GLOH   H03 9357   4.324   9.720   1.310
   85GLOH    O1 9358   4.264   9.673   1.245
   85GLOH    C1 9359   4.159   9.603   1.312
   85GLOH   H02 9360   4.121   9.660   1.397
   85GLOH   H08 9361   4.195   9.507   1.351
   85GLOH    C2 9362   4.043   9.575   1.215
   85GLOH   H04 9363   4.084   9.544   1.118
   85GLOH    O2 9364   3.957   9.471   1.267
   85GLOH   H05 9365   3.956   9.398   1.199
   85GLOH    C3 9366   3.957   9.701   1.195
   85GLOH   H06 9367   3.892   9.712   1.282
   85GLOH   H07 9368   3.892   9.684   1.109
   85GLOH    O3 9369   4.035   9.820   1.174
   85GLOH   H01 9370   4.090   9.806   1.093
   86GLOH   H03 9371   3.042   8.774   2.620
   86GLOH    O1 9372   2.964   8.825   2.649
   86GLOH    C1 9373   2.854   8.734   2.673
   86GLOH   H02 9374   2.881   8.660   2.748
   86GLOH   H08 9375   2.830   8.680   2.582
   86GLOH    C2 9376   2.725   8.805   2.720
   86GLOH   H04 9377   2.644   8.731   2.717
   86GLOH    O2 9378   2.734   8.856   2.855
   86GLOH   H05 9379   2.704   8.789   0.036
   86GLOH    C3 9380   2.688   8.917   2.620
   86GLOH   H06 9381   2.599   8.968   2.656
   86GLOH   H07 9382   2.661   8.870   2.525
   86GLOH    O3 9383   2.796   9.010   2.601
   86GLOH   H01 9384   2.877   8.957   2.620
   87GLOH   H03 9385   3.287   9.497   0.417
   87GLOH    O1 9386   3.281   9.554   0.336
   87GLOH    C1 9387   3.146   9.598   0.315
   87GLOH   H02 9388   3.087   9.518   0.271
   87GLOH   H08 9389   3.145   9.680   0.243
   87GLOH    C2 9390   3.076   9.646   0.444
   87GLOH   H04 9391   3.151   9.687   0.513
   87GLOH    O2 9392   2.977   9.746   0.416
   87GLOH   H05 9393   2.890   9.700   0.413
   87GLOH    C3 9394   3.007   9.527   0.512
   87GLOH   H06 9395   2.976   9.557   0.612
   87GLOH   H07 9396   3.079   9.446   0.524
   87GLOH    O3 9397   2.893   9.478   0.437
   87GLOH   H01 9398   2.853   9.410   0.497
   88GLOH   H03 9399   4.337   9.276   2.113
   88GLOH    O1 9400   4.369   9.219   2.187
   88GLOH    C1 9401   4.506   9.183   2.166
   88GLOH   H02 9402   4.562   9.190   2.259
   88GLOH   H08 9403   4.554   9.252   2.096
   88GLOH    C2 9404   4.522   9.040   2.110
   88GLOH   H04 9405   4.469   9.034   2.014
   88GLOH    O2 9406   4.661   9.010   2.091
   88GLOH   H05 9407   4.699   9.077   2.027
   88GLOH    C3 9408   4.460   8.936   2.206
   88GLOH   H06 9409   4.514   8.940   2.301
   88GLOH   H07 9410   4.476   8.837   2.164
   88GLOH    O3 9411   4.319   8.957   2.229
   88GLOH   H01 9412   4.302   9.055   2.233
   89GLOH   H03 9413   3.880   8.055   2.680
   89GLOH    O1 9414   3.895   8.107   2.763
   89GLOH    C1 9415   3.766   8.153   2.806
   89GLOH   H02 9416   3.741   8.247   2.757
   89GLOH   H08 9417   3.767   8.173   0.029
   89GLOH    C2 9418   3.655   8.050   2.776
   89GLOH   H04 9419   3.684   7.955   2.823
   89GLOH    O2 9420   3.528   8.093   2.830
   89GLOH   H05 9421   3.531   8.081   0.044
   89GLOH    C3 9422   3.647   8.026   2.623
   89GLOH   H06 9423   3.610   8.117   2.576
   89GLOH   H07 9424   3.573   7.948   2.604
   89GLOH    O3 9425   3.774   7.989   2.567
   89GLOH   H01 9426   3.763   7.965   2.472
   90GLOH   H03 9427   3.494   9.875   0.521
   90GLOH    O1 9428   3.549   9.941   0.570
   90GLOH    C1 9429   3.645   9.875   0.654
   90GLOH   H02 9430   3.742   9.925   0.645
   90GLOH   H08 9431   3.661   9.773   0.620
   90GLOH    C2 9432   3.609   9.871   0.804
   90GLOH   H04 9433   3.526   9.799   0.816
   90GLOH    O2 9434   3.721   9.825   0.884
   90GLOH   H05 9435   3.743   9.892   0.956
   90GLOH    C3 9436   3.558   0.007   0.855
   90GLOH   H06 9437   3.625   0.085   0.817
   90GLOH   H07 9438   3.564   0.010   0.963
   90GLOH    O3 9439   3.423   0.035   0.814
   90GLOH   H01 9440   3.391   0.110   0.870
   91GLOH   H03 9441   3.094   9.834   1.352
   91GLOH    O1 9442   3.182   9.831   1.307
   91GLOH    C1 9443   3.161   9.772   1.178
   91GLOH   H02 9444   3.127   9.847   1.107
   91GLOH   H08 9445   3.082   9.697   1.185
   91GLOH    C2 9446   3.285   9.701   1.121
   91GLOH   H04 9447   3.295   9.604   1.171
   91GLOH    O2 9448   3.265   9.678   0.980
   91GLOH   H05 9449   3.182   9.623   0.969
   91GLOH    C3 9450   3.414   9.781   1.145
   91GLOH   H06 9451   3.397   9.883   1.111
   91GLOH   H07 9452   3.492   9.740   1.081
   91GLOH    O3 9453   3.458   9.780   1.283
   91GLOH   H01 9454   3.437   9.693   1.323
   92GLOH   H03 9455   3.405   8.170   2.775
   92GLOH    O1 9456   3.326   8.222   2.746
   92GLOH    C1 9457   3.266   8.155   2.633
   92GLOH   H02 9458   3.251   8.049   2.657
   92GLOH   H08 9459   3.334   8.158   2.548
   92GLOH    C2 9460   3.130   8.215   2.592
   92GLOH   H04 9461   3.138   8.325   2.594
   92GLOH    O2 9462   3.099   8.172   2.457
   92GLOH   H05 9463   3.168   8.207   2.397
   92GLOH    C3 9464   3.016   8.172   2.686
   92GLOH   H06 9465   3.010   8.063   2.684
   92GLOH   H07 9466   2.922   8.208   2.643
   92GLOH    O3 9467   3.027   8.219   2.822
   92GLOH   H01 9468   2.979   8.157   2.881
   93GLOH   H03 9469   3.185   0.411   1.038
   93GLOH    O1 9470   3.144   0.368   1.117
   93GLOH    C1 9471   3.129   0.227   1.089
   93GLOH   H02 9472   3.072   0.213   0.996
   93GLOH   H08 9473   3.071   0.180   1.168
   93GLOH    C2 9474   3.262   0.152   1.076
   93GLOH   H04 9475   3.239   0.049   1.046
   93GLOH    O2 9476   3.347   0.210   0.974
   93GLOH   H05 9477   3.326   0.306   0.960
   93GLOH    C3 9478   3.335   0.145   1.211
   93GLOH   H06 9479   3.357   0.247   1.244
   93GLOH   H07 9480   3.431   0.095   1.197
   93GLOH    O3 9481   3.258   0.077   1.312
   93GLOH   H01 9482   3.252   9.979   1.297
   94GLOH   H03 9483   3.896   0.666   2.470
   94GLOH    O1 9484   3.809   0.689   2.433
   94GLOH    C1 9485   3.729   0.759   2.531
   94GLOH   H02 9486   3.765   0.861   2.544
   94GLOH   H08 9487   3.736   0.710   2.628
   94GLOH    C2 9488   3.581   0.763   2.488
   94GLOH   H04 9489   3.544   0.660   2.482
   94GLOH    O2 9490   3.502   0.836   2.585
   94GLOH   H05 9491   3.510   0.794   2.673
   94GLOH    C3 9492   3.569   0.828   2.350
   94GLOH   H06 9493   3.631   0.772   2.280
   94GLOH   H07 9494   3.610   0.929   2.355
   94GLOH    O3 9495   3.433   0.832   2.304
   94GLOH   H01 9496   3.380   0.856   2.382
   95GLOH   H03 9497   3.863   9.525   1.978
   95GLOH    O1 9498   3.840   9.451   1.915
   95GLOH    C1 9499   3.744   9.360   1.973
   95GLOH   H02 9500   3.776   9.331   2.073
   95GLOH   H08 9501   3.740   9.269   1.914
   95GLOH    C2 9502   3.602   9.418   1.983
   95GLOH   H04 9503   3.570   9.450   1.882
   95GLOH    O2 9504   3.512   9.317   2.032
   95GLOH   H05 9505   3.465   9.274   1.954
   95GLOH    C3 9506   3.602   9.542   2.075
   95GLOH   H06 9507   3.685   9.605   2.047
   95GLOH   H07 9508   3.621   9.509   2.177
   95GLOH    O3 9509   3.480   9.619   2.069
   95GLOH   H01 9510   3.503   9.706   2.027
   96GLOH   H03 9511   3.525   0.339   0.660
   96GLOH    O1 9512   3.533   0.422   0.713
   96GLOH    C1 9513   3.497   0.537   0.633
   96GLOH   H02 9514   3.569   0.549   0.552
   96GLOH   H08 9515   3.502   0.628   0.693
   96GLOH    C2 9516   3.357   0.527   0.571
   96GLOH   H04 9517   3.358   0.447   0.495
   96GLOH    O2 9518   3.257   0.495   0.671
   96GLOH   H05 9519   3.235   0.398   0.662
   96GLOH    C3 9520   3.320   0.659   0.501
   96GLOH   H06 9521   3.316   0.738   0.577
   96GLOH   H07 9522   3.219   0.650   0.461
   96GLOH    O3 9523   3.413   0.694   0.397
   96GLOH   H01 9524   3.394   0.642   0.315
   97GLOH   H03 9525   2.598   9.791   1.656
   97GLOH    O1 9526   2.634   9.754   1.571
   97GLOH    C1 9527   2.751   9.831   1.541
   97GLOH   H02 9528   2.812   9.843   1.631
   97GLOH   H08 9529   2.723   9.932   1.510
   97GLOH    C2 9530   2.839   9.770   1.431
   97GLOH   H04 9531   2.783   9.771   1.336
   97GLOH    O2 9532   2.957   9.852   1.418
   97GLOH   H05 9533   3.004   9.851   1.507
   97GLOH    C3 9534   2.874   9.624   1.467
   97GLOH   H06 9535   2.781   9.568   1.478
   97GLOH   H07 9536   2.921   9.623   1.565
   97GLOH    O3 9537   2.958   9.557   1.371
   97GLOH   H01 9538   2.909   9.544   1.285
   98GLOH   H03 9539   4.323   0.668   2.002
   98GLOH    O1 9540   4.346   0.572   1.998
   98GLOH    C1 9541   4.222   0.499   2.004
   98GLOH   H02 9542   4.196   0.476   2.107
   98GLOH   H08 9543   4.233   0.404   1.952
   98GLOH    C2 9544   4.104   0.573   1.939
   98GLOH   H04 9545   4.128   0.588   1.833
   98GLOH    O2 9546   3.984   0.494   1.948
   98GLOH   H05 9547   3.983   0.430   1.870
   98GLOH    C3 9548   4.086   0.711   2.004
   98GLOH   H06 9549   4.059   0.697   2.109
   98GLOH   H07 9550   4.002   0.761   1.956
   98GLOH    O3 9551   4.205   0.792   1.993
   98GLOH   H01 9552   4.176   0.886   1.983
   99GLOH   H03 9553   4.047   9.101   2.219
   99GLOH    O1 9554   4.115   9.130   2.285
   99GLOH    C1 9555   4.085   9.265   2.326
   99GLOH   H02 9556   3.979   9.287   2.311
   99GLOH   H08 9557   4.140   9.337   2.265
   99GLOH    C2 9558   4.119   9.288   2.474
   99GLOH   H04 9559   4.092   9.392   2.500
   99GLOH    O2 9560   4.043   9.196   2.555
   99GLOH   H05 9561   4.067   9.106   2.525
   99GLOH    C3 9562   4.270   9.270   2.499
   99GLOH   H06 9563   4.294   9.164   2.490
   99GLOH   H07 9564   4.292   9.299   2.601
   99GLOH    O3 9565   4.352   9.346   2.408
   99GLOH   H01 9566   4.358   9.297   2.322
  100GLOH   H03 9567   2.951   8.503   1.263
  100GLOH    O1 9568   2.851   8.502   1.264
  100GLOH    C1 9569   2.799   8.591   1.163
  100GLOH   H02 9570   2.693   8.609   1.181
  100GLOH   H08 9571   2.807   8.545   1.065
  100GLOH    C2 9572   2.870   8.727   1.159
  100GLOH   H04 9573   2.976   8.710   1.137
  100GLOH    O2 9574   2.813   8.810   1.055
  100GLOH   H05 9575   2.796   8.755   0.973
  100GLOH    C3 9576   2.859   8.796   1.297
  100GLOH   H06 9577   2.866   8.721   1.375
  100GLOH   H07 9578   2.760   8.841   1.306
  100GLOH    O3 9579   2.961   8.896   1.316
  100GLOH   H01 9580   2.950   8.969   1.250
  101GLOH   H03 9581   4.258   8.873   2.357
  101GLOH    O1 9582   4.221   8.811   2.424
  101GLOH    C1 9583   4.330   8.750   2.497
  101GLOH   H02 9584   4.388   8.827   2.548
  101GLOH   H08 9585   4.397   8.702   2.427
  101GLOH    C2 9586   4.284   8.647   2.603
  101GLOH   H04 9587   4.217   8.574   2.554
  101GLOH    O2 9588   4.398   8.577   2.659
  101GLOH   H05 9589   4.456   8.546   2.583
  101GLOH    C3 9590   4.204   8.720   2.713
  101GLOH   H06 9591   4.127   8.780   2.664
  101GLOH   H07 9592   4.271   8.791   2.762
  101GLOH    O3 9593   4.142   8.636   2.812
  101GLOH   H01 9594   4.208   8.570   2.844
  102GLOH   H03 9595   2.629   8.269   1.312
  102GLOH    O1 9596   2.533   8.278   1.337
  102GLOH    C1 9597   2.498   8.418   1.331
  102GLOH   H02 9598   2.389   8.429   1.334
  102GLOH   H08 9599   2.531   8.462   1.237
  102GLOH    C2 9600   2.558   8.500   1.447
  102GLOH   H04 9601   2.668   8.490   1.445
  102GLOH    O2 9602   2.523   8.639   1.431
  102GLOH   H05 9603   2.584   8.695   1.490
  102GLOH    C3 9604   2.508   8.446   1.582
  102GLOH   H06 9605   2.400   8.465   1.590
  102GLOH   H07 9606   2.556   8.502   1.662
  102GLOH    O3 9607   2.535   8.306   1.596
  102GLOH   H01 9608   2.526   8.267   1.506
  103GLOH   H03 9609   4.170   8.341   1.753
  103GLOH    O1 9610   4.180   8.243   1.744
  103GLOH    C1 9611   4.158   8.183   1.873
  103GLOH   H02 9612   4.155   8.075   1.864
  103GLOH   H08 9613   4.061   8.215   1.913
  103GLOH    C2 9614   4.268   8.219   1.976
  103GLOH   H04 9615   4.364   8.186   1.934
  103GLOH    O2 9616   4.276   8.361   2.001
  103GLOH   H05 9617   4.242   8.409   1.921
  103GLOH    C3 9618   4.244   8.139   2.106
  103GLOH   H06 9619   4.314   8.176   2.182
  103GLOH   H07 9620   4.272   8.035   2.087
  103GLOH    O3 9621   4.109   8.145   2.154
  103GLOH   H01 9622   4.095   8.233   2.200
  104GLOH   H03 9623   3.297   9.142   0.876
  104GLOH    O1 9624   3.242   9.216   0.913
  104GLOH    C1 9625   3.227   9.309   0.804
  104GLOH   H02 9626   3.134   9.365   0.815
  104GLOH   H08 9627   3.219   9.255   0.709
  104GLOH    C2 9628   3.343   9.409   0.794
  104GLOH   H04 9629   3.342   9.470   0.885
  104GLOH    O2 9630   3.471   9.344   0.784
  104GLOH   H05 9631   3.495   9.309   0.875
  104GLOH    C3 9632   3.321   9.502   0.673
  104GLOH   H06 9633   3.401   9.577   0.671
  104GLOH   H07 9634   3.228   9.557   0.689
  104GLOH    O3 9635   3.316   9.429   0.549
  104GLOH   H01 9636   3.394   9.367   0.546
  105GLOH   H03 9637   2.799   8.416   0.503
  105GLOH    O1 9638   2.879   8.472   0.489
  105GLOH    C1 9639   2.940   8.436   0.363
  105GLOH   H02 9640   2.883   8.358   0.314
  105GLOH   H08 9641   3.040   8.395   0.381
  105GLOH    C2 9642   2.954   8.555   0.267
  105GLOH   H04 9643   2.854   8.599   0.252
  105GLOH    O2 9644   3.042   8.655   0.322
  105GLOH   H05 9645   3.011   8.746   0.290
  105GLOH    C3 9646   3.005   8.507   0.130
  105GLOH   H06 9647   3.101   8.457   0.144
  105GLOH   H07 9648   3.024   8.595   0.067
  105GLOH    O3 9649   2.913   8.419   0.065
  105GLOH   H01 9650   2.963   8.359   0.003
  106GLOH   H03 9651   3.662   8.763   0.983
  106GLOH    O1 9652   3.631   8.857   0.975
  106GLOH    C1 9653   3.627   8.915   1.106
  106GLOH   H02 9654   3.703   8.872   1.171
  106GLOH   H08 9655   3.530   8.895   1.153
  106GLOH    C2 9656   3.649   9.067   1.102
  106GLOH   H04 9657   3.633   9.106   1.204
  106GLOH    O2 9658   3.783   9.100   1.057
  106GLOH   H05 9659   3.796   9.054   0.970
  106GLOH    C3 9660   3.542   9.132   1.011
  106GLOH   H06 9661   3.444   9.096   1.043
  106GLOH   H07 9662   3.558   9.095   0.910
  106GLOH    O3 9663   3.546   9.276   1.011
  106GLOH   H01 9664   3.571   9.310   1.100
  107GLOH   H03 9665   4.070   8.329   2.667
  107GLOH    O1 9666   4.040   8.373   2.585
  107GLOH    C1 9667   3.968   8.280   2.502
  107GLOH   H02 9668   3.876   8.250   2.551
  107GLOH   H08 9669   4.027   8.190   2.486
  107GLOH    C2 9670   3.933   8.339   2.363
  107GLOH   H04 9671   3.885   8.437   2.380
  107GLOH    O2 9672   4.050   8.359   2.281
  107GLOH   H05 9673   4.086   8.450   2.304
  107GLOH    C3 9674   3.831   8.248   2.293
  107GLOH   H06 9675   3.874   8.148   2.289
  107GLOH   H07 9676   3.819   8.282   2.190
  107GLOH    O3 9677   3.704   8.244   2.360
  107GLOH   H01 9678   3.673   8.337   2.375
  108GLOH   H03 9679   4.145   8.688   2.363
  108GLOH    O1 9680   4.111   8.610   2.311
  108GLOH    C1 9681   4.018   8.655   2.210
  108GLOH   H02 9682   3.998   8.762   2.220
  108GLOH   H08 9683   3.923   8.603   2.220
  108GLOH    C2 9684   4.074   8.628   2.069
  108GLOH   H04 9685   4.102   8.522   2.066
  108GLOH    O2 9686   3.976   8.652   1.965
  108GLOH   H05 9687   3.935   8.742   1.978
  108GLOH    C3 9688   4.202   8.712   2.046
  108GLOH   H06 9689   4.250   8.678   1.955
  108GLOH   H07 9690   4.271   8.690   2.128
  108GLOH    O3 9691   4.177   8.854   2.041
  108GLOH   H01 9692   4.229   8.897   2.113
  109GLOH   H03 9693   4.090   9.803   0.884
  109GLOH    O1 9694   4.159   9.807   0.956
  109GLOH    C1 9695   4.218   9.939   0.956
  109GLOH   H02 9696   4.140   0.013   0.974
  109GLOH   H08 9697   4.262   9.962   0.859
  109GLOH    C2 9698   4.327   9.955   1.064
  109GLOH   H04 9699   4.283   9.929   1.162
  109GLOH    O2 9700   4.438   9.867   1.037
  109GLOH   H05 9701   4.402   9.774   1.032
  109GLOH    C3 9702   4.376   0.100   1.071
  109GLOH   H06 9703   4.431   0.123   0.980
  109GLOH   H07 9704   4.448   0.108   1.154
  109GLOH    O3 9705   4.268   0.193   1.090
  109GLOH   H01 9706   4.236   0.218   1.000
  110GLOH   H03 9707   3.564   0.623   1.750
  110GLOH    O1 9708   3.622   0.700   1.778
  110GLOH    C1 9709   3.673   0.675   1.910
  110GLOH   H02 9710   3.767   0.620   1.904
  110GLOH   H08 9711   3.605   0.611   1.967
  110GLOH    C2 9712   3.697   0.804   1.990
  110GLOH   H04 9713   3.733   0.775   2.090
  110GLOH    O2 9714   3.797   0.888   1.928
  110GLOH   H05 9715   3.800   0.870   1.830
  110GLOH    C3 9716   3.566   0.883   2.007
  110GLOH   H06 9717   3.541   0.928   1.910
  110GLOH   H07 9718   3.586   0.967   2.075
  110GLOH    O3 9719   3.456   0.804   2.057
  110GLOH   H01 9720   3.448   0.817   2.155
  111GLOH   H03 9721   3.551   9.804   0.014
  111GLOH    O1 9722   3.535   9.897   0.043
  111GLOH    C1 9723   3.594   9.920   0.172
  111GLOH   H02 9724   3.587   9.831   0.234
  111GLOH   H08 9725   3.540   9.997   0.226
  111GLOH    C2 9726   3.741   9.967   0.166
  111GLOH   H04 9727   3.793   9.908   0.087
  111GLOH    O2 9728   3.749   0.107   0.132
  111GLOH   H05 9729   3.711   0.159   0.209
  111GLOH    C3 9730   3.813   9.939   0.300
  111GLOH   H06 9731   3.765   9.998   0.377
  111GLOH   H07 9732   3.915   9.976   0.292
  111GLOH    O3 9733   3.814   9.800   0.339
  111GLOH   H01 9734   3.773   9.742   0.269
  112GLOH   H03 9735   3.411   8.313   0.275
  112GLOH    O1 9736   3.456   8.401   0.278
  112GLOH    C1 9737   3.354   8.503   0.283
  112GLOH   H02 9738   3.255   8.458   0.297
  112GLOH   H08 9739   3.351   8.557   0.189
  112GLOH    C2 9740   3.376   8.604   0.397
  112GLOH   H04 9741   3.478   8.645   0.385
  112GLOH    O2 9742   3.281   8.712   0.389
  112GLOH   H05 9743   3.190   8.674   0.378
  112GLOH    C3 9744   3.370   8.533   0.534
  112GLOH   H06 9745   3.391   8.606   0.611
  112GLOH   H07 9746   3.450   8.459   0.538
  112GLOH    O3 9747   3.243   8.470   0.559
  112GLOH   H01 9748   3.179   8.542   0.582
  113GLOH   H03 9749   2.932   8.902   0.766
  113GLOH    O1 9750   3.021   8.859   0.771
  113GLOH    C1 9751   3.120   8.962   0.753
  113GLOH   H02 9752   3.093   9.051   0.811
  113GLOH   H08 9753   3.124   8.993   0.649
  113GLOH    C2 9754   3.262   8.918   0.797
  113GLOH   H04 9755   3.293   8.834   0.733
  113GLOH    O2 9756   3.355   9.028   0.782
  113GLOH   H05 9757   3.400   9.022   0.693
  113GLOH    C3 9758   3.260   8.872   0.943
  113GLOH   H06 9759   3.230   8.956   1.006
  113GLOH   H07 9760   3.361   8.845   0.973
  113GLOH    O3 9761   3.170   8.761   0.963
  113GLOH   H01 9762   3.095   8.778   0.901
  114GLOH   H03 9763   3.116   9.142   2.389
  114GLOH    O1 9764   3.168   9.224   2.395
  114GLOH    C1 9765   3.290   9.213   2.319
  114GLOH   H02 9766   3.269   9.214   2.212
  114GLOH   H08 9767   3.341   9.119   2.341
  114GLOH    C2 9768   3.386   9.329   2.352
  114GLOH   H04 9769   3.400   9.331   2.461
  114GLOH    O2 9770   3.515   9.309   2.290
  114GLOH   H05 9771   3.505   9.311   2.191
  114GLOH    C3 9772   3.324   9.463   2.310
  114GLOH   H06 9773   3.391   9.542   2.343
  114GLOH   H07 9774   3.230   9.476   2.364
  114GLOH    O3 9775   3.300   9.474   2.168
  114GLOH   H01 9776   3.377   9.522   2.128
  115GLOH   H03 9777   3.931   9.479   1.417
  115GLOH    O1 9778   3.929   9.490   1.516
  115GLOH    C1 9779   3.792   9.490   1.563
  115GLOH   H02 9780   3.787   9.453   1.665
  115GLOH   H08 9781   3.731   9.422   1.503
  115GLOH    C2 9782   3.729   9.630   1.557
  115GLOH   H04 9783   3.723   9.659   1.451
  115GLOH    O2 9784   3.595   9.630   1.613
  115GLOH   H05 9785   3.589   9.709   1.671
  115GLOH    C3 9786   3.818   9.732   1.629
  115GLOH   H06 9787   3.912   9.742   1.574
  115GLOH   H07 9788   3.844   9.691   1.727
  115GLOH    O3 9789   3.755   9.861   1.643
  115GLOH   H01 9790   3.709   9.883   1.558
  116GLOH   H03 9791   3.056   9.488   1.466
  116GLOH    O1 9792   3.118   9.451   1.534
  116GLOH    C1 9793   3.239   9.530   1.531
  116GLOH   H02 9794   3.272   9.552   1.633
  116GLOH   H08 9795   3.220   9.626   1.482
  116GLOH    C2 9796   3.355   9.459   1.457
  116GLOH   H04 9797   3.314   9.410   1.367
  116GLOH    O2 9798   3.456   9.554   1.416
  116GLOH   H05 9799   3.508   9.583   1.497
  116GLOH    C3 9800   3.419   9.351   1.547
  116GLOH   H06 9801   3.466   9.400   1.632
  116GLOH   H07 9802   3.499   9.303   1.490
  116GLOH    O3 9803   3.326   9.252   1.593
  116GLOH   H01 9804   3.284   9.211   1.513
  117GLOH   H03 9805   3.366   9.225   1.740
  117GLOH    O1 9806   3.396   9.205   1.833
  117GLOH    C1 9807   3.343   9.076   1.871
  117GLOH   H02 9808   3.279   9.036   1.792
  117GLOH   H08 9809   3.280   9.087   1.959
  117GLOH    C2 9810   3.452   8.972   1.902
  117GLOH   H04 9811   3.509   9.008   1.989
  117GLOH    O2 9812   3.391   8.845   1.936
  117GLOH   H05 9813   3.330   8.860   2.014
  117GLOH    C3 9814   3.550   8.958   1.784
  117GLOH   H06 9815   3.584   9.057   1.754
  117GLOH   H07 9816   3.496   8.916   1.699
  117GLOH    O3 9817   3.664   8.875   1.815
  117GLOH   H01 9818   3.689   8.825   1.733
  118GLOH   H03 9819   4.081   9.501   0.253
  118GLOH    O1 9820   4.075   9.539   0.345
  118GLOH    C1 9821   4.111   9.678   0.332
  118GLOH   H02 9822   4.043   9.728   0.263
  118GLOH   H08 9823   4.210   9.687   0.288
  118GLOH    C2 9824   4.111   9.755   0.465
  118GLOH   H04 9825   4.136   9.860   0.442
  118GLOH    O2 9826   3.981   9.753   0.528
  118GLOH   H05 9827   3.912   9.767   0.456
  118GLOH    C3 9828   4.222   9.700   0.556
  118GLOH   H06 9829   4.207   9.593   0.570
  118GLOH   H07 9830   4.214   9.747   0.655
  118GLOH    O3 9831   4.352   9.726   0.499
  118GLOH   H01 9832   4.422   9.668   0.539
  119GLOH   H03 9833   3.782   0.190   2.880
  119GLOH    O1 9834   3.800   0.244   2.798
  119GLOH    C1 9835   3.699   0.344   2.779
  119GLOH   H02 9836   3.745   0.440   2.754
  119GLOH   H08 9837   3.641   0.360   2.870
  119GLOH    C2 9838   3.603   0.307   2.665
  119GLOH   H04 9839   3.551   0.215   2.696
  119GLOH    O2 9840   3.504   0.409   2.642
  119GLOH   H05 9841   3.442   0.377   2.573
  119GLOH    C3 9842   3.681   0.275   2.535
  119GLOH   H06 9843   3.758   0.352   2.522
  119GLOH   H07 9844   3.615   0.282   2.449
  119GLOH    O3 9845   3.742   0.145   2.544
  119GLOH   H01 9846   3.803   0.151   2.620
  120GLOH   H03 9847   4.767   9.545   0.772
  120GLOH    O1 9848   4.793   9.637   0.797
  120GLOH    C1 9849   4.766   9.725   0.686
  120GLOH   H02 9850   4.821   9.692   0.598
  120GLOH   H08 9851   4.802   9.826   0.709
  120GLOH    C2 9852   4.617   9.736   0.648
  120GLOH   H04 9853   4.608   9.812   0.569
  120GLOH    O2 9854   4.562   9.611   0.599
  120GLOH   H05 9855   4.587   9.537   0.659
  120GLOH    C3 9856   4.532   9.784   0.768
  120GLOH   H06 9857   4.530   9.704   0.841
  120GLOH   H07 9858   4.430   9.798   0.734
  120GLOH    O3 9859   4.581   9.905   0.827
  120GLOH   H01 9860   4.538   9.911   0.916
  121ACOH    H4 9861   3.873   0.822   1.286
  121ACOH    O2 9862   3.845   0.914   1.260
  121ACOH    C2 9863   3.844   0.917   1.126
  121ACOH    O1 9864   3.866   0.824   1.050
  121ACOH    C1 9865   3.804   1.050   1.077
  121ACOH    H1 9866   3.792   1.050   0.969
  121ACOH    H2 9867   3.880   1.123   1.104
  121ACOH    H3 9868   3.709   1.079   1.123
  122ACOH    H4 9869   4.891   0.074   0.978
  122ACOH    O2 9870   4.817   0.114   0.926
  122ACOH    C2 9871   4.859   0.126   0.799
  122ACOH    O1 9872   4.973   0.107   0.759
  122ACOH    C1 9873   4.751   0.178   0.712
  122ACOH    H1 9874   4.708   0.266   0.757
  122ACOH    H2 9875   4.674   0.102   0.701
  122ACOH    H3 9876   4.790   0.203   0.614
  123ACOH    H4 9877   2.634   8.406   0.381
  123ACOH    O2 9878   2.617   8.464   0.302
  123ACOH    C2 9879   2.621   8.380   0.196
  123ACOH    O1 9880   2.641   8.260   0.199
  123ACOH    C1 9881   2.590   8.454   0.071
  123ACOH    H1 9882   2.583   8.384   2.871
  123ACOH    H2 9883   2.671   8.523   0.051
  123ACOH    H3 9884   2.497   8.508   0.081
  124ACOH    H4 9885   2.428   8.708   1.339
  124ACOH    O2 9886   2.365   8.747   1.272
  124ACOH    C2 9887   2.401   8.876   1.256
  124ACOH    O1 9888   2.496   8.933   1.306
  124ACOH    C1 9889   2.314   8.941   1.155
  124ACOH    H1 9890   2.214   8.952   1.195
  124ACOH    H2 9891   2.310   8.880   1.066
  124ACOH    H3 9892   2.353   9.039   1.129
  125ACOH    H4 9893   3.674   7.804   1.507
  125ACOH    O2 9894   3.607   7.749   1.457
  125ACOH    C2 9895   3.655   7.735   1.332
  125ACOH    O1 9896   3.744   7.800   1.280
  125ACOH    C1 9897   3.571   7.640   1.254
  125ACOH    H1 9898   3.467   7.670   1.261
  125ACOH    H2 9899   3.582   7.541   1.296
  125ACOH    H3 9900   3.601   7.638   1.150
  126ACOH    H4 9901   5.143   0.092   0.730
  126ACOH    O2 9902   5.240   0.081   0.714
  126ACOH    C2 9903   5.300   0.063   0.833
  126ACOH    O1 9904   5.244   0.049   0.941
  126ACOH    C1 9905   5.446   0.045   0.818
  126ACOH    H1 9906   5.472   9.941   0.838
  126ACOH    H2 9907   5.498   0.108   0.890
  126ACOH    H3 9908   5.478   0.071   0.718
  127ACOH    H4 9909   3.847   1.023   1.974
  127ACOH    O2 9910   3.870   1.119   1.990
  127ACOH    C2 9911   4.003   1.130   1.972
  127ACOH    O1 9912   4.083   1.040   1.961
  127ACOH    C1 9913   4.045   1.273   1.974
  127ACOH    H1 9914   4.120   1.288   2.052
  127ACOH    H2 9915   3.960   1.337   1.994
  127ACOH    H3 9916   4.088   1.299   1.878
  128ACOH    H4 9917   2.798   7.906   1.371
  128ACOH    O2 9918   2.752   7.826   1.409
  128ACOH    C2 9919   2.633   7.816   1.350
  128ACOH    O1 9920   2.591   7.880   1.255
  128ACOH    C1 9921   2.554   7.706   1.412
  128ACOH    H1 9922   2.613   7.615   1.410
  128ACOH    H2 9923   2.461   7.691   1.359
  128ACOH    H3 9924   2.533   7.732   1.516
  129ACOH    H4 9925   3.354   0.840   1.953
  129ACOH    O2 9926   3.297   0.884   1.884
  129ACOH    C2 9927   3.170   0.866   1.923
  129ACOH    O1 9928   3.128   0.770   1.985
  129ACOH    C1 9929   3.081   0.961   1.851
  129ACOH    H1 9930   3.101   0.957   1.745
  129ACOH    H2 9931   3.100   1.061   1.887
  129ACOH    H3 9932   2.976   0.936   1.869
  130ACOH    H4 9933   2.913   9.988   1.348
  130ACOH    O2 9934   2.895   0.083   1.326
  130ACOH    C2 9935   2.825   0.088   1.211
  130ACOH    O1 9936   2.802   9.996   1.136
  130ACOH    C1 9937   2.789   0.228   1.177
  130ACOH    H1 9938   2.808   0.294   1.261
  130ACOH    H2 9939   2.684   0.233   1.150
  130ACOH    H3 9940   2.849   0.261   1.092
  131ACOH    H4 9941   4.730   9.315   0.980
  131ACOH    O2 9942   4.717   9.234   0.924
  131ACOH    C2 9943   4.709   9.273   0.796
  131ACOH    O1 9944   4.698   9.388   0.754
  131ACOH    C1 9945   4.710   9.156   0.706
  131ACOH    H1 9946   4.625   9.092   0.729
  131ACOH    H2 9947   4.801   9.099   0.722
  131ACOH    H3 9948   4.705   9.186   0.602
  132ACOH    H4 9949   4.352   9.541   0.899
  132ACOH    O2 9950   4.360   9.494   0.811
  132ACOH    C2 9951   4.265   9.399   0.809
  132ACOH    O1 9952   4.176   9.381   0.890
  132ACOH    C1 9953   4.281   9.313   0.689
  132ACOH    H1 9954   4.267   9.373   0.599
  132ACOH    H2 9955   4.208   9.232   0.689
  132ACOH    H3 9956   4.380   9.271   0.687
  133SOL     OW 9957   4.225   8.924   0.596
  133SOL    HW1 9958   4.232   8.883   0.505
  133SOL    HW2 9959   4.191   8.856   0.661
  134SOL     OW 9960   3.929   8.782   1.271
  134SOL    HW1 9961   3.938   8.731   1.186
  134SOL    HW2 9962   3.844   8.756   1.317
  135SOL     OW 9963   3.892   0.546   0.149
  135SOL    HW1 9964   3.908   0.484   0.072
  135SOL    HW2 9965   3.807   0.597   0.133
  136SOL     OW 9966   2.685   9.702   0.696
  136SOL    HW1 9967   2.699   9.771   0.625
  136SOL    HW2 9968   2.709   9.741   0.785
  137SOL     OW 9969   3.896   7.996   2.086
  137SOL    HW1 9970   3.982   8.036   2.118
  137SOL    HW2 9971   3.864   8.046   2.005
  138SOL     OW 9972   2.787   8.664   1.803
  138SOL    HW1 9973   2.860   8.618   1.854
  138SOL    HW2 9974   2.707   8.674   1.861
  139SOL     OW 9975   3.228   9.861   0.792
  139SOL    HW1 9976   3.246   9.788   0.858
  139SOL    HW2 9977   3.309   9.919   0.783
  140SOL     OW 9978   3.800   0.669   0.823
  140SOL    HW1 9979   3.832   0.725   0.899
  140SOL    HW2 9980   3.724   0.612   0.853
  141SOL     OW 9981   2.882   9.621   2.135
  141SOL    HW1 9982   2.967   9.659   2.172
  141SOL    HW2 9983   2.852   9.545   2.192
  142SOL     OW 9984   3.213   0.242   0.650
  142SOL    HW1 9985   3.158   0.178   0.704
  142SOL    HW2 9986   3.201   0.222   0.553
  143SOL     OW 9987   2.536   9.691   0.101
  143SOL    HW1 9988   2.458   9.707   0.039
  143SOL    HW2 9989   2.556   9.593   0.103
  144SOL     OW 9990   3.555   9.842   1.957
  144SOL    HW1 9991   3.506   9.886   1.882
  144SOL    HW2 9992   3.634   9.897   1.983
  145SOL     OW 9993   2.593   9.410   1.935
  145SOL    HW1 9994   2.690   9.430   1.921
  145SOL    HW2 9995   2.551   9.485   1.986
  146SOL     OW 9996   3.996   8.976   0.219
  146SOL    HW1 9997   4.032   8.899   0.166
  146SOL    HW2 9998   3.903   8.954   0.249
  147SOL     OW 9999   3.659   0.234   0.348
  147SOL    HW110000   3.593   0.226   0.423
  147SOL    HW210001   3.750   0.251   0.385
  148SOL     OW10002   3.705   8.502   0.294
  148SOL    HW110003   3.615   8.462   0.275
  148SOL    HW210004   3.731   8.483   0.388
  149SOL     OW10005   3.393   9.794   0.414
  149SOL    HW110006   3.378   9.697   0.393
  149SOL    HW210007   3.332   9.850   0.358
  150SOL     OW10008   2.544   9.647   2.075
  150SOL    HW110009   2.611   9.715   2.045
  150SOL    HW210010   2.488   9.687   2.148
  151SOL     OW10011   4.188   0.243   0.844
  151SOL    HW110012   4.257   0.267   0.776
  151SOL    HW210013   4.126   0.175   0.806
  152SOL     OW10014   2.499   9.380   0.941
  152SOL    HW110015   2.405   9.370   0.974
  152SOL    HW210016   2.563   9.352   1.013
  153SOL     OW10017   3.668   9.580   0.996
  153SOL    HW110018   3.644   9.525   0.916
  153SOL    HW210019   3.692   9.672   0.967
  154SOL     OW10020   3.151   0.235   1.488
  154SOL    HW110021   3.166   0.327   1.453
  154SOL    HW210022   3.182   0.168   1.420
  155SOL     OW10023   3.465   0.814   1.416
  155SOL    HW110024   3.407   0.803   1.497
  155SOL    HW210025   3.536   0.881   1.435
  156SOL     OW10026   3.444   8.975   1.398
  156SOL    HW110027   3.534   9.000   1.434
  156SOL    HW210028   3.428   8.878   1.411
  157SOL     OW10029   3.486   0.202   0.576
  157SOL    HW110030   3.516   0.107   0.584
  157SOL    HW210031   3.392   0.210   0.610
  158SOL     OW10032   3.645   8.624   0.730
  158SOL    HW110033   3.650   8.718   0.698
  158SOL    HW210034   3.676   8.619   0.825
  159SOL     OW10035   3.978   9.288   1.077
  159SOL    HW110036   4.022   9.320   0.993
  159SOL    HW210037   3.903   9.226   1.054
  160SOL     OW10038   3.649   0.678   0.124
  160SOL    HW110039   3.662   0.745   0.197
  160SOL    HW210040   3.555   0.642   0.127
  161SOL     OW10041   3.698   8.209   0.574
  161SOL    HW110042   3.725   8.180   0.666
  161SOL    HW210043   3.719   8.306   0.562
  162SOL     OW10044   3.335   8.510   1.616
  162SOL    HW110045   3.349   8.535   1.712
  162SOL    HW210046   3.246   8.466   1.605
  163SOL     OW10047   2.529   9.252   0.489
  163SOL    HW110048   2.552   9.298   0.403
  163SOL    HW210049   2.533   9.318   0.564
  164SOL     OW10050   3.217   0.468   1.354
  164SOL    HW110051   3.177   0.432   1.269
  164SOL    HW210052   3.301   0.518   1.333
  165SOL     OW10053   3.585   0.347   1.512
  165SOL    HW110054   3.655   0.302   1.567
  165SOL    HW210055   3.624   0.372   1.423
  166SOL     OW10056   3.069   8.649   0.612
  166SOL    HW110057   3.046   8.729   0.668
  166SOL    HW210058   2.997   8.633   0.544
  167SOL     OW10059   2.666   9.029   1.100
  167SOL    HW110060   2.611   9.004   1.180
  167SOL    HW210061   2.731   8.956   1.079
  168SOL     OW10062   3.694   9.031   1.489
  168SOL    HW110063   3.765   8.991   1.547
  168SOL    HW210064   3.732   9.109   1.439
  169SOL     OW10065   3.860   8.691   0.169
  169SOL    HW110066   3.805   8.615   0.205
  169SOL    HW210067   3.892   8.667   0.077
  170SOL     OW10068   3.268   7.985   1.411
  170SOL    HW110069   3.259   7.888   1.392
  170SOL    HW210070   3.340   8.000   1.479
  171SOL     OW10071   2.562   7.992   0.699
  171SOL    HW110072   2.538   7.902   0.735
  171SOL    HW210073   2.536   8.062   0.765
  172SOL     OW10074   2.626   8.195   1.898
  172SOL    HW110075   2.583   8.165   1.813
  172SOL    HW210076   2.597   8.289   1.920
  173SOL     OW10077   3.690   8.665   1.361
  173SOL    HW110078   3.591   8.678   1.369
  173SOL    HW210079   3.715   8.573   1.391
  174SOL     OW10080   3.682   0.968   1.477
  174SOL    HW110081   3.742   0.972   1.398
  174SOL    HW210082   3.732   0.932   1.555
  175SOL     OW10083   2.586   9.881   1.791
  175SOL    HW110084   2.606   9.975   1.764
  175SOL    HW210085   2.637   9.859   1.874
  176SOL     OW10086   3.968   9.814   0.781
  176SOL    HW110087   3.971   9.778   0.688
  176SOL    HW210088   3.874   9.806   0.817
  177SOL     OW10089   3.437   8.384   1.389
  177SOL    HW110090   3.402   8.427   1.472
  177SOL    HW210091   3.493   8.304   1.414
  178SOL     OW10092   2.768   9.511   0.190
  178SOL    HW110093   2.755   9.609   0.199
  178SOL    HW210094   2.820   9.477   0.268
  179SOL     OW10095   2.676   8.781   1.581
  179SOL    HW110096   2.677   8.880   1.593
  179SOL    HW210097   2.724   8.738   1.658
  180SOL     OW10098   4.154   8.499   1.799
  180SOL    HW110099   4.170   8.553   1.716
  180SOL    HW210100   4.089   8.546   1.858
  181SOL     OW10101   3.641   0.823   0.356
  181SOL    HW110102   3.699   0.819   0.438
  181SOL    HW210103   3.550   0.789   0.379
  182SOL     OW10104   4.412   9.468   1.523
  182SOL    HW110105   4.417   9.456   1.424
  182SOL    HW210106   4.316   9.481   1.550
  183SOL     OW10107   2.728   9.805   0.255
  183SOL    HW110108   2.646   9.779   0.204
  183SOL    HW210109   2.785   9.864   0.197
  184SOL     OW10110   3.055   8.406   0.963
  184SOL    HW110111   3.101   8.493   0.978
  184SOL    HW210112   3.048   8.389   0.864
  185SOL     OW10113   3.616   9.424   1.223
  185SOL    HW110114   3.642   9.486   1.149
  185SOL    HW210115   3.553   9.471   1.285
  186SOL     OW10116   2.670   9.299   1.142
  186SOL    HW110117   2.645   9.305   1.239
  186SOL    HW210118   2.681   9.203   1.116
  187SOL     OW10119   3.468   0.512   1.702
  187SOL    HW110120   3.499   0.452   1.628
  187SOL    HW210121   3.430   0.456   1.775
  188SOL     OW10122   3.115   9.738   2.225
  188SOL    HW110123   3.189   9.752   2.290
  188SOL    HW210124   3.148   9.754   2.132
  189SOL     OW10125   3.997   0.332   1.745
  189SOL    HW110126   4.062   0.261   1.718
  189SOL    HW210127   3.991   0.401   1.672
  190SOL     OW10128   4.240   9.917   1.751
  190SOL    HW110129   4.338   9.897   1.745
  190SOL    HW210130   4.205   9.885   1.839
  191SOL     OW10131   3.754   0.214   1.678
  191SOL    HW110132   3.749   0.118   1.707
  191SOL    HW210133   3.839   0.254   1.712
  192SOL     OW10134   3.711   9.629   0.166
  192SOL    HW110135   3.640   9.617   0.096
  192SOL    HW210136   3.750   9.540   0.189
  193SOL     OW10137   3.384   0.567   0.168
  193SOL    HW110138   3.409   0.471   0.156
  193SOL    HW210139   3.311   0.591   0.103
  194SOL     OW10140   2.750   8.674   0.840
  194SOL    HW110141   2.763   8.577   0.823
  194SOL    HW210142   2.697   8.715   0.766
  195SOL     OW10143   3.017   8.356   0.690
  195SOL    HW110144   3.115   8.342   0.674
  195SOL    HW210145   2.979   8.412   0.616
  196SOL     OW10146   3.618   8.187   1.460
  196SOL    HW110147   3.710   8.150   1.468
  196SOL    HW210148   3.554   8.127   1.508
  197SOL     OW10149   3.393   0.174   1.619
  197SOL    HW110150   3.464   0.229   1.575
  197SOL    HW210151   3.304   0.197   1.581
  198SOL     OW10152   2.501   8.947   1.892
  198SOL    HW110153   2.443   9.012   1.842
  198SOL    HW210154   2.593   8.984   1.901
  199SOL     OW10155   3.115   0.501   1.874
  199SOL    HW110156   3.099   0.589   1.920
  199SOL    HW210157   3.106   0.513   1.776
  200SOL     OW10158   3.426   8.698   1.419
  200SOL    HW110159   3.392   8.640   1.493
  200SOL    HW210160   3.358   8.700   1.345
  201SOL     OW10161   3.106   8.493   1.271
  201SOL    HW110162   3.169   8.569   1.258
  201SOL    HW210163   3.154   8.416   1.313
  202SOL     OW10164   4.013   9.203   1.531
  202SOL    HW110165   3.945   9.241   1.468
  202SOL    HW210166   4.011   9.254   1.617
  203SOL     OW10167   2.589   9.442   0.692
  203SOL    HW110168   2.614   9.539   0.687
  203SOL    HW210169   2.549   9.423   0.782
  204SOL     OW10170   3.797   9.237   1.335
  204SOL    HW110171   3.739   9.312   1.304
  204SOL    HW210172   3.825   9.181   1.256
  205SOL     OW10173   4.000   9.240   0.285
  205SOL    HW110174   4.009   9.144   0.260
  205SOL    HW210175   4.047   9.256   0.372
  206SOL     OW10176   3.239   8.727   1.221
  206SOL    HW110177   3.187   8.788   1.281
  206SOL    HW210178   3.212   8.742   1.126
  207SOL     OW10179   4.295   9.643   2.024
  207SOL    HW110180   4.228   9.716   2.015
  207SOL    HW210181   4.369   9.657   1.958
  208SOL     OW10182   3.471   0.492   2.164
  208SOL    HW110183   3.459   0.583   2.205
  208SOL    HW210184   3.425   0.489   2.075
  209SOL     OW10185   4.196   0.483   0.555
  209SOL    HW110186   4.159   0.539   0.629
  209SOL    HW210187   4.137   0.491   0.474
  210SOL     OW10188   2.509   9.558   1.447
  210SOL    HW110189   2.416   9.591   1.430
  210SOL    HW210190   2.561   9.630   1.494
  211SOL     OW10191   3.332   0.750   1.647
  211SOL    HW110192   3.384   0.666   1.666
  211SOL    HW210193   3.333   0.809   1.727
  212SOL     OW10194   2.757   9.834   2.014
  212SOL    HW110195   2.820   9.911   2.010
  212SOL    HW210196   2.802   9.756   2.056
  213SOL     OW10197   4.094   9.466   0.096
  213SOL    HW110198   4.061   9.372   0.084
  213SOL    HW210199   4.102   9.510   0.006
  214SOL     OW10200   3.124   8.220   1.392
  214SOL    HW110201   3.174   8.135   1.408
  214SOL    HW210202   3.085   8.218   1.300
  215SOL     OW10203   3.925   8.967   1.629
  215SOL    HW110204   3.990   8.923   1.691
  215SOL    HW210205   3.966   9.051   1.592
  216SOL     OW10206   3.132   0.565   1.606
  216SOL    HW110207   3.143   0.526   1.515
  216SOL    HW210208   3.191   0.645   1.615
  217SOL     OW10209   4.206   8.576   1.077
  217SOL    HW110210   4.213   8.476   1.084
  217SOL    HW210211   4.282   8.610   1.021
  218SOL     OW10212   2.836   9.060   0.112
  218SOL    HW110213   2.805   8.989   0.049
  218SOL    HW210214   2.789   9.146   0.092
  219SOL     OW10215   4.490   9.683   1.847
  219SOL    HW110216   4.531   9.603   1.804
  219SOL    HW210217   4.521   9.766   1.800
  220SOL     OW10218   2.470   8.116   1.128
  220SOL    HW110219   2.469   8.178   1.206
  220SOL    HW210220   2.499   8.025   1.158
  221SOL     OW10221   4.467   9.809   2.186
  221SOL    HW110222   4.408   9.739   2.145
  221SOL    HW210223   4.551   9.767   2.219
  10.00000  10.00000   2.88400
