chitosan Film  in water:acetic acid 2%
10523
    1CHTO  H203    1   4.114   6.388   0.486  0.3931  0.5638 -0.2776
    1CHTO   O82    2   4.097   6.443   0.559 -0.3187  0.4776 -0.3762
    1CHTO  C123    3   4.197   6.413   0.661  0.4990 -0.3704 -0.2370
    1CHTO  H227    4   4.169   6.469   0.751  0.0414 -1.6627  0.4460
    1CHTO   O77    5   4.180   6.264   0.687  0.2301 -0.5529  0.0095
    1CHTO  C118    6   4.258   6.209   0.794  0.3539  0.0245  0.7690
    1CHTO  H222    7   4.237   6.260   0.889 -0.3275 -0.3248  0.8035
    1CHTO  C125    8   4.230   6.058   0.814 -0.1716 -0.3161 -0.1359
    1CHTO   O84    9   4.101   6.025   0.858 -0.1070 -0.2051 -0.4209
    1CHTO  H205   10   4.052   6.091   0.903 -0.1213 -1.1124  0.9260
    1CHTO  C114   11   4.409   6.232   0.762  0.0147 -0.2173 -0.2423
    1CHTO  H218   12   4.427   6.182   0.666  1.1994 -1.0690  0.4188
    1CHTO  C116   13   4.444   6.382   0.726  0.0394 -0.0372  0.1407
    1CHTO  H220   14   4.437   6.442   0.819 -0.1643  0.7878 -0.3940
    1CHTO   O79   15   4.574   6.386   0.674 -0.0406  0.2782 -0.9525
    1CHTO  H201   16   4.630   6.447   0.717  1.3075 -0.6798 -1.3290
    1CHTO  C120   17   4.348   6.441   0.618  0.5200  0.2685 -0.0127
    1CHTO  H224   18   4.374   6.389   0.523  1.4338 -1.1698  0.9903
    1CHTO   N21   19   4.367   6.586   0.586 -0.2478 -0.0529  0.1804
    1CHTO  H211   20   4.321   6.604   0.490 -0.9340 -0.1303  0.4914
    1CHTO  H212   21   4.327   6.653   0.660  1.8655  0.6143  0.7686
    1CHTO   O75   22   4.489   6.169   0.864 -0.1851 -0.4831 -0.2774
    1CHTO  C112   23   4.639   6.119   0.819 -0.1207 -0.1490  0.3589
    1CHTO  H216   24   4.674   6.194   0.747  0.0679  0.1807  0.7911
    1CHTO   O73   25   4.627   5.992   0.755 -0.4411  1.1548 -0.0128
    1CHTO  C113   26   4.747   5.946   0.687  0.3368 -0.4311 -0.0582
    1CHTO  H217   27   4.759   6.012   0.598  2.3340 -0.5884  0.0581
    1CHTO  C124   28   4.720   5.803   0.635 -0.0477  0.6084 -0.1035
    1CHTO   O83   29   4.772   5.695   0.712  0.3020 -0.6202 -0.2362
    1CHTO  H204   30   4.848   5.662   0.668 -0.9398 -3.1262 -0.6292
    1CHTO  C109   31   4.876   5.961   0.781 -0.1994  0.1197  0.2086
    1CHTO  H213   32   4.872   5.882   0.857  0.0503  0.3538  0.4632
    1CHTO  C110   33   4.879   6.091   0.868  1.1740 -0.6756  0.5821
    1CHTO  H214   34   4.914   6.178   0.812  1.1515 -0.7420  0.4655
    1CHTO   O78   35   4.969   6.071   0.977 -0.4843 -0.3106  0.1280
    1CHTO  H200   36   5.049   6.053   0.931 -1.7151 -4.0025 -0.7332
    1CHTO  C111   37   4.740   6.126   0.929 -0.0257  0.6654  0.2547
    1CHTO  H215   38   4.713   6.046   1.000 -0.7264 -0.4471 -1.2280
    1CHTO   N19   39   4.744   6.251   1.005  0.3846  0.4783 -0.3682
    1CHTO  H207   40   4.772   6.344   0.958 -0.2415 -0.2938 -2.2931
    1CHTO  H208   41   4.652   6.270   1.058 -0.2037 -1.6054 -0.6098
    1CHTO   O74   42   5.006   5.942   0.709 -0.0071  0.0058 -0.0716
    1CHTO  C115   43   5.092   5.833   0.765 -0.1799  0.3959 -0.2022
    1CHTO  H219   44   5.052   5.785   0.853 -0.4628 -0.2183 -0.6645
    1CHTO   O76   45   5.107   5.718   0.674  0.5791  0.0396  0.1368
    1CHTO  C122   46   5.191   5.743   0.558 -0.2230  0.2689 -0.2678
    1CHTO  H226   47   5.125   5.797   0.490 -2.0644 -0.8439  0.5741
    1CHTO  C126   48   5.214   5.600   0.500  0.1168  0.0536  0.2883
    1CHTO   O85   49   5.097   5.533   0.450  0.3698  0.2304  0.0399
    1CHTO  H206   50   5.120   5.449   0.414 -2.4261 -0.0538 -1.2214
    1CHTO  C121   51   5.325   5.809   0.583  0.1047 -0.3310  0.6306
    1CHTO  H225   52   5.407   5.753   0.535  0.0371 -0.7939  1.0595
    1CHTO   O81   53   5.329   5.948   0.534 -0.3241  0.0933 -0.2210
    1CHTO  H202   54   5.416   5.962   0.502 -0.2680 -0.3743 -0.2861
    1CHTO  C119   55   5.350   5.806   0.739  0.1212  0.2238 -0.2413
    1CHTO  H223   56   5.329   5.704   0.772  1.8297 -0.2797 -0.6747
    1CHTO  C117   57   5.240   5.897   0.805 -0.6240  0.4649  0.3153
    1CHTO  H221   58   5.244   5.999   0.767  4.0733  0.0023 -0.7955
    1CHTO   N20   59   5.260   5.901   0.955  0.4022  0.1270 -0.2471
    1CHTO  H209   60   5.311   5.813   0.993  0.6835  1.4520  2.5464
    1CHTO  H210   61   5.326   5.984   0.969  2.6346 -1.8714  1.5326
    1CHTO   O80   62   5.507   5.827   0.786  0.0726  0.2847  0.2386
    1CHTO  C103   63   5.607   5.717   0.754 -0.0247 -1.0210  0.2393
    1CHTO  H190   64   5.675   5.711   0.839  0.6667  5.0209  0.3102
    1CHTO  C101   65   5.562   5.574   0.713 -0.5242 -0.2906  0.3383
    1CHTO  H188   66   5.499   5.580   0.624  1.0523  0.7699 -0.7398
    1CHTO   O68   67   5.484   5.513   0.843  0.3735  0.0135 -0.5487
    1CHTO  H168   68   5.470   5.568   0.917 -0.9753 -0.7229 -0.2417
    1CHTO   C99   69   5.686   5.488   0.673  0.2851 -0.1222  0.3712
    1CHTO  H186   70   5.753   5.460   0.757  0.8283 -0.8109 -0.2825
    1CHTO   N17   71   5.645   5.356   0.617  0.0577 -0.3513  0.3445
    1CHTO  H174   72   5.693   5.282   0.679 -1.0674 -1.8528 -0.5318
    1CHTO  H175   73   5.538   5.344   0.615  0.0585 -0.4044  0.7025
    1CHTO   C97   74   5.771   5.562   0.565 -0.3159  0.2035  0.2027
    1CHTO  H184   75   5.712   5.558   0.473 -1.1588  0.1606  0.7323
    1CHTO   O64   76   5.808   5.695   0.599 -0.2833 -0.2123  0.2071
    1CHTO  C104   77   5.693   5.779   0.629  0.4624  0.8842 -0.5447
    1CHTO  H191   78   5.626   5.786   0.543 -0.5602 -1.5707  0.0190
    1CHTO  C108   79   5.742   5.919   0.671 -0.0595 -0.3520 -0.1061
    1CHTO   O71   80   5.784   5.992   0.551 -0.0288  0.4453  0.5434
    1CHTO  H171   81   5.713   6.043   0.517 -0.7267 -1.4379 -0.8923
    1CHTO   O62   82   5.902   5.496   0.551  0.9082 -0.0358 -0.0980
    1CHTO   C91   83   5.977   5.528   0.433  0.5264  0.7500 -0.3797
    1CHTO  H178   84   5.936   5.621   0.394 -0.3944  0.9062  0.9379
    1CHTO   C92   85   5.964   5.404   0.336 -0.3290  0.4383  0.8534
    1CHTO  H179   86   5.973   5.310   0.392  0.6639  0.6301  1.0205
    1CHTO   O66   87   5.826   5.405   0.286  0.3266  0.0117  0.3498
    1CHTO  H166   88   5.803   5.349   0.214 -2.3601 -0.7729  1.7535
    1CHTO   C93   89   6.070   5.396   0.209 -0.0071  0.5202  0.2209
    1CHTO  H180   90   6.050   5.477   0.137  1.1901  0.8802  0.2922
    1CHTO   N16   91   6.055   5.266   0.135 -0.1784 -0.6229 -0.3340
    1CHTO  H172   92   5.956   5.283   0.093 -1.6065 -1.9696  2.3691
    1CHTO  H173   93   6.132   5.271   0.060  0.2710 -0.8862  0.1124
    1CHTO   C94   94   6.208   5.421   0.271 -0.1104  0.1063  0.3852
    1CHTO  H181   95   6.229   5.349   0.351  0.3041  1.0816  1.1705
    1CHTO   O61   96   6.206   5.557   0.318  0.3569 -0.3877  0.2498
    1CHTO   C95   97   6.138   5.562   0.445 -0.2318 -0.6522 -0.4412
    1CHTO  H182   98   6.181   5.483   0.508  3.1268 -0.6144 -2.5584
    1CHTO  C106   99   6.180   5.703   0.512  0.5235  0.4357  0.0038
    1CHTO   O69  100   6.125   5.715   0.644 -0.3457  0.0425 -0.1188
    1CHTO  H169  101   6.089   5.798   0.667  0.6712  0.8622 -1.3524
    1CHTO   O63  102   6.339   5.402   0.163  0.0157  0.4022 -0.1967
    1CHTO   C96  103   6.486   5.427   0.224  0.1084 -0.1594  0.5932
    1CHTO  H183  104   6.491   5.526   0.268 -1.8784  0.4454 -0.4773
    1CHTO   C98  105   6.598   5.427   0.111 -0.0538 -0.5068  0.0695
    1CHTO  H185  106   6.568   5.495   0.029 -0.0527 -0.3682  0.1836
    1CHTO   O67  107   6.711   5.492   0.166  0.0195 -0.1748 -0.1871
    1CHTO  H167  108   6.707   5.586   0.162 -0.8105 -0.2281 -0.7814
    1CHTO  C102  109   6.637   5.281   0.061  0.0917  0.4174 -0.2666
    1CHTO  H189  110   6.735   5.289   0.012  0.0388 -0.7026 -0.5830
    1CHTO   N18  111   6.542   5.231  -0.043 -0.2703  0.0932 -0.2353
    1CHTO  H176  112   6.589   5.256  -0.137 -1.0755  0.2908 -0.5948
    1CHTO  H177  113   6.533   5.123  -0.042 -0.7245  0.1184 -0.7102
    1CHTO  C105  114   6.639   5.183   0.186  0.4382 -0.1367 -0.2265
    1CHTO  H192  115   6.556   5.113   0.178 -0.0727  0.6209 -1.7533
    1CHTO   O65  116   6.638   5.246   0.316  0.4926  0.0335  0.3882
    1CHTO  C100  117   6.515   5.321   0.342 -0.0424 -0.9335 -0.1197
    1CHTO  H187  118   6.439   5.243   0.350 -1.8359  0.8142  0.2119
    1CHTO  C107  119   6.528   5.385   0.483 -0.4114 -0.2955  0.3109
    1CHTO   O70  120   6.522   5.288   0.586 -0.2929 -0.3552 -0.0770
    1CHTO  H170  121   6.461   5.319   0.651  0.1419  0.8687 -0.2318
    1CHTO   O57  122   6.778   5.102   0.169  0.4630 -0.9825  0.1306
    1CHTO   C85  123   6.778   4.963   0.201 -0.1232 -0.8204 -0.4418
    1CHTO  H157  124   6.678   4.921   0.177 -0.3137 -0.8649  0.4065
    1CHTO   C83  125   6.790   4.957   0.355 -0.6733 -0.0601  0.0607
    1CHTO  H155  126   6.699   4.999   0.399 -0.5453  0.4373 -0.1567
    1CHTO   O56  127   6.894   5.040   0.411  0.0743  0.0766  0.4614
    1CHTO  H135  128   6.865   5.073   0.494  0.2736  1.8384 -0.1371
    1CHTO   C81  129   6.799   4.806   0.403 -0.0159 -0.2959  0.3339
    1CHTO  H153  130   6.714   4.753   0.362 -0.2796 -1.0430  1.8053
    1CHTO   N14  131   6.792   4.793   0.549 -0.2788  0.5157 -0.2533
    1CHTO  H141  132   6.869   4.835   0.610 -0.9929 -0.3935  1.3227
    1CHTO  H142  133   6.697   4.818   0.591 -0.9238 -1.6133 -0.3546
    1CHTO   C79  134   6.932   4.740   0.348  0.0890 -0.6416 -0.0416
    1CHTO  H151  135   6.928   4.634   0.371 -0.2916 -0.6261 -0.0464
    1CHTO   O52  136   6.930   4.738   0.201  0.1862  0.0939 -0.5535
    1CHTO   C86  137   6.897   4.867   0.139  0.0833  0.5074  0.3742
    1CHTO  H158  138   6.992   4.924   0.148  0.5475 -0.1066 -0.5201
    1CHTO   C90  139   6.882   4.853  -0.020  0.1780  0.2601 -0.1156
    1CHTO   O60  140   6.993   4.789  -0.083  0.4331 -0.3202  0.8987
    1CHTO  H138  141   6.948   4.730  -0.140  1.2989  0.9130 -1.0758
    1CHTO   O50  142   7.052   4.793   0.404 -0.0659  0.1883 -0.3864
    1CHTO   C73  143   7.188   4.808   0.438  0.2648  0.0547  0.5557
    1CHTO  H145  144   7.251   4.779   0.353 -0.5966  2.0450 -0.7968
    1CHTO   C74  145   7.213   4.715   0.564  0.5948  0.5574 -0.3884
    1CHTO  H146  146   7.171   4.615   0.545  0.1704  0.5574  0.5296
    1CHTO   O54  147   7.357   4.706   0.562  0.2994 -0.2509 -0.5847
    1CHTO  H133  148   7.396   4.670   0.484 -2.1293 -0.0318 -1.9502
    1CHTO   C75  149   7.153   4.780   0.698  0.2673 -0.3830 -0.7148
    1CHTO  H147  150   7.045   4.761   0.689  0.3414 -0.4130 -1.6231
    1CHTO   N13  151   7.196   4.717   0.827 -0.1524  0.2851 -0.9779
    1CHTO  H139  152   7.239   4.619   0.815  1.4940  0.4975  2.4734
    1CHTO  H140  153   7.110   4.710   0.893 -0.3352  0.4074 -1.2014
    1CHTO   C76  154   7.178   4.936   0.710 -0.4718  0.2675 -0.2983
    1CHTO  H148  155   7.284   4.946   0.735 -0.4688  1.2347 -0.6951
    1CHTO   O49  156   7.139   4.989   0.582 -0.3155 -0.3445  0.8163
    1CHTO   C77  157   7.229   4.949   0.478  0.3805  0.6572  0.0525
    1CHTO  H149  158   7.333   4.942   0.509 -0.3677 -0.4362  2.4392
    1CHTO   C88  159   7.222   5.042   0.347 -0.4847  0.1211  0.3154
    1CHTO   O58  160   7.316   4.991   0.245  0.0021  0.3527  0.3942
    1CHTO  H136  161   7.396   4.959   0.283 -0.8301 -1.8766  0.3401
    1CHTO   O51  162   7.094   4.996   0.821  0.4020 -0.1709  0.3240
    1CHTO   C78  163   7.094   5.161   0.817  0.2703 -0.1541  0.0558
    1CHTO  H150  164   7.118   5.199   0.715  2.4610  3.2370  1.7677
    1CHTO   C80  165   7.204   5.209   0.919 -0.2641 -0.2176  0.2416
    1CHTO  H152  166   7.190   5.159   1.017 -1.2194 -0.1336  0.1552
    1CHTO   O55  167   7.332   5.159   0.872  0.5497 -0.3085 -0.9923
    1CHTO  H134  168   7.406   5.177   0.926  0.8820 -0.8095 -1.2837
    1CHTO   C84  169   7.192   5.368   0.931  0.3248 -0.1578  0.3922
    1CHTO  H156  170   7.209   5.409   0.831 -0.6519 -1.0422 -0.1472
    1CHTO   N15  171   7.294   5.428   1.020  0.7170 -0.3454 -0.5821
    1CHTO  H143  172   7.288   5.535   1.017 -1.2104 -0.2859  2.7530
    1CHTO  H144  173   7.284   5.401   1.123  3.2738  2.5773  0.5122
    1CHTO   C87  174   7.053   5.417   0.969 -0.2935 -0.1380 -0.0259
    1CHTO  H159  175   7.019   5.393   1.069 -0.7679 -2.2425 -0.6601
    1CHTO   O53  176   6.958   5.359   0.860 -0.4198 -0.8300  0.0007
    1CHTO   C82  177   6.956   5.213   0.856  0.2155  0.7724  0.2205
    1CHTO  H154  178   6.936   5.170   0.954 -0.4308 -3.0408 -1.5091
    1CHTO   C89  179   6.847   5.151   0.756 -0.1506 -0.1782 -0.6072
    1CHTO   O59  180   6.827   5.233   0.640  0.0896  0.1568 -0.5641
    1CHTO  H137  181   6.734   5.242   0.629  0.0088  1.0147  0.7164
    1CHTO   O45  182   7.035   5.575   0.947  0.1148 -0.3833  0.2397
    1CHTO   C67  183   6.919   5.643   1.006  0.5884  0.1753  0.2152
    1CHTO  H124  184   6.931   5.747   0.973  3.9332 -0.6000 -1.2193
    1CHTO   C65  185   6.776   5.594   0.969 -0.5725 -0.0819  0.5900
    1CHTO  H122  186   6.772   5.488   0.991  1.9485 -0.1019  1.0108
    1CHTO   O44  187   6.760   5.612   0.824  0.5832 -0.3434 -0.0313
    1CHTO  H102  188   6.711   5.542   0.784  1.3487 -0.3445 -1.0006
    1CHTO   C63  189   6.668   5.654   1.066  0.3596 -0.0026 -0.7111
    1CHTO  H120  190   6.659   5.581   1.147 -0.5409  1.3113  0.4142
    1CHTO   N11  191   6.528   5.668   1.024 -0.6258  0.1331 -0.0057
    1CHTO  H108  192   6.486   5.762   1.052 -0.5179  0.1505  0.0947
    1CHTO  H109  193   6.467   5.590   1.064 -0.2293  0.3309  1.0029
    1CHTO   C61  194   6.715   5.788   1.137 -0.1155 -0.1517 -0.2280
    1CHTO  H118  195   6.636   5.820   1.206  0.5770  1.3068 -0.0978
    1CHTO   O40  196   6.842   5.764   1.219 -0.0846 -1.0693 -0.3526
    1CHTO   C68  197   6.921   5.655   1.169  0.2099  0.7258  0.5651
    1CHTO  H125  198   6.880   5.562   1.213 -2.2775 -0.0606 -3.1878
    1CHTO   C72  199   7.065   5.674   1.219  0.2487 -0.0122 -0.1781
    1CHTO   O48  200   7.131   5.802   1.208  0.0778 -0.6941 -1.2043
    1CHTO  H105  201   7.087   5.870   1.255  1.6226 -0.4344 -0.1006
    1CHTO   O38  202   6.744   5.894   1.049 -0.6257 -0.0071  0.0210
    1CHTO   C55  203   6.717   6.028   1.093  0.0326 -0.4721 -0.3213
    1CHTO  H112  204   6.720   6.042   1.202 -1.1285 -1.4811 -0.1544
    1CHTO   C56  205   6.580   6.061   1.029  0.3757 -0.4771 -0.0603
    1CHTO  H113  206   6.586   6.051   0.919  1.0209 -0.1453 -0.0559
    1CHTO   O42  207   6.472   5.972   1.072  0.1286 -0.4064  0.1886
    1CHTO  H100  208   6.514   5.891   1.094  0.2055 -0.0616  1.3535
    1CHTO   C57  209   6.535   6.212   1.051 -0.1780 -0.5957  0.2248
    1CHTO  H114  210   6.517   6.226   1.157  1.0824  0.0879  0.3598
    1CHTO   N10  211   6.421   6.268   0.974  0.2221  0.0612  0.5316
    1CHTO  H106  212   6.370   6.345   1.029 -3.2903 -1.0340 -1.0407
    1CHTO  H107  213   6.453   6.303   0.877  0.1207 -0.5565  0.2739
    1CHTO   C58  214   6.656   6.297   1.010  0.4905 -0.2946  0.1020
    1CHTO  H115  215   6.672   6.292   0.900 -0.2364  1.4049 -0.0953
    1CHTO   O37  216   6.778   6.261   1.074  0.5832 -0.1656 -0.4967
    1CHTO   C59  217   6.822   6.129   1.038 -0.4160  0.1253  0.0509
    1CHTO  H116  218   6.834   6.121   0.930 -1.3372  1.1489 -0.1276
    1CHTO   C70  219   6.965   6.107   1.087  0.4151  0.2565 -0.0125
    1CHTO   O46  220   6.978   6.101   1.229  0.1412 -0.0138  0.1117
    1CHTO  H103  221   7.007   6.189   1.245 -2.2632  1.2655 -2.1545
    1CHTO   O39  222   6.637   6.441   1.066  0.1896  0.2666  0.4317
    1CHTO   C60  223   6.717   6.549   1.010 -0.0137 -0.3936 -0.6878
    1CHTO  H117  224   6.808   6.511   0.965 -0.0751 -1.5899  0.1889
    1CHTO   C62  225   6.637   6.614   0.891  0.3104 -0.6467 -0.2622
    1CHTO  H119  226   6.635   6.536   0.813  0.2567 -0.5081 -0.3980
    1CHTO   O43  227   6.505   6.651   0.934 -0.2147  0.1161  0.5128
    1CHTO  H101  228   6.449   6.577   0.917  0.3901 -0.0340 -0.9367
    1CHTO   C66  229   6.741   6.730   0.828 -0.2410 -0.0576  0.6375
    1CHTO  H123  230   6.842   6.691   0.814  0.9651  0.8488  5.6873
    1CHTO   N12  231   6.694   6.776   0.696 -0.4846 -0.3029  0.1481
    1CHTO  H110  232   6.590   6.803   0.690 -0.1530  0.5255 -3.0351
    1CHTO  H111  233   6.764   6.844   0.649  1.5992 -1.3927  1.6346
    1CHTO   C69  234   6.773   6.839   0.935 -0.1262  0.2354 -0.4453
    1CHTO  H126  235   6.685   6.902   0.960  0.6309  2.1388 -2.3610
    1CHTO   O41  236   6.836   6.773   1.063 -0.0291  0.2705  0.1582
    1CHTO   C64  237   6.749   6.658   1.109 -0.4733 -0.3531 -0.0525
    1CHTO  H121  238   6.656   6.704   1.148 -0.1541  0.0831  0.2097
    1CHTO   C71  239   6.819   6.608   1.240 -0.1127  0.4319 -0.0686
    1CHTO   O47  240   6.937   6.525   1.222  0.0352  0.6295 -0.3405
    1CHTO  H104  241   7.015   6.577   1.224  0.6985 -0.4003  1.1585
    1CHTO   O34  242   6.878   6.931   0.882  0.1755 -0.6049 -0.2560
    1CHTO   C49  243   7.019   7.017   0.897  0.5998 -0.4228 -0.3580
    1CHTO   H91  244   7.023   7.089   0.815 -2.6983 -0.7907 -0.9138
    1CHTO   C47  245   7.142   6.926   0.883 -0.5697  0.3522  0.5517
    1CHTO   H89  246   7.152   6.912   0.774  1.3448  0.3639  0.7139
    1CHTO   O33  247   7.114   6.796   0.944 -0.0064 -0.4296 -0.2482
    1CHTO   H70  248   7.052   6.751   0.891 -0.4116 -2.5442  1.9024
    1CHTO   C45  249   7.276   6.996   0.944 -0.9947  0.8833  0.4138
    1CHTO   H87  250   7.292   6.954   1.045 -2.9749 -0.2183  0.3024
    1CHTO    N8  251   7.397   6.962   0.862  0.5331 -0.3755 -0.0639
    1CHTO   H75  252   7.488   6.958   0.921 -0.5230  1.8022  1.8060
    1CHTO   H76  253   7.377   6.882   0.793 -0.6284 -0.7551  0.7169
    1CHTO   C43  254   7.257   7.157   0.974  0.1185 -0.8002 -0.1334
    1CHTO   H85  255   7.347   7.194   1.022  0.1514  1.8467 -2.1133
    1CHTO   O29  256   7.134   7.189   1.050 -0.0975 -0.0897  0.8036
    1CHTO   C50  257   7.032   7.095   1.038 -0.0261  0.1238 -0.3732
    1CHTO   H92  258   7.050   7.018   1.115 -0.0592 -0.8644 -1.3537
    1CHTO   C54  259   6.901   7.172   1.078  0.0528 -0.1073  0.1857
    1CHTO   O36  260   6.891   7.182   1.217  0.1924 -0.3175 -0.3080
    1CHTO   H72  261   6.863   7.266   1.247  2.4241  0.2387  0.3341
    1CHTO   O27  262   7.243   7.232   0.849  0.2141 -0.6883 -0.1352
    1CHTO   C37  263   7.291   7.356   0.797  0.1274  0.5867 -0.3286
    1CHTO   H79  264   7.275   7.433   0.874 -3.0685 -2.4382  2.2040
    1CHTO   C38  265   7.446   7.354   0.771 -0.4840  0.4862  0.1392
    1CHTO   H80  266   7.470   7.259   0.722  0.6430  0.9858 -0.3057
    1CHTO   O31  267   7.510   7.362   0.904  0.1655  0.0988 -0.0806
    1CHTO   H68  268   7.603   7.360   0.899  0.1537  1.7991 -1.6015
    1CHTO   C39  269   7.489   7.477   0.679 -0.5861  0.1240  0.2008
    1CHTO   H81  270   7.478   7.567   0.740 -1.5396  0.6821 -0.7822
    1CHTO    N7  271   7.631   7.474   0.648  0.3826  0.1302 -0.2114
    1CHTO   H73  272   7.636   7.477   0.540 -4.1109 -3.2974 -0.6626
    1CHTO   H74  273   7.690   7.552   0.694  1.1309 -1.0002  0.7499
    1CHTO   C40  274   7.397   7.478   0.544  0.0389  0.3199 -0.3616
    1CHTO   H82  275   7.404   7.375   0.510 -0.0084  0.8016 -1.8479
    1CHTO   O26  276   7.264   7.510   0.594  0.5328 -0.2277  0.3877
    1CHTO   C41  277   7.214   7.396   0.667  0.3915  0.7787  0.4334
    1CHTO   H83  278   7.222   7.309   0.600  0.0949  1.0477  0.0417
    1CHTO   C52  279   7.066   7.429   0.704 -0.1559 -0.1988 -0.0803
    1CHTO   O35  280   6.980   7.400   0.589  0.0809  0.6096 -0.0927
    1CHTO   H71  281   6.890   7.398   0.615 -0.3776 -0.0754 -1.6751
    1CHTO   O28  282   7.438   7.575   0.448 -0.2371 -0.5493 -0.0365
    1CHTO   C42  283   7.395   7.573   0.304 -0.1325 -0.0259  0.3369
    1CHTO   H84  284   7.334   7.483   0.290 -0.9693  0.4521  0.8310
    1CHTO   C44  285   7.511   7.566   0.194  0.2300  0.1291 -0.2002
    1CHTO   H86  286   7.558   7.664   0.195  0.4616  0.0172  2.1811
    1CHTO   O32  287   7.609   7.471   0.238 -0.5375 -0.2114  0.4756
    1CHTO   H69  288   7.601   7.387   0.195 -1.3478 -0.1276  0.4492
    1CHTO   C48  289   7.444   7.534   0.059  0.5440  0.0064 -0.3816
    1CHTO   H90  290   7.411   7.431   0.075 -0.0928  0.1451 -0.7954
    1CHTO    N9  291   7.537   7.527  -0.057 -0.4439 -0.0169 -0.3921
    1CHTO   H77  292   7.612   7.451  -0.044 -0.7296  0.0375  1.8602
    1CHTO   H78  293   7.485   7.522  -0.152 -0.2079  0.9099 -0.5750
    1CHTO   C51  294   7.327   7.638   0.018  0.3395  0.1763 -0.3540
    1CHTO   H93  295   7.374   7.726  -0.026  0.9047 -0.3535 -0.8145
    1CHTO   O30  296   7.238   7.668   0.129 -0.5758  0.2324 -0.1058
    1CHTO   C46  297   7.306   7.693   0.271  0.0715 -0.1483 -0.0960
    1CHTO   H88  298   7.367   7.781   0.257 -1.4519  0.8518 -0.6070
    1CHTO   C53  299   7.191   7.718   0.370 -0.0470 -0.0831 -0.0807
    1CHTO   O72  300   7.093   7.618   0.366  0.2329  0.0183  1.0740
    1CHTO  H199  301   7.045   7.614   0.285 -1.6853 -1.4829  2.2521
    1CHTO   O22  302   7.234   7.578  -0.070  0.2082  0.0188  0.3010
    1CHTO   C31  303   7.156   7.659  -0.167  0.7992  0.2393 -0.3041
    1CHTO   H59  304   7.160   7.762  -0.126  0.4982 -0.7891  2.3671
    1CHTO   C29  305   7.222   7.661  -0.305  0.2838  0.1142 -0.0677
    1CHTO   H57  306   7.233   7.556  -0.335 -1.7612 -0.2749  0.5201
    1CHTO   O21  307   7.349   7.720  -0.289  0.5264 -0.0332 -0.2593
    1CHTO   H37  308   7.332   7.812  -0.280 -0.6596 -0.4230  1.6280
    1CHTO   C27  309   7.133   7.730  -0.412  0.3768 -0.1253 -0.3308
    1CHTO   H55  310   7.118   7.836  -0.384  0.2778  0.1762 -1.5004
    1CHTO    N5  311   7.195   7.720  -0.550 -0.6242  0.2044  0.0228
    1CHTO   H43  312   7.222   7.813  -0.598  2.1924  0.0484  1.2470
    1CHTO   H44  313   7.284   7.661  -0.537 -0.9816 -0.0915  1.1817
    1CHTO   C25  314   6.995   7.658  -0.410  0.3067 -0.4384  0.8053
    1CHTO   H53  315   7.006   7.550  -0.425  2.6416  0.0131 -0.9006
    1CHTO   O17  316   6.937   7.672  -0.275 -0.5507  0.2168 -0.2381
    1CHTO   C32  317   7.008   7.607  -0.170  0.1492  0.0880  0.8823
    1CHTO   H60  318   7.015   7.501  -0.195  0.2753 -0.6027  3.7510
    1CHTO   C36  319   6.928   7.645  -0.047  0.7345 -0.2642  0.4163
    1CHTO   O25  320   6.955   7.554   0.059 -0.5426 -0.2007 -0.3791
    1CHTO   H40  321   7.025   7.588   0.111 -1.0397  0.9416 -0.4389
    1CHTO   O15  322   6.886   7.729  -0.520 -0.0246 -0.0107  0.3299
    1CHTO   C19  323   6.798   7.653  -0.595 -0.2841 -0.1291  0.3347
    1CHTO   H47  324   6.740   7.732  -0.646  1.1089  0.2881 -0.6110
    1CHTO   C20  325   6.864   7.569  -0.699 -0.0927  0.0873  0.5745
    1CHTO   H48  326   6.930   7.492  -0.654 -0.4911  0.2789  1.4947
    1CHTO   O19  327   6.934   7.659  -0.783 -0.2900 -0.3551  0.4383
    1CHTO   H35  328   6.880   7.725  -0.822  3.7097  2.2797 -1.0285
    1CHTO   C21  329   6.752   7.484  -0.787 -0.4551  0.4071 -0.7730
    1CHTO   H49  330   6.683   7.554  -0.835  0.3249  1.0565 -0.9592
    1CHTO    N4  331   6.813   7.390  -0.883 -0.0701 -0.1967 -0.2521
    1CHTO   H41  332   6.898   7.427  -0.937 -0.9172 -1.0526 -2.2085
    1CHTO   H42  333   6.742   7.352  -0.954  0.6059 -0.5837 -0.7215
    1CHTO   C22  334   6.664   7.412  -0.683  0.3625  0.3782  0.1960
    1CHTO   H50  335   6.720   7.335  -0.630  0.2317  0.3120  0.2403
    1CHTO   O14  336   6.608   7.501  -0.592 -0.3104 -0.2910 -0.4520
    1CHTO   C23  337   6.694   7.574  -0.504 -0.2526  0.1629 -0.1930
    1CHTO   H51  338   6.747   7.505  -0.437  0.1995  0.4670 -0.2345
    1CHTO   C34  339   6.611   7.675  -0.422  0.3171  1.2505  0.0157
    1CHTO   O23  340   6.543   7.599  -0.324 -0.2380 -0.5751 -0.4417
    1CHTO   H38  341   6.489   7.656  -0.272  1.8770  1.0547  0.0507
    1CHTO   O16  342   6.553   7.351  -0.750  0.1908  0.5929  0.8532
    1CHTO   C24  343   6.531   7.181  -0.721 -0.1639  0.8879  0.1465
    1CHTO   H52  344   6.625   7.131  -0.699 -1.1985 -1.2241 -0.1539
    1CHTO   C26  345   6.464   7.121  -0.842  0.2324  0.4513 -0.1893
    1CHTO   H54  346   6.370   7.176  -0.863 -0.7740 -0.5552  1.5419
    1CHTO   O20  347   6.555   7.143  -0.946  0.7847 -0.0911 -0.0399
    1CHTO   H36  348   6.545   7.232  -0.976  1.3633 -0.2679 -0.7823
    1CHTO   C30  349   6.439   6.970  -0.814 -0.1913 -0.7610  0.3663
    1CHTO   H58  350   6.535   6.918  -0.813  0.0949 -0.3521 -1.7874
    1CHTO    N6  351   6.356   6.909  -0.925 -0.4507  0.2580  0.2920
    1CHTO   H45  352   6.430   6.874  -0.995 -0.3478  1.1910 -0.0666
    1CHTO   H46  353   6.293   6.826  -0.896 -1.5233  0.8398 -0.3431
    1CHTO   C33  354   6.373   6.952  -0.672  0.2154  0.7728 -0.0332
    1CHTO   H61  355   6.273   6.997  -0.685 -0.2605 -0.1003  0.6177
    1CHTO   O18  356   6.440   7.023  -0.571  0.0713 -0.4329 -0.2410
    1CHTO   C28  357   6.447   7.163  -0.597  0.5997  0.0286  0.1104
    1CHTO   H56  358   6.346   7.199  -0.619  0.5083 -0.6398 -0.5803
    1CHTO   C35  359   6.492   7.229  -0.463  0.7649 -0.0251 -0.0620
    1CHTO   O24  360   6.388   7.230  -0.366  0.2639 -0.2075  0.4019
    1CHTO   H39  361   6.308   7.257  -0.406 -0.2319  0.2284  1.6729
    1CHTO    O9  362   6.347   6.817  -0.634 -0.0566  1.0079  0.7095
    1CHTO   C13  363   6.267   6.801  -0.493  0.4337 -0.2491  0.7887
    1CHTO   H26  364   6.175   6.863  -0.500 -1.4636 -3.3298 -3.0910
    1CHTO   C11  365   6.356   6.846  -0.365  0.0389  0.5016 -0.1242
    1CHTO   H24  366   6.361   6.955  -0.376 -0.6587  0.2945 -3.1527
    1CHTO    O8  367   6.493   6.805  -0.364  0.4973 -0.0292 -0.0349
    1CHTO    H3  368   6.530   6.835  -0.283 -0.7843 -1.3917  1.0732
    1CHTO    C9  369   6.275   6.813  -0.240  0.4777  0.6875 -0.0054
    1CHTO   H22  370   6.175   6.854  -0.262  0.3834  0.3701 -0.1754
    1CHTO    N2  371   6.317   6.875  -0.113  0.6156 -0.3079  0.2447
    1CHTO   H10  372   6.243   6.882  -0.035 -1.4225 -0.9805 -1.5548
    1CHTO   H11  373   6.413   6.838  -0.079  2.5268  2.7197 -1.5627
    1CHTO    C7  374   6.256   6.656  -0.232  0.7621  0.1140  0.0264
    1CHTO   H20  375   6.193   6.637  -0.143 -2.4806  0.5860 -2.0730
    1CHTO    O4  376   6.175   6.606  -0.342  0.0819  0.1162  0.4195
    1CHTO   C14  377   6.215   6.649  -0.480  0.3998  0.3827 -0.7216
    1CHTO   H27  378   6.122   6.639  -0.540 -0.2426 -2.0546  0.6330
    1CHTO   C18  379   6.312   6.546  -0.532 -0.1111 -0.1183  0.0932
    1CHTO   O13  380   6.265   6.419  -0.574 -0.2360  0.3637 -0.3583
    1CHTO    H7  381   6.261   6.359  -0.503  0.0082  0.9251  0.1329
    1CHTO    O2  382   6.387   6.566  -0.214  0.4773  0.4526 -0.3045
    1CHTO    C1  383   6.396   6.486  -0.104  0.7812 -0.3893  0.3011
    1CHTO   H14  384   6.294   6.477  -0.061  1.0854 -0.7712  0.9605
    1CHTO    C2  385   6.502   6.548   0.005  0.0039  0.4973 -0.1293
    1CHTO   H15  386   6.583   6.599  -0.050  1.2245 -0.6023  0.6219
    1CHTO    O6  387   6.439   6.657   0.073  0.3245 -0.0129 -0.3785
    1CHTO    H1  388   6.384   6.711   0.020 -1.8498 -0.0893  1.7503
    1CHTO    C3  389   6.555   6.438   0.110 -0.7620 -0.3473 -0.4699
    1CHTO   H16  390   6.476   6.421   0.184  0.5742  0.9282  1.3034
    1CHTO    N1  391   6.677   6.489   0.190  0.0897 -0.2999  0.2161
    1CHTO    H8  392   6.654   6.533   0.286 -1.3712 -1.0835  0.2265
    1CHTO    H9  393   6.744   6.552   0.133  0.4966 -1.2788 -0.3873
    1CHTO    C4  394   6.581   6.296   0.039  0.5032  0.2199  0.5666
    1CHTO   H17  395   6.666   6.308  -0.028  0.7646 -2.1278  0.4265
    1CHTO    O1  396   6.460   6.255  -0.024  0.3859 -0.0006  0.0508
    1CHTO    C5  397   6.434   6.337  -0.138  0.0382 -0.1986  0.0935
    1CHTO   H18  398   6.528   6.349  -0.191  0.5001 -0.5628  0.8337
    1CHTO   C16  399   6.334   6.271  -0.230 -0.1577 -0.0942 -0.0160
    1CHTO   O11  400   6.206   6.271  -0.163 -0.0889  0.0339  0.4092
    1CHTO    H5  401   6.140   6.215  -0.201 -0.0797 -0.5852  1.2839
    1CHTO    O3  402   6.601   6.189   0.130 -0.0150 -0.1894 -0.3813
    1CHTO    C6  403   6.682   6.073   0.082 -0.1997 -0.1549 -0.1239
    1CHTO   H19  404   6.700   6.082  -0.025  0.8056  1.5820  0.1723
    1CHTO    C8  405   6.820   6.075   0.154  0.1344 -0.0297 -0.2673
    1CHTO   H21  406   6.806   6.096   0.260 -1.7747  3.2519 -1.1044
    1CHTO    O7  407   6.888   6.185   0.101  0.2576 -0.3250 -0.1859
    1CHTO    H2  408   6.830   6.258   0.100  0.8725  0.2457  2.4846
    1CHTO   C12  409   6.904   5.943   0.121  0.4331 -0.0602  0.6141
    1CHTO   H25  410   6.917   5.953   0.011  3.0160 -0.7447  0.8338
    1CHTO    N3  411   7.032   5.941   0.192  0.1190 -0.0499  0.6184
    1CHTO   H12  412   7.092   6.026   0.164 -2.2026  0.5535 -2.9749
    1CHTO   H13  413   7.033   5.920   0.298  1.5836 -3.6392 -0.0299
    1CHTO   C15  414   6.818   5.813   0.150  0.8220  0.4159 -0.4263
    1CHTO   H28  415   6.806   5.788   0.255 -0.5752  1.7795 -0.2390
    1CHTO   O10  416   6.891   5.689   0.078  0.4256  0.0818 -0.1654
    1CHTO    H4  417   6.919   5.715  -0.007 -1.0194 -0.0409 -0.6985
    1CHTO    O5  418   6.697   5.825   0.070 -0.3830 -0.3066  0.0074
    1CHTO   C10  419   6.605   5.935   0.108 -0.2735  0.5125 -0.0947
    1CHTO   H23  420   6.577   5.916   0.212  0.9964  0.1540  0.1867
    1CHTO   C17  421   6.472   5.914   0.041 -0.0094 -0.2504  0.4561
    1CHTO   O12  422   6.475   5.916  -0.104  0.5173 -0.1901  0.3179
    1CHTO    H6  423   6.388   5.934  -0.134  1.1339  0.9151 -0.7950
    2CHTO  H203  424   3.913   4.260   1.446  0.4086  0.5951  0.2158
    2CHTO   O82  425   3.916   4.286   1.356  0.1206 -0.2356 -0.0342
    2CHTO  C123  426   3.912   4.428   1.358  0.2952 -0.0095 -0.6176
    2CHTO  H227  427   4.013   4.467   1.381  0.1460  0.5314 -0.8553
    2CHTO   O77  428   3.899   4.452   1.207  0.4957 -0.8018 -0.0797
    2CHTO  C118  429   3.914   4.593   1.173  0.3870  0.6633 -0.3114
    2CHTO  H222  430   4.017   4.620   1.199  0.1343  0.9283  0.4453
    2CHTO  C125  431   3.888   4.614   1.021 -0.2674  0.0077 -0.0041
    2CHTO   O84  432   3.954   4.509   0.955  0.4511 -0.2866 -0.1483
    2CHTO  H205  433   3.920   4.426   0.984  1.2777 -0.9683 -1.1119
    2CHTO  C114  434   3.810   4.679   1.253 -0.5380  0.9320 -0.2998
    2CHTO  H218  435   3.711   4.650   1.217 -0.3690 -0.3311  0.2415
    2CHTO  C116  436   3.812   4.650   1.407 -0.8198  0.4150  0.6498
    2CHTO  H220  437   3.904   4.694   1.452 -0.6206  1.0129 -0.3384
    2CHTO   O79  438   3.704   4.732   1.461  0.1298 -0.1928 -0.5154
    2CHTO  H201  439   3.717   4.825   1.456  1.0373 -0.2646  0.2673
    2CHTO  C120  440   3.798   4.497   1.439  0.0526 -0.0915  0.2133
    2CHTO  H224  441   3.702   4.464   1.394  0.8172 -2.0427 -0.0179
    2CHTO   N21  442   3.792   4.466   1.586 -0.4525  0.3298  0.0713
    2CHTO  H211  443   3.848   4.537   1.644  0.8689 -2.8895  2.9405
    2CHTO  H212  444   3.690   4.457   1.622 -2.1695  3.0587 -3.7353
    2CHTO   O75  445   3.840   4.817   1.219 -0.3275  1.1549  0.0612
    2CHTO  C112  446   3.697   4.901   1.143 -0.0752  0.4834  0.6249
    2CHTO  H216  447   3.621   4.920   1.220 -0.7495 -3.3052  0.9983
    2CHTO   O73  448   3.646   4.816   1.040 -0.1182  0.1350  0.4156
    2CHTO  C113  449   3.539   4.876   0.961 -0.1778 -0.3587  0.1996
    2CHTO  H217  450   3.443   4.892   1.015  0.0347  0.2815  0.3858
    2CHTO  C124  451   3.502   4.762   0.858 -0.1247  0.4053 -0.6036
    2CHTO   O83  452   3.432   4.652   0.916  0.3437 -0.4327  0.7043
    2CHTO  H204  453   3.380   4.618   0.846  1.9773  0.2691 -0.9054
    2CHTO  C109  454   3.588   5.009   0.888  0.3499  0.0207 -0.6581
    2CHTO  H213  455   3.669   4.981   0.819 -0.3192  0.2985 -1.5659
    2CHTO  C110  456   3.645   5.108   0.991  0.4184 -0.3066  0.1419
    2CHTO  H214  457   3.567   5.148   1.057  1.1374 -0.3801  1.0431
    2CHTO   O78  458   3.711   5.224   0.929 -0.3385 -0.5239  0.2373
    2CHTO  H200  459   3.651   5.273   0.877  0.3097  0.8500  0.7389
    2CHTO  C111  460   3.750   5.046   1.085 -0.2694 -0.2348  0.2242
    2CHTO  H215  461   3.840   5.028   1.024 -0.1442  0.5566  0.1699
    2CHTO   N19  462   3.794   5.127   1.205 -0.1832  0.3248 -0.4009
    2CHTO  H207  463   3.900   5.143   1.213 -0.1260 -0.4395  0.6040
    2CHTO  H208  464   3.748   5.222   1.230 -0.5539  0.4218 -1.4587
    2CHTO   O74  465   3.481   5.072   0.805 -0.1082  0.2719  0.1952
    2CHTO  C115  466   3.525   5.126   0.669 -0.2350 -0.2281 -0.4210
    2CHTO  H219  467   3.581   5.219   0.682  1.0432 -1.0879  0.3239
    2CHTO   O76  468   3.633   5.028   0.601 -0.1647  0.2958  0.4499
    2CHTO  C122  469   3.564   4.925   0.520 -0.0926  0.4807 -0.6444
    2CHTO  H226  470   3.497   4.872   0.587 -3.2094  2.1423 -2.3502
    2CHTO  C126  471   3.670   4.817   0.465  0.0950 -0.0774  0.3711
    2CHTO   O85  472   3.731   4.739   0.572  0.4333  0.0134  0.6011
    2CHTO  H206  473   3.776   4.665   0.537 -2.0306 -1.4006  0.3348
    2CHTO  C121  474   3.491   4.992   0.404  0.2785  0.5189  0.6296
    2CHTO  H225  475   3.555   4.989   0.314  0.5371  0.3858  0.8163
    2CHTO   O81  476   3.375   4.914   0.375  0.0658  0.1024 -0.1099
    2CHTO  H202  477   3.390   4.824   0.354 -1.2185 -0.7368  2.2718
    2CHTO  C119  478   3.449   5.141   0.427 -0.0003 -0.1042 -0.1498
    2CHTO  H223  479   3.531   5.210   0.411  1.4027 -1.2202  1.9629
    2CHTO  C117  480   3.401   5.154   0.572  0.0236 -0.4776  0.4040
    2CHTO  H221  481   3.322   5.085   0.597 -0.7712 -0.4826 -2.0083
    2CHTO   N20  482   3.333   5.288   0.598 -0.8001  0.2700  0.3395
    2CHTO  H209  483   3.245   5.312   0.541 -1.1932 -0.5138  0.6112
    2CHTO  H210  484   3.308   5.292   0.703 -1.5409  0.3290  0.1606
    2CHTO   O80  485   3.361   5.185   0.320 -0.3471  0.4693 -0.2753
    2CHTO  C103  486   3.419   5.215   0.169 -0.0820  0.3897 -0.0981
    2CHTO  H190  487   3.527   5.226   0.169 -0.0890  0.4520 -0.5794
    2CHTO  C101  488   3.382   5.107   0.058 -0.1082 -0.6964  0.1794
    2CHTO  H188  489   3.277   5.082   0.069 -0.0176 -0.8705  0.6451
    2CHTO   O68  490   3.471   4.960   0.073  0.2222 -0.0488 -0.7694
    2CHTO  H168  491   3.555   4.980   0.109 -0.3148 -1.4781  1.3488
    2CHTO   C99  492   3.418   5.154  -0.093  0.0219 -0.1144  0.3869
    2CHTO  H186  493   3.529   5.151  -0.091  0.0989  1.4744 -0.9778
    2CHTO   N17  494   3.374   5.062  -0.202  0.1620 -0.4004 -0.0626
    2CHTO  H174  495   3.284   5.108  -0.239 -0.9347 -1.8620  0.7593
    2CHTO  H175  496   3.452   5.071  -0.277  2.4346 -0.1133  2.2709
    2CHTO   C97  497   3.380   5.302  -0.107 -0.1822 -0.0965 -0.1459
    2CHTO  H184  498   3.273   5.313  -0.130  0.2549 -0.6941 -2.7033
    2CHTO   O64  499   3.421   5.388   0.005 -0.3016  0.4362  0.4581
    2CHTO  C104  500   3.352   5.350   0.126  0.0037  0.8185  0.5443
    2CHTO  H191  501   3.245   5.337   0.108  0.3841 -1.5878 -0.0507
    2CHTO  C108  502   3.356   5.455   0.235  0.3930 -0.1117  0.4245
    2CHTO   O71  503   3.314   5.584   0.182  0.0189 -0.5275  0.7565
    2CHTO  H171  504   3.311   5.642   0.255 -1.5929 -1.4470  1.4537
    2CHTO   O62  505   3.456   5.365  -0.213  0.4716  0.0722 -0.0682
    2CHTO   C91  506   3.404   5.481  -0.281  0.7482  0.2395  0.7876
    2CHTO  H178  507   3.321   5.529  -0.229  1.2796  0.2597  1.6238
    2CHTO   C92  508   3.358   5.451  -0.427  0.0132  0.6055 -0.1513
    2CHTO  H179  509   3.445   5.410  -0.480 -0.2025  1.1042 -0.8947
    2CHTO   O66  510   3.261   5.344  -0.428  0.5363 -0.1500  0.0312
    2CHTO  H166  511   3.179   5.387  -0.439 -0.2016 -0.8957  2.3219
    2CHTO   C93  512   3.293   5.576  -0.500 -0.4800 -0.0943 -0.8246
    2CHTO  H180  513   3.196   5.594  -0.451 -0.8391 -1.6147 -0.9392
    2CHTO   N16  514   3.247   5.558  -0.641 -0.3712  0.6666  0.6483
    2CHTO  H172  515   3.205   5.650  -0.679 -0.0507 -0.4973 -2.6681
    2CHTO  H173  516   3.337   5.531  -0.694  0.1901  2.6064  0.5840
    2CHTO   C94  517   3.387   5.703  -0.486  0.1089 -0.2559  0.3284
    2CHTO  H181  518   3.465   5.708  -0.561  0.3258 -0.4363  0.5387
    2CHTO   O61  519   3.456   5.714  -0.360  0.2457 -0.0135  0.1112
    2CHTO   C95  520   3.517   5.595  -0.306  0.3703  0.5926 -0.3183
    2CHTO  H182  521   3.595   5.564  -0.376 -0.0953 -0.7074 -0.2666
    2CHTO  C106  522   3.590   5.647  -0.181 -0.6819 -0.4737 -0.8036
    2CHTO   O69  523   3.630   5.540  -0.097  0.8471  0.1643  0.6225
    2CHTO  H169  524   3.582   5.550  -0.017 -1.4124  0.5837 -0.7251
    2CHTO   O63  525   3.294   5.846  -0.500 -0.3284 -0.0114  0.4795
    2CHTO   C96  526   3.163   5.880  -0.391  0.4121 -0.1918  0.5478
    2CHTO  H183  527   3.152   5.794  -0.325  0.7630 -0.9540 -0.3620
    2CHTO   C98  528   3.032   5.912  -0.474 -0.1110  0.3591  0.5598
    2CHTO  H185  529   3.051   5.976  -0.561 -1.8366  0.0566 -0.0420
    2CHTO   O67  530   2.976   5.789  -0.524 -0.0480 -0.4312  0.5176
    2CHTO  H167  531   3.028   5.757  -0.595 -0.0038 -0.1171  0.4083
    2CHTO  C102  532   2.923   5.978  -0.377 -0.1055  0.1300  0.6743
    2CHTO  H189  533   2.907   5.912  -0.291  1.9729 -0.8806  0.3212
    2CHTO   N18  534   2.787   6.003  -0.439 -0.5779 -1.1732 -0.7308
    2CHTO  H176  535   2.797   6.075  -0.518  0.0177 -0.3842  0.0541
    2CHTO  H177  536   2.717   6.055  -0.375 -1.7517 -0.6216 -2.4380
    2CHTO  C105  537   2.991   6.108  -0.328 -0.2261 -0.1628  0.2929
    2CHTO  H192  538   3.036   6.170  -0.406 -1.4250  0.2850 -0.0476
    2CHTO   O65  539   3.101   6.071  -0.245  0.0873 -0.1920  0.0409
    2CHTO  C100  540   3.212   6.006  -0.312 -0.0543  0.1078 -0.9880
    2CHTO  H187  541   3.266   6.072  -0.381 -0.4878 -0.1987 -1.6195
    2CHTO  C107  542   3.316   5.970  -0.198  0.2825  0.8956 -0.5326
    2CHTO   O70  543   3.443   5.975  -0.254 -0.0203 -0.4244 -0.2474
    2CHTO  H170  544   3.506   5.956  -0.188  1.7864  0.0845 -1.7718
    2CHTO   O57  545   2.863   6.213  -0.246  0.4348  0.1531 -0.6575
    2CHTO   C85  546   2.881   6.311  -0.144 -0.2037  0.1177  0.4046
    2CHTO  H157  547   2.777   6.349  -0.134 -0.2601 -0.3589  1.7671
    2CHTO   C83  548   2.972   6.434  -0.174  0.2731  0.2279 -0.0172
    2CHTO  H155  549   2.936   6.487  -0.262  0.8930 -0.2930 -0.5825
    2CHTO   O56  550   3.102   6.387  -0.213 -0.2311 -0.0194  0.4542
    2CHTO  H135  551   3.164   6.395  -0.143  0.7902  1.1947 -0.5739
    2CHTO   C81  552   2.965   6.528  -0.051  0.0443  0.1709 -0.5542
    2CHTO  H153  553   2.858   6.550  -0.041 -0.0687 -0.7244  0.2823
    2CHTO   N14  554   3.039   6.656  -0.076  0.3471  0.5894  0.4466
    2CHTO  H141  555   3.024   6.702  -0.172 -2.9918 -1.8109 -0.2710
    2CHTO  H142  556   3.020   6.731  -0.002 -0.4772  2.0696 -1.2178
    2CHTO   C79  557   3.012   6.460   0.081  0.6615  0.5376  0.7865
    2CHTO  H151  558   3.002   6.531   0.162 -0.7398  1.4322 -0.1468
    2CHTO   O52  559   2.932   6.336   0.108  0.9383 -0.4469  0.1204
    2CHTO   C86  560   2.929   6.245  -0.008  0.3211 -0.4125  0.5691
    2CHTO  H158  561   3.033   6.209  -0.016  0.7296  1.1013 -1.3308
    2CHTO   C90  562   2.846   6.116   0.017 -0.0073 -0.5126 -0.4576
    2CHTO   O60  563   2.712   6.150   0.053  0.2036 -0.2342 -0.5710
    2CHTO  H138  564   2.685   6.225   0.004  1.1934  0.0786 -0.6521
    2CHTO   O50  565   3.149   6.424   0.079 -0.0423 -0.1737  0.0099
    2CHTO   C73  566   3.265   6.467   0.152  0.4447  0.4330  0.5844
    2CHTO  H145  567   3.240   6.565   0.197 -1.9357 -0.3572  1.0881
    2CHTO   C74  568   3.371   6.485   0.041 -0.4860  0.1199  0.2892
    2CHTO  H146  569   3.333   6.549  -0.040  0.6969  1.2488  0.6156
    2CHTO   O54  570   3.479   6.561   0.098  0.1680  0.0114 -0.5299
    2CHTO  H133  571   3.562   6.557   0.054  1.7907 -3.7969  2.4662
    2CHTO   C75  572   3.412   6.336  -0.006 -0.4944 -0.3096  0.4636
    2CHTO  H147  573   3.331   6.294  -0.067  0.4921 -0.0033 -1.0673
    2CHTO   N13  574   3.526   6.324  -0.098 -0.7050  0.8995 -0.2348
    2CHTO  H139  575   3.520   6.417  -0.151  0.1077  3.1261  3.3723
    2CHTO  H140  576   3.623   6.327  -0.049 -0.7457  0.0772 -0.0866
    2CHTO   C76  577   3.438   6.239   0.120 -0.7545 -0.2904 -0.1527
    2CHTO  H148  578   3.525   6.277   0.174 -1.2807  0.1873  0.3612
    2CHTO   O49  579   3.317   6.242   0.204  0.0176 -0.6766 -0.1137
    2CHTO   C77  580   3.298   6.366   0.260 -0.2080  0.0694  0.4498
    2CHTO  H149  581   3.385   6.396   0.320 -1.0821  1.2421  1.1541
    2CHTO   C88  582   3.180   6.353   0.359 -0.6089 -0.1837 -0.2335
    2CHTO   O58  583   3.188   6.469   0.458 -0.4224  0.2326  0.0636
    2CHTO  H136  584   3.134   6.471   0.535  0.5341  1.2149  0.7276
    2CHTO   O51  585   3.458   6.086   0.076  0.2498  0.4186  0.0307
    2CHTO   C78  586   3.504   5.997   0.201  0.2092  0.1389  0.9339
    2CHTO  H150  587   3.518   6.056   0.293 -0.6581 -0.9203  1.7684
    2CHTO   C80  588   3.643   5.939   0.157  0.2773 -0.4969  0.5888
    2CHTO  H152  589   3.625   5.869   0.073 -0.6538  0.2867  0.1227
    2CHTO   O55  590   3.724   6.050   0.118  0.8572 -0.4350  0.2276
    2CHTO  H134  591   3.709   6.084   0.032 -2.8121 -0.8791  0.6356
    2CHTO   C84  592   3.709   5.864   0.285 -0.7469  0.0398  0.0673
    2CHTO  H156  593   3.730   5.945   0.355 -1.9487  1.1026 -0.7910
    2CHTO   N15  594   3.846   5.814   0.244 -0.4905 -0.4472 -0.1733
    2CHTO  H143  595   3.881   5.839   0.146  2.2860  1.1207  1.1614
    2CHTO  H144  596   3.861   5.711   0.267 -1.1507  0.0643  2.8699
    2CHTO   C87  597   3.622   5.748   0.337  0.0536 -0.3121  0.0659
    2CHTO  H159  598   3.627   5.657   0.278  2.6756 -0.5353  0.5712
    2CHTO   O53  599   3.463   5.804   0.351 -0.4228 -0.5675  0.1722
    2CHTO   C82  600   3.411   5.882   0.243  0.1914  0.8694 -0.5204
    2CHTO  H154  601   3.390   5.813   0.161  1.3569  1.4454 -1.3100
    2CHTO   C89  602   3.276   5.930   0.305 -0.5472 -0.5871 -0.1550
    2CHTO   O59  603   3.179   5.958   0.206  0.1519 -0.3996  0.4565
    2CHTO  H137  604   3.120   5.890   0.182  1.4848 -1.2897 -0.3070
    2CHTO   O45  605   3.690   5.709   0.496  0.2128  0.1908 -0.0347
    2CHTO   C67  606   3.620   5.746   0.613  0.0797  0.0805 -0.0318
    2CHTO  H124  607   3.558   5.833   0.586 -1.1706 -0.3164  1.4944
    2CHTO   C65  608   3.529   5.625   0.670  0.4353 -0.5458 -0.3236
    2CHTO  H122  609   3.585   5.538   0.637 -0.1399 -0.7144 -0.8609
    2CHTO   O44  610   3.409   5.627   0.594 -0.2542 -0.1643  0.5198
    2CHTO  H102  611   3.353   5.699   0.616 -2.1116 -0.7714 -2.0843
    2CHTO   C63  612   3.523   5.616   0.829  0.0858 -0.9070  0.0240
    2CHTO  H120  613   3.610   5.556   0.854  0.0667 -0.6719  0.6538
    2CHTO   N11  614   3.412   5.530   0.883  0.3820 -0.4246  0.4968
    2CHTO  H108  615   3.431   5.437   0.834  0.0149  0.0564 -0.5615
    2CHTO  H109  616   3.403   5.529   0.990  1.3945 -0.8555  0.5944
    2CHTO   C61  617   3.540   5.759   0.893  0.1083 -0.8437  0.4533
    2CHTO  H118  618   3.563   5.739   0.998 -0.5258  0.5804  0.8837
    2CHTO   O40  619   3.642   5.841   0.847 -0.1798  0.6024  0.1665
    2CHTO   C68  620   3.715   5.797   0.731 -0.0891  0.4408  0.3435
    2CHTO  H125  621   3.779   5.714   0.768 -0.5951 -0.6734 -1.1996
    2CHTO   C72  622   3.804   5.918   0.690 -0.1983  0.6143 -0.7205
    2CHTO   O48  623   3.902   5.883   0.593  0.5682 -0.3885 -0.3089
    2CHTO  H105  624   3.975   5.832   0.623 -1.8167 -2.1428  2.8258
    2CHTO   O38  625   3.424   5.834   0.884 -0.5053  0.2328  0.5278
    2CHTO   C55  626   3.399   5.947   0.975 -0.2623  0.6827  0.4167
    2CHTO  H112  627   3.496   5.989   1.005 -0.5211  2.3761 -1.0740
    2CHTO   C56  628   3.313   5.902   1.104 -0.2913  0.0442 -0.4101
    2CHTO  H113  629   3.225   5.852   1.062 -1.1870  0.6271  0.7590
    2CHTO   O42  630   3.393   5.804   1.174 -0.0614 -0.1968 -0.0788
    2CHTO  H100  631   3.486   5.809   1.160 -0.4234  2.5542 -1.7220
    2CHTO   C57  632   3.274   6.031   1.198 -0.5488  0.3928 -0.3818
    2CHTO  H114  633   3.363   6.071   1.247 -0.7037  0.1262  0.1178
    2CHTO   N10  634   3.187   5.998   1.312  0.1367 -0.5597 -0.2782
    2CHTO  H106  635   3.241   5.968   1.400 -1.9282 -0.3953  1.0859
    2CHTO  H107  636   3.115   6.074   1.339 -0.2657 -0.8710 -0.4541
    2CHTO   C58  637   3.214   6.143   1.113 -0.0345 -0.3739  0.4444
    2CHTO  H115  638   3.107   6.122   1.093 -0.1402  0.0945  0.5161
    2CHTO   O37  639   3.292   6.170   0.994  0.3065  0.4378 -0.0237
    2CHTO   C59  640   3.320   6.060   0.901  0.5473 -0.7034 -0.3674
    2CHTO  H116  641   3.225   6.013   0.874  0.7705 -1.3629 -0.0125
    2CHTO   C70  642   3.397   6.103   0.771  0.0838  0.2373  0.2508
    2CHTO   O46  643   3.316   6.106   0.652  0.2216  0.4142 -0.2054
    2CHTO  H103  644   3.250   6.172   0.645  0.0276  0.1635 -0.8145
    2CHTO   O39  645   3.218   6.279   1.197  0.5410 -0.1114 -0.0238
    2CHTO   C60  646   3.126   6.382   1.152 -0.7119  0.2179  0.0541
    2CHTO  H117  647   3.150   6.393   1.047  1.3318 -2.0620  0.2336
    2CHTO   C62  648   2.971   6.352   1.175 -0.2597  0.1217 -0.6228
    2CHTO  H119  649   2.940   6.263   1.116 -1.8392  2.2048 -3.0192
    2CHTO   O43  650   2.947   6.326   1.316  0.0889  0.1409 -0.4850
    2CHTO  H101  651   2.863   6.285   1.320 -0.4038  1.1105 -0.6060
    2CHTO   C66  652   2.900   6.486   1.108 -0.6553  0.8167 -0.4137
    2CHTO  H123  653   2.931   6.494   1.004 -1.3979  1.9190 -0.5576
    2CHTO   N12  654   2.754   6.481   1.122 -0.5528  0.1814  0.2983
    2CHTO  H110  655   2.727   6.502   1.225  1.1332 -0.2378  0.8565
    2CHTO  H111  656   2.709   6.554   1.057 -1.2179 -2.0021 -1.7834
    2CHTO   C69  657   2.950   6.618   1.178  0.7993 -0.3923  0.2609
    2CHTO  H126  658   2.919   6.619   1.285 -1.7805  1.0892 -0.4533
    2CHTO   O41  659   3.084   6.635   1.176 -0.4971  0.1082 -0.1715
    2CHTO   C64  660   3.173   6.516   1.220  0.5972  0.3912 -0.4388
    2CHTO  H121  661   3.166   6.508   1.330  0.6149 -1.3979 -0.5657
    2CHTO   C71  662   3.320   6.548   1.186 -0.8271 -0.2639  0.0850
    2CHTO   O47  663   3.376   6.657   1.267  0.3970 -0.4605  0.0418
    2CHTO  H104  664   3.307   6.713   1.295 -0.6777 -1.1305 -1.2109
    2CHTO   O34  665   2.890   6.755   1.103 -0.2185 -0.2726  0.3980
    2CHTO   C49  666   2.816   6.863   1.188 -0.5254 -0.1063  0.3291
    2CHTO   H91  667   2.779   6.811   1.277 -2.5040 -0.4539 -0.6556
    2CHTO   C47  668   2.695   6.914   1.104  0.9746 -0.6730  1.1748
    2CHTO   H89  669   2.630   6.988   1.155  1.3826  1.1605 -0.8665
    2CHTO   O33  670   2.613   6.806   1.064 -0.4195 -0.0024  0.3658
    2CHTO   H70  671   2.536   6.803   1.119 -0.4322 -1.1911  0.2986
    2CHTO   C45  672   2.756   6.993   0.974  0.0857  0.1060 -0.3176
    2CHTO   H87  673   2.816   6.918   0.921 -0.8593  0.1382 -1.4381
    2CHTO    N8  674   2.653   7.043   0.890  0.3987 -0.1322  0.4162
    2CHTO   H75  675   2.699   7.059   0.794  0.7999 -3.4559 -0.0047
    2CHTO   H76  676   2.588   6.957   0.894  3.4424 -2.4563  2.5232
    2CHTO   C43  677   2.873   7.105   1.008  0.6263 -0.8913 -0.0011
    2CHTO   H85  678   2.923   7.129   0.915 -4.6411 -0.6252 -2.9301
    2CHTO   O29  679   2.957   7.059   1.114  0.1515 -0.0601 -0.4425
    2CHTO   C50  680   2.916   6.981   1.229  0.1434  0.2704 -0.7569
    2CHTO   H92  681   3.001   6.930   1.276 -0.0288  0.2595 -0.4543
    2CHTO   C54  682   2.861   7.071   1.342  0.3232  0.1547  0.1010
    2CHTO   O36  683   2.949   7.171   1.375  0.3431  0.4511 -0.6776
    2CHTO   H72  684   2.905   7.247   1.410 -0.3080 -0.2494  0.0363
    2CHTO   O27  685   2.808   7.223   1.064 -0.2428  0.7213  0.2212
    2CHTO   C37  686   2.782   7.362   1.064  0.6736 -0.2596 -0.3769
    2CHTO   H79  687   2.748   7.399   0.966  0.2561  0.1575 -0.0807
    2CHTO   C38  688   2.667   7.393   1.169  0.0268  0.3499 -0.7015
    2CHTO   H80  689   2.696   7.358   1.270 -1.2859  0.9612 -0.1096
    2CHTO   O31  690   2.560   7.314   1.127  0.1458  0.0936  0.0022
    2CHTO   H68  691   2.484   7.329   1.180 -0.8301 -1.3353 -0.9490
    2CHTO   C39  692   2.652   7.550   1.177  0.4251 -0.1676  0.5874
    2CHTO   H81  693   2.623   7.566   1.073 -2.0746 -2.9580  0.7804
    2CHTO    N7  694   2.539   7.603   1.259 -0.1275  0.2422  0.5686
    2CHTO   H73  695   2.443   7.555   1.244  0.1242  0.4591 -1.8161
    2CHTO   H74  696   2.550   7.710   1.261 -1.1036  0.3725 -0.5808
    2CHTO   C40  697   2.790   7.619   1.197 -0.4838  0.4244 -0.2113
    2CHTO   H82  698   2.827   7.590   1.296 -2.4875 -2.6777 -0.3065
    2CHTO   O26  699   2.875   7.573   1.087 -0.2485  0.3135 -0.0616
    2CHTO   C41  700   2.911   7.436   1.102 -0.1416  0.3074  0.1049
    2CHTO   H83  701   2.947   7.405   1.201 -0.7786  2.3237  1.0091
    2CHTO   C52  702   3.036   7.418   1.010 -0.5971  0.2710  0.0637
    2CHTO   O35  703   3.020   7.440   0.886  0.0603  0.0443  0.2120
    2CHTO   H71  704   3.095   7.433   0.830  0.2452 -0.2436  0.4922
    2CHTO   O28  705   2.786   7.762   1.188 -0.2360 -0.3081 -0.7017
    2CHTO   C42  706   2.891   7.851   1.238 -0.6696  0.7618 -0.4034
    2CHTO   H84  707   2.877   7.945   1.185  1.3414  0.0245 -2.3332
    2CHTO   C44  708   3.043   7.807   1.208 -0.0701  0.4556 -0.1771
    2CHTO   H86  709   3.061   7.708   1.249 -2.2909  0.1019  0.0097
    2CHTO   O32  710   3.052   7.795   1.062 -0.7180 -0.1136  0.5551
    2CHTO   H69  711   3.074   7.875   1.019 -1.7116 -1.3288 -2.3861
    2CHTO   C48  712   3.149   7.902   1.272 -0.0954  0.5995  0.3899
    2CHTO   H90  713   3.137   8.001   1.229  1.8048 -0.0124 -1.5958
    2CHTO    N9  714   3.295   7.870   1.238  0.0491 -0.0014  0.0023
    2CHTO   H77  715   3.300   7.882   1.130  0.4183 -0.2497 -0.0080
    2CHTO   H78  716   3.359   7.947   1.277 -0.9654  3.0840 -3.9705
    2CHTO   C51  717   3.115   7.925   1.426 -0.0671  1.0328 -0.1298
    2CHTO   H93  718   3.121   7.833   1.483  3.4776  2.4284  1.8910
    2CHTO   O30  719   2.988   7.981   1.440 -0.7721  0.4500 -0.3383
    2CHTO   C46  720   2.872   7.879   1.391 -0.5574  0.0903 -0.0143
    2CHTO   H88  721   2.882   7.781   1.439  0.3027  0.6573  0.9851
    2CHTO   C53  722   2.738   7.949   1.432  0.2175  0.2018  0.1338
    2CHTO   O72  723   2.690   8.062   1.354 -0.3358  0.1118 -0.3890
    2CHTO  H199  724   2.601   8.084   1.373  0.0304  1.4222 -0.1569
    2CHTO   O22  725   3.207   8.017   1.490  0.7892  0.3669  0.2418
    2CHTO   C31  726   3.232   8.012   1.631 -0.2240  0.3607 -0.4198
    2CHTO   H59  727   3.314   8.083   1.654 -0.4373  0.6827 -0.6370
    2CHTO   C29  728   3.112   8.069   1.716 -0.4140  0.4630  0.0546
    2CHTO   H57  729   3.028   8.005   1.688 -1.6578  0.8538  2.6972
    2CHTO   O21  730   3.066   8.195   1.664  0.6846 -0.3925 -0.1510
    2CHTO   H37  731   2.980   8.210   1.699  1.2440 -1.5110  1.7628
    2CHTO   C27  732   3.126   8.048   1.870 -0.0008 -0.1969 -0.2791
    2CHTO   H55  733   3.186   8.129   1.914 -3.8974  1.6578  1.9837
    2CHTO    N5  734   3.001   8.064   1.942 -0.0931  0.3400  0.2545
    2CHTO   H43  735   2.990   8.170   1.963 -0.3266  0.2454  0.5963
    2CHTO   H44  736   2.914   8.022   1.894  0.8026  0.0774 -1.1598
    2CHTO   C25  737   3.183   7.902   1.906 -0.4567 -0.4817  0.4053
    2CHTO   H53  738   3.104   7.831   1.879 -1.0671 -0.2529  1.5632
    2CHTO   O17  739   3.300   7.883   1.826 -0.1334  0.1663 -0.0600
    2CHTO   C32  740   3.276   7.870   1.688  0.0903 -0.8376 -0.3812
    2CHTO   H60  741   3.193   7.799   1.680 -0.3577 -0.2860 -0.6212
    2CHTO   C36  742   3.394   7.814   1.609  0.2634  0.1366  0.7367
    2CHTO   O25  743   3.417   7.677   1.646  0.0655 -0.2653  0.2316
    2CHTO   H40  744   3.335   7.639   1.671 -0.2813  0.5298  0.3071
    2CHTO   O15  745   3.217   7.881   2.064 -0.4934  0.4854  0.0523
    2CHTO   C19  746   3.267   7.816   2.190  0.0499 -0.2852  0.3994
    2CHTO   H47  747   3.239   7.710   2.183  0.2055 -0.4395  1.8816
    2CHTO   C20  748   3.421   7.831   2.210 -0.2602 -0.8893 -0.4288
    2CHTO   H48  749   3.451   7.936   2.217  0.3129 -1.1385  0.9334
    2CHTO   O19  750   3.485   7.765   2.097 -0.0017  0.2219  0.3094
    2CHTO   H35  751   3.578   7.769   2.102  0.1757 -2.6039 -0.3806
    2CHTO   C21  752   3.474   7.749   2.341  0.2465 -0.8017 -0.8443
    2CHTO   H49  753   3.446   7.645   2.327  0.2225 -0.8460 -0.4853
    2CHTO    N4  754   3.623   7.754   2.355 -0.1394  0.4109  0.1085
    2CHTO   H41  755   3.660   7.716   2.261 -0.7288  0.7504 -0.2619
    2CHTO   H42  756   3.651   7.857   2.370  1.5789 -0.0279 -0.0238
    2CHTO   C22  757   3.397   7.826   2.455  0.2809  0.0986  0.0007
    2CHTO   H50  758   3.430   7.929   2.461  1.4280 -0.1784 -1.1932
    2CHTO   O14  759   3.252   7.812   2.440 -0.3008 -0.2563  0.1538
    2CHTO   C23  760   3.196   7.870   2.320  0.0624  0.0500 -0.0225
    2CHTO   H51  761   3.206   7.979   2.331 -0.0157 -0.2721  4.2716
    2CHTO   C34  762   3.049   7.827   2.330  0.3258  0.0802  1.2735
    2CHTO   O23  763   2.981   7.890   2.227 -0.2372  0.7172 -0.1554
    2CHTO   H38  764   3.008   7.979   2.213 -1.5384  1.2296  0.5367
    2CHTO   O16  765   3.429   7.775   2.589 -0.2814  0.1855 -0.2312
    2CHTO   C24  766   3.413   7.869   2.717 -0.0803 -0.0972  1.3025
    2CHTO   H52  767   3.361   7.961   2.691  0.9868  0.1927  0.1719
    2CHTO   C26  768   3.553   7.904   2.783  0.4431  0.6184  0.3203
    2CHTO   H54  769   3.613   7.814   2.803 -2.1321 -1.3932 -0.7440
    2CHTO   O20  770   3.625   7.989   2.690 -0.0713  0.6169 -0.1028
    2CHTO   H36  771   3.585   8.073   2.677 -0.0446  1.1716  2.9951
    2CHTO   C30  772   3.540   7.980   2.921  0.0999 -0.0259  0.1381
    2CHTO   H58  773   3.504   8.083   2.905 -2.5140 -0.6395  1.7319
    2CHTO    N6  774   3.668   7.994   2.999  0.2830  0.0034 -0.3700
    2CHTO   H45  775   3.687   8.097   3.026  0.7601 -0.3206  0.5370
    2CHTO   H46  776   3.753   7.967   2.938  0.0325 -2.0201  0.1312
    2CHTO   C33  777   3.437   7.907   3.019  0.0621 -0.1525  0.0666
    2CHTO   H61  778   3.481   7.811   3.051  0.3383 -0.3795 -1.0014
    2CHTO   O18  779   3.314   7.878   2.956  0.3144 -0.0328 -0.3973
    2CHTO   C28  780   3.327   7.803   2.831 -0.0341  0.7716 -0.1995
    2CHTO   H56  781   3.375   7.707   2.849  0.4966  0.9386 -0.7114
    2CHTO   C35  782   3.186   7.766   2.778  0.2062 -0.7618  0.0563
    2CHTO   O24  783   3.095   7.879   2.747  0.4357  1.0380 -0.4898
    2CHTO   H39  784   3.133   7.927   2.676 -0.3462  1.8363 -0.3866
    2CHTO    O9  785   3.414   7.980   3.141  0.1650  0.3045  0.8417
    2CHTO   C13  786   3.346   7.894   3.258  0.7830  0.3221 -0.0540
    2CHTO   H26  787   3.380   7.790   3.243  1.9681  0.4806  1.4057
    2CHTO   C11  788   3.179   7.901   3.263  0.6865  0.0265  0.1305
    2CHTO   H24  789   3.150   7.853   3.168 -1.8433  5.1389 -1.8888
    2CHTO    O8  790   3.125   8.030   3.261  0.9375 -0.2999  0.1592
    2CHTO    H3  791   3.160   8.089   3.326 -0.1277 -0.5730  1.0056
    2CHTO    C9  792   3.130   7.811   3.376  0.8912 -0.7311  0.9628
    2CHTO   H22  793   3.175   7.714   3.351 -0.9134 -1.4158  0.3079
    2CHTO    N2  794   2.986   7.770   3.371 -0.3620 -0.1415 -0.2281
    2CHTO   H10  795   2.969   7.694   3.446  1.6786  0.1513  0.5722
    2CHTO   H11  796   2.927   7.853   3.406 -0.1947 -0.8194  1.7518
    2CHTO    C7  797   3.178   7.875   3.513 -0.2127  0.4928  0.7119
    2CHTO   H20  798   3.138   7.806   3.590 -1.0080  0.5407  0.3484
    2CHTO    O4  799   3.317   7.895   3.522  0.5258  0.3779  0.1773
    2CHTO   C14  800   3.399   7.925   3.404 -0.4554  0.0300  0.0705
    2CHTO   H27  801   3.492   7.867   3.416 -1.2699 -1.6821 -1.7138
    2CHTO   C18  802   3.439   8.072   3.419 -0.8799 -0.4061 -0.7550
    2CHTO   O13  803   3.547   8.070   3.522 -0.7146  0.4414  0.1503
    2CHTO    H7  804   3.498   8.083   3.601 -2.9728  0.9399 -1.2711
    2CHTO    O2  805   3.090   8.025   3.548 -0.1757  0.4003  0.5875
    2CHTO    C1  806   3.045   8.040   3.678  0.0521  0.1948 -0.6677
    2CHTO   H14  807   3.080   7.952   3.737 -0.7422  0.5249  0.3142
    2CHTO    C2  808   2.885   8.055   3.679 -0.1433 -0.1810 -0.0024
    2CHTO   H15  809   2.866   8.137   3.607 -2.8984  1.1853  2.1742
    2CHTO    O6  810   2.817   7.943   3.625  0.0458 -0.5608  0.4491
    2CHTO    H1  811   2.730   7.959   3.594 -0.7724 -0.7681  2.5816
    2CHTO    C3  812   2.836   8.097   3.826  0.4596 -0.4308  0.6226
    2CHTO   H16  813   2.855   8.005   3.882  1.2371  0.5209  1.9706
    2CHTO    N1  814   2.692   8.141   3.822 -0.0917 -0.9905 -0.2019
    2CHTO    H8  815   2.679   8.244   3.791 -2.0322  0.1461  3.9726
    2CHTO    H9  816   2.623   8.062   3.795 -0.5481 -0.3977 -0.8106
    2CHTO    C4  817   2.931   8.204   3.897 -0.0481 -0.0158  0.1495
    2CHTO   H17  818   2.911   8.304   3.858 -1.1007 -0.3311 -0.1266
    2CHTO    O1  819   3.069   8.167   3.891  0.4061  0.1740  0.5119
    2CHTO    C5  820   3.120   8.156   3.756  0.1680 -0.0172 -0.2383
    2CHTO   H18  821   3.096   8.246   3.700  0.4582  1.8926  2.5822
    2CHTO   C16  822   3.273   8.147   3.767  0.1632  0.2188  0.5552
    2CHTO   O11  823   3.330   8.277   3.808 -0.2024  0.3088  0.2089
    2CHTO    H5  824   3.378   8.306   3.733  1.8504 -2.1383  0.5248
    2CHTO    O3  825   2.918   8.206   4.040 -0.2463 -0.3038 -0.6036
    2CHTO    C6  826   2.962   8.336   4.102  0.2284  0.2742  0.8610
    2CHTO   H19  827   3.013   8.396   4.027  1.8378 -0.1130  1.6283
    2CHTO    C8  828   2.828   8.407   4.151 -0.5175 -0.7480  0.4298
    2CHTO   H21  829   2.771   8.332   4.206 -0.0112  0.1382  2.2014
    2CHTO    O7  830   2.761   8.449   4.033  0.1506 -0.2183  0.0706
    2CHTO    H2  831   2.668   8.436   4.035  0.1990 -1.1062 -2.6397
    2CHTO   C12  832   2.858   8.526   4.249  0.0534 -0.2973 -0.3265
    2CHTO   H25  833   2.902   8.601   4.181  0.5395 -1.8892 -1.7813
    2CHTO    N3  834   2.732   8.581   4.309 -0.4126 -0.2899 -0.7577
    2CHTO   H12  835   2.703   8.683   4.293 -0.1182 -0.1348 -0.3302
    2CHTO   H13  836   2.648   8.515   4.324 -0.6494 -0.2398 -1.8661
    2CHTO   C15  837   2.955   8.482   4.356 -0.2962  0.4033 -0.1527
    2CHTO   H28  838   2.909   8.417   4.431 -0.3504  0.1613 -0.3988
    2CHTO   O10  839   3.026   8.613   4.436  0.0855  0.0509 -0.3488
    2CHTO    H4  840   3.070   8.665   4.373  1.4686 -0.9144 -0.2116
    2CHTO    O5  841   3.074   8.429   4.296 -0.0940 -0.1666 -0.1461
    2CHTO   C10  842   3.062   8.318   4.211  0.0879 -0.2011  0.3014
    2CHTO   H23  843   3.025   8.233   4.270 -1.4996  0.7890  0.7725
    2CHTO   C17  844   3.206   8.299   4.164 -0.6872  0.2874  0.2268
    2CHTO   O12  845   3.269   8.416   4.113  0.4131 -0.1546 -0.1322
    2CHTO    H6  846   3.270   8.490   4.171 -0.5449  0.8492 -1.3764
    3CHTO  H203  847   6.850   2.611   2.756 -0.3517 -0.0204  1.2174
    3CHTO   O82  848   6.824   2.616   2.665 -0.1265 -0.1470  1.1465
    3CHTO  C123  849   6.878   2.508   2.588 -0.0775  0.2774  0.9339
    3CHTO  H227  850   6.983   2.499   2.619 -0.3147  0.6276  1.8442
    3CHTO   O77  851   6.805   2.399   2.646 -0.1240  0.3920 -0.2647
    3CHTO  C118  852   6.828   2.267   2.594 -0.0092 -0.1852 -0.9084
    3CHTO  H222  853   6.933   2.237   2.587 -0.0732 -0.6459 -0.0453
    3CHTO  C125  854   6.761   2.174   2.704 -0.7818 -0.0176 -0.0478
    3CHTO   O84  855   6.843   2.180   2.828  0.3787  0.4519  0.2748
    3CHTO  H205  856   6.784   2.178   2.901 -0.5776  1.0156 -0.4632
    3CHTO  C114  857   6.757   2.261   2.462  0.5934 -0.3564  0.3587
    3CHTO  H218  858   6.650   2.278   2.470  0.6893  0.8571 -0.6371
    3CHTO  C116  859   6.807   2.366   2.367 -1.1545 -0.5894 -0.4939
    3CHTO  H220  860   6.906   2.333   2.327 -0.0512  1.6923  0.2893
    3CHTO   O79  861   6.719   2.371   2.255  0.5895  0.0934  0.5307
    3CHTO  H201  862   6.759   2.416   2.183  0.7884 -0.4786  0.2872
    3CHTO  C120  863   6.823   2.509   2.435  0.0193 -0.1943 -0.4811
    3CHTO  H224  864   6.718   2.543   2.444 -0.0975  0.1884 -3.0857
    3CHTO   N21  865   6.902   2.604   2.357  0.4810 -0.0754 -0.0991
    3CHTO  H211  866   6.860   2.703   2.348 -1.1738 -0.6327  1.2842
    3CHTO  H212  867   6.922   2.568   2.257  0.2485  0.1200 -0.2142
    3CHTO   O75  868   6.788   2.133   2.418  0.3658  0.6332  0.1587
    3CHTO  C112  869   6.679   2.055   2.335 -0.2002 -0.6619  0.0094
    3CHTO  H216  870   6.649   2.122   2.253  0.5973  1.7746  1.6561
    3CHTO   O73  871   6.570   2.025   2.423  0.6895 -0.6273 -0.5068
    3CHTO  C113  872   6.458   1.973   2.347 -0.2525 -0.3612  0.2207
    3CHTO  H217  873   6.436   2.047   2.267  1.3898  0.8783  0.8688
    3CHTO  C124  874   6.336   1.961   2.439  0.1902  0.2006  0.3585
    3CHTO   O83  875   6.282   2.083   2.499  0.0439  0.5124 -0.0189
    3CHTO  H204  876   6.194   2.065   2.524  0.5810 -2.1762  0.1280
    3CHTO  C109  877   6.498   1.836   2.278  0.3014 -0.2135 -0.1421
    3CHTO  H213  878   6.516   1.766   2.361  1.5240  0.7499  0.4177
    3CHTO  C110  879   6.629   1.850   2.191 -0.3774  0.2486 -0.4592
    3CHTO  H214  880   6.607   1.912   2.104  1.2304  0.2563 -0.8749
    3CHTO   O78  881   6.658   1.714   2.155 -0.2687  0.3871 -0.1857
    3CHTO  H200  882   6.739   1.707   2.107 -0.2873  0.8821 -0.2893
    3CHTO  C111  883   6.738   1.918   2.281 -0.3258 -0.8435  0.2726
    3CHTO  H215  884   6.761   1.849   2.363 -3.0496 -2.0335  0.0606
    3CHTO   N19  885   6.864   1.944   2.208 -0.1479  0.0590  0.0027
    3CHTO  H207  886   6.940   1.891   2.264  0.0863 -0.9443 -1.2460
    3CHTO  H208  887   6.888   2.050   2.203  1.9613 -0.3994 -0.0037
    3CHTO   O74  888   6.389   1.785   2.194  0.0154 -0.6646 -0.2178
    3CHTO  C115  889   6.345   1.646   2.241  0.0537  0.2641  0.4432
    3CHTO  H219  890   6.426   1.592   2.291 -0.5611 -1.2036 -0.1439
    3CHTO   O76  891   6.235   1.659   2.349  0.2609  0.4826  0.0625
    3CHTO  C122  892   6.100   1.675   2.299 -0.2575  0.1050 -0.6052
    3CHTO  H226  893   6.098   1.772   2.248  3.2847  0.5380 -0.0755
    3CHTO  C126  894   6.001   1.692   2.419 -0.4392  0.3471  0.7357
    3CHTO   O85  895   6.040   1.804   2.496  0.0022 -0.0368  0.0836
    3CHTO  H206  896   5.981   1.817   2.568 -1.2112 -0.5876 -0.7910
    3CHTO  C121  897   6.056   1.572   2.190  0.5519  0.1333  0.4468
    3CHTO  H225  898   5.990   1.505   2.249  3.2996  0.1999  3.7952
    3CHTO   O81  899   5.973   1.633   2.085  0.2142  0.4192 -0.2614
    3CHTO  H202  900   5.891   1.660   2.122 -0.2943  0.1160 -1.1540
    3CHTO  C119  901   6.175   1.481   2.133 -0.2871  0.0047  0.0376
    3CHTO  H223  902   6.190   1.407   2.211 -1.7057  0.2108  0.5223
    3CHTO  C117  903   6.306   1.573   2.105  0.2771  0.1986  0.2647
    3CHTO  H221  904   6.291   1.646   2.025  0.9950  0.1766  0.1069
    3CHTO   N20  905   6.419   1.488   2.055  0.1696  0.6215 -0.2754
    3CHTO  H209  906   6.418   1.401   2.119  1.0839 -0.3679 -1.5817
    3CHTO  H210  907   6.520   1.527   2.054  0.4330 -0.0688 -1.1838
    3CHTO   O80  908   6.122   1.382   2.009 -0.1111 -0.0543 -0.0386
    3CHTO  C103  909   6.015   1.276   2.045 -0.3927 -0.0910 -0.3774
    3CHTO  H190  910   5.975   1.288   2.146 -0.7328  0.7663 -0.6134
    3CHTO  C101  911   5.887   1.264   1.960 -0.0372 -0.4382  0.5719
    3CHTO  H188  912   5.902   1.239   1.854  1.0642  0.0328  0.6102
    3CHTO   O68  913   5.801   1.420   1.986  0.0304  0.6762  0.4614
    3CHTO  H168  914   5.747   1.423   2.062  0.8671  0.9310  1.0499
    3CHTO   C99  915   5.795   1.141   2.012  0.1560 -0.2792 -0.2471
    3CHTO  H186  916   5.759   1.166   2.113  0.5550  1.5172 -0.5252
    3CHTO   N17  917   5.670   1.125   1.923 -0.6204  0.3659  0.3929
    3CHTO  H174  918   5.615   1.040   1.961 -0.4681  0.7896  1.5799
    3CHTO  H175  919   5.675   1.111   1.816  0.5924 -0.4579  0.5377
    3CHTO   C97  920   5.872   1.012   2.027  0.2058 -0.0948  0.5790
    3CHTO  H184  921   5.893   0.978   1.925  1.1497 -1.0914  1.0923
    3CHTO   O64  922   5.991   1.036   2.101 -0.2050 -0.8077 -0.4475
    3CHTO  C104  923   6.081   1.134   2.037 -0.3504 -0.0120 -0.4110
    3CHTO  H191  924   6.088   1.108   1.932  1.0787  0.3834 -0.4208
    3CHTO  C108  925   6.231   1.127   2.095  0.4728 -0.3772 -0.5640
    3CHTO   O71  926   6.267   0.986   2.114 -0.2256  0.2532 -0.9763
    3CHTO  H171  927   6.196   0.939   2.154  0.4955 -0.3564 -0.3975
    3CHTO   O62  928   5.799   0.921   2.115 -0.2466  0.0632 -0.5396
    3CHTO   C91  929   5.832   0.778   2.098 -0.3551 -0.3040 -0.3916
    3CHTO  H178  930   5.839   0.754   1.992 -2.8070 -0.3181 -0.5743
    3CHTO   C92  931   5.711   0.698   2.148  0.0212 -0.1442 -0.3696
    3CHTO  H179  932   5.714   0.710   2.257 -0.5894  0.2981 -0.3963
    3CHTO   O66  933   5.593   0.759   2.092 -0.3132  0.2783 -0.2183
    3CHTO  H166  934   5.547   0.708   2.028 -2.4147  1.0270  0.6522
    3CHTO   C93  935   5.734   0.547   2.120 -0.5594 -0.1730  0.3041
    3CHTO  H180  936   5.741   0.531   2.011 -1.5441  0.0848  0.1976
    3CHTO   N16  937   5.615   0.464   2.157 -0.0136 -0.1449 -0.6280
    3CHTO  H172  938   5.634   0.358   2.165  0.6320  0.0656  0.8129
    3CHTO  H173  939   5.538   0.486   2.084 -1.2492  0.8500  0.9437
    3CHTO   C94  940   5.873   0.493   2.186 -0.1377 -0.7451 -0.2491
    3CHTO  H181  941   5.850   0.420   2.264  0.2935  0.7858  1.3293
    3CHTO   O61  942   5.943   0.599   2.250  0.1875  0.0231 -0.9744
    3CHTO   C95  943   5.965   0.723   2.178  0.0917 -0.2810 -0.3082
    3CHTO  H182  944   6.006   0.795   2.248  0.9919  0.3424 -1.4523
    3CHTO  C106  945   6.082   0.713   2.066 -0.3091  0.1099 -1.0201
    3CHTO   O69  946   6.198   0.659   2.131  0.4469 -0.1110 -0.4858
    3CHTO  H169  947   6.190   0.571   2.162  1.9725 -0.2905 -0.6098
    3CHTO   O63  948   5.980   0.433   2.069  0.2027 -0.5941 -0.7282
    3CHTO   C96  949   5.985   0.271   2.077  0.3764 -0.2378 -0.0899
    3CHTO  H183  950   6.061   0.238   2.006 -1.1604 -1.4468 -1.2076
    3CHTO   C98  951   5.852   0.196   2.044 -0.3938  0.1190 -0.3725
    3CHTO  H185  952   5.771   0.225   2.112 -1.1217 -0.2956 -1.0578
    3CHTO   O67  953   5.809   0.236   1.910 -0.5587 -0.1768  0.2537
    3CHTO  H167  954   5.763   0.177   1.854  2.5548 -1.0253 -1.5464
    3CHTO  C102  955   5.886   0.037   2.065 -0.3738  0.2176  0.0629
    3CHTO  H189  956   5.969   0.012   1.998 -2.3564 -2.0280 -1.6616
    3CHTO   N18  957   5.773  -0.048   2.024  0.5420  0.5875  0.0515
    3CHTO  H176  958   5.677  -0.001   2.044  0.0765 -0.3462  0.0192
    3CHTO  H177  959   5.778  -0.064   1.917 -3.3696  1.2697 -0.3051
    3CHTO  C105  960   5.921   0.015   2.212 -0.2050  0.1900  0.0392
    3CHTO  H192  961   5.847   0.060   2.279 -0.1510 -2.1130  1.6844
    3CHTO   O65  962   6.040   0.087   2.238  0.2802 -0.1613  0.6748
    3CHTO  C100  963   6.036   0.228   2.213  0.4582 -0.5891  0.0577
    3CHTO  H187  964   5.986   0.274   2.299  0.0143 -1.1991  0.1309
    3CHTO  C107  965   6.182   0.272   2.245 -0.3176  0.1819  0.0486
    3CHTO   O70  966   6.195   0.408   2.253  0.6486 -0.7595 -0.5294
    3CHTO  H170  967   6.202   0.441   2.166  0.7000  0.2134 -0.1669
    3CHTO   O57  968   5.955  -0.128   2.242 -0.2041 -0.2515 -0.1670
    3CHTO   C85  969   5.919  -0.196   2.360  0.3267  0.5623 -0.7584
    3CHTO  H157  970   5.963  -0.297   2.348  0.2017  0.4372 -0.1845
    3CHTO   C83  971   5.769  -0.233   2.358  0.0643  0.4007 -0.1312
    3CHTO  H155  972   5.742  -0.277   2.262 -0.2388  0.1938  0.0474
    3CHTO   O56  973   5.683  -0.118   2.376  0.2785  0.2169 -1.2198
    3CHTO  H135  974   5.674  -0.071   2.295  0.9939 -0.0221 -1.4465
    3CHTO   C81  975   5.749  -0.348   2.461 -0.4539 -0.2742  0.8434
    3CHTO  H153  976   5.815  -0.430   2.434  0.6420  0.9106 -0.0900
    3CHTO   N14  977   5.618  -0.418   2.436 -0.2028 -0.5687 -0.0327
    3CHTO  H141  978   5.530  -0.364   2.462  0.5645 -0.0678  1.5375
    3CHTO  H142  979   5.615  -0.507   2.495 -0.8888  1.2450  2.7429
    3CHTO   C79  980   5.794  -0.295   2.599 -0.3692  0.1597 -0.1362
    3CHTO  H151  981   5.792  -0.383   2.663 -1.6076  0.1861 -0.1294
    3CHTO   O52  982   5.924  -0.229   2.612  0.3337 -0.2721 -0.5126
    3CHTO   C86  983   5.954  -0.136   2.504  0.4384  0.6157 -0.1404
    3CHTO  H158  984   5.881  -0.059   2.537 -3.0020 -2.6081  0.2083
    3CHTO   C90  985   6.093  -0.071   2.505 -0.0686  0.0210  0.1146
    3CHTO   O60  986   6.103   0.024   2.614 -0.6629  0.4330 -0.0496
    3CHTO  H138  987   6.037   0.089   2.599 -0.8723 -0.2038 -2.1078
    3CHTO   O50  988   5.697  -0.218   2.666 -0.5953  0.5904 -0.6743
    3CHTO   C73  989   5.686  -0.192   2.807  0.3324  0.1911 -0.1814
    3CHTO  H145  990   5.765  -0.244   2.864  1.1634  2.4012  0.7268
    3CHTO   C74  991   5.547  -0.244   2.843 -0.3776 -0.3625 -0.1409
    3CHTO  H146  992   5.541  -0.350   2.814  2.4326 -0.6914  0.2978
    3CHTO   O54  993   5.538  -0.240   2.981 -0.6310  0.4375 -0.4254
    3CHTO  H133  994   5.531  -0.150   3.007  0.4754  0.3395  0.2311
    3CHTO   C75  995   5.438  -0.160   2.760  0.8589 -0.3331  0.1367
    3CHTO  H147  996   5.426  -0.202   2.659 -0.3057  0.4393 -0.0550
    3CHTO   N13  997   5.298  -0.183   2.801  0.2239  0.5067 -0.0619
    3CHTO  H139  998   5.268  -0.286   2.789 -0.1266  0.4977  0.8535
    3CHTO  H140  999   5.238  -0.120   2.737 -0.8488  0.7343  1.1359
    3CHTO   C76 1000   5.477  -0.002   2.752  0.4274  0.3056  0.0075
    3CHTO  H148 1001   5.442   0.051   2.841  0.2909  0.5811 -0.2076
    3CHTO   O49 1002   5.619   0.036   2.746  0.1928  0.3978 -0.0882
    3CHTO   C77 1003   5.695  -0.042   2.831 -0.4324 -0.0494  0.3267
    3CHTO  H149 1004   5.659  -0.020   2.931 -0.8299 -1.0374  0.4043
    3CHTO   C88 1005   5.839   0.003   2.830 -0.1603  0.1627 -0.9701
    3CHTO   O58 1006   5.896  -0.028   2.961  0.1420  0.1323  0.4239
    3CHTO  H136 1007   5.904  -0.121   2.968 -0.5880 -0.0041 -0.4703
    3CHTO   O51 1008   5.433   0.054   2.611 -0.4279 -0.2384 -0.6972
    3CHTO   C78 1009   5.387   0.195   2.624 -0.6456 -0.4588 -0.9770
    3CHTO  H150 1010   5.400   0.228   2.729 -1.6865 -1.1505 -0.6155
    3CHTO   C80 1011   5.243   0.205   2.586 -0.2632  0.2362  0.1047
    3CHTO  H152 1012   5.235   0.166   2.482  1.5070 -0.0548  0.0688
    3CHTO   O55 1013   5.165   0.123   2.666 -0.2926  0.5173  0.4197
    3CHTO  H134 1014   5.156   0.032   2.647  0.8263  1.1512 -3.7219
    3CHTO   C84 1015   5.187   0.357   2.597 -0.3506 -0.1200  0.8966
    3CHTO  H156 1016   5.164   0.389   2.698 -3.3066  0.9148 -0.0246
    3CHTO   N15 1017   5.055   0.380   2.526  0.8826 -0.5167  0.1473
    3CHTO  H143 1018   5.007   0.473   2.546 -2.2429 -1.6118 -1.9111
    3CHTO  H144 1019   4.983   0.302   2.536 -0.4246  0.6721  0.0974
    3CHTO   C87 1020   5.280   0.467   2.532  0.5549 -0.1056  0.3806
    3CHTO  H159 1021   5.277   0.475   2.423  0.8728 -2.4102  0.1799
    3CHTO   O53 1022   5.425   0.433   2.567 -0.0164 -0.3596  0.0617
    3CHTO   C82 1023   5.462   0.295   2.539  0.6662  0.4642  0.3827
    3CHTO  H154 1024   5.440   0.272   2.435 -0.8300  1.2210  0.5225
    3CHTO   C89 1025   5.614   0.286   2.552 -0.1598 -0.4268 -0.5594
    3CHTO   O59 1026   5.661   0.151   2.511 -0.0816 -0.0666  0.0653
    3CHTO  H137 1027   5.751   0.155   2.486 -0.2565  0.9557 -0.4044
    3CHTO   O45 1028   5.235   0.609   2.589 -0.5877  0.2307  0.1324
    3CHTO   C67 1029   5.335   0.710   2.577 -0.5111 -1.3716  0.2240
    3CHTO  H124 1030   5.434   0.664   2.580 -0.4414 -1.1809  1.7906
    3CHTO   C65 1031   5.317   0.796   2.441  0.7337  0.1767 -0.0087
    3CHTO  H122 1032   5.211   0.812   2.423  0.2841 -0.2461  2.1472
    3CHTO   O44 1033   5.369   0.709   2.342 -0.1380  0.0455 -0.6615
    3CHTO  H102 1034   5.458   0.711   2.314 -0.2348 -0.3045 -0.9876
    3CHTO   C63 1035   5.372   0.943   2.448  0.0217  0.7348  0.0749
    3CHTO  H120 1036   5.300   1.006   2.500  0.2742  0.1721  1.1004
    3CHTO   N11 1037   5.378   1.026   2.325  0.2883  0.1985 -0.0740
    3CHTO  H108 1038   5.291   1.023   2.262 -0.9092  0.9437  1.5175
    3CHTO  H109 1039   5.413   1.127   2.336  1.1972  0.0902 -1.7923
    3CHTO   C61 1040   5.501   0.953   2.538  1.0796  0.5630 -0.2190
    3CHTO  H118 1041   5.513   1.062   2.554 -0.8255  0.8237 -0.4639
    3CHTO   O40 1042   5.461   0.895   2.679 -0.1460 -0.5540 -0.0401
    3CHTO   C68 1043   5.337   0.815   2.696 -0.5633 -0.6492 -0.5336
    3CHTO  H125 1044   5.245   0.876   2.704  1.0190  1.6664  0.3489
    3CHTO   C72 1045   5.357   0.736   2.826  0.4311  0.0751 -0.5001
    3CHTO   O48 1046   5.236   0.683   2.883 -0.5517  1.0064  0.6147
    3CHTO  H105 1047   5.257   0.596   2.911  1.4431  1.1580 -0.3192
    3CHTO   O38 1048   5.616   0.900   2.484 -0.0049 -0.7412  0.1408
    3CHTO   C55 1049   5.734   0.915   2.562 -0.0519 -0.5865 -0.1281
    3CHTO  H112 1050   5.721   0.962   2.660 -2.2742  0.7672 -1.0456
    3CHTO   C56 1051   5.844   1.000   2.473  0.8717 -0.0772 -0.2799
    3CHTO  H113 1052   5.847   0.966   2.368 -0.2682  0.9232 -0.6505
    3CHTO   O42 1053   5.799   1.138   2.464  0.3428 -0.0029  0.6126
    3CHTO  H100 1054   5.860   1.183   2.409  1.6484 -0.9386  1.2366
    3CHTO   C57 1055   5.986   0.984   2.536 -0.1164  0.1355  0.1644
    3CHTO  H114 1056   5.990   1.038   2.631 -0.9689  2.4020 -1.0611
    3CHTO   N10 1057   6.091   1.042   2.444  0.1337  0.4539 -0.0990
    3CHTO  H106 1058   6.126   0.975   2.367 -2.1678 -0.8063 -0.0754
    3CHTO  H107 1059   6.070   1.140   2.405 -1.9626  0.7547  1.6853
    3CHTO   C58 1060   6.012   0.834   2.559  0.3937 -0.1111 -0.1905
    3CHTO  H115 1061   5.987   0.780   2.465 -1.8002  0.4203  0.0629
    3CHTO   O37 1062   5.916   0.780   2.658 -0.5127 -0.7780 -0.1183
    3CHTO   C59 1063   5.789   0.776   2.596  0.2104  0.1641  1.0132
    3CHTO  H116 1064   5.798   0.722   2.501  0.0381  3.4616 -0.9504
    3CHTO   C70 1065   5.690   0.694   2.674  0.5732 -0.0643 -0.3059
    3CHTO   O46 1066   5.745   0.566   2.722 -0.1440  0.1767 -0.2854
    3CHTO  H103 1067   5.793   0.516   2.658  0.0967  0.3029 -0.2022
    3CHTO   O39 1068   6.165   0.808   2.621  0.0806  0.0148 -0.2285
    3CHTO   C60 1069   6.209   0.669   2.644 -0.1246 -0.8537  0.4871
    3CHTO  H117 1070   6.251   0.661   2.744  0.1799  1.5521  0.5821
    3CHTO   C62 1071   6.095   0.555   2.644 -0.6826  0.2516  0.2423
    3CHTO  H119 1072   6.034   0.595   2.727 -0.6725 -1.0327  0.8753
    3CHTO   O43 1073   6.026   0.546   2.524  0.7478 -0.0668  0.7162
    3CHTO  H101 1074   5.986   0.624   2.490  1.3323  0.0076  0.1650
    3CHTO   C66 1075   6.162   0.423   2.698  0.2241 -0.3517 -0.9644
    3CHTO  H123 1076   6.208   0.442   2.795  0.7816  1.0153 -1.4818
    3CHTO   N12 1077   6.056   0.321   2.716  0.1336 -0.6997 -0.3993
    3CHTO  H110 1078   6.091   0.227   2.757 -2.6115 -0.3645  2.9361
    3CHTO  H111 1079   5.965   0.359   2.759  0.6930  1.3387 -0.9406
    3CHTO   C69 1080   6.273   0.382   2.599 -0.2656 -0.1295 -0.0938
    3CHTO  H126 1081   6.238   0.347   2.500 -1.6782 -2.4073  1.1816
    3CHTO   O41 1082   6.360   0.487   2.579  0.1537 -0.0360 -0.2263
    3CHTO   C64 1083   6.315   0.623   2.550 -0.1267  0.1121 -0.7138
    3CHTO  H121 1084   6.265   0.638   2.452  0.0447 -0.5801 -0.9091
    3CHTO   C71 1085   6.439   0.721   2.549 -0.3000 -0.0340 -0.5448
    3CHTO   O47 1086   6.544   0.695   2.456  0.2611  0.5352 -0.5219
    3CHTO  H104 1087   6.577   0.780   2.434  1.8657  0.1428  0.2878
    3CHTO   O34 1088   6.351   0.269   2.654 -0.6047  0.2948 -0.3125
    3CHTO   C49 1089   6.461   0.152   2.687  0.6369  0.4330 -0.1123
    3CHTO   H91 1090   6.473   0.101   2.592  0.3343 -0.4804  0.3304
    3CHTO   C47 1091   6.389   0.050   2.779 -0.3133 -0.2424 -0.4248
    3CHTO   H89 1092   6.333  -0.019   2.713 -1.2035  0.0189  0.0558
    3CHTO   O33 1093   6.290   0.118   2.858  0.0364 -0.1410 -0.7235
    3CHTO   H70 1094   6.223   0.059   2.888  0.6755  0.1753  1.4065
    3CHTO   C45 1095   6.483  -0.041   2.868 -0.4237  0.6143  0.6140
    3CHTO   H87 1096   6.501   0.015   2.961 -3.7032  2.7285  0.0705
    3CHTO    N8 1097   6.413  -0.162   2.916 -0.0825  0.3271  0.0222
    3CHTO   H75 1098   6.389  -0.220   2.828  0.7340  0.2415 -0.1524
    3CHTO   H76 1099   6.323  -0.143   2.972 -0.0106 -1.6237  0.8628
    3CHTO   C43 1100   6.621  -0.060   2.799 -0.1602 -0.1963 -0.1235
    3CHTO   H85 1101   6.679  -0.120   2.868  0.8273  1.5962  0.6434
    3CHTO   O29 1102   6.670   0.079   2.793 -0.1354 -0.1828 -0.2108
    3CHTO   C50 1103   6.596   0.192   2.742 -0.5070 -0.2393  0.6008
    3CHTO   H92 1104   6.575   0.271   2.816 -1.1763 -0.5544  0.7550
    3CHTO   C54 1105   6.663   0.270   2.623 -0.5297 -0.7265 -0.1296
    3CHTO   O36 1106   6.800   0.307   2.650  0.2675  0.3531  0.1804
    3CHTO   H72 1107   6.856   0.240   2.617 -1.2855 -0.6854 -0.4002
    3CHTO   O27 1108   6.622  -0.125   2.676 -0.1142  0.2422 -0.4590
    3CHTO   C37 1109   6.619  -0.167   2.541  0.2996  0.2637 -0.8635
    3CHTO   H79 1110   6.670  -0.263   2.521  3.0410  1.7549 -1.2256
    3CHTO   C38 1111   6.473  -0.182   2.498  0.4017  0.1160  0.0248
    3CHTO   H80 1112   6.420  -0.090   2.523 -0.8296 -0.7117  0.4778
    3CHTO   O31 1113   6.424  -0.302   2.567  0.0554  0.0705  0.1706
    3CHTO   H68 1114   6.337  -0.298   2.601 -0.0496  0.5327 -0.1536
    3CHTO   C39 1115   6.473  -0.210   2.339  0.2548  0.4752  0.0269
    3CHTO   H81 1116   6.536  -0.298   2.329 -1.4970 -1.0238  1.8470
    3CHTO    N7 1117   6.332  -0.245   2.299  0.1746 -0.2508 -0.4012
    3CHTO   H73 1118   6.269  -0.243   2.387  1.0208  1.9480  0.1778
    3CHTO   H74 1119   6.294  -0.172   2.229 -0.3050 -0.2937 -0.1897
    3CHTO   C40 1120   6.535  -0.091   2.253  0.6044 -0.6364  0.0072
    3CHTO   H82 1121   6.477  -0.005   2.288  2.5756  1.0998 -0.8587
    3CHTO   O26 1122   6.669  -0.087   2.304  0.1398 -0.0018  0.2361
    3CHTO   C41 1123   6.690  -0.056   2.452  0.4137  0.0054 -0.0307
    3CHTO   H83 1124   6.660   0.043   2.488  0.8539  0.8245 -1.8408
    3CHTO   C52 1125   6.844  -0.057   2.465 -0.1381  0.1389  0.6725
    3CHTO   O35 1126   6.890   0.016   2.391 -0.1290  0.2680  0.2552
    3CHTO   H71 1127   6.946   0.080   2.430 -2.8884  2.4910  0.7777
    3CHTO   O28 1128   6.530  -0.112   2.111  0.8006 -0.2810  0.6803
    3CHTO   C42 1129   6.577  -0.016   2.010  0.0052  0.3912 -0.2127
    3CHTO   H84 1130   6.581  -0.071   1.916  0.5757 -0.2565  0.1824
    3CHTO   C44 1131   6.716   0.044   2.023 -0.3220 -0.5135  0.7540
    3CHTO   H86 1132   6.721   0.098   2.117  1.3416  2.2423 -0.8260
    3CHTO   O32 1133   6.802  -0.075   2.034 -0.0659 -0.1802 -0.0000
    3CHTO   H69 1134   6.889  -0.056   2.003  0.2263 -2.1775 -0.4970
    3CHTO   C48 1135   6.755   0.148   1.903  0.2842  0.4490 -0.4457
    3CHTO   H90 1136   6.753   0.097   1.806  0.3793  1.5999 -1.0602
    3CHTO    N9 1137   6.892   0.207   1.924  0.2564  0.1082 -0.3582
    3CHTO   H77 1138   6.903   0.305   1.880 -2.1330  0.0790 -1.0872
    3CHTO   H78 1139   6.982   0.148   1.934  1.5180  1.7821 -1.5418
    3CHTO   C51 1140   6.635   0.252   1.900  0.1161 -0.0184 -0.0960
    3CHTO   H93 1141   6.638   0.306   1.994  0.2881  0.7090 -0.5138
    3CHTO   O30 1142   6.515   0.184   1.879  0.4954 -0.2009 -0.1937
    3CHTO   C46 1143   6.471   0.098   1.991  0.0904 -0.4670 -0.2007
    3CHTO   H88 1144   6.455   0.160   2.080 -1.0604 -0.8781 -0.1188
    3CHTO   C53 1145   6.334   0.056   1.937  0.2425 -0.1100  0.3362
    3CHTO   O72 1146   6.267  -0.053   2.008  0.0706  0.1158 -0.4047
    3CHTO  H199 1147   6.312  -0.085   2.084  1.0595 -1.1686 -1.5192
    3CHTO   O22 1148   6.656   0.342   1.792 -0.7099  0.2073 -0.2010
    3CHTO   C31 1149   6.622   0.483   1.791  0.6474  0.6024  0.0598
    3CHTO   H59 1150   6.514   0.483   1.761  0.7598 -0.5993 -0.4028
    3CHTO   C29 1151   6.629   0.557   1.923  0.4053  0.0724 -0.0059
    3CHTO   H57 1152   6.732   0.540   1.959  0.1169 -0.5610  0.5380
    3CHTO   O21 1153   6.534   0.496   2.019  0.3290  0.3660 -0.2740
    3CHTO   H37 1154   6.538   0.532   2.106  0.0722 -2.7592  1.0969
    3CHTO   C27 1155   6.596   0.715   1.908  1.0059  0.1746  0.8957
    3CHTO   H55 1156   6.486   0.725   1.905  0.7016 -1.3862  4.3983
    3CHTO    N5 1157   6.643   0.796   2.028  0.0262  0.1809  0.9417
    3CHTO   H43 1158   6.625   0.900   2.006  0.0700 -0.3529 -1.7023
    3CHTO   H44 1159   6.580   0.765   2.110 -0.2099 -0.1135  0.6496
    3CHTO   C25 1160   6.654   0.775   1.776 -0.7833 -0.2685 -0.0013
    3CHTO   H53 1161   6.762   0.794   1.780 -0.3526 -2.1754 -1.7149
    3CHTO   O17 1162   6.634   0.679   1.660 -0.4661 -0.7564  0.0588
    3CHTO   C32 1163   6.701   0.557   1.686 -0.1683 -0.2063 -0.1413
    3CHTO   H60 1164   6.803   0.577   1.719  1.3030 -1.1817 -3.8541
    3CHTO   C36 1165   6.713   0.473   1.552 -0.3867  0.0498 -0.0693
    3CHTO   O25 1166   6.812   0.513   1.457 -0.1602 -0.4278 -0.4130
    3CHTO   H40 1167   6.785   0.593   1.416 -0.9050 -1.3662 -1.7921
    3CHTO   O15 1168   6.582   0.898   1.737 -0.1965 -0.0445 -0.5015
    3CHTO   C19 1169   6.474   0.936   1.642 -0.2569 -0.1291  0.4324
    3CHTO   H47 1170   6.501   0.887   1.547  0.1999 -2.5412  1.7761
    3CHTO   C20 1171   6.338   0.880   1.683  0.7189  0.0071 -0.7779
    3CHTO   H48 1172   6.304   0.924   1.778 -1.5243  0.3025 -1.6923
    3CHTO   O19 1173   6.348   0.732   1.692 -0.3531 -0.1287 -0.3798
    3CHTO   H35 1174   6.300   0.705   1.768  0.8996  1.9203  1.1719
    3CHTO   C21 1175   6.234   0.913   1.569 -0.4418  0.4539  0.0027
    3CHTO   H49 1176   6.256   0.851   1.482 -0.4488 -1.1010  1.0854
    3CHTO    N4 1177   6.093   0.878   1.617 -0.3231 -0.1448 -0.6209
    3CHTO   H41 1178   6.078   0.924   1.713  4.4359  0.5348 -0.0946
    3CHTO   H42 1179   6.029   0.920   1.540 -0.4433  1.3451  0.2803
    3CHTO   C22 1180   6.250   1.057   1.522  0.3642 -1.2118  0.7084
    3CHTO   H50 1181   6.202   1.122   1.595  0.1791 -0.4461 -0.0837
    3CHTO   O14 1182   6.384   1.105   1.498  0.1174  0.4096 -0.4591
    3CHTO   C23 1183   6.464   1.089   1.617 -0.3762  0.8150 -0.1227
    3CHTO   H51 1184   6.425   1.141   1.706  1.0806 -1.6923  2.0309
    3CHTO   C34 1185   6.610   1.137   1.573  0.3018 -0.2713  0.0264
    3CHTO   O23 1186   6.617   1.278   1.572  0.3067  0.3351  0.4347
    3CHTO   H38 1187   6.556   1.310   1.508 -1.6136 -3.0203  0.5064
    3CHTO   O16 1188   6.173   1.069   1.391  0.3484  0.5178 -0.3282
    3CHTO   C24 1189   6.128   1.220   1.369  0.5305 -0.1851 -0.1109
    3CHTO   H52 1190   6.171   1.286   1.444 -1.5343  1.0101  0.0462
    3CHTO   C26 1191   5.982   1.227   1.389  0.2975 -0.3306 -0.9472
    3CHTO   H54 1192   5.937   1.157   1.315 -1.0116 -0.9173  0.3753
    3CHTO   O20 1193   5.958   1.205   1.534 -0.4390 -0.1426  0.1235
    3CHTO   H36 1194   5.873   1.171   1.553 -0.1908 -0.1482  1.2875
    3CHTO   C30 1195   5.927   1.368   1.356 -0.2594  0.6580 -0.4640
    3CHTO   H58 1196   5.974   1.442   1.422 -1.0896  2.1742 -1.5404
    3CHTO    N6 1197   5.778   1.378   1.368  0.1590  0.3762  0.2583
    3CHTO   H45 1198   5.742   1.466   1.318  0.2236  0.9599  1.2392
    3CHTO   H46 1199   5.759   1.391   1.473  0.2472 -1.0079  0.4652
    3CHTO   C33 1200   5.978   1.412   1.218 -0.0058  0.3596 -0.0155
    3CHTO   H61 1201   5.935   1.350   1.138 -0.3394 -1.0811  1.2681
    3CHTO   O18 1202   6.122   1.404   1.204 -0.0732 -0.7039  0.0496
    3CHTO   C28 1203   6.178   1.276   1.229 -0.2217 -0.0927 -0.5527
    3CHTO   H56 1204   6.148   1.211   1.147  1.5168 -0.4476 -0.9322
    3CHTO   C35 1205   6.333   1.299   1.216 -0.4215 -0.0567 -0.3133
    3CHTO   O24 1206   6.400   1.392   1.303  0.4488 -0.2070 -0.4644
    3CHTO   H39 1207   6.461   1.445   1.256 -0.4477  2.4415  1.2342
    3CHTO    O9 1208   5.936   1.546   1.184  0.5647 -0.3121 -0.4040
    3CHTO   C13 1209   5.992   1.687   1.290 -0.4117  0.0788  0.2827
    3CHTO   H26 1210   5.994   1.641   1.391  0.5194 -0.2072  0.1324
    3CHTO   C11 1211   5.886   1.799   1.281  0.2913  0.0070  0.2694
    3CHTO   H24 1212   5.807   1.754   1.344  1.9639 -0.3038  2.1900
    3CHTO    O8 1213   5.847   1.797   1.139 -0.0093 -0.3759  0.0243
    3CHTO    H3 1214   5.782   1.730   1.124 -2.0048  0.9223  2.4026
    3CHTO    C9 1215   5.924   1.933   1.344  0.1600  0.2985 -0.6451
    3CHTO   H22 1216   5.946   1.910   1.449  2.6528  0.2741 -1.1427
    3CHTO    N2 1217   5.811   2.027   1.347 -0.5580  0.2583  0.2673
    3CHTO   H10 1218   5.720   1.971   1.357 -0.4212 -0.6280 -2.8204
    3CHTO   H11 1219   5.822   2.106   1.419  0.9235  2.0375 -1.8093
    3CHTO    C7 1220   6.055   1.984   1.284 -0.1988  0.7823  0.2505
    3CHTO   H20 1221   6.072   2.081   1.335 -1.7302  0.6298  1.0709
    3CHTO    O4 1222   6.156   1.881   1.308  0.0518 -0.3620  0.6278
    3CHTO   C14 1223   6.136   1.740   1.272  0.3921 -0.2738  0.3826
    3CHTO   H27 1224   6.196   1.682   1.345 -0.5813 -1.6298  0.1343
    3CHTO   C18 1225   6.198   1.699   1.130  0.4477  0.2050  0.4282
    3CHTO   O13 1226   6.340   1.673   1.141  0.2914  0.4372  0.0876
    3CHTO    H7 1227   6.395   1.718   1.080 -1.1428  0.8718 -0.8970
    3CHTO    O2 1228   6.047   2.013   1.110 -0.0994  0.4372 -0.1698
    3CHTO    C1 1229   6.139   2.112   1.057  0.3812 -0.5164  0.2535
    3CHTO   H14 1230   6.130   2.104   0.947  0.5988 -1.9526  0.3248
    3CHTO    C2 1231   6.291   2.093   1.093  0.5553 -0.3274 -0.9152
    3CHTO   H15 1232   6.295   2.090   1.202  0.9910  0.3580 -0.9117
    3CHTO    O6 1233   6.345   1.972   1.041  0.3270 -0.1913  0.5039
    3CHTO    H1 1234   6.379   1.983   0.954 -2.0350 -2.7507 -0.7975
    3CHTO    C3 1235   6.379   2.216   1.047  0.2862  0.6075  0.7539
    3CHTO   H16 1236   6.384   2.197   0.939 -1.5266 -0.1921  0.8004
    3CHTO    N1 1237   6.529   2.208   1.103  0.3123  0.2882 -0.4766
    3CHTO    H8 1238   6.572   2.120   1.059 -0.5185 -0.5340  0.3528
    3CHTO    H9 1239   6.589   2.294   1.075  0.7902 -0.0799 -0.5719
    3CHTO    C4 1240   6.313   2.358   1.061  0.2430 -0.0738  0.2897
    3CHTO   H17 1241   6.311   2.390   1.166  0.5043  2.6785 -0.5076
    3CHTO    O1 1242   6.172   2.350   1.026 -0.2819 -0.4275 -0.5418
    3CHTO    C5 1243   6.092   2.253   1.100 -0.6150  0.1669 -0.6757
    3CHTO   H18 1244   6.106   2.257   1.208 -1.0918 -2.3990 -0.4872
    3CHTO   C16 1245   5.946   2.293   1.071 -0.3812 -1.0673  0.6145
    3CHTO   O11 1246   5.922   2.424   1.126  0.0709 -0.1743 -0.4672
    3CHTO    H5 1247   5.838   2.414   1.167  0.6854 -0.8112  0.6419
    3CHTO    O3 1248   6.358   2.451   0.958  0.2044 -0.0168  0.2619
    3CHTO    C6 1249   6.345   2.590   0.989 -0.4594 -1.0774 -0.7338
    3CHTO   H19 1250   6.284   2.605   1.078 -2.9363  0.2134 -2.5803
    3CHTO    C8 1251   6.490   2.640   1.024 -0.1971  0.1709 -0.0768
    3CHTO   H21 1252   6.545   2.639   0.930 -2.5707  1.0233 -1.5308
    3CHTO    O7 1253   6.553   2.560   1.126  0.2611 -0.4975  0.0861
    3CHTO    H2 1254   6.607   2.620   1.173  1.0765 -0.5960 -0.7013
    3CHTO   C12 1255   6.481   2.792   1.070 -0.2307  0.0037  0.0081
    3CHTO   H25 1256   6.417   2.794   1.161  1.2199  4.1761  1.0617
    3CHTO    N3 1257   6.610   2.855   1.116  0.7183 -0.2191  0.2818
    3CHTO   H12 1258   6.692   2.839   1.047 -0.4164  0.2111 -1.1969
    3CHTO   H13 1259   6.638   2.844   1.219 -0.1944 -2.4410  0.3082
    3CHTO   C15 1260   6.407   2.871   0.957 -0.7417  0.0293 -0.1116
    3CHTO   H28 1261   6.469   2.865   0.868  0.2037 -0.1117  0.5360
    3CHTO   O10 1262   6.385   3.029   0.977  0.4455  0.0687  0.2209
    3CHTO    H4 1263   6.322   3.051   1.042  2.0324  2.0751  1.1433
    3CHTO    O5 1264   6.277   2.815   0.934  0.5949  0.1527 -0.4630
    3CHTO   C10 1265   6.280   2.680   0.884  0.1523  0.1790  0.3793
    3CHTO   H23 1266   6.333   2.669   0.790 -0.6286 -0.5138  0.0163
    3CHTO   C17 1267   6.150   2.624   0.844  0.2343 -0.3239 -0.2969
    3CHTO   O12 1268   6.086   2.700   0.737  0.0990 -0.0246 -0.0865
    3CHTO    H6 1269   6.094   2.790   0.761  1.6910 -0.2141  0.1186
    4CHTO  H203 1270   5.729   7.078   0.163 -0.1087  0.5259  0.4618
    4CHTO   O82 1271   5.673   7.116   0.227 -0.0982  0.2882  0.6166
    4CHTO  C123 1272   5.677   7.260   0.231 -0.2797  0.1319  0.7966
    4CHTO  H227 1273   5.616   7.292   0.317  1.7561  2.0710  1.5511
    4CHTO   O77 1274   5.811   7.296   0.262 -0.7285  0.0193 -0.4441
    4CHTO  C118 1275   5.840   7.434   0.294 -0.0290 -0.1405  0.2127
    4CHTO  H222 1276   5.782   7.468   0.382  0.5156  1.1301  0.0849
    4CHTO  C125 1277   5.989   7.447   0.325 -0.7777  0.3096  0.2744
    4CHTO   O84 1278   6.036   7.349   0.421  0.0408  0.1668 -0.1450
    4CHTO  H205 1279   6.126   7.331   0.401  0.0256 -1.0923  0.9038
    4CHTO  C114 1280   5.801   7.517   0.169 -0.0217 -0.4787  0.3326
    4CHTO  H218 1281   5.861   7.486   0.084  0.1043 -1.0113  0.6081
    4CHTO  C116 1282   5.663   7.482   0.110  0.3037 -0.0907  0.6024
    4CHTO  H220 1283   5.584   7.528   0.173 -1.4055 -1.9569 -0.1225
    4CHTO   O79 1284   5.644   7.555  -0.020  0.0600  0.3800 -0.1984
    4CHTO  H201 1285   5.616   7.642   0.001 -0.2923 -0.2595  2.0881
    4CHTO  C120 1286   5.636   7.330   0.092  0.1235  0.3466 -0.2938
    4CHTO  H224 1287   5.704   7.283   0.018  2.3281  1.5945  0.8746
    4CHTO   N21 1288   5.498   7.307   0.044  0.4449  0.0441 -0.5258
    4CHTO  H211 1289   5.449   7.216   0.074  1.3752 -0.4921 -0.6288
    4CHTO  H212 1290   5.491   7.318  -0.063  2.6055 -0.1614 -0.7178
    4CHTO   O75 1291   5.822   7.654   0.217  0.0223 -0.1549 -0.2902
    4CHTO  C112 1292   5.903   7.755   0.114 -0.7372  1.0264  0.1951
    4CHTO  H216 1293   5.848   7.751   0.019 -0.4070  0.2836  0.0316
    4CHTO   O73 1294   6.037   7.703   0.106  0.0571 -0.3236  0.0985
    4CHTO  C113 1295   6.116   7.782   0.018 -0.3776 -0.4568  0.3592
    4CHTO  H217 1296   6.076   7.787  -0.085  0.4984 -1.2028 -0.0281
    4CHTO  C124 1297   6.259   7.725  -0.001 -0.3264 -0.4713  0.4874
    4CHTO   O83 1298   6.335   7.716   0.117 -0.0245  0.5616  0.0919
    4CHTO  H204 1299   6.377   7.799   0.129  0.8713  0.3433 -1.4201
    4CHTO  C109 1300   6.135   7.929   0.071  0.0725  0.7327  0.3462
    4CHTO  H213 1301   6.189   7.924   0.167 -0.5076 -0.3992  0.6212
    4CHTO  C110 1302   5.994   8.003   0.100  0.6142 -0.6230  0.6333
    4CHTO  H214 1303   5.943   8.023   0.006 -1.5830 -1.2578  1.6690
    4CHTO   O78 1304   6.016   8.126   0.165  0.4297  0.3655 -0.3042
    4CHTO  H200 1305   6.066   8.187   0.115  1.1035  1.2879  1.4714
    4CHTO  C111 1306   5.905   7.903   0.177  0.4467  0.2717 -0.3779
    4CHTO  H215 1307   5.947   7.891   0.278  0.3467 -0.4343 -0.4205
    4CHTO   N19 1308   5.768   7.954   0.197 -0.1502 -0.4592 -0.5340
    4CHTO  H207 1309   5.705   7.878   0.242 -0.2450 -1.2568 -1.9983
    4CHTO  H208 1310   5.719   7.990   0.108 -0.5963  1.9432  0.6299
    4CHTO   O74 1311   6.214   8.008  -0.029  0.0216  0.0189 -0.1344
    4CHTO  C115 1312   6.288   8.137   0.019 -0.6779  0.0606 -0.3179
    4CHTO  H219 1313   6.243   8.175   0.111  0.1402 -1.8005  0.9017
    4CHTO   O76 1314   6.431   8.104   0.059 -0.0600 -0.5332 -0.3106
    4CHTO  C122 1315   6.508   8.042  -0.046 -0.0622 -0.4753  0.1835
    4CHTO  H226 1316   6.463   7.944  -0.059 -1.4698 -0.0116  1.3497
    4CHTO  C126 1317   6.651   8.014   0.006 -0.3216 -0.3722  0.5566
    4CHTO   O85 1318   6.735   7.935  -0.091  0.2002 -0.1973 -0.9477
    4CHTO  H206 1319   6.742   7.984  -0.170 -1.4576 -1.4167 -1.8671
    4CHTO  C121 1320   6.500   8.128  -0.185 -0.2514 -0.2127 -1.1713
    4CHTO  H225 1321   6.603   8.149  -0.221  0.1160 -0.8301 -0.4989
    4CHTO   O81 1322   6.439   8.058  -0.290  0.5742 -0.1017 -0.7407
    4CHTO  H202 1323   6.497   8.048  -0.363 -0.1998 -3.4896 -0.9779
    4CHTO  C119 1324   6.429   8.269  -0.159 -0.2940  0.0396  0.3929
    4CHTO  H223 1325   6.486   8.329  -0.088 -0.8021  3.2924 -1.8398
    4CHTO  C117 1326   6.283   8.252  -0.102 -0.3391  0.3506 -0.0476
    4CHTO  H221 1327   6.203   8.220  -0.169 -0.1228  1.4584 -0.8480
    4CHTO   N20 1328   6.237   8.377  -0.041 -0.1120  0.1489  0.1439
    4CHTO  H209 1329   6.134   8.358  -0.014  0.2692 -1.7529  0.2518
    4CHTO  H210 1330   6.292   8.403   0.048 -0.8204 -0.5979  0.8121
    4CHTO   O80 1331   6.442   8.363  -0.286 -0.2704 -0.2657  0.0719
    4CHTO  C103 1332   6.552   8.479  -0.289 -1.0543 -0.9262  0.0488
    4CHTO  H190 1333   6.557   8.532  -0.194 -0.0565 -3.7399  1.6388
    4CHTO  C101 1334   6.701   8.440  -0.326 -1.2719 -1.0758 -0.9487
    4CHTO  H188 1335   6.697   8.393  -0.425 -0.9338 -0.2027 -1.3800
    4CHTO   O68 1336   6.763   8.353  -0.215 -0.1693  0.7097 -0.2388
    4CHTO  H168 1337   6.808   8.394  -0.144 -0.9889 -0.2522  0.8565
    4CHTO   C99 1338   6.786   8.572  -0.350 -0.9380 -0.0310 -0.2503
    4CHTO  H186 1339   6.771   8.638  -0.262 -1.8439  0.9360 -1.1141
    4CHTO   N17 1340   6.937   8.552  -0.370  0.1896 -0.2057 -0.1852
    4CHTO  H174 1341   6.970   8.586  -0.467  0.4641 -2.9564 -1.0897
    4CHTO  H175 1342   6.990   8.592  -0.284 -2.7341  0.6293  1.3006
    4CHTO   C97 1343   6.724   8.651  -0.470  0.3132  0.8618  0.4845
    4CHTO  H184 1344   6.714   8.575  -0.548 -0.3190  0.6706  0.7421
    4CHTO   O64 1345   6.593   8.693  -0.424 -0.2007  0.1910  0.0929
    4CHTO  C104 1346   6.499   8.585  -0.401 -0.1244  0.5093 -0.4749
    4CHTO  H191 1347   6.476   8.532  -0.494 -0.3515  0.1202 -0.1990
    4CHTO  C108 1348   6.361   8.645  -0.353  0.8453  0.5479 -0.3285
    4CHTO   O71 1349   6.306   8.729  -0.455  0.3234 -0.3491  0.5616
    4CHTO  H171 1350   6.246   8.790  -0.417 -0.4221 -0.9691  0.4004
    4CHTO   O62 1351   6.804   8.764  -0.512  0.0699  0.1880 -0.1086
    4CHTO   C91 1352   6.807   8.794  -0.655 -0.9398  0.1152  0.3956
    4CHTO  H178 1353   6.863   8.716  -0.707 -1.5432  0.1949 -0.3685
    4CHTO   C92 1354   6.905   8.911  -0.670 -0.7077  0.1527 -0.2744
    4CHTO  H179 1355   6.867   8.999  -0.615 -0.2357  0.4557 -0.4293
    4CHTO   O66 1356   7.033   8.875  -0.611  0.2518  0.6749 -0.0618
    4CHTO  H166 1357   7.028   8.896  -0.519 -0.9234  0.2389 -0.0092
    4CHTO   C93 1358   6.917   8.945  -0.832 -0.4642 -0.5185 -0.1883
    4CHTO  H180 1359   6.987   8.872  -0.874 -0.1305  0.7522 -1.8935
    4CHTO   N16 1360   6.993   9.075  -0.851  0.5721 -0.4880 -0.2092
    4CHTO  H172 1361   7.096   9.048  -0.870  0.6223 -0.6777  0.3058
    4CHTO  H173 1362   6.983   9.133  -0.760 -0.0158  0.4372 -0.8534
    4CHTO   C94 1363   6.780   8.931  -0.905  0.1950 -0.2729  0.2041
    4CHTO  H181 1364   6.759   9.014  -0.972  1.7720 -1.4689 -1.8313
    4CHTO   O61 1365   6.670   8.938  -0.810 -0.0545 -0.0386 -0.3969
    4CHTO   C95 1366   6.662   8.836  -0.708 -0.5461 -0.1527  0.0186
    4CHTO  H182 1367   6.605   8.874  -0.623  1.0131 -0.1256  1.0543
    4CHTO  C106 1368   6.566   8.716  -0.759 -0.3947 -0.0133  0.3280
    4CHTO   O69 1369   6.429   8.747  -0.763 -0.1931 -0.4732 -0.3501
    4CHTO  H169 1370   6.386   8.741  -0.679  2.1605 -0.2957  0.9242
    4CHTO   O63 1371   6.780   8.796  -0.993  0.0811 -0.7457 -0.0432
    4CHTO   C96 1372   6.897   8.778  -1.109  0.2181 -0.6614 -0.6916
    4CHTO  H183 1373   6.990   8.823  -1.073  0.1680  0.3799 -1.8396
    4CHTO   C98 1374   6.848   8.839  -1.239 -0.3967 -0.1517  0.2010
    4CHTO  H185 1375   6.741   8.819  -1.255 -0.7711  0.6387  1.6667
    4CHTO   O67 1376   6.860   8.986  -1.230  0.1159 -0.4459  0.2397
    4CHTO  H167 1377   6.820   9.020  -1.307 -2.0705 -2.0092  0.6521
    4CHTO  C102 1378   6.918   8.790  -1.375  0.5841  0.0851 -0.5712
    4CHTO  H189 1379   7.025   8.816  -1.373  1.0461 -1.7956 -0.2771
    4CHTO   N18 1380   6.863   8.853  -1.497  0.1156  0.0047  0.2164
    4CHTO  H176 1381   6.933   8.913  -1.554 -0.5183 -0.5011 -1.1321
    4CHTO  H177 1382   6.813   8.783  -1.562  0.7934 -0.8592  0.6281
    4CHTO  C105 1383   6.915   8.631  -1.365  0.0267  0.1256 -0.3242
    4CHTO  H192 1384   6.813   8.595  -1.371 -0.3402  1.4071 -2.1387
    4CHTO   O65 1385   6.988   8.581  -1.253  0.1883  0.0297 -0.3407
    4CHTO  C100 1386   6.925   8.613  -1.131 -0.2104 -0.0641 -0.1466
    4CHTO  H187 1387   6.830   8.558  -1.125 -0.9102  1.3915  4.2839
    4CHTO  C107 1388   7.015   8.562  -1.019 -0.1221  0.7304 -0.5304
    4CHTO   O70 1389   7.019   8.424  -0.996  0.7618  0.1280  0.1327
    4CHTO  H170 1390   7.095   8.387  -1.038  1.3139  0.5494  0.7436
    4CHTO   O57 1391   6.984   8.577  -1.496  0.5472  0.0230  0.0447
    4CHTO   C85 1392   6.966   8.441  -1.541  0.3821 -0.2164  0.1807
    4CHTO  H157 1393   6.857   8.426  -1.551  0.4540 -1.6569  1.3284
    4CHTO   C83 1394   6.996   8.333  -1.437 -0.5844  0.0815 -0.0550
    4CHTO  H155 1395   6.931   8.348  -1.351 -2.4166 -0.7208 -1.2687
    4CHTO   O56 1396   7.129   8.353  -1.386  0.5246 -0.3847  0.6504
    4CHTO  H135 1397   7.136   8.441  -1.354  0.0093  0.0061 -0.2824
    4CHTO   C81 1398   6.965   8.191  -1.496 -0.7016 -0.1412 -0.3707
    4CHTO  H153 1399   6.859   8.184  -1.520 -0.2233 -1.7909 -2.1567
    4CHTO   N14 1400   6.990   8.086  -1.389 -0.5889  0.3777  0.5207
    4CHTO  H141 1401   6.951   7.998  -1.435  1.4829  0.2271 -1.0116
    4CHTO  H142 1402   6.930   8.121  -1.308  1.7385 -0.0236  2.4727
    4CHTO   C79 1403   7.053   8.161  -1.621 -0.4608  0.3269  0.2306
    4CHTO  H151 1404   7.013   8.074  -1.673  0.1180 -0.5642  1.2626
    4CHTO   O52 1405   7.034   8.267  -1.725  0.5297 -0.6525  0.3026
    4CHTO   C86 1406   7.047   8.403  -1.676 -0.0344 -0.1742  0.0770
    4CHTO  H158 1407   7.154   8.416  -1.648 -0.0675  0.5130 -0.1037
    4CHTO   C90 1408   7.026   8.496  -1.802 -0.6481  0.2158  0.0367
    4CHTO   O60 1409   6.925   8.465  -1.901 -0.1441  0.2453 -0.2779
    4CHTO  H138 1410   6.853   8.525  -1.893  1.3559  2.1829 -1.1096
    4CHTO   O50 1411   7.193   8.143  -1.600  0.2306  0.3238  0.0282
    4CHTO   C73 1412   7.320   8.093  -1.639  0.0608  0.5235 -0.0823
    4CHTO  H145 1413   7.389   8.179  -1.644 -0.7977  1.0921 -2.6770
    4CHTO   C74 1414   7.318   8.033  -1.790 -0.0886 -0.6080  0.3028
    4CHTO  H146 1415   7.266   8.108  -1.853  0.3992 -0.0524  0.5516
    4CHTO   O54 1416   7.455   8.025  -1.829  0.0469 -1.0492  0.0957
    4CHTO  H133 1417   7.484   8.112  -1.846 -1.2187 -0.8556 -1.1327
    4CHTO   C75 1418   7.243   7.892  -1.784 -0.1576  0.3524  0.2391
    4CHTO  H147 1419   7.139   7.905  -1.752 -1.1774 -0.8961 -2.3525
    4CHTO   N13 1420   7.247   7.839  -1.927  0.5553  1.0340  0.2223
    4CHTO  H139 1421   7.204   7.740  -1.923 -0.3807  1.4855  1.5960
    4CHTO  H140 1422   7.190   7.903  -1.993  1.5748  0.0649 -1.6189
    4CHTO   C76 1423   7.316   7.791  -1.677 -0.0242 -0.2837  0.0431
    4CHTO  H148 1424   7.416   7.775  -1.716  1.0582  1.1680  2.1035
    4CHTO   O49 1425   7.317   7.855  -1.543 -0.2028 -0.5073  0.3790
    4CHTO   C77 1426   7.379   7.983  -1.538  0.0403  0.1461 -0.1163
    4CHTO  H149 1427   7.483   7.963  -1.564  0.3332  0.2271  0.9471
    4CHTO   C88 1428   7.367   8.021  -1.383  0.4228  0.5198 -0.2102
    4CHTO   O58 1429   7.490   8.053  -1.326 -0.2058  0.0931 -0.8638
    4CHTO  H136 1430   7.523   8.127  -1.373  1.1687  0.0415  0.0024
    4CHTO   O51 1431   7.213   7.647  -1.672  0.2552  0.2450 -0.0667
    4CHTO   C78 1432   7.273   7.520  -1.582 -0.5588 -0.0945  0.5076
    4CHTO  H150 1433   7.324   7.555  -1.490 -1.0761  0.5644  0.5506
    4CHTO   C80 1434   7.369   7.431  -1.660 -0.1933 -0.5673 -0.2842
    4CHTO  H152 1435   7.319   7.394  -1.752  0.6773 -1.8780 -0.2372
    4CHTO   O55 1436   7.484   7.513  -1.688 -0.5329  0.5351 -0.6861
    4CHTO  H134 1437   7.451   7.586  -1.738 -0.7082  1.0372  0.1593
    4CHTO   C84 1438   7.408   7.306  -1.563  0.3348  0.4730  0.1411
    4CHTO  H156 1439   7.450   7.332  -1.466 -0.5045 -0.5986  0.8128
    4CHTO   N15 1440   7.509   7.207  -1.627 -0.1832 -0.0985  0.0176
    4CHTO  H143 1441   7.454   7.142  -1.692  0.2270 -1.3436  0.8948
    4CHTO  H144 1442   7.571   7.271  -1.687 -0.0855 -0.2593 -0.0513
    4CHTO   C87 1443   7.279   7.236  -1.525 -0.0223  0.3724  0.1914
    4CHTO  H159 1444   7.236   7.180  -1.608 -0.0598 -1.4801  1.4310
    4CHTO   O53 1445   7.173   7.326  -1.450 -0.1664  0.0544 -0.4053
    4CHTO   C82 1446   7.145   7.440  -1.533  0.0098  0.5154  0.5687
    4CHTO  H154 1447   7.096   7.402  -1.623  0.7729 -0.3470  0.5010
    4CHTO   C89 1448   7.043   7.527  -1.457  0.0130 -0.2440 -0.6610
    4CHTO   O59 1449   7.086   7.574  -1.330 -0.0947  0.3407  0.4244
    4CHTO  H137 1450   7.179   7.574  -1.316  0.1105  2.5304 -0.7694
    4CHTO   O45 1451   7.324   7.129  -1.412 -0.0053 -0.2342 -0.9243
    4CHTO   C67 1452   7.306   6.990  -1.444 -0.2578  0.6955 -0.3068
    4CHTO  H124 1453   7.309   6.967  -1.551 -1.9991 -1.0496 -0.0130
    4CHTO   C65 1454   7.427   6.911  -1.379 -0.0256  0.4635  0.0688
    4CHTO  H122 1455   7.515   6.971  -1.406  0.0369  0.2311 -0.2490
    4CHTO   O44 1456   7.442   6.784  -1.441  0.3657  0.2641 -0.3849
    4CHTO  H102 1457   7.526   6.752  -1.412  0.3010  0.1766 -0.2974
    4CHTO   C63 1458   7.417   6.912  -1.221  0.5909 -0.0441  0.4478
    4CHTO  H120 1459   7.408   7.016  -1.188  1.4457 -0.4308  1.9514
    4CHTO   N11 1460   7.537   6.858  -1.149  0.2589 -0.2960 -0.0710
    4CHTO  H108 1461   7.533   6.752  -1.164 -0.7323 -0.1561 -0.8481
    4CHTO  H109 1462   7.629   6.899  -1.186 -0.2545  1.0901  0.1685
    4CHTO   C61 1463   7.285   6.852  -1.172  0.3107  0.3551  0.5019
    4CHTO  H118 1464   7.271   6.889  -1.069 -1.1896  0.2876  0.3320
    4CHTO   O40 1465   7.166   6.904  -1.253 -0.4447 -0.3253 -0.3257
    4CHTO   C68 1466   7.166   6.943  -1.396 -0.3656 -0.3561  0.1473
    4CHTO  H125 1467   7.097   7.029  -1.414 -2.2095 -1.6894  0.6610
    4CHTO   C72 1468   7.111   6.827  -1.480  0.0425  0.7066 -0.3287
    4CHTO   O48 1469   7.099   6.852  -1.616  0.7594 -0.1510  0.1875
    4CHTO  H105 1470   7.042   6.786  -1.651 -0.9130  0.7300  1.1812
    4CHTO   O38 1471   7.264   6.707  -1.187 -0.4169 -0.1084  0.2788
    4CHTO   C55 1472   7.199   6.646  -1.074  0.9268  0.1197  0.8434
    4CHTO  H112 1473   7.154   6.725  -1.012  1.2074  0.1731  0.9803
    4CHTO   C56 1474   7.291   6.555  -0.988  0.0068 -0.0515 -0.0154
    4CHTO  H113 1475   7.344   6.485  -1.054  0.7572 -0.6546  1.2121
    4CHTO   O42 1476   7.392   6.645  -0.936 -0.4385  0.2053 -0.4639
    4CHTO  H100 1477   7.478   6.614  -0.958 -0.9099  0.1250 -2.3133
    4CHTO   C57 1478   7.214   6.475  -0.877 -0.1294  0.0080  0.1230
    4CHTO  H114 1479   7.192   6.556  -0.808 -0.5466  0.5021 -0.5906
    4CHTO   N10 1480   7.291   6.362  -0.817 -0.8584  0.3891 -0.4304
    4CHTO  H106 1481   7.376   6.334  -0.877 -2.0267  1.7718 -2.8011
    4CHTO  H107 1482   7.321   6.377  -0.714  1.4857 -0.2865 -0.9832
    4CHTO   C58 1483   7.084   6.419  -0.927  0.6347  0.1928  0.3568
    4CHTO  H115 1484   7.101   6.325  -0.983  1.1416 -1.0253  2.4818
    4CHTO   O37 1485   7.006   6.509  -1.005 -0.0127 -0.0010  0.4842
    4CHTO   C59 1486   7.072   6.558  -1.122  0.2224  0.3983 -0.2047
    4CHTO  H116 1487   7.105   6.483  -1.194  0.7064  1.7355 -1.4041
    4CHTO   C70 1488   6.973   6.649  -1.195  0.3193 -0.1482 -0.1396
    4CHTO   O46 1489   6.875   6.578  -1.269  0.4684  0.1987  0.4456
    4CHTO  H103 1490   6.832   6.521  -1.208  1.1434 -0.1668  0.5786
    4CHTO   O39 1491   6.996   6.384  -0.796 -0.1718  0.1542 -0.3674
    4CHTO   C60 1492   6.866   6.327  -0.811 -0.3222 -0.1146  0.2456
    4CHTO  H117 1493   6.817   6.351  -0.906 -0.2614 -0.9677 -0.0061
    4CHTO   C62 1494   6.881   6.176  -0.812  0.4389  0.4927  0.3099
    4CHTO  H119 1495   6.963   6.161  -0.885 -0.0953 -0.9753 -0.0073
    4CHTO   O43 1496   6.919   6.111  -0.686 -0.0432  0.4344  0.1121
    4CHTO  H101 1497   7.009   6.127  -0.664  0.4708 -1.7217 -0.3484
    4CHTO   C66 1498   6.750   6.098  -0.859  0.3924  0.6087  0.9724
    4CHTO  H123 1499   6.713   6.144  -0.951 -0.3991 -2.5370 -0.3310
    4CHTO   N12 1500   6.771   5.950  -0.887 -0.1105 -0.8024  0.3626
    4CHTO  H110 1501   6.874   5.924  -0.907  0.0676 -1.8567  2.5457
    4CHTO  H111 1502   6.699   5.918  -0.962 -0.9659  1.8980 -0.0360
    4CHTO   C69 1503   6.638   6.121  -0.760  0.1648 -0.1251  0.4494
    4CHTO  H126 1504   6.666   6.071  -0.665 -0.3759  1.9729  1.7429
    4CHTO   O41 1505   6.626   6.287  -0.729  0.2516 -0.5735  0.2017
    4CHTO   C64 1506   6.765   6.361  -0.700 -0.0942  0.2577  0.0143
    4CHTO  H121 1507   6.803   6.331  -0.600  2.3062 -1.0357 -1.2411
    4CHTO   C71 1508   6.746   6.517  -0.696  0.3602  0.1105  0.2868
    4CHTO   O47 1509   6.856   6.597  -0.646  0.3038 -0.5420  0.5618
    4CHTO  H104 1510   6.822   6.657  -0.583 -0.3781  0.7544 -1.0059
    4CHTO   O34 1511   6.500   6.064  -0.816  0.2511 -0.2390 -0.0182
    4CHTO   C49 1512   6.383   6.134  -0.822 -0.4561  0.1636  0.7708
    4CHTO   H91 1513   6.371   6.199  -0.735 -1.5115  0.5790  0.3335
    4CHTO   C47 1514   6.259   6.036  -0.830  0.0634  0.0310  0.5314
    4CHTO   H89 1515   6.168   6.099  -0.815 -0.6606 -1.0204  0.5662
    4CHTO   O33 1516   6.269   5.941  -0.725  0.2509 -0.6663 -0.1820
    4CHTO   H70 1517   6.359   5.913  -0.727  0.2801 -0.5099 -1.4053
    4CHTO   C45 1518   6.254   5.959  -0.974  0.1099  0.3335 -0.9141
    4CHTO   H87 1519   6.287   5.855  -0.961 -2.5655 -0.7044 -2.0300
    4CHTO    N8 1520   6.117   5.949  -1.034  0.7457  0.2459 -0.1695
    4CHTO   H75 1521   6.062   5.871  -0.984  0.9001 -1.2033 -2.2323
    4CHTO   H76 1522   6.066   6.043  -1.015 -2.9822 -1.4162 -1.5082
    4CHTO   C43 1523   6.363   6.018  -1.069  0.1757 -0.8060 -0.0731
    4CHTO   H85 1524   6.463   5.982  -1.045  0.8832 -0.6667 -2.6481
    4CHTO   O29 1525   6.355   6.162  -1.065  0.3051 -0.3967  0.3223
    4CHTO   C50 1526   6.382   6.228  -0.942  0.6396  0.0125  0.5611
    4CHTO   H92 1527   6.481   6.276  -0.948  0.1722  0.8704 -0.5861
    4CHTO   C54 1528   6.284   6.344  -0.930 -1.1444  0.0928 -0.3186
    4CHTO   O36 1529   6.339   6.468  -0.988 -0.2797 -0.1372 -0.1162
    4CHTO   H72 1530   6.299   6.492  -1.070 -0.2596 -1.7351 -0.6104
    4CHTO   O27 1531   6.360   5.965  -1.203 -0.4030  0.5460 -0.1860
    4CHTO   C37 1532   6.465   5.966  -1.298 -0.4007  0.0424  0.1154
    4CHTO   H79 1533   6.429   5.946  -1.399 -1.5438 -0.6344  0.6504
    4CHTO   C38 1534   6.537   6.109  -1.303  0.5815  0.2306  0.2506
    4CHTO   H80 1535   6.567   6.144  -1.204  2.0395  0.0066 -0.0970
    4CHTO   O31 1536   6.446   6.209  -1.355 -0.1113  0.3666 -0.1976
    4CHTO   H68 1537   6.424   6.199  -1.446  0.3830  0.6807 -0.3547
    4CHTO   C39 1538   6.673   6.101  -1.389  0.3722  0.7628 -0.2855
    4CHTO   H81 1539   6.644   6.070  -1.489 -0.7032 -1.2537  0.6233
    4CHTO    N7 1540   6.749   6.232  -1.397 -0.1826  0.0143  0.8762
    4CHTO   H73 1541   6.699   6.301  -1.463 -0.4399  0.6303  1.7034
    4CHTO   H74 1542   6.855   6.219  -1.415 -0.7019 -1.5350 -1.2451
    4CHTO   C40 1543   6.759   5.985  -1.329  0.4454  0.7640  0.5196
    4CHTO   H82 1544   6.771   6.003  -1.222  0.2982 -0.0274  0.6732
    4CHTO   O26 1545   6.684   5.861  -1.352 -0.3084 -0.2121  0.1422
    4CHTO   C41 1546   6.566   5.852  -1.267 -0.0470  0.9513  0.3625
    4CHTO   H83 1547   6.602   5.858  -1.163 -1.7808  1.3956  0.9432
    4CHTO   C52 1548   6.493   5.717  -1.295  0.3104 -0.1638  0.2567
    4CHTO   O35 1549   6.547   5.598  -1.234  0.7727 -0.5725  0.0873
    4CHTO   H71 1550   6.481   5.562  -1.178  0.0692 -1.2045 -1.1321
    4CHTO   O28 1551   6.883   5.949  -1.392 -0.6944 -0.0344  0.3551
    4CHTO   C42 1552   6.986   5.893  -1.312 -0.0414 -0.6597 -0.0025
    4CHTO   H84 1553   7.073   5.889  -1.378  1.7108 -0.0736  2.2339
    4CHTO   C44 1554   6.960   5.747  -1.259  0.0004 -0.0560  0.2341
    4CHTO   H86 1555   6.863   5.751  -1.209 -1.9912  0.2046 -3.4532
    4CHTO   O32 1556   6.927   5.664  -1.373  0.4099 -0.0013 -0.5209
    4CHTO   H69 1557   6.906   5.575  -1.354 -0.9065  0.2488 -0.7210
    4CHTO   C48 1558   7.078   5.693  -1.168  0.5614  0.0806  0.4751
    4CHTO   H90 1559   7.171   5.685  -1.225 -0.2093  0.0153 -0.8039
    4CHTO    N9 1560   7.054   5.551  -1.114 -0.1574 -0.2397 -0.4764
    4CHTO   H77 1561   6.959   5.509  -1.140 -0.6703  1.6048 -1.6720
    4CHTO   H78 1562   7.062   5.539  -1.007 -2.7662 -1.4794 -0.3820
    4CHTO   C51 1563   7.104   5.803  -1.052 -0.0808 -0.1342  0.0211
    4CHTO   H93 1564   7.012   5.808  -0.993  0.7276 -1.2224  1.4197
    4CHTO   O30 1565   7.147   5.925  -1.110  0.5519 -0.3999 -0.3025
    4CHTO   C46 1566   7.031   5.984  -1.192 -0.2711 -0.3581 -0.0889
    4CHTO   H88 1567   6.948   6.004  -1.124  1.1278 -0.3880  1.6579
    4CHTO   C53 1568   7.084   6.122  -1.239 -0.5288  0.2426 -1.0022
    4CHTO   O72 1569   7.195   6.082  -1.324  0.0917 -0.1547  0.0292
    4CHTO  H199 1570   7.267   6.075  -1.265  1.2984  0.0847 -1.4081
    4CHTO   O22 1571   7.212   5.773  -0.968 -0.3751 -0.2586  0.1758
    4CHTO   C31 1572   7.207   5.808  -0.826 -0.3617  0.7609  0.4506
    4CHTO   H59 1573   7.135   5.892  -0.817  0.7390  1.6392  1.0674
    4CHTO   C29 1574   7.161   5.697  -0.730  0.8389 -0.1411 -0.4178
    4CHTO   H57 1575   7.230   5.611  -0.727  0.7699 -0.2154 -0.9557
    4CHTO   O21 1576   7.036   5.650  -0.774 -0.3078 -0.0765 -0.2265
    4CHTO   H37 1577   7.035   5.596  -0.851 -0.4160 -1.3573  0.6759
    4CHTO   C27 1578   7.153   5.764  -0.583  0.2436  0.2396  0.0121
    4CHTO   H55 1579   7.087   5.853  -0.587 -0.0883 -0.0252 -0.5001
    4CHTO    N5 1580   7.093   5.670  -0.486  0.2824  0.0425  0.1916
    4CHTO   H43 1581   7.035   5.595  -0.538  1.3947  0.2822 -1.4690
    4CHTO   H44 1582   7.172   5.618  -0.434 -2.0855 -2.7075  1.1283
    4CHTO   C25 1583   7.293   5.820  -0.537  0.9047 -0.2394  0.4828
    4CHTO   H53 1584   7.366   5.739  -0.522  0.2288 -0.6520  1.5634
    4CHTO   O17 1585   7.330   5.917  -0.639  0.1311  0.1038 -0.6531
    4CHTO   C32 1586   7.341   5.863  -0.768 -0.0481 -0.1395 -0.9343
    4CHTO   H60 1587   7.410   5.780  -0.756  0.6859  0.6282  0.3458
    4CHTO   C36 1588   7.406   5.968  -0.866  0.2357  0.8189  0.7503
    4CHTO   O25 1589   7.541   5.963  -0.842  0.5059 -0.0006  0.1815
    4CHTO   H40 1590   7.588   6.035  -0.881 -1.0036  0.6559 -0.4593
    4CHTO   O15 1591   7.272   5.897  -0.396  0.4244 -0.0131 -0.3396
    4CHTO   C19 1592   7.251   6.037  -0.347  0.2589  0.0385 -0.1137
    4CHTO   H47 1593   7.248   6.027  -0.238  0.2689  1.6242  0.0388
    4CHTO   C20 1594   7.371   6.134  -0.375  0.3287 -0.1007  0.5392
    4CHTO   H48 1595   7.383   6.158  -0.482  0.3787  2.2686  1.0386
    4CHTO   O19 1596   7.489   6.072  -0.322  0.2737 -0.7775  0.1343
    4CHTO   H35 1597   7.563   6.129  -0.329  0.8746 -1.4346  1.1290
    4CHTO   C21 1598   7.338   6.273  -0.303 -0.1989  0.1467  0.0693
    4CHTO   H49 1599   7.337   6.253  -0.196 -0.9599 -0.6657 -0.0813
    4CHTO    N4 1600   7.446   6.375  -0.329  0.0735 -0.0950  1.0707
    4CHTO   H41 1601   7.532   6.342  -0.386  0.7244  2.2837  0.6301
    4CHTO   H42 1602   7.472   6.439  -0.246  1.5479 -1.3967  1.6353
    4CHTO   C22 1603   7.202   6.327  -0.356  0.1145  0.5464  0.3959
    4CHTO   H50 1604   7.205   6.350  -0.462 -1.8222  0.8831  0.4048
    4CHTO   O14 1605   7.098   6.227  -0.331  0.2162 -0.5988  0.1713
    4CHTO   C23 1606   7.113   6.094  -0.383  0.5688 -0.3598 -0.3224
    4CHTO   H51 1607   7.102   6.112  -0.491  2.4970 -1.3667 -0.7087
    4CHTO   C34 1608   6.994   6.001  -0.349 -0.6472  0.1888 -0.8393
    4CHTO   O23 1609   6.871   6.062  -0.379 -0.2372  0.0703 -0.3838
    4CHTO   H38 1610   6.806   5.995  -0.372 -0.6805  0.3996 -1.3244
    4CHTO   O16 1611   7.162   6.442  -0.284 -0.7448  0.2239  0.0819
    4CHTO   C24 1612   7.031   6.494  -0.321  0.4120  0.4132 -0.9909
    4CHTO   H52 1613   6.998   6.459  -0.419  0.6214 -1.2260 -0.4797
    4CHTO   C26 1614   7.047   6.645  -0.317  0.2659 -0.3270 -0.1971
    4CHTO   H54 1615   7.134   6.671  -0.381  1.5681  0.4721  1.8700
    4CHTO   O20 1616   6.940   6.710  -0.382  0.3842 -0.0154  0.3959
    4CHTO   H36 1617   6.956   6.799  -0.408  0.2746 -0.1269 -0.0637
    4CHTO   C30 1618   7.062   6.707  -0.173  0.2967  0.0538  1.2673
    4CHTO   H58 1619   6.977   6.775  -0.158 -1.1023 -1.3507 -0.1681
    4CHTO    N6 1620   7.191   6.781  -0.155  0.2130  0.3092 -0.1903
    4CHTO   H45 1621   7.190   6.868  -0.220  3.7397 -0.4860 -1.4327
    4CHTO   H46 1622   7.208   6.808  -0.052 -0.6091 -0.8292  0.2532
    4CHTO   C33 1623   7.048   6.601  -0.060  1.2923 -0.1822 -0.1690
    4CHTO   H61 1624   7.130   6.528  -0.053  1.2917 -0.1327  0.4263
    4CHTO   O18 1625   6.926   6.527  -0.091 -0.3304 -0.0015  0.1656
    4CHTO   C28 1626   6.931   6.443  -0.206  0.3427  0.5297  0.3458
    4CHTO   H56 1627   6.959   6.342  -0.176  3.2202  0.6453 -1.7149
    4CHTO   C35 1628   6.789   6.438  -0.266  0.6396  0.5485 -0.4623
    4CHTO   O24 1629   6.799   6.333  -0.363  0.3694 -0.4041 -0.3101
    4CHTO   H39 1630   6.731   6.330  -0.428 -0.2511  0.2615  0.3090
    4CHTO    O9 1631   7.042   6.656   0.074 -0.5693  0.0323  0.5287
    4CHTO   C13 1632   7.159   6.599   0.184 -0.3349  0.2463 -0.0071
    4CHTO   H26 1633   7.256   6.644   0.152 -0.7499  1.1768  0.0064
    4CHTO   C11 1634   7.162   6.443   0.195 -0.0510 -0.5532 -0.0559
    4CHTO   H24 1635   7.174   6.417   0.089 -1.7329 -1.2945 -0.0783
    4CHTO    O8 1636   7.036   6.393   0.241  0.3548  0.3200  0.3587
    4CHTO    H3 1637   7.028   6.300   0.232 -1.1096  0.6843 -2.9880
    4CHTO    C9 1638   7.277   6.416   0.299  0.1477  0.5263  0.3350
    4CHTO   H22 1639   7.369   6.455   0.253  1.4477 -1.4558  1.1988
    4CHTO    N2 1640   7.310   6.269   0.308 -0.2171  0.3368 -0.5429
    4CHTO   H10 1641   7.229   6.208   0.272 -0.2779 -1.3838  2.3780
    4CHTO   H11 1642   7.348   6.237   0.404  1.3069  0.5312 -1.0769
    4CHTO    C7 1643   7.247   6.487   0.437  0.1629 -0.0380  0.2260
    4CHTO   H20 1644   7.335   6.553   0.450  0.1749 -0.2700  1.3142
    4CHTO    O4 1645   7.135   6.576   0.434 -0.6126 -0.9843 -0.6427
    4CHTO   C14 1646   7.125   6.665   0.321  0.0309  0.3497 -0.1525
    4CHTO   H27 1647   7.198   6.749   0.330  1.8610 -1.3171  0.7547
    4CHTO   C18 1648   6.985   6.725   0.334  0.0270  0.2795 -0.2704
    4CHTO   O13 1649   6.961   6.775   0.464 -0.0706 -0.3983 -0.0891
    4CHTO    H7 1650   6.962   6.702   0.523  2.9440  0.0830  0.5385
    4CHTO    O2 1651   7.235   6.387   0.569 -0.7088  0.1085  0.0441
    4CHTO    C1 1652   7.329   6.417   0.670 -0.5963 -0.0953  0.1811
    4CHTO   H14 1653   7.367   6.521   0.670 -0.9276  0.0344 -1.2901
    4CHTO    C2 1654   7.449   6.319   0.673 -0.1218 -0.2087 -0.3738
    4CHTO   H15 1655   7.406   6.218   0.686  0.0249 -0.2332 -0.0904
    4CHTO    O6 1656   7.518   6.336   0.550  0.0611  0.8840 -0.2846
    4CHTO    H1 1657   7.562   6.419   0.542 -0.4924  1.3089  1.0571
    4CHTO    C3 1658   7.547   6.348   0.801  0.0513 -0.7280  0.3327
    4CHTO   H16 1659   7.581   6.452   0.787 -1.0412 -0.4983 -0.6837
    4CHTO    N1 1660   7.668   6.254   0.812  0.2098  0.1636 -0.0622
    4CHTO    H8 1661   7.730   6.265   0.725  1.3288  1.0143  0.8265
    4CHTO    H9 1662   7.632   6.152   0.812 -0.0941  0.2499 -1.9216
    4CHTO    C4 1663   7.455   6.340   0.924  0.2528 -0.4828  0.1963
    4CHTO   H17 1664   7.432   6.235   0.943 -1.4970 -0.4812 -1.7217
    4CHTO    O1 1665   7.333   6.415   0.915  0.1392 -0.0974 -0.2020
    4CHTO    C5 1666   7.247   6.394   0.802  0.3932  0.0363 -0.2332
    4CHTO   H18 1667   7.206   6.293   0.790 -1.2931  0.6811 -0.0458
    4CHTO   C16 1668   7.133   6.490   0.818 -0.0720 -0.0983 -0.2423
    4CHTO   O11 1669   7.066   6.462   0.939  0.2911 -0.3553 -0.0232
    4CHTO    H5 1670   7.008   6.531   0.963  0.7673  0.1909 -0.4298
    4CHTO    O3 1671   7.522   6.412   1.034 -0.4872  0.4049  0.2284
    4CHTO    C6 1672   7.465   6.384   1.165  0.0984 -0.0089  0.0491
    4CHTO   H19 1673   7.376   6.323   1.147 -0.1605  0.5644 -0.6204
    4CHTO    C8 1674   7.563   6.302   1.259 -0.0407 -0.0158  0.5887
    4CHTO   H21 1675   7.652   6.360   1.278 -0.1195 -0.1111  1.2506
    4CHTO    O7 1676   7.591   6.179   1.185  0.1149  0.4412  0.5283
    4CHTO    H2 1677   7.517   6.124   1.199  1.5865 -1.8772 -0.6098
    4CHTO   C12 1678   7.504   6.279   1.403 -0.3582  0.1480 -0.0386
    4CHTO   H25 1679   7.421   6.206   1.393  0.9014 -1.0610 -1.8695
    4CHTO    N3 1680   7.596   6.208   1.496  0.2674  0.2758  0.0287
    4CHTO   H12 1681   7.669   6.270   1.545 -1.7337  0.3545  3.0491
    4CHTO   H13 1682   7.653   6.133   1.443 -0.0492 -0.4112  0.6473
    4CHTO   C15 1683   7.442   6.412   1.461  0.3017 -0.0587  0.2423
    4CHTO   H28 1684   7.521   6.481   1.492 -0.5328  0.7854  0.5069
    4CHTO   O10 1685   7.353   6.384   1.590 -0.0997 -0.2671  0.7846
    4CHTO    H4 1686   7.410   6.346   1.654  0.4927 -0.5499  0.0952
    4CHTO    O5 1687   7.352   6.474   1.368  0.4742 -0.2986  0.2113
    4CHTO   C10 1688   7.417   6.508   1.244 -0.3351 -0.5163  0.0911
    4CHTO   H23 1689   7.501   6.572   1.269 -0.7043  0.0896 -0.1992
    4CHTO   C17 1690   7.318   6.597   1.164 -0.7461  0.1171  0.0964
    4CHTO   O12 1691   7.378   6.670   1.058  0.3682 -0.1725 -0.4980
    4CHTO    H6 1692   7.425   6.742   1.095 -1.5270  0.0605  1.5115
    5CHTO  H203 1693   6.826   4.065   2.409 -0.1469  0.0939 -3.6801
    5CHTO   O82 1694   6.820   3.972   2.403  0.4237 -0.1890 -0.6074
    5CHTO  C123 1695   6.763   3.917   2.525 -0.3784  0.0598  0.1559
    5CHTO  H227 1696   6.821   3.960   2.608  0.9297  1.5642 -1.4936
    5CHTO   O77 1697   6.638   3.978   2.531 -0.4189  0.0373 -0.0576
    5CHTO  C118 1698   6.561   3.953   2.651 -0.4963  0.1016  0.0539
    5CHTO  H222 1699   6.625   3.975   2.737 -1.4414 -0.6130  0.9587
    5CHTO  C125 1700   6.430   4.046   2.646  0.1315  0.0379 -0.4776
    5CHTO   O84 1701   6.463   4.179   2.654  0.1087 -0.3342  0.1821
    5CHTO  H205 1702   6.386   4.223   2.685  0.7554  1.5685 -0.8764
    5CHTO  C114 1703   6.523   3.803   2.665  0.0395  0.3154 -0.6702
    5CHTO  H218 1704   6.452   3.777   2.586 -1.6916  0.1254  0.8989
    5CHTO  C116 1705   6.648   3.715   2.642 -0.5471  0.4369  0.6154
    5CHTO  H220 1706   6.707   3.713   2.736 -0.0912 -0.6532  0.3172
    5CHTO   O79 1707   6.597   3.580   2.616 -0.1882 -0.4289  0.2640
    5CHTO  H201 1708   6.666   3.518   2.606  0.8637  0.8476 -0.5909
    5CHTO  C120 1709   6.748   3.760   2.527 -0.4087 -0.5036  0.4484
    5CHTO  H224 1710   6.697   3.732   2.432 -2.5803 -1.0616  1.7449
    5CHTO   N21 1711   6.881   3.696   2.533  0.1232 -1.3408 -0.4005
    5CHTO  H211 1712   6.944   3.765   2.587  1.3925  0.0017 -3.4374
    5CHTO  H212 1713   6.871   3.603   2.588 -1.1751  0.2817  2.1989
    5CHTO   O75 1714   6.468   3.777   2.791 -0.0079  0.0137  0.4431
    5CHTO  C112 1715   6.336   3.711   2.806  0.1136  0.0326  0.5822
    5CHTO  H216 1716   6.323   3.641   2.723  0.0577  1.6155 -0.7719
    5CHTO   O73 1717   6.236   3.814   2.799  0.7296 -0.0851  0.0277
    5CHTO  C113 1718   6.105   3.762   2.794 -0.3353  0.4891 -0.0847
    5CHTO  H217 1719   6.105   3.683   2.716  2.4261  1.3278 -1.0042
    5CHTO  C124 1720   6.003   3.866   2.739  0.0488  0.4181 -0.3690
    5CHTO   O83 1721   5.993   3.982   2.825  0.1862  0.6712 -0.1041
    5CHTO  H204 1722   5.964   4.061   2.784 -0.9746 -0.4988 -1.5887
    5CHTO  C109 1723   6.076   3.706   2.934  0.0113 -0.2675 -0.1833
    5CHTO  H213 1724   6.084   3.792   3.001  3.5186 -1.2243  0.7448
    5CHTO  C110 1725   6.183   3.596   2.980  0.2225  0.0142 -0.2876
    5CHTO  H214 1726   6.164   3.502   2.929 -1.8327  1.5117 -2.4158
    5CHTO   O78 1727   6.166   3.560   3.117  0.7877  0.4456 -0.2517
    5CHTO  H200 1728   6.178   3.630   3.177  0.1954  0.1937  0.1667
    5CHTO  C111 1729   6.334   3.638   2.947  0.3576  0.6618  0.6987
    5CHTO  H215 1730   6.369   3.706   3.026 -0.5985  0.6554  1.1344
    5CHTO   N19 1731   6.423   3.521   2.949  0.3516 -0.0342  0.3987
    5CHTO  H207 1732   6.401   3.459   2.862 -1.1300  1.9815 -0.6994
    5CHTO  H208 1733   6.520   3.565   2.928  0.8835 -0.4561  1.9285
    5CHTO   O74 1734   5.940   3.651   2.934  0.0126 -0.6783  0.3481
    5CHTO  C115 1735   5.837   3.715   3.064  0.4737  0.3514  0.8844
    5CHTO  H219 1736   5.896   3.749   3.149  0.4579  1.7026  0.3782
    5CHTO   O76 1737   5.759   3.837   3.011  0.4177 -0.3581  0.8617
    5CHTO  C122 1738   5.667   3.811   2.904  0.3743  0.3839  0.0325
    5CHTO  H226 1739   5.724   3.799   2.812  2.7852 -0.7078  1.6220
    5CHTO  C126 1740   5.587   3.946   2.882 -0.1198 -0.2388 -0.2858
    5CHTO   O85 1741   5.668   4.050   2.832  0.1892  0.3590  0.0729
    5CHTO  H206 1742   5.757   4.036   2.857  0.5887 -1.5818 -2.2660
    5CHTO  C121 1743   5.577   3.686   2.929 -0.1816 -0.3804 -0.3762
    5CHTO  H225 1744   5.470   3.707   2.911 -0.2765  0.5507  1.1686
    5CHTO   O81 1745   5.596   3.584   2.836  0.1072 -0.4844  0.1070
    5CHTO  H202 1746   5.671   3.531   2.856  2.0237  1.2741 -2.1615
    5CHTO  C119 1747   5.595   3.631   3.075  0.0284  0.4767 -0.1459
    5CHTO  H223 1748   5.568   3.716   3.138  2.3916  1.4306 -0.3774
    5CHTO  C117 1749   5.743   3.594   3.108 -0.1058  0.4563  0.6406
    5CHTO  H221 1750   5.780   3.500   3.067 -1.9711 -0.2258  0.4444
    5CHTO   N20 1751   5.750   3.572   3.256 -0.3418 -0.1935 -0.0739
    5CHTO  H209 1752   5.805   3.482   3.279 -0.6290  0.2587  2.4623
    5CHTO  H210 1753   5.660   3.571   3.315 -0.6497 -2.1261 -0.5434
    5CHTO   O80 1754   5.473   3.528   3.112 -0.2488 -0.2655 -0.3198
    5CHTO  C103 1755   5.454   3.374   3.028 -0.0332 -0.2120 -0.4198
    5CHTO  H190 1756   5.480   3.392   2.924  1.3081  0.4717  0.0192
    5CHTO  C101 1757   5.531   3.248   3.085  0.3268 -0.5458  0.3549
    5CHTO  H188 1758   5.517   3.242   3.192  2.0359 -0.6644  0.5853
    5CHTO   O68 1759   5.677   3.254   3.063 -0.7186  0.1925  0.6312
    5CHTO  H168 1760   5.708   3.165   3.058 -0.2896  0.4593 -2.3543
    5CHTO   C99 1761   5.470   3.103   3.015  0.0427 -0.6493 -0.4005
    5CHTO  H186 1762   5.483   3.099   2.905 -1.1668 -1.1530 -0.5346
    5CHTO   N17 1763   5.528   2.976   3.073 -0.2805  0.4274 -0.2676
    5CHTO  H174 1764   5.592   2.994   3.159 -0.6872  4.1106 -0.6747
    5CHTO  H175 1765   5.450   2.909   3.104  1.1354 -0.5465  1.2812
    5CHTO   C97 1766   5.319   3.111   3.036  0.3201 -0.6496 -0.0613
    5CHTO  H184 1767   5.298   3.107   3.144  3.6207 -0.9920  0.6159
    5CHTO   O64 1768   5.263   3.227   2.972  0.5971 -0.3907 -0.2421
    5CHTO  C104 1769   5.299   3.354   3.033 -0.4518 -0.6726  0.4303
    5CHTO  H191 1770   5.268   3.367   3.137 -2.9043 -0.4113 -0.2953
    5CHTO  C108 1771   5.223   3.468   2.953 -0.0227 -0.1479  0.5820
    5CHTO   O71 1772   5.079   3.467   2.974  0.0979  0.1030 -0.0209
    5CHTO  H171 1773   5.053   3.401   3.035 -1.4289 -1.1773 -2.0368
    5CHTO   O62 1774   5.255   2.994   2.972  0.2057  0.2007  0.1994
    5CHTO   C91 1775   5.123   2.961   3.018  0.0154  0.3369  0.1376
    5CHTO  H178 1776   5.099   3.021   3.106 -3.0238 -0.0740 -0.3509
    5CHTO   C92 1777   5.120   2.813   3.066 -0.1993  0.4292 -0.4668
    5CHTO  H179 1778   5.202   2.800   3.139 -1.3437  4.0880  1.6461
    5CHTO   O66 1779   5.006   2.780   3.143  0.1085 -0.2702 -0.1514
    5CHTO  H166 1780   5.028   2.704   3.193  1.2178 -0.7328 -1.3075
    5CHTO   C93 1781   5.127   2.708   2.950  0.1315 -0.1962  0.1137
    5CHTO  H180 1782   5.089   2.612   2.989  2.7982 -1.6876 -0.8531
    5CHTO   N16 1783   5.263   2.671   2.914  0.4780 -0.0849 -0.5936
    5CHTO  H172 1784   5.329   2.712   2.989 -0.4106  2.2250 -1.0297
    5CHTO  H173 1785   5.296   2.708   2.818  0.5303 -2.2206 -1.4233
    5CHTO   C94 1786   5.038   2.750   2.823 -0.0177 -0.2941  0.3828
    5CHTO  H181 1787   5.097   2.795   2.743 -1.0809 -1.8661 -1.3120
    5CHTO   O61 1788   4.945   2.856   2.863 -0.0088 -0.0076  0.2864
    5CHTO   C95 1789   5.007   2.983   2.909 -0.0608  0.2582 -0.1572
    5CHTO  H182 1790   5.062   3.020   2.823 -0.5313  0.5251 -0.3459
    5CHTO  C106 1791   4.901   3.094   2.958  0.4660 -0.4610 -0.0721
    5CHTO   O69 1792   4.804   3.061   3.053  0.0210  0.4531  0.4163
    5CHTO  H169 1793   4.827   2.979   3.093 -2.4553  0.2601  1.5515
    5CHTO   O63 1794   4.954   2.627   2.780  0.2005 -0.4513  0.1218
    5CHTO   C96 1795   4.876   2.645   2.628  0.2445 -0.5834  0.2190
    5CHTO  H183 1796   4.922   2.737   2.591  2.0321 -1.0166  1.3210
    5CHTO   C98 1797   4.718   2.650   2.628 -0.0900 -0.4045  0.7383
    5CHTO  H185 1798   4.673   2.569   2.687 -0.4845 -0.5269  0.2743
    5CHTO   O67 1799   4.696   2.773   2.700  0.4270  0.2277  0.5852
    5CHTO  H167 1800   4.729   2.848   2.655  0.4722  0.3535  0.8284
    5CHTO  C102 1801   4.663   2.661   2.476 -0.5414  0.3331  0.1812
    5CHTO  H189 1802   4.674   2.766   2.446 -1.1157  1.0702  2.4283
    5CHTO   N18 1803   4.524   2.638   2.463  0.1101 -0.0684  0.1048
    5CHTO  H176 1804   4.472   2.712   2.522  0.6758  0.9550 -0.6649
    5CHTO  H177 1805   4.479   2.640   2.365 -0.1682 -0.4566  0.2245
    5CHTO  C105 1806   4.746   2.570   2.382 -0.0575  0.1848  0.7535
    5CHTO  H192 1807   4.718   2.465   2.397  1.5676 -0.4071 -0.1756
    5CHTO   O65 1808   4.889   2.578   2.399 -0.1963 -0.2037  0.1328
    5CHTO  C100 1809   4.931   2.534   2.534  0.3057 -0.0681 -0.1240
    5CHTO  H187 1810   4.877   2.440   2.550 -2.4413  1.1216 -2.1610
    5CHTO  C107 1811   5.083   2.520   2.543  0.7066 -0.9116 -0.5622
    5CHTO   O70 1812   5.118   2.453   2.662 -0.2305 -0.2887  0.4851
    5CHTO  H170 1813   5.096   2.499   2.741 -3.6151 -0.2052 -0.4240
    5CHTO   O57 1814   4.713   2.626   2.219  0.0717  0.4211 -0.0428
    5CHTO   C85 1815   4.640   2.548   2.121 -0.4536  0.5033 -0.0122
    5CHTO  H157 1816   4.553   2.506   2.176 -0.4366  1.3200  0.6412
    5CHTO   C83 1817   4.732   2.429   2.082  0.7913  0.8707  0.2087
    5CHTO  H155 1818   4.751   2.372   2.173  1.4185 -1.1030 -1.1252
    5CHTO   O56 1819   4.859   2.484   2.048 -0.6078 -0.0931 -0.4509
    5CHTO  H135 1820   4.870   2.491   1.955  0.1944 -0.3297 -0.3690
    5CHTO   C81 1821   4.657   2.336   1.978 -0.2988  0.0847 -0.9775
    5CHTO  H153 1822   4.567   2.299   2.027 -0.4170 -0.0219 -1.2705
    5CHTO   N14 1823   4.738   2.211   1.953  0.0841 -0.3113  0.0574
    5CHTO  H141 1824   4.688   2.150   1.881 -0.4803 -0.1957  0.3426
    5CHTO  H142 1825   4.832   2.246   1.916  0.0712 -1.1943 -0.8187
    5CHTO   C79 1826   4.621   2.418   1.850 -0.0622  0.3639  0.1416
    5CHTO  H151 1827   4.549   2.357   1.794  0.4647 -0.3611  0.2467
    5CHTO   O52 1828   4.543   2.539   1.892  0.6181 -0.1192 -0.0607
    5CHTO   C86 1829   4.599   2.628   1.989  0.2398  0.1132  0.4494
    5CHTO  H158 1830   4.682   2.670   1.929 -0.8694 -0.9225 -1.9077
    5CHTO   C90 1831   4.500   2.741   2.002  0.1508 -0.3806 -0.2938
    5CHTO   O60 1832   4.545   2.842   2.097 -0.7293 -0.5285 -0.7958
    5CHTO  H138 1833   4.526   2.823   2.187 -2.8775  1.4664 -0.7828
    5CHTO   O50 1834   4.737   2.465   1.771 -0.0791  0.4434 -0.1115
    5CHTO   C73 1835   4.812   2.480   1.654  0.7245  0.3772 -0.7042
    5CHTO  H145 1836   4.744   2.496   1.568  0.5802  0.5238 -0.5617
    5CHTO   C74 1837   4.907   2.359   1.645 -0.5595 -0.0588  0.6393
    5CHTO  H146 1838   4.842   2.271   1.646 -0.1331 -0.3952 -0.3707
    5CHTO   O54 1839   4.982   2.378   1.520 -0.2388 -0.2480  0.0003
    5CHTO  H133 1840   5.070   2.346   1.532 -0.0001  0.9327  1.5201
    5CHTO   C75 1841   5.008   2.352   1.767 -0.6371  1.2073 -0.2478
    5CHTO  H147 1842   4.951   2.328   1.858 -1.1007 -1.8897 -1.3091
    5CHTO   N13 1843   5.112   2.241   1.756  0.7190  0.3520 -0.2681
    5CHTO  H139 1844   5.053   2.151   1.762 -0.6680  1.2989  0.5534
    5CHTO  H140 1845   5.180   2.255   1.839 -0.5854  1.3873  0.6540
    5CHTO   C76 1846   5.086   2.491   1.777  0.2522 -0.2129  0.2524
    5CHTO  H148 1847   5.159   2.499   1.697  0.5789  1.6025  0.7311
    5CHTO   O49 1848   4.993   2.601   1.779 -0.5020  0.0418 -0.0875
    5CHTO   C77 1849   4.901   2.604   1.668  0.1382 -0.1568 -0.3109
    5CHTO  H149 1850   4.965   2.608   1.580 -0.0788  2.4079 -0.3816
    5CHTO   C88 1851   4.821   2.733   1.679  0.9910 -0.2694  0.4256
    5CHTO   O58 1852   4.921   2.871   1.663  0.2934 -0.1262 -0.0291
    5CHTO  H136 1853   4.982   2.890   1.731  0.2996 -0.0008 -0.0700
    5CHTO   O51 1854   5.158   2.485   1.927 -0.1698 -0.3066  0.2886
    5CHTO   C78 1855   5.286   2.601   1.943  0.0002 -0.6569 -0.0339
    5CHTO  H150 1856   5.262   2.692   1.885  1.2860  0.1201  0.6344
    5CHTO   C80 1857   5.430   2.559   1.893 -0.3083 -0.1019  0.1738
    5CHTO  H152 1858   5.445   2.452   1.919  1.3610  0.2371  0.6684
    5CHTO   O55 1859   5.418   2.545   1.750 -0.5361  0.4574 -0.2637
    5CHTO  H134 1860   5.497   2.553   1.701 -0.2041  4.0293  0.7500
    5CHTO   C84 1861   5.544   2.655   1.949  0.1755 -0.4746  0.2900
    5CHTO  H156 1862   5.530   2.755   1.907  1.0609 -0.7981 -0.7694
    5CHTO   N15 1863   5.674   2.588   1.919 -0.1639 -0.7773 -0.2443
    5CHTO  H143 1864   5.690   2.508   1.988 -2.1177  0.4798  1.7243
    5CHTO  H144 1865   5.674   2.558   1.816  0.4210  0.1798 -0.5357
    5CHTO   C87 1866   5.518   2.680   2.100  0.0295  0.2862  0.7277
    5CHTO  H159 1867   5.527   2.588   2.158  2.3139  1.0648  1.6499
    5CHTO   O53 1868   5.390   2.741   2.114 -0.3891  0.3588  0.9727
    5CHTO   C82 1869   5.286   2.649   2.093 -0.3651  0.2450 -0.5905
    5CHTO  H154 1870   5.303   2.561   2.155 -2.1280  2.0811  2.6277
    5CHTO   C89 1871   5.146   2.695   2.130 -0.0416  0.5268 -0.2815
    5CHTO   O59 1872   5.149   2.736   2.272 -0.3379  0.3050  0.1305
    5CHTO  H137 1873   5.062   2.721   2.305 -0.7761  0.7102 -0.8020
    5CHTO   O45 1874   5.625   2.781   2.171 -0.7610  0.0190  0.5747
    5CHTO   C67 1875   5.686   2.732   2.289 -0.1155 -0.3623  0.3192
    5CHTO  H124 1876   5.674   2.625   2.297 -1.6292 -0.0746  1.9914
    5CHTO   C65 1877   5.838   2.764   2.301 -0.3545  0.0596 -0.5636
    5CHTO  H122 1878   5.890   2.736   2.209  0.8140 -1.8914  0.6516
    5CHTO   O44 1879   5.883   2.665   2.398 -0.1789  0.1616 -0.4107
    5CHTO  H102 1880   5.966   2.693   2.428  0.2855  0.3554 -1.8209
    5CHTO   C63 1881   5.856   2.915   2.332 -0.2256  0.5631  0.1415
    5CHTO  H120 1882   5.802   2.974   2.258 -3.0695  0.6944  2.2398
    5CHTO   N11 1883   5.998   2.968   2.326 -0.3629  0.1319 -0.1621
    5CHTO  H108 1884   5.995   3.064   2.281 -1.2533 -0.2482 -0.9185
    5CHTO  H109 1885   6.065   2.900   2.277  1.4193  0.8129  1.2316
    5CHTO   C61 1886   5.782   2.949   2.467 -0.1634  0.2394 -0.0598
    5CHTO  H118 1887   5.786   3.059   2.474 -0.8603  0.1911  1.2496
    5CHTO   O40 1888   5.645   2.911   2.469 -0.2096 -0.1388 -0.0091
    5CHTO   C68 1889   5.598   2.790   2.416  0.1519  0.3633 -0.3383
    5CHTO  H125 1890   5.497   2.819   2.379  0.2303 -1.8688 -2.4083
    5CHTO   C72 1891   5.568   2.677   2.523  0.6448 -0.5760  0.2107
    5CHTO   O48 1892   5.451   2.701   2.590  0.2677  0.4374  0.1406
    5CHTO  H105 1893   5.421   2.623   2.634  0.9542  1.1378  1.8787
    5CHTO   O38 1894   5.852   2.898   2.583  0.2861  0.7057  0.5423
    5CHTO   C55 1895   5.839   2.940   2.717 -0.6497  0.1274  0.2785
    5CHTO  H112 1896   5.733   2.962   2.741 -0.6317  0.8634 -0.3009
    5CHTO   C56 1897   5.930   3.072   2.741 -0.4298  0.1058 -1.1948
    5CHTO  H113 1898   6.026   3.066   2.687 -0.6762 -0.1293 -1.6075
    5CHTO   O42 1899   5.855   3.179   2.671  0.2299  0.2448 -0.3654
    5CHTO  H100 1900   5.774   3.190   2.716  0.6034 -0.0110  0.3771
    5CHTO   C57 1901   5.951   3.102   2.894  0.2004 -0.0802  0.2154
    5CHTO  H114 1902   5.854   3.128   2.936  0.7145 -1.0197  2.0628
    5CHTO   N10 1903   6.041   3.219   2.916 -0.1923  0.1137  0.0691
    5CHTO  H106 1904   6.034   3.286   2.831 -0.1819  0.7678  0.5837
    5CHTO  H107 1905   6.001   3.265   3.005  0.9917  0.9068  0.1889
    5CHTO   C58 1906   6.000   2.977   2.968 -0.2471 -0.0635 -0.2860
    5CHTO  H115 1907   6.092   2.938   2.920 -1.2409 -0.2939 -2.0004
    5CHTO   O37 1908   5.899   2.872   2.950  0.2501  0.8009 -0.1402
    5CHTO   C59 1909   5.892   2.822   2.810 -0.3172 -0.5806 -0.3038
    5CHTO  H116 1910   5.995   2.805   2.779 -0.4466 -1.0104 -0.5052
    5CHTO   C70 1911   5.794   2.705   2.804  0.0662 -0.2551  0.6467
    5CHTO   O46 1912   5.773   2.625   2.922 -0.0972 -0.1238  0.1759
    5CHTO  H103 1913   5.770   2.683   2.995 -1.4457 -2.5457  2.1147
    5CHTO   O39 1914   6.020   2.996   3.143  0.0165  0.2778 -0.1583
    5CHTO   C60 1915   5.910   3.007   3.238  0.0697  0.1744 -0.2874
    5CHTO  H117 1916   5.825   3.065   3.203 -1.4453 -2.9730 -2.0693
    5CHTO   C62 1917   5.849   2.871   3.284 -0.2336 -0.3486 -0.1659
    5CHTO  H119 1918   5.801   2.824   3.196 -0.8278 -3.0212  1.5186
    5CHTO   O43 1919   5.950   2.782   3.328 -0.2005 -0.4235  0.0324
    5CHTO  H101 1920   5.911   2.706   3.367 -0.2474 -0.4042  0.0247
    5CHTO   C66 1921   5.744   2.898   3.402  0.4645  0.3212 -0.2826
    5CHTO  H123 1922   5.667   2.971   3.376  0.2495  0.8601  1.7659
    5CHTO   N12 1923   5.674   2.773   3.435  0.2221 -0.0758  0.1941
    5CHTO  H110 1924   5.598   2.750   3.361 -1.4225  0.9239  1.5214
    5CHTO  H111 1925   5.744   2.693   3.452 -0.9576 -0.8295  1.7364
    5CHTO   C69 1926   5.808   2.974   3.517 -0.0336  0.6485  0.3241
    5CHTO  H126 1927   5.892   2.912   3.555 -0.3639  1.5894  2.6603
    5CHTO   O41 1928   5.850   3.095   3.462 -0.2361  0.1092 -0.0577
    5CHTO   C64 1929   5.960   3.078   3.360 -0.1137  1.2130  0.1945
    5CHTO  H121 1930   6.042   3.019   3.405 -0.9505 -1.0242 -1.1612
    5CHTO   C71 1931   6.017   3.224   3.319 -0.0953 -0.1364  0.5778
    5CHTO   O47 1932   6.081   3.283   3.432 -0.0767  0.2100 -0.6723
    5CHTO  H104 1933   6.023   3.291   3.505 -0.3426  0.3642 -0.8965
    5CHTO   O34 1934   5.696   3.007   3.635 -0.3046  0.5907 -0.6640
    5CHTO   C49 1935   5.605   3.124   3.671  0.0037  0.3989 -0.0453
    5CHTO   H91 1936   5.676   3.201   3.699 -0.7919  0.8702  0.7305
    5CHTO   C47 1937   5.519   3.086   3.793 -0.0193 -0.1090 -0.7280
    5CHTO   H89 1938   5.470   3.177   3.834  0.2479 -1.3761  2.5561
    5CHTO   O33 1939   5.598   3.032   3.897 -0.2968 -0.1971 -0.3229
    5CHTO   H70 1940   5.677   3.080   3.913 -0.6943  0.2399  0.3369
    5CHTO   C45 1941   5.409   2.973   3.742  0.1869  0.5290  0.1550
    5CHTO   H87 1942   5.463   2.881   3.713 -0.2298  0.6013 -0.8372
    5CHTO    N8 1943   5.318   2.928   3.853  0.1317  0.3179 -0.1601
    5CHTO   H75 1944   5.298   2.989   3.940  0.7456 -1.5744  1.3308
    5CHTO   H76 1945   5.351   2.835   3.897 -0.7506  0.4708  0.8413
    5CHTO   C43 1946   5.322   3.043   3.623  0.1424  0.0741  0.5607
    5CHTO   H85 1947   5.257   2.964   3.587  0.6734  0.6036 -1.5980
    5CHTO   O29 1948   5.409   3.092   3.517  0.0161 -0.1938 -0.7002
    5CHTO   C50 1949   5.520   3.176   3.553 -0.1853 -0.5075  0.8058
    5CHTO   H92 1950   5.589   3.171   3.468 -0.0002 -0.2330  0.9398
    5CHTO   C54 1951   5.474   3.333   3.583  0.2003 -0.4210 -0.6204
    5CHTO   O36 1952   5.397   3.393   3.476  0.8362 -0.3151 -0.0639
    5CHTO   H72 1953   5.312   3.355   3.460 -0.6978  1.8242  2.4656
    5CHTO   O27 1954   5.238   3.150   3.667  0.4341 -0.2327  0.2932
    5CHTO   C37 1955   5.127   3.219   3.722 -0.0831  0.5082 -0.0052
    5CHTO   H79 1956   5.108   3.198   3.829  0.0557 -2.8077 -0.5549
    5CHTO   C38 1957   5.153   3.372   3.720 -0.2920 -0.4996 -0.0756
    5CHTO   H80 1958   5.157   3.402   3.614 -1.8189 -2.2133 -0.6381
    5CHTO   O31 1959   5.265   3.407   3.800  0.0556  0.6537  0.5730
    5CHTO   H68 1960   5.295   3.494   3.780  2.4509  0.4758  3.0190
    5CHTO   C39 1961   5.029   3.452   3.788  0.6388 -0.2642  0.4973
    5CHTO   H81 1962   5.023   3.423   3.893  2.4047 -0.5244  0.5529
    5CHTO    N7 1963   5.040   3.604   3.793  0.2346  0.2955  0.3184
    5CHTO   H73 1964   4.957   3.648   3.845 -1.2941 -1.0416 -0.9502
    5CHTO   H74 1965   5.136   3.625   3.837 -0.0672  2.2110  0.1060
    5CHTO   C40 1966   4.887   3.407   3.711 -0.3833 -0.7009  0.2569
    5CHTO   H82 1967   4.874   3.451   3.612  1.0487  0.6578  0.6472
    5CHTO   O26 1968   4.886   3.265   3.704 -0.4163 -0.3705  0.2686
    5CHTO   C41 1969   4.996   3.195   3.638  0.3011  0.6632  0.1171
    5CHTO   H83 1970   4.996   3.234   3.535  0.7216 -1.6495 -0.7857
    5CHTO   C52 1971   4.968   3.044   3.630  0.2740 -0.7512  0.5279
    5CHTO   O35 1972   4.986   2.965   3.766 -0.7815  0.1067  0.1699
    5CHTO   H71 1973   4.923   3.007   3.821 -0.3413  1.7401 -0.5439
    5CHTO   O28 1974   4.768   3.444   3.783 -0.0151  0.1607  0.3000
    5CHTO   C42 1975   4.695   3.375   3.888  0.2610 -0.0547  0.1267
    5CHTO   H84 1976   4.631   3.456   3.922 -1.9100  0.0899 -3.8984
    5CHTO   C44 1977   4.778   3.318   4.009 -0.1174 -0.1846 -0.0021
    5CHTO   H86 1978   4.869   3.273   3.968 -1.9242 -1.6973 -2.5302
    5CHTO   O32 1979   4.808   3.434   4.096 -0.0974  1.0969 -0.2132
    5CHTO   H69 1980   4.893   3.472   4.080  0.8158 -0.8230  0.0110
    5CHTO   C48 1981   4.708   3.199   4.089  0.0423 -0.1651  0.0078
    5CHTO   H90 1982   4.620   3.237   4.139 -0.2162  1.5493 -1.6958
    5CHTO    N9 1983   4.787   3.137   4.199 -0.3065 -0.5135 -0.3489
    5CHTO   H77 1984   4.890   3.166   4.182  0.2252 -1.9248  0.3646
    5CHTO   H78 1985   4.739   3.167   4.292 -1.1744  0.6230 -1.1568
    5CHTO   C51 1986   4.648   3.096   3.985  0.1881  0.2607  0.4383
    5CHTO   H93 1987   4.730   3.076   3.916  2.8622  2.0421  2.9915
    5CHTO   O30 1988   4.537   3.157   3.924 -0.2731 -0.0905  0.6249
    5CHTO   C46 1989   4.595   3.269   3.821  0.6255 -0.2039  0.1274
    5CHTO   H88 1990   4.641   3.217   3.737 -1.8650 -2.5500  0.1750
    5CHTO   C53 1991   4.477   3.345   3.759  0.2863  0.0933 -0.8045
    5CHTO   O72 1992   4.368   3.381   3.846 -0.4762 -0.0403 -0.3645
    5CHTO  H199 1993   4.305   3.312   3.844 -2.5141  1.7663 -0.1438
    5CHTO   O22 1994   4.597   2.974   4.042  0.3266  0.0366 -0.9071
    5CHTO   C31 1995   4.603   2.839   3.975  0.2477  0.4397 -0.2289
    5CHTO   H59 1996   4.527   2.783   4.034  1.4441  0.8213  1.7309
    5CHTO   C29 1997   4.565   2.830   3.827  0.0421  0.4249 -0.0800
    5CHTO   H57 1998   4.616   2.905   3.766  0.5558 -0.4923 -0.7982
    5CHTO   O21 1999   4.430   2.869   3.828 -0.5521 -0.2362  0.5073
    5CHTO   H37 2000   4.398   2.899   3.745 -2.9445 -0.1648  1.4316
    5CHTO   C27 2001   4.587   2.693   3.757  0.1769 -0.2792  0.2178
    5CHTO   H55 2002   4.536   2.613   3.812  2.2266 -1.3274  0.6457
    5CHTO    N5 2003   4.559   2.671   3.610 -0.3120 -0.3419 -0.1176
    5CHTO   H43 2004   4.537   2.569   3.582  0.0434  0.1755 -2.3600
    5CHTO   H44 2005   4.645   2.712   3.559  0.1579 -1.6097 -0.3431
    5CHTO   C25 2006   4.738   2.655   3.792  0.4959 -0.2867 -0.3345
    5CHTO   H53 2007   4.811   2.723   3.746 -0.6870  1.3987  0.2214
    5CHTO   O17 2008   4.755   2.646   3.930 -0.4888  0.7635 -0.3681
    5CHTO   C32 2009   4.743   2.765   3.997  0.4001  0.1723 -0.7458
    5CHTO   H60 2010   4.818   2.836   3.963 -1.5690  1.9101 -1.5952
    5CHTO   C36 2011   4.774   2.735   4.143  0.3042 -0.3106  0.1678
    5CHTO   O25 2012   4.909   2.700   4.147  0.5718 -0.1787 -0.3945
    5CHTO   H40 2013   4.914   2.615   4.187 -1.0482 -0.2666 -0.3791
    5CHTO   O15 2014   4.792   2.499   3.715  0.3665  0.1038 -0.3966
    5CHTO   C19 2015   4.920   2.443   3.766  0.0855  0.6533 -0.0716
    5CHTO   H47 2016   4.969   2.526   3.819 -1.4238  0.8108  1.1059
    5CHTO   C20 2017   4.906   2.326   3.867  1.2423 -0.8441  0.1560
    5CHTO   H48 2018   4.855   2.240   3.820  0.9941 -0.2396 -0.7099
    5CHTO   O19 2019   4.843   2.378   3.986  0.5020 -0.4621 -0.6336
    5CHTO   H35 2020   4.820   2.311   4.047  0.1774 -0.2313 -0.4968
    5CHTO   C21 2021   5.052   2.279   3.914 -0.3453 -0.6275  0.1752
    5CHTO   H49 2022   5.096   2.352   3.982  2.3961 -2.8876  0.9013
    5CHTO    N4 2023   5.047   2.161   3.997 -0.1409 -1.0621 -0.2253
    5CHTO   H41 2024   4.996   2.091   3.932 -1.8700 -0.2870  0.2838
    5CHTO   H42 2025   4.981   2.192   4.077 -0.7583 -0.8555 -0.8106
    5CHTO   C22 2026   5.154   2.266   3.801  1.1899  0.3228  0.3407
    5CHTO   H50 2027   5.124   2.173   3.751 -3.2902  1.3155  1.0205
    5CHTO   O14 2028   5.155   2.380   3.718  0.1966  0.2535 -0.2001
    5CHTO   C23 2029   5.027   2.407   3.658  0.8830 -0.3430  0.8471
    5CHTO   H51 2030   5.000   2.318   3.600 -1.6040 -1.3291  3.4080
    5CHTO   C34 2031   5.050   2.534   3.564 -0.2535  0.8269  0.0608
    5CHTO   O23 2032   4.948   2.550   3.473 -0.0634  0.6233  0.2147
    5CHTO   H38 2033   4.885   2.611   3.506 -0.0323  0.6714  0.1849
    5CHTO   O16 2034   5.285   2.257   3.855 -0.0781  0.2229  0.2467
    5CHTO   C24 2035   5.403   2.207   3.762  0.6626 -0.6959 -0.5378
    5CHTO   H52 2036   5.381   2.211   3.656  0.2987 -0.5543 -0.4589
    5CHTO   C26 2037   5.429   2.063   3.807 -0.3573  0.0765  0.3829
    5CHTO   H54 2038   5.424   2.060   3.918 -2.2999 -1.5555  0.2807
    5CHTO   O20 2039   5.321   1.983   3.747 -0.1470  0.6698 -0.3109
    5CHTO   H36 2040   5.230   2.002   3.761 -0.7611 -2.8219  0.9894
    5CHTO   C30 2041   5.566   2.017   3.753 -0.3716 -0.4463 -0.0640
    5CHTO   H58 2042   5.562   1.997   3.645  0.9598 -0.3899 -0.1341
    5CHTO    N6 2043   5.593   1.894   3.829  0.8500  0.3483 -0.0955
    5CHTO   H45 2044   5.581   1.816   3.755  2.5805  0.8197 -0.9212
    5CHTO   H46 2045   5.698   1.893   3.858  1.2848 -0.0577 -1.6464
    5CHTO   C33 2046   5.681   2.122   3.772  0.6849  0.2045 -1.2354
    5CHTO   H61 2047   5.707   2.126   3.879  0.9764  0.5170 -1.3165
    5CHTO   O18 2048   5.639   2.252   3.725 -0.3913  0.4121  0.2052
    5CHTO   C28 2049   5.520   2.304   3.791 -0.6788 -0.2773  0.8352
    5CHTO   H56 2050   5.533   2.316   3.898 -1.5348  1.1743  0.7867
    5CHTO   C35 2051   5.512   2.448   3.724 -0.1834 -0.3783  0.2725
    5CHTO   O24 2052   5.605   2.548   3.768 -0.2647 -0.4122  0.1831
    5CHTO   H39 2053   5.613   2.626   3.717 -0.8541 -0.7148 -0.3732
    5CHTO    O9 2054   5.805   2.077   3.710  0.1202  0.0417 -0.2587
    5CHTO   C13 2055   5.812   2.085   3.539 -0.3296 -0.3542  0.5724
    5CHTO   H26 2056   5.728   2.024   3.499 -0.9489  0.9460 -0.1223
    5CHTO   C11 2057   5.953   2.019   3.498 -0.1507  0.1557  0.4254
    5CHTO   H24 2058   5.950   1.911   3.519 -1.1893 -0.1268 -1.0792
    5CHTO    O8 2059   6.060   2.075   3.577 -0.2336 -0.0290  0.5234
    5CHTO    H3 2060   6.147   2.041   3.564 -0.3252 -0.4582  1.0155
    5CHTO    C9 2061   5.977   2.019   3.343 -0.7358 -0.4549  0.3764
    5CHTO   H22 2062   5.905   1.949   3.298  0.8976 -1.7965 -0.1985
    5CHTO    N2 2063   6.099   1.945   3.291 -0.3513  0.2381 -0.0136
    5CHTO   H10 2064   6.180   2.001   3.335 -0.1333  0.6056 -0.8789
    5CHTO   H11 2065   6.105   1.927   3.185 -0.2497  0.4826 -0.0478
    5CHTO    C7 2066   5.958   2.166   3.281  0.2381  0.3636 -0.0962
    5CHTO   H20 2067   5.921   2.156   3.177 -1.4573 -1.4663  0.6527
    5CHTO    O4 2068   5.847   2.239   3.340  0.5629 -0.2477 -0.0522
    5CHTO   C14 2069   5.809   2.235   3.476 -0.0556 -0.8632  0.1182
    5CHTO   H27 2070   5.705   2.273   3.481  0.5058  0.7437 -0.1437
    5CHTO   C18 2071   5.887   2.327   3.560 -0.0665  0.0121 -0.2148
    5CHTO   O13 2072   5.871   2.464   3.534  0.2650 -0.7847 -0.1309
    5CHTO    H7 2073   5.869   2.503   3.619  0.7132 -2.2181  0.5353
    5CHTO    O2 2074   6.094   2.262   3.284 -0.4826  0.2560 -0.2970
    5CHTO    C1 2075   6.085   2.383   3.208  0.6491  0.0663  0.4659
    5CHTO   H14 2076   6.002   2.446   3.245  0.4980  1.9244 -2.9097
    5CHTO    C2 2077   6.083   2.367   3.043 -0.5999 -0.4894  0.2953
    5CHTO   H15 2078   6.170   2.302   3.027 -0.9246 -0.7585 -0.3882
    5CHTO    O6 2079   5.957   2.309   2.995  0.1584  0.3692 -0.0842
    5CHTO    H1 2080   5.964   2.218   2.976 -0.9120  0.0989  0.7583
    5CHTO    C3 2081   6.111   2.509   2.968 -0.2548 -0.7202 -0.3026
    5CHTO   H16 2082   6.024   2.575   2.974 -0.2376 -0.8394  1.6511
    5CHTO    N1 2083   6.139   2.505   2.819 -0.1769  0.5306 -0.0644
    5CHTO    H8 2084   6.156   2.603   2.779  0.2047  0.1978 -0.7335
    5CHTO    H9 2085   6.053   2.452   2.780 -0.6418 -0.1703  1.8272
    5CHTO    C4 2086   6.232   2.585   3.038  0.4941 -0.4225  0.4236
    5CHTO   H17 2087   6.322   2.528   3.015 -0.4257 -1.1988 -1.4162
    5CHTO    O1 2088   6.212   2.598   3.179  0.0792 -0.0699  0.0023
    5CHTO    C5 2089   6.219   2.467   3.237 -0.6073 -0.0864 -0.9837
    5CHTO   H18 2090   6.304   2.409   3.199  1.4170  1.4374  1.0794
    5CHTO   C16 2091   6.239   2.485   3.386 -0.0241 -0.0037  1.0782
    5CHTO   O11 2092   6.359   2.562   3.401  0.2115 -0.2522  0.4922
    5CHTO    H5 2093   6.373   2.602   3.484 -0.8125  0.1445  0.4866
    5CHTO    O3 2094   6.250   2.724   2.997  0.2797  0.0280 -0.1749
    5CHTO    C6 2095   6.387   2.779   3.020 -0.4464  0.1321  0.0667
    5CHTO   H19 2096   6.443   2.712   3.084  0.9982 -0.2147 -1.5277
    5CHTO    C8 2097   6.460   2.776   2.877 -0.3429  0.4861  0.1075
    5CHTO   H21 2098   6.392   2.824   2.807  0.4438  0.2458 -0.8249
    5CHTO    O7 2099   6.481   2.640   2.838  0.3580 -0.2085 -0.0511
    5CHTO    H2 2100   6.556   2.622   2.784 -0.2955  0.3853 -1.1926
    5CHTO   C12 2101   6.596   2.860   2.889  0.3647  0.4783  0.1696
    5CHTO   H25 2102   6.664   2.797   2.951  0.8575  0.0338 -0.8082
    5CHTO    N3 2103   6.660   2.872   2.757  0.4433 -0.0269 -0.3607
    5CHTO   H12 2104   6.588   2.913   2.688  0.7371  0.5255 -0.3367
    5CHTO   H13 2105   6.753   2.926   2.759  1.7300 -2.0845 -2.0603
    5CHTO   C15 2106   6.577   3.002   2.962 -0.3158 -0.9418  0.4941
    5CHTO   H28 2107   6.517   3.073   2.906 -1.5497 -1.2349  1.4207
    5CHTO   O10 2108   6.696   3.065   3.012  0.1055  0.1479  0.5723
    5CHTO    H4 2109   6.764   3.074   2.949 -0.7838  0.9921 -0.2894
    5CHTO    O5 2110   6.513   2.985   3.087 -0.2262  0.2179 -0.1518
    5CHTO   C10 2111   6.383   2.915   3.084  0.5354 -0.5039 -0.3402
    5CHTO   H23 2112   6.307   2.978   3.038  1.4680  1.7368  1.0876
    5CHTO   C17 2113   6.344   2.892   3.230  0.3945 -0.1164 -0.4918
    5CHTO   O12 2114   6.334   3.026   3.292 -0.0361 -0.5885  0.3578
    5CHTO    H6 2115   6.252   3.065   3.270  1.2464  1.5317 -0.8215
    6CHTO  H203 2116   3.888   4.872   0.807  0.6362  0.4764  0.9273
    6CHTO   O82 2117   3.962   4.821   0.780  0.2597 -0.0309  0.8475
    6CHTO  C123 2118   4.088   4.893   0.788 -0.4299 -0.3866  0.0629
    6CHTO  H227 2119   4.086   4.971   0.710  0.6445  1.8750  2.2407
    6CHTO   O77 2120   4.085   4.947   0.920 -0.1896  0.0604  0.0913
    6CHTO  C118 2121   4.193   5.033   0.956 -0.4292  0.7387  0.0096
    6CHTO  H222 2122   4.190   5.117   0.886  1.4255  0.0089 -0.9863
    6CHTO  C125 2123   4.161   5.093   1.096 -0.1406  0.2507  0.2154
    6CHTO   O84 2124   4.158   4.998   1.204  0.1381  0.6383  0.0846
    6CHTO  H205 2125   4.080   4.945   1.200 -0.8279  2.0743 -0.8007
    6CHTO  C114 2126   4.324   4.961   0.951  0.2625  0.1950 -0.1587
    6CHTO  H218 2127   4.326   4.890   1.034 -0.1664  0.5845  0.1856
    6CHTO  C116 2128   4.345   4.886   0.815 -0.4569  0.2146 -0.3147
    6CHTO  H220 2129   4.365   4.954   0.729 -0.8554 -2.4108 -2.5491
    6CHTO   O79 2130   4.469   4.812   0.807 -0.2044 -0.0802  0.4316
    6CHTO  H201 2131   4.518   4.837   0.883 -0.5556 -1.6194  1.1892
    6CHTO  C120 2132   4.217   4.805   0.771  1.0022  0.5289 -0.5371
    6CHTO  H224 2133   4.215   4.713   0.833  0.0085  1.1567  0.3802
    6CHTO   N21 2134   4.224   4.765   0.627  0.1150 -0.3024  0.1270
    6CHTO  H211 2135   4.184   4.841   0.562 -2.6913 -1.5495  0.3425
    6CHTO  H212 2136   4.173   4.671   0.615 -0.5700 -0.1460  1.7578
    6CHTO   O75 2137   4.423   5.058   0.975  0.2465 -0.0639 -0.3612
    6CHTO  C112 2138   4.533   4.995   1.086 -0.2221  0.3638 -0.6692
    6CHTO  H216 2139   4.547   4.889   1.062 -1.0523  0.3384 -1.0644
    6CHTO   O73 2140   4.476   5.013   1.218  0.1003 -0.4788 -0.1385
    6CHTO  C113 2141   4.566   4.957   1.321  0.0593  0.1144  0.1057
    6CHTO  H217 2142   4.584   4.851   1.293 -0.8862  1.2157 -5.1696
    6CHTO  C124 2143   4.490   4.951   1.455  0.2555  0.2558 -0.7958
    6CHTO   O83 2144   4.349   4.910   1.445  0.0096  0.4842 -0.0731
    6CHTO  H204 2145   4.305   4.941   1.521  0.3172 -1.3745  0.8954
    6CHTO  C109 2146   4.697   5.037   1.328  0.4287 -0.1536 -0.0775
    6CHTO  H213 2147   4.670   5.143   1.339  2.2269  0.1503  1.5357
    6CHTO  C110 2148   4.762   5.012   1.191  0.1888  0.5255  0.1725
    6CHTO  H214 2149   4.775   4.905   1.180  0.7015  0.6376 -0.3420
    6CHTO   O78 2150   4.893   5.072   1.188  0.2396  0.0965 -0.5682
    6CHTO  H200 2151   4.934   5.053   1.270 -1.4920 -1.9630 -0.1295
    6CHTO  C111 2152   4.669   5.067   1.076  0.5986  0.1000 -0.2987
    6CHTO  H215 2153   4.650   5.173   1.099 -0.9664 -0.5790  1.7660
    6CHTO   N19 2154   4.729   5.057   0.941  0.0192 -0.2145  0.2571
    6CHTO  H207 2155   4.824   5.107   0.938 -0.9422  1.8378  2.2881
    6CHTO  H208 2156   4.671   5.106   0.864  1.1351  0.2477 -0.3005
    6CHTO   O74 2157   4.777   4.991   1.435  0.3978 -0.0160  0.2580
    6CHTO  C115 2158   4.838   5.110   1.520 -0.1429 -0.1858 -0.3196
    6CHTO  H219 2159   4.866   5.194   1.457 -0.3132  0.6155  0.6644
    6CHTO   O76 2160   4.734   5.163   1.616 -0.4349  0.4807  0.1756
    6CHTO  C122 2161   4.687   5.072   1.719  0.0788 -0.0281 -0.1062
    6CHTO  H226 2162   4.585   5.039   1.695 -0.0874 -0.2387  0.8830
    6CHTO  C126 2163   4.667   5.171   1.847 -0.5861  0.5582 -0.2177
    6CHTO   O85 2164   4.602   5.112   1.961 -0.1031  0.4079 -0.2460
    6CHTO  H206 2165   4.511   5.134   1.963 -0.3342 -0.5938  0.8764
    6CHTO  C121 2166   4.772   4.947   1.749 -0.0056 -0.2526  0.0857
    6CHTO  H225 2167   4.750   4.928   1.856 -2.2902  0.6284 -0.2134
    6CHTO   O81 2168   4.734   4.831   1.670  0.4120 -1.2395  0.2801
    6CHTO  H202 2169   4.802   4.766   1.671 -1.2326 -3.0134  3.9087
    6CHTO  C119 2170   4.922   4.982   1.731  0.0823  0.1068  0.1945
    6CHTO  H223 2171   4.940   5.051   1.813 -1.0565  2.8529 -1.8110
    6CHTO  C117 2172   4.966   5.052   1.591 -0.1642 -0.0418  0.0182
    6CHTO  H221 2173   5.008   4.993   1.510  0.6564  0.9348 -0.2811
    6CHTO   N20 2174   5.079   5.156   1.612  0.0777  0.4290  0.3336
    6CHTO  H209 2175   5.154   5.112   1.676  0.6862  0.0708 -0.6237
    6CHTO  H210 2176   5.107   5.194   1.515 -0.8439  1.1841  0.3484
    6CHTO   O80 2177   5.024   4.856   1.777 -0.3423 -0.5955  0.3507
    6CHTO  C103 2178   5.077   4.847   1.924 -0.1041 -0.0587 -0.5720
    6CHTO  H190 2179   5.151   4.767   1.924  0.5425  0.5320 -0.1977
    6CHTO  C101 2180   5.145   4.975   1.992  0.3796  0.2102 -0.2963
    6CHTO  H188 2181   5.086   5.065   1.978  1.3304  1.0132  0.7511
    6CHTO   O68 2182   5.269   5.002   1.916  0.1009  0.3030  0.0130
    6CHTO  H168 2183   5.261   5.002   1.822 -0.4212  2.6465  0.0446
    6CHTO   C99 2184   5.163   4.951   2.149  0.3202  0.5529 -0.3311
    6CHTO  H186 2185   5.231   4.865   2.166 -1.0012 -0.5020 -0.3367
    6CHTO   N17 2186   5.228   5.069   2.215 -0.3783 -0.3048 -0.1894
    6CHTO  H174 2187   5.243   5.039   2.317  0.0177  2.8375  0.7346
    6CHTO  H175 2188   5.152   5.146   2.214  0.0779  0.1425 -0.3889
    6CHTO   C97 2189   5.026   4.921   2.209  0.5513  0.1228 -0.3024
    6CHTO  H184 2190   4.960   4.999   2.168  1.7420  0.1762 -2.1627
    6CHTO   O64 2191   4.993   4.793   2.156  0.1225  0.3420  0.2251
    6CHTO  C104 2192   4.954   4.793   2.019 -0.5379  0.0214 -0.5162
    6CHTO  H191 2193   4.866   4.855   2.002 -2.1809 -1.6290  1.6800
    6CHTO  C108 2194   4.916   4.648   1.990 -0.4834  0.1067 -0.5043
    6CHTO   O71 2195   4.796   4.607   2.061  0.2978 -0.9103  0.6079
    6CHTO  H171 2196   4.800   4.620   2.154 -0.5390  0.2600  0.4951
    6CHTO   O62 2197   5.029   4.900   2.356  0.1033  0.0525 -0.4755
    6CHTO   C91 2198   4.923   4.978   2.417  0.0214 -0.9702 -0.3596
    6CHTO  H178 2199   4.954   5.082   2.414  0.7533 -1.1591  0.3433
    6CHTO   C92 2200   4.928   4.953   2.577 -0.0762  0.2145  0.1955
    6CHTO  H179 2201   5.018   4.994   2.625  2.0618 -0.7089 -2.8952
    6CHTO   O66 2202   4.828   5.038   2.635  0.3024 -0.1035  0.2237
    6CHTO  H166 2203   4.834   5.036   2.729 -0.9604 -0.2356  0.3042
    6CHTO   C93 2204   4.887   4.798   2.614 -0.7935 -0.0316 -0.1447
    6CHTO  H180 2205   4.844   4.795   2.716 -2.7232  0.4876 -0.9162
    6CHTO   N16 2206   4.992   4.691   2.610 -0.0352 -0.4206 -0.3020
    6CHTO  H172 2207   4.955   4.616   2.540 -2.8281  0.0924  0.5405
    6CHTO  H173 2208   5.080   4.738   2.570 -1.4758  2.0490 -0.6482
    6CHTO   C94 2209   4.769   4.758   2.512 -0.1760  0.8143 -0.3437
    6CHTO  H181 2210   4.809   4.703   2.426  1.4531  2.0548 -0.4097
    6CHTO   O61 2211   4.691   4.867   2.449 -0.0813 -0.1736 -0.3661
    6CHTO   C95 2212   4.769   4.949   2.364  0.1020 -0.1474  0.2623
    6CHTO  H182 2213   4.767   4.907   2.264  2.3356  1.4028 -0.4627
    6CHTO  C106 2214   4.695   5.080   2.333  0.2870  0.1232 -0.2000
    6CHTO   O69 2215   4.570   5.077   2.259  0.3180  0.5417  0.4630
    6CHTO  H169 2216   4.500   5.079   2.321 -0.4608  2.1690 -0.4408
    6CHTO   O63 2217   4.663   4.671   2.600 -0.5040 -0.3179  0.4109
    6CHTO   C96 2218   4.557   4.620   2.512 -0.8218 -0.2768  0.0953
    6CHTO  H183 2219   4.572   4.658   2.411 -1.0347  0.6355  0.4024
    6CHTO   C98 2220   4.417   4.668   2.556 -0.3675  0.3303  0.2143
    6CHTO  H185 2221   4.401   4.628   2.657  3.0096  0.4374  0.8414
    6CHTO   O67 2222   4.423   4.815   2.570 -0.0976  0.2318  0.3237
    6CHTO  H167 2223   4.472   4.848   2.642  1.3088  0.0379 -0.5079
    6CHTO  C102 2224   4.316   4.619   2.447  0.1540  0.3234  0.2827
    6CHTO  H189 2225   4.330   4.688   2.362 -0.9094  0.0558 -0.1263
    6CHTO   N18 2226   4.174   4.643   2.481 -0.4513 -0.2777 -0.3885
    6CHTO  H176 2227   4.147   4.737   2.435 -0.1579  0.0524  0.1100
    6CHTO  H177 2228   4.107   4.561   2.458 -1.0632  0.6122 -1.8749
    6CHTO  C105 2229   4.341   4.480   2.395 -0.0128  0.2277  0.2615
    6CHTO  H192 2230   4.251   4.420   2.399 -0.3849  0.9044  2.4503
    6CHTO   O65 2231   4.435   4.409   2.476  0.0657 -0.1252 -0.2049
    6CHTO  C100 2232   4.565   4.460   2.505 -0.2074 -0.0807  0.1147
    6CHTO  H187 2233   4.597   4.419   2.602  0.6334  0.7354  0.1845
    6CHTO  C107 2234   4.664   4.415   2.391  0.4833 -0.5307 -0.5807
    6CHTO   O70 2235   4.678   4.275   2.385 -0.1088 -0.0528 -0.2527
    6CHTO  H170 2236   4.597   4.228   2.392 -0.0009 -0.2824 -0.5094
    6CHTO   O57 2237   4.389   4.505   2.232  0.3600 -0.0708 -0.0419
    6CHTO   C85 2238   4.303   4.554   2.128 -0.5073  0.0878  0.2358
    6CHTO  H157 2239   4.269   4.650   2.171  1.0015  0.6695  0.1607
    6CHTO   C83 2240   4.175   4.466   2.110 -0.9261 -0.3690  0.1732
    6CHTO  H155 2241   4.132   4.479   2.209  0.0447 -2.3041  0.8719
    6CHTO   O56 2242   4.199   4.324   2.102 -0.2815 -0.1555 -0.1811
    6CHTO  H135 2243   4.285   4.303   2.132 -1.1055 -0.1487  2.3196
    6CHTO   C81 2244   4.086   4.528   2.002 -0.5309 -0.2633  0.8219
    6CHTO  H153 2245   4.075   4.635   2.022  1.4575  0.6353 -2.5205
    6CHTO   N14 2246   3.945   4.482   1.999 -0.1461  0.0245  0.2545
    6CHTO  H141 2247   3.936   4.377   1.982 -1.2908  0.1057  0.2722
    6CHTO  H142 2248   3.888   4.512   2.086 -1.2984  0.6203 -0.6852
    6CHTO   C79 2249   4.158   4.514   1.867 -0.5802  0.1126 -0.0155
    6CHTO  H151 2250   4.101   4.565   1.790  1.1966  1.4714 -0.4626
    6CHTO   O52 2251   4.277   4.594   1.879 -0.1140  0.3689 -0.0490
    6CHTO   C86 2252   4.372   4.573   1.988  0.6957  0.4535 -0.0052
    6CHTO  H158 2253   4.432   4.486   1.956  1.0640 -0.4092  2.9073
    6CHTO   C90 2254   4.461   4.694   1.989  0.1411 -0.2268 -0.0211
    6CHTO   O60 2255   4.552   4.694   1.876 -0.1175 -0.2492 -0.7428
    6CHTO  H138 2256   4.572   4.784   1.859  0.4682 -0.0812  0.7448
    6CHTO   O50 2257   4.189   4.380   1.832 -0.1012 -0.3104 -0.0606
    6CHTO   C73 2258   4.215   4.281   1.722 -0.0518  0.3413 -0.0422
    6CHTO  H145 2259   4.120   4.256   1.672  1.3102 -1.3168 -1.8382
    6CHTO   C74 2260   4.285   4.150   1.777  0.2103  0.3581 -0.0905
    6CHTO  H146 2261   4.209   4.109   1.846 -0.8817  0.3704 -1.2801
    6CHTO   O54 2262   4.311   4.046   1.674 -0.0595 -0.1797  0.1927
    6CHTO  H133 2263   4.239   3.987   1.667 -1.8700  1.8996  0.7039
    6CHTO   C75 2264   4.420   4.191   1.850  0.1995  0.0424  0.1218
    6CHTO  H147 2265   4.393   4.262   1.929  0.6510  0.1248  0.2002
    6CHTO   N13 2266   4.486   4.084   1.930  0.3606  0.2059  0.1311
    6CHTO  H139 2267   4.521   4.007   1.862  1.8673  0.6060  0.4318
    6CHTO  H140 2268   4.408   4.049   1.996  1.3528 -2.3143  0.0344
    6CHTO   C76 2269   4.508   4.257   1.741 -0.4025 -0.1690  0.0781
    6CHTO  H148 2270   4.534   4.182   1.667  0.5890 -0.7653  1.0117
    6CHTO   O49 2271   4.437   4.370   1.688 -0.4966 -0.2883  0.4510
    6CHTO   C77 2272   4.311   4.343   1.615 -0.0963 -0.4270 -0.4441
    6CHTO  H149 2273   4.332   4.266   1.541  1.0341 -2.1600  1.6105
    6CHTO   C88 2274   4.258   4.469   1.549  0.0222  0.3986 -0.0833
    6CHTO   O58 2275   4.362   4.504   1.417  0.0348  0.0863 -0.4168
    6CHTO  H136 2276   4.309   4.547   1.352  1.4676  1.6022 -0.6046
    6CHTO   O51 2277   4.632   4.325   1.791  0.1650 -0.0303 -0.7655
    6CHTO   C78 2278   4.734   4.389   1.679  0.3963  0.6587  0.3335
    6CHTO  H150 2279   4.811   4.451   1.729  0.1458  0.4731  0.9497
    6CHTO   C80 2280   4.668   4.470   1.565  0.0926 -0.1889  0.9245
    6CHTO  H152 2281   4.602   4.404   1.506 -1.0197  1.9366 -0.2551
    6CHTO   O55 2282   4.591   4.576   1.627 -0.2647 -0.5952  0.3711
    6CHTO  H134 2283   4.512   4.537   1.660 -0.0853 -1.2671  0.0341
    6CHTO   C84 2284   4.780   4.528   1.465 -0.0559 -0.0631  0.0874
    6CHTO  H156 2285   4.839   4.599   1.523  0.5257 -0.7589  0.3449
    6CHTO   N15 2286   4.719   4.608   1.353  0.2863  0.2554  0.4621
    6CHTO  H143 2287   4.786   4.643   1.278  0.2501  1.4109  0.9606
    6CHTO  H144 2288   4.665   4.693   1.390 -0.5132 -0.1685  0.2874
    6CHTO   C87 2289   4.874   4.418   1.407  0.4863 -0.1541  0.6026
    6CHTO  H159 2290   4.825   4.355   1.333  0.9055 -0.4127  0.5485
    6CHTO   O53 2291   4.921   4.322   1.532  0.8118 -0.3253 -0.2019
    6CHTO   C82 2292   4.827   4.275   1.622 -0.0607 -0.5564 -0.1277
    6CHTO  H154 2293   4.766   4.202   1.569  0.3061 -0.4238 -0.7307
    6CHTO   C89 2294   4.900   4.192   1.735 -0.5731  0.6687 -0.6761
    6CHTO   O59 2295   4.994   4.268   1.808 -0.1210  0.0599  0.1305
    6CHTO  H137 2296   5.075   4.223   1.799 -0.1827  0.0212 -0.2397
    6CHTO   O45 2297   5.015   4.494   1.352  0.2794  0.3039 -0.1659
    6CHTO   C67 2298   5.139   4.475   1.419  0.3535  0.0819 -0.1299
    6CHTO  H124 2299   5.142   4.368   1.441  0.7429  0.1558  0.1839
    6CHTO   C65 2300   5.258   4.510   1.332  0.5235 -0.2282 -0.0284
    6CHTO  H122 2301   5.220   4.473   1.236 -0.4041 -0.6069  0.4746
    6CHTO   O44 2302   5.387   4.454   1.369  0.0081 -0.6039  1.0120
    6CHTO  H102 2303   5.402   4.470   1.460  1.1865  0.0477  0.7147
    6CHTO   C63 2304   5.247   4.669   1.320  0.2057  0.3048  0.1849
    6CHTO  H120 2305   5.147   4.699   1.288  0.2507  1.4315  1.0780
    6CHTO   N11 2306   5.336   4.734   1.223 -0.2642  0.3510  0.2370
    6CHTO  H108 2307   5.346   4.838   1.247  2.1876 -0.0355  0.9989
    6CHTO  H109 2308   5.433   4.691   1.231  0.6560  2.0204 -1.6860
    6CHTO   C61 2309   5.257   4.743   1.458  0.2294 -0.4819  0.3657
    6CHTO  H118 2310   5.223   4.842   1.425 -1.5964 -1.8477 -1.9896
    6CHTO   O40 2311   5.165   4.698   1.556 -0.1162 -0.2738 -0.0013
    6CHTO   C68 2312   5.137   4.553   1.558 -0.2995  0.2086 -0.9910
    6CHTO  H125 2313   5.034   4.540   1.596  1.0062 -1.6147  2.0808
    6CHTO   C72 2314   5.223   4.476   1.658  0.1867 -0.6587 -0.2398
    6CHTO   O48 2315   5.225   4.531   1.792  0.2049  0.1395 -0.1508
    6CHTO  H105 2316   5.267   4.614   1.796 -1.7230  1.1163  0.9779
    6CHTO   O38 2317   5.389   4.743   1.517  0.5698 -0.0919  0.3688
    6CHTO   C55 2318   5.439   4.869   1.574 -0.3600  0.0582 -0.4953
    6CHTO  H112 2319   5.359   4.915   1.634 -0.0514  1.4984 -1.1707
    6CHTO   C56 2320   5.498   4.968   1.465  0.1295  0.0657 -0.5017
    6CHTO  H113 2321   5.552   4.902   1.395  0.2011 -0.6155  0.1864
    6CHTO   O42 2322   5.383   5.022   1.404  0.1934  0.1865 -0.4782
    6CHTO  H100 2323   5.346   4.954   1.351  1.2668  0.0632 -1.0763
    6CHTO   C57 2324   5.587   5.086   1.527 -0.4783 -0.5251 -0.1216
    6CHTO  H114 2325   5.521   5.158   1.577  1.0309  1.0550 -0.3539
    6CHTO   N10 2326   5.665   5.161   1.427  0.3413  0.4767 -0.1785
    6CHTO  H106 2327   5.676   5.266   1.449  0.6118  0.0923  1.5983
    6CHTO  H107 2328   5.616   5.152   1.331  0.6183 -1.7040 -0.1337
    6CHTO   C58 2329   5.674   5.033   1.638  0.5857  1.2437 -0.1649
    6CHTO  H115 2330   5.756   4.968   1.599  0.9186  1.9845 -0.7245
    6CHTO   O37 2331   5.601   4.949   1.730  0.3716 -0.4311  0.4543
    6CHTO   C59 2332   5.555   4.824   1.674 -0.0148 -0.5652 -0.6224
    6CHTO  H116 2333   5.634   4.762   1.634  0.0893 -1.2933  0.6814
    6CHTO   C70 2334   5.489   4.760   1.797 -0.0481 -0.0796  0.0456
    6CHTO   O46 2335   5.497   4.620   1.775 -0.0396  0.2704 -0.0692
    6CHTO  H103 2336   5.435   4.579   1.833  0.6767  1.7297  1.8063
    6CHTO   O39 2337   5.724   5.153   1.729 -0.1850 -0.0958  0.4720
    6CHTO   C60 2338   5.868   5.160   1.761  0.5963 -0.0088  0.4244
    6CHTO  H117 2339   5.921   5.109   1.681  1.1333  1.2097 -0.0216
    6CHTO   C62 2340   5.899   5.314   1.758  1.1024 -0.3664 -0.1303
    6CHTO  H119 2341   5.869   5.356   1.660  1.4594  1.9225  0.6938
    6CHTO   O43 2342   5.815   5.391   1.854  0.4776  0.0307 -0.3457
    6CHTO  H101 2343   5.728   5.356   1.855  0.4357  0.1819  1.1414
    6CHTO   C66 2344   6.060   5.337   1.778  0.2075  0.3435 -0.0952
    6CHTO  H123 2345   6.112   5.273   1.707  1.2004  0.5263  0.4579
    6CHTO   N12 2346   6.100   5.473   1.755 -0.2131  0.0458 -0.0149
    6CHTO  H110 2347   6.118   5.494   1.651 -0.7584 -0.8503 -0.3034
    6CHTO  H111 2348   6.021   5.538   1.788 -1.9177 -1.5429 -0.8115
    6CHTO   C69 2349   6.103   5.285   1.916 -0.0910 -0.0916  0.0029
    6CHTO  H126 2350   6.053   5.341   1.998  1.9429  0.0069  1.1987
    6CHTO   O41 2351   6.058   5.122   1.917 -0.5115 -0.5645 -0.3247
    6CHTO   C64 2352   5.908   5.092   1.898 -0.5144  0.3248 -0.2507
    6CHTO  H121 2353   5.852   5.128   1.987 -0.3899 -1.1647  0.4550
    6CHTO   C71 2354   5.881   4.935   1.897 -0.6029 -0.1237 -0.0628
    6CHTO   O47 2355   5.940   4.858   2.003 -0.3288  0.3254 -0.1574
    6CHTO  H104 2356   5.891   4.779   2.014 -0.2653  0.3884  0.6322
    6CHTO   O34 2357   6.243   5.302   1.943  0.3333 -0.7927  0.5272
    6CHTO   C49 2358   6.405   5.296   1.912 -0.0949 -0.0518 -0.4219
    6CHTO   H91 2359   6.414   5.317   1.806 -0.8828  1.2156 -0.2523
    6CHTO   C47 2360   6.447   5.151   1.952  0.4841 -0.3714 -0.1117
    6CHTO   H89 2361   6.556   5.149   1.932  0.3751  0.1018 -0.7720
    6CHTO   O33 2362   6.379   5.058   1.868  0.1743  0.2650 -0.0830
    6CHTO   H70 2363   6.428   4.982   1.844 -1.6799 -0.2965 -2.3092
    6CHTO   C45 2364   6.427   5.139   2.109 -0.0555  0.4553 -0.4000
    6CHTO   H87 2365   6.326   5.179   2.129 -0.6155 -0.8160 -0.5660
    6CHTO    N8 2366   6.437   5.002   2.160  0.0745 -0.2801  0.3118
    6CHTO   H75 2367   6.508   4.998   2.242 -0.2666 -1.9004  0.5520
    6CHTO   H76 2368   6.464   4.939   2.077 -0.1241  0.5605 -0.3866
    6CHTO   C43 2369   6.522   5.241   2.179 -0.2258 -0.2218  0.6157
    6CHTO   H85 2370   6.500   5.221   2.283  0.6035 -2.9541  0.3127
    6CHTO   O29 2371   6.490   5.375   2.136  0.4588 -0.4452 -0.3506
    6CHTO   C50 2372   6.482   5.400   1.996  0.3767 -0.0058  0.0969
    6CHTO   H92 2373   6.433   5.496   1.980  1.0136  0.4411  0.7813
    6CHTO   C54 2374   6.621   5.438   1.941 -0.2664 -0.8455  0.0026
    6CHTO   O36 2375   6.671   5.565   2.000  0.2070 -0.2258  0.0373
    6CHTO   H72 2376   6.611   5.634   1.982  0.1775  0.0253  1.1037
    6CHTO   O27 2377   6.660   5.206   2.165  0.2091 -0.1683  0.5139
    6CHTO   C37 2378   6.787   5.190   2.222  0.0754 -0.4904 -0.4477
    6CHTO   H79 2379   6.798   5.099   2.283  0.5271  0.0537  0.2998
    6CHTO   C38 2380   6.899   5.175   2.120  0.0918  0.1737  0.1914
    6CHTO   H80 2381   6.907   5.269   2.064  1.5447  0.6941  1.2352
    6CHTO   O31 2382   6.854   5.067   2.037 -0.0150 -0.2769 -0.1116
    6CHTO   H68 2383   6.767   5.086   2.007 -1.0296 -2.5223  1.2487
    6CHTO   C39 2384   7.038   5.148   2.193  0.8332 -0.3748 -0.0381
    6CHTO   H81 2385   7.026   5.055   2.248 -0.3267  1.1294  2.3879
    6CHTO    N7 2386   7.151   5.137   2.103  0.3636  0.0792  0.5890
    6CHTO   H73 2387   7.168   5.035   2.070  0.6017  0.5606 -0.7906
    6CHTO   H74 2388   7.139   5.202   2.018 -0.3734 -0.3135  0.3769
    6CHTO   C40 2389   7.065   5.258   2.309 -0.4182 -0.1323 -0.1715
    6CHTO   H82 2390   7.090   5.357   2.268  0.5326 -0.2002  0.2283
    6CHTO   O26 2391   6.948   5.268   2.391 -0.3316 -0.0333 -0.1357
    6CHTO   C41 2392   6.824   5.308   2.320 -0.0789  0.7486 -0.1420
    6CHTO   H83 2393   6.843   5.400   2.263  1.5831  0.5318  0.0132
    6CHTO   C52 2394   6.716   5.331   2.430 -0.4887 -0.5371  0.6158
    6CHTO   O35 2395   6.754   5.465   2.520  0.6199 -0.2232 -0.4996
    6CHTO   H71 2396   6.756   5.545   2.471  0.2417 -1.4009 -2.5269
    6CHTO   O28 2397   7.157   5.215   2.401  0.3069 -0.1908  0.2438
    6CHTO   C42 2398   7.224   5.305   2.493  0.4632  0.1890 -0.1056
    6CHTO   H84 2399   7.158   5.391   2.503  0.0066  0.0250 -1.5813
    6CHTO   C44 2400   7.355   5.359   2.444  0.6884  0.1642 -0.0022
    6CHTO   H86 2401   7.422   5.274   2.432  0.8818  0.1587  1.0447
    6CHTO   O32 2402   7.341   5.398   2.307 -0.3559 -0.0211  0.2246
    6CHTO   H69 2403   7.421   5.440   2.282  0.7699 -1.5845  1.1116
    6CHTO   C48 2404   7.421   5.467   2.543  0.3969  0.0392  0.0581
    6CHTO   H90 2405   7.360   5.557   2.548  1.2343  0.5556  1.1150
    6CHTO    N9 2406   7.550   5.524   2.499  0.2087  0.6672  0.0068
    6CHTO   H77 2407   7.623   5.444   2.495 -0.6612 -0.0975 -0.9124
    6CHTO   H78 2408   7.546   5.575   2.404  1.1834  0.1663 -0.3139
    6CHTO   C51 2409   7.426   5.403   2.693 -0.3354  0.1384 -0.6796
    6CHTO   H93 2410   7.494   5.318   2.699 -3.4046 -2.3319  0.7683
    6CHTO   O30 2411   7.287   5.362   2.724 -0.2655  0.0508 -0.0612
    6CHTO   C46 2412   7.243   5.245   2.634  0.9270  0.0629 -0.1771
    6CHTO   H88 2413   7.322   5.170   2.630 -0.5291 -1.7050  2.3061
    6CHTO   C53 2414   7.108   5.182   2.694 -0.4776  0.0137  0.4000
    6CHTO   O72 2415   7.018   5.283   2.738  0.4287 -0.2814  0.2712
    6CHTO  H199 2416   6.929   5.265   2.715  0.0950  1.5244  0.1354
    6CHTO   O22 2417   7.463   5.499   2.795 -0.0053  0.6868 -0.2909
    6CHTO   C31 2418   7.422   5.496   2.939 -0.4001  0.3890 -0.5081
    6CHTO   H59 2419   7.340   5.421   2.943  1.4990 -1.7453 -0.4097
    6CHTO   C29 2420   7.527   5.441   3.041  0.1737  0.8487 -0.1912
    6CHTO   H57 2421   7.609   5.513   3.030 -0.7253  2.1250  1.3509
    6CHTO   O21 2422   7.567   5.310   2.991  0.0651  0.0502  0.2635
    6CHTO   H37 2423   7.631   5.272   3.049 -0.5436 -0.8852  0.3319
    6CHTO   C27 2424   7.473   5.435   3.190 -0.0646 -0.0751 -0.1918
    6CHTO   H55 2425   7.399   5.355   3.196  1.3982 -1.4716 -0.5129
    6CHTO    N5 2426   7.588   5.412   3.287 -0.6990 -0.2202  0.1691
    6CHTO   H43 2427   7.621   5.310   3.281 -0.6801 -0.1065 -2.1132
    6CHTO   H44 2428   7.673   5.477   3.272 -0.7158 -0.4156 -0.7879
    6CHTO   C25 2429   7.393   5.570   3.222 -0.9592 -1.0510  0.1033
    6CHTO   H53 2430   7.462   5.653   3.247 -1.8820 -0.3655  0.3961
    6CHTO   O17 2431   7.297   5.611   3.116 -0.2004  0.3601  0.1493
    6CHTO   C32 2432   7.360   5.636   2.988  0.7948  0.1099  0.3296
    6CHTO   H60 2433   7.437   5.712   2.995  1.2415 -0.1862 -1.3454
    6CHTO   C36 2434   7.249   5.685   2.893 -0.0793 -0.2564 -0.6830
    6CHTO   O25 2435   7.302   5.768   2.790 -0.3138 -0.7140 -0.0779
    6CHTO   H40 2436   7.361   5.709   2.747  1.1027  1.4293 -1.1735
    6CHTO   O15 2437   7.307   5.534   3.366  0.1543  0.1374  0.0231
    6CHTO   C19 2438   7.224   5.619   3.444  0.7210 -0.3356  0.9361
    6CHTO   H47 2439   7.195   5.554   3.528 -1.6144  0.5971  0.8883
    6CHTO   C20 2440   7.296   5.748   3.497  0.0752 -1.0030 -0.2636
    6CHTO   H48 2441   7.337   5.811   3.417  0.7542  0.5265  1.2470
    6CHTO   O19 2442   7.408   5.709   3.580 -0.0342 -0.1244  0.2103
    6CHTO   H35 2443   7.454   5.781   3.618  0.6666 -1.9990  3.0573
    6CHTO   C21 2444   7.198   5.846   3.577  0.5814  0.1185 -0.1587
    6CHTO   H49 2445   7.162   5.792   3.664 -1.4668  0.8635 -0.5170
    6CHTO    N4 2446   7.265   5.977   3.607 -0.7729 -0.2136 -0.3209
    6CHTO   H41 2447   7.331   6.008   3.528 -0.8668  2.4191  0.6039
    6CHTO   H42 2448   7.198   6.060   3.626 -0.1330  0.3124 -0.3788
    6CHTO   C22 2449   7.069   5.865   3.495 -0.4969 -0.2497  0.5730
    6CHTO   H50 2450   7.103   5.915   3.404 -0.7988  2.1866  1.7491
    6CHTO   O14 2451   7.016   5.738   3.464  0.2213 -0.0091  0.0829
    6CHTO   C23 2452   7.090   5.658   3.375  0.2380 -0.0851 -0.2863
    6CHTO   H51 2453   7.107   5.722   3.287  0.6464 -0.3423 -0.3953
    6CHTO   C34 2454   7.004   5.535   3.349 -0.3210 -0.5378 -0.6564
    6CHTO   O23 2455   6.897   5.564   3.258 -0.4592  0.0612 -0.0447
    6CHTO   H38 2456   6.826   5.503   3.261 -0.9156  0.5192 -0.9530
    6CHTO   O16 2457   6.958   5.938   3.547  0.0465 -0.6708 -0.1389
    6CHTO   C24 2458   6.875   6.022   3.450  0.0222 -0.4529 -0.4099
    6CHTO   H52 2459   6.903   6.001   3.347  1.6263  0.5486 -0.2127
    6CHTO   C26 2460   6.905   6.166   3.484  0.8830  0.4401  0.3371
    6CHTO   H54 2461   6.889   6.181   3.593  0.6780 -0.6374  0.4573
    6CHTO   O20 2462   7.043   6.201   3.458 -0.2594 -0.6965 -0.0831
    6CHTO   H36 2463   7.093   6.151   3.520  0.9434  0.8370  0.2270
    6CHTO   C30 2464   6.802   6.257   3.410 -0.2275  0.2259  0.5922
    6CHTO   H58 2465   6.820   6.254   3.302  0.6697  0.2820  0.7429
    6CHTO    N6 2466   6.816   6.402   3.448  0.2599 -0.5959 -0.2981
    6CHTO   H45 2467   6.734   6.456   3.404 -0.5281 -0.7231  0.9621
    6CHTO   H46 2468   6.909   6.447   3.416 -0.1290 -0.0524 -0.6553
    6CHTO   C33 2469   6.659   6.212   3.436  0.2807 -0.1256 -0.6532
    6CHTO   H61 2470   6.634   6.231   3.541  0.7550  1.0476 -0.7465
    6CHTO   O18 2471   6.641   6.073   3.410  0.6986 -0.1462 -0.1089
    6CHTO   C28 2472   6.726   5.982   3.467 -0.0647  0.4633  0.3354
    6CHTO   H56 2473   6.703   5.976   3.573 -1.9477 -0.4337 -0.1081
    6CHTO   C35 2474   6.705   5.843   3.408 -0.1471 -0.2864  0.2500
    6CHTO   O24 2475   6.583   5.781   3.407 -0.0091  0.3469  0.0555
    6CHTO   H39 2476   6.599   5.689   3.402 -1.1735  0.0716  1.0869
    6CHTO    O9 2477   6.563   6.292   3.358 -0.0407  0.3904 -0.0318
    6CHTO   C13 2478   6.404   6.262   3.394  0.1641 -0.7033  0.1070
    6CHTO   H26 2479   6.402   6.210   3.492  0.2307 -0.6539  0.1343
    6CHTO   C11 2480   6.340   6.178   3.282 -0.4959  0.5145  1.1318
    6CHTO   H24 2481   6.387   6.080   3.266  1.3493  1.7262 -1.1438
    6CHTO    O8 2482   6.354   6.249   3.154 -0.1958 -0.3542 -0.4269
    6CHTO    H3 2483   6.292   6.206   3.098 -1.6962 -0.8485  1.5246
    6CHTO    C9 2484   6.192   6.149   3.320 -0.3777 -0.3291 -0.5565
    6CHTO   H22 2485   6.200   6.111   3.422 -0.1569  3.0718  0.7586
    6CHTO    N2 2486   6.118   6.043   3.239  0.4863  0.0188  0.3462
    6CHTO   H10 2487   6.091   6.076   3.139  0.5892 -0.3686  0.1886
    6CHTO   H11 2488   6.182   5.957   3.224 -1.9704 -1.7834 -0.1956
    6CHTO    C7 2489   6.114   6.287   3.333 -0.1291  0.2426 -0.2573
    6CHTO   H20 2490   6.068   6.279   3.434 -2.2336  0.6524 -1.1393
    6CHTO    O4 2491   6.200   6.402   3.330  0.1567 -0.4746 -0.2264
    6CHTO   C14 2492   6.317   6.398   3.410  1.0739  0.2045  0.9057
    6CHTO   H27 2493   6.294   6.419   3.516  0.5113  0.4793  0.7302
    6CHTO   C18 2494   6.390   6.525   3.359  0.0430 -0.0179 -0.0859
    6CHTO   O13 2495   6.341   6.642   3.428  0.4870 -0.5614 -0.0685
    6CHTO    H7 2496   6.252   6.651   3.398  0.9776 -0.0953 -1.4055
    6CHTO    O2 2497   5.996   6.301   3.224  0.3560 -0.4118  0.2103
    6CHTO    C1 2498   5.894   6.405   3.246  0.0378  0.0130  0.0893
    6CHTO   H14 2499   5.935   6.487   3.308  1.5142 -0.7907  0.2074
    6CHTO    C2 2500   5.767   6.339   3.324  0.1661 -0.4249  0.1009
    6CHTO   H15 2501   5.723   6.261   3.261 -2.0002  0.9559 -0.1408
    6CHTO    O6 2502   5.816   6.287   3.450  0.1087 -0.0945 -0.4575
    6CHTO    H1 2503   5.745   6.263   3.507 -0.5506  2.9931  0.0956
    6CHTO    C3 2504   5.640   6.441   3.342 -0.0032 -0.4773  0.1127
    6CHTO   H16 2505   5.656   6.515   3.421  1.4369  0.6508 -1.2085
    6CHTO    N1 2506   5.521   6.372   3.402  0.7455 -0.6325  0.1645
    6CHTO    H8 2507   5.499   6.403   3.503 -0.7775  1.3989 -0.7630
    6CHTO    H9 2508   5.426   6.376   3.350  0.6841  1.2181  0.4161
    6CHTO    C4 2509   5.613   6.527   3.209 -0.1983 -0.2807  0.7538
    6CHTO   H17 2510   5.565   6.460   3.138 -1.1967  0.3909  0.7885
    6CHTO    O1 2511   5.736   6.570   3.148  0.5565 -0.2974 -0.6352
    6CHTO    C5 2512   5.831   6.469   3.122  0.1339 -0.0097 -0.3072
    6CHTO   H18 2513   5.790   6.383   3.070 -2.5904  0.2306  1.3251
    6CHTO   C16 2514   5.937   6.529   3.025  0.7591 -0.2741 -0.0913
    6CHTO   O11 2515   5.871   6.569   2.903 -0.5170  0.2244  0.0809
    6CHTO    H5 2516   5.935   6.580   2.836  0.8766  3.2101  1.7885
    6CHTO    O3 2517   5.539   6.650   3.232  0.0461  0.0862 -0.3347
    6CHTO    C6 2518   5.437   6.699   3.136 -0.2978 -0.4030 -0.3859
    6CHTO   H19 2519   5.390   6.787   3.180  0.8138 -0.8082  1.6727
    6CHTO    C8 2520   5.502   6.733   2.992  0.1769  0.1527  0.1674
    6CHTO   H21 2521   5.554   6.647   2.949 -1.0857 -0.6665  0.2677
    6CHTO    O7 2522   5.595   6.842   3.005  0.3220  0.1275  0.5526
    6CHTO    H2 2523   5.664   6.816   3.063 -0.1213 -0.9531  0.6122
    6CHTO   C12 2524   5.385   6.780   2.887  0.4636  0.0420 -0.2658
    6CHTO   H25 2525   5.335   6.868   2.933  2.4913  2.1143 -1.8717
    6CHTO    N3 2526   5.438   6.817   2.750 -0.2181  0.1762 -0.3957
    6CHTO   H12 2527   5.546   6.828   2.747  0.0420 -2.3392 -2.4401
    6CHTO   H13 2528   5.406   6.756   2.667  0.4049  0.6759 -1.0222
    6CHTO   C15 2529   5.281   6.667   2.884 -0.5841 -0.5114 -0.4337
    6CHTO   H28 2530   5.319   6.577   2.835  0.3347 -1.5804  2.1845
    6CHTO   O10 2531   5.140   6.721   2.806 -0.0319 -0.2628  0.1192
    6CHTO    H4 2532   5.122   6.811   2.823 -0.4742 -0.3180 -0.0446
    6CHTO    O5 2533   5.221   6.635   3.012  0.3141 -0.2468 -0.1927
    6CHTO   C10 2534   5.320   6.596   3.110 -0.6323 -0.2483  0.3245
    6CHTO   H23 2535   5.364   6.503   3.074 -0.6432 -0.8063  1.7184
    6CHTO   C17 2536   5.243   6.576   3.245 -0.1979  0.5619 -0.1859
    6CHTO   O12 2537   5.160   6.458   3.235  0.2852 -0.0078  0.6391
    6CHTO    H6 2538   5.210   6.379   3.242  0.7983  0.2171 -0.3362
    7CHTO  H203 2539   4.557   1.736   0.714 -0.3431 -0.8744  0.8196
    7CHTO   O82 2540   4.496   1.717   0.645  0.4319 -0.0726 -0.0988
    7CHTO  C123 2541   4.575   1.684   0.531 -0.5787 -0.3678  0.5771
    7CHTO  H227 2542   4.507   1.643   0.454 -0.3180 -2.2914  1.3552
    7CHTO   O77 2543   4.634   1.807   0.491 -0.0574 -0.3272 -0.0084
    7CHTO  C118 2544   4.702   1.809   0.368 -0.5590  0.4728 -0.4645
    7CHTO  H222 2545   4.652   1.764   0.281 -2.4036 -1.1502  1.3960
    7CHTO  C125 2546   4.755   1.971   0.336  0.6457  0.0455  0.0883
    7CHTO   O84 2547   4.636   2.054   0.314 -0.0298 -0.2278 -0.1725
    7CHTO  H205 2548   4.658   2.145   0.312  3.2555 -0.9536 -0.5909
    7CHTO  C114 2549   4.828   1.721   0.399 -0.7824  0.1981 -0.1256
    7CHTO  H218 2550   4.883   1.770   0.480  1.2582 -2.9031  0.4666
    7CHTO  C116 2551   4.794   1.577   0.447 -0.2491  0.0981 -0.1576
    7CHTO  H220 2552   4.767   1.521   0.356 -1.7630  0.1994  0.2242
    7CHTO   O79 2553   4.910   1.506   0.492 -0.3989 -0.0929 -0.2816
    7CHTO  H201 2554   4.971   1.505   0.420  1.9911  2.0979  1.6518
    7CHTO  C120 2555   4.690   1.578   0.560 -0.2020  0.1214  0.4057
    7CHTO  H224 2556   4.745   1.606   0.652 -0.0493 -0.6694  0.5654
    7CHTO   N21 2557   4.643   1.441   0.585  0.2334  0.3792 -0.3988
    7CHTO  H211 2558   4.583   1.396   0.507  2.3421  0.5236 -2.1527
    7CHTO  H212 2559   4.576   1.453   0.669  1.6823 -0.6621  0.9416
    7CHTO   O75 2560   4.896   1.718   0.274 -0.2230 -0.1072  0.3183
    7CHTO  C112 2561   5.050   1.761   0.273  0.8555  1.3691  0.4831
    7CHTO  H216 2562   5.110   1.680   0.319 -1.2610 -0.3457  0.3075
    7CHTO   O73 2563   5.062   1.884   0.347 -0.0057  0.0471  0.2571
    7CHTO  C113 2564   5.182   1.959   0.348 -0.4785 -0.0517 -0.4652
    7CHTO  H217 2565   5.259   1.890   0.387 -0.9957  0.8146  2.2173
    7CHTO  C124 2566   5.168   2.086   0.444 -0.3977 -0.4050 -1.0685
    7CHTO   O83 2567   5.153   2.052   0.583 -0.7322  0.0862 -0.2290
    7CHTO  H204 2568   5.060   2.040   0.591 -0.3842 -1.7700  1.2189
    7CHTO  C109 2569   5.217   1.994   0.198  0.3779  0.2836  0.1630
    7CHTO  H213 2570   5.130   2.049   0.160 -0.4549 -0.3763  1.0745
    7CHTO  C110 2571   5.226   1.862   0.115 -0.6440  0.2258 -0.3650
    7CHTO  H214 2572   5.312   1.814   0.161 -0.2009  0.3603 -1.0414
    7CHTO   O78 2573   5.257   1.899  -0.022 -0.7682  0.4972  0.4769
    7CHTO  H200 2574   5.294   1.833  -0.078 -0.4842  2.1690 -1.3602
    7CHTO  C111 2575   5.092   1.784   0.119  0.1339 -0.0572  0.1491
    7CHTO  H215 2576   5.014   1.850   0.077  0.2854  0.6931  1.0087
    7CHTO   N19 2577   5.088   1.653   0.049 -0.2383 -0.3748  0.4050
    7CHTO  H207 2578   5.000   1.592   0.062 -0.5674  0.0565  0.2003
    7CHTO  H208 2579   5.172   1.591   0.075 -0.5315 -0.3331  1.4656
    7CHTO   O74 2580   5.339   2.084   0.194  0.0608  0.6172  0.0855
    7CHTO  C115 2581   5.342   2.249   0.123  0.4860  0.6103  0.5642
    7CHTO  H219 2582   5.252   2.269   0.065  1.7370 -0.5637 -1.8288
    7CHTO   O76 2583   5.352   2.362   0.234 -0.1630  0.3454  0.4157
    7CHTO  C122 2584   5.475   2.397   0.298  0.5141 -0.1345  0.6448
    7CHTO  H226 2585   5.503   2.317   0.366  2.8162  1.8406  2.0973
    7CHTO  C126 2586   5.457   2.519   0.389  0.2272  0.2957  0.0576
    7CHTO   O85 2587   5.336   2.501   0.465  0.0108 -0.1757 -0.3147
    7CHTO  H206 2588   5.269   2.562   0.444 -0.2241 -0.8076 -1.4154
    7CHTO  C121 2589   5.594   2.408   0.193  0.6773  0.1139  0.0034
    7CHTO  H225 2590   5.577   2.496   0.127 -0.8577  0.0483  0.2985
    7CHTO   O81 2591   5.706   2.446   0.275  0.1511  0.1785  0.6233
    7CHTO  H202 2592   5.738   2.530   0.248 -1.1141  0.6797  0.6498
    7CHTO  C119 2593   5.603   2.276   0.102 -0.4279  0.0994 -0.5117
    7CHTO  H223 2594   5.692   2.288   0.040  0.0157 -0.0819  0.0924
    7CHTO  C117 2595   5.468   2.251   0.023  0.1656  0.6505 -0.2961
    7CHTO  H221 2596   5.469   2.160  -0.036  1.1250  1.3318 -1.3794
    7CHTO   N20 2597   5.458   2.358  -0.085 -0.1647  0.5336  0.4789
    7CHTO  H209 2598   5.384   2.429  -0.051 -1.4276 -0.3193 -0.4362
    7CHTO  H210 2599   5.428   2.316  -0.180 -0.4267 -0.2584  0.9079
    7CHTO   O80 2600   5.647   2.144   0.191  0.8193 -0.8542  0.2487
    7CHTO  C103 2601   5.644   1.986   0.132  0.2910 -0.7501  0.0141
    7CHTO  H190 2602   5.545   1.984   0.085 -0.0766  1.5898  0.6473
    7CHTO  C101 2603   5.753   1.954   0.020 -0.6012 -0.6210 -0.2115
    7CHTO  H188 2604   5.848   1.999   0.048 -1.3768  1.5026 -0.8894
    7CHTO   O68 2605   5.717   2.006  -0.110  0.1759  0.1108 -0.4310
    7CHTO  H168 2606   5.791   2.027  -0.164  0.5355 -3.1939 -1.3329
    7CHTO   C99 2607   5.766   1.800   0.002 -0.4642  0.1741 -0.6838
    7CHTO  H186 2608   5.678   1.766  -0.057 -0.6081 -0.3743 -0.1759
    7CHTO   N17 2609   5.889   1.748  -0.070 -0.5772  0.1621  0.0233
    7CHTO  H174 2610   5.961   1.711   0.001  0.9664 -1.2284 -2.2302
    7CHTO  H175 2611   5.932   1.826  -0.130 -2.2806 -0.5764 -2.2335
    7CHTO   C97 2612   5.748   1.717   0.135 -0.4973 -0.3569  0.3253
    7CHTO  H184 2613   5.843   1.720   0.191  0.9359 -1.3742 -1.9241
    7CHTO   O64 2614   5.638   1.750   0.211 -0.3659 -0.1326  0.4848
    7CHTO  C104 2615   5.646   1.889   0.252 -0.1191  0.4453  0.3944
    7CHTO  H191 2616   5.741   1.897   0.306 -0.3528  1.3910  0.6785
    7CHTO  C108 2617   5.536   1.905   0.354  0.0772 -0.2402  0.1403
    7CHTO   O71 2618   5.574   1.859   0.484  0.6069  0.0128 -0.3185
    7CHTO  H171 2619   5.516   1.887   0.553  0.6731 -3.4619  1.2421
    7CHTO   O62 2620   5.730   1.579   0.134 -0.5936  0.3314 -0.2466
    7CHTO   C91 2621   5.660   1.508   0.026  0.4808  0.4056 -0.2720
    7CHTO  H178 2622   5.668   1.574  -0.061  1.8225  1.6613  0.7910
    7CHTO   C92 2623   5.506   1.509   0.057  0.0865 -0.0601 -0.5799
    7CHTO  H179 2624   5.466   1.611   0.070  0.6351  0.1184 -0.3095
    7CHTO   O66 2625   5.443   1.473  -0.065 -0.0691  0.1393  0.6166
    7CHTO  H166 2626   5.476   1.395  -0.105  0.9078  1.6057 -1.5017
    7CHTO   C93 2627   5.451   1.409   0.169  0.1576  0.0527  0.1608
    7CHTO  H180 2628   5.367   1.362   0.115  0.6768 -0.9077  0.1893
    7CHTO   N16 2629   5.399   1.477   0.287 -0.1597 -0.6962 -0.3679
    7CHTO  H172 2630   5.388   1.411   0.372 -0.4151 -0.1443  0.0321
    7CHTO  H173 2631   5.299   1.508   0.261 -0.3125  2.4802  3.5061
    7CHTO   C94 2632   5.566   1.301   0.198 -0.2688 -0.2331 -0.2374
    7CHTO  H181 2633   5.642   1.335   0.267 -0.1572 -0.0501 -0.4516
    7CHTO   O61 2634   5.612   1.262   0.071 -0.3412  0.5651 -0.4729
    7CHTO   C95 2635   5.706   1.353   0.009  0.3837  0.0900  0.3317
    7CHTO  H182 2636   5.805   1.329   0.047  0.4523  1.0749  0.7734
    7CHTO  C106 2637   5.723   1.324  -0.148 -0.5023  0.6024  0.4105
    7CHTO   O69 2638   5.833   1.376  -0.214 -0.0621 -0.2359  0.1475
    7CHTO  H169 2639   5.902   1.314  -0.201  2.0064  2.3838  2.0938
    7CHTO   O63 2640   5.493   1.178   0.252 -0.1322  0.7405 -0.0554
    7CHTO   C96 2641   5.552   1.113   0.373 -0.5142 -0.5974 -0.9372
    7CHTO  H183 2642   5.564   1.186   0.454  2.9386 -1.0418 -0.9655
    7CHTO   C98 2643   5.686   1.043   0.343  0.5496 -0.4720  0.5459
    7CHTO  H185 2644   5.750   1.124   0.305 -1.0063 -0.1378 -1.4607
    7CHTO   O67 2645   5.741   1.012   0.469  0.0504  0.2093  0.7486
    7CHTO  H167 2646   5.683   1.007   0.543  0.4433  1.5901  1.1578
    7CHTO  C102 2647   5.673   0.911   0.257 -0.0260  0.2420 -0.1890
    7CHTO  H189 2648   5.766   0.854   0.271 -0.2460 -0.3525 -1.0884
    7CHTO   N18 2649   5.660   0.936   0.111 -0.2582 -0.2507 -0.5429
    7CHTO  H176 2650   5.748   0.995   0.091  0.9329 -1.5513  0.8045
    7CHTO  H177 2651   5.673   0.838   0.068  0.3310  0.2311 -1.4713
    7CHTO  C105 2652   5.554   0.816   0.309  0.6436  0.3368 -0.2926
    7CHTO  H192 2653   5.473   0.807   0.237  0.5671  1.6621 -0.3961
    7CHTO   O65 2654   5.488   0.873   0.428 -0.0116 -0.0731 -0.3633
    7CHTO  C100 2655   5.446   1.015   0.437 -0.1682 -0.5181 -0.3061
    7CHTO  H187 2656   5.347   1.033   0.393 -0.7091 -0.5046  0.9112
    7CHTO  C107 2657   5.420   1.041   0.594  0.0941  0.2830  0.2495
    7CHTO   O70 2658   5.326   1.146   0.620 -0.0237  0.2396  0.1565
    7CHTO  H170 2659   5.239   1.113   0.612  0.0673  0.3429 -1.3938
    7CHTO   O57 2660   5.632   0.672   0.321  0.2026  0.0505  0.7678
    7CHTO   C85 2661   5.614   0.575   0.218 -0.2873  0.1297  0.0817
    7CHTO  H157 2662   5.611   0.629   0.121 -0.0004  0.5812  0.3258
    7CHTO   C83 2663   5.471   0.506   0.233  0.0007  0.4887  0.2673
    7CHTO  H155 2664   5.401   0.589   0.217  0.6314  1.1487  0.8788
    7CHTO   O56 2665   5.449   0.462   0.369  0.4878  0.6045 -0.4071
    7CHTO  H135 2666   5.360   0.437   0.381  0.4227  0.0364 -1.9095
    7CHTO   C81 2667   5.456   0.392   0.127 -0.0825 -0.0351 -0.1068
    7CHTO  H153 2668   5.471   0.435   0.028 -0.4125  0.1694 -0.0699
    7CHTO   N14 2669   5.316   0.335   0.128 -0.1906 -0.5992  0.4591
    7CHTO  H141 2670   5.270   0.365   0.220 -3.6169  0.8361 -1.5974
    7CHTO  H142 2671   5.259   0.384   0.051  0.4555  1.2665  1.1369
    7CHTO   C79 2672   5.562   0.278   0.158  0.0252  0.1918 -0.0431
    7CHTO  H151 2673   5.549   0.204   0.080  0.3504  0.2528 -0.1540
    7CHTO   O52 2674   5.700   0.327   0.149  0.0135 -0.1867  0.2465
    7CHTO   C86 2675   5.726   0.460   0.216  0.3545 -0.2419  0.1369
    7CHTO  H158 2676   5.742   0.439   0.324  0.0176  0.8881  0.4023
    7CHTO   C90 2677   5.858   0.515   0.165 -0.2097  0.3873  0.1064
    7CHTO   O60 2678   5.976   0.460   0.235 -0.3269  0.4694  0.0530
    7CHTO  H138 2679   6.047   0.503   0.191  0.1151 -2.3931 -2.2136
    7CHTO   O50 2680   5.540   0.213   0.282  0.0421 -0.2694  0.2478
    7CHTO   C73 2681   5.561   0.086   0.339 -0.0156  0.1135 -0.2346
    7CHTO  H145 2682   5.651   0.039   0.298  0.9162  3.4588 -2.2138
    7CHTO   C74 2683   5.442  -0.008   0.302 -0.5993 -0.2361 -0.1925
    7CHTO  H146 2684   5.442  -0.014   0.192  2.3481 -0.3331 -0.2231
    7CHTO   O54 2685   5.478  -0.139   0.342  0.0468  0.1014  0.4930
    7CHTO  H133 2686   5.425  -0.163   0.415 -1.3887 -0.4274 -0.6938
    7CHTO   C75 2687   5.308   0.035   0.358  0.3899  0.3025  0.1723
    7CHTO  H147 2688   5.286   0.133   0.313  3.1543  0.2518 -1.3958
    7CHTO   N13 2689   5.189  -0.052   0.333  0.2335  0.0466  0.5792
    7CHTO  H139 2690   5.191  -0.098   0.235 -0.0962  2.2233 -0.4803
    7CHTO  H140 2691   5.096   0.002   0.337 -0.1391 -0.6155  1.1387
    7CHTO   C76 2692   5.324   0.058   0.518  0.0381  0.0565 -0.2807
    7CHTO  H148 2693   5.349  -0.035   0.570 -3.5401 -0.2694  0.9755
    7CHTO   O49 2694   5.441   0.150   0.534 -0.0524  0.1020  0.0988
    7CHTO   C77 2695   5.571   0.098   0.496 -0.0177  0.0108  0.0995
    7CHTO  H149 2696   5.587   0.001   0.544  2.0452 -1.2714 -3.0281
    7CHTO   C88 2697   5.679   0.192   0.547  0.4317  0.0962 -0.5056
    7CHTO   O58 2698   5.815   0.119   0.561  0.0565  0.3402  0.2618
    7CHTO  H136 2699   5.814   0.078   0.646  0.8007  1.1195  0.6534
    7CHTO   O51 2700   5.195   0.120   0.594 -0.4293  0.4504  0.1517
    7CHTO   C78 2701   5.184   0.084   0.752 -0.1047 -0.4540  0.4996
    7CHTO  H150 2702   5.273   0.021   0.769  0.4265  0.2214  0.2320
    7CHTO   C80 2703   5.056   0.005   0.783 -0.2164  0.0226 -0.2150
    7CHTO  H152 2704   4.973   0.065   0.740 -0.7675 -1.7459 -1.6787
    7CHTO   O55 2705   5.053  -0.122   0.709 -0.4393  0.2400 -0.1356
    7CHTO  H134 2706   5.063  -0.122   0.616  0.2113  0.2866 -0.0703
    7CHTO   C84 2707   5.042  -0.017   0.937  0.2445  0.6269  0.1506
    7CHTO  H156 2708   5.111  -0.091   0.979  2.8690  2.4655 -0.7685
    7CHTO   N15 2709   4.908  -0.072   0.967  0.4087 -0.6066 -0.9591
    7CHTO  H143 2710   4.839   0.003   1.000 -0.7635 -2.3924  0.7718
    7CHTO  H144 2711   4.923  -0.141   1.048 -0.6612  0.5322  0.2399
    7CHTO   C87 2712   5.079   0.104   1.023  0.2357 -0.0611  0.0399
    7CHTO  H159 2713   4.999   0.177   1.016  0.1628 -0.1304  0.1514
    7CHTO   O53 2714   5.208   0.160   0.969 -0.1265 -0.2819  0.4197
    7CHTO   C82 2715   5.194   0.209   0.841  0.0442  0.2593  0.7234
    7CHTO  H154 2716   5.106   0.272   0.829 -0.1076 -0.1223 -0.2541
    7CHTO   C89 2717   5.318   0.286   0.803  0.1831  0.5032  0.4962
    7CHTO   O59 2718   5.324   0.418   0.865  0.2017  0.3348  0.3705
    7CHTO  H137 2719   5.309   0.478   0.795 -4.0716 -2.9677 -1.7049
    7CHTO   O45 2720   5.102   0.065   1.163  0.2894  0.1499  0.0273
    7CHTO   C67 2721   5.116   0.176   1.249 -0.2962 -0.6212 -0.2935
    7CHTO  H124 2722   5.162   0.258   1.193  0.1659 -0.5189  0.2314
    7CHTO   C65 2723   4.972   0.223   1.305 -0.8640  0.0095 -0.0148
    7CHTO  H122 2724   4.929   0.124   1.318 -0.2582 -0.0102  2.1275
    7CHTO   O44 2725   4.908   0.302   1.208 -0.1376 -0.6827  0.1424
    7CHTO  H102 2726   4.966   0.369   1.178 -0.4898 -1.3187 -2.0356
    7CHTO   C63 2727   4.990   0.287   1.446 -0.4930  0.3784 -0.1129
    7CHTO  H120 2728   4.985   0.207   1.520 -0.3135  0.6253  0.1703
    7CHTO   N11 2729   4.873   0.371   1.493 -0.2718 -0.1861 -0.4314
    7CHTO  H108 2730   4.899   0.442   1.569 -1.1936 -0.2654 -0.0361
    7CHTO  H109 2731   4.820   0.408   1.408 -0.1387 -2.4947 -1.5542
    7CHTO   C61 2732   5.133   0.347   1.459  0.8061 -0.1760 -0.5219
    7CHTO  H118 2733   5.140   0.387   1.562 -1.7215 -0.3343 -0.2618
    7CHTO   O40 2734   5.250   0.253   1.442 -0.6936 -0.0866 -0.1629
    7CHTO   C68 2735   5.224   0.141   1.354 -0.4561  0.1509 -0.2548
    7CHTO  H125 2736   5.165   0.059   1.400 -1.0556 -0.5894 -2.2632
    7CHTO   C72 2737   5.353   0.085   1.302 -0.0813  0.6509  0.4187
    7CHTO   O48 2738   5.446   0.067   1.407 -0.3528 -0.2943 -0.1365
    7CHTO  H105 2739   5.444   0.140   1.467  1.5122 -1.5485  1.5274
    7CHTO   O38 2740   5.147   0.448   1.355 -0.0151  0.0652 -0.0620
    7CHTO   C55 2741   5.237   0.551   1.394 -0.4181  0.2516 -0.5508
    7CHTO  H112 2742   5.290   0.519   1.485 -0.8729  3.1357  0.7944
    7CHTO   C56 2743   5.152   0.689   1.420  0.9664  0.7048  0.3401
    7CHTO  H113 2744   5.089   0.703   1.330  1.0918  0.0461  0.1444
    7CHTO   O42 2745   5.065   0.682   1.530 -0.1076  1.0217 -0.8891
    7CHTO  H100 2746   4.995   0.744   1.531 -1.1139 -0.0928 -0.6532
    7CHTO   C57 2747   5.250   0.811   1.439 -0.1556  0.1867  0.7329
    7CHTO  H114 2748   5.304   0.796   1.533 -0.3761 -0.5838  0.7400
    7CHTO   N10 2749   5.171   0.940   1.442 -0.2016 -0.7094 -0.5068
    7CHTO  H106 2750   5.223   1.018   1.389  0.4120 -0.7565  0.0166
    7CHTO  H107 2751   5.071   0.938   1.402  0.3366  0.4525 -1.9328
    7CHTO   C58 2752   5.353   0.803   1.322  0.0875  0.3497 -0.1779
    7CHTO  H115 2753   5.299   0.821   1.227  1.4796  1.2657 -0.8188
    7CHTO   O37 2754   5.431   0.680   1.321  0.1054 -0.1925  0.4351
    7CHTO   C59 2755   5.347   0.569   1.283 -0.4157 -0.0014 -0.8798
    7CHTO  H116 2756   5.298   0.603   1.192 -2.3794 -1.8733 -0.5659
    7CHTO   C70 2757   5.441   0.447   1.259 -0.2385  0.8086  0.1603
    7CHTO   O46 2758   5.535   0.476   1.148  0.5560 -0.7814 -0.3159
    7CHTO  H103 2759   5.607   0.528   1.179 -0.2132 -0.1403  0.4229
    7CHTO   O39 2760   5.458   0.909   1.334 -0.3600  0.1869  0.4282
    7CHTO   C60 2761   5.561   0.910   1.234 -0.1532  0.5033 -0.1654
    7CHTO  H117 2762   5.604   0.810   1.221 -1.2686  0.0874 -0.6805
    7CHTO   C62 2763   5.527   0.953   1.090 -0.6688  0.2726  0.0645
    7CHTO  H119 2764   5.462   0.878   1.040  0.7311  0.5463 -2.2766
    7CHTO   O43 2765   5.478   1.086   1.094  0.7074  0.1597 -0.2803
    7CHTO  H101 2766   5.435   1.103   1.013  2.8785  1.0847 -1.2627
    7CHTO   C66 2767   5.661   0.941   1.001 -0.1327 -0.2143  0.4831
    7CHTO  H123 2768   5.692   0.837   1.002  1.2972  0.2114  0.7672
    7CHTO   N12 2769   5.644   0.984   0.858  0.6458 -0.2069 -0.0979
    7CHTO  H110 2770   5.540   1.008   0.842 -0.6786 -3.5600  2.7159
    7CHTO  H111 2771   5.681   0.909   0.790 -3.0611 -0.4900 -1.9191
    7CHTO   C69 2772   5.786   1.015   1.064  0.1909  0.9988  0.2019
    7CHTO  H126 2773   5.768   1.124   1.049 -1.4079  0.6074 -0.8875
    7CHTO   O41 2774   5.801   0.993   1.219  0.0207 -0.0110 -0.0076
    7CHTO   C64 2775   5.681   0.999   1.296  0.1118  0.0164 -0.1605
    7CHTO  H121 2776   5.643   1.103   1.302 -2.4573 -0.7356 -2.7140
    7CHTO   C71 2777   5.723   0.950   1.439  0.2622 -0.2601 -0.0739
    7CHTO   O47 2778   5.804   0.836   1.439 -0.5004  0.6803  0.3398
    7CHTO  H104 2779   5.761   0.760   1.404  0.1535 -0.4520  1.9199
    7CHTO   O34 2780   5.909   0.987   0.998  0.2542 -0.8014  0.3868
    7CHTO   C49 2781   6.020   0.901   0.982  0.1937 -0.4014  0.0673
    7CHTO   H91 2782   6.073   0.944   0.897  1.2924  1.0481  1.4616
    7CHTO   C47 2783   5.984   0.754   0.957 -0.0541 -0.0043  0.6190
    7CHTO   H89 2784   6.077   0.705   0.922 -1.1610 -1.2505 -0.6489
    7CHTO   O33 2785   5.903   0.751   0.839 -0.1677  0.1569 -0.3065
    7CHTO   H70 2786   5.868   0.668   0.813  2.6690 -0.7357 -1.3958
    7CHTO   C45 2787   5.918   0.688   1.090 -0.1979 -0.3159 -0.1821
    7CHTO   H87 2788   5.851   0.763   1.134  0.0964 -0.0202 -0.2316
    7CHTO    N8 2789   5.847   0.563   1.071  0.6419 -0.4521 -0.1875
    7CHTO   H75 2790   5.794   0.526   1.157  0.6660 -0.6005 -0.2358
    7CHTO   H76 2791   5.771   0.591   0.999  1.2308 -0.3698 -0.7781
    7CHTO   C43 2792   6.041   0.689   1.200 -0.1069 -0.0469  0.4720
    7CHTO   H85 2793   6.000   0.660   1.297 -0.0139 -2.2426 -0.1135
    7CHTO   O29 2794   6.108   0.815   1.204 -0.5273 -0.1019 -0.4270
    7CHTO   C50 2795   6.115   0.915   1.104 -0.1220  0.2401  0.6107
    7CHTO   H92 2796   6.112   1.011   1.158 -0.9029  0.4120  0.2755
    7CHTO   C54 2797   6.259   0.917   1.043 -0.2932 -0.0918  0.7222
    7CHTO   O36 2798   6.354   0.943   1.146 -0.1237  0.5714  0.2986
    7CHTO   H72 2799   6.446   0.930   1.129 -0.8428 -2.0077 -1.9625
    7CHTO   O27 2800   6.141   0.588   1.149 -0.2338 -0.3995 -0.1190
    7CHTO   C37 2801   6.246   0.494   1.168  0.1621  0.0069  0.6496
    7CHTO   H79 2802   6.224   0.449   1.266  1.1988 -2.7983 -0.3362
    7CHTO   C38 2803   6.246   0.388   1.059 -0.4219 -0.0967 -0.4057
    7CHTO   H80 2804   6.216   0.438   0.965 -0.6136 -0.0968 -0.3426
    7CHTO   O31 2805   6.139   0.298   1.096 -0.3226  0.1610 -0.0459
    7CHTO   H68 2806   6.139   0.219   1.046  1.7332  0.4314 -0.4981
    7CHTO   C39 2807   6.375   0.303   1.046  0.5111  0.4764  0.5000
    7CHTO   H81 2808   6.364   0.233   1.128  2.4409  2.3069  2.4090
    7CHTO    N7 2809   6.393   0.226   0.926  0.0346 -0.2493 -0.0109
    7CHTO   H73 2810   6.302   0.171   0.910 -0.5490  0.7482 -0.1968
    7CHTO   H74 2811   6.464   0.150   0.952  0.1530  0.4278  1.6984
    7CHTO   C40 2812   6.501   0.391   1.073 -0.2397 -0.5846 -0.0352
    7CHTO   H82 2813   6.516   0.454   0.985 -0.2816 -2.2504 -1.2686
    7CHTO   O26 2814   6.494   0.468   1.195  0.0917 -0.4594  0.0458
    7CHTO   C41 2815   6.386   0.569   1.183 -0.8172 -0.4867  0.3257
    7CHTO   H83 2816   6.404   0.635   1.097 -1.8069  0.9856  1.2148
    7CHTO   C52 2817   6.382   0.666   1.305  0.1100  0.2081  0.1529
    7CHTO   O35 2818   6.494   0.692   1.352 -0.1649 -0.1327  0.2487
    7CHTO   H71 2819   6.529   0.614   1.388  0.9580  0.3813  0.2882
    7CHTO   O28 2820   6.620   0.308   1.085 -0.0051 -0.1942 -0.2725
    7CHTO   C42 2821   6.754   0.350   1.048 -0.4194 -0.1643  0.0449
    7CHTO   H84 2822   6.810   0.304   1.130 -0.2352  0.3875  0.2331
    7CHTO   C44 2823   6.791   0.504   1.048 -0.1517 -0.0275 -0.5560
    7CHTO   H86 2824   6.712   0.561   0.998 -0.1408 -0.3326 -0.9169
    7CHTO   O32 2825   6.792   0.554   1.190  0.1111 -0.2252 -0.6373
    7CHTO   H69 2826   6.826   0.642   1.190  0.6125 -0.3834  1.1295
    7CHTO   C48 2827   6.928   0.544   0.980  0.3453 -0.3406 -0.8419
    7CHTO   H90 2828   7.013   0.506   1.036  1.3307  1.7218 -0.9012
    7CHTO    N9 2829   6.953   0.689   0.968  0.1942  0.0445 -0.1604
    7CHTO   H77 2830   6.954   0.729   1.068 -0.2294 -1.8734  0.6331
    7CHTO   H78 2831   6.870   0.735   0.917 -0.3641  3.0464  3.2311
    7CHTO   C51 2832   6.928   0.479   0.833  0.5555  0.4935  0.6852
    7CHTO   H93 2833   6.832   0.506   0.788 -0.8143 -0.8489  2.7231
    7CHTO   O30 2834   6.938   0.342   0.858 -0.0926  0.9913  0.3648
    7CHTO   C46 2835   6.797   0.284   0.910 -0.2163 -0.1982 -0.9763
    7CHTO   H88 2836   6.726   0.310   0.831 -1.5835  1.5093  0.7957
    7CHTO   C53 2837   6.819   0.132   0.911  0.4118  0.0236  0.3559
    7CHTO   O72 2838   6.896   0.097   1.033 -0.5465 -0.3853  0.0794
    7CHTO  H199 2839   6.984   0.129   1.030  0.7750 -3.8575 -0.1314
    7CHTO   O22 2840   7.036   0.522   0.745 -0.1224 -0.5337 -0.2176
    7CHTO   C31 2841   7.034   0.511   0.598  0.1725  0.6502 -0.3469
    7CHTO   H59 2842   7.116   0.575   0.558  2.3486 -3.6047 -3.0414
    7CHTO   C29 2843   7.068   0.364   0.553  0.4691  0.7027 -0.1385
    7CHTO   H57 2844   7.012   0.297   0.619 -0.2759  0.6770 -0.7798
    7CHTO   O21 2845   7.209   0.346   0.581  0.4498 -0.2867  0.0820
    7CHTO   H37 2846   7.251   0.381   0.505  1.9909  1.9477  1.8678
    7CHTO   C27 2847   7.027   0.327   0.408 -0.0791  0.2661  0.2343
    7CHTO   H55 2848   7.092   0.384   0.340 -0.9512  0.4831 -0.4273
    7CHTO    N5 2849   7.047   0.183   0.373  0.4456  0.7296  0.0378
    7CHTO   H43 2850   7.014   0.120   0.455  1.0917  1.2731  0.7214
    7CHTO   H44 2851   7.147   0.155   0.345  0.1527  0.1984 -0.5114
    7CHTO   C25 2852   6.884   0.380   0.375 -0.5227  0.4093 -0.3101
    7CHTO   H53 2853   6.814   0.317   0.432  0.3096  0.5889  0.9411
    7CHTO   O17 2854   6.881   0.523   0.402 -0.1970  0.4618 -0.0173
    7CHTO   C32 2855   6.898   0.563   0.539 -0.0685 -0.3190  0.6953
    7CHTO   H60 2856   6.816   0.512   0.589  0.9220  0.8211  3.6072
    7CHTO   C36 2857   6.895   0.718   0.549 -0.2150 -0.1080 -0.4881
    7CHTO   O25 2858   6.759   0.764   0.532 -0.1579  0.4003  0.2258
    7CHTO   H40 2859   6.735   0.854   0.530 -0.5837  0.2697 -0.5023
    7CHTO   O15 2860   6.866   0.366   0.209  0.0008 -0.0083  0.3160
    7CHTO   C19 2861   6.754   0.421   0.134 -0.7898 -0.7646 -0.4755
    7CHTO   H47 2862   6.764   0.369   0.038 -1.2957 -2.1786  0.2290
    7CHTO   C20 2863   6.612   0.394   0.196 -0.2219 -0.2358 -0.2206
    7CHTO   H48 2864   6.607   0.420   0.302  0.4955  1.5332 -0.6020
    7CHTO   O19 2865   6.594   0.251   0.187 -0.1494 -0.0552  0.5612
    7CHTO   H35 2866   6.540   0.227   0.261  0.4700  0.0522  1.0495
    7CHTO   C21 2867   6.497   0.472   0.114  0.2668 -0.1223  0.4193
    7CHTO   H49 2868   6.487   0.432   0.014 -1.0075 -0.0910  0.5283
    7CHTO    N4 2869   6.358   0.466   0.169  0.5142 -0.5070  0.1395
    7CHTO   H41 2870   6.380   0.454   0.274  0.5673 -3.6946 -0.1637
    7CHTO   H42 2871   6.308   0.378   0.130 -0.2672  0.0914 -0.2193
    7CHTO   C22 2872   6.538   0.622   0.093 -0.3772 -0.3827 -0.3639
    7CHTO   H50 2873   6.554   0.672   0.189 -4.3277  0.1451  0.1322
    7CHTO   O14 2874   6.662   0.624   0.026  0.2939 -0.3437 -0.1721
    7CHTO   C23 2875   6.773   0.572   0.098 -0.3716 -0.1549  0.5855
    7CHTO   H51 2876   6.796   0.638   0.183  0.3274  0.6885 -0.2497
    7CHTO   C34 2877   6.894   0.585   0.001 -0.1304  0.8833 -0.4598
    7CHTO   O23 2878   6.942   0.717   0.007 -0.0388  0.1878  0.2120
    7CHTO   H38 2879   7.022   0.731  -0.039  1.9159 -0.4160  3.2811
    7CHTO   O16 2880   6.453   0.689   0.000 -0.1332  0.0211 -0.2204
    7CHTO   C24 2881   6.398   0.843   0.077  0.0799 -0.1673  0.1421
    7CHTO   H52 2882   6.452   0.861   0.170 -1.6624 -1.2895  1.3985
    7CHTO   C26 2883   6.249   0.842   0.103  0.1936 -0.2483  0.0699
    7CHTO   H54 2884   6.195   0.791   0.020  0.0153  0.7837 -0.4557
    7CHTO   O20 2885   6.224   0.758   0.211 -0.7624  0.2073  0.0698
    7CHTO   H36 2886   6.209   0.808   0.289 -2.4112 -0.0221 -0.0911
    7CHTO   C30 2887   6.187   0.984   0.118  0.6106 -0.8485  0.6397
    7CHTO   H58 2888   6.213   1.019   0.219 -2.2097  3.3274  0.0835
    7CHTO    N6 2889   6.038   0.980   0.118  0.7315  0.1639  0.0163
    7CHTO   H45 2890   5.994   1.070   0.156 -0.1220 -0.7602  1.2487
    7CHTO   H46 2891   6.000   0.965   0.018  1.6997 -1.1217 -0.1862
    7CHTO   C33 2892   6.243   1.093   0.027 -0.0408 -0.5075  0.9370
    7CHTO   H61 2893   6.206   1.084  -0.076  0.8531 -1.3841  0.6864
    7CHTO   O18 2894   6.389   1.085   0.020 -0.3727 -0.0551  0.1693
    7CHTO   C28 2895   6.447   0.957  -0.026 -0.6505 -0.2357 -0.9177
    7CHTO   H56 2896   6.412   0.936  -0.128 -0.2908 -2.5552 -0.6020
    7CHTO   C35 2897   6.598   0.970  -0.027 -0.1540 -0.1617  0.5070
    7CHTO   O24 2898   6.655   1.077  -0.100  0.5524  0.0295  0.2730
    7CHTO   H39 2899   6.587   1.132  -0.135  0.1461 -0.2721  0.5755
    7CHTO    O9 2900   6.201   1.223   0.075 -0.6042 -0.3862  0.3116
    7CHTO   C13 2901   6.200   1.338  -0.061 -0.3840  0.0132 -0.2462
    7CHTO   H26 2902   6.145   1.281  -0.138  0.2164 -1.1932  0.2083
    7CHTO   C11 2903   6.350   1.371  -0.101  0.3916 -0.0197  0.5372
    7CHTO   H24 2904   6.385   1.279  -0.149  1.6965  0.1480  1.1287
    7CHTO    O8 2905   6.428   1.398   0.018  1.0870  0.2360  0.4236
    7CHTO    H3 2906   6.500   1.457   0.003  0.4452  0.9809  0.2911
    7CHTO    C9 2907   6.349   1.494  -0.196  0.7810 -0.7326 -0.5678
    7CHTO   H22 2908   6.284   1.466  -0.280  0.2823 -1.2640 -0.0081
    7CHTO    N2 2909   6.479   1.517  -0.262  0.7925  0.7711  1.0256
    7CHTO   H10 2910   6.514   1.435  -0.323 -1.3395  1.8830 -1.7954
    7CHTO   H11 2911   6.482   1.607  -0.321  1.5101 -0.1401 -0.3612
    7CHTO    C7 2912   6.287   1.616  -0.127 -0.6145 -0.3023 -0.1149
    7CHTO   H20 2913   6.290   1.691  -0.209  0.9667  0.0841  0.2682
    7CHTO    O4 2914   6.153   1.595  -0.086 -0.3346 -0.2305  0.2723
    7CHTO   C14 2915   6.120   1.471  -0.020  0.1593  0.1790 -0.2375
    7CHTO   H27 2916   6.013   1.457  -0.048  0.4125 -2.5287  0.0264
    7CHTO   C18 2917   6.129   1.484   0.132  0.9252 -0.3881  0.1956
    7CHTO   O13 2918   6.014   1.554   0.185 -0.1722  0.1227  0.0985
    7CHTO    H7 2919   6.025   1.569   0.277 -0.8983 -1.4788  0.4627
    7CHTO    O2 2920   6.374   1.669  -0.009  0.6030  0.2038 -0.1491
    7CHTO    C1 2921   6.336   1.787   0.048  0.0665  0.0869 -0.5203
    7CHTO   H14 2922   6.245   1.775   0.110 -0.6184  0.5225 -1.4411
    7CHTO    C2 2923   6.314   1.914  -0.042 -1.0218  0.2459 -0.1272
    7CHTO   H15 2924   6.385   1.900  -0.125 -1.7542 -1.4309 -0.5079
    7CHTO    O6 2925   6.185   1.892  -0.110  0.2899  0.3108 -0.4366
    7CHTO    H1 2926   6.120   1.890  -0.043 -0.8587  1.6057 -1.4775
    7CHTO    C3 2927   6.314   2.058   0.027 -0.3085 -0.3775 -0.0890
    7CHTO   H16 2928   6.217   2.077   0.076  0.6934  1.0637  1.3884
    7CHTO    N1 2929   6.332   2.174  -0.066 -0.1273  0.0335  0.0766
    7CHTO    H8 2930   6.341   2.270  -0.019 -2.0309 -0.3009  1.2012
    7CHTO    H9 2931   6.424   2.160  -0.122  0.5215 -1.1245  1.4050
    7CHTO    C4 2932   6.422   2.054   0.144  0.1382 -0.2509  0.2653
    7CHTO   H17 2933   6.521   2.062   0.100  0.1855 -2.6161 -0.1110
    7CHTO    O1 2934   6.399   1.940   0.227  0.1029  0.1538 -0.0792
    7CHTO    C5 2935   6.441   1.823   0.159  0.9356 -0.7680 -0.0593
    7CHTO   H18 2936   6.538   1.845   0.114  0.7947 -0.4428 -0.2092
    7CHTO   C16 2937   6.472   1.709   0.269 -0.1320 -0.4913  0.5548
    7CHTO   O11 2938   6.393   1.682   0.378 -0.2468 -0.6419 -0.1808
    7CHTO    H5 2939   6.428   1.717   0.458  0.5958  2.1235 -1.7038
    7CHTO    O3 2940   6.411   2.161   0.230 -0.0348 -0.6320  0.1225
    7CHTO    C6 2941   6.543   2.208   0.283  0.2888 -0.8256 -0.4233
    7CHTO   H19 2942   6.630   2.146   0.260  2.5114  1.2716  2.0294
    7CHTO    C8 2943   6.576   2.353   0.222  0.0398 -0.1606 -0.6358
    7CHTO   H21 2944   6.494   2.420   0.249 -0.0117 -0.0974 -0.9467
    7CHTO    O7 2945   6.572   2.342   0.078  0.0975  0.0944  0.0102
    7CHTO    H2 2946   6.570   2.424   0.033 -1.8720  0.0845  0.0738
    7CHTO   C12 2947   6.711   2.395   0.287  0.3214  0.2253  0.5367
    7CHTO   H25 2948   6.786   2.321   0.250  0.7748  0.1993  1.4992
    7CHTO    N3 2949   6.762   2.533   0.244 -0.4222 -0.6588 -0.8951
    7CHTO   H12 2950   6.860   2.553   0.285  0.7561 -3.5301 -2.1766
    7CHTO   H13 2951   6.695   2.614   0.271  0.7611 -0.3666  1.2657
    7CHTO   C15 2952   6.703   2.391   0.443  0.6007 -0.3897 -0.3899
    7CHTO   H28 2953   6.649   2.480   0.477  2.0273  0.9169 -1.4663
    7CHTO   O10 2954   6.862   2.382   0.517  0.1729  0.3002 -0.0312
    7CHTO    H4 2955   6.918   2.323   0.470 -2.5689 -3.4237  1.0936
    7CHTO    O5 2956   6.646   2.273   0.497 -0.3633 -0.1861 -0.1022
    7CHTO   C10 2957   6.530   2.225   0.435  0.2175  0.4590 -0.1956
    7CHTO   H23 2958   6.446   2.286   0.466 -0.3766 -2.0515  3.4553
    7CHTO   C17 2959   6.498   2.084   0.488  0.1418  0.5174 -0.9313
    7CHTO   O12 2960   6.409   2.082   0.603  0.4889  0.2688  0.6131
    7CHTO    H6 2961   6.420   2.013   0.666  1.3271 -0.1528  0.0073
    8CHTO  H203 2962   7.290   8.075   2.303  1.4928 -0.6866  2.3038
    8CHTO   O82 2963   7.209   8.036   2.329  0.0751  0.5565  0.0037
    8CHTO  C123 2964   7.092   8.096   2.268 -0.8761  0.1852  0.4813
    8CHTO  H227 2965   7.119   8.200   2.244 -0.4235 -0.2312 -0.8237
    8CHTO   O77 2966   7.079   8.012   2.148 -0.0286  0.2560 -0.2432
    8CHTO  C118 2967   6.973   8.043   2.060  0.2483  0.3265  0.1666
    8CHTO  H222 2968   6.976   8.149   2.031  2.3060 -0.0832 -1.1880
    8CHTO  C125 2969   6.979   7.954   1.927 -0.4136 -0.1816  0.3802
    8CHTO   O84 2970   7.106   7.956   1.870  0.5415 -0.4321 -0.0485
    8CHTO  H205 2971   7.163   7.904   1.923  1.1049  0.5813  0.3735
    8CHTO  C114 2972   6.846   8.016   2.133 -0.0032  0.5046 -0.3030
    8CHTO  H218 2973   6.830   7.910   2.157 -3.1319  1.0827  0.3980
    8CHTO  C116 2974   6.835   8.097   2.266  0.0662 -0.1719 -0.2661
    8CHTO  H220 2975   6.818   8.206   2.248 -0.7776 -0.2205  0.2227
    8CHTO   O79 2976   6.710   8.073   2.332 -0.2145 -0.4012 -0.4770
    8CHTO  H201 2977   6.707   7.980   2.347  3.0316 -0.6011 -0.7020
    8CHTO  C120 2978   6.966   8.075   2.355 -0.2428  0.2825 -0.0088
    8CHTO  H224 2979   6.952   7.968   2.382  1.0975 -0.1185 -0.8516
    8CHTO   N21 2980   6.970   8.155   2.482 -0.2988 -1.0192 -0.2147
    8CHTO  H211 2981   6.871   8.182   2.517 -0.7203  0.2100 -2.2931
    8CHTO  H212 2982   7.010   8.099   2.566 -2.0609 -0.9053  0.7398
    8CHTO   O75 2983   6.743   8.052   2.035 -0.4263 -0.2463 -0.0160
    8CHTO  C112 2984   6.661   8.211   2.039  0.0109 -0.2957 -0.5371
    8CHTO  H216 2985   6.733   8.293   2.056  0.5620 -0.8596 -0.1267
    8CHTO   O73 2986   6.557   8.208   2.136  0.5350 -0.2255 -0.0214
    8CHTO  C113 2987   6.457   8.315   2.124  0.3366  0.1375 -0.2782
    8CHTO  H217 2988   6.501   8.414   2.147 -0.5799  0.3763  0.4837
    8CHTO  C124 2989   6.354   8.282   2.234  0.2425 -0.1686  0.0690
    8CHTO   O83 2990   6.260   8.383   2.258 -0.0619  0.0648 -0.2894
    8CHTO  H204 2991   6.242   8.378   2.350 -1.0496 -1.2442 -0.5397
    8CHTO  C109 2992   6.389   8.331   1.983 -0.0016 -0.9483 -0.2083
    8CHTO  H213 2993   6.325   8.243   1.972 -2.7957  1.0261 -0.3696
    8CHTO  C110 2994   6.496   8.336   1.874 -0.9163 -0.1600  0.2401
    8CHTO  H214 2995   6.542   8.435   1.882 -1.0305 -0.1603  0.9676
    8CHTO   O78 2996   6.435   8.332   1.746  0.2109 -0.3864  0.1370
    8CHTO  H200 2997   6.485   8.370   1.676  0.0833  0.0705  0.2860
    8CHTO  C111 2998   6.602   8.225   1.890 -0.3665  0.0819 -0.4975
    8CHTO  H215 2999   6.558   8.127   1.867 -0.9067  0.5460 -1.4196
    8CHTO   N19 3000   6.714   8.248   1.792 -0.6694  0.0288 -0.1875
    8CHTO  H207 3001   6.695   8.338   1.735 -1.1170  0.8678  1.2435
    8CHTO  H208 3002   6.729   8.163   1.728 -1.0044  1.1156 -1.7324
    8CHTO   O74 3003   6.302   8.445   1.992 -0.3157  0.0363 -0.0036
    8CHTO  C115 3004   6.162   8.426   1.948  0.1018 -0.1541 -0.2298
    8CHTO  H219 3005   6.136   8.323   1.922 -0.1403 -0.2550  0.4026
    8CHTO   O76 3006   6.056   8.463   2.083 -0.0843 -0.7238 -0.1137
    8CHTO  C122 3007   6.045   8.604   2.108 -0.2319  0.3524  0.2331
    8CHTO  H226 3008   6.135   8.632   2.162 -0.8131 -0.5509  1.7057
    8CHTO  C126 3009   5.919   8.610   2.213  0.8071  0.3939 -0.6425
    8CHTO   O85 3010   5.952   8.549   2.341  0.2307  0.0574 -0.6187
    8CHTO  H206 3011   6.026   8.594   2.376  0.7786 -1.2485 -0.0621
    8CHTO  C121 3012   6.015   8.689   1.980  0.2089 -0.4473  0.3060
    8CHTO  H225 3013   5.916   8.659   1.941  1.0607  1.4345 -3.5427
    8CHTO   O81 3014   6.002   8.825   2.001  0.0754  0.4740  0.5708
    8CHTO  H202 3015   5.941   8.872   1.947  1.1088  0.3319 -0.7486
    8CHTO  C119 3016   6.124   8.667   1.867  0.3098  0.3665 -0.2924
    8CHTO  H223 3017   6.090   8.727   1.783 -0.2068  0.3888 -0.0645
    8CHTO  C117 3018   6.126   8.519   1.822  0.0752  0.0333  0.1469
    8CHTO  H221 3019   6.201   8.488   1.749  1.2632  1.7402  0.6082
    8CHTO   N20 3020   6.001   8.464   1.765  0.4443  0.3941 -0.1813
    8CHTO  H209 3021   5.996   8.481   1.659  1.5036 -0.2934 -0.3503
    8CHTO  H210 3022   5.914   8.511   1.809 -0.4601 -1.6478  0.2794
    8CHTO   O80 3023   6.259   8.718   1.885  0.5759 -0.0262  0.0343
    8CHTO  C103 3024   6.306   8.854   1.779 -0.3963 -0.1247  0.6018
    8CHTO  H190 3025   6.213   8.894   1.739  0.1872 -1.1459 -1.9100
    8CHTO  C101 3026   6.384   8.972   1.853 -0.6444  0.0894 -0.4801
    8CHTO  H188 3027   6.468   8.928   1.907 -0.6865  0.5690 -0.0279
    8CHTO   O68 3028   6.288   9.022   1.964  0.1217 -0.0557 -0.0502
    8CHTO  H168 3029   6.319   9.007   2.051 -1.2052  0.2013  0.4906
    8CHTO   C99 3030   6.440   9.087   1.760  0.5144 -0.6746 -0.2069
    8CHTO  H186 3031   6.347   9.144   1.739 -0.3469 -1.3416  1.7229
    8CHTO   N17 3032   6.541   9.184   1.820  0.3563 -0.0134  0.0352
    8CHTO  H174 3033   6.621   9.136   1.875  2.0627  0.2680 -2.1203
    8CHTO  H175 3034   6.480   9.248   1.883 -0.3848 -1.5413  0.9101
    8CHTO   C97 3035   6.494   9.031   1.623 -0.1810  0.5212  0.2387
    8CHTO  H184 3036   6.595   8.995   1.648 -0.6043  0.6424  2.2047
    8CHTO   O64 3037   6.413   8.924   1.567 -0.3895  0.0336 -0.5820
    8CHTO  C104 3038   6.392   8.812   1.657  0.0921  0.1491  0.6300
    8CHTO  H191 3039   6.478   8.760   1.699  0.3330 -0.8865 -1.1041
    8CHTO  C108 3040   6.317   8.705   1.578  0.3499 -0.4274  0.8711
    8CHTO   O71 3041   6.401   8.653   1.473  0.0732  0.4316  0.0762
    8CHTO  H171 3042   6.458   8.585   1.505  3.1135  1.8065 -2.2092
    8CHTO   O62 3043   6.477   9.129   1.520 -0.2740  0.1781  0.3940
    8CHTO   C91 3044   6.587   9.137   1.423 -0.4552 -0.2257  0.5065
    8CHTO  H178 3045   6.640   9.043   1.434 -1.2600 -0.5576  1.6662
    8CHTO   C92 3046   6.677   9.257   1.457  0.0323 -0.0234  0.0621
    8CHTO  H179 3047   6.701   9.269   1.564  0.2772 -2.9517  0.3630
    8CHTO   O66 3048   6.805   9.246   1.402  0.0214 -0.8298  0.7623
    8CHTO  H166 3049   6.810   9.272   1.312 -2.2319 -0.9239  0.5710
    8CHTO   C93 3050   6.618   9.393   1.403  0.0951 -0.1078 -0.2841
    8CHTO  H180 3051   6.698   9.468   1.413 -0.5919  0.3697  1.9666
    8CHTO   N16 3052   6.509   9.439   1.497 -0.0614  0.0648  0.4029
    8CHTO  H172 3053   6.443   9.506   1.445 -0.2373 -0.3969  0.0360
    8CHTO  H173 3054   6.451   9.359   1.538  0.0386 -1.4979 -2.4089
    8CHTO   C94 3055   6.575   9.386   1.249  0.0453 -0.2336 -0.1879
    8CHTO  H181 3056   6.474   9.424   1.231  0.1154 -0.1529 -0.4161
    8CHTO   O61 3057   6.603   9.258   1.190 -0.0812 -0.4298 -0.1035
    8CHTO   C95 3058   6.551   9.144   1.260 -0.1219 -0.2043 -0.2466
    8CHTO  H182 3059   6.442   9.149   1.259 -0.2493 -0.4380  3.6276
    8CHTO  C106 3060   6.596   9.019   1.178  0.5117 -0.3756  0.4639
    8CHTO   O69 3061   6.541   8.897   1.227 -0.4782  0.1185 -0.1710
    8CHTO  H169 3062   6.593   8.870   1.300 -1.6442 -0.5255  0.4473
    8CHTO   O63 3063   6.670   9.485   1.179  0.1525  0.2158  0.0962
    8CHTO   C96 3064   6.608   9.553   1.066  0.2066  0.1376  0.5367
    8CHTO  H183 3065   6.510   9.510   1.046  0.4966 -0.1567 -0.2260
    8CHTO   C98 3066   6.689   9.529   0.936 -0.0199  0.9707 -0.0945
    8CHTO  H185 3067   6.790   9.573   0.940  0.1075  0.6092  0.6790
    8CHTO   O67 3068   6.703   9.381   0.925  1.0564  0.3340  0.4742
    8CHTO  H167 3069   6.791   9.365   0.897  1.0988  4.4344 -2.2240
    8CHTO  C102 3070   6.611   9.586   0.810 -0.0748 -0.2377 -0.6886
    8CHTO  H189 3071   6.535   9.511   0.785 -0.8721 -0.1811  1.4610
    8CHTO   N18 3072   6.701   9.592   0.692  0.3814 -0.1559 -0.8247
    8CHTO  H176 3073   6.658   9.649   0.611  0.6456  0.1070 -0.7819
    8CHTO  H177 3074   6.722   9.496   0.646 -0.9469 -1.1309  0.5722
    8CHTO  C105 3075   6.523   9.712   0.844  0.0403 -0.8203 -0.5171
    8CHTO  H192 3076   6.527   9.781   0.759 -1.3517 -0.4947 -0.3243
    8CHTO   O65 3077   6.582   9.783   0.958  0.0483  0.5404 -0.2645
    8CHTO  C100 3078   6.588   9.712   1.085  0.0894 -0.0073 -0.7955
    8CHTO  H187 3079   6.675   9.749   1.141 -0.8625 -1.8340  1.9868
    8CHTO  C107 3080   6.456   9.750   1.161 -0.1294 -0.1947 -0.1028
    8CHTO   O70 3081   6.449   9.884   1.208 -0.3352 -0.2107 -0.5987
    8CHTO  H170 3082   6.394   9.894   1.283 -1.0553  2.1483 -1.3913
    8CHTO   O57 3083   6.370   9.661   0.858 -0.3196 -0.0176 -0.1979
    8CHTO   C85 3084   6.272   9.733   0.784  0.2808  0.9553 -0.0559
    8CHTO  H157 3085   6.317   9.795   0.703 -0.0762  3.1188  1.3637
    8CHTO   C83 3086   6.198   9.831   0.889  0.4914 -0.2836 -0.1533
    8CHTO  H155 3087   6.270   9.909   0.914 -0.3692  0.2088  0.7890
    8CHTO   O56 3088   6.169   9.762   1.011  0.7683  0.2189  0.2991
    8CHTO  H135 3089   6.154   9.828   1.076 -0.7363 -0.3963  0.6029
    8CHTO   C81 3090   6.070   9.893   0.822  0.2298 -0.0888 -0.2102
    8CHTO  H153 3091   6.098   9.945   0.730  0.7584 -1.3144 -0.7571
    8CHTO   N14 3092   6.015   9.995   0.910 -0.2640 -0.1149  0.1211
    8CHTO  H141 3093   5.981   9.963   1.007  0.6322  0.6040  0.6832
    8CHTO  H142 3094   5.932  10.027   0.851  0.2292 -0.6694 -0.8808
    8CHTO   C79 3095   5.972   9.781   0.783 -0.1926 -0.2921 -0.0298
    8CHTO  H151 3096   5.890   9.829   0.729  0.4782  0.2857 -0.5350
    8CHTO   O52 3097   6.035   9.685   0.688 -0.1044  0.0156  0.6835
    8CHTO   C86 3098   6.165   9.627   0.729 -0.3698 -0.0149  0.4652
    8CHTO  H158 3099   6.141   9.562   0.816  1.5924 -0.0141  1.0209
    8CHTO   C90 3100   6.220   9.538   0.612 -0.0295  0.3306 -0.3139
    8CHTO   O60 3101   6.253   9.626   0.509  0.4974 -0.4940 -0.3628
    8CHTO  H138 3102   6.297   9.584   0.437  1.7902  0.1364  0.0412
    8CHTO   O50 3103   5.920   9.700   0.888 -0.0284  0.1068 -0.2322
    8CHTO   C73 3104   5.805   9.617   0.875 -0.3480 -0.2910  0.1769
    8CHTO  H145 3105   5.795   9.583   0.771 -4.7869  1.1113  0.0413
    8CHTO   C74 3106   5.669   9.693   0.907  0.1983 -0.0933 -0.2339
    8CHTO  H146 3107   5.642   9.770   0.832 -2.8189 -0.4809  0.3950
    8CHTO   O54 3108   5.552   9.614   0.893  0.0644  0.0463 -0.0166
    8CHTO  H133 3109   5.480   9.673   0.878  0.7640  0.9402  0.0955
    8CHTO   C75 3110   5.687   9.756   1.055  0.6212  0.0655  0.1221
    8CHTO  H147 3111   5.774   9.823   1.053  1.1695 -0.5878  1.4752
    8CHTO   N13 3112   5.574   9.842   1.099  0.1091 -0.0098 -0.4532
    8CHTO  H139 3113   5.534   9.814   1.195  0.0228  2.5128  0.2939
    8CHTO  H140 3114   5.598   9.948   1.100  1.7197 -0.3591  1.0161
    8CHTO   C76 3115   5.727   9.638   1.158  0.7291  0.3925 -0.3153
    8CHTO  H148 3116   5.638   9.575   1.164  1.1669 -0.0498  1.8939
    8CHTO   O49 3117   5.830   9.554   1.099  0.4695 -0.3604 -0.0399
    8CHTO   C77 3118   5.816   9.499   0.967 -0.5422  0.0718 -0.3802
    8CHTO  H149 3119   5.725   9.441   0.949  0.7041 -1.2474 -2.5134
    8CHTO   C88 3120   5.930   9.408   0.923 -0.2960  0.0699  0.3332
    8CHTO   O58 3121   5.917   9.329   0.790  0.3603 -0.1911 -0.7873
    8CHTO  H136 3122   5.997   9.335   0.741  1.3522  2.1648  1.0255
    8CHTO   O51 3123   5.788   9.673   1.301  0.0401 -0.2281  0.0145
    8CHTO   C78 3124   5.787   9.555   1.412 -0.4349 -0.2897  0.1958
    8CHTO  H150 3125   5.775   9.453   1.371 -0.0861 -0.2992  0.1166
    8CHTO   C80 3126   5.688   9.579   1.527  0.1928 -0.0840  0.4804
    8CHTO  H152 3127   5.696   9.685   1.560  3.3065 -0.1854  0.1789
    8CHTO   O55 3128   5.553   9.559   1.477 -0.1921  0.3493  0.3568
    8CHTO  H134 3129   5.535   9.622   1.411 -1.9932 -0.1800  0.2982
    8CHTO   C84 3130   5.720   9.482   1.645  0.1961  0.3663 -0.0135
    8CHTO  H156 3131   5.692   9.380   1.619  0.2159  0.1422  0.8151
    8CHTO   N15 3132   5.640   9.515   1.775 -0.8412  0.3801  0.7657
    8CHTO  H143 3133   5.538   9.513   1.745 -0.0792 -1.4025 -1.9248
    8CHTO  H144 3134   5.650   9.435   1.845  0.3543  1.0191  1.3395
    8CHTO   C87 3135   5.870   9.459   1.673 -0.2223  0.1771 -0.0585
    8CHTO  H159 3136   5.915   9.544   1.724 -0.1197 -0.4329  0.8869
    8CHTO   O53 3137   5.934   9.438   1.546  1.1064  0.1429  0.4156
    8CHTO   C82 3138   5.928   9.550   1.462  0.0514  0.5422 -0.2984
    8CHTO  H154 3139   5.955   9.642   1.513  1.0710 -0.2711  0.6338
    8CHTO   C89 3140   6.025   9.529   1.344 -0.4988  0.1138 -0.0226
    8CHTO   O59 3141   6.163   9.504   1.389  0.0137 -0.5534 -0.4959
    8CHTO  H137 3142   6.223   9.515   1.318 -0.0798 -1.5999 -0.7458
    8CHTO   O45 3143   5.880   9.297   1.754  0.2594 -0.4915  0.6142
    8CHTO   C67 3144   5.961   9.293   1.874  0.4520 -0.0988  0.0753
    8CHTO  H124 3145   5.984   9.187   1.883 -0.5859 -0.2471  1.1339
    8CHTO   C65 3146   6.090   9.373   1.875  0.4914  0.8608  0.3017
    8CHTO  H122 3147   6.113   9.409   1.775 -0.0013  0.1641 -0.0563
    8CHTO   O44 3148   6.199   9.277   1.898  0.0244 -0.0073  0.4127
    8CHTO  H102 3149   6.262   9.283   1.829  0.7218  3.1783  1.2146
    8CHTO   C63 3150   6.084   9.505   1.960 -0.2645 -0.5101 -0.4814
    8CHTO  H120 3151   5.997   9.564   1.931 -0.8086 -1.1946 -0.2657
    8CHTO   N11 3152   6.205   9.596   1.942 -0.1509  0.1367 -0.3188
    8CHTO  H108 3153   6.262   9.631   2.027  1.4371  2.0261 -2.0997
    8CHTO  H109 3154   6.195   9.680   1.877 -2.7875 -0.8040 -1.1860
    8CHTO   C61 3155   6.060   9.451   2.107 -0.2572 -0.4308  0.4199
    8CHTO  H118 3156   6.029   9.533   2.173  2.0444 -1.1298  2.4619
    8CHTO   O40 3157   5.956   9.350   2.115  0.5497  0.3941  0.1206
    8CHTO   C68 3158   5.877   9.325   1.997 -0.2794  0.3890  0.1156
    8CHTO  H125 3159   5.822   9.419   1.974 -0.8130 -0.0389 -0.3552
    8CHTO   C72 3160   5.772   9.220   2.030 -0.2980 -0.4780 -0.2129
    8CHTO   O48 3161   5.830   9.096   2.059 -0.2451  0.5009 -0.7814
    8CHTO  H105 3162   5.883   9.066   1.988  1.1856  1.5542 -0.1710
    8CHTO   O38 3163   6.180   9.400   2.166  0.2109 -0.3309 -0.4190
    8CHTO   C55 3164   6.195   9.334   2.291  0.2144 -0.3746  0.2743
    8CHTO  H112 3165   6.297   9.367   2.315  1.0644  0.6936 -4.3126
    8CHTO   C56 3166   6.189   9.178   2.263  0.5754  0.5911  0.5339
    8CHTO  H113 3167   6.131   9.175   2.170  0.2768  0.8062  0.7127
    8CHTO   O42 3168   6.324   9.128   2.229  0.2503 -0.3620 -0.1704
    8CHTO  H100 3169   6.381   9.094   2.295  1.7031  2.5203  0.1380
    8CHTO   C57 3170   6.123   9.098   2.378 -0.2845 -0.7167 -0.1131
    8CHTO  H114 3171   6.196   9.105   2.458 -1.4108 -0.9375  0.9406
    8CHTO   N10 3172   6.089   8.960   2.333 -0.2280  0.1005 -0.4605
    8CHTO  H106 3173   6.164   8.891   2.368  0.3861  1.2692  0.5644
    8CHTO  H107 3174   5.999   8.930   2.384 -1.2629 -0.1060 -2.3708
    8CHTO   C58 3175   5.993   9.179   2.424 -0.0782  0.7064  0.5599
    8CHTO  H115 3176   5.938   9.209   2.332  2.1352 -2.3160 -1.8403
    8CHTO   O37 3177   6.032   9.299   2.491  0.2422 -0.2073 -0.2224
    8CHTO   C59 3178   6.095   9.396   2.405  0.0685  0.3639  0.1980
    8CHTO  H116 3179   6.017   9.454   2.356  0.1141  0.0888 -0.1923
    8CHTO   C70 3180   6.167   9.497   2.490  0.4411 -0.2135  0.1026
    8CHTO   O46 3181   6.276   9.439   2.569 -0.2751  0.4759  0.4735
    8CHTO  H103 3182   6.325   9.380   2.515 -0.1346  0.4397  0.6382
    8CHTO   O39 3183   5.900   9.093   2.529  0.2170 -0.3243  0.3171
    8CHTO   C60 3184   5.761   9.109   2.509  0.2434 -0.2693 -0.0531
    8CHTO  H117 3185   5.734   9.210   2.475  0.8646 -0.4392 -1.0570
    8CHTO   C62 3186   5.714   9.012   2.395  0.5659  0.7930 -0.0858
    8CHTO  H119 3187   5.754   9.049   2.298  0.1521 -2.0872 -1.3769
    8CHTO   O43 3188   5.749   8.874   2.414 -0.0502  0.8004  0.1160
    8CHTO  H101 3189   5.724   8.865   2.504 -2.8762  2.6385 -0.4202
    8CHTO   C66 3190   5.551   9.027   2.374  0.2524 -0.7675 -0.0756
    8CHTO  H123 3191   5.533   9.132   2.352 -0.4840 -1.1512 -1.3383
    8CHTO   N12 3192   5.501   8.942   2.263  0.1722  0.0139 -0.4874
    8CHTO  H110 3193   5.539   8.841   2.257 -0.2590 -0.3827  2.7841
    8CHTO  H111 3194   5.516   8.993   2.169  2.6437  1.0341  0.4069
    8CHTO   C69 3195   5.483   9.003   2.512  0.0024 -0.4062 -0.0367
    8CHTO  H126 3196   5.500   8.895   2.531  4.4602  0.7478  3.3485
    8CHTO   O41 3197   5.540   9.087   2.629  0.6381  0.0255 -0.2560
    8CHTO   C64 3198   5.681   9.084   2.643  0.0358 -0.3766  0.6782
    8CHTO  H121 3199   5.701   8.984   2.687 -0.7857  0.2727  2.5932
    8CHTO   C71 3200   5.721   9.186   2.747  0.5809  0.1202  0.0668
    8CHTO   O47 3201   5.679   9.320   2.714  0.0309 -0.1781 -0.3935
    8CHTO  H104 3202   5.588   9.332   2.733 -0.3509 -2.1641 -0.9097
    8CHTO   O34 3203   5.329   9.027   2.496 -0.0998 -0.1522 -0.0421
    8CHTO   C49 3204   5.230   9.165   2.517  0.1983  0.9774  0.3982
    8CHTO   H91 3205   5.205   9.182   2.621 -1.0880 -1.3236  0.4913
    8CHTO   C47 3206   5.102   9.143   2.437 -0.7491 -0.0673  0.6885
    8CHTO   H89 3207   5.035   9.232   2.434 -1.2443 -0.5064 -1.5140
    8CHTO   O33 3208   5.029   9.033   2.499 -0.0883  0.1331 -0.1051
    8CHTO   H70 3209   5.078   8.953   2.505 -0.9258 -0.2374  2.0507
    8CHTO   C45 3210   5.157   9.126   2.284  0.5516  0.1655 -0.1629
    8CHTO   H87 3211   5.232   9.046   2.277  0.4182 -0.0274  0.6461
    8CHTO    N8 3212   5.044   9.078   2.197 -0.0049 -0.4167 -0.1496
    8CHTO   H75 3213   4.960   9.145   2.185  0.3797  0.3314  1.2195
    8CHTO   H76 3214   5.084   9.045   2.103 -0.2591 -2.4117  0.4232
    8CHTO   C43 3215   5.235   9.263   2.232  0.4990 -0.3602  0.0375
    8CHTO   H85 3216   5.276   9.222   2.140 -1.8765  1.2955 -1.8190
    8CHTO   O29 3217   5.330   9.299   2.335  0.0898  0.0645  0.0601
    8CHTO   C50 3218   5.299   9.302   2.471  0.5207  0.3343  0.3995
    8CHTO   H92 3219   5.387   9.316   2.536 -0.1206  2.0487  0.9217
    8CHTO   C54 3220   5.212   9.417   2.527 -0.1555  0.0461  0.4159
    8CHTO   O36 3221   5.279   9.546   2.516  0.2535  0.9035 -0.8626
    8CHTO   H72 3222   5.263   9.584   2.432 -0.5097  1.4863 -0.4679
    8CHTO   O27 3223   5.151   9.368   2.192  0.1112  0.0042  0.1705
    8CHTO   C37 3224   5.118   9.465   2.096 -0.4921  0.1200  0.3489
    8CHTO   H79 3225   5.173   9.450   2.002 -1.7019 -1.3414 -0.1444
    8CHTO   C38 3226   4.963   9.467   2.062 -0.9890  0.8063  0.4869
    8CHTO   H80 3227   4.908   9.470   2.157  0.7473 -0.6554  1.5805
    8CHTO   O31 3228   4.926   9.340   2.004 -0.2205  0.4795 -0.5809
    8CHTO   H68 3229   4.918   9.277   2.073 -2.5282  0.9941 -0.3168
    8CHTO   C39 3230   4.911   9.583   1.973 -0.3126 -0.2203  0.4339
    8CHTO   H81 3231   4.943   9.564   1.871  0.0165 -1.8148  0.8102
    8CHTO    N7 3232   4.759   9.591   1.973  0.2133  0.4666  0.2345
    8CHTO   H73 3233   4.713   9.622   2.065 -0.9499  0.0137 -0.1906
    8CHTO   H74 3234   4.727   9.654   1.891 -2.1452 -0.5965  0.3138
    8CHTO   C40 3235   4.982   9.709   2.028 -0.3034 -0.0338  0.2257
    8CHTO   H82 3236   4.930   9.726   2.123  2.5353 -1.1056  2.0565
    8CHTO   O26 3237   5.125   9.698   2.050  0.5775  0.6722 -0.7852
    8CHTO   C41 3238   5.157   9.602   2.150 -0.3686  0.6292  0.3528
    8CHTO   H83 3239   5.105   9.632   2.243 -1.3155  1.4631 -0.4303
    8CHTO   C52 3240   5.307   9.620   2.173  0.4183  0.0614  0.0345
    8CHTO   O35 3241   5.402   9.644   2.053  0.1474  0.1863 -0.1323
    8CHTO   H71 3242   5.386   9.726   2.011 -0.9096 -1.4505 -3.0854
    8CHTO   O28 3243   4.972   9.823   1.942 -0.2421  0.2158  0.1617
    8CHTO   C42 3244   4.984   9.853   1.798 -0.2900 -0.0003  0.3993
    8CHTO   H84 3245   5.019   9.957   1.791 -0.6784  0.2327  1.7161
    8CHTO   C44 3246   4.841   9.850   1.730 -0.0981 -0.0196 -0.2836
    8CHTO   H86 3247   4.803   9.748   1.719 -1.4862  0.6297 -1.8261
    8CHTO   O32 3248   4.748   9.929   1.804 -0.2369  0.8014  0.6905
    8CHTO   H69 3249   4.667   9.915   1.760  0.7642  0.0958 -1.0062
    8CHTO   C48 3250   4.854   9.911   1.579  0.5330 -0.5747 -0.4873
    8CHTO   H90 3251   4.887  10.014   1.580  2.4611 -1.1798  0.6654
    8CHTO    N9 3252   4.724   9.918   1.504  0.4039 -0.6160  0.6186
    8CHTO   H77 3253   4.643   9.908   1.575 -0.4884 -1.5337 -0.5041
    8CHTO   H78 3254   4.719   9.836   1.435 -0.6646 -0.7691  0.8747
    8CHTO   C51 3255   4.953   9.820   1.498 -0.5681 -0.0474  0.3422
    8CHTO   H93 3256   4.912   9.719   1.494  0.1994 -0.3191 -0.6484
    8CHTO   O30 3257   5.078   9.824   1.574 -0.3596  0.0539 -0.4858
    8CHTO   C46 3258   5.080   9.771   1.710 -0.0654  0.4268 -0.9197
    8CHTO   H88 3259   5.041   9.669   1.708  1.4825 -0.1923 -0.3147
    8CHTO   C53 3260   5.230   9.766   1.755 -0.5630 -0.0235 -0.5429
    8CHTO   O72 3261   5.300   9.655   1.692 -0.0142  0.0705 -0.2895
    8CHTO  H199 3262   5.276   9.576   1.737 -2.8020 -0.0356 -1.8617
    8CHTO   O22 3263   4.990   9.852   1.359 -0.5411  0.0040  0.0427
    8CHTO   C31 3264   5.031   9.736   1.266  0.5285  0.4073  0.6856
    8CHTO   H59 3265   5.044   9.784   1.167 -2.6454  2.5600  1.1960
    8CHTO   C29 3266   5.166   9.672   1.307  0.4518 -0.3073  0.0807
    8CHTO   H57 3267   5.154   9.609   1.397  2.7264 -0.3410  0.3931
    8CHTO   O21 3268   5.254   9.774   1.350 -0.3097 -0.1973 -0.0515
    8CHTO   H37 3269   5.315   9.727   1.404  2.2256  0.8095 -1.9112
    8CHTO   C27 3270   5.215   9.579   1.183 -0.6827  0.3216  0.6372
    8CHTO   H55 3271   5.227   9.642   1.093 -1.1478 -0.4234  0.0423
    8CHTO    N5 3272   5.342   9.502   1.206  0.2968  0.3373  0.2595
    8CHTO   H43 3273   5.329   9.426   1.130 -2.9223  0.4717  0.6034
    8CHTO   H44 3274   5.331   9.465   1.306 -2.6626 -1.0906 -0.5265
    8CHTO   C25 3275   5.098   9.472   1.149  0.7428  0.0447  0.3635
    8CHTO   H53 3276   5.078   9.410   1.239  1.3668  2.4369  2.2019
    8CHTO   O17 3277   4.975   9.549   1.119  0.6654 -1.0515 -0.3782
    8CHTO   C32 3278   4.925   9.620   1.233  0.0390 -0.1456 -1.1824
    8CHTO   H60 3279   4.918   9.558   1.323 -0.0525 -0.8162 -1.6517
    8CHTO   C36 3280   4.791   9.688   1.216  0.4284  0.2218 -0.7746
    8CHTO   O25 3281   4.690   9.589   1.227 -0.8580 -0.6938 -0.0505
    8CHTO   H40 3282   4.616   9.612   1.279 -0.9140 -0.3114 -0.2995
    8CHTO   O15 3283   5.127   9.372   1.007  0.4044 -0.1595  0.2784
    8CHTO   C19 3284   5.188   9.366   0.868  0.3104 -0.9362 -0.4065
    8CHTO   H47 3285   5.140   9.280   0.819  3.0181 -1.1979 -2.7652
    8CHTO   C20 3286   5.178   9.505   0.788 -0.0131 -0.5701  0.3896
    8CHTO   H48 3287   5.218   9.590   0.845  0.8307 -0.1787 -0.7774
    8CHTO   O19 3288   5.033   9.520   0.770  0.1944 -0.7020  0.2027
    8CHTO   H35 3289   5.012   9.610   0.753  0.1886 -0.4961  1.2908
    8CHTO   C21 3290   5.236   9.488   0.634 -0.0560  0.3321 -0.1833
    8CHTO   H49 3291   5.175   9.416   0.581  1.4078 -0.8563 -0.2902
    8CHTO    N4 3292   5.235   9.620   0.566 -0.5381 -0.4078 -0.2872
    8CHTO   H41 3293   5.140   9.653   0.528  0.6796  2.6454 -0.8559
    8CHTO   H42 3294   5.277   9.692   0.635 -1.0970  0.3781 -0.7546
    8CHTO   C22 3295   5.380   9.427   0.645  0.0125 -0.3354 -0.8117
    8CHTO   H50 3296   5.442   9.492   0.707 -0.2015 -1.8228  0.9881
    8CHTO   O14 3297   5.367   9.309   0.720  0.1041  0.1634 -0.4304
    8CHTO   C23 3298   5.338   9.327   0.858  0.1783 -0.1997 -0.3498
    8CHTO   H51 3299   5.405   9.406   0.895  0.7696 -0.2679 -1.2428
    8CHTO   C34 3300   5.375   9.197   0.929 -0.1374  1.0195  0.2034
    8CHTO   O23 3301   5.511   9.153   0.915  0.3868 -0.5318  0.2032
    8CHTO   H38 3302   5.519   9.066   0.881 -1.0263  0.1311 -1.8902
    8CHTO   O16 3303   5.438   9.408   0.519 -0.0117  0.3417 -0.2467
    8CHTO   C24 3304   5.600   9.403   0.533 -0.1436 -0.3413  0.2962
    8CHTO   H52 3305   5.629   9.383   0.636 -0.9636 -0.6473  0.4758
    8CHTO   C26 3306   5.645   9.537   0.477  0.2423 -0.0224  0.0188
    8CHTO   H54 3307   5.576   9.567   0.395  0.8618 -0.4457 -0.6577
    8CHTO   O20 3308   5.619   9.645   0.575 -0.8880 -0.5390  0.1100
    8CHTO   H36 3309   5.665   9.726   0.560 -1.4441 -0.5334 -1.6994
    8CHTO   C30 3310   5.792   9.548   0.431 -0.0539 -0.4266  0.1834
    8CHTO   H58 3311   5.863   9.549   0.515  1.4757 -1.3166 -1.0799
    8CHTO    N6 3312   5.806   9.669   0.347 -0.4243 -0.4095  0.4203
    8CHTO   H45 3313   5.764   9.751   0.404 -0.6545 -1.0533  1.1768
    8CHTO   H46 3314   5.913   9.680   0.351 -0.6094  1.0408  1.6096
    8CHTO   C33 3315   5.824   9.415   0.346  0.3209  0.4236  0.7025
    8CHTO   H61 3316   5.758   9.414   0.258  1.0290 -3.2334  0.1412
    8CHTO   O18 3317   5.799   9.303   0.422  0.2645  0.1338 -0.2860
    8CHTO   C28 3318   5.659   9.285   0.454 -0.2930 -0.6287  0.5778
    8CHTO   H56 3319   5.602   9.266   0.363 -0.5171  2.3200  0.0424
    8CHTO   C35 3320   5.640   9.150   0.516  0.3074  0.1040  0.0743
    8CHTO   O24 3321   5.727   9.141   0.631  0.2685  0.4191  0.0719
    8CHTO   H39 3322   5.712   9.059   0.673 -1.4538  0.1958 -0.9353
    8CHTO    O9 3323   5.959   9.415   0.298 -0.3641  0.2943 -0.9055
    8CHTO   C13 3324   6.019   9.275   0.248 -0.1586 -0.1484  1.2099
    8CHTO   H26 3325   5.947   9.190   0.255 -0.8516  0.5451  2.9214
    8CHTO   C11 3326   6.149   9.255   0.331  0.3337 -0.3364 -0.1697
    8CHTO   H24 3327   6.110   9.240   0.433  1.4400  1.5538  0.5583
    8CHTO    O8 3328   6.237   9.367   0.331 -0.2165 -0.1896  0.4134
    8CHTO    H3 3329   6.297   9.362   0.402 -0.1772 -0.4437  0.3595
    8CHTO    C9 3330   6.215   9.120   0.293 -0.3511 -0.1902  0.3462
    8CHTO   H22 3331   6.135   9.047   0.309  1.4022 -2.0918  0.6203
    8CHTO    N2 3332   6.324   9.068   0.378 -0.1289 -0.8212 -0.0733
    8CHTO   H10 3333   6.395   9.025   0.310 -0.2030 -0.4661 -0.3822
    8CHTO   H11 3334   6.367   9.146   0.440 -0.0514 -0.7122 -0.2616
    8CHTO    C7 3335   6.255   9.129   0.139 -0.0716 -0.3168  0.5091
    8CHTO   H20 3336   6.270   9.025   0.105 -0.8235 -0.1413 -0.3760
    8CHTO    O4 3337   6.148   9.176   0.060  0.6215 -0.1598  0.5289
    8CHTO   C14 3338   6.053   9.284   0.093 -0.0564 -0.5215 -0.3834
    8CHTO   H27 3339   5.961   9.264   0.035 -1.2448  0.3132  1.1847
    8CHTO   C18 3340   6.109   9.421   0.046 -0.0373 -0.0917 -0.1016
    8CHTO   O13 3341   6.021   9.534   0.047 -0.4871  0.1021  0.8274
    8CHTO    H7 3342   5.976   9.544  -0.035  0.1514  0.1259  0.4716
    8CHTO    O2 3343   6.378   9.206   0.113 -0.1233 -0.3402  0.3907
    8CHTO    C1 3344   6.437   9.203  -0.019 -0.8093 -0.1819 -0.7327
    8CHTO   H14 3345   6.357   9.214  -0.094 -0.6546 -0.4587 -0.9359
    8CHTO    C2 3346   6.521   9.066  -0.047 -0.1482  0.6811 -0.2364
    8CHTO   H15 3347   6.590   9.037   0.034 -1.6087 -0.2811  0.6854
    8CHTO    O6 3348   6.428   8.961  -0.058  0.3588  0.3850  0.0773
    8CHTO    H1 3349   6.460   8.891  -0.005 -2.5105 -1.4182 -0.4130
    8CHTO    C3 3350   6.609   9.073  -0.179  0.9720 -0.1099  0.4432
    8CHTO   H16 3351   6.544   9.071  -0.268 -0.7279  1.9013  1.6031
    8CHTO    N1 3352   6.701   8.955  -0.185  0.5811  0.0885 -0.1787
    8CHTO    H8 3353   6.649   8.862  -0.178 -0.8430  0.8669 -0.2796
    8CHTO    H9 3354   6.755   8.956  -0.278 -0.6070 -1.0202 -0.8934
    8CHTO    C4 3355   6.692   9.206  -0.195  0.1972  0.1444 -0.7097
    8CHTO   H17 3356   6.760   9.209  -0.110 -1.9731 -1.1477  1.1381
    8CHTO    O1 3357   6.598   9.305  -0.167 -0.1285  0.0809  0.2175
    8CHTO    C5 3358   6.543   9.316  -0.035  0.2373  0.0724 -0.5509
    8CHTO   H18 3359   6.628   9.298   0.030  0.1501 -0.1433 -0.4956
    8CHTO   C16 3360   6.490   9.453  -0.002  0.5722  0.4469 -0.0493
    8CHTO   O11 3361   6.494   9.482   0.137  0.0214  0.0083  0.9321
    8CHTO    H5 3362   6.431   9.427   0.179  1.4552  1.0244  4.5393
    8CHTO    O3 3363   6.759   9.211  -0.327  0.1138  0.4281  0.1736
    8CHTO    C6 3364   6.780   9.343  -0.390 -0.6501  0.1602 -0.2722
    8CHTO   H19 3365   6.693   9.406  -0.367 -0.8304 -0.3639  0.5157
    8CHTO    C8 3366   6.920   9.404  -0.343 -0.3639 -0.0204 -0.1111
    8CHTO   H21 3367   7.000   9.331  -0.357  1.0055  1.0845  1.7328
    8CHTO    O7 3368   6.911   9.439  -0.204 -0.0936  0.1813 -0.2405
    8CHTO    H2 3369   6.856   9.514  -0.195 -0.0518  0.1965 -0.1122
    8CHTO   C12 3370   6.961   9.529  -0.430 -0.0094  0.1759  0.2421
    8CHTO   H25 3371   6.905   9.614  -0.386  0.5108  0.3595  0.5491
    8CHTO    N3 3372   7.106   9.565  -0.412 -0.0092  0.2442  0.4085
    8CHTO   H12 3373   7.134   9.650  -0.472  0.5381  0.6632  1.2591
    8CHTO   H13 3374   7.169   9.479  -0.424 -1.6067 -1.2233  2.1935
    8CHTO   C15 3375   6.917   9.507  -0.582 -0.0733  0.1672 -0.3125
    8CHTO   H28 3376   6.981   9.440  -0.639 -1.2182 -0.2917 -1.0652
    8CHTO   O10 3377   6.901   9.652  -0.653  0.0448  0.5811 -0.1723
    8CHTO    H4 3378   6.852   9.635  -0.731 -0.3188  1.3397 -0.1154
    8CHTO    O5 3379   6.783   9.452  -0.598 -0.4509 -0.1668  0.0807
    8CHTO   C10 3380   6.777   9.322  -0.545 -0.0647  0.1379 -0.3879
    8CHTO   H23 3381   6.856   9.254  -0.577  0.2027 -0.0160  0.5880
    8CHTO   C17 3382   6.649   9.249  -0.595 -0.1522 -0.0192 -0.5149
    8CHTO   O12 3383   6.648   9.216  -0.737 -0.5409  0.2014 -0.0584
    8CHTO    H6 3384   6.558   9.213  -0.764  0.3248  0.4559 -3.1489
    9CHTO  H203 3385   6.522   3.412   1.487  1.5110 -1.2672 -2.2612
    9CHTO   O82 3386   6.455   3.350   1.467  0.1630 -0.5102 -0.1941
    9CHTO  C123 3387   6.461   3.314   1.330  0.4654  0.0882 -0.4184
    9CHTO  H227 3388   6.398   3.226   1.310 -0.1262  0.5488 -0.5724
    9CHTO   O77 3389   6.400   3.423   1.256  0.2319 -0.2862 -0.2494
    9CHTO  C118 3390   6.374   3.400   1.117  0.2862  0.1007  0.0538
    9CHTO  H222 3391   6.316   3.306   1.108  1.5908 -0.9394  2.0200
    9CHTO  C125 3392   6.301   3.519   1.041 -0.3966 -0.1855 -0.8892
    9CHTO   O84 3393   6.196   3.473   0.952 -0.0829  0.3268 -0.1356
    9CHTO  H205 3394   6.228   3.400   0.903  0.6488  1.2009 -0.9769
    9CHTO  C114 3395   6.508   3.380   1.046  0.0672  0.3205 -0.5399
    9CHTO  H218 3396   6.565   3.473   1.049  1.3754 -0.4763 -0.5067
    9CHTO  C116 3397   6.597   3.269   1.111 -0.2433 -0.3605 -0.2741
    9CHTO  H220 3398   6.556   3.170   1.085  2.6317 -1.7427  0.2540
    9CHTO   O79 3399   6.713   3.278   1.037 -0.2019  0.2596  0.2396
    9CHTO  H201 3400   6.750   3.192   1.045 -0.7468 -0.0915 -0.8640
    9CHTO  C120 3401   6.605   3.297   1.263 -0.3897 -0.6339  0.5655
    9CHTO  H224 3402   6.655   3.395   1.269  0.6274 -1.0530 -0.6278
    9CHTO   N21 3403   6.692   3.198   1.326  0.5107 -0.1574 -0.3351
    9CHTO  H211 3404   6.659   3.179   1.426  2.0669  1.8210  0.6017
    9CHTO  H212 3405   6.683   3.106   1.270 -0.9964 -0.9348  1.1866
    9CHTO   O75 3406   6.463   3.334   0.917  0.2398  0.0495  0.1395
    9CHTO  C112 3407   6.536   3.395   0.794  0.4502 -0.1652  0.0097
    9CHTO  H216 3408   6.645   3.381   0.793  0.4274 -0.3476  0.0189
    9CHTO   O73 3409   6.499   3.538   0.788  0.5661 -0.0812  0.2523
    9CHTO  C113 3410   6.550   3.618   0.686  0.3027  0.0634  0.2112
    9CHTO  H217 3411   6.660   3.624   0.704  0.1644  2.1160  0.4657
    9CHTO  C124 3412   6.498   3.759   0.714 -0.0103 -0.2621  0.0278
    9CHTO   O83 3413   6.516   3.850   0.610  0.7121 -0.1542  0.2111
    9CHTO  H204 3414   6.601   3.888   0.617  1.2850 -1.2931 -0.4207
    9CHTO  C109 3415   6.511   3.558   0.547 -0.3517 -0.8134  0.5198
    9CHTO  H213 3416   6.405   3.583   0.532  0.0437  1.8087  1.7764
    9CHTO  C110 3417   6.530   3.401   0.539  0.3022  0.3339  0.0885
    9CHTO  H214 3418   6.633   3.373   0.518  0.2471  1.3517 -1.6647
    9CHTO   O78 3419   6.455   3.353   0.427  0.2444 -0.4755  0.4018
    9CHTO  H200 3420   6.519   3.303   0.379  1.9021  0.6937  1.3470
    9CHTO  C111 3421   6.478   3.324   0.663 -0.0944  0.2981 -0.0748
    9CHTO  H215 3422   6.369   3.333   0.671 -0.1831 -0.7044 -0.1033
    9CHTO   N19 3423   6.514   3.176   0.665  0.5377  0.2911 -1.0566
    9CHTO  H207 3424   6.460   3.120   0.740  0.9408 -0.3605 -1.2469
    9CHTO  H208 3425   6.505   3.135   0.565 -2.5347  1.0042 -1.1074
    9CHTO   O74 3426   6.587   3.616   0.441 -0.4145 -0.1967 -0.6377
    9CHTO  C115 3427   6.758   3.600   0.468 -0.5994  0.1445 -0.1926
    9CHTO  H219 3428   6.788   3.564   0.566  0.5816  0.1720 -0.5325
    9CHTO   O76 3429   6.822   3.507   0.370 -0.8205 -0.2473  0.0095
    9CHTO  C122 3430   6.805   3.534   0.229 -0.0424 -0.0017 -0.0625
    9CHTO  H226 3431   6.697   3.537   0.210 -0.2565 -1.0540  0.9402
    9CHTO  C126 3432   6.861   3.412   0.159  0.3568  0.5768 -0.2593
    9CHTO   O85 3433   6.815   3.378   0.030  0.0665  0.8483  0.2420
    9CHTO  H206 3434   6.844   3.443  -0.030 -0.8377  1.0179 -0.0172
    9CHTO  C121 3435   6.863   3.674   0.199 -0.3330  0.8090  0.3228
    9CHTO  H225 3436   6.972   3.673   0.219 -0.4217  0.3979  0.7880
    9CHTO   O81 3437   6.841   3.704   0.066  0.0756  0.3089 -0.1355
    9CHTO  H202 3438   6.748   3.707   0.056 -0.1521 -4.2234 -0.4162
    9CHTO  C119 3439   6.804   3.782   0.297  0.2856 -0.1231 -0.0279
    9CHTO  H223 3440   6.862   3.871   0.272 -1.4823  0.8204 -0.8780
    9CHTO  C117 3441   6.816   3.747   0.453  0.0320  0.0240  0.2057
    9CHTO  H221 3442   6.757   3.815   0.514 -0.9991  0.0570 -0.8154
    9CHTO   N20 3443   6.955   3.756   0.507  0.0419 -0.0910 -0.2580
    9CHTO  H209 3444   6.977   3.673   0.573 -0.4117 -0.2718 -0.3319
    9CHTO  H210 3445   6.968   3.856   0.545 -0.9254  0.0806 -0.3536
    9CHTO   O80 3446   6.664   3.822   0.255 -0.3113  0.2296 -0.3148
    9CHTO  C103 3447   6.618   3.982   0.261  0.0156  0.2886  0.4507
    9CHTO  H190 3448   6.633   4.030   0.358 -0.5642  2.5658 -0.5457
    9CHTO  C101 3449   6.695   4.071   0.159  0.1474  0.0171 -0.1582
    9CHTO  H188 3450   6.686   4.027   0.060 -0.3629  2.4836 -1.2655
    9CHTO   O68 3451   6.840   4.086   0.216  0.1892  0.5780  0.1241
    9CHTO  H168 3452   6.896   4.019   0.181 -0.9195 -0.8269  1.0080
    9CHTO   C99 3453   6.629   4.214   0.148  0.1053  0.0471 -0.0154
    9CHTO  H186 3454   6.642   4.267   0.244 -1.7433 -1.1749  0.9327
    9CHTO   N17 3455   6.690   4.306   0.049 -0.8269 -0.3848  0.3792
    9CHTO  H174 3456   6.788   4.339   0.077 -0.5505 -1.2289  0.4195
    9CHTO  H175 3457   6.663   4.291  -0.054  0.1531  0.6949 -0.0375
    9CHTO   C97 3458   6.477   4.206   0.133  0.2748  0.7404 -0.4510
    9CHTO  H184 3459   6.453   4.167   0.033 -1.0760 -1.5772  0.7254
    9CHTO   O64 3460   6.411   4.122   0.233 -0.0180  0.0740 -0.0954
    9CHTO  C104 3461   6.459   3.986   0.238  0.3263  0.1446 -0.4935
    9CHTO  H191 3462   6.438   3.935   0.144 -3.1874 -0.6878  0.6540
    9CHTO  C108 3463   6.389   3.910   0.349 -0.6366  0.4964  0.3553
    9CHTO   O71 3464   6.244   3.929   0.336 -0.0262 -0.3753 -0.8760
    9CHTO  H171 3465   6.196   3.850   0.350 -0.0969 -0.0185  0.9104
    9CHTO   O62 3466   6.415   4.332   0.163  0.0001  0.9030  0.2251
    9CHTO   C91 3467   6.320   4.394   0.070 -0.0610  0.2198 -0.3795
    9CHTO  H178 3468   6.299   4.318  -0.005 -1.7768 -0.6243  0.9281
    9CHTO   C92 3469   6.376   4.509  -0.024 -0.1887 -0.4606  0.0188
    9CHTO  H179 3470   6.469   4.478  -0.074  0.1600 -0.2777  0.5465
    9CHTO   O66 3471   6.281   4.546  -0.127 -0.2428  0.3945  0.0558
    9CHTO  H166 3472   6.252   4.475  -0.182  0.4398  0.4977 -0.4457
    9CHTO   C93 3473   6.408   4.639   0.061  0.0834  0.2277  0.8869
    9CHTO  H180 3474   6.398   4.727  -0.004 -1.7939 -0.9547 -0.5168
    9CHTO   N16 3475   6.543   4.644   0.118 -0.5205 -0.7349  0.4384
    9CHTO  H172 3476   6.619   4.624   0.044 -0.6986 -0.8786  0.2934
    9CHTO  H173 3477   6.549   4.585   0.208  0.0730 -0.9136  0.2835
    9CHTO   C94 3478   6.300   4.650   0.182  0.3156  0.5100  0.4526
    9CHTO  H181 3479   6.339   4.610   0.276 -0.7175  0.1529  0.7374
    9CHTO   O61 3480   6.173   4.586   0.157 -0.1519 -0.3851  0.3703
    9CHTO   C95 3481   6.178   4.444   0.132 -0.0967 -0.6404 -0.5022
    9CHTO  H182 3482   6.177   4.392   0.228 -2.7555  3.0463  1.6027
    9CHTO  C106 3483   6.045   4.396   0.046 -0.5245 -0.0525  0.1770
    9CHTO   O69 3484   6.018   4.256   0.063  0.4802 -0.0208 -0.0186
    9CHTO  H169 3485   6.056   4.219   0.141  0.3969  0.0468  0.0528
    9CHTO   O63 3486   6.279   4.807   0.201  0.1047  0.9017  0.1185
    9CHTO   C96 3487   6.185   4.841   0.322  0.0095 -0.2224 -0.1799
    9CHTO  H183 3488   6.165   4.754   0.386  0.1092  0.7332  1.1833
    9CHTO   C98 3489   6.042   4.902   0.285  0.1563  0.3425 -0.1130
    9CHTO  H185 3490   6.063   5.000   0.241 -0.3156  0.6433  0.3182
    9CHTO   O67 3491   5.984   4.826   0.177 -0.2605  0.6694 -0.3862
    9CHTO  H167 3492   6.045   4.830   0.106 -1.4793  1.3130 -1.4128
    9CHTO  C102 3493   5.956   4.922   0.421  0.7180 -0.6822  0.3480
    9CHTO  H189 3494   5.947   4.823   0.469  1.4584 -1.5925 -1.3340
    9CHTO   N18 3495   5.817   4.963   0.396 -0.3756 -0.1188  0.6679
    9CHTO  H176 3496   5.775   4.894   0.324  2.0123  0.5771 -1.4626
    9CHTO  H177 3497   5.760   4.990   0.483 -1.9861  0.0507 -0.4152
    9CHTO  C105 3498   6.040   5.020   0.512 -0.3950  0.2970  0.2892
    9CHTO  H192 3499   6.031   5.119   0.469 -1.0024  1.2137  2.4579
    9CHTO   O65 3500   6.179   4.985   0.525  0.0494 -0.0533  0.9345
    9CHTO  C100 3501   6.255   4.949   0.410 -0.2802  0.1919  0.0456
    9CHTO  H187 3502   6.265   5.048   0.365 -1.8079 -0.1087 -0.9810
    9CHTO  C107 3503   6.394   4.890   0.464  0.6051 -0.1175 -0.0358
    9CHTO   O70 3504   6.470   4.995   0.522  0.1402 -0.5384  0.5120
    9CHTO  H170 3505   6.519   4.961   0.595  0.0578 -2.3459 -0.2565
    9CHTO   O57 3506   5.974   5.034   0.653 -0.5222  0.0511  0.1728
    9CHTO   C85 3507   5.976   5.164   0.721  0.1307 -0.4007  1.2406
    9CHTO  H157 3508   5.924   5.241   0.660 -1.3825 -1.2946  1.3694
    9CHTO   C83 3509   6.125   5.219   0.743 -0.7244  0.6580  0.2901
    9CHTO  H155 3510   6.168   5.239   0.645 -1.2114  0.1534 -0.0290
    9CHTO   O56 3511   6.201   5.111   0.802  0.2997 -0.3546 -0.2676
    9CHTO  H135 3512   6.233   5.048   0.741  0.8084  0.7433 -1.1329
    9CHTO   C81 3513   6.122   5.355   0.828 -0.3739  0.0173  0.2072
    9CHTO  H153 3514   6.057   5.426   0.779 -1.2126  0.6826  2.2098
    9CHTO   N14 3515   6.252   5.426   0.845 -0.4565 -0.1578  0.2453
    9CHTO  H141 3516   6.341   5.372   0.869 -0.2397  0.8313  1.7819
    9CHTO  H142 3517   6.251   5.510   0.911 -0.7713 -0.5744  0.7741
    9CHTO   C79 3518   6.056   5.323   0.969  0.0285  0.3899  0.2395
    9CHTO  H151 3519   6.044   5.417   1.024  1.6347  0.6203  0.2173
    9CHTO   O52 3520   5.917   5.264   0.952 -0.2858  0.1185  1.0313
    9CHTO   C86 3521   5.909   5.147   0.865 -0.8661  0.0394 -0.3096
    9CHTO  H158 3522   5.952   5.069   0.931  0.9210  1.2863  0.0465
    9CHTO   C90 3523   5.762   5.111   0.857  0.2143 -0.1666  0.3848
    9CHTO   O60 3524   5.695   5.112   0.984  0.1282 -0.1423  0.6911
    9CHTO  H138 3525   5.666   5.197   1.011 -2.0719 -0.3083 -1.0653
    9CHTO   O50 3526   6.132   5.244   1.060  0.2391 -0.1917 -0.6623
    9CHTO   C73 3527   6.102   5.193   1.187  0.0115 -0.2053  0.4674
    9CHTO  H145 3528   6.009   5.134   1.184 -0.2543  0.2895 -1.4074
    9CHTO   C74 3529   6.088   5.301   1.298  0.4048  0.8792  0.3066
    9CHTO  H146 3530   6.006   5.366   1.262  0.6826  1.1462  0.1571
    9CHTO   O54 3531   6.042   5.251   1.426  0.2919  0.3562  0.0461
    9CHTO  H133 3532   5.952   5.224   1.424 -0.1611  1.8112  0.5178
    9CHTO   C75 3533   6.225   5.378   1.306 -0.9322 -0.0311 -0.8352
    9CHTO  H147 3534   6.253   5.414   1.206  0.1771  1.6679  0.0702
    9CHTO   N13 3535   6.227   5.495   1.399 -0.1360  0.4269 -0.4240
    9CHTO  H139 3536   6.148   5.565   1.381 -0.7705  0.7606  3.1544
    9CHTO  H140 3537   6.208   5.451   1.497  0.8192 -0.0535 -0.4436
    9CHTO   C76 3538   6.345   5.275   1.334  0.0493  0.0908 -0.2068
    9CHTO  H148 3539   6.318   5.232   1.431  0.2663 -0.1698 -0.2617
    9CHTO   O49 3540   6.347   5.173   1.228 -0.6205 -0.0338 -0.2443
    9CHTO   C77 3541   6.223   5.098   1.221 -0.5836  0.3748  0.1687
    9CHTO  H149 3542   6.209   5.050   1.318 -0.4679  0.0799  0.0395
    9CHTO   C88 3543   6.237   4.981   1.121  0.1776 -0.2662 -0.0592
    9CHTO   O58 3544   6.359   4.896   1.156  0.3417  0.2194  0.2616
    9CHTO  H136 3545   6.368   4.836   1.085 -2.0556  0.1963 -0.0511
    9CHTO   O51 3546   6.489   5.350   1.326 -0.3694  0.0371 -0.4635
    9CHTO   C78 3547   6.601   5.263   1.354  0.0857  0.2867 -0.4790
    9CHTO  H150 3548   6.573   5.156   1.352  1.0041 -0.0132  1.4602
    9CHTO   C80 3549   6.647   5.288   1.502  0.3987  0.1187 -0.1246
    9CHTO  H152 3550   6.655   5.397   1.519  0.8002  0.0647  0.0393
    9CHTO   O55 3551   6.545   5.240   1.590 -0.0150  0.2769 -0.0218
    9CHTO  H134 3552   6.465   5.285   1.573 -0.2057 -0.6546 -1.6447
    9CHTO   C84 3553   6.791   5.232   1.540 -0.1948 -0.5352 -0.3301
    9CHTO  H156 3554   6.792   5.124   1.527 -1.6336 -0.5828 -0.1134
    9CHTO   N15 3555   6.837   5.283   1.676 -0.1936 -0.5686 -0.3341
    9CHTO  H143 3556   6.845   5.390   1.676 -1.2454 -0.3689  4.6753
    9CHTO  H144 3557   6.771   5.259   1.757  0.6154 -0.3640  0.3847
    9CHTO   C87 3558   6.879   5.277   1.423 -0.0009 -0.2964 -0.2171
    9CHTO  H159 3559   6.877   5.385   1.415 -0.8095 -0.3561 -0.9176
    9CHTO   O53 3560   6.831   5.217   1.305  0.3456  0.6216 -0.1899
    9CHTO   C82 3561   6.711   5.279   1.248  0.2966  0.1997 -0.2617
    9CHTO  H154 3562   6.731   5.383   1.223 -1.0743  0.2465 -1.1975
    9CHTO   C89 3563   6.677   5.208   1.119  0.4090 -0.0218 -0.0384
    9CHTO   O59 3564   6.601   5.279   1.019 -0.0094 -0.1484  0.0015
    9CHTO  H137 3565   6.621   5.237   0.937  0.6336 -0.5165  0.3395
    9CHTO   O45 3566   7.057   5.226   1.440 -0.2719 -0.6173 -0.1426
    9CHTO   C67 3567   7.081   5.086   1.440 -0.6099 -0.2100 -0.0778
    9CHTO  H124 3568   6.996   5.024   1.466  0.0250 -0.9843  0.1807
    9CHTO   C65 3569   7.133   5.034   1.297  0.3100 -0.0348 -0.5577
    9CHTO  H122 3570   7.168   5.124   1.246  1.6494 -0.1162  0.2115
    9CHTO   O44 3571   7.026   4.961   1.231  0.1247  0.2996 -0.7252
    9CHTO  H102 3572   6.946   5.009   1.239  0.2507  0.9184 -2.8483
    9CHTO   C63 3573   7.272   4.954   1.298 -0.5091 -0.6603 -0.4170
    9CHTO  H120 3574   7.353   5.020   1.328 -0.5191 -1.1880  0.8054
    9CHTO   N11 3575   7.329   4.913   1.167  0.2405 -0.0090  0.2635
    9CHTO  H108 3576   7.418   4.856   1.179  0.4434 -0.4179 -2.7080
    9CHTO  H109 3577   7.257   4.852   1.116 -1.8513  1.7268  1.0511
    9CHTO   C61 3578   7.273   4.846   1.417 -0.0657 -0.0782  0.3578
    9CHTO  H118 3579   7.377   4.814   1.435  0.7974  0.7964 -2.6861
    9CHTO   O40 3580   7.225   4.904   1.542  0.6010  0.2303 -0.8221
    9CHTO   C68 3581   7.198   5.052   1.545  0.0424 -0.1105 -0.1762
    9CHTO  H125 3582   7.289   5.110   1.518  0.3175 -0.7890 -0.7221
    9CHTO   C72 3583   7.162   5.081   1.690  0.2350 -0.2068  0.1991
    9CHTO   O48 3584   7.050   5.005   1.734  0.6457 -0.0634 -0.1564
    9CHTO  H105 3585   6.966   5.045   1.720  1.2303  0.6344 -1.7918
    9CHTO   O38 3586   7.194   4.732   1.371 -0.3279 -0.0396  0.0920
    9CHTO   C55 3587   7.201   4.618   1.461  1.0314  0.3253  0.2120
    9CHTO  H112 3588   7.213   4.637   1.568  3.3907 -0.3168  0.1088
    9CHTO   C56 3589   7.317   4.519   1.408  0.4815 -0.1834  0.6520
    9CHTO  H113 3590   7.306   4.511   1.299 -1.0507  0.0788  0.7786
    9CHTO   O42 3591   7.449   4.576   1.437  0.0656 -0.1118  0.5974
    9CHTO  H100 3592   7.460   4.652   1.384 -1.5550  1.3816  2.3402
    9CHTO   C57 3593   7.309   4.378   1.477 -0.4394 -0.5811  0.8251
    9CHTO  H114 3594   7.331   4.390   1.583 -0.8417  0.4257  0.8077
    9CHTO   N10 3595   7.407   4.281   1.428 -0.3409 -0.3860  0.9546
    9CHTO  H106 3596   7.370   4.180   1.435  1.4860 -1.0951  0.7709
    9CHTO  H107 3597   7.428   4.298   1.323 -1.6233 -0.2839  0.7067
    9CHTO   C58 3598   7.160   4.326   1.462  0.2824  0.2836 -0.0977
    9CHTO  H115 3599   7.138   4.313   1.354 -0.5005  1.7918 -0.1419
    9CHTO   O37 3600   7.070   4.421   1.522 -0.3286  0.4595  0.3858
    9CHTO   C59 3601   7.061   4.550   1.447  0.0191 -0.3350 -0.3090
    9CHTO  H116 3602   7.038   4.522   1.344  0.3932  0.6714 -0.6717
    9CHTO   C70 3603   6.946   4.639   1.499 -0.1736  0.2358 -0.3494
    9CHTO   O46 3604   6.930   4.760   1.422 -0.9366  0.2159 -0.1819
    9CHTO  H103 3605   7.001   4.810   1.458  0.0812 -1.4224  0.1842
    9CHTO   O39 3606   7.141   4.180   1.543 -0.6042  0.5664 -0.2992
    9CHTO   C60 3607   7.172   4.060   1.467 -0.1039  0.7347  0.0362
    9CHTO  H117 3608   7.233   4.087   1.381 -1.1391  1.2478 -0.5392
    9CHTO   C62 3609   7.252   3.952   1.547 -0.0237 -0.2834  0.2703
    9CHTO  H119 3610   7.348   3.995   1.580  0.0154 -1.3286  1.5923
    9CHTO   O43 3611   7.177   3.920   1.660 -0.0147  0.4236 -0.1030
    9CHTO  H101 3612   7.177   3.992   1.720  0.4046  1.6444 -1.5354
    9CHTO   C66 3613   7.287   3.818   1.452 -0.4825  0.3340 -0.4284
    9CHTO  H123 3614   7.336   3.858   1.362 -1.3556  0.7428 -0.7319
    9CHTO   N12 3615   7.376   3.729   1.520 -0.5253  0.3154  0.0050
    9CHTO  H110 3616   7.350   3.718   1.624 -1.1144  0.2422 -0.1519
    9CHTO  H111 3617   7.479   3.764   1.518 -0.2610 -0.2655  2.1469
    9CHTO   C69 3618   7.150   3.757   1.407 -0.3092  0.2542  0.2982
    9CHTO  H126 3619   7.079   3.715   1.482 -0.0306 -0.1999  0.3129
    9CHTO   O41 3620   7.077   3.873   1.324  0.2707  0.0256  0.4193
    9CHTO   C64 3621   7.043   3.999   1.406  0.2052  0.2723 -0.2242
    9CHTO  H121 3622   6.978   3.966   1.490 -2.3046  1.1329 -1.7921
    9CHTO   C71 3623   6.968   4.101   1.304  0.3059 -0.2232  0.6481
    9CHTO   O47 3624   6.828   4.070   1.302 -0.2361  0.0497  0.3264
    9CHTO  H104 3625   6.809   4.016   1.227  1.1886  0.0597 -0.0634
    9CHTO   O34 3626   7.182   3.633   1.313 -0.1610 -0.4620  0.0526
    9CHTO   C49 3627   7.148   3.525   1.211 -0.0155 -0.5356 -0.1433
    9CHTO   H91 3628   7.247   3.488   1.185 -0.3973 -1.2198 -0.6379
    9CHTO   C47 3629   7.078   3.590   1.086 -0.4479 -0.5173  0.3212
    9CHTO   H89 3630   7.073   3.516   1.004  1.0232 -0.4436  0.1497
    9CHTO   O33 3631   7.169   3.695   1.041 -0.3711  0.1543  0.1136
    9CHTO   H70 3632   7.175   3.686   0.948 -2.4631 -2.1691  0.1577
    9CHTO   C45 3633   6.932   3.650   1.113 -0.5141  0.3145  0.2040
    9CHTO   H87 3634   6.947   3.758   1.131  0.8912 -0.1884  2.3026
    9CHTO    N8 3635   6.842   3.634   0.993  0.1238 -0.0609  0.5464
    9CHTO   H75 3636   6.763   3.565   1.014  1.3888 -1.2810  1.4123
    9CHTO   H76 3637   6.901   3.617   0.904  0.4745 -0.1031  0.7826
    9CHTO   C43 3638   6.884   3.605   1.258  0.1891 -0.4766  0.3719
    9CHTO   H85 3639   6.942   3.668   1.326 -1.1908  1.8227 -0.5372
    9CHTO   O29 3640   6.909   3.464   1.272  0.2270 -0.2000 -0.1940
    9CHTO   C50 3641   7.045   3.423   1.270  0.7048 -0.0852  0.3620
    9CHTO   H92 3642   7.079   3.382   1.366 -3.2120 -0.6082  1.6277
    9CHTO   C54 3643   7.039   3.293   1.187  0.1689  0.1707  0.0768
    9CHTO   O36 3644   7.140   3.200   1.222 -0.5391 -0.1878 -0.3492
    9CHTO   H72 3645   7.110   3.155   1.299  0.3355 -0.0609  0.0779
    9CHTO   O27 3646   6.748   3.634   1.292  0.6757  0.1137  0.1490
    9CHTO   C37 3647   6.672   3.676   1.403 -1.3558 -0.2971  0.3257
    9CHTO   H79 3648   6.592   3.601   1.418 -0.1772 -1.3965  1.2605
    9CHTO   C38 3649   6.753   3.684   1.539  0.8002  0.4271  0.5453
    9CHTO   H80 3650   6.856   3.717   1.518  0.3036  2.9213  1.7075
    9CHTO   O31 3651   6.758   3.552   1.599 -0.1770 -0.1783  0.3986
    9CHTO   H68 3652   6.818   3.487   1.568 -0.6964 -0.4265 -0.0849
    9CHTO   C39 3653   6.696   3.793   1.640  0.3307 -0.4297 -0.7832
    9CHTO   H81 3654   6.609   3.748   1.688 -0.2354  0.4223 -1.0012
    9CHTO    N7 3655   6.795   3.812   1.751 -0.7923 -0.8527 -0.7127
    9CHTO   H73 3656   6.896   3.835   1.720 -0.3948 -0.3762  0.8549
    9CHTO   H74 3657   6.757   3.887   1.819 -0.7139 -0.8919 -0.6265
    9CHTO   C40 3658   6.642   3.922   1.576  0.1214  0.1329  0.0298
    9CHTO   H82 3659   6.712   3.993   1.533  0.1230  0.7660  1.0810
    9CHTO   O26 3660   6.546   3.877   1.475  0.3020 -0.2103  0.1808
    9CHTO   C41 3661   6.611   3.812   1.363  0.0358  0.0285 -0.5034
    9CHTO   H83 3662   6.695   3.880   1.342  0.9400 -0.9238 -0.0300
    9CHTO   C52 3663   6.504   3.810   1.256 -0.2616 -0.6294  0.4471
    9CHTO   O35 3664   6.374   3.762   1.292 -0.8038  0.7726 -0.1140
    9CHTO   H71 3665   6.341   3.712   1.220  0.6312 -0.5854  0.1454
    9CHTO   O28 3666   6.581   3.996   1.684 -0.4519 -0.5172  0.1265
    9CHTO   C42 3667   6.523   4.130   1.651 -0.3795  0.4217 -0.1135
    9CHTO   H84 3668   6.512   4.170   1.752  2.1619 -0.9808  0.7642
    9CHTO   C44 3669   6.376   4.125   1.591 -0.6644 -0.5019 -0.5210
    9CHTO   H86 3670   6.372   4.060   1.504  1.3703 -0.8439 -0.3739
    9CHTO   O32 3671   6.297   4.076   1.696 -0.1560  0.0058  0.2356
    9CHTO   H69 3672   6.206   4.084   1.676  0.2022  1.4878 -0.9328
    9CHTO   C48 3673   6.317   4.271   1.545  0.2358  0.2012  0.0053
    9CHTO   H90 3674   6.308   4.321   1.642 -0.3590  2.4680 -1.1836
    9CHTO    N9 3675   6.177   4.277   1.490 -0.8198  0.0702 -0.3970
    9CHTO   H77 3676   6.112   4.328   1.560  0.5413  1.8998 -0.4074
    9CHTO   H78 3677   6.147   4.177   1.464  0.4428 -0.4101 -0.0541
    9CHTO   C51 3678   6.428   4.338   1.459  0.0206 -0.3008 -0.4370
    9CHTO   H93 3679   6.447   4.281   1.368  1.2551 -1.5816  0.6126
    9CHTO   O30 3680   6.547   4.350   1.543 -0.2097 -0.5362 -0.3520
    9CHTO   C46 3681   6.609   4.231   1.568 -0.1452 -0.2854 -0.2223
    9CHTO   H88 3682   6.632   4.178   1.476  0.6238 -2.0769  0.9846
    9CHTO   C53 3683   6.734   4.269   1.644  0.5531 -0.1039  1.0154
    9CHTO   O72 3684   6.849   4.182   1.620 -0.0079  0.5069 -0.1767
    9CHTO  H199 3685   6.846   4.125   1.694 -1.8297 -0.6726 -1.1556
    9CHTO   O22 3686   6.394   4.474   1.432 -0.4689 -0.2194 -0.3882
    9CHTO   C31 3687   6.429   4.540   1.310 -0.6907  0.8410  0.2613
    9CHTO   H59 3688   6.405   4.648   1.324  2.3362  1.5184  0.5823
    9CHTO   C29 3689   6.582   4.535   1.277 -0.2057 -0.0670  0.1726
    9CHTO   H57 3690   6.596   4.429   1.252  2.0026  0.0308  0.9113
    9CHTO   O21 3691   6.664   4.575   1.391 -0.1491 -0.7373 -0.5137
    9CHTO   H37 3692   6.752   4.543   1.386  1.1334  2.1939  1.4914
    9CHTO   C27 3693   6.613   4.617   1.150 -0.8112 -0.3953 -0.2192
    9CHTO   H55 3694   6.603   4.724   1.172 -1.8767 -0.6410  0.4979
    9CHTO    N5 3695   6.755   4.592   1.101  0.0363  0.2804 -0.1388
    9CHTO   H43 3696   6.825   4.590   1.183 -0.1819 -1.6654  0.0277
    9CHTO   H44 3697   6.787   4.683   1.052 -1.5799  0.9191 -0.0657
    9CHTO   C25 3698   6.512   4.570   1.038 -0.2825 -0.2442 -0.4970
    9CHTO   H53 3699   6.546   4.469   1.015 -0.3528 -0.6217  0.9840
    9CHTO   O17 3700   6.374   4.573   1.082 -0.4959  0.7640  0.4623
    9CHTO   C32 3701   6.339   4.494   1.196 -0.5482  0.2723 -0.1629
    9CHTO   H60 3702   6.350   4.386   1.183  1.6089  0.4813 -0.3130
    9CHTO   C36 3703   6.195   4.510   1.225  0.1266  0.3317 -0.0489
    9CHTO   O25 3704   6.127   4.458   1.110  0.0988 -0.0251  0.2190
    9CHTO   H40 3705   6.033   4.461   1.122  0.1823 -0.8180  1.1480
    9CHTO   O15 3706   6.519   4.666   0.903  0.0197  0.1903 -0.3803
    9CHTO   C19 3707   6.457   4.644   0.770 -0.0336  0.7633 -0.1472
    9CHTO   H47 3708   6.493   4.729   0.710 -0.4207  0.9545 -0.1162
    9CHTO   C20 3709   6.486   4.508   0.699  0.6608  0.2294  0.5094
    9CHTO   H48 3710   6.470   4.423   0.767  0.9918 -0.4546 -0.2548
    9CHTO   O19 3711   6.627   4.505   0.678  0.3519  0.2497  0.5455
    9CHTO   H35 3712   6.651   4.581   0.628 -3.3787  1.9372  1.1625
    9CHTO   C21 3713   6.406   4.478   0.570  0.1130  0.6426 -0.3854
    9CHTO   H49 3714   6.430   4.555   0.497  1.6935 -0.7318 -1.3652
    9CHTO    N4 3715   6.427   4.348   0.506  0.6916  0.2366 -0.0867
    9CHTO   H41 3716   6.531   4.332   0.482  0.8350  0.5678  0.2994
    9CHTO   H42 3717   6.397   4.270   0.574 -0.9040  1.2850  0.4479
    9CHTO   C22 3718   6.257   4.489   0.604  0.2187 -0.4173 -0.2235
    9CHTO   H50 3719   6.232   4.412   0.677 -0.7183 -0.9171 -1.0449
    9CHTO   O14 3720   6.236   4.621   0.658 -0.2843  0.5113 -0.0234
    9CHTO   C23 3721   6.305   4.662   0.782  0.0249 -0.0231 -0.3879
    9CHTO   H51 3722   6.264   4.605   0.867  0.6912 -1.2758 -0.8904
    9CHTO   C34 3723   6.265   4.804   0.816  0.1531 -0.0940 -0.0973
    9CHTO   O23 3724   6.132   4.815   0.867 -0.1958 -0.6225 -0.4956
    9CHTO   H38 3725   6.106   4.766   0.942 -1.3455 -1.3948 -1.3816
    9CHTO   O16 3726   6.163   4.475   0.495 -0.1557  0.0669  0.1125
    9CHTO   C24 3727   6.031   4.377   0.532 -0.2458  0.0696  0.6681
    9CHTO   H52 3728   6.029   4.353   0.638  1.3539  0.8582  0.8804
    9CHTO   C26 3729   6.033   4.256   0.436  0.4602 -0.7057  0.0750
    9CHTO   H54 3730   6.038   4.290   0.330  0.2126  0.3237  0.3887
    9CHTO   O20 3731   6.155   4.177   0.451  0.1639  0.1075 -0.3522
    9CHTO   H36 3732   6.196   4.156   0.369  1.8944 -1.7754  0.9296
    9CHTO   C30 3733   5.904   4.176   0.446  0.2027  0.2192  0.2234
    9CHTO   H58 3734   5.914   4.119   0.540 -0.4640  1.0430  0.8021
    9CHTO    N6 3735   5.899   4.069   0.344 -0.8221  0.0059 -0.2722
    9CHTO   H45 3736   5.970   4.094   0.266 -0.4089 -0.8609 -0.1826
    9CHTO   H46 3737   5.925   3.975   0.390 -1.1052 -0.4458 -1.0342
    9CHTO   C33 3738   5.773   4.262   0.448  0.4370  0.4777  0.4897
    9CHTO   H61 3739   5.759   4.296   0.345 -0.7599  0.9821  0.8187
    9CHTO   O18 3740   5.789   4.377   0.529 -0.0836 -0.0204 -0.2759
    9CHTO   C28 3741   5.901   4.466   0.509  0.6683 -0.1427  0.5726
    9CHTO   H56 3742   5.908   4.497   0.404  2.7159 -0.8924  0.4677
    9CHTO   C35 3743   5.892   4.591   0.604  0.0276 -0.7307 -0.1159
    9CHTO   O24 3744   5.914   4.562   0.742  0.0569  0.3791  0.1281
    9CHTO   H39 3745   5.839   4.528   0.786  0.1313 -0.3211 -0.2713
    9CHTO    O9 3746   5.657   4.185   0.483  0.0766 -0.1292  0.0229
    9CHTO   C13 3747   5.508   4.228   0.394  0.3707 -0.7152 -0.1544
    9CHTO   H26 3748   5.540   4.283   0.303 -0.3390  0.6514  0.4140
    9CHTO   C11 3749   5.426   4.326   0.488 -0.6628  0.0580 -0.4210
    9CHTO   H24 3750   5.476   4.424   0.489 -0.6492  0.0456  0.0545
    9CHTO    O8 3751   5.412   4.278   0.620 -0.2052  0.1339  0.3733
    9CHTO    H3 3752   5.486   4.233   0.656  1.1443  1.5284 -0.5759
    9CHTO    C9 3753   5.286   4.337   0.419 -0.0989  0.2740 -0.0336
    9CHTO   H22 3754   5.305   4.378   0.318 -1.1233 -0.6348 -0.6009
    9CHTO    N2 3755   5.198   4.436   0.474  0.0717  0.3373  0.0462
    9CHTO   H10 3756   5.211   4.453   0.580 -1.2010  0.2241  0.2265
    9CHTO   H11 3757   5.095   4.420   0.446  0.5519 -0.0447 -1.5413
    9CHTO    C7 3758   5.215   4.194   0.409  1.2233 -0.0046 -0.2124
    9CHTO   H20 3759   5.166   4.202   0.310 -0.3554  0.5557  0.5997
    9CHTO    O4 3760   5.303   4.083   0.424 -0.7133  0.1504 -0.3024
    9CHTO   C14 3761   5.425   4.100   0.346  1.2000  0.0491 -0.6976
    9CHTO   H27 3762   5.401   4.112   0.238 -0.3221  0.5631 -0.3147
    9CHTO   C18 3763   5.509   3.970   0.356  0.0482  0.3015 -0.2854
    9CHTO   O13 3764   5.535   3.924   0.494  0.5677 -0.7581  0.1118
    9CHTO    H7 3765   5.600   3.977   0.535 -0.4483  0.5748  0.0333
    9CHTO    O2 3766   5.096   4.170   0.518  0.0512 -0.3716 -0.3728
    9CHTO    C1 3767   5.007   4.058   0.477 -0.3650  0.2312  0.2154
    9CHTO   H14 3768   5.055   4.000   0.395 -1.4386  0.1026 -0.3274
    9CHTO    C2 3769   4.880   4.113   0.421  0.5427 -0.3255  0.7365
    9CHTO   H15 3770   4.835   4.177   0.498 -0.8155  1.6649 -1.6547
    9CHTO    O6 3771   4.907   4.190   0.301 -0.2328  0.2857  0.2483
    9CHTO    H1 3772   4.825   4.213   0.263  0.4515 -1.1266 -2.1565
    9CHTO    C3 3773   4.788   3.991   0.387  0.1307 -0.0736 -0.0076
    9CHTO   H16 3774   4.822   3.955   0.289  2.5394  3.2659 -0.4778
    9CHTO    N1 3775   4.645   4.039   0.364  0.3998 -0.1465  0.5614
    9CHTO    H8 3776   4.571   3.984   0.421 -1.7913  1.5685 -0.5050
    9CHTO    H9 3777   4.614   4.037   0.260  0.7947 -0.4417  0.4480
    9CHTO    C4 3778   4.784   3.873   0.493  0.4330 -0.2144  0.4220
    9CHTO   H17 3779   4.703   3.885   0.565  0.5650 -0.7759  0.6683
    9CHTO    O1 3780   4.913   3.851   0.560 -0.0305  0.1691  1.0235
    9CHTO    C5 3781   4.982   3.969   0.598  0.2300 -0.3278  0.2442
    9CHTO   H18 3782   4.906   4.025   0.655 -1.0385 -0.6058 -1.1397
    9CHTO   C16 3783   5.108   3.944   0.686  0.2681  0.1650  0.0133
    9CHTO   O11 3784   5.208   3.864   0.621 -0.1386  0.0121  0.0849
    9CHTO    H5 3785   5.256   3.898   0.547 -0.8071 -0.8437 -0.7537
    9CHTO    O3 3786   4.767   3.748   0.423 -0.5215 -0.4757  0.2868
    9CHTO    C6 3787   4.747   3.618   0.496  0.1104 -0.1272 -0.6906
    9CHTO   H19 3788   4.779   3.621   0.600  1.2572  0.6202 -1.0581
    9CHTO    C8 3789   4.594   3.582   0.497  0.7497 -0.0691  0.1485
    9CHTO   H21 3790   4.551   3.628   0.408  0.7080 -2.0057 -0.8639
    9CHTO    O7 3791   4.545   3.657   0.613  0.0352  0.0250 -0.3131
    9CHTO    H2 3792   4.452   3.665   0.615  0.1093  0.5700  1.4485
    9CHTO   C12 3793   4.578   3.427   0.508 -0.6331  0.0888 -0.0194
    9CHTO   H25 3794   4.601   3.404   0.614 -1.9079 -2.5957 -0.3019
    9CHTO    N3 3795   4.436   3.382   0.483  0.3015  0.3644  0.1308
    9CHTO   H12 3796   4.426   3.362   0.377  0.0336 -0.2913  0.2828
    9CHTO   H13 3797   4.404   3.296   0.539  1.3275  0.1637  0.4002
    9CHTO   C15 3798   4.680   3.352   0.420  0.1701 -0.2753  0.3264
    9CHTO   H28 3799   4.658   3.362   0.313  2.3693 -0.8667 -0.1948
    9CHTO   O10 3800   4.697   3.185   0.463  0.2841 -0.3012 -0.1396
    9CHTO    H4 3801   4.618   3.138   0.445  0.0068  0.3167 -0.5514
    9CHTO    O5 3802   4.817   3.389   0.442 -0.0828  0.5021  0.6183
    9CHTO   C10 3803   4.845   3.525   0.422  0.5368  0.2539  0.3252
    9CHTO   H23 3804   4.852   3.544   0.315 -0.5034 -1.2425 -0.0145
    9CHTO   C17 3805   4.988   3.543   0.486  0.0483 -1.0823 -0.1253
    9CHTO   O12 3806   5.089   3.498   0.401 -0.2046  0.1942 -0.0912
    9CHTO    H6 3807   5.177   3.522   0.426 -0.5975  0.3891  1.1212
   10CHTO  H203 3808   4.051   6.718   2.651  0.5545 -0.1925  0.3593
   10CHTO   O82 3809   4.019   6.804   2.632  0.6935 -0.0960  0.5595
   10CHTO  C123 3810   3.944   6.856   2.743  0.2990  0.0633  0.4670
   10CHTO  H227 3811   4.009   6.835   2.829 -1.8432 -1.2964  1.8055
   10CHTO   O77 3812   3.937   7.001   2.727 -0.3261 -0.0851  0.2933
   10CHTO  C118 3813   3.892   7.070   2.844  0.4045 -0.2336 -0.5763
   10CHTO  H222 3814   3.961   7.051   2.928 -0.1165 -0.7151 -0.2505
   10CHTO  C125 3815   3.891   7.219   2.810  0.4572 -0.4857  0.3002
   10CHTO   O84 3816   4.017   7.286   2.835 -0.2919  0.0591 -1.0474
   10CHTO  H205 3817   4.089   7.226   2.840 -0.4270  0.0361  1.8636
   10CHTO  C114 3818   3.746   7.012   2.867  0.4318 -0.3737  0.2571
   10CHTO  H218 3819   3.687   7.039   2.779  1.6805  1.5164 -0.0523
   10CHTO  C116 3820   3.733   6.857   2.880 -0.0003  0.0894 -0.3701
   10CHTO  H220 3821   3.774   6.828   2.978  1.5552  1.4937 -0.5907
   10CHTO   O79 3822   3.588   6.831   2.904  0.2931  0.3990  0.2800
   10CHTO  H201 3823   3.543   6.823   2.822 -0.7891  0.0925  0.8987
   10CHTO  C120 3824   3.800   6.792   2.761 -0.1730  0.1145  0.8607
   10CHTO  H224 3825   3.746   6.813   2.666  1.9962 -0.9835 -0.6680
   10CHTO   N21 3826   3.795   6.640   2.772  0.5650 -0.2237 -0.2924
   10CHTO  H211 3827   3.797   6.622   2.878  1.4672 -0.0996 -0.2855
   10CHTO  H212 3828   3.698   6.615   2.731  0.1008 -0.5744  1.0091
   10CHTO   O75 3829   3.694   7.089   2.977  0.0045  0.6450 -0.6451
   10CHTO  C112 3830   3.684   7.041   3.123 -0.1544 -0.3275 -0.9582
   10CHTO  H216 3831   3.751   6.956   3.141 -1.3404 -0.9008  0.8372
   10CHTO   O73 3832   3.543   7.004   3.140 -0.1594  0.1952 -0.0456
   10CHTO  C113 3833   3.520   6.939   3.267 -0.5354 -0.1226  0.1799
   10CHTO  H217 3834   3.589   6.853   3.275  0.0846  0.2700 -0.8593
   10CHTO  C124 3835   3.380   6.876   3.276  0.5963 -0.3828 -0.0013
   10CHTO   O83 3836   3.368   6.757   3.199 -0.2778  0.1948 -0.6716
   10CHTO  H204 3837   3.373   6.778   3.108 -0.3419  0.0914 -0.6986
   10CHTO  C109 3838   3.554   7.035   3.385 -0.4568 -0.4297  0.6792
   10CHTO  H213 3839   3.479   7.115   3.386  0.4700  0.4530  1.0204
   10CHTO  C110 3840   3.699   7.090   3.374 -0.0893 -0.7685 -0.2874
   10CHTO  H214 3841   3.764   7.004   3.387  1.1081  0.1735  0.0378
   10CHTO   O78 3842   3.732   7.178   3.487 -0.3092  0.3836 -0.1855
   10CHTO  H200 3843   3.660   7.236   3.503 -1.0238 -1.1670  2.7765
   10CHTO  C111 3844   3.717   7.152   3.229 -0.5165 -0.4063 -0.6665
   10CHTO  H215 3845   3.644   7.232   3.214  0.5393  0.8241  0.5902
   10CHTO   N19 3846   3.857   7.216   3.206  0.4064  0.2868  0.7143
   10CHTO  H207 3847   3.844   7.321   3.229 -0.6530  0.4692 -0.6628
   10CHTO  H208 3848   3.901   7.211   3.107 -0.5471 -0.9969  0.3472
   10CHTO   O74 3849   3.546   6.968   3.512 -0.3915  0.3729  0.0556
   10CHTO  C115 3850   3.472   7.050   3.629  0.0051 -0.3278 -0.6171
   10CHTO  H219 3851   3.497   7.156   3.627  1.3549 -0.6217  0.6953
   10CHTO   O76 3852   3.316   7.041   3.612  0.2114 -0.0619 -0.1848
   10CHTO  C122 3853   3.249   6.940   3.694 -0.3660  0.1089  0.6850
   10CHTO  H226 3854   3.292   6.844   3.664  1.4337  0.8860  0.7083
   10CHTO  C126 3855   3.099   6.947   3.655  0.2484 -0.1978  0.3114
   10CHTO   O85 3856   3.077   6.907   3.519  0.8896 -0.7950  0.1060
   10CHTO  H206 3857   2.985   6.906   3.505  1.1012 -1.0147 -1.3155
   10CHTO  C121 3858   3.271   6.958   3.847 -0.1725  0.3764 -0.1930
   10CHTO  H225 3859   3.191   7.025   3.883  0.9435  0.7267  1.7480
   10CHTO   O81 3860   3.247   6.823   3.907 -0.2218 -0.1076  0.5539
   10CHTO  H202 3861   3.248   6.827   4.001  0.7122 -0.6320  0.5667
   10CHTO  C119 3862   3.408   7.027   3.875  0.0137  0.0070 -0.1495
   10CHTO  H223 3863   3.381   7.133   3.877  1.1540  0.3114 -0.7990
   10CHTO  C117 3864   3.521   6.990   3.767  0.3796  0.0869 -0.6920
   10CHTO  H221 3865   3.535   6.882   3.754 -2.3389 -0.3024 -0.8411
   10CHTO   N20 3866   3.652   7.043   3.813 -0.5462  0.8830  0.5938
   10CHTO  H209 3867   3.718   6.969   3.856  0.1677 -0.3127 -2.4518
   10CHTO  H210 3868   3.642   7.121   3.887 -0.7963  1.8783 -0.4752
   10CHTO   O80 3869   3.471   7.009   4.034  0.2516  0.2229 -0.6563
   10CHTO  C103 3870   3.457   7.125   4.134  0.0796 -0.8696 -0.3013
   10CHTO  H190 3871   3.523   7.105   4.219 -0.6576 -0.6220  0.3409
   10CHTO  C101 3872   3.474   7.281   4.085  0.3648  0.3424  0.0825
   10CHTO  H188 3873   3.407   7.314   4.006  1.8033  1.6753 -0.6125
   10CHTO   O68 3874   3.619   7.291   4.031  0.4295 -0.1517  0.0771
   10CHTO  H168 3875   3.673   7.301   4.107  0.4438  0.1443  0.0266
   10CHTO   C99 3876   3.451   7.382   4.205  0.0917  0.1164  0.3418
   10CHTO  H186 3877   3.525   7.355   4.283  0.7696  1.0729  0.0401
   10CHTO   N17 3878   3.476   7.530   4.172 -0.3121  0.7527  0.2971
   10CHTO  H174 3879   3.386   7.579   4.205  0.6399  2.0129  1.0475
   10CHTO  H175 3880   3.562   7.567   4.225  0.4388  1.3941 -1.3264
   10CHTO   C97 3881   3.316   7.349   4.271  0.5395 -0.7652  0.5364
   10CHTO  H184 3882   3.241   7.388   4.200  1.4585  1.2309  0.6462
   10CHTO   O64 3883   3.298   7.209   4.299 -0.1925 -0.1935  0.3125
   10CHTO  C104 3884   3.312   7.112   4.194 -0.5541  0.3784 -0.3003
   10CHTO  H191 3885   3.240   7.119   4.113 -0.8077 -1.0076 -0.2194
   10CHTO  C108 3886   3.287   6.977   4.262 -1.0875  0.0302  0.3914
   10CHTO   O71 3887   3.398   6.920   4.339 -0.2211  0.5282 -0.0795
   10CHTO  H171 3888   3.465   6.899   4.276 -0.9363  1.4828 -1.1808
   10CHTO   O62 3889   3.312   7.428   4.395  0.1138  0.3879  0.3474
   10CHTO   C91 3890   3.204   7.409   4.490  0.1450 -0.1930 -0.2932
   10CHTO  H178 3891   3.167   7.307   4.488 -1.2910  0.3170 -0.4602
   10CHTO   C92 3892   3.079   7.504   4.445  0.2270 -0.6129  0.3859
   10CHTO  H179 3893   3.123   7.604   4.436 -0.0094 -0.6643 -1.5236
   10CHTO   O66 3894   3.034   7.482   4.314  0.0813 -0.3714  0.4176
   10CHTO  H166 3895   2.966   7.419   4.302  0.4672 -0.4881 -1.3359
   10CHTO   C93 3896   2.961   7.491   4.550  0.2256 -0.9523  0.3870
   10CHTO  H180 3897   2.900   7.403   4.523  1.6890 -1.8559 -0.0404
   10CHTO   N16 3898   2.859   7.597   4.537  0.1711 -0.1587 -0.0252
   10CHTO  H172 3899   2.892   7.695   4.568 -3.4837  1.2508 -0.3512
   10CHTO  H173 3900   2.815   7.590   4.438 -1.3081 -0.3488  0.6487
   10CHTO   C94 3901   2.999   7.468   4.706 -0.3203  0.0073  0.2858
   10CHTO  H181 3902   3.015   7.559   4.763 -3.0407 -0.0092  1.1262
   10CHTO   O61 3903   3.116   7.394   4.729 -0.5874 -0.2099  0.2290
   10CHTO   C95 3904   3.229   7.443   4.647 -0.0463  0.0700  0.3974
   10CHTO  H182 3905   3.241   7.551   4.650 -0.1336  0.1464 -1.4693
   10CHTO  C106 3906   3.368   7.374   4.692 -0.1613  0.0496 -0.5448
   10CHTO   O69 3907   3.379   7.231   4.664  0.5901 -0.0637 -0.8104
   10CHTO  H169 3908   3.467   7.206   4.641  0.8498 -0.1743  0.2582
   10CHTO   O63 3909   2.872   7.381   4.776 -0.0714  0.0668 -0.1492
   10CHTO   C96 3910   2.906   7.311   4.910  0.7407 -0.1988 -0.1825
   10CHTO  H183 3911   3.002   7.351   4.943 -0.3222  2.8179 -0.5793
   10CHTO   C98 3912   2.909   7.154   4.901 -0.6910  0.5633  0.5141
   10CHTO  H185 3913   2.823   7.120   4.841  0.7378 -2.4063  0.0652
   10CHTO   O67 3914   3.027   7.121   4.822  0.2169 -0.5162  0.0460
   10CHTO  H167 3915   3.022   7.163   4.738 -0.2218  0.9237  0.7677
   10CHTO  C102 3916   2.917   7.068   5.037  0.7915 -0.3802  0.2445
   10CHTO  H189 3917   3.023   7.072   5.068  0.8092  3.4262 -0.1133
   10CHTO   N18 3918   2.883   6.925   5.015 -0.3073  0.0323  0.5124
   10CHTO  H176 3919   2.812   6.892   5.089 -0.4461  1.4035  1.0011
   10CHTO  H177 3920   2.843   6.911   4.916 -0.8405  0.5946  0.6419
   10CHTO  C105 3921   2.834   7.143   5.147  0.4354  0.2799 -0.3653
   10CHTO  H192 3922   2.730   7.113   5.138  1.2467 -2.6553 -0.6902
   10CHTO   O65 3923   2.844   7.287   5.139 -0.0241 -0.1460  0.8511
   10CHTO  C100 3924   2.807   7.352   5.018  0.7043 -0.8803  0.5905
   10CHTO  H187 3925   2.705   7.322   4.989  0.1157  0.3341  1.3912
   10CHTO  C107 3926   2.799   7.503   5.047  0.1973  0.0629 -0.1861
   10CHTO   O70 3927   2.708   7.544   5.146 -0.1160  0.0693 -0.2154
   10CHTO  H170 3928   2.732   7.503   5.227 -0.4594 -1.0703 -0.6717
   10CHTO   O57 3929   2.889   7.074   5.292 -0.0800  0.1998 -0.3778
   10CHTO   C85 3930   2.819   7.125   5.406 -0.4122  0.8947  0.5371
   10CHTO  H157 3931   2.722   7.167   5.372  0.8893  3.8126  0.2678
   10CHTO   C83 3932   2.892   7.243   5.480  0.2792  0.1432  0.0818
   10CHTO  H155 3933   2.891   7.330   5.415  0.0775 -0.7802 -1.1603
   10CHTO   O56 3934   3.028   7.199   5.499 -0.5479  0.6273  0.0384
   10CHTO  H135 3935   3.051   7.219   5.588 -0.7132  1.6445 -0.1398
   10CHTO   C81 3936   2.813   7.276   5.612  0.4743  0.4894  0.9195
   10CHTO  H153 3937   2.714   7.308   5.581  1.3795  0.8060 -1.8078
   10CHTO   N14 3938   2.869   7.398   5.670  0.3960 -0.2515 -0.2584
   10CHTO  H141 3939   2.903   7.377   5.770 -0.9985  0.1978  0.3203
   10CHTO  H142 3940   2.788   7.466   5.677 -0.7836 -1.3601 -2.8046
   10CHTO   C79 3941   2.796   7.151   5.704  0.7501 -0.0031  0.3819
   10CHTO  H151 3942   2.728   7.180   5.784 -1.3896  0.6115 -1.5993
   10CHTO   O52 3943   2.732   7.043   5.630 -0.1048  0.1435  0.3211
   10CHTO   C86 3944   2.801   7.006   5.510  0.4409 -0.4381  0.6557
   10CHTO  H158 3945   2.900   6.968   5.542  0.7719  0.9975  1.3937
   10CHTO   C90 3946   2.718   6.890   5.450 -0.1059 -0.1926 -0.2049
   10CHTO   O60 3947   2.718   6.777   5.536  0.2993  0.2054 -0.6944
   10CHTO  H138 3948   2.669   6.808   5.610  1.2783 -0.0559  0.0729
   10CHTO   O50 3949   2.922   7.109   5.759 -0.0762 -0.0840 -0.2362
   10CHTO   C73 3950   2.949   7.002   5.849 -0.1327  0.7650  0.5444
   10CHTO  H145 3951   2.926   6.905   5.803 -0.5761  1.7361 -1.3026
   10CHTO   C74 3952   2.854   7.003   5.970 -0.5027 -0.9004 -0.1222
   10CHTO  H146 3953   2.751   6.998   5.934 -2.3270  3.3706  3.8931
   10CHTO   O54 3954   2.877   6.884   6.046  0.7626 -0.3858 -0.0460
   10CHTO  H133 3955   2.956   6.892   6.096  0.2714  1.4144  0.4926
   10CHTO   C75 3956   2.878   7.145   6.045  0.2281 -0.6312 -0.2529
   10CHTO  H147 3957   2.853   7.226   5.975  0.1658 -0.9831 -0.6418
   10CHTO   N13 3958   2.796   7.156   6.166  0.5649  0.8900  0.4784
   10CHTO  H139 3959   2.695   7.123   6.145  0.6205 -0.7308  2.6623
   10CHTO  H140 3960   2.797   7.261   6.192 -1.1835  0.6381  1.6677
   10CHTO   C76 3961   3.033   7.153   6.079 -0.0904  0.1243  0.0500
   10CHTO  H148 3962   3.056   7.085   6.161  1.1204 -1.3900 -1.5210
   10CHTO   O49 3963   3.121   7.125   5.970 -0.5212  0.1730 -0.0670
   10CHTO   C77 3964   3.098   7.009   5.886  0.1449 -0.8131  0.4225
   10CHTO  H149 3965   3.113   6.924   5.952 -1.5334  0.6186  2.7242
   10CHTO   C88 3966   3.188   7.015   5.762  0.1923  0.2830  0.5297
   10CHTO   O58 3967   3.347   7.000   5.796  0.4819  0.1472 -0.4724
   10CHTO  H136 3968   3.378   7.027   5.881 -2.2392  0.9857  0.3183
   10CHTO   O51 3969   3.063   7.305   6.121 -0.2545 -0.2581 -0.3439
   10CHTO   C78 3970   3.222   7.317   6.178  0.6853 -0.5729 -0.4959
   10CHTO  H150 3971   3.272   7.218   6.178  0.0660 -0.8937  0.4540
   10CHTO   C80 3972   3.206   7.371   6.321 -0.0214 -0.0078 -0.0154
   10CHTO  H152 3973   3.150   7.467   6.319  0.1533  0.1163  0.7878
   10CHTO   O55 3974   3.125   7.283   6.397  0.4320  0.4484 -0.2009
   10CHTO  H134 3975   3.186   7.222   6.434  1.4709  2.2610  1.1649
   10CHTO   C84 3976   3.352   7.397   6.394  0.4496  0.1989 -0.7824
   10CHTO  H156 3977   3.404   7.302   6.397  0.7190  0.3201 -1.6579
   10CHTO   N15 3978   3.336   7.445   6.535 -0.2970  0.1858 -0.0520
   10CHTO  H143 3979   3.233   7.467   6.551 -1.4934 -5.7621  1.8446
   10CHTO  H144 3980   3.398   7.530   6.553  0.8480 -0.7339  0.4705
   10CHTO   C87 3981   3.436   7.495   6.311 -0.4380 -0.6468 -0.0162
   10CHTO  H159 3982   3.394   7.595   6.309 -0.2546 -0.4558  3.1194
   10CHTO   O53 3983   3.430   7.426   6.165 -0.3362  0.2230 -0.0355
   10CHTO   C82 3984   3.301   7.419   6.095  0.6164  0.2053  0.7046
   10CHTO  H154 3985   3.250   7.515   6.090 -1.7250 -1.1259 -2.0059
   10CHTO   C89 3986   3.316   7.373   5.944 -0.5164 -0.2695  0.3623
   10CHTO   O59 3987   3.202   7.414   5.862 -1.0698  0.3572 -0.3151
   10CHTO  H137 3988   3.140   7.345   5.871 -0.7630  0.0662 -0.4239
   10CHTO   O45 3989   3.596   7.510   6.363  0.5432 -0.0791  0.1308
   10CHTO   C67 3990   3.659   7.618   6.304  1.0411 -0.2258 -0.6709
   10CHTO  H124 3991   3.585   7.681   6.256 -1.1221 -0.0409  2.7744
   10CHTO   C65 3992   3.745   7.704   6.404  0.1585  0.7711  0.0656
   10CHTO  H122 3993   3.688   7.714   6.496 -0.7669  1.2366 -0.5474
   10CHTO   O44 3994   3.782   7.832   6.351  0.3728 -1.1607 -0.6256
   10CHTO  H102 3995   3.703   7.883   6.342  0.2071 -0.4800  3.5608
   10CHTO   C63 3996   3.864   7.614   6.458  0.1805 -0.0178  1.0835
   10CHTO  H120 3997   3.825   7.518   6.491  0.5846 -0.1641  1.1412
   10CHTO   N11 3998   3.935   7.660   6.585 -0.0292  0.5395  0.4015
   10CHTO  H108 3999   3.996   7.580   6.620 -0.4832  0.2288  0.4901
   10CHTO  H109 4000   3.985   7.754   6.572  1.7624 -0.5338 -0.6922
   10CHTO   C61 4001   3.951   7.572   6.327  0.2991 -0.7983 -0.1972
   10CHTO  H118 4002   4.017   7.491   6.363  0.1362 -0.6846  0.3637
   10CHTO   O40 4003   3.880   7.518   6.222 -0.3090  0.6632 -0.4747
   10CHTO   C68 4004   3.748   7.565   6.184 -0.2443  0.3067 -0.4593
   10CHTO  H125 4005   3.701   7.470   6.151 -0.4591  0.3454 -0.2677
   10CHTO   C72 4006   3.746   7.658   6.068 -0.5966 -0.8955 -0.0365
   10CHTO   O48 4007   3.836   7.770   6.063 -0.1044 -0.4523 -0.6418
   10CHTO  H105 4008   3.802   7.847   6.104 -0.4091 -1.1305  0.3786
   10CHTO   O38 4009   4.023   7.685   6.284  0.3083  0.2817 -0.0486
   10CHTO   C55 4010   4.162   7.672   6.248 -0.3007  0.7351  0.4252
   10CHTO  H112 4011   4.176   7.566   6.221 -2.5255  0.8020 -1.1625
   10CHTO   C56 4012   4.251   7.713   6.360 -0.9080 -1.0510 -0.2731
   10CHTO  H113 4013   4.216   7.804   6.411  2.0824 -1.8833  3.4387
   10CHTO   O42 4014   4.246   7.611   6.462  0.2344  0.2900 -0.3876
   10CHTO  H100 4015   4.289   7.532   6.436  0.4927  0.1938  0.3104
   10CHTO   C57 4016   4.397   7.732   6.313 -0.0606  0.0300  0.1354
   10CHTO  H114 4017   4.431   7.630   6.296  1.3740  0.2752  1.3642
   10CHTO   N10 4018   4.493   7.779   6.413 -0.0168 -0.5741  0.1210
   10CHTO  H106 4019   4.568   7.713   6.454  1.3450  1.7427  1.4215
   10CHTO  H107 4020   4.533   7.876   6.392 -1.5645 -0.0251 -0.3728
   10CHTO   C58 4021   4.400   7.810   6.185  0.1858 -0.5076  0.2256
   10CHTO  H115 4022   4.361   7.912   6.206  1.4477  0.3144 -1.3084
   10CHTO   O37 4023   4.321   7.746   6.081 -0.2600 -0.4360  0.9925
   10CHTO   C59 4024   4.184   7.747   6.114 -0.4193  0.3439  0.1898
   10CHTO  H116 4025   4.154   7.852   6.119  0.6898  0.5949  2.0247
   10CHTO   C70 4026   4.124   7.674   5.994  0.0768 -0.3341 -0.3075
   10CHTO   O46 4027   4.118   7.744   5.871 -0.7765  0.2047  0.3799
   10CHTO  H103 4028   4.203   7.776   5.846 -2.1583  2.4404 -1.6079
   10CHTO   O39 4029   4.568   7.815   6.118 -0.2697 -0.2547  0.0771
   10CHTO   C60 4030   4.592   7.952   6.070 -0.0902  0.3064 -0.8480
   10CHTO  H117 4031   4.507   7.983   6.010 -0.8964 -0.9896 -0.4052
   10CHTO   C62 4032   4.610   8.063   6.177  0.0415 -0.1770  0.7379
   10CHTO  H119 4033   4.526   8.063   6.249 -0.7431  2.1619 -0.1328
   10CHTO   O43 4034   4.726   8.033   6.252 -0.5152  0.3777 -0.0508
   10CHTO  H101 4035   4.702   7.987   6.330 -0.2227 -1.1567 -0.8558
   10CHTO   C66 4036   4.613   8.206   6.108  0.7713 -0.5968  0.5681
   10CHTO  H123 4037   4.533   8.217   6.035  1.8756  2.1680 -0.3312
   10CHTO   N12 4038   4.600   8.312   6.211 -0.3299 -0.9930 -0.8527
   10CHTO  H110 4039   4.522   8.382   6.185 -0.4007 -1.0134 -0.6983
   10CHTO  H111 4040   4.694   8.356   6.243 -0.5650 -1.9062  1.1967
   10CHTO   C69 4041   4.741   8.219   6.028 -0.0735  0.3375  0.5943
   10CHTO  H126 4042   4.838   8.209   6.081 -0.0796 -3.1960  0.0563
   10CHTO   O41 4043   4.741   8.110   5.905  0.0291  0.1799 -0.7235
   10CHTO   C64 4044   4.715   7.949   5.967  0.4201  0.4361  0.0169
   10CHTO  H121 4045   4.807   7.923   6.025 -0.9914 -0.9506  1.7134
   10CHTO   C71 4046   4.693   7.853   5.857  0.8479 -0.0945 -0.4427
   10CHTO   O47 4047   4.599   7.889   5.753 -0.3446 -0.0690  0.2714
   10CHTO  H104 4048   4.646   7.906   5.673  0.2158  1.1901  0.8494
   10CHTO   O34 4049   4.735   8.356   5.957  0.2186 -0.5833 -0.4346
   10CHTO   C49 4050   4.808   8.464   5.905 -0.0626 -0.3941 -0.1427
   10CHTO   H91 4051   4.908   8.456   5.949  0.3628 -1.7410 -1.2996
   10CHTO   C47 4052   4.737   8.597   5.940 -0.0407 -0.4817 -0.5736
   10CHTO   H89 4053   4.806   8.669   5.889  0.7623 -1.0293 -0.2705
   10CHTO   O33 4054   4.734   8.630   6.080 -0.8601  0.0113 -0.2771
   10CHTO   H70 4055   4.742   8.722   6.099 -2.1407 -0.3622  2.2550
   10CHTO   C45 4056   4.588   8.590   5.870 -0.1588  0.6825 -0.5731
   10CHTO   H87 4057   4.540   8.495   5.897  2.8289 -0.3215  1.5195
   10CHTO    N8 4058   4.495   8.701   5.889 -0.6352 -0.1663  0.0902
   10CHTO   H75 4059   4.535   8.781   5.951  1.6131 -2.5063  1.7563
   10CHTO   H76 4060   4.399   8.659   5.918 -1.9068  0.5974 -2.8517
   10CHTO   C43 4061   4.611   8.588   5.708  0.0284 -0.5902 -0.4795
   10CHTO   H85 4062   4.515   8.581   5.656 -0.4250  0.8782  0.1185
   10CHTO   O29 4063   4.693   8.473   5.673 -0.3361  0.4612  0.1545
   10CHTO   C50 4064   4.818   8.452   5.748 -0.3573  0.1416  0.0408
   10CHTO   H92 4065   4.853   8.350   5.728 -1.1761 -0.1082 -0.1189
   10CHTO   C54 4066   4.932   8.543   5.686  0.0524 -0.1108 -0.5841
   10CHTO   O36 4067   5.061   8.529   5.750  0.6425  0.4734  0.5501
   10CHTO   H72 4068   5.108   8.457   5.715 -0.9824  1.0704 -3.0279
   10CHTO   O27 4069   4.678   8.707   5.656  0.5017 -0.1144 -0.1356
   10CHTO   C37 4070   4.723   8.809   5.568 -0.6474 -0.3252 -0.4738
   10CHTO   H79 4071   4.833   8.795   5.566 -0.2619  2.4521 -0.3809
   10CHTO   C38 4072   4.660   8.789   5.430 -0.1441  0.7136 -0.4549
   10CHTO   H80 4073   4.554   8.767   5.445  0.0074  1.4661  2.0976
   10CHTO   O31 4074   4.722   8.675   5.373 -0.1496 -0.3436  0.2628
   10CHTO   H68 4075   4.658   8.613   5.343  1.7482 -1.5262 -1.4429
   10CHTO   C39 4076   4.672   8.914   5.326  0.1667 -0.0075 -0.5729
   10CHTO   H81 4077   4.774   8.917   5.288  0.4621 -0.2978  0.1927
   10CHTO    N7 4078   4.592   8.900   5.207 -0.0978 -0.0028 -0.4787
   10CHTO   H73 4079   4.564   8.798   5.185  0.6004 -0.4681  0.7349
   10CHTO   H74 4080   4.495   8.947   5.200 -0.9858 -1.6956  0.2597
   10CHTO   C40 4081   4.653   9.051   5.399 -0.4227 -0.5486  0.0556
   10CHTO   H82 4082   4.546   9.065   5.412 -0.6276  0.5507 -2.5130
   10CHTO   O26 4083   4.724   9.054   5.519 -0.7212 -0.0328 -0.4901
   10CHTO   C41 4084   4.693   8.950   5.612  0.1125 -0.2519  0.1274
   10CHTO   H83 4085   4.585   8.954   5.630  0.1047  1.2683 -0.2164
   10CHTO   C52 4086   4.768   8.987   5.741 -0.0966  0.3628  0.9984
   10CHTO   O35 4087   4.745   9.095   5.794 -0.6990 -0.4080  0.3411
   10CHTO   H71 4088   4.667   9.086   5.846 -1.5663  3.5695 -0.0744
   10CHTO   O28 4089   4.691   9.163   5.322 -0.0126 -0.1955  0.8168
   10CHTO   C42 4090   4.638   9.302   5.338  0.4362  0.2628 -0.7022
   10CHTO   H84 4091   4.571   9.300   5.424 -1.9828  1.4657 -2.5198
   10CHTO   C44 4092   4.558   9.356   5.211 -0.8277  0.8216  0.0058
   10CHTO   H86 4093   4.623   9.358   5.124 -0.1250  0.4076  0.5227
   10CHTO   O32 4094   4.449   9.270   5.189 -0.1874  0.0097 -0.1320
   10CHTO   H69 4095   4.407   9.238   5.266 -0.6914 -0.8003 -0.7293
   10CHTO   C48 4096   4.509   9.510   5.237 -0.6053 -0.0140 -0.1339
   10CHTO   H90 4097   4.444   9.512   5.325 -0.4325 -2.1740  0.0587
   10CHTO    N9 4098   4.430   9.564   5.123 -0.4118  0.0139 -0.0861
   10CHTO   H77 4099   4.360   9.491   5.086 -2.3058  2.2862 -1.1280
   10CHTO   H78 4100   4.387   9.663   5.131 -3.0864 -0.9646 -1.8319
   10CHTO   C51 4101   4.641   9.596   5.278 -0.5362 -0.2070  0.2034
   10CHTO   H93 4102   4.704   9.586   5.190  3.7397  0.0719  3.1091
   10CHTO   O30 4103   4.701   9.532   5.391 -0.2532  0.1836  0.2608
   10CHTO   C46 4104   4.750   9.403   5.377 -0.5143  0.3582  0.4146
   10CHTO   H88 4105   4.815   9.403   5.290 -0.2871  0.8584  0.5794
   10CHTO   C53 4106   4.815   9.359   5.511 -0.4851 -0.4981  0.1377
   10CHTO   O72 4107   4.904   9.462   5.568 -0.3615  0.7989  0.3675
   10CHTO  H199 4108   4.863   9.529   5.620  2.7850  2.1418  1.2240
   10CHTO   O22 4109   4.613   9.727   5.331  0.3153 -0.1988 -0.5014
   10CHTO   C31 4110   4.708   9.837   5.324 -0.3925 -0.8366  0.4306
   10CHTO   H59 4111   4.676   9.916   5.395  1.3654  0.8786 -0.6032
   10CHTO   C29 4112   4.855   9.794   5.373  0.1948  0.7276  0.2185
   10CHTO   H57 4113   4.882   9.698   5.327  1.4644  1.5029 -0.6838
   10CHTO   O21 4114   4.859   9.761   5.512 -0.3585  0.6691 -0.5439
   10CHTO   H37 4115   4.946   9.733   5.535  0.5968  1.2428 -3.2935
   10CHTO   C27 4116   4.970   9.900   5.339 -0.0946  0.2846  0.0557
   10CHTO   H55 4117   4.969   9.978   5.415  3.1184  0.7543 -0.2982
   10CHTO    N5 4118   5.106   9.844   5.332  0.2585  0.0572 -0.1456
   10CHTO   H43 4119   5.123   9.781   5.417 -2.4923  0.4733  0.7589
   10CHTO   H44 4120   5.177   9.925   5.343  0.6779  0.0229 -2.3141
   10CHTO   C25 4121   4.949   9.965   5.197  0.1426 -0.8694  0.4985
   10CHTO   H53 4122   4.951   9.886   5.120 -2.8037 -0.5143 -0.0009
   10CHTO   O17 4123   4.814  10.015   5.180 -0.6773 -0.1434 -0.2113
   10CHTO   C32 4124   4.720   9.908   5.188  0.1070 -0.4632  0.4451
   10CHTO   H60 4125   4.739   9.827   5.118 -1.2030 -0.7912  0.4546
   10CHTO   C36 4126   4.579   9.949   5.135 -0.3923 -0.4351 -0.2823
   10CHTO   O25 4127   4.580  10.003   5.003  0.1504  0.3660 -0.1805
   10CHTO   H40 4128   4.662   9.979   4.964  0.0912 -2.3473  1.2496
   10CHTO   O15 4129   5.047  10.079   5.160 -0.1480  0.2493  0.3460
   10CHTO   C19 4130   5.091  10.111   5.021 -0.1982  0.7932 -0.5316
   10CHTO   H47 4131   5.096  10.010   4.977 -0.8775  1.2733 -1.7362
   10CHTO   C20 4132   4.989  10.206   4.956  0.7257  0.3171  0.1844
   10CHTO   H48 4133   4.957  10.288   5.022  0.6678  1.2657 -1.0232
   10CHTO   O19 4134   4.868  10.122   4.930  0.3289 -0.0457 -0.5356
   10CHTO   H35 4135   4.864  10.089   4.843 -1.0336  1.0410 -0.9091
   10CHTO   C21 4136   5.034  10.268   4.812  0.6239 -0.4975 -0.7943
   10CHTO   H49 4137   5.036  10.186   4.741  2.0264 -1.1178 -0.0655
   10CHTO    N4 4138   4.938  10.367   4.763 -0.4587 -0.1135  0.1164
   10CHTO   H41 4139   4.980  10.408   4.673 -0.8884  1.7512  0.7390
   10CHTO   H42 4140   4.933  10.449   4.833  2.4683  2.4338 -2.5168
   10CHTO   C22 4141   5.181  10.310   4.817  0.3151 -0.4119  0.4728
   10CHTO   H50 4142   5.192  10.405   4.869 -0.7289  0.8660 -1.5798
   10CHTO   O14 4143   5.258  10.207   4.882  0.8121 -0.0908  0.0086
   10CHTO   C23 4144   5.235  10.164   5.012  0.2149 -0.0525 -0.0633
   10CHTO   H51 4145   5.245  10.258   5.067 -0.0000  0.4418 -0.8697
   10CHTO   C34 4146   5.333  10.058   5.056 -0.1264 -0.5601  0.1103
   10CHTO   O23 4147   5.429  10.040   4.952 -0.3144 -0.4790  0.0920
   10CHTO   H38 4148   5.493   9.975   4.976  0.9282  0.7250  0.0958
   10CHTO   O16 4149   5.239  10.324   4.681 -0.1537 -0.1994 -0.0386
   10CHTO   C24 4150   5.404  10.351   4.678  0.6010  0.1051 -0.1965
   10CHTO   H52 4151   5.449  10.335   4.776  1.3857  2.5051 -0.1421
   10CHTO   C26 4152   5.416  10.497   4.633 -0.2899  0.6980 -0.4450
   10CHTO   H54 4153   5.366  10.507   4.535 -0.4208  1.5866 -0.2925
   10CHTO   O20 4154   5.343  10.583   4.721  0.3661  0.0935 -0.4175
   10CHTO   H36 4155   5.341  10.667   4.678  0.7869 -0.6371 -1.9058
   10CHTO   C30 4156   5.572  10.525   4.622 -0.2231 -0.4979  0.2022
   10CHTO   H58 4157   5.606  10.503   4.724 -0.3842 -0.1581  0.3299
   10CHTO    N6 4158   5.603  10.662   4.585  0.3839  0.9116  0.2047
   10CHTO   H45 4159   5.606  10.720   4.676  0.7859  0.3275  0.5654
   10CHTO   H46 4160   5.530  10.706   4.518  1.5530 -2.2845 -3.3562
   10CHTO   C33 4161   5.653  10.427   4.535  0.1281 -0.0273  0.0166
   10CHTO   H61 4162   5.627  10.445   4.430 -1.0017  1.8521  0.5837
   10CHTO   O18 4163   5.607  10.295   4.569  0.0072  0.1420 -0.2416
   10CHTO   C28 4164   5.473  10.259   4.571  0.0419 -0.0995 -0.2713
   10CHTO   H56 4165   5.428  10.271   4.473 -0.2744 -3.1483 -0.5475
   10CHTO   C35 4166   5.473  10.114   4.618 -0.0901  0.2945 -0.1449
   10CHTO   O24 4167   5.364  10.035   4.578 -0.3693 -0.1660 -0.3662
   10CHTO   H39 4168   5.350  10.052   4.487  0.5143  3.2115  0.0746
   10CHTO    O9 4169   5.796  10.439   4.537  0.3619  0.1560 -0.2777
   10CHTO   C13 4170   5.881  10.399   4.421  0.3015 -0.0863  0.6146
   10CHTO   H26 4171   5.869  10.470   4.336 -1.6716 -1.5374 -0.3649
   10CHTO   C11 4172   5.843  10.248   4.381 -0.5079  0.4699 -0.1595
   10CHTO   H24 4173   5.739  10.243   4.344  0.0844 -2.5372 -1.5067
   10CHTO    O8 4174   5.837  10.156   4.497  0.0284 -0.2038 -0.0188
   10CHTO    H3 4175   5.839  10.071   4.457 -0.7527 -0.4251  0.4042
   10CHTO    C9 4176   5.941  10.199   4.270  0.5147  0.1867  0.0683
   10CHTO   H22 4177   5.930  10.272   4.188 -0.2082  0.0120  0.0035
   10CHTO    N2 4178   5.903  10.069   4.209  0.6254 -0.2763  0.2942
   10CHTO   H10 4179   5.948  10.074   4.111  0.0029  0.5003  0.0450
   10CHTO   H11 4180   5.927   9.972   4.249  1.0931 -0.1316  0.3680
   10CHTO    C7 4181   6.094  10.205   4.327 -0.4253  0.7965 -0.0098
   10CHTO   H20 4182   6.149  10.271   4.257 -0.7629 -0.8839 -1.9032
   10CHTO    O4 4183   6.094  10.267   4.461  0.2790  0.8671  0.3044
   10CHTO   C14 4184   6.035  10.397   4.461  1.1550  0.6720  0.6604
   10CHTO   H27 4185   6.085  10.460   4.385 -2.2935  2.3421 -0.3452
   10CHTO   C18 4186   6.062  10.467   4.595 -0.1432 -0.1040  0.1364
   10CHTO   O13 4187   6.197  10.491   4.604 -0.1313 -0.2738  0.0311
   10CHTO    H7 4188   6.229  10.463   4.688  0.8122 -0.0793 -0.2556
   10CHTO    O2 4189   6.169  10.067   4.333 -0.1446  0.3741 -0.4976
   10CHTO    C1 4190   6.293  10.056   4.399 -0.9433  0.2716  0.3342
   10CHTO   H14 4191   6.281  10.088   4.505 -1.3213  3.1262 -0.5388
   10CHTO    C2 4192   6.417  10.135   4.331  0.4189 -0.1052  0.1342
   10CHTO   H15 4193   6.410  10.116   4.223 -0.5392 -0.9428  0.3360
   10CHTO    O6 4194   6.394  10.272   4.368 -0.2004 -0.2553 -0.3646
   10CHTO    H1 4195   6.427  10.330   4.303  1.5527 -1.6204 -0.7247
   10CHTO    C3 4196   6.555  10.091   4.387  0.1280  0.1914 -0.4447
   10CHTO   H16 4197   6.566  10.132   4.489  4.0731 -2.3017  0.2522
   10CHTO    N1 4198   6.671  10.142   4.293  0.4370 -0.4810 -0.4946
   10CHTO    H8 4199   6.684  10.249   4.288 -1.6863 -0.2251 -1.2262
   10CHTO    H9 4200   6.758  10.082   4.270  0.1994 -1.2231  0.5075
   10CHTO    C4 4201   6.562   9.934   4.408  0.2386  0.4429 -0.1407
   10CHTO   H17 4202   6.576   9.885   4.311 -0.5059 -4.0455  1.9043
   10CHTO    O1 4203   6.446   9.875   4.475  0.3901  0.0128  0.0736
   10CHTO    C5 4204   6.322   9.902   4.402  0.1673  0.4839 -0.5298
   10CHTO   H18 4205   6.324   9.867   4.298  0.4509 -0.6604 -0.1468
   10CHTO   C16 4206   6.216   9.825   4.485 -0.3097 -0.4021  0.2951
   10CHTO   O11 4207   6.240   9.687   4.485  0.2666 -0.1106  0.2345
   10CHTO    H5 4208   6.168   9.635   4.514  0.3457 -1.0621 -1.2012
   10CHTO    O3 4209   6.675   9.892   4.488 -0.0328 -0.3253  0.3761
   10CHTO    C6 4210   6.744   9.763   4.452  0.3073 -0.4604 -0.3368
   10CHTO   H19 4211   6.680   9.682   4.417 -0.2058 -0.0535 -0.3381
   10CHTO    C8 4212   6.848   9.781   4.331 -0.1359 -0.4525  0.6413
   10CHTO   H21 4213   6.917   9.862   4.353 -0.3195 -0.0567 -0.2200
   10CHTO    O7 4214   6.772   9.805   4.209  0.4152 -0.1647  0.6013
   10CHTO    H2 4215   6.811   9.857   4.141 -1.8766 -0.1468 -0.7466
   10CHTO   C12 4216   6.934   9.653   4.316  0.3253  0.3898  0.2783
   10CHTO   H25 4217   6.871   9.565   4.290  0.2200  0.6444 -0.3366
   10CHTO    N3 4218   7.039   9.666   4.213 -0.5475  0.1090 -0.1918
   10CHTO   H12 4219   7.036   9.750   4.146 -0.0141  0.2620 -0.0279
   10CHTO   H13 4220   7.074   9.576   4.166 -0.4614  1.0225 -1.9237
   10CHTO   C15 4221   7.000   9.621   4.460 -0.4460 -0.3175 -0.2096
   10CHTO   H28 4222   7.081   9.691   4.485  2.3866 -3.4316 -0.2912
   10CHTO   O10 4223   7.080   9.457   4.467 -0.0183  0.4248  0.0463
   10CHTO    H4 4224   7.138   9.459   4.540 -0.0932  0.0910  0.1149
   10CHTO    O5 4225   6.897   9.597   4.559 -0.3570 -0.4290 -0.0216
   10CHTO   C10 4226   6.812   9.710   4.583  0.2306  0.9146  0.7570
   10CHTO   H23 4227   6.875   9.795   4.612 -0.5098  1.5614  0.4813
   10CHTO   C17 4228   6.721   9.664   4.698 -0.1477  0.4091 -0.3032
   10CHTO   O12 4229   6.810   9.625   4.808  0.1763 -0.3886  0.7895
   10CHTO    H6 4230   6.759   9.577   4.870 -3.5307  0.1032 -1.7326
   11CHTO  H203 4231   4.958   5.203   1.962 -1.8488 -1.4058  0.8720
   11CHTO   O82 4232   4.935   5.284   2.005 -0.3479 -0.3283 -0.3078
   11CHTO  C123 4233   5.022   5.389   1.966 -0.4385  0.3402  0.4249
   11CHTO  H227 4234   5.032   5.465   2.045  2.3319 -2.0609  2.5207
   11CHTO   O77 4235   5.157   5.328   1.937 -0.1738 -0.2139 -0.3748
   11CHTO  C118 4236   5.260   5.426   1.910  0.5651 -0.1117 -0.2171
   11CHTO  H222 4237   5.253   5.500   1.991 -1.3226  1.3587 -1.6882
   11CHTO  C125 4238   5.402   5.358   1.918 -0.5164 -0.2571 -0.2360
   11CHTO   O84 4239   5.413   5.251   1.826 -0.0246 -0.3699  0.1288
   11CHTO  H205 4240   5.384   5.270   1.739  2.7233  0.8531 -0.5474
   11CHTO  C114 4241   5.224   5.494   1.779  0.5131 -0.1886  0.3007
   11CHTO  H218 4242   5.213   5.417   1.702 -0.1567  1.0559 -0.8819
   11CHTO  C116 4243   5.082   5.565   1.790  0.6096  0.0022 -0.0337
   11CHTO  H220 4244   5.093   5.646   1.866 -0.8211 -0.0448  0.2312
   11CHTO   O79 4245   5.055   5.617   1.658 -0.5391  0.1619  0.1474
   11CHTO  H201 4246   5.102   5.696   1.640 -0.7479  0.8724  2.4946
   11CHTO  C120 4247   4.971   5.464   1.837 -0.4093 -0.6111  0.4220
   11CHTO  H224 4248   4.958   5.393   1.753 -0.3459 -1.1720  0.8851
   11CHTO   N21 4249   4.840   5.527   1.864 -0.1091  0.2350 -0.1708
   11CHTO  H211 4250   4.753   5.464   1.856 -1.3667  1.8383  0.7122
   11CHTO  H212 4251   4.839   5.620   1.810  0.0089  1.4655  1.8896
   11CHTO   O75 4252   5.335   5.575   1.743 -0.1780 -0.4587 -0.0926
   11CHTO  C112 4253   5.389   5.688   1.849  0.0107 -0.0829 -0.2078
   11CHTO  H216 4254   5.410   5.643   1.947  2.1124  0.1307 -0.5415
   11CHTO   O73 4255   5.293   5.795   1.858  0.7467 -0.5516  0.2875
   11CHTO  C113 4256   5.314   5.896   1.955 -0.1803 -0.4687 -0.6545
   11CHTO  H217 4257   5.327   5.858   2.059 -0.1182  2.0918  0.3015
   11CHTO  C124 4258   5.184   5.979   1.948 -0.2769  0.5766  0.0506
   11CHTO   O83 4259   5.195   6.080   2.052  0.2077  0.6849  0.0822
   11CHTO  H204 4260   5.113   6.102   2.093 -0.0957 -0.4258  0.1049
   11CHTO  C109 4261   5.444   5.974   1.918  0.1231 -0.1553 -0.4738
   11CHTO  H213 4262   5.420   6.035   1.830 -0.2971  4.4206  2.6872
   11CHTO  C110 4263   5.560   5.871   1.892 -0.1373  0.0998 -0.4528
   11CHTO  H214 4264   5.586   5.836   1.992  1.6098 -0.2546 -1.0095
   11CHTO   O78 4265   5.680   5.940   1.846  0.0859 -0.2908  0.5726
   11CHTO  H200 4266   5.747   5.875   1.853  2.8372  2.3153 -0.6496
   11CHTO  C111 4267   5.519   5.757   1.797 -0.6820  0.9182 -0.0680
   11CHTO  H215 4268   5.499   5.802   1.698 -0.2400  1.0459 -0.1007
   11CHTO   N19 4269   5.626   5.656   1.777  0.7038 -0.2408  0.1449
   11CHTO  H207 4270   5.707   5.664   1.848 -1.7824  0.5671  2.9896
   11CHTO  H208 4271   5.675   5.694   1.688 -0.8441 -0.0402 -0.6383
   11CHTO   O74 4272   5.478   6.070   2.026 -0.3829  0.0663  0.9187
   11CHTO  C115 4273   5.544   6.216   1.953 -0.3638  0.3705  0.1345
   11CHTO  H219 4274   5.555   6.203   1.845 -1.1667  0.5763  0.0298
   11CHTO   O76 4275   5.451   6.348   1.970 -0.3604  0.0541  0.1726
   11CHTO  C122 4276   5.427   6.376   2.109 -0.5312 -0.1992  0.4223
   11CHTO  H226 4277   5.379   6.287   2.149  0.3393 -0.2840  1.3002
   11CHTO  C126 4278   5.319   6.490   2.114 -0.5579 -0.4732  0.3148
   11CHTO   O85 4279   5.350   6.590   2.016 -0.2368 -0.2791  0.3760
   11CHTO  H206 4280   5.397   6.656   2.063  1.0970 -0.1625 -1.0989
   11CHTO  C121 4281   5.559   6.416   2.185  0.1384  0.2631  0.5479
   11CHTO  H225 4282   5.552   6.526   2.199  1.3596  0.6962 -1.8954
   11CHTO   O81 4283   5.565   6.354   2.312 -0.3971 -0.0605 -0.1186
   11CHTO  H202 4284   5.601   6.412   2.376  0.2125  0.5524 -1.0066
   11CHTO  C119 4285   5.678   6.378   2.101 -0.2660  0.1239  0.1842
   11CHTO  H223 4286   5.673   6.462   2.031 -1.6845  0.0026  0.1309
   11CHTO  C117 4287   5.682   6.248   2.017 -0.7320  0.1050  0.1759
   11CHTO  H221 4288   5.699   6.163   2.083  0.6896 -0.5247 -0.9836
   11CHTO   N20 4289   5.791   6.244   1.919 -0.6724 -0.3983  0.2288
   11CHTO  H209 4290   5.841   6.340   1.924 -1.0161 -0.2003 -0.1061
   11CHTO  H210 4291   5.865   6.170   1.945  0.9621  1.3007  0.5349
   11CHTO   O80 4292   5.824   6.410   2.182 -0.4701  0.0453 -0.2131
   11CHTO  C103 4293   5.905   6.541   2.164  0.5160  0.2870 -1.0337
   11CHTO  H190 4294   6.007   6.522   2.196 -0.5078 -4.1244 -0.0803
   11CHTO  C101 4295   5.902   6.616   2.029 -0.1823 -0.3724  0.2694
   11CHTO  H188 4296   5.800   6.620   1.991 -0.1124 -1.5555 -0.0570
   11CHTO   O68 4297   5.973   6.553   1.925 -0.1184 -0.4344  0.2975
   11CHTO  H168 4298   5.918   6.491   1.882 -0.4467 -0.6284  0.9914
   11CHTO   C99 4299   5.961   6.770   2.048  0.5643  0.0347 -0.4283
   11CHTO  H186 4300   6.064   6.769   2.091  0.0303  1.7537  0.9690
   11CHTO   N17 4301   5.974   6.852   1.924 -0.2630 -0.1261  0.2093
   11CHTO  H174 4302   5.898   6.821   1.855  0.5811 -1.3250 -0.2173
   11CHTO  H175 4303   6.074   6.851   1.881 -0.1805 -3.4263  0.3817
   11CHTO   C97 4304   5.871   6.842   2.155  0.2046  0.4955 -0.2426
   11CHTO  H184 4305   5.765   6.838   2.126 -0.4313 -1.7232  2.1688
   11CHTO   O64 4306   5.899   6.766   2.276  0.1313 -0.1357 -0.0890
   11CHTO  C104 4307   5.841   6.635   2.275 -0.1554  0.5532 -0.1402
   11CHTO  H191 4308   5.733   6.642   2.261 -0.6221  2.0756  3.6778
   11CHTO  C108 4309   5.853   6.565   2.408 -0.9446 -0.1501 -0.3077
   11CHTO   O71 4310   5.796   6.639   2.514  0.0824  0.2751 -0.0515
   11CHTO  H171 4311   5.724   6.594   2.555  0.5791 -0.4035  0.0829
   11CHTO   O62 4312   5.916   6.969   2.204 -0.0800 -0.2113 -0.4479
   11CHTO   C91 4313   5.814   7.066   2.246 -0.4773 -0.2449 -0.1248
   11CHTO  H178 4314   5.753   7.089   2.158  0.1051  1.0219 -0.2089
   11CHTO   C92 4315   5.883   7.196   2.282 -0.6737  0.1052 -0.6707
   11CHTO  H179 4316   5.952   7.222   2.200  2.1274  1.5870  2.0582
   11CHTO   O66 4317   5.789   7.305   2.287  0.0539 -0.3476 -0.1821
   11CHTO  H166 4318   5.734   7.299   2.362 -0.3059  2.0236 -0.2172
   11CHTO   C93 4319   5.955   7.185   2.423 -0.2707  1.0215 -0.2042
   11CHTO  H180 4320   5.976   7.288   2.457 -0.1657  1.1737 -0.7245
   11CHTO   N16 4321   6.088   7.120   2.424  0.3074  0.3043 -0.1000
   11CHTO  H172 4322   6.138   7.121   2.520  0.2179 -0.8164 -0.0363
   11CHTO  H173 4323   6.100   7.025   2.374 -0.1342 -0.8229  1.8847
   11CHTO   C94 4324   5.866   7.112   2.531 -0.3119  0.0281  0.2114
   11CHTO  H181 4325   5.898   7.009   2.550  1.0222  0.1423 -1.2965
   11CHTO   O61 4326   5.734   7.110   2.488 -0.0482 -0.4307 -0.1635
   11CHTO   C95 4327   5.716   7.023   2.370  1.0678  0.7142 -0.2395
   11CHTO  H182 4328   5.755   6.924   2.396 -1.1431 -0.2117 -0.3876
   11CHTO  C106 4329   5.562   7.011   2.331 -0.7531 -0.2380  0.1943
   11CHTO   O69 4330   5.555   6.917   2.218 -0.2187  0.7203  0.2407
   11CHTO  H169 4331   5.467   6.883   2.215 -0.2034  0.6411  0.6534
   11CHTO   O63 4332   5.862   7.184   2.683  0.5573  0.2350 -0.4907
   11CHTO   C96 4333   5.991   7.141   2.777 -0.2249  0.5941  0.3526
   11CHTO  H183 4334   6.069   7.117   2.705 -1.4659 -0.0214 -0.7923
   11CHTO   C98 4335   5.947   7.023   2.865  0.8073  0.0336 -0.1711
   11CHTO  H185 4336   5.848   7.040   2.909  0.2108 -1.6373 -0.8340
   11CHTO   O67 4337   5.936   6.899   2.789 -0.0623  0.2856  0.6716
   11CHTO  H167 4338   5.879   6.921   2.718  0.5135  1.7581  0.6402
   11CHTO  C102 4339   6.054   6.998   2.992  0.2915  0.2549 -0.3456
   11CHTO  H189 4340   6.137   6.945   2.944 -0.9267  0.5188 -2.7931
   11CHTO   N18 4341   6.009   6.914   3.106  0.0643 -0.1392  0.0970
   11CHTO  H176 4342   5.936   6.971   3.162  0.1857 -0.0873  0.2011
   11CHTO  H177 4343   5.961   6.820   3.082  1.1352 -0.4074 -1.0805
   11CHTO  C105 4344   6.118   7.131   3.040  0.0729  0.7968 -0.7806
   11CHTO  H192 4345   6.046   7.182   3.102 -1.9961 -1.4552 -1.2715
   11CHTO   O65 4346   6.154   7.213   2.925  0.2789  0.2906 -0.7555
   11CHTO  C100 4347   6.039   7.261   2.858  0.4987  0.0712  0.4732
   11CHTO  H187 4348   5.951   7.286   2.919 -0.3467 -0.0842 -0.6796
   11CHTO  C107 4349   6.090   7.378   2.776  0.0957 -0.1294  0.0369
   11CHTO   O70 4350   5.984   7.462   2.742 -0.0099  0.9822  0.5970
   11CHTO  H170 4351   5.983   7.543   2.789 -0.0743  0.7273  1.0429
   11CHTO   O57 4352   6.270   7.088   3.112 -0.4106 -1.0316 -0.6094
   11CHTO   C85 4353   6.351   7.175   3.196  0.1108 -0.2696  0.5579
   11CHTO  H157 4354   6.284   7.238   3.258  0.9214 -0.2942  1.4655
   11CHTO   C83 4355   6.427   7.280   3.111  0.2681 -0.7144  0.4773
   11CHTO  H155 4356   6.350   7.350   3.077  0.5309 -0.4728  0.3738
   11CHTO   O56 4357   6.477   7.217   2.990  0.2268  0.3208 -0.0950
   11CHTO  H135 4358   6.545   7.265   2.947  0.9425 -0.4190  0.2038
   11CHTO   C81 4359   6.531   7.362   3.192  0.1984 -0.2213  0.6436
   11CHTO  H153 4360   6.483   7.420   3.270 -0.1305 -0.2633  0.4690
   11CHTO   N14 4361   6.601   7.464   3.112  0.2413  0.8902 -0.1624
   11CHTO  H141 4362   6.552   7.556   3.134  0.3871  1.0863 -0.6403
   11CHTO  H142 4363   6.702   7.480   3.144  0.4866 -0.3832 -0.2985
   11CHTO   C79 4364   6.634   7.267   3.262  0.0968  0.2027  0.0264
   11CHTO  H151 4365   6.711   7.328   3.309  0.6098 -0.4583  0.0501
   11CHTO   O52 4366   6.563   7.175   3.353 -0.3868 -0.7649  0.0266
   11CHTO   C86 4367   6.457   7.096   3.294  0.1831  0.4086  0.1909
   11CHTO  H158 4368   6.504   7.017   3.232  1.8870  1.5792 -0.0578
   11CHTO   C90 4369   6.375   7.026   3.402 -0.5231 -0.3259 -0.1801
   11CHTO   O60 4370   6.434   6.927   3.481  0.1771  0.4099  0.2644
   11CHTO  H138 4371   6.494   6.868   3.437 -1.1227 -1.1161  0.4893
   11CHTO   O50 4372   6.716   7.189   3.171  0.2358 -0.2534 -0.1885
   11CHTO   C73 4373   6.808   7.082   3.191 -0.4399 -0.0569 -0.0686
   11CHTO  H145 4374   6.776   7.010   3.267 -1.8775  0.5045 -0.1268
   11CHTO   C74 4375   6.938   7.156   3.229 -0.5344 -0.2960 -0.6565
   11CHTO  H146 4376   6.912   7.214   3.318  0.9308 -0.0094 -0.4036
   11CHTO   O54 4377   7.037   7.065   3.280 -0.4265  0.5256  0.9318
   11CHTO  H133 4378   7.121   7.105   3.292  0.3650  0.0536 -2.3549
   11CHTO   C75 4379   6.988   7.248   3.111 -0.3771 -0.0076  0.8025
   11CHTO  H147 4380   6.917   7.332   3.101 -0.0841  0.1228 -0.1799
   11CHTO   N13 4381   7.121   7.307   3.139  0.0366  0.7764 -0.1648
   11CHTO  H139 4382   7.107   7.414   3.136 -1.9888  0.5545  0.4372
   11CHTO  H140 4383   7.179   7.283   3.051 -1.0090 -0.1265 -0.6258
   11CHTO   C76 4384   6.986   7.160   2.976 -0.0597 -0.4356  0.2502
   11CHTO  H148 4385   7.064   7.084   2.985 -0.8734 -1.2141  0.7503
   11CHTO   O49 4386   6.852   7.110   2.947 -0.3464  0.0353  0.0585
   11CHTO   C77 4387   6.816   7.015   3.047  0.1490  0.3123 -0.0250
   11CHTO  H149 4388   6.897   6.943   3.050  0.0789  0.2392  0.0753
   11CHTO   C88 4389   6.686   6.943   3.004 -0.2733 -0.0525 -0.2635
   11CHTO   O58 4390   6.697   6.870   2.886 -0.2130  0.4977  0.1184
   11CHTO  H136 4391   6.628   6.807   2.898  0.6939 -0.4591  0.3850
   11CHTO   O51 4392   7.006   7.254   2.847 -0.2431 -0.1148 -0.1417
   11CHTO   C78 4393   7.093   7.171   2.737 -0.2373  0.0544 -0.1966
   11CHTO  H150 4394   7.098   7.063   2.760 -1.1247 -0.2732 -1.5156
   11CHTO   C80 4395   7.239   7.228   2.734  0.3126 -0.0017 -0.3276
   11CHTO  H152 4396   7.234   7.337   2.717 -0.8112  0.0090  0.0504
   11CHTO   O55 4397   7.305   7.207   2.861  0.4713 -0.2683 -0.1489
   11CHTO  H134 4398   7.252   7.248   2.927 -1.9210  0.3646 -2.3876
   11CHTO   C84 4399   7.324   7.163   2.614 -0.2643  0.3195  0.1872
   11CHTO  H156 4400   7.335   7.058   2.643 -0.8918  0.6891  1.7978
   11CHTO   N15 4401   7.461   7.209   2.608 -0.1464 -0.3792 -0.2556
   11CHTO  H143 4402   7.518   7.140   2.551  0.7091  0.2351 -0.1469
   11CHTO  H144 4403   7.468   7.307   2.567  0.4112  0.0208  0.7636
   11CHTO   C87 4404   7.254   7.178   2.480 -0.2802  0.5375  0.3209
   11CHTO  H159 4405   7.251   7.283   2.451  0.2470  0.7593  1.0681
   11CHTO   O53 4406   7.107   7.124   2.491 -0.2273 -0.4690 -0.1285
   11CHTO   C82 4407   7.029   7.188   2.595  0.2337 -1.0333  0.0620
   11CHTO  H154 4408   7.030   7.295   2.574 -1.4193 -1.1826 -0.8356
   11CHTO   C89 4409   6.878   7.137   2.583  0.0097  0.5039  0.2529
   11CHTO   O59 4410   6.892   6.992   2.594  0.4284  0.3617 -0.6148
   11CHTO  H137 4411   6.901   6.973   2.685  0.6229  0.4159 -0.6232
   11CHTO   O45 4412   7.311   7.084   2.366 -0.1689  0.2640 -0.1276
   11CHTO   C67 4413   7.234   7.085   2.245 -0.1859  0.3415 -0.9606
   11CHTO  H124 4414   7.135   7.041   2.258  0.2295 -0.4017 -0.2503
   11CHTO   C65 4415   7.212   7.232   2.187  0.1794 -0.4224 -0.5163
   11CHTO  H122 4416   7.297   7.288   2.225 -1.9618  2.0426  0.8299
   11CHTO   O44 4417   7.092   7.279   2.250 -0.0214  0.3293  0.6115
   11CHTO  H102 4418   7.021   7.294   2.190 -0.6746  0.9401  1.5252
   11CHTO   C63 4419   7.227   7.241   2.028  0.0039 -0.0654 -0.1386
   11CHTO  H120 4420   7.333   7.228   2.002 -0.3531 -1.1149 -1.1237
   11CHTO   N11 4421   7.198   7.375   1.961 -0.0890  0.2823  0.3504
   11CHTO  H108 4422   7.175   7.367   1.857  4.7483 -0.3588 -0.7934
   11CHTO  H109 4423   7.118   7.424   2.013 -0.4899  2.1686 -1.9508
   11CHTO   C61 4424   7.161   7.110   1.963  0.2547  0.0331  0.3263
   11CHTO  H118 4425   7.192   7.111   1.857  0.4165 -2.6280  0.3299
   11CHTO   O40 4426   7.211   6.994   2.019 -0.2826 -0.1661 -0.2217
   11CHTO   C68 4427   7.298   6.996   2.137 -0.0009  0.3995  0.2261
   11CHTO  H125 4428   7.399   7.033   2.109  0.0536  0.9678  1.1669
   11CHTO   C72 4429   7.316   6.848   2.179 -0.6270 -0.1846  0.6252
   11CHTO   O48 4430   7.403   6.839   2.289  0.2217  0.0464 -0.4742
   11CHTO  H105 4431   7.464   6.909   2.288  0.1294  0.1223 -0.7891
   11CHTO   O38 4432   7.018   7.116   1.969 -0.8976 -0.1727 -0.0691
   11CHTO   C55 4433   6.957   7.043   1.861 -0.1288 -0.1098 -0.3382
   11CHTO  H112 4434   7.026   6.965   1.827 -0.3979  0.6257 -2.7305
   11CHTO   C56 4435   6.916   7.137   1.744 -0.1405  0.7396 -0.1408
   11CHTO  H113 4436   6.846   7.219   1.767  0.0159  1.1794 -1.2140
   11CHTO   O42 4437   7.034   7.200   1.686  0.0005  0.0274  0.4862
   11CHTO  H100 4438   7.083   7.232   1.760 -0.1613  0.3091  0.4722
   11CHTO   C57 4439   6.850   7.044   1.633  0.2643  0.0694 -0.0604
   11CHTO  H114 4440   6.924   6.980   1.587  0.6200  2.1473 -2.4878
   11CHTO   N10 4441   6.795   7.122   1.517  0.7320 -0.3568 -0.0395
   11CHTO  H106 4442   6.696   7.157   1.541 -0.2418 -1.4294 -2.3958
   11CHTO  H107 4443   6.783   7.053   1.435 -0.2561  2.2759 -2.1775
   11CHTO   C58 4444   6.730   6.963   1.695 -1.0496 -0.2110  0.1545
   11CHTO  H115 4445   6.652   7.036   1.724 -0.8055  0.9528 -2.0372
   11CHTO   O37 4446   6.771   6.887   1.813  0.1128 -0.4938 -0.2132
   11CHTO   C59 4447   6.833   6.968   1.921 -0.2680 -0.0203  0.1905
   11CHTO  H116 4448   6.757   7.033   1.965  1.0418 -0.0229  2.5178
   11CHTO   C70 4449   6.870   6.877   2.038  0.3144  0.3136 -0.0258
   11CHTO   O46 4450   6.978   6.782   2.013 -0.2914  0.1701  0.6961
   11CHTO  H103 4451   6.978   6.707   2.070 -1.3640  1.1353  1.9734
   11CHTO   O39 4452   6.666   6.860   1.592 -0.2900  0.0318  0.6638
   11CHTO   C60 4453   6.522   6.861   1.574 -0.2839 -0.7473 -0.1838
   11CHTO  H117 4454   6.480   6.866   1.674  0.2364  0.0174  0.0021
   11CHTO   C62 4455   6.465   6.987   1.500 -0.2248 -0.0657 -0.0922
   11CHTO  H119 4456   6.505   7.077   1.551  1.7797 -0.5248 -0.8136
   11CHTO   O43 4457   6.528   6.976   1.373 -0.7168 -0.6483  0.2388
   11CHTO  H101 4458   6.620   6.991   1.369 -0.8412  0.2950  0.7144
   11CHTO   C66 4459   6.304   6.990   1.506 -0.1615 -0.0249  0.5424
   11CHTO  H123 4460   6.272   6.988   1.610 -1.1609  0.2723  0.2505
   11CHTO   N12 4461   6.254   7.114   1.443 -0.1585  0.0970 -0.0927
   11CHTO  H110 4462   6.279   7.208   1.491 -0.9070 -0.3324  1.1522
   11CHTO  H111 4463   6.147   7.104   1.438  0.0093 -2.2106  0.4992
   11CHTO   C69 4464   6.254   6.866   1.441 -0.2129 -0.5010  0.4005
   11CHTO  H126 4465   6.291   6.850   1.338 -0.6438  0.2071  0.1252
   11CHTO   O41 4466   6.308   6.745   1.536 -0.1039 -0.0849 -0.1676
   11CHTO   C64 4467   6.464   6.734   1.508  0.0115 -0.8190 -0.2972
   11CHTO  H121 4468   6.492   6.716   1.403 -0.6822 -0.8325 -0.4827
   11CHTO   C71 4469   6.515   6.613   1.592  0.0369 -0.0047 -0.4869
   11CHTO   O47 4470   6.479   6.496   1.515  0.0398 -0.2653  0.3585
   11CHTO  H104 4471   6.529   6.423   1.546 -0.6671 -0.7767  0.3154
   11CHTO   O34 4472   6.097   6.847   1.440 -0.0855 -0.4084 -0.2295
   11CHTO   C49 4473   5.991   6.877   1.547 -0.4240  0.3937  0.2556
   11CHTO   H91 4474   6.049   6.924   1.627 -0.2349  1.1282 -0.3037
   11CHTO   C47 4475   5.939   6.742   1.586 -0.0309 -0.3620  0.2055
   11CHTO   H89 4476   5.874   6.752   1.676  0.6248 -3.7368  1.1204
   11CHTO   O33 4477   6.043   6.642   1.621  0.2348 -0.3737  0.6121
   11CHTO   H70 4478   6.009   6.588   1.691  1.0223  0.5700  1.7518
   11CHTO   C45 4479   5.848   6.685   1.464 -0.1825 -0.2615  0.6590
   11CHTO   H87 4480   5.911   6.670   1.375  0.6210 -1.9623  1.5028
   11CHTO    N8 4481   5.791   6.553   1.501 -0.0593  0.5531 -0.0068
   11CHTO   H75 4482   5.864   6.474   1.518 -0.6908  0.4387  2.4346
   11CHTO   H76 4483   5.736   6.562   1.593  0.4255 -2.3192  0.6268
   11CHTO   C43 4484   5.733   6.793   1.423 -0.4681 -0.1071 -0.0436
   11CHTO   H85 4485   5.677   6.752   1.339  1.8581 -1.6551 -0.8884
   11CHTO   O29 4486   5.796   6.923   1.388 -0.5942  0.3350  0.1094
   11CHTO   C50 4487   5.888   6.978   1.485 -0.4465 -0.0524  0.4499
   11CHTO   H92 4488   5.947   7.056   1.435  0.6566 -0.5834  0.9122
   11CHTO   C54 4489   5.818   7.063   1.594  0.1346  0.2485  0.2562
   11CHTO   O36 4490   5.741   7.175   1.544  0.2645  0.0939  0.3260
   11CHTO   H72 4491   5.754   7.242   1.608 -1.0561 -1.2289  2.0154
   11CHTO   O27 4492   5.644   6.820   1.533 -0.3668  0.2452  0.3560
   11CHTO   C37 4493   5.502   6.812   1.567 -0.6607 -0.2140  0.3346
   11CHTO   H79 4494   5.484   6.913   1.609 -0.6858 -0.4893  0.9932
   11CHTO   C38 4495   5.409   6.788   1.449 -0.4915 -0.0298  0.4896
   11CHTO   H80 4496   5.444   6.696   1.399  2.5581  1.3420 -0.0020
   11CHTO   O31 4497   5.422   6.904   1.366  0.2647  0.2477  0.1833
   11CHTO   H68 4498   5.446   6.882   1.278 -0.3122  0.3511 -0.0004
   11CHTO   C39 4499   5.251   6.768   1.487 -1.2487  0.2652 -0.3021
   11CHTO   H81 4500   5.215   6.866   1.520 -0.1836  0.9052 -1.0074
   11CHTO    N7 4501   5.157   6.729   1.374 -0.2952 -0.4591  0.0633
   11CHTO   H73 4502   5.194   6.635   1.336 -0.8021 -0.5786 -0.1339
   11CHTO   H74 4503   5.055   6.712   1.406 -0.6970  0.9768 -0.4299
   11CHTO   C40 4504   5.249   6.666   1.611  0.4303 -0.0971 -0.5664
   11CHTO   H82 4505   5.274   6.567   1.575  1.0989 -0.8994  1.9914
   11CHTO   O26 4506   5.338   6.705   1.710 -0.9715 -0.2439 -0.3121
   11CHTO   C41 4507   5.479   6.715   1.672  0.4551  0.2276 -0.2808
   11CHTO   H83 4508   5.513   6.617   1.634 -0.8520 -0.2478 -0.2685
   11CHTO   C52 4509   5.565   6.734   1.795  0.3852  0.0436  0.4887
   11CHTO   O35 4510   5.560   6.627   1.864  0.0084 -0.2945  0.6298
   11CHTO   H71 4511   5.642   6.582   1.863 -0.3766 -1.0301  1.5264
   11CHTO   O28 4512   5.118   6.678   1.668 -0.3667  1.0105 -0.2044
   11CHTO   C42 4513   5.010   6.583   1.660 -0.3882 -0.6392 -0.7191
   11CHTO   H84 4514   5.039   6.535   1.567  0.1067 -0.0255 -0.8898
   11CHTO   C44 4515   4.865   6.640   1.637  0.0479  0.0003 -0.3676
   11CHTO   H86 4516   4.846   6.708   1.720  1.3660 -0.7487  0.5872
   11CHTO   O32 4517   4.872   6.712   1.513 -0.1486  0.1859  0.1096
   11CHTO   H69 4518   4.817   6.788   1.516  1.6611  1.5215 -0.1605
   11CHTO   C48 4519   4.745   6.532   1.636 -0.3963  0.4738 -0.2914
   11CHTO   H90 4520   4.741   6.474   1.543 -1.0231  1.2354 -0.7447
   11CHTO    N9 4521   4.615   6.604   1.643  0.1157 -0.0297  0.7810
   11CHTO   H77 4522   4.530   6.539   1.650  1.5871 -2.1104  0.0977
   11CHTO   H78 4523   4.606   6.676   1.722  1.7323  0.3407  0.6554
   11CHTO   C51 4524   4.768   6.431   1.758 -0.4267  0.4795 -0.7050
   11CHTO   H93 4525   4.744   6.481   1.851  3.6180 -0.6756  1.0662
   11CHTO   O30 4526   4.898   6.377   1.756 -0.0704  0.7320  0.4129
   11CHTO   C46 4527   5.010   6.476   1.777  0.4778 -0.4709 -0.1627
   11CHTO   H88 4528   4.989   6.522   1.874  0.9125  0.9121 -0.7146
   11CHTO   C53 4529   5.134   6.384   1.789  0.1666 -0.0916 -0.0081
   11CHTO   O72 4530   5.172   6.315   1.671 -0.7090 -0.1502 -0.2758
   11CHTO  H199 4531   5.266   6.321   1.669 -0.5019 -2.7217 -0.6808
   11CHTO   O22 4532   4.679   6.319   1.744  0.2507 -0.0747  0.4981
   11CHTO   C31 4533   4.621   6.246   1.856 -0.2230  0.6310  0.5911
   11CHTO   H59 4534   4.676   6.284   1.945  0.7133  0.5157  0.0749
   11CHTO   C29 4535   4.474   6.273   1.871  0.5165  0.4773  0.4255
   11CHTO   H57 4536   4.426   6.249   1.775 -0.2066 -0.1201  0.9328
   11CHTO   O21 4537   4.452   6.410   1.892  0.0615  0.2621 -0.4216
   11CHTO   H37 4538   4.363   6.434   1.873 -0.2589 -0.3486  0.2910
   11CHTO   C27 4539   4.416   6.175   1.985  0.6216 -0.3572  0.8162
   11CHTO   H55 4540   4.456   6.207   2.082  0.3500  0.0478  0.7942
   11CHTO    N5 4541   4.271   6.183   1.987 -0.0457 -0.1504 -0.0421
   11CHTO   H43 4542   4.224   6.129   2.068 -1.7531 -0.1131 -0.9802
   11CHTO   H44 4543   4.218   6.184   1.893 -1.5029 -1.1967  0.7414
   11CHTO   C25 4544   4.461   6.026   1.955  0.3841 -0.2438 -0.2728
   11CHTO   H53 4545   4.412   6.001   1.860 -1.0600  0.8537  0.1608
   11CHTO   O17 4546   4.603   6.016   1.952  0.2527 -0.2010 -0.2917
   11CHTO   C32 4547   4.657   6.090   1.840 -0.3559 -0.1689  0.6138
   11CHTO   H60 4548   4.612   6.052   1.748 -1.5971 -1.2273  1.6362
   11CHTO   C36 4549   4.811   6.077   1.846  0.2661 -0.0379  0.0337
   11CHTO   O25 4550   4.851   5.945   1.876  0.0307  0.4317 -0.4727
   11CHTO   H40 4551   4.940   5.936   1.903 -0.3748  1.8858  1.4454
   11CHTO   O15 4552   4.421   5.924   2.059 -0.2107 -0.1612 -0.4039
   11CHTO   C19 4553   4.424   5.775   2.044  0.3597  0.6211  0.2980
   11CHTO   H47 4554   4.468   5.768   1.944  2.7582 -0.9095  1.4218
   11CHTO   C20 4555   4.508   5.697   2.150 -0.5383 -0.1186  0.1924
   11CHTO   H48 4556   4.468   5.716   2.251  0.4212  0.9959  0.3681
   11CHTO   O19 4557   4.639   5.755   2.135 -0.1801  0.1240  0.5750
   11CHTO   H35 4558   4.677   5.734   2.052 -1.1306 -0.1592  0.2011
   11CHTO   C21 4559   4.513   5.541   2.127  0.0052  0.3109  0.0402
   11CHTO   H49 4560   4.559   5.522   2.029 -1.4657 -1.0766 -0.3963
   11CHTO    N4 4561   4.588   5.473   2.236  0.4081 -0.0414  0.2184
   11CHTO   H41 4562   4.678   5.528   2.257  1.0692 -0.9623 -0.1415
   11CHTO   H42 4563   4.613   5.372   2.208 -0.5605 -0.6462  1.5104
   11CHTO   C22 4564   4.370   5.479   2.103  0.1754  0.3038  0.0000
   11CHTO   H50 4565   4.307   5.468   2.191 -0.2905 -0.4791 -0.4262
   11CHTO   O14 4566   4.306   5.565   2.005  0.1343 -0.7573 -0.3651
   11CHTO   C23 4567   4.282   5.706   2.036 -0.1012  0.8167  0.6768
   11CHTO   H51 4568   4.231   5.700   2.134 -1.0291 -3.0642  0.0675
   11CHTO   C34 4569   4.192   5.773   1.930  0.1546  0.4174 -0.0617
   11CHTO   O23 4570   4.222   5.735   1.795  0.2548 -0.6230 -0.6311
   11CHTO   H38 4571   4.202   5.804   1.736  1.3445 -1.0136 -1.4547
   11CHTO   O16 4572   4.392   5.350   2.036 -0.4734  0.5469  0.0704
   11CHTO   C24 4573   4.279   5.266   2.013 -0.4683 -0.4298  0.2147
   11CHTO   H52 4574   4.184   5.321   2.016  0.2039  0.8448 -1.0421
   11CHTO   C26 4575   4.274   5.149   2.111  0.0729  0.2911  0.2043
   11CHTO   H54 4576   4.371   5.095   2.112  0.3173  0.6492  3.6963
   11CHTO   O20 4577   4.267   5.196   2.241 -0.1730  0.3002  0.1765
   11CHTO   H36 4578   4.352   5.219   2.274  0.5743  0.3160 -1.6894
   11CHTO   C30 4579   4.164   5.043   2.082  0.6035 -0.8124  0.2107
   11CHTO   H58 4580   4.064   5.083   2.102  1.2125  1.3656 -0.9845
   11CHTO    N6 4581   4.177   4.925   2.167 -0.2415 -0.1174 -0.0321
   11CHTO   H45 4582   4.111   4.843   2.142 -1.3615  0.5771  0.5862
   11CHTO   H46 4583   4.160   4.945   2.272  0.0489 -1.9842  0.3832
   11CHTO   C33 4584   4.161   5.007   1.927  0.2432  0.3474  0.6275
   11CHTO   H61 4585   4.248   4.949   1.895  2.7789  3.2751  1.8745
   11CHTO   O18 4586   4.162   5.131   1.855  0.4555  0.7504 -0.2168
   11CHTO   C28 4587   4.283   5.202   1.872 -0.5338 -0.7650 -0.5475
   11CHTO   H56 4588   4.375   5.144   1.870  0.2141  0.3995 -0.5211
   11CHTO   C35 4589   4.283   5.313   1.772  0.1583 -0.4005 -0.0917
   11CHTO   O24 4590   4.300   5.280   1.641  0.2445  0.3036  0.5513
   11CHTO   H39 4591   4.359   5.208   1.626 -0.7280  0.0638 -2.4470
   11CHTO    O9 4592   4.046   4.929   1.894 -0.4205  0.5356  0.3794
   11CHTO   C13 4593   3.910   5.011   1.857  0.7570 -0.6268 -0.0672
   11CHTO   H26 4594   3.902   5.100   1.923 -1.9146 -0.3997 -0.6351
   11CHTO   C11 4595   3.790   4.915   1.882  0.1885 -0.8325  1.1268
   11CHTO   H24 4596   3.797   4.895   1.990 -3.5085  1.8508  1.9743
   11CHTO    O8 4597   3.808   4.797   1.789  1.0553 -0.1793 -0.1603
   11CHTO    H3 4598   3.806   4.721   1.844 -0.1629  0.1632  0.2932
   11CHTO    C9 4599   3.656   4.991   1.858  0.2145 -0.0841 -0.1262
   11CHTO   H22 4600   3.648   5.058   1.944  0.0842 -0.4997  0.1916
   11CHTO    N2 4601   3.536   4.898   1.868 -0.7937 -0.2415  1.6115
   11CHTO   H10 4602   3.561   4.825   1.945  1.9647 -0.7313  0.3226
   11CHTO   H11 4603   3.457   4.958   1.910  0.8300  1.6530  2.0200
   11CHTO    C7 4604   3.663   5.078   1.723  0.1374  0.2790  0.5871
   11CHTO   H20 4605   3.664   5.186   1.749  0.9651 -0.0269  1.8830
   11CHTO    O4 4606   3.774   5.042   1.645 -0.1035 -0.0796 -0.5303
   11CHTO   C14 4607   3.905   5.068   1.704 -0.4770  0.1474 -0.2607
   11CHTO   H27 4608   3.926   5.177   1.709 -0.8542  0.1953  0.5497
   11CHTO   C18 4609   4.011   5.003   1.611 -0.4119 -0.2053  0.2714
   11CHTO   O13 4610   4.028   5.086   1.498 -0.5033 -0.1507  0.7239
   11CHTO    H7 4611   4.034   5.179   1.507 -0.4559 -0.2874  2.2901
   11CHTO    O2 4612   3.523   5.055   1.626  0.1575  0.0822 -0.5134
   11CHTO    C1 4613   3.511   5.094   1.491 -0.1034 -0.5689 -0.0563
   11CHTO   H14 4614   3.598   5.053   1.436 -0.4114  0.8850 -1.6763
   11CHTO    C2 4615   3.509   5.252   1.468  0.3573  0.6477 -0.0295
   11CHTO   H15 4616   3.430   5.294   1.532  1.3303  1.4960  0.6223
   11CHTO    O6 4617   3.632   5.320   1.504 -0.5129  0.3412  0.2581
   11CHTO    H1 4618   3.707   5.270   1.477  0.0998  1.1621  0.4100
   11CHTO    C3 4619   3.457   5.283   1.314 -0.3386 -0.1069  0.1877
   11CHTO   H16 4620   3.534   5.252   1.242 -2.1938 -0.7210 -1.5751
   11CHTO    N1 4621   3.435   5.432   1.304 -0.7155 -0.1659 -0.4733
   11CHTO    H8 4622   3.504   5.471   1.230 -1.3827 -2.9957 -2.7147
   11CHTO    H9 4623   3.336   5.474   1.296 -0.1797  1.0585 -0.7461
   11CHTO    C4 4624   3.331   5.206   1.281  0.5164  0.1562  0.0832
   11CHTO   H17 4625   3.252   5.241   1.348  0.1355 -0.9880  0.2457
   11CHTO    O1 4626   3.350   5.062   1.305 -0.2642  0.7230 -0.5931
   11CHTO    C5 4627   3.383   5.021   1.440 -0.0502  0.5242 -0.3820
   11CHTO   H18 4628   3.296   5.044   1.501 -0.4722  0.4332 -0.9464
   11CHTO   C16 4629   3.403   4.869   1.450 -0.0554  0.0295  0.1199
   11CHTO   O11 4630   3.418   4.798   1.322 -0.2321 -0.6064  0.3000
   11CHTO    H5 4631   3.455   4.713   1.333  0.5373 -0.3328 -0.1529
   11CHTO    O3 4632   3.298   5.215   1.144 -0.0344 -0.1411 -0.1441
   11CHTO    C6 4633   3.150   5.216   1.117 -0.2489 -0.7427  0.6418
   11CHTO   H19 4634   3.088   5.192   1.203  1.7005 -0.9482  2.0111
   11CHTO    C8 4635   3.093   5.348   1.068 -0.0929 -0.2161 -0.3960
   11CHTO   H21 4636   3.149   5.386   0.983 -1.2738  1.7484 -0.3458
   11CHTO    O7 4637   3.111   5.445   1.175 -0.2163  0.3207  0.0673
   11CHTO    H2 4638   3.095   5.533   1.149  0.9777  0.4749 -0.1550
   11CHTO   C12 4639   2.941   5.339   1.017  0.1561  0.3315  0.0274
   11CHTO   H25 4640   2.879   5.306   1.103  0.5803  1.0472  0.6114
   11CHTO    N3 4641   2.879   5.472   0.971  0.3489  0.3269 -0.0224
   11CHTO   H12 4642   2.881   5.548   1.048 -0.7214  1.0259 -0.6813
   11CHTO   H13 4643   2.778   5.459   0.937 -0.3568 -0.4466  2.2857
   11CHTO   C15 4644   2.941   5.226   0.906  0.3070 -0.1623  0.2078
   11CHTO   H28 4645   2.990   5.263   0.815  1.1129 -0.3998  0.5391
   11CHTO   O10 4646   2.802   5.188   0.849 -0.1617  0.5640 -0.1396
   11CHTO    H4 4647   2.756   5.263   0.815 -0.5428  0.8775  1.0457
   11CHTO    O5 4648   2.984   5.099   0.957  0.4138  0.0648 -0.2256
   11CHTO   C10 4649   3.122   5.100   1.010 -0.7603  0.1536  0.5672
   11CHTO   H23 4650   3.180   5.105   0.917 -1.1120 -0.6894  0.3014
   11CHTO   C17 4651   3.150   4.955   1.066  0.4399 -0.2714  0.4286
   11CHTO   O12 4652   3.053   4.906   1.157 -0.5450 -0.1248 -0.4993
   11CHTO    H6 4653   2.975   4.901   1.104  0.4578  1.8894 -2.2399
   12CHTO  H203 4654   4.937   1.436   0.311  0.8643 -0.0404 -0.8729
   12CHTO   O82 4655   4.932   1.383   0.234  0.0397 -1.0645 -0.1405
   12CHTO  C123 4656   5.011   1.263   0.259  0.4499  0.0406 -0.4076
   12CHTO  H227 4657   5.113   1.291   0.290  0.0117  1.5173 -0.2818
   12CHTO   O77 4658   4.948   1.206   0.377 -0.5831  0.0262  0.1843
   12CHTO  C118 4659   5.030   1.100   0.431  0.3006 -0.2711  0.1128
   12CHTO  H222 4660   5.133   1.137   0.447  1.4308 -2.6872 -1.2595
   12CHTO  C125 4661   4.962   1.070   0.566 -0.3886  0.1039 -0.7410
   12CHTO   O84 4662   5.022   1.152   0.671 -0.0191 -0.0533 -0.5222
   12CHTO  H205 4663   5.033   1.101   0.749  0.6874 -0.4444 -0.8733
   12CHTO  C114 4664   5.023   0.981   0.333  0.5022  0.3138  0.1416
   12CHTO  H218 4665   4.918   0.954   0.321  0.9005 -1.6338  0.8624
   12CHTO  C116 4666   5.081   1.028   0.193 -0.5036 -0.3209  0.3974
   12CHTO  H220 4667   5.190   1.050   0.199 -0.7884  1.2081  0.2773
   12CHTO   O79 4668   5.079   0.917   0.097 -0.1884 -0.0281 -0.4973
   12CHTO  H201 4669   5.144   0.940   0.034 -0.4593  3.0480  0.2738
   12CHTO  C120 4670   5.003   1.164   0.148 -0.3262  0.3588  0.7172
   12CHTO  H224 4671   4.901   1.136   0.117  0.3998 -2.9311  1.1095
   12CHTO   N21 4672   5.072   1.222   0.028  0.3823  0.2340  0.0643
   12CHTO  H211 4673   5.117   1.157  -0.045 -3.5758 -0.2574 -2.1168
   12CHTO  H212 4674   5.008   1.292  -0.025  2.2908  2.3302  0.4477
   12CHTO   O75 4675   5.095   0.883   0.408 -0.1571 -0.6152 -0.8048
   12CHTO  C112 4676   5.111   0.724   0.362 -0.6107  0.2097  0.0884
   12CHTO  H216 4677   5.206   0.698   0.312  0.0119  2.4936  0.0245
   12CHTO   O73 4678   5.003   0.700   0.275  0.1029 -0.4835 -0.7448
   12CHTO  C113 4679   5.000   0.568   0.218 -0.5929 -0.0491 -0.4227
   12CHTO  H217 4680   5.098   0.549   0.169 -0.9155  0.9139 -1.4680
   12CHTO  C124 4681   4.883   0.566   0.113 -0.9344  0.4896 -0.3059
   12CHTO   O83 4682   4.927   0.639  -0.004 -0.3698  0.6226  0.2916
   12CHTO  H204 4683   4.958   0.725   0.018  0.4908  0.9778 -2.2211
   12CHTO  C109 4684   4.981   0.456   0.325  0.3724 -0.3306  0.3051
   12CHTO  H213 4685   4.880   0.467   0.367  1.2013 -0.8992  2.4891
   12CHTO  C110 4686   5.098   0.482   0.425  0.2274 -0.6147  0.9128
   12CHTO  H214 4687   5.194   0.452   0.383  0.2640 -0.3925  0.8378
   12CHTO   O78 4688   5.065   0.393   0.533  0.1539 -0.7678  0.3580
   12CHTO  H200 4689   5.104   0.308   0.528  2.7684  0.4373 -0.7997
   12CHTO  C111 4690   5.094   0.630   0.480 -0.2619 -0.0292 -0.3160
   12CHTO  H215 4691   5.002   0.651   0.537 -0.2733 -2.2536  0.5348
   12CHTO   N19 4692   5.206   0.653   0.581 -0.0184 -0.3865 -1.0942
   12CHTO  H207 4693   5.288   0.584   0.576 -1.7474 -2.8015  1.7283
   12CHTO  H208 4694   5.170   0.663   0.683  0.7634 -0.6622 -0.7894
   12CHTO   O74 4695   4.983   0.330   0.253 -0.4828 -0.5813 -0.0794
   12CHTO  C115 4696   4.821   0.248   0.249  0.3881  0.2285  0.0510
   12CHTO  H219 4697   4.751   0.295   0.317 -0.6363 -1.7979  0.4333
   12CHTO   O76 4698   4.750   0.271   0.098 -0.1499  0.1322 -0.5258
   12CHTO  C122 4699   4.826   0.207  -0.003  0.6570  0.2220 -0.2865
   12CHTO  H226 4700   4.917   0.267  -0.009  0.3062  0.6856 -1.0463
   12CHTO  C126 4701   4.755   0.215  -0.148 -0.0684 -0.4746  0.5981
   12CHTO   O85 4702   4.626   0.159  -0.154  0.3333 -0.6857 -0.0451
   12CHTO  H206 4703   4.620   0.101  -0.081  0.7474 -0.1947  0.3796
   12CHTO  C121 4704   4.862   0.061   0.029  0.1961  0.8668 -0.2903
   12CHTO  H225 4705   4.831  -0.009  -0.051 -2.1064  0.0159  1.2934
   12CHTO   O81 4706   4.997   0.042   0.044  0.2864  0.8606 -0.0182
   12CHTO  H202 4707   5.017  -0.048   0.059 -0.7482  0.2881 -1.9594
   12CHTO  C119 4708   4.786   0.008   0.156  1.0421 -0.3038 -0.2433
   12CHTO  H223 4709   4.680   0.018   0.132  0.7279  0.1281  1.2728
   12CHTO  C117 4710   4.827   0.088   0.286 -0.3725  0.0424  0.1086
   12CHTO  H221 4711   4.928   0.072   0.325 -0.7708  2.4475  2.3173
   12CHTO   N20 4712   4.738   0.056   0.395  0.2059 -0.1031  0.1652
   12CHTO  H209 4713   4.753   0.121   0.480 -0.5169 -2.9327  2.5313
   12CHTO  H210 4714   4.776  -0.043   0.415 -1.0283 -0.8026 -0.8689
   12CHTO   O80 4715   4.796  -0.165   0.183 -0.0382  0.7313  0.1050
   12CHTO  C103 4716   4.673  -0.251   0.180 -0.0813  0.1148  0.2987
   12CHTO  H190 4717   4.591  -0.199   0.229  0.8761  1.1967  0.7895
   12CHTO  C101 4718   4.632  -0.296   0.038  0.3355 -0.2022 -0.3613
   12CHTO  H188 4719   4.724  -0.339  -0.002  0.5039  2.1271 -2.6190
   12CHTO   O68 4720   4.611  -0.176  -0.041 -0.0518 -1.0723 -0.2061
   12CHTO  H168 4721   4.546  -0.193  -0.106 -1.2526 -0.1146  0.7157
   12CHTO   C99 4722   4.516  -0.408   0.040 -0.1855 -0.6523  0.3892
   12CHTO  H186 4723   4.422  -0.353   0.061 -0.9213 -2.4388  1.9196
   12CHTO   N17 4724   4.488  -0.477  -0.094 -0.4831 -0.5377 -0.6776
   12CHTO  H174 4725   4.502  -0.409  -0.177  1.1474  1.8455  1.4798
   12CHTO  H175 4726   4.384  -0.506  -0.091 -0.6161 -0.0079 -0.0832
   12CHTO   C97 4727   4.529  -0.504   0.156  0.0269 -0.1132 -0.4573
   12CHTO  H184 4728   4.596  -0.586   0.125  1.7325  0.5728  1.2535
   12CHTO   O64 4729   4.576  -0.445   0.282 -0.1096 -0.4745  0.1006
   12CHTO  C104 4730   4.704  -0.376   0.267 -0.2613 -0.4396 -0.3916
   12CHTO  H191 4731   4.780  -0.437   0.218 -1.5039  0.5139 -3.6195
   12CHTO  C108 4732   4.768  -0.327   0.402 -0.3500 -0.3286 -0.8042
   12CHTO   O71 4733   4.816  -0.439   0.468 -0.1485  0.1233 -0.0383
   12CHTO  H171 4734   4.899  -0.463   0.432  1.3326 -1.2337  3.9998
   12CHTO   O62 4735   4.396  -0.550   0.191  0.4940 -0.1539 -0.3101
   12CHTO   C91 4736   4.368  -0.681   0.240  0.4149 -0.1773  0.6922
   12CHTO  H178 4737   4.338  -0.737   0.151  0.4013  0.9610 -0.0340
   12CHTO   C92 4738   4.246  -0.664   0.335  0.9310 -0.3699  0.1824
   12CHTO  H179 4739   4.166  -0.608   0.285 -0.4709 -1.3955  1.2474
   12CHTO   O66 4740   4.201  -0.795   0.364  0.0026  0.0207 -0.2907
   12CHTO  H166 4741   4.185  -0.855   0.294  4.7573 -1.1353 -0.5693
   12CHTO   C93 4742   4.278  -0.602   0.479  0.0891 -0.9831  0.2171
   12CHTO  H180 4743   4.214  -0.646   0.556  0.3188 -1.2875  0.2364
   12CHTO   N16 4744   4.251  -0.454   0.484 -0.2912 -0.3960 -0.4127
   12CHTO  H172 4745   4.284  -0.412   0.577  1.6174 -1.2997 -0.6424
   12CHTO  H173 4746   4.154  -0.425   0.446  1.0687  0.6162 -3.2799
   12CHTO   C94 4747   4.426  -0.625   0.517  0.1450  0.2182 -0.5056
   12CHTO  H181 4748   4.493  -0.550   0.477 -1.4207  1.4355 -0.8819
   12CHTO   O61 4749   4.470  -0.751   0.459 -0.2732 -0.2676 -0.1057
   12CHTO   C95 4750   4.491  -0.746   0.319 -0.2810  0.3097  0.1542
   12CHTO  H182 4751   4.584  -0.694   0.297  0.4363 -1.1958 -0.4052
   12CHTO  C106 4752   4.516  -0.900   0.275 -0.0304  0.5416 -0.1035
   12CHTO   O69 4753   4.420  -0.996   0.319  0.2130 -0.2854  0.4684
   12CHTO  H169 4754   4.339  -0.952   0.335 -0.5570 -1.8586  0.9356
   12CHTO   O63 4755   4.436  -0.628   0.673  0.5973 -0.1911  0.1357
   12CHTO   C96 4756   4.561  -0.663   0.741  0.2394  0.5871  0.5654
   12CHTO  H183 4757   4.637  -0.630   0.670 -0.7122 -2.2118 -1.8489
   12CHTO   C98 4758   4.588  -0.808   0.756 -0.2155 -0.0947 -0.4199
   12CHTO  H185 4759   4.567  -0.859   0.661 -0.5158  2.8021 -1.9430
   12CHTO   O67 4760   4.731  -0.815   0.775  0.5195 -0.3051 -0.1806
   12CHTO  H167 4761   4.780  -0.815   0.694  1.7400 -4.0924  0.4534
   12CHTO  C102 4762   4.523  -0.876   0.874  0.0303  0.1069  0.6775
   12CHTO  H189 4763   4.580  -0.968   0.891 -0.1306 -0.0330  0.4702
   12CHTO   N18 4764   4.383  -0.913   0.848  0.2006  0.3346  0.5507
   12CHTO  H176 4765   4.346  -0.960   0.938  0.1244  0.4953  0.6038
   12CHTO  H177 4766   4.381  -0.975   0.759  1.5007  1.4360 -0.2735
   12CHTO  C105 4767   4.533  -0.788   1.002 -0.3639 -0.4222 -0.3682
   12CHTO  H192 4768   4.434  -0.767   1.043 -1.1255 -1.6955 -1.5420
   12CHTO   O65 4769   4.605  -0.664   0.986 -0.6730  0.2646 -0.0647
   12CHTO  C100 4770   4.572  -0.580   0.875 -0.0977  0.1359  0.1965
   12CHTO  H187 4771   4.477  -0.533   0.903 -1.2371  0.2243 -3.5084
   12CHTO  C107 4772   4.682  -0.465   0.862 -0.1273  0.3375  0.1093
   12CHTO   O70 4773   4.663  -0.369   0.763  0.2329  0.3659 -0.7068
   12CHTO  H170 4774   4.571  -0.350   0.759  0.3436  0.8929 -0.7320
   12CHTO   O57 4775   4.605  -0.870   1.091  0.0526  0.3422  0.2112
   12CHTO   C85 4776   4.604  -0.859   1.234  0.1797 -0.4666 -0.4585
   12CHTO  H157 4777   4.499  -0.829   1.256  0.3886 -1.1287  1.5447
   12CHTO   C83 4778   4.697  -0.740   1.288  0.4975 -0.3750 -0.4771
   12CHTO  H155 4779   4.643  -0.651   1.255 -0.1027  0.4137  2.4772
   12CHTO   O56 4780   4.823  -0.746   1.228 -0.2322  0.6507  0.3189
   12CHTO  H135 4781   4.877  -0.670   1.237 -0.4682  1.0970 -1.8589
   12CHTO   C81 4782   4.693  -0.736   1.448 -1.0382  0.5228  1.2328
   12CHTO  H153 4783   4.588  -0.726   1.479 -1.1820  0.0726  0.8978
   12CHTO   N14 4784   4.763  -0.625   1.520  1.3523 -0.0017 -0.0854
   12CHTO  H141 4785   4.822  -0.648   1.606  1.1303  2.2222  0.6679
   12CHTO  H142 4786   4.818  -0.560   1.455 -1.1535  1.0198 -1.2513
   12CHTO   C79 4787   4.745  -0.876   1.501  0.0245 -0.4511  0.0146
   12CHTO  H151 4788   4.732  -0.869   1.609  1.8059 -1.4822  0.3226
   12CHTO   O52 4789   4.658  -0.980   1.444 -0.2163  0.4649 -0.5104
   12CHTO   C86 4790   4.641  -0.992   1.303 -0.1500 -0.8126  0.0801
   12CHTO  H158 4791   4.733  -1.035   1.258 -0.3619  1.3153 -2.5690
   12CHTO   C90 4792   4.524  -1.092   1.277 -0.4441 -0.5870  0.9775
   12CHTO   O60 4793   4.406  -1.042   1.347 -0.4554 -0.0795  0.2500
   12CHTO  H138 4794   4.336  -1.103   1.352 -1.2787  1.0548  4.3304
   12CHTO   O50 4795   4.879  -0.920   1.476 -0.9628 -0.1336 -0.0454
   12CHTO   C73 4796   4.950  -1.033   1.519  0.1974  0.3524  0.3147
   12CHTO  H145 4797   4.888  -1.124   1.511  0.4230 -0.0884  3.1572
   12CHTO   C74 4798   4.971  -1.020   1.673 -0.4987 -0.2773  0.1682
   12CHTO  H146 4799   4.874  -1.000   1.721  0.3604 -0.9636  2.2403
   12CHTO   O54 4800   5.022  -1.144   1.714  0.2304  0.0306 -0.5926
   12CHTO  H133 4801   4.958  -1.206   1.743 -0.3613  1.8282  2.1039
   12CHTO   C75 4802   5.078  -0.908   1.709 -0.4298 -0.3171 -0.1659
   12CHTO  H147 4803   5.038  -0.811   1.678  0.3748 -0.7412 -2.6711
   12CHTO   N13 4804   5.110  -0.890   1.848  0.4632  0.2773 -0.5089
   12CHTO  H139 4805   5.203  -0.836   1.857 -0.0763  1.4329 -1.6697
   12CHTO  H140 4806   5.036  -0.826   1.894  1.9590  1.0547  0.8798
   12CHTO   C76 4807   5.199  -0.938   1.626  0.1291 -0.7201 -0.0675
   12CHTO  H148 4808   5.233  -1.038   1.651 -0.9606 -1.2962 -0.8425
   12CHTO   O49 4809   5.163  -0.937   1.488  0.1206  0.0322  0.1510
   12CHTO   C77 4810   5.083  -1.050   1.452 -0.0679 -1.2267 -0.0631
   12CHTO  H149 4811   5.125  -1.148   1.477 -1.3355 -1.3792  1.6017
   12CHTO   C88 4812   5.059  -1.065   1.305  0.3320  0.9607 -0.6868
   12CHTO   O58 4813   4.992  -1.189   1.268  0.0115  0.3760 -0.1232
   12CHTO  H136 4814   4.963  -1.165   1.182  2.1810  0.2323 -0.9380
   12CHTO   O51 4815   5.320  -0.820   1.624 -0.0308 -0.1412  0.1453
   12CHTO   C78 4816   5.448  -0.910   1.588 -0.2186 -0.3189  0.2231
   12CHTO  H150 4817   5.416  -1.008   1.545  2.3706 -0.2241 -2.0560
   12CHTO   C80 4818   5.535  -0.938   1.719 -0.9474  0.9358  0.2528
   12CHTO  H152 4819   5.571  -0.841   1.759  0.8705  0.0141  0.8656
   12CHTO   O55 4820   5.443  -0.999   1.815  0.2461  0.2926 -0.6257
   12CHTO  H134 4821   5.473  -0.968   1.899  1.2176 -0.3133 -0.7376
   12CHTO   C84 4822   5.657  -1.030   1.687  0.0612  0.0162  0.4780
   12CHTO  H156 4823   5.607  -1.120   1.652  2.0396 -0.8525 -0.2120
   12CHTO   N15 4824   5.744  -1.083   1.793  0.0590  0.4533 -0.3255
   12CHTO  H143 4825   5.809  -1.011   1.837  0.8918  0.1709 -1.0839
   12CHTO  H144 4826   5.796  -1.160   1.740  1.0804  0.8257  0.1348
   12CHTO   C87 4827   5.744  -0.978   1.567  0.1638  1.0829 -0.1580
   12CHTO  H159 4828   5.797  -0.890   1.605  0.6145 -0.1044  2.0781
   12CHTO   O53 4829   5.644  -0.937   1.448 -0.3621 -0.3494 -0.0138
   12CHTO   C82 4830   5.541  -0.854   1.478 -0.1041 -0.1219 -0.2222
   12CHTO  H154 4831   5.588  -0.760   1.508 -1.0709  0.4363 -0.4308
   12CHTO   C89 4832   5.460  -0.826   1.343  0.0110 -0.6748 -0.5986
   12CHTO   O59 4833   5.429  -0.941   1.268  0.1493  0.5908  0.2521
   12CHTO  H137 4834   5.510  -0.988   1.255 -0.1623 -0.2663  1.3762
   12CHTO   O45 4835   5.865  -1.095   1.515  0.5069  0.1307 -0.0417
   12CHTO   C67 4836   5.936  -1.073   1.392  0.3167  0.3085  0.0307
   12CHTO  H124 4837   6.017  -1.146   1.384  0.7831  1.0334 -2.1539
   12CHTO   C65 4838   5.854  -1.080   1.255  0.1544 -0.4846 -0.0296
   12CHTO  H122 4839   5.746  -1.073   1.269  0.2133  3.3660 -0.8373
   12CHTO   O44 4840   5.899  -1.206   1.199 -0.6161  0.0885 -0.2180
   12CHTO  H102 4841   5.890  -1.214   1.106  0.5235 -0.6123 -0.2874
   12CHTO   C63 4842   5.866  -0.950   1.163  0.1069 -0.0470 -0.4533
   12CHTO  H120 4843   5.814  -0.868   1.211  0.5080 -0.8856  1.4783
   12CHTO   N11 4844   5.804  -0.955   1.025  0.1816 -0.0705  0.2635
   12CHTO  H108 4845   5.840  -0.866   0.977  2.1712 -0.7789  0.4245
   12CHTO  H109 4846   5.863  -1.033   0.982  1.3727  0.4856  0.8938
   12CHTO   C61 4847   6.020  -0.907   1.152 -0.1089  0.0382 -0.2458
   12CHTO  H118 4848   6.025  -0.810   1.101  0.3946  0.3339  0.3585
   12CHTO   O40 4849   6.088  -0.894   1.279 -0.4175 -0.0563  0.1517
   12CHTO   C68 4850   6.008  -0.931   1.398  0.1464 -0.0596 -0.5567
   12CHTO  H125 4851   5.932  -0.852   1.414 -2.5354 -2.8019  0.6296
   12CHTO   C72 4852   6.102  -0.928   1.518 -0.0406 -1.2003 -0.0968
   12CHTO   O48 4853   6.137  -0.800   1.559  0.1522 -0.0217 -0.2338
   12CHTO  H105 4854   6.219  -0.781   1.517 -0.4997 -0.0270 -1.5036
   12CHTO   O38 4855   6.103  -1.016   1.090  0.0900 -0.1881  0.1939
   12CHTO   C55 4856   6.238  -1.000   1.035 -0.4178  0.3554  0.6017
   12CHTO  H112 4857   6.288  -0.992   1.133 -1.0991 -1.9502  1.1633
   12CHTO   C56 4858   6.265  -0.872   0.939  0.4660 -0.5750 -0.2283
   12CHTO  H113 4859   6.183  -0.877   0.866 -1.5991 -0.7823  2.0574
   12CHTO   O42 4860   6.243  -0.753   1.014 -0.1354  0.2462  0.0749
   12CHTO  H100 4861   6.236  -0.680   0.957 -0.1731 -1.6059 -2.3641
   12CHTO   C57 4862   6.409  -0.873   0.877  0.1542 -0.4661  0.2756
   12CHTO  H114 4863   6.469  -0.845   0.964  1.0283 -2.7093  0.4477
   12CHTO   N10 4864   6.441  -0.764   0.783 -0.0430 -0.0347  0.2305
   12CHTO  H106 4865   6.533  -0.779   0.729 -0.9873  0.8177 -1.6784
   12CHTO  H107 4866   6.357  -0.750   0.716 -2.2497 -2.5617  2.3697
   12CHTO   C58 4867   6.460  -1.010   0.828 -0.1190  0.5900 -0.0097
   12CHTO  H115 4868   6.402  -1.045   0.740 -0.7257  2.0182 -0.1932
   12CHTO   O37 4869   6.428  -1.111   0.926  0.0787  0.2273 -0.3775
   12CHTO   C59 4870   6.292  -1.134   0.971 -0.1927  0.5305 -0.2066
   12CHTO  H116 4871   6.224  -1.157   0.889 -0.9158  1.3769  0.1471
   12CHTO   C70 4872   6.298  -1.259   1.072 -0.2106  0.8575 -0.0234
   12CHTO   O46 4873   6.164  -1.296   1.113 -0.0484 -0.3187  0.2849
   12CHTO  H103 4874   6.133  -1.240   1.182  0.7304  0.1062  0.2938
   12CHTO   O39 4875   6.632  -1.016   0.815  0.6968 -0.3434  0.5326
   12CHTO   C60 4876   6.682  -1.025   0.681  0.7167  0.1571 -0.0374
   12CHTO  H117 4877   6.597  -1.017   0.613  1.2332  1.6321 -0.5145
   12CHTO   C62 4878   6.773  -0.900   0.652  0.4389  0.1887 -0.2405
   12CHTO  H119 4879   6.710  -0.810   0.669  1.4720  0.8512  0.0981
   12CHTO   O43 4880   6.878  -0.899   0.750 -0.2614  0.4068  0.0787
   12CHTO  H101 4881   6.934  -0.973   0.736 -1.7481 -1.0479  1.7700
   12CHTO   C66 4882   6.822  -0.904   0.493 -0.0983  0.3995 -0.5152
   12CHTO  H123 4883   6.731  -0.903   0.433  0.0001 -0.6436 -0.6908
   12CHTO   N12 4884   6.890  -0.780   0.446 -0.3086 -0.9104 -0.1101
   12CHTO  H110 4885   6.877  -0.698   0.516 -0.5439 -3.3001  2.7580
   12CHTO  H111 4886   6.994  -0.798   0.423 -0.3514 -1.8625  0.4297
   12CHTO   C69 4887   6.902  -1.029   0.462 -0.3414 -0.4346  0.4426
   12CHTO  H126 4888   6.993  -1.021   0.525 -0.3756  3.0212  0.1075
   12CHTO   O41 4889   6.805  -1.158   0.508 -0.0974  0.3519  0.0951
   12CHTO   C64 4890   6.755  -1.148   0.657  0.0877 -0.7032  0.1702
   12CHTO  H121 4891   6.840  -1.149   0.728 -0.7089 -0.1382  1.1484
   12CHTO   C71 4892   6.660  -1.275   0.684 -0.0146 -0.3630  0.2033
   12CHTO   O47 4893   6.699  -1.335   0.812 -0.4962  0.5199 -0.7918
   12CHTO  H104 4894   6.723  -1.266   0.871 -0.7794 -0.3186  0.3240
   12CHTO   O34 4895   6.941  -1.052   0.322  0.0738  0.0054 -0.0121
   12CHTO   C49 4896   7.082  -1.122   0.286  0.0413  0.3600 -0.4258
   12CHTO   H91 4897   7.159  -1.071   0.344  0.6578 -2.0932  1.0133
   12CHTO   C47 4898   7.105  -1.118   0.135  0.5404 -1.0036 -0.0896
   12CHTO   H89 4899   7.211  -1.151   0.125  0.7693  0.0195 -1.2397
   12CHTO   O33 4900   7.099  -0.983   0.088 -0.2528 -0.1680 -0.2014
   12CHTO   H70 4901   7.180  -0.938   0.100 -1.5396  1.8985  0.9844
   12CHTO   C45 4902   6.996  -1.209   0.056 -0.6205  0.2493  0.2867
   12CHTO   H87 4903   6.913  -1.149   0.017  0.1252 -0.1253 -1.9612
   12CHTO    N8 4904   7.062  -1.271  -0.067  0.5369  0.2293 -0.2327
   12CHTO   H75 4905   7.041  -1.377  -0.064 -1.2739  0.5471 -1.0771
   12CHTO   H76 4906   7.017  -1.225  -0.154 -1.4089 -0.8828  0.1558
   12CHTO   C43 4907   6.917  -1.312   0.155  0.2586  0.3791 -1.2283
   12CHTO   H85 4908   6.852  -1.242   0.208 -1.7280 -1.0800 -1.6910
   12CHTO   O29 4909   7.020  -1.369   0.241 -0.3959 -0.0471 -0.5469
   12CHTO   C50 4910   7.078  -1.277   0.330 -0.1112  0.7717 -0.6495
   12CHTO   H92 4911   7.026  -1.285   0.427 -0.0989 -0.5287 -0.7358
   12CHTO   C54 4912   7.224  -1.337   0.372  0.1803 -0.0702 -0.2743
   12CHTO   O36 4913   7.297  -1.360   0.249  0.2035  0.4842 -0.3198
   12CHTO   H72 4914   7.340  -1.441   0.267  0.3625  1.1321  2.4436
   12CHTO   O27 4915   6.824  -1.409   0.100 -0.0012  0.3957  0.3335
   12CHTO   C37 4916   6.728  -1.504   0.144  0.0178 -0.2197 -0.2280
   12CHTO   H79 4917   6.682  -1.545   0.053 -0.7459  0.3525 -0.1059
   12CHTO   C38 4918   6.793  -1.629   0.215 -0.5183 -0.2197 -0.1250
   12CHTO   H80 4919   6.857  -1.603   0.300  1.3598 -0.3930 -1.4389
   12CHTO   O31 4920   6.865  -1.710   0.120  1.3381  0.4684 -0.1248
   12CHTO   H68 4921   6.873  -1.796   0.154 -0.3066  0.7449  1.0421
   12CHTO   C39 4922   6.675  -1.710   0.287  0.3872  0.1113  0.2267
   12CHTO   H81 4923   6.613  -1.749   0.206  1.0533  0.1667 -0.3109
   12CHTO    N7 4924   6.721  -1.819   0.381 -0.1004  0.4317  0.4462
   12CHTO   H73 4925   6.646  -1.871   0.438  0.6693  1.5173  2.5105
   12CHTO   H74 4926   6.799  -1.775   0.442  0.8244  0.0568 -0.4433
   12CHTO   C40 4927   6.574  -1.622   0.371 -0.0443 -0.6072 -0.4052
   12CHTO   H82 4928   6.636  -1.581   0.451 -2.1696 -0.0196  0.9873
   12CHTO   O26 4929   6.515  -1.518   0.289  0.2122 -0.0945  0.0493
   12CHTO   C41 4930   6.619  -1.429   0.233 -0.3304 -1.0205 -1.0936
   12CHTO   H83 4931   6.675  -1.385   0.317 -0.1828  0.1882 -1.8241
   12CHTO   C52 4932   6.545  -1.311   0.156  0.4907 -0.2246  1.0345
   12CHTO   O35 4933   6.482  -1.358   0.019  0.0241  0.7366  0.3708
   12CHTO   H71 4934   6.478  -1.451   0.010 -1.6777  0.6769  1.4119
   12CHTO   O28 4935   6.460  -1.682   0.435  0.1467  0.4409  0.1944
   12CHTO   C42 4936   6.398  -1.608   0.551  0.0119 -0.4649  0.2644
   12CHTO   H84 4937   6.438  -1.506   0.547  1.5321 -1.1195 -1.7001
   12CHTO   C44 4938   6.425  -1.658   0.695  0.0668 -0.0317 -0.2086
   12CHTO   H86 4939   6.380  -1.756   0.707 -1.2763  0.5176 -0.5513
   12CHTO   O32 4940   6.568  -1.665   0.714 -0.1719 -0.5156 -0.4318
   12CHTO   H69 4941   6.576  -1.756   0.739  0.7210 -0.9379 -2.2250
   12CHTO   C48 4942   6.352  -1.563   0.797 -0.2760  0.9045  0.4840
   12CHTO   H90 4943   6.390  -1.462   0.809  1.0157  0.4959 -0.0536
   12CHTO    N9 4944   6.372  -1.625   0.934 -0.5754 -0.5005  0.0713
   12CHTO   H77 4945   6.288  -1.595   0.994 -0.3986  0.9634 -0.3924
   12CHTO   H78 4946   6.466  -1.592   0.978 -0.9916  0.4370  0.2641
   12CHTO   C51 4947   6.199  -1.546   0.763  0.1714 -0.0412  0.8577
   12CHTO   H93 4948   6.155  -1.645   0.774  1.5334 -0.7668 -0.0419
   12CHTO   O30 4949   6.194  -1.500   0.632 -0.0724 -0.1555  0.1230
   12CHTO   C46 4950   6.239  -1.598   0.536  0.0704  0.1759  0.1723
   12CHTO   H88 4951   6.192  -1.694   0.558  0.5416 -0.3970 -1.2552
   12CHTO   C53 4952   6.194  -1.542   0.397 -0.1255  0.1721  0.2787
   12CHTO   O72 4953   6.220  -1.402   0.379  0.4651 -0.2898  0.1371
   12CHTO  H199 4954   6.311  -1.379   0.373  0.3867 -0.1476 -0.5605
   12CHTO   O22 4955   6.121  -1.452   0.837 -0.4121 -0.0209 -0.1806
   12CHTO   C31 4956   5.976  -1.431   0.808  0.6156  1.1805  0.4033
   12CHTO   H59 4957   5.955  -1.469   0.706  2.5896  0.3348  0.3084
   12CHTO   C29 4958   5.892  -1.526   0.905  0.4447 -0.2515  0.2203
   12CHTO   H57 4959   5.928  -1.492   1.003 -2.1118  3.7675 -0.1211
   12CHTO   O21 4960   5.935  -1.667   0.893  0.3192 -0.2044 -0.2793
   12CHTO   H37 4961   6.020  -1.686   0.928 -0.2302 -2.5588 -0.1463
   12CHTO   C27 4962   5.740  -1.495   0.892 -0.7674 -0.1688  0.1562
   12CHTO   H55 4963   5.712  -1.526   0.791  1.5508 -0.3632 -0.4552
   12CHTO    N5 4964   5.662  -1.574   0.986 -0.8105 -0.1140  0.0875
   12CHTO   H43 4965   5.717  -1.598   1.075  1.0534  1.1283 -0.6971
   12CHTO   H44 4966   5.569  -1.521   1.003  0.5173  2.6674 -1.0749
   12CHTO   C25 4967   5.711  -1.343   0.897 -0.3598 -0.0317  0.6286
   12CHTO   H53 4968   5.743  -1.302   0.994 -0.8398  1.0909  0.3181
   12CHTO   O17 4969   5.792  -1.284   0.788 -0.1727 -0.2225 -0.4076
   12CHTO   C32 4970   5.933  -1.284   0.810  1.1311  0.3758 -0.0389
   12CHTO   H60 4971   5.954  -1.247   0.911 -2.0675 -2.3023  1.7057
   12CHTO   C36 4972   6.011  -1.220   0.695  0.0041 -0.2185  0.2568
   12CHTO   O25 4973   5.976  -1.082   0.683 -0.0611  0.4134  0.7565
   12CHTO   H40 4974   6.040  -1.017   0.707  0.0859  0.9512 -1.0369
   12CHTO   O15 4975   5.584  -1.308   0.880 -0.3949  0.4232 -0.0141
   12CHTO   C19 4976   5.493  -1.216   0.824  0.2124  0.3327 -0.8495
   12CHTO   H47 4977   5.536  -1.117   0.849 -0.6917  0.1628  1.5731
   12CHTO   C20 4978   5.474  -1.224   0.661 -0.2658 -0.5682 -0.5680
   12CHTO   H48 4979   5.440  -1.324   0.628 -1.1883  0.3415 -2.4632
   12CHTO   O19 4980   5.602  -1.208   0.602  0.1855  0.0320 -0.8292
   12CHTO   H35 4981   5.666  -1.205   0.670  0.8168  1.4412 -1.4752
   12CHTO   C21 4982   5.373  -1.117   0.605 -0.3854  0.3399 -0.1529
   12CHTO   H49 4983   5.414  -1.016   0.617 -0.5987  0.6903 -2.1058
   12CHTO    N4 4984   5.346  -1.129   0.462  0.0509 -0.0256  0.0550
   12CHTO   H41 4985   5.438  -1.123   0.407 -0.3786  0.5369 -0.6128
   12CHTO   H42 4986   5.287  -1.043   0.436  0.1645  0.2898  0.8309
   12CHTO   C22 4987   5.242  -1.111   0.689  0.1488 -0.2022  0.2302
   12CHTO   H50 4988   5.183  -1.199   0.664 -1.6549  1.1025 -0.1824
   12CHTO   O14 4989   5.274  -1.102   0.829 -0.2027 -0.3589  0.2596
   12CHTO   C23 4990   5.346  -1.219   0.883  0.6236 -0.8549  0.8356
   12CHTO   H51 4991   5.296  -1.316   0.867  0.1601 -0.6385  0.9703
   12CHTO   C34 4992   5.343  -1.210   1.031 -0.3279  0.0523 -0.4744
   12CHTO   O23 4993   5.397  -1.315   1.092  0.2499  0.1421  0.0282
   12CHTO   H38 4994   5.364  -1.296   1.177 -0.4531  0.2827 -0.2705
   12CHTO   O16 4995   5.160  -0.997   0.666 -0.0240 -0.2939  0.2234
   12CHTO   C24 4996   4.993  -1.007   0.689 -0.2692 -0.9884 -0.0901
   12CHTO   H52 4997   4.949  -0.908   0.697 -2.2127 -1.4270 -4.0514
   12CHTO   C26 4998   4.962  -1.093   0.817 -0.3103  0.1011  0.1126
   12CHTO   H54 4999   5.019  -1.188   0.809  0.8894  0.7905  0.3749
   12CHTO   O20 5000   5.009  -1.032   0.933 -0.2333  0.5930 -0.0153
   12CHTO   H36 5001   4.953  -0.957   0.944 -0.6948  0.4957 -1.6700
   12CHTO   C30 5002   4.809  -1.128   0.839  0.3597  0.3065  0.1461
   12CHTO   H58 5003   4.764  -1.031   0.865 -0.1280 -0.0194  0.5224
   12CHTO    N6 5004   4.782  -1.226   0.948  0.1895 -0.1548  0.3795
   12CHTO   H45 5005   4.830  -1.199   1.041 -2.3852 -1.3397  2.1239
   12CHTO   H46 5006   4.674  -1.226   0.960  0.0316 -0.3919 -0.9740
   12CHTO   C33 5007   4.744  -1.164   0.702  0.1362 -0.0569 -0.3365
   12CHTO   H61 5008   4.780  -1.261   0.665 -0.1797 -1.9076  3.8577
   12CHTO   O18 5009   4.782  -1.063   0.607  0.3032  0.3611 -0.7605
   12CHTO   C28 5010   4.921  -1.074   0.567 -0.0713 -0.2599 -0.4525
   12CHTO   H56 5011   4.947  -1.179   0.561  0.9456 -0.0381  0.0504
   12CHTO   C35 5012   4.933  -1.001   0.438 -0.2372 -0.5075 -0.4873
   12CHTO   O24 5013   4.870  -1.063   0.328  0.3237  0.1976  0.2210
   12CHTO   H39 5014   4.777  -1.050   0.319  0.4437  0.0613 -1.3007
   12CHTO    O9 5015   4.602  -1.172   0.706  0.1174  0.8538 -0.3451
   12CHTO   C13 5016   4.523  -1.309   0.644 -0.0925  0.4330  0.5359
   12CHTO   H26 5017   4.600  -1.357   0.580  1.4139  1.6868  1.3578
   12CHTO   C11 5018   4.387  -1.278   0.573  0.4349  0.0442  0.1821
   12CHTO   H24 5019   4.412  -1.216   0.486  2.7845  0.3646  1.0494
   12CHTO    O8 5020   4.304  -1.191   0.650 -1.0567  0.1994  0.4144
   12CHTO    H3 5021   4.219  -1.181   0.613 -0.9975  1.1562  0.5173
   12CHTO    C9 5022   4.314  -1.411   0.533  0.3169 -0.0526 -0.4084
   12CHTO   H22 5023   4.385  -1.471   0.474  0.7591 -2.7720  2.7401
   12CHTO    N2 5024   4.198  -1.404   0.439  0.2343 -0.1869  0.6420
   12CHTO   H10 5025   4.131  -1.320   0.448  1.5523  0.8880  0.4472
   12CHTO   H11 5026   4.224  -1.407   0.335 -0.9587  0.9335  0.3073
   12CHTO    C7 5027   4.275  -1.487   0.668 -0.5606 -0.9235 -0.3923
   12CHTO   H20 5028   4.234  -1.585   0.636 -1.3294 -0.3107 -1.2884
   12CHTO    O4 5029   4.396  -1.513   0.747  1.3062  0.2536 -0.4670
   12CHTO   C14 5030   4.492  -1.405   0.771  0.3841 -0.1292  0.8691
   12CHTO   H27 5031   4.573  -1.473   0.805 -1.3824 -2.5852  0.3517
   12CHTO   C18 5032   4.435  -1.331   0.898  0.1408 -0.1715 -0.0739
   12CHTO   O13 5033   4.425  -1.403   1.015 -0.2665 -0.1561  0.2331
   12CHTO    H7 5034   4.508  -1.436   1.045 -1.7004 -2.4918  1.8324
   12CHTO    O2 5035   4.163  -1.419   0.761  0.8215 -0.3203  0.6649
   12CHTO    C1 5036   4.041  -1.501   0.793 -0.1851  0.2482 -0.2402
   12CHTO   H14 5037   4.054  -1.597   0.738  0.5171 -0.1211  0.5513
   12CHTO    C2 5038   3.912  -1.424   0.757 -0.5177  0.1234 -0.6708
   12CHTO   H15 5039   3.931  -1.320   0.788 -1.8740 -0.1144  1.1180
   12CHTO    O6 5040   3.907  -1.431   0.612  0.1564 -0.1270 -0.0687
   12CHTO    H1 5041   3.850  -1.366   0.575  0.8083  0.4557 -0.0759
   12CHTO    C3 5042   3.778  -1.476   0.824  0.6149  0.4822 -0.2947
   12CHTO   H16 5043   3.759  -1.571   0.770  2.7465 -0.7824  1.0990
   12CHTO    N1 5044   3.660  -1.376   0.811  0.2167  0.2211 -0.6933
   12CHTO    H8 5045   3.565  -1.418   0.842  0.4165  0.6237  0.4734
   12CHTO    H9 5046   3.679  -1.286   0.866  0.3481 -0.0133 -0.3512
   12CHTO    C4 5047   3.801  -1.519   0.971  1.1459  0.2834  0.2061
   12CHTO   H17 5048   3.805  -1.429   1.034 -3.1807  0.1268  0.8689
   12CHTO    O1 5049   3.920  -1.590   0.979 -0.9253  0.0669 -0.3798
   12CHTO    C5 5050   4.041  -1.528   0.944  0.4323 -0.5222 -0.1622
   12CHTO   H18 5051   4.048  -1.432   0.996 -0.1888 -0.4762 -0.1631
   12CHTO   C16 5052   4.154  -1.623   0.982 -0.5433  0.4662 -0.4619
   12CHTO   O11 5053   4.160  -1.637   1.121  0.2376 -0.6844 -0.4254
   12CHTO    H5 5054   4.235  -1.585   1.143 -1.0100  1.7588 -1.8322
   12CHTO    O3 5055   3.696  -1.600   1.025 -0.8522  0.1394 -0.3060
   12CHTO    C6 5056   3.725  -1.699   1.130  0.1993  0.0689 -0.5876
   12CHTO   H19 5057   3.830  -1.719   1.149  0.1477 -0.7469 -1.1321
   12CHTO    C8 5058   3.674  -1.655   1.271 -0.0207  0.4227 -0.0359
   12CHTO   H21 5059   3.569  -1.629   1.258  0.2980  1.7285 -0.0801
   12CHTO    O7 5060   3.743  -1.534   1.319 -0.4479  0.1161 -0.2968
   12CHTO    H2 5061   3.688  -1.459   1.307 -0.8632 -0.4543 -2.0353
   12CHTO   C12 5062   3.689  -1.768   1.376 -1.0517  0.6217  0.9131
   12CHTO   H25 5063   3.797  -1.763   1.397 -0.9628 -1.0471  0.9514
   12CHTO    N3 5064   3.619  -1.720   1.505  0.0456  0.4206  0.0537
   12CHTO   H12 5065   3.675  -1.748   1.593  1.6073  1.7875 -0.4766
   12CHTO   H13 5066   3.606  -1.613   1.505 -0.3982  0.3716  0.4632
   12CHTO   C15 5067   3.646  -1.909   1.323 -0.0133  0.7496  0.1196
   12CHTO   H28 5068   3.538  -1.921   1.325  0.1561 -1.3147 -1.1291
   12CHTO   O10 5069   3.708  -2.028   1.399  0.1729 -0.3016 -0.1671
   12CHTO    H4 5070   3.737  -2.096   1.341 -3.2964 -1.0512 -1.2058
   12CHTO    O5 5071   3.706  -1.932   1.191 -0.0586  0.5807  0.0773
   12CHTO   C10 5072   3.665  -1.840   1.090  0.5786 -0.3498  0.3598
   12CHTO   H23 5073   3.558  -1.823   1.075  0.5976  0.9330  1.6114
   12CHTO   C17 5074   3.722  -1.885   0.954  0.3729  0.0032  0.2230
   12CHTO   O12 5075   3.854  -1.930   0.937  0.3192  0.2807 -0.6522
   12CHTO    H6 5076   3.874  -1.969   0.854 -1.8909  0.5253 -1.3510
   13CHTO  H203 5077   7.275   4.263   2.486  0.8208 -0.1291 -0.2000
   13CHTO   O82 5078   7.245   4.241   2.400 -0.0507 -0.4885  0.1892
   13CHTO  C123 5079   7.163   4.345   2.343 -0.0636 -0.0631 -0.8554
   13CHTO  H227 5080   7.157   4.327   2.235 -1.1468 -1.7574 -0.5134
   13CHTO   O77 5081   7.032   4.335   2.407 -0.2436  0.2826 -0.0179
   13CHTO  C118 5082   6.939   4.427   2.352  0.2524 -0.3698  0.0538
   13CHTO  H222 5083   6.933   4.433   2.242 -1.0527  0.3394  0.1552
   13CHTO  C125 5084   6.800   4.359   2.405 -0.4884  0.0336  0.4363
   13CHTO   O84 5085   6.773   4.243   2.323 -0.0298  0.0207 -0.0377
   13CHTO  H205 5086   6.835   4.174   2.339 -0.3943 -0.8814 -2.3653
   13CHTO  C114 5087   6.968   4.569   2.405  0.0614 -0.1498 -0.0613
   13CHTO  H218 5088   6.967   4.567   2.514  0.8633  1.1790 -0.0247
   13CHTO  C116 5089   7.116   4.607   2.360  0.0504  0.7422 -0.2294
   13CHTO  H220 5090   7.121   4.645   2.256 -0.0634 -3.1246 -1.7276
   13CHTO   O79 5091   7.155   4.712   2.447 -0.6243  0.1444  0.4995
   13CHTO  H201 5092   7.224   4.761   2.407 -0.4489  1.4041  2.3112
   13CHTO  C120 5093   7.217   4.488   2.379  0.0940  0.2191  0.7258
   13CHTO  H224 5094   7.245   4.479   2.486  0.9192 -0.1161  0.4885
   13CHTO   N21 5095   7.344   4.515   2.304  0.4873 -0.0813 -0.3486
   13CHTO  H211 5096   7.332   4.531   2.198 -1.0433  1.0961 -0.0155
   13CHTO  H212 5097   7.420   4.440   2.323 -0.2472 -0.5991  0.5875
   13CHTO   O75 5098   6.874   4.657   2.341 -0.2680  0.3720 -0.1347
   13CHTO  C112 5099   6.768   4.698   2.442  0.5037  0.4001  0.2832
   13CHTO  H216 5100   6.802   4.682   2.546  2.3874 -0.2802 -0.4269
   13CHTO   O73 5101   6.651   4.617   2.415 -0.1100  0.5556  0.3903
   13CHTO  C113 5102   6.542   4.628   2.504 -0.3448 -0.2126  0.2804
   13CHTO  H217 5103   6.574   4.593   2.604  0.3185 -1.9243 -0.5071
   13CHTO  C124 5104   6.437   4.529   2.451 -0.2433  0.5432  0.3701
   13CHTO   O83 5105   6.491   4.397   2.427  0.2052 -0.1130  1.0686
   13CHTO  H204 5106   6.422   4.334   2.425  1.1975 -1.2109 -1.4129
   13CHTO  C109 5107   6.491   4.775   2.506 -0.6946  0.0817  0.4699
   13CHTO  H213 5108   6.459   4.797   2.403 -0.2068 -0.6951  0.1467
   13CHTO  C110 5109   6.608   4.878   2.533  0.0469  0.1953 -0.3282
   13CHTO  H214 5110   6.640   4.861   2.635 -0.8594  4.0254  0.6897
   13CHTO   O78 5111   6.560   5.010   2.538  0.4842  0.1834 -0.3339
   13CHTO  H200 5112   6.633   5.070   2.545  0.2884  0.7049 -2.5696
   13CHTO  C111 5113   6.727   4.853   2.438 -0.1338  0.0480 -0.1054
   13CHTO  H215 5114   6.699   4.880   2.336  1.0321  0.5091 -0.3138
   13CHTO   N19 5115   6.851   4.931   2.469 -0.9667 -0.1743 -0.0035
   13CHTO  H207 5116   6.869   5.012   2.401  1.7782 -0.1232  0.7090
   13CHTO  H208 5117   6.847   4.951   2.575 -0.8006 -0.3152  0.0310
   13CHTO   O74 5118   6.377   4.788   2.604 -0.1771 -0.4042  0.3787
   13CHTO  C115 5119   6.255   4.897   2.559  0.1255 -0.1759 -0.1312
   13CHTO  H219 5120   6.292   5.000   2.554  0.5959 -0.3549 -0.4170
   13CHTO   O76 5121   6.205   4.864   2.405 -0.2953  0.0206 -0.4604
   13CHTO  C122 5122   6.109   4.759   2.400  0.0015 -0.1911 -0.0083
   13CHTO  H226 5123   6.144   4.667   2.447  0.5043  0.1485  0.2843
   13CHTO  C126 5124   6.087   4.728   2.251 -0.7395 -0.1684  0.2507
   13CHTO   O85 5125   6.210   4.689   2.183  0.1598  0.2610 -0.2840
   13CHTO  H206 5126   6.228   4.597   2.178 -0.5120  0.1420 -0.6534
   13CHTO  C121 5127   5.974   4.820   2.463  0.0077  0.0677  0.0747
   13CHTO  H225 5128   5.928   4.881   2.383  0.1496  2.3676  1.7048
   13CHTO   O81 5129   5.885   4.711   2.503  0.3552  0.4628 -0.2690
   13CHTO  H202 5130   5.793   4.725   2.488  0.5415  1.9137 -0.1052
   13CHTO  C119 5131   6.000   4.912   2.585 -0.0349  0.0549 -0.2772
   13CHTO  H223 5132   6.023   5.014   2.554  0.4966  0.8451  2.5763
   13CHTO  C117 5133   6.134   4.875   2.662  0.6387 -1.0652  0.5116
   13CHTO  H221 5134   6.147   4.774   2.700  1.2032 -1.0408  0.3891
   13CHTO   N20 5135   6.157   4.964   2.782 -0.1048 -0.0770 -0.0335
   13CHTO  H209 5136   6.255   4.932   2.815 -0.2054 -0.4595 -0.1047
   13CHTO  H210 5137   6.171   5.066   2.749  2.0840 -0.5137 -0.5193
   13CHTO   O80 5138   5.869   4.930   2.665 -0.5878 -0.0715 -0.5416
   13CHTO  C103 5139   5.843   5.071   2.757 -0.4357 -0.1977 -0.0711
   13CHTO  H190 5140   5.908   5.071   2.844  0.9484 -1.0056 -1.0952
   13CHTO  C101 5141   5.855   5.208   2.690 -0.2004  0.0043 -0.0957
   13CHTO  H188 5142   5.798   5.212   2.597 -2.1287  1.3057  1.1003
   13CHTO   O68 5143   6.013   5.238   2.666 -0.7747 -0.2194 -0.1134
   13CHTO  H168 5144   6.031   5.329   2.677  3.8878 -1.1284  1.0213
   13CHTO   C99 5145   5.798   5.328   2.774  0.2460 -0.2696  0.3343
   13CHTO  H186 5146   5.856   5.323   2.869  0.9210  0.7057 -0.0186
   13CHTO   N17 5147   5.813   5.471   2.726  0.0944  0.0743  0.2741
   13CHTO  H174 5148   5.778   5.533   2.807  0.3981  0.2442  0.2758
   13CHTO  H175 5149   5.766   5.490   2.630  0.8507 -0.3539 -0.1919
   13CHTO   C97 5150   5.651   5.285   2.813 -0.1346  0.6669  0.4596
   13CHTO  H184 5151   5.600   5.267   2.718  0.1082  1.8279  0.0995
   13CHTO   O64 5152   5.653   5.166   2.891 -0.9105  0.4431  0.4833
   13CHTO  C104 5153   5.700   5.054   2.809  0.5072  0.1792 -0.1647
   13CHTO  H191 5154   5.635   5.033   2.724 -0.7118  0.3896  0.6956
   13CHTO  C108 5155   5.686   4.933   2.899 -0.1434 -0.4798  0.0630
   13CHTO   O71 5156   5.550   4.899   2.931  0.7702  0.4014  0.3921
   13CHTO  H171 5157   5.527   4.933   3.015  0.2046  1.3083 -0.1269
   13CHTO   O62 5158   5.580   5.373   2.894  0.4096 -0.7791 -0.1006
   13CHTO   C91 5159   5.445   5.413   2.854  0.3342  0.1042 -0.2002
   13CHTO  H178 5160   5.431   5.400   2.746 -2.9907  2.7720 -0.1570
   13CHTO   C92 5161   5.430   5.567   2.881 -0.5573 -0.1681  0.2913
   13CHTO  H179 5162   5.456   5.598   2.984 -0.7447  1.6852 -0.1960
   13CHTO   O66 5163   5.536   5.626   2.803  0.1671 -0.0639 -0.1809
   13CHTO  H166 5164   5.579   5.690   2.857  1.4774  0.0705 -1.3533
   13CHTO   C93 5165   5.289   5.620   2.852  0.2207  0.4236 -0.8117
   13CHTO  H180 5166   5.274   5.609   2.743 -1.2473 -1.2591 -0.4564
   13CHTO   N16 5167   5.274   5.767   2.886 -0.7075 -0.5137  0.1297
   13CHTO  H172 5168   5.332   5.783   2.976  1.0264 -1.1703 -0.8538
   13CHTO  H173 5169   5.169   5.782   2.907 -0.6771  0.4001 -0.3555
   13CHTO   C94 5170   5.180   5.528   2.930 -0.1210 -0.2116  0.2633
   13CHTO  H181 5171   5.186   5.540   3.038 -2.7520  0.9717  0.3016
   13CHTO   O61 5172   5.201   5.389   2.893 -0.1905 -0.3377 -0.1896
   13CHTO   C95 5173   5.327   5.335   2.926  0.0530  0.8315 -0.7891
   13CHTO  H182 5174   5.338   5.346   3.035 -2.3181 -0.4058 -0.4074
   13CHTO  C106 5175   5.321   5.178   2.890 -0.7319 -0.0471  0.6114
   13CHTO   O69 5176   5.261   5.099   2.989 -0.4383  0.1772  0.3372
   13CHTO  H169 5177   5.184   5.054   2.959 -0.3610  1.3415 -1.7030
   13CHTO   O63 5178   5.029   5.562   2.887 -0.0837 -0.1222 -0.0975
   13CHTO   C96 5179   4.912   5.442   2.883 -0.2717 -1.1993 -0.2600
   13CHTO  H183 5180   4.814   5.489   2.874  1.0050  1.5787 -0.1892
   13CHTO   C98 5181   4.913   5.365   3.022  0.5028  0.5190 -0.4904
   13CHTO  H185 5182   5.009   5.317   3.048 -1.5248 -2.7553  1.1573
   13CHTO   O67 5183   4.897   5.458   3.132  0.1953 -0.1130  0.1528
   13CHTO  H167 5184   4.821   5.510   3.114  0.1925 -0.0204  0.4296
   13CHTO  C102 5185   4.791   5.254   3.034 -0.7595 -0.4552  0.1073
   13CHTO  H189 5186   4.699   5.313   3.050 -1.1279 -1.2165  0.8854
   13CHTO   N18 5187   4.797   5.164   3.152  0.7636  0.8343  0.4664
   13CHTO  H176 5188   4.880   5.095   3.158  0.2248  0.2634  1.3055
   13CHTO  H177 5189   4.788   5.213   3.248  0.0195 -1.3186  1.5377
   13CHTO  C105 5190   4.757   5.189   2.897 -0.5758 -0.7385 -0.1268
   13CHTO  H192 5191   4.810   5.094   2.891 -1.0754 -0.9942 -0.5458
   13CHTO   O65 5192   4.797   5.265   2.778  0.8919 -0.0305 -0.9905
   13CHTO  C100 5193   4.926   5.331   2.777  0.2121 -0.3564  0.0701
   13CHTO  H187 5194   5.007   5.264   2.807  1.5139  1.4199  0.6307
   13CHTO  C107 5195   4.941   5.401   2.636 -0.0487  0.5732 -0.2070
   13CHTO   O70 5196   4.982   5.307   2.530 -0.4634  0.3143  0.3212
   13CHTO  H170 5197   5.070   5.283   2.553 -0.5513  1.5083  1.9397
   13CHTO   O57 5198   4.605   5.151   2.897 -0.2150  0.6630 -0.6261
   13CHTO   C85 5199   4.506   5.250   2.874  0.3604  0.4065 -0.2607
   13CHTO  H157 5200   4.557   5.347   2.857 -0.0560  0.4420 -1.3468
   13CHTO   C83 5201   4.429   5.273   3.009 -0.4640 -0.1259 -0.1646
   13CHTO  H155 5202   4.500   5.294   3.090  0.1683 -1.6293 -0.3267
   13CHTO   O56 5203   4.374   5.147   3.043 -0.1406 -0.7690  0.3043
   13CHTO  H135 5204   4.292   5.137   2.998  0.3750  1.6539 -1.2933
   13CHTO   C81 5205   4.331   5.392   2.984 -0.5710  0.6711  0.3472
   13CHTO  H153 5206   4.386   5.480   2.952 -0.5875  0.6868  0.3617
   13CHTO   N14 5207   4.269   5.452   3.110  0.4134 -0.1965 -0.0902
   13CHTO  H141 5208   4.171   5.495   3.097 -0.4318 -1.3058  2.4463
   13CHTO  H142 5209   4.340   5.530   3.130 -1.1791  0.9265  1.3037
   13CHTO   C79 5210   4.228   5.364   2.877 -0.0903 -0.2090  0.8046
   13CHTO  H151 5211   4.172   5.456   2.860  0.7494  0.1608 -0.0242
   13CHTO   O52 5212   4.306   5.335   2.754  0.3373 -0.9500  0.2644
   13CHTO   C86 5213   4.399   5.220   2.755  0.1865 -0.1361 -0.2248
   13CHTO  H158 5214   4.333   5.132   2.775 -0.2788  1.0888  4.1242
   13CHTO   C90 5215   4.461   5.198   2.616  0.2613  0.2928  0.5086
   13CHTO   O60 5216   4.536   5.074   2.619  0.2297  0.8473  0.6256
   13CHTO  H138 5217   4.499   5.015   2.555  0.0756  1.4314  0.1689
   13CHTO   O50 5218   4.133   5.261   2.900  0.2462 -0.4162  0.1065
   13CHTO   C73 5219   4.018   5.221   2.818  0.9487  0.0548  0.2378
   13CHTO  H145 5220   4.051   5.225   2.713 -1.5871  1.7016 -0.5336
   13CHTO   C74 5221   3.895   5.320   2.845 -0.9486  0.3564  0.1156
   13CHTO  H146 5222   3.928   5.422   2.819  0.0912 -0.1452 -0.5759
   13CHTO   O54 5223   3.786   5.305   2.759  0.1678  0.3832  0.6099
   13CHTO  H133 5224   3.810   5.265   2.677  0.1091 -0.1650  0.8602
   13CHTO   C75 5225   3.853   5.306   2.998 -0.2583 -0.5648  0.3276
   13CHTO  H147 5226   3.944   5.328   3.057  0.7755  0.0013 -1.4364
   13CHTO   N13 5227   3.749   5.398   3.042  0.1717 -1.2517  0.1507
   13CHTO  H139 5228   3.686   5.433   2.962  2.4470 -1.0032 -1.6085
   13CHTO  H140 5229   3.687   5.347   3.114  0.3792  3.0108  3.5784
   13CHTO   C76 5230   3.807   5.154   3.024 -0.6144 -0.3310 -0.1847
   13CHTO  H148 5231   3.724   5.151   2.955  0.1273  1.8847 -1.2130
   13CHTO   O49 5232   3.910   5.059   2.981 -0.3343 -0.0709 -0.6251
   13CHTO   C77 5233   3.967   5.078   2.850 -0.2113  0.3420 -0.2066
   13CHTO  H149 5234   3.901   5.046   2.769  0.4404  0.4926 -0.8008
   13CHTO   C88 5235   4.088   4.978   2.840  0.6551 -0.1639 -0.3267
   13CHTO   O58 5236   4.031   4.839   2.837  0.4225 -0.0553  0.5683
   13CHTO  H136 5237   4.099   4.775   2.838  0.1856 -0.3538 -1.1189
   13CHTO   O51 5238   3.782   5.119   3.194  0.6218  0.4449  0.0842
   13CHTO   C78 5239   3.886   5.156   3.320 -0.2011  0.0933 -0.7559
   13CHTO  H150 5240   3.867   5.092   3.409 -2.4476 -1.7296 -2.4669
   13CHTO   C80 5241   3.864   5.310   3.358  0.1662  0.0618 -0.1635
   13CHTO  H152 5242   3.887   5.366   3.265  0.9199 -0.0382 -0.0478
   13CHTO   O55 5243   3.724   5.325   3.399  0.2565 -0.3010 -0.3710
   13CHTO  H134 5244   3.694   5.413   3.385 -1.6098 -0.7432  0.5970
   13CHTO   C84 5245   3.963   5.363   3.472  0.0948  0.0679 -0.6656
   13CHTO  H156 5246   3.945   5.303   3.561 -0.3016  1.7482  0.4084
   13CHTO   N15 5247   3.945   5.509   3.502  0.3832 -0.3306  0.0053
   13CHTO  H143 5248   3.982   5.574   3.425  0.2145 -1.8513 -1.3991
   13CHTO  H144 5249   3.977   5.537   3.600  0.3362  1.9511 -0.6067
   13CHTO   C87 5250   4.110   5.335   3.432  0.4872 -0.0982 -0.3081
   13CHTO  H159 5251   4.136   5.398   3.347  0.3135  0.9457  0.4018
   13CHTO   O53 5252   4.114   5.167   3.380 -0.5169  0.1539  0.0253
   13CHTO   C82 5253   4.030   5.135   3.269 -0.1405 -0.2370  0.3846
   13CHTO  H154 5254   4.052   5.194   3.180  0.4368  2.8336  2.4888
   13CHTO   C89 5255   4.063   4.985   3.239  0.2503  0.0510 -0.3740
   13CHTO   O59 5256   4.195   4.963   3.197 -0.3285  0.0572 -0.2430
   13CHTO  H137 5257   4.245   4.992   3.271 -0.5286 -0.3289  0.0479
   13CHTO   O45 5258   4.207   5.350   3.548 -0.2633 -0.1959  0.2889
   13CHTO   C67 5259   4.344   5.371   3.513  0.0121  0.1800  0.8857
   13CHTO  H124 5260   4.356   5.344   3.408  0.3212  0.2768  0.8968
   13CHTO   C65 5261   4.391   5.517   3.541 -0.2323  0.2000 -0.2998
   13CHTO  H122 5262   4.315   5.583   3.500 -0.7224 -1.1021 -1.5386
   13CHTO   O44 5263   4.512   5.544   3.471  0.3898 -0.1778  0.0551
   13CHTO  H102 5264   4.497   5.567   3.381  1.4861  2.2814  0.4586
   13CHTO   C63 5265   4.395   5.539   3.695 -0.7308  0.0600 -0.5011
   13CHTO  H120 5266   4.301   5.504   3.738  1.1291 -3.0721  1.2158
   13CHTO   N11 5267   4.384   5.678   3.751  0.6256  0.1273  0.0662
   13CHTO  H108 5268   4.282   5.704   3.735  0.4107 -2.1387 -2.5429
   13CHTO  H109 5269   4.429   5.688   3.847  0.9384  0.7989 -0.1430
   13CHTO   C61 5270   4.508   5.443   3.755  0.4301 -0.3696  0.6852
   13CHTO  H118 5271   4.482   5.415   3.858 -0.7705  1.4505  0.8962
   13CHTO   O40 5272   4.534   5.329   3.684  0.4898 -0.5662 -0.7995
   13CHTO   C68 5273   4.435   5.267   3.588  0.1775 -0.0368  0.0310
   13CHTO  H125 5274   4.373   5.195   3.646 -0.1856 -0.1074 -0.4396
   13CHTO   C72 5275   4.527   5.181   3.498 -0.2667  0.3411  0.0557
   13CHTO   O48 5276   4.447   5.102   3.407  0.3027  0.5998  0.2050
   13CHTO  H105 5277   4.483   5.107   3.320  1.4345  0.1409  0.6463
   13CHTO   O38 5278   4.631   5.517   3.761 -0.0530  0.6474 -0.2622
   13CHTO   C55 5279   4.732   5.468   3.848  0.3778 -0.1988 -0.7294
   13CHTO  H112 5280   4.717   5.364   3.880  0.1274  0.1276  0.2022
   13CHTO   C56 5281   4.737   5.571   3.974 -0.1097 -0.2063  0.2234
   13CHTO  H113 5282   4.770   5.669   3.938 -1.5755 -0.0651 -0.7784
   13CHTO   O42 5283   4.602   5.580   4.022 -0.0133  0.3417 -0.2532
   13CHTO  H100 5284   4.581   5.665   4.055  1.3960  0.9147 -0.7497
   13CHTO   C57 5285   4.841   5.515   4.075  0.5915  0.3302  0.3164
   13CHTO  H114 5286   4.807   5.415   4.101 -1.3429  1.6395  3.0223
   13CHTO   N10 5287   4.845   5.582   4.211 -0.9116  0.6506  0.0868
   13CHTO  H106 5288   4.747   5.625   4.228 -1.2261  0.0483 -0.1738
   13CHTO  H107 5289   4.916   5.662   4.207 -2.2050  1.7629 -1.1050
   13CHTO   C58 5290   4.980   5.505   4.009  0.8382 -0.2493  0.6193
   13CHTO  H115 5291   5.006   5.607   3.976 -0.1341 -0.2943 -0.3097
   13CHTO   O37 5292   4.968   5.414   3.892  0.1884 -0.0351  0.2328
   13CHTO   C59 5293   4.875   5.464   3.788  0.3089 -0.0412 -0.3496
   13CHTO  H116 5294   4.900   5.566   3.757  0.5442  0.3302  0.9844
   13CHTO   C70 5295   4.876   5.363   3.672  0.0769  0.1211 -0.0525
   13CHTO   O46 5296   5.000   5.354   3.607  0.0320 -0.0465 -0.1981
   13CHTO  H103 5297   5.066   5.336   3.671 -1.5746  2.0833  2.1273
   13CHTO   O39 5298   5.097   5.446   4.108  0.1715  0.0509 -0.0441
   13CHTO   C60 5299   5.229   5.483   4.063  0.2639  0.0257  0.3867
   13CHTO  H117 5300   5.221   5.503   3.956  1.4134  2.3164  0.7074
   13CHTO   C62 5301   5.277   5.612   4.143 -0.3128  0.3357 -0.5666
   13CHTO  H119 5302   5.208   5.693   4.113  0.1873  1.0257  0.1294
   13CHTO   O43 5303   5.261   5.582   4.285 -0.1503 -0.8028 -0.4405
   13CHTO  H101 5304   5.171   5.584   4.312 -0.7184  1.2802 -2.3507
   13CHTO   C66 5305   5.421   5.643   4.097 -0.2934 -0.4568 -0.2678
   13CHTO  H123 5306   5.413   5.663   3.990 -1.6068  1.4207  0.1770
   13CHTO   N12 5307   5.461   5.770   4.156  0.4874 -0.4892 -0.5757
   13CHTO  H110 5308   5.564   5.785   4.128  1.3088 -2.1634  1.4224
   13CHTO  H111 5309   5.444   5.760   4.263 -2.6204 -0.3867 -1.0132
   13CHTO   C69 5310   5.521   5.527   4.133 -0.3952  0.1768  0.4656
   13CHTO  H126 5311   5.536   5.503   4.240  3.0037 -0.9433 -0.2217
   13CHTO   O41 5312   5.471   5.398   4.046 -0.2097  0.3055  0.5799
   13CHTO   C64 5313   5.327   5.361   4.081 -0.2895 -0.6563 -0.1376
   13CHTO  H121 5314   5.324   5.331   4.188 -1.4508 -0.2782 -0.0591
   13CHTO   C71 5315   5.283   5.234   4.005  1.4933  0.1078  0.3024
   13CHTO   O47 5316   5.297   5.255   3.861  0.1550 -0.0812 -0.1342
   13CHTO  H104 5317   5.238   5.321   3.829 -0.6673  0.7373  2.9558
   13CHTO   O34 5318   5.671   5.562   4.092 -0.1266  0.7952  0.0840
   13CHTO   C49 5319   5.829   5.605   4.086  0.0591  0.9044 -0.3051
   13CHTO   H91 5320   5.893   5.522   4.055  0.0516  0.2023  1.5037
   13CHTO   C47 5321   5.889   5.662   4.218  0.2028  0.3969 -0.4291
   13CHTO   H89 5322   5.998   5.676   4.205  0.1761 -1.1633 -2.4457
   13CHTO   O33 5323   5.872   5.555   4.317  0.0198  0.3358  0.3608
   13CHTO   H70 5324   5.788   5.512   4.318  0.5133 -0.6389  2.5721
   13CHTO   C45 5325   5.813   5.795   4.249 -0.3917  0.1576  0.0181
   13CHTO   H87 5326   5.709   5.762   4.256  0.2515 -2.2451 -1.1940
   13CHTO    N8 5327   5.859   5.848   4.385 -0.0655 -0.2287  0.5158
   13CHTO   H75 5328   5.795   5.819   4.466 -2.4399  0.7777 -0.9231
   13CHTO   H76 5329   5.960   5.816   4.402 -0.6005 -2.5725 -0.4813
   13CHTO   C43 5330   5.831   5.907   4.131  0.3748 -0.2303  0.5233
   13CHTO   H85 5331   5.759   5.984   4.161  0.3046 -0.6992  1.5754
   13CHTO   O29 5332   5.794   5.844   4.007 -0.0909  0.2233 -0.0288
   13CHTO   C50 5333   5.839   5.708   3.976 -1.2818  0.3591  0.6738
   13CHTO   H92 5334   5.786   5.656   3.895  0.3862 -1.5216  0.7195
   13CHTO   C54 5335   5.981   5.708   3.910 -0.7310  0.3820 -0.3630
   13CHTO   O36 5336   5.972   5.732   3.771 -0.1193  0.2493  0.0427
   13CHTO   H72 5337   6.030   5.676   3.723  0.1026  1.1734 -0.7971
   13CHTO   O27 5338   5.959   5.976   4.115  0.4245 -0.2357  0.0735
   13CHTO   C37 5339   5.961   6.118   4.100 -0.8003 -1.0055 -0.3043
   13CHTO   H79 5340   5.862   6.166   4.108 -0.5005 -0.4006 -0.1775
   13CHTO   C38 5341   6.054   6.195   4.203 -0.6358 -0.0178  0.0528
   13CHTO   H80 5342   6.155   6.154   4.185 -0.9428 -1.3888  1.3425
   13CHTO   O31 5343   6.006   6.163   4.336  0.1153 -0.3550 -0.1584
   13CHTO   H68 5344   6.026   6.228   4.401 -0.6109 -1.0935  0.8308
   13CHTO   C39 5345   6.062   6.348   4.179  0.9504 -0.4584 -0.5744
   13CHTO   H81 5346   5.966   6.396   4.196  1.3152 -0.3572  1.2541
   13CHTO    N7 5347   6.158   6.415   4.277  0.3941 -0.1725 -0.3406
   13CHTO   H73 5348   6.098   6.464   4.353  0.1090  1.6988 -1.7448
   13CHTO   H74 5349   6.232   6.482   4.236  1.3101 -0.1725  1.2514
   13CHTO   C40 5350   6.104   6.378   4.031 -0.0709  0.5487 -0.5328
   13CHTO   H82 5351   6.206   6.343   4.020 -0.0819 -0.2077  1.5318
   13CHTO   O26 5352   6.011   6.300   3.952  0.4391  0.4138 -0.6962
   13CHTO   C41 5353   6.024   6.156   3.963  0.4719  0.4147  0.2559
   13CHTO   H83 5354   6.129   6.121   3.961  0.6845  0.9362  1.8520
   13CHTO   C52 5355   5.933   6.102   3.842  0.2405 -0.4908  0.2070
   13CHTO   O35 5356   5.979   6.161   3.710  0.5600  0.2763 -0.0967
   13CHTO   H71 5357   6.049   6.222   3.723  1.1017 -0.2673 -0.4457
   13CHTO   O28 5358   6.076   6.518   4.006 -0.6518  0.0664  0.1301
   13CHTO   C42 5359   6.147   6.605   3.915 -0.2124  0.0050 -0.2953
   13CHTO   H84 5360   6.230   6.540   3.887  0.1228  0.1030  0.4628
   13CHTO   C44 5361   6.214   6.740   3.982 -0.5465 -0.2939 -0.5738
   13CHTO   H86 5362   6.137   6.784   4.044  2.6096  1.9555  1.9035
   13CHTO   O32 5363   6.323   6.685   4.059  0.1218 -0.0803  0.2861
   13CHTO   H69 5364   6.328   6.725   4.143  0.3031  0.4874  0.0084
   13CHTO   C48 5365   6.255   6.847   3.878  0.0304 -0.7470  0.6289
   13CHTO   H90 5366   6.345   6.804   3.833  0.1787  0.8621 -0.6966
   13CHTO    N9 5367   6.305   6.976   3.941  0.5154 -0.2331 -0.3610
   13CHTO   H77 5368   6.402   7.011   3.909  0.5192 -0.0048 -0.1075
   13CHTO   H78 5369   6.236   7.057   3.924 -0.0859 -0.9626 -1.4650
   13CHTO   C51 5370   6.135   6.864   3.776 -0.0193 -0.0821 -0.2487
   13CHTO   H93 5371   6.046   6.885   3.835 -3.1659 -0.9683 -4.4504
   13CHTO   O30 5372   6.126   6.737   3.709  0.3046 -0.1424 -0.6140
   13CHTO   C46 5373   6.065   6.632   3.786  1.0007 -0.5705 -0.6064
   13CHTO   H88 5374   5.970   6.674   3.817  0.9658 -1.0775  0.0022
   13CHTO   C53 5375   6.049   6.503   3.700 -0.0565 -0.3390  0.1688
   13CHTO   O72 5376   5.980   6.530   3.574  0.1881 -0.1708  0.2642
   13CHTO  H199 5377   5.968   6.445   3.535  1.2801 -1.2440  2.1548
   13CHTO   O22 5378   6.157   6.964   3.672 -0.3365  0.2279 -0.6113
   13CHTO   C31 5379   6.051   7.027   3.596 -0.3626  0.8879 -0.1774
   13CHTO   H59 5380   6.102   7.097   3.527  2.0631  0.5393  1.2022
   13CHTO   C29 5381   5.977   6.926   3.515  0.0317  0.1785  0.3925
   13CHTO   H57 5382   5.938   6.848   3.581  0.4803 -0.0178  0.4307
   13CHTO   O21 5383   6.070   6.862   3.431  0.0302  0.4920 -0.0169
   13CHTO   H37 5384   6.032   6.802   3.369 -0.9453  1.8280 -0.7347
   13CHTO   C27 5385   5.856   6.988   3.431 -1.1959 -0.0136  0.1065
   13CHTO   H55 5386   5.892   7.053   3.350 -0.9205 -0.3015 -0.0041
   13CHTO    N5 5387   5.771   6.884   3.373  0.4705  0.1089  0.5513
   13CHTO   H43 5388   5.721   6.920   3.284  0.1423 -0.8512  0.3346
   13CHTO   H44 5389   5.693   6.851   3.440  0.4220 -2.2419 -0.5897
   13CHTO   C25 5390   5.772   7.084   3.521 -0.1109  0.1123 -0.5049
   13CHTO   H53 5391   5.728   7.018   3.597 -1.1188 -0.7408 -1.8134
   13CHTO   O17 5392   5.858   7.183   3.591 -0.1987 -0.5498 -0.4319
   13CHTO   C32 5393   5.956   7.117   3.681  0.2197 -0.1503  0.0622
   13CHTO   H60 5394   5.907   7.065   3.763 -1.1612  1.9948  0.6420
   13CHTO   C36 5395   6.031   7.229   3.740 -0.4679  0.3654 -0.0148
   13CHTO   O25 5396   5.951   7.331   3.791  0.0465  0.1386  0.2599
   13CHTO   H40 5397   5.901   7.297   3.862  0.3308  1.3879  1.0814
   13CHTO   O15 5398   5.667   7.171   3.427  0.3517 -0.2249  0.1472
   13CHTO   C19 5399   5.547   7.229   3.474 -0.2902  0.3548  0.0239
   13CHTO   H47 5400   5.543   7.190   3.577 -0.9161  1.8833  0.6018
   13CHTO   C20 5401   5.541   7.387   3.479 -0.1010  0.1141  0.0458
   13CHTO   H48 5402   5.564   7.432   3.381  0.2290 -0.5376 -0.1792
   13CHTO   O19 5403   5.655   7.425   3.565 -0.0555  0.1849  0.0137
   13CHTO   H35 5404   5.738   7.400   3.528  0.0279  0.6749 -0.1280
   13CHTO   C21 5405   5.409   7.438   3.539 -0.8427  0.4527 -0.5058
   13CHTO   H49 5406   5.400   7.414   3.645 -1.5423 -0.6765 -0.8029
   13CHTO    N4 5407   5.386   7.592   3.529 -0.4829  0.9038 -0.2575
   13CHTO   H41 5408   5.447   7.630   3.609 -0.5238  0.1216  0.1578
   13CHTO   H42 5409   5.423   7.624   3.433  0.2703 -0.3253 -0.3860
   13CHTO   C22 5410   5.290   7.357   3.478 -0.1314 -0.7312 -0.2670
   13CHTO   H50 5411   5.273   7.389   3.375 -0.3785  0.0524  0.0125
   13CHTO   O14 5412   5.302   7.211   3.473  0.4753  0.0591 -0.0353
   13CHTO   C23 5413   5.420   7.170   3.403 -0.4776  0.1323 -0.9323
   13CHTO   H51 5414   5.410   7.201   3.298  1.0146  0.0918 -1.0864
   13CHTO   C34 5415   5.425   7.019   3.405 -0.4854 -0.4268  0.1686
   13CHTO   O23 5416   5.307   6.963   3.345 -0.0289 -0.4319  0.2163
   13CHTO   H38 5417   5.239   6.988   3.404 -1.2944  0.3013 -1.5080
   13CHTO   O16 5418   5.167   7.378   3.548  0.6055  0.2883  0.0479
   13CHTO   C24 5419   5.034   7.353   3.449 -0.6107 -0.6039 -0.6846
   13CHTO   H52 5420   5.060   7.312   3.352  2.0281  0.7324 -0.5823
   13CHTO   C26 5421   4.963   7.491   3.432  0.2143 -0.2334 -0.3674
   13CHTO   H54 5422   4.940   7.531   3.533  2.2582  0.4877 -0.1725
   13CHTO   O20 5423   5.056   7.582   3.380 -0.3789  0.4836 -0.2648
   13CHTO   H36 5424   5.009   7.659   3.353 -1.4999 -0.5453 -1.2478
   13CHTO   C30 5425   4.825   7.484   3.357  0.1949  0.6627 -0.3547
   13CHTO   H58 5426   4.829   7.452   3.252 -0.8577 -0.6011 -0.0171
   13CHTO    N6 5427   4.757   7.616   3.369  0.0396 -0.2469 -0.0589
   13CHTO   H45 5428   4.763   7.647   3.472 -0.2499  1.2536 -0.4866
   13CHTO   H46 5429   4.803   7.688   3.303 -0.4520 -0.0142 -0.1472
   13CHTO   C33 5430   4.741   7.372   3.430 -0.5337  0.6384 -0.2811
   13CHTO   H61 5431   4.721   7.409   3.531  0.2665 -0.7301  0.3885
   13CHTO   O18 5432   4.820   7.251   3.433  0.2521 -0.8177 -0.2634
   13CHTO   C28 5433   4.935   7.258   3.518  0.0422 -1.1027 -0.2074
   13CHTO   H56 5434   4.909   7.297   3.616  0.6787  1.4747 -1.0286
   13CHTO   C35 5435   4.998   7.120   3.529  0.6431 -0.7137 -0.2163
   13CHTO   O24 5436   4.918   7.021   3.593  0.0859 -0.6708 -0.4699
   13CHTO   H39 5437   4.949   7.011   3.681  1.6301 -2.0666 -1.1388
   13CHTO    O9 5438   4.616   7.354   3.364 -0.1837  0.0955  0.4180
   13CHTO   C13 5439   4.512   7.286   3.454 -0.5139 -0.1911  0.1537
   13CHTO   H26 5440   4.513   7.342   3.550 -2.2228  0.5918 -0.2716
   13CHTO   C11 5441   4.544   7.132   3.469 -0.2740  0.1077 -0.4810
   13CHTO   H24 5442   4.638   7.123   3.526 -1.9075 -2.2165  1.9616
   13CHTO    O8 5443   4.568   7.070   3.338 -0.4961 -0.0648  0.7374
   13CHTO    H3 5444   4.614   6.990   3.351 -0.8601 -0.3018  0.5565
   13CHTO    C9 5445   4.433   7.064   3.553 -0.0661 -0.5118  0.1958
   13CHTO   H22 5446   4.420   7.121   3.646 -1.0350 -0.7373  0.2045
   13CHTO    N2 5447   4.463   6.925   3.599  0.0682  0.3949  0.1882
   13CHTO   H10 5448   4.565   6.905   3.571 -0.2911  0.0039 -0.8667
   13CHTO   H11 5449   4.437   6.922   3.704  0.5662  1.0790  0.3292
   13CHTO    C7 5450   4.297   7.077   3.471  0.2254 -0.8875  0.0264
   13CHTO   H20 5451   4.234   7.118   3.552  1.5625 -1.3031  1.3055
   13CHTO    O4 5452   4.296   7.181   3.372  0.0560  0.2280 -0.0391
   13CHTO   C14 5453   4.365   7.301   3.395  0.2140  0.0287 -0.1051
   13CHTO   H27 5454   4.298   7.361   3.461 -1.3568  0.9568 -2.4424
   13CHTO   C18 5455   4.364   7.372   3.257 -0.2626 -0.6525  0.8399
   13CHTO   O13 5456   4.228   7.379   3.214  0.0222 -0.3263  0.0210
   13CHTO    H7 5457   4.218   7.456   3.161 -2.1516  0.4977  1.5404
   13CHTO    O2 5458   4.236   6.938   3.394  0.3623 -0.3778 -0.2515
   13CHTO    C1 5459   4.101   6.910   3.433  0.3825 -0.2754  0.6198
   13CHTO   H14 5460   4.035   7.000   3.428  0.9512  0.2221  1.8186
   13CHTO    C2 5461   4.082   6.849   3.584 -0.0224 -0.5708  0.5762
   13CHTO   H15 5462   4.141   6.756   3.575  1.8491  0.4004  2.2151
   13CHTO    O6 5463   4.148   6.943   3.678 -0.1746  0.6184  0.1691
   13CHTO    H1 5464   4.095   7.020   3.676 -2.0443 -0.6221  0.6152
   13CHTO    C3 5465   3.923   6.824   3.614  0.1454 -0.2035  0.3959
   13CHTO   H16 5466   3.879   6.924   3.607  0.4182 -0.0430  0.9570
   13CHTO    N1 5467   3.890   6.760   3.748  0.5045 -0.2102  0.6252
   13CHTO    H8 5468   3.786   6.758   3.776  0.0173  0.0572 -1.1018
   13CHTO    H9 5469   3.923   6.657   3.747  1.6727  0.1608  0.2596
   13CHTO    C4 5470   3.869   6.739   3.494  0.1357 -0.0952 -0.3505
   13CHTO   H17 5471   3.912   6.638   3.499  0.9422  0.1850 -1.5000
   13CHTO    O1 5472   3.898   6.797   3.366 -0.1609 -0.2365 -0.2871
   13CHTO    C5 5473   4.037   6.816   3.332  0.2613  0.8825  0.4207
   13CHTO   H18 5474   4.095   6.723   3.332 -0.1067  0.6501  1.9619
   13CHTO   C16 5475   4.024   6.869   3.184  0.7373  0.4998  0.0236
   13CHTO   O11 5476   4.004   6.761   3.090 -0.0269 -0.2936 -0.1207
   13CHTO    H5 5477   4.087   6.717   3.082  0.0150 -0.4099  0.8496
   13CHTO    O3 5478   3.724   6.728   3.493 -0.3246  0.3349 -0.2745
   13CHTO    C6 5479   3.660   6.615   3.423 -0.0470  0.0332  0.7439
   13CHTO   H19 5480   3.560   6.648   3.396  0.7505  2.6313  0.8351
   13CHTO    C8 5481   3.731   6.572   3.291 -0.0217  0.2029 -0.1813
   13CHTO   H21 5482   3.838   6.563   3.312 -0.0394  0.5026  0.0517
   13CHTO    O7 5483   3.719   6.679   3.191  0.0241  0.5733 -0.2879
   13CHTO    H2 5484   3.628   6.692   3.172 -0.1197  1.0417  0.7120
   13CHTO   C12 5485   3.684   6.431   3.237  0.1338  0.4524  0.0897
   13CHTO   H25 5486   3.588   6.443   3.185  0.6767  1.6507 -0.6367
   13CHTO    N3 5487   3.782   6.374   3.141 -0.0719 -0.1940  0.1430
   13CHTO   H12 5488   3.880   6.420   3.139  0.0996 -0.6010 -2.0252
   13CHTO   H13 5489   3.787   6.267   3.149 -1.7333 -0.4872 -2.1784
   13CHTO   C15 5490   3.660   6.330   3.356 -0.2448 -0.0642 -0.6942
   13CHTO   H28 5491   3.758   6.309   3.398  0.5775  1.3638 -1.8274
   13CHTO   O10 5492   3.597   6.219   3.321 -0.2998 -0.2546  0.1511
   13CHTO    H4 5493   3.643   6.166   3.259 -1.1275 -0.7896 -0.0278
   13CHTO    O5 5494   3.577   6.385   3.459 -0.3003  0.1385  0.3330
   13CHTO   C10 5495   3.655   6.488   3.519 -0.0496 -0.4884 -0.6202
   13CHTO   H23 5496   3.756   6.456   3.542 -0.3500  0.3487  1.9692
   13CHTO   C17 5497   3.577   6.534   3.648 -0.0581 -0.2567 -0.0362
   13CHTO   O12 5498   3.562   6.428   3.745  0.2871  0.0235 -0.3448
   13CHTO    H6 5499   3.555   6.344   3.703  2.2259 -0.5954  0.5124
   14CHTO  H203 5500   5.576   5.015   0.589  1.0702 -0.4846 -1.7808
   14CHTO   O82 5501   5.579   4.930   0.629 -0.3167  0.0454 -0.5232
   14CHTO  C123 5502   5.463   4.901   0.714  0.1682  0.1224 -0.3123
   14CHTO  H227 5503   5.473   4.966   0.803  1.9287 -1.5434  0.7550
   14CHTO   O77 5504   5.348   4.940   0.639  0.0085 -0.2632  0.1093
   14CHTO  C118 5505   5.222   4.916   0.700  0.9014 -0.5925 -0.1994
   14CHTO  H222 5506   5.227   4.961   0.800  2.0512 -0.2318 -0.4114
   14CHTO  C125 5507   5.115   4.998   0.619  0.5150  0.0194 -0.2983
   14CHTO   O84 5508   4.994   5.029   0.696  0.1822  0.3878  0.5028
   14CHTO  H205 5509   4.994   5.022   0.790  0.4806 -3.2185  0.3142
   14CHTO  C114 5510   5.198   4.765   0.710  0.3003  0.4494  0.2972
   14CHTO  H218 5511   5.214   4.720   0.613  0.2215  1.0650 -0.0033
   14CHTO  C116 5512   5.313   4.712   0.805  0.2817  0.3215  0.1267
   14CHTO  H220 5513   5.297   4.750   0.908  2.4939  2.5774 -0.3107
   14CHTO   O79 5514   5.297   4.569   0.813  0.3920  0.1963 -0.2953
   14CHTO  H201 5515   5.239   4.543   0.882 -0.5967  1.0127 -0.8005
   14CHTO  C120 5516   5.458   4.750   0.746  0.5535  0.2371  0.2928
   14CHTO  H224 5517   5.477   4.689   0.655 -1.8032  0.1443 -0.1897
   14CHTO   N21 5518   5.569   4.721   0.838 -0.7479 -0.1280  0.2935
   14CHTO  H211 5519   5.637   4.804   0.851  1.1494 -1.3986 -1.3232
   14CHTO  H212 5520   5.624   4.633   0.809  2.7987  2.1554 -0.3263
   14CHTO   O75 5521   5.062   4.744   0.761  0.4394 -0.1489 -0.1321
   14CHTO  C112 5522   4.974   4.637   0.684  0.3917 -0.2489 -1.2667
   14CHTO  H216 5523   5.035   4.546   0.697 -0.3309 -0.4904  0.5177
   14CHTO   O73 5524   4.963   4.680   0.549 -0.8845  0.4149 -0.1616
   14CHTO  C113 5525   4.876   4.609   0.456  0.5459  0.6297 -0.0106
   14CHTO  H217 5526   4.907   4.504   0.439 -0.0041  0.4193  0.2589
   14CHTO  C124 5527   4.883   4.679   0.317 -0.2174  0.5332 -0.1715
   14CHTO   O83 5528   4.824   4.809   0.310  0.0899 -0.0211  0.0741
   14CHTO  H204 5529   4.889   4.872   0.285 -1.3018  1.5658  0.3893
   14CHTO  C109 5530   4.735   4.604   0.512  0.0364  0.3571 -0.0594
   14CHTO  H213 5531   4.696   4.707   0.506 -2.6809 -0.4724  1.9455
   14CHTO  C110 5532   4.737   4.542   0.659  0.6179  0.1182  0.4598
   14CHTO  H214 5533   4.777   4.440   0.657 -0.2814 -0.1952 -2.8265
   14CHTO   O78 5534   4.600   4.528   0.707  0.2306  0.0560 -0.8587
   14CHTO  H200 5535   4.563   4.613   0.720  0.4415  0.0003  0.1605
   14CHTO  C111 5536   4.828   4.621   0.750  0.5576  0.5611  0.4982
   14CHTO  H215 5537   4.791   4.724   0.759 -0.2152  0.2597  0.7893
   14CHTO   N19 5538   4.844   4.575   0.885  0.1910  0.7748 -0.2024
   14CHTO  H207 5539   4.923   4.625   0.938 -0.8157  1.2520  0.8614
   14CHTO  H208 5540   4.863   4.469   0.881  0.5135  0.8606 -1.3051
   14CHTO   O74 5541   4.657   4.527   0.419  0.5476 -0.2820 -0.1811
   14CHTO  C115 5542   4.518   4.582   0.386  0.2997  0.3307 -0.1018
   14CHTO  H219 5543   4.466   4.618   0.474  0.6678 -0.6362  0.5201
   14CHTO   O76 5544   4.528   4.710   0.291  0.4601 -0.2098 -0.0384
   14CHTO  C122 5545   4.523   4.677   0.153  0.0032  0.2200 -0.1499
   14CHTO  H226 5546   4.614   4.619   0.134  0.1645  0.0571  1.0574
   14CHTO  C126 5547   4.528   4.803   0.060  0.5298  0.4262  0.1302
   14CHTO   O85 5548   4.644   4.883   0.084  0.2301  0.2273 -0.2900
   14CHTO  H206 5549   4.638   4.913   0.173 -0.0481 -0.8446  0.0618
   14CHTO  C121 5550   4.397   4.596   0.117  0.7509  0.5635  0.8714
   14CHTO  H225 5551   4.318   4.661   0.073 -2.6563 -3.8210  0.0815
   14CHTO   O81 5552   4.438   4.505   0.013 -0.0151 -0.1143 -0.5758
   14CHTO  H202 5553   4.448   4.536  -0.075  1.3960 -1.0426 -0.7567
   14CHTO  C119 5554   4.334   4.510   0.234  0.7415 -0.1491 -0.3074
   14CHTO  H223 5555   4.271   4.581   0.288  1.4388 -0.6770  1.2204
   14CHTO  C117 5556   4.439   4.461   0.328  0.1176  0.5393 -0.6079
   14CHTO  H221 5557   4.514   4.396   0.284  0.2507  1.0021 -1.0745
   14CHTO   N20 5558   4.385   4.383   0.443  0.0529  0.3330 -0.4904
   14CHTO  H209 5559   4.446   4.383   0.532 -1.6711  1.7669  0.7330
   14CHTO  H210 5560   4.347   4.286   0.413 -0.1392  0.6055 -1.1512
   14CHTO   O80 5561   4.225   4.411   0.180 -0.6347 -0.0961  0.2872
   14CHTO  C103 5562   4.146   4.439   0.029  0.6237  0.0309 -0.1821
   14CHTO  H190 5563   4.176   4.527  -0.027  0.3516 -0.2881 -0.8391
   14CHTO  C101 5564   4.145   4.323  -0.074  0.2686 -0.2963 -0.2077
   14CHTO  H188 5565   4.117   4.226  -0.031 -0.1430  0.1831  0.6295
   14CHTO   O68 5566   4.291   4.307  -0.130  0.6349  0.2496 -0.3401
   14CHTO  H168 5567   4.327   4.238  -0.078 -0.2589  0.2613  0.2929
   14CHTO   C99 5568   4.044   4.346  -0.196 -0.0004 -0.4706  0.2485
   14CHTO  H186 5569   4.087   4.425  -0.261  1.4027 -1.2195  0.2401
   14CHTO   N17 5570   4.029   4.224  -0.277  0.3426 -0.6024  0.1244
   14CHTO  H174 5571   3.953   4.245  -0.351  1.6924 -0.2993 -1.1785
   14CHTO  H175 5572   3.998   4.139  -0.217  2.4846 -1.7538 -0.3679
   14CHTO   C97 5573   3.899   4.396  -0.143 -0.0593  0.1386 -0.1792
   14CHTO  H184 5574   3.840   4.310  -0.109 -0.5589 -0.4358 -2.4097
   14CHTO   O64 5575   3.914   4.499  -0.043  0.4197  0.0190 -0.1212
   14CHTO  C104 5576   3.998   4.462   0.067  0.8677 -0.4872 -0.1256
   14CHTO  H191 5577   3.954   4.367   0.100 -0.3091 -0.0140 -0.3198
   14CHTO  C108 5578   3.980   4.572   0.174 -0.2246 -0.3178 -0.3406
   14CHTO   O71 5579   3.838   4.576   0.217 -0.6931  0.0937 -0.2852
   14CHTO  H171 5580   3.834   4.642   0.283 -1.0550  0.1015 -0.3161
   14CHTO   O62 5581   3.825   4.457  -0.248  0.1937  0.1108  1.1595
   14CHTO   C91 5582   3.710   4.544  -0.221 -0.1290  0.0582 -0.0414
   14CHTO  H178 5583   3.663   4.520  -0.126  1.2934  1.2592  0.9886
   14CHTO   C92 5584   3.597   4.518  -0.328  0.7164  0.5314  0.5826
   14CHTO  H179 5585   3.578   4.410  -0.331  0.4038  0.6044 -0.2519
   14CHTO   O66 5586   3.475   4.583  -0.287  0.3035  0.5215 -0.6499
   14CHTO  H166 5587   3.481   4.607  -0.196 -2.3289 -0.9748 -0.0131
   14CHTO   C93 5588   3.637   4.574  -0.469  0.1266 -0.3503 -0.2052
   14CHTO  H180 5589   3.547   4.578  -0.533 -0.7949 -1.6083  0.9615
   14CHTO   N16 5590   3.732   4.490  -0.552 -0.1193 -0.3822 -0.5445
   14CHTO  H172 5591   3.743   4.546  -0.644  0.4465  3.4211  1.6910
   14CHTO  H173 5592   3.687   4.394  -0.569 -2.0190  0.4238 -0.2105
   14CHTO   C94 5593   3.687   4.725  -0.450  0.5847 -0.1664 -0.1186
   14CHTO  H181 5594   3.794   4.734  -0.468  0.6117  0.5489  0.3701
   14CHTO   O61 5595   3.665   4.774  -0.316 -0.5433  0.8939 -0.6618
   14CHTO   C95 5596   3.743   4.700  -0.219 -0.4939 -0.3589  0.1574
   14CHTO  H182 5597   3.848   4.717  -0.239 -0.3695  0.0154  1.1393
   14CHTO  C106 5598   3.718   4.776  -0.075 -0.1973 -0.0250 -0.2737
   14CHTO   O69 5599   3.590   4.738  -0.024 -0.2977 -0.5505  0.2857
   14CHTO  H169 5600   3.587   4.774   0.062 -3.3425  1.2213 -0.4612
   14CHTO   O63 5601   3.605   4.828  -0.551 -0.2476  0.2403  0.2066
   14CHTO   C96 5602   3.609   4.975  -0.534  0.2133 -0.2556 -0.5056
   14CHTO  H183 5603   3.570   4.994  -0.434 -0.3723 -1.3666 -0.5171
   14CHTO   C98 5604   3.520   5.038  -0.638 -0.5428  0.2006 -0.5320
   14CHTO  H185 5605   3.542   4.989  -0.734 -1.0367 -2.0847  0.4877
   14CHTO   O67 5606   3.379   5.000  -0.601 -0.3097 -0.0055 -0.0363
   14CHTO  H167 5607   3.356   4.920  -0.643  0.9961  0.2027 -1.2095
   14CHTO  C102 5608   3.547   5.197  -0.648  0.0305 -0.1541  0.3900
   14CHTO  H189 5609   3.527   5.242  -0.550  0.3907 -0.4029  0.5779
   14CHTO   N18 5610   3.455   5.262  -0.744  0.0864 -0.2383 -0.7396
   14CHTO  H176 5611   3.352   5.237  -0.725  0.2168  2.1273  3.5892
   14CHTO  H177 5612   3.479   5.229  -0.844  1.0875  1.2077 -0.9790
   14CHTO  C105 5613   3.695   5.224  -0.679  0.2935 -0.8679 -0.4740
   14CHTO  H192 5614   3.702   5.236  -0.787 -0.5366  0.0784 -0.4325
   14CHTO   O65 5615   3.790   5.123  -0.641 -0.3155 -0.2082 -0.2062
   14CHTO  C100 5616   3.763   5.026  -0.541  0.0383 -0.3993  0.1873
   14CHTO  H187 5617   3.823   4.938  -0.566  2.1741  0.5249  1.8685
   14CHTO  C107 5618   3.812   5.084  -0.407 -0.5365 -0.0404 -0.1489
   14CHTO   O70 5619   3.953   5.081  -0.387 -0.0707 -0.0158  0.6785
   14CHTO  H170 5620   3.987   5.158  -0.347  1.4414  0.1493 -0.8367
   14CHTO   O57 5621   3.723   5.377  -0.605 -0.3504  0.2252 -0.0824
   14CHTO   C85 5622   3.852   5.440  -0.612  0.2753  0.5361 -0.0607
   14CHTO  H157 5623   3.902   5.393  -0.700  1.8944  1.7910  0.1592
   14CHTO   C83 5624   3.946   5.407  -0.496  0.1107  0.1043  0.5146
   14CHTO  H155 5625   3.976   5.302  -0.494 -0.8206 -0.2478 -2.1364
   14CHTO   O56 5626   3.895   5.433  -0.366 -0.1260  0.5938 -0.1657
   14CHTO  H135 5627   3.815   5.386  -0.349  0.6940 -1.3597 -1.4062
   14CHTO   C81 5628   4.074   5.492  -0.517 -0.8589 -0.1073  0.6553
   14CHTO  H153 5629   4.117   5.469  -0.614 -0.6017 -0.8815  0.9499
   14CHTO   N14 5630   4.189   5.464  -0.426  0.0614  0.5990 -0.4466
   14CHTO  H141 5631   4.181   5.530  -0.342  0.6115  1.0434 -0.7371
   14CHTO  H142 5632   4.189   5.363  -0.391 -2.5060  0.9609  0.7027
   14CHTO   C79 5633   4.039   5.647  -0.525 -0.0346  0.4185 -0.5873
   14CHTO  H151 5634   4.132   5.700  -0.546  0.2925  1.1649  2.4282
   14CHTO   O52 5635   3.951   5.673  -0.640 -0.2907 -0.5051 -0.3574
   14CHTO   C86 5636   3.828   5.592  -0.639  0.4999  0.1826  0.2225
   14CHTO  H158 5637   3.764   5.648  -0.568  0.6383 -0.7289  1.0749
   14CHTO   C90 5638   3.763   5.609  -0.782 -0.4488 -0.0032 -0.2698
   14CHTO   O60 5639   3.751   5.746  -0.819 -0.2101 -0.1408  0.2014
   14CHTO  H138 5640   3.686   5.795  -0.772 -1.6240  0.2884 -2.0912
   14CHTO   O50 5641   3.983   5.693  -0.401 -0.1445  0.2660  0.1927
   14CHTO   C73 5642   3.945   5.787  -0.301  0.8014 -0.4079 -0.2610
   14CHTO  H145 5643   3.860   5.743  -0.248  1.5742 -1.0722  0.4316
   14CHTO   C74 5644   3.908   5.921  -0.371  0.0758  0.2214 -0.5802
   14CHTO  H146 5645   3.820   5.914  -0.437  0.3766 -2.4771 -0.7600
   14CHTO   O54 5646   3.854   6.013  -0.269 -0.2498  0.3200  0.5370
   14CHTO  H133 5647   3.898   6.096  -0.266 -1.1821  0.9297 -1.4891
   14CHTO   C75 5648   4.036   5.970  -0.448 -0.0340  0.4341  0.6534
   14CHTO  H147 5649   4.046   5.906  -0.537 -0.1102 -0.2701  1.1498
   14CHTO   N13 5650   4.029   6.104  -0.505 -0.1228 -0.1510  0.2472
   14CHTO  H139 5651   4.045   6.106  -0.612 -2.3933  0.2214 -0.1105
   14CHTO  H140 5652   3.930   6.145  -0.490 -0.3409 -0.8946  0.8674
   14CHTO   C76 5653   4.168   5.971  -0.357  0.0223 -0.5122  0.6457
   14CHTO  H148 5654   4.181   6.062  -0.299 -1.2523 -0.0890  0.2808
   14CHTO   O49 5655   4.178   5.858  -0.269  0.3827 -0.1447 -0.0511
   14CHTO   C77 5656   4.058   5.822  -0.197 -0.4054  0.0111  0.2993
   14CHTO  H149 5657   4.032   5.904  -0.129  1.1116  0.2319  0.6293
   14CHTO   C88 5658   4.088   5.690  -0.119  0.2322 -0.1732 -0.1950
   14CHTO   O58 5659   3.991   5.660  -0.022 -0.7682  0.0317 -0.2583
   14CHTO  H136 5660   3.928   5.614  -0.075 -0.0032 -1.6263  0.2463
   14CHTO   O51 5661   4.288   5.939  -0.450  0.3973 -0.5250  0.6594
   14CHTO   C78 5662   4.430   6.002  -0.402 -0.2280  0.1830  0.1760
   14CHTO  H150 5663   4.413   6.051  -0.304  0.4873 -0.9261  0.8613
   14CHTO   C80 5664   4.474   6.105  -0.511  0.3665  0.2414  0.5020
   14CHTO  H152 5665   4.450   6.059  -0.609 -2.6384  0.3320  1.1546
   14CHTO   O55 5666   4.384   6.221  -0.501 -0.8061 -0.1676  0.1679
   14CHTO  H134 5667   4.410   6.292  -0.557 -0.6204 -1.1124 -0.9705
   14CHTO   C84 5668   4.627   6.149  -0.508  0.0916 -0.3394 -0.7191
   14CHTO  H156 5669   4.644   6.220  -0.427 -0.6106 -0.2013 -0.6877
   14CHTO   N15 5670   4.656   6.220  -0.632 -0.6432  0.3765  0.1248
   14CHTO  H143 5671   4.701   6.317  -0.623 -0.7471  0.4705 -0.3576
   14CHTO  H144 5672   4.713   6.168  -0.707 -0.9076  1.5616 -0.9122
   14CHTO   C87 5673   4.716   6.019  -0.482  0.0057 -0.1675 -0.2638
   14CHTO  H159 5674   4.690   5.952  -0.563  0.0746 -0.7704  0.2105
   14CHTO   O53 5675   4.663   5.938  -0.349 -0.2302  0.1223 -0.3937
   14CHTO   C82 5676   4.533   5.889  -0.380 -0.4653 -0.3951 -0.4451
   14CHTO  H154 5677   4.540   5.827  -0.469 -0.3558  1.0207 -1.4419
   14CHTO   C89 5678   4.472   5.797  -0.270  0.2883 -0.1576 -0.4106
   14CHTO   O59 5679   4.562   5.688  -0.248 -0.8979 -0.1193 -0.0747
   14CHTO  H137 5680   4.518   5.606  -0.235  1.1165 -1.1711  0.3348
   14CHTO   O45 5681   4.871   6.040  -0.467  0.1445 -0.2370  0.0806
   14CHTO   C67 5682   4.950   5.970  -0.372  0.2248 -0.5760  0.2436
   14CHTO  H124 5683   4.923   6.005  -0.273  1.7183  0.1049  0.4166
   14CHTO   C65 5684   4.937   5.808  -0.383 -0.1104 -0.4536  0.2927
   14CHTO  H122 5685   4.832   5.784  -0.369 -0.7130  0.9760 -1.5725
   14CHTO   O44 5686   5.014   5.747  -0.275 -0.2772  0.3196  0.4998
   14CHTO  H102 5687   5.105   5.766  -0.281 -0.2917 -0.1479 -1.4397
   14CHTO   C63 5688   4.985   5.769  -0.526  0.1506 -0.2773 -0.1078
   14CHTO  H120 5689   4.930   5.827  -0.601 -0.6376  0.1299  0.7836
   14CHTO   N11 5690   4.947   5.627  -0.575  0.5190 -0.4660 -0.2524
   14CHTO  H108 5691   4.942   5.629  -0.681 -0.7557 -2.1512 -0.2297
   14CHTO  H109 5692   4.854   5.589  -0.538  0.6856 -1.2716 -0.6599
   14CHTO   C61 5693   5.124   5.816  -0.560  0.2065 -0.4452  0.2293
   14CHTO  H118 5694   5.126   5.808  -0.669  1.2522 -0.7050  0.2628
   14CHTO   O40 5695   5.145   5.955  -0.534  0.6959  0.1276 -0.6482
   14CHTO   C68 5696   5.099   6.021  -0.413  0.6287  0.5003 -0.3185
   14CHTO  H125 5697   5.102   6.129  -0.438 -0.8399  0.7969  0.6960
   14CHTO   C72 5698   5.202   5.998  -0.296  0.1686  0.3085  0.7287
   14CHTO   O48 5699   5.329   6.057  -0.330 -0.6409  0.0410  0.1371
   14CHTO  H105 5700   5.394   6.009  -0.283 -1.3099  1.8879  3.0644
   14CHTO   O38 5701   5.232   5.744  -0.497  0.0307 -0.4229  0.5081
   14CHTO   C55 5702   5.337   5.676  -0.563  0.5088  0.0547 -0.1257
   14CHTO  H112 5703   5.330   5.667  -0.673 -0.4323 -0.9820  0.0047
   14CHTO   C56 5704   5.349   5.534  -0.493  0.1091  0.4547  0.5523
   14CHTO  H113 5705   5.355   5.547  -0.384 -0.2505  1.5916  0.4347
   14CHTO   O42 5706   5.227   5.463  -0.520 -0.1067  0.4463  0.9275
   14CHTO  H100 5707   5.225   5.441  -0.612 -1.3716  0.2769  0.9849
   14CHTO   C57 5708   5.471   5.456  -0.559  0.0211  0.2167  0.4958
   14CHTO  H114 5709   5.450   5.454  -0.666  0.1991  0.1048  0.4617
   14CHTO   N10 5710   5.482   5.317  -0.509 -0.3772  0.0099  0.3349
   14CHTO  H106 5711   5.587   5.290  -0.509 -0.8298 -1.8015  1.6711
   14CHTO  H107 5712   5.452   5.310  -0.406  1.1717  0.9635  0.8753
   14CHTO   C58 5713   5.599   5.538  -0.538 -0.7829 -0.2776  0.2332
   14CHTO  H115 5714   5.626   5.540  -0.430  1.6648  1.0322 -0.3441
   14CHTO   O37 5715   5.584   5.679  -0.579 -0.7679  0.5456  0.2302
   14CHTO   C59 5716   5.472   5.754  -0.533  0.3877  0.0445 -0.1021
   14CHTO  H116 5717   5.465   5.757  -0.425  0.1002  0.9194 -0.1408
   14CHTO   C70 5718   5.471   5.893  -0.599  0.7384  0.2752  0.0537
   14CHTO   O46 5719   5.582   5.979  -0.577 -0.7237  0.1833 -0.0293
   14CHTO  H103 5720   5.564   6.061  -0.618 -2.1012  0.2019  0.5774
   14CHTO   O39 5721   5.719   5.484  -0.623  0.2399 -0.2838 -0.1126
   14CHTO   C60 5722   5.854   5.500  -0.591 -0.4810  0.2567 -0.4778
   14CHTO  H117 5723   5.856   5.561  -0.500 -0.2249  0.7210 -0.7989
   14CHTO   C62 5724   5.918   5.361  -0.574 -0.1424 -0.1400  0.2877
   14CHTO  H119 5725   5.867   5.306  -0.492 -0.5785 -0.8572 -0.4557
   14CHTO   O43 5726   5.903   5.285  -0.696 -0.0632 -0.3937  0.1536
   14CHTO  H101 5727   5.813   5.262  -0.709 -0.4174  1.4416 -0.7922
   14CHTO   C66 5728   6.075   5.371  -0.528  0.3310  0.0355 -0.0253
   14CHTO  H123 5729   6.080   5.410  -0.426 -0.3567  2.0595 -0.7278
   14CHTO   N12 5730   6.142   5.241  -0.520 -0.6768  0.1810 -0.3466
   14CHTO  H110 5731   6.091   5.167  -0.459 -0.1585  1.0684  1.1805
   14CHTO  H111 5732   6.245   5.256  -0.491 -1.4436  3.5414  0.7850
   14CHTO   C69 5733   6.150   5.471  -0.622 -0.2482  0.4435  0.1644
   14CHTO  H126 5734   6.185   5.418  -0.713  1.8015  0.1427  1.1023
   14CHTO   O41 5735   6.068   5.604  -0.658 -0.6904 -0.6287 -0.2615
   14CHTO   C64 5736   5.934   5.577  -0.701  0.7817 -0.0498 -0.6115
   14CHTO  H121 5737   5.939   5.520  -0.796 -1.0073 -0.2820 -0.5787
   14CHTO   C71 5738   5.868   5.707  -0.742  0.3187  0.6480 -0.2005
   14CHTO   O47 5739   5.878   5.806  -0.638 -0.3225  0.2227 -0.0684
   14CHTO  H104 5740   5.960   5.849  -0.625  0.2082 -0.5348 -0.8679
   14CHTO   O34 5741   6.289   5.519  -0.558 -0.3749  0.0613 -0.4507
   14CHTO   C49 5742   6.397   5.595  -0.474 -0.0949  0.4167 -1.0448
   14CHTO   H91 5743   6.488   5.569  -0.529 -0.7262  1.9446 -2.8857
   14CHTO   C47 5744   6.400   5.545  -0.332 -0.7208 -0.1617  0.2069
   14CHTO   H89 5745   6.483   5.598  -0.281  0.4153 -1.6439 -0.0766
   14CHTO   O33 5746   6.421   5.401  -0.325  0.3392  0.2100 -0.0191
   14CHTO   H70 5747   6.373   5.358  -0.393 -1.5825 -0.3915  1.6823
   14CHTO   C45 5748   6.254   5.585  -0.260 -0.1614 -0.1743 -0.0496
   14CHTO   H87 5749   6.190   5.498  -0.279 -0.2204 -0.0137 -0.5978
   14CHTO    N8 5750   6.282   5.595  -0.106  0.1193  0.0053  0.6658
   14CHTO   H75 5751   6.368   5.658  -0.090 -0.1959  0.7109 -0.3562
   14CHTO   H76 5752   6.201   5.649  -0.059  0.0016  0.4728 -0.0543
   14CHTO   C43 5753   6.197   5.723  -0.326 -0.0104 -0.5205 -0.2309
   14CHTO   H85 5754   6.149   5.698  -0.421  0.0414  2.0803 -0.9782
   14CHTO   O29 5755   6.302   5.810  -0.356  0.0690  0.5928 -0.5410
   14CHTO   C50 5756   6.380   5.753  -0.466  0.7938 -0.1591  0.2868
   14CHTO   H92 5757   6.339   5.790  -0.561 -0.8964 -3.9723 -0.5469
   14CHTO   C54 5758   6.521   5.830  -0.472  0.5440  0.1419 -0.3581
   14CHTO   O36 5759   6.609   5.789  -0.576 -0.3247  0.2024 -0.0994
   14CHTO   H72 5760   6.630   5.863  -0.629 -2.0261  1.0441  0.3521
   14CHTO   O27 5761   6.094   5.782  -0.248 -0.0586  0.0231 -0.0483
   14CHTO   C37 5762   6.052   5.918  -0.223  0.1381 -0.7748 -0.1677
   14CHTO   H79 5763   6.136   5.977  -0.184 -1.0936  0.6305  0.4175
   14CHTO   C38 5764   5.994   5.992  -0.351 -0.3985  0.3313  0.3259
   14CHTO   H80 5765   5.928   5.917  -0.397 -2.4525  1.8777  0.6390
   14CHTO   O31 5766   6.102   6.020  -0.433  0.1940 -0.1993  0.0214
   14CHTO   H68 5767   6.140   5.943  -0.470 -1.3029 -0.5765 -0.7603
   14CHTO   C39 5768   5.910   6.120  -0.320 -0.0019  0.5497  0.8389
   14CHTO   H81 5769   5.978   6.198  -0.288 -0.3025  0.9596  0.4849
   14CHTO    N7 5770   5.838   6.173  -0.435  0.2224 -0.1638 -0.3961
   14CHTO   H73 5771   5.900   6.199  -0.520 -0.0891 -0.3600 -0.6834
   14CHTO   H74 5772   5.753   6.108  -0.449  0.2758 -1.2172  3.6549
   14CHTO   C40 5773   5.815   6.093  -0.193 -0.1027  0.0411  0.5304
   14CHTO   H82 5774   5.734   6.027  -0.226  0.1931 -0.4485  0.7848
   14CHTO   O26 5775   5.891   6.032  -0.089 -0.2456 -0.3720 -0.5141
   14CHTO   C41 5776   5.949   5.902  -0.109  0.0772  0.7279  0.0176
   14CHTO   H83 5777   5.863   5.836  -0.129 -0.2274 -0.1979  4.0367
   14CHTO   C52 5778   6.017   5.873   0.026  0.5994  0.0693  0.4904
   14CHTO   O35 5779   5.926   5.874   0.130  0.0545  1.1349 -0.0688
   14CHTO   H71 5780   5.959   5.826   0.204  0.1061  0.8067 -0.3031
   14CHTO   O28 5781   5.770   6.212  -0.124  0.2754  0.2063 -0.0052
   14CHTO   C42 5782   5.658   6.226  -0.032  0.0757 -0.2073  0.2032
   14CHTO   H84 5783   5.671   6.321   0.018 -0.3634 -0.3172  0.5274
   14CHTO   C44 5784   5.645   6.119   0.081 -1.3154 -0.4450 -0.6252
   14CHTO   H86 5785   5.629   6.018   0.042  0.9852 -0.7930 -0.7568
   14CHTO   O32 5786   5.775   6.124   0.147 -0.4603  0.3222  0.8437
   14CHTO   H69 5787   5.818   6.041   0.146  0.6651  0.8891  1.4697
   14CHTO   C48 5788   5.523   6.143   0.175 -0.0157  0.3840 -0.1660
   14CHTO   H90 5789   5.543   6.237   0.226 -1.2870  0.2826  0.5410
   14CHTO    N9 5790   5.520   6.039   0.284  0.7128  0.1366 -0.2287
   14CHTO   H77 5791   5.455   6.060   0.368  1.0444  0.6137 -0.0853
   14CHTO   H78 5792   5.622   6.012   0.308  1.1767  0.8836 -1.3283
   14CHTO   C51 5793   5.397   6.159   0.085 -0.0242  0.1984  0.3200
   14CHTO   H93 5794   5.381   6.065   0.032  0.9212  0.7458 -0.9771
   14CHTO   O30 5795   5.415   6.266  -0.002 -0.0628 -0.1583  0.2095
   14CHTO   C46 5796   5.521   6.231  -0.104 -0.3974  0.7994 -0.3269
   14CHTO   H88 5797   5.496   6.138  -0.156  0.1399  0.7696 -0.5272
   14CHTO   C53 5798   5.518   6.346  -0.210 -0.0455  0.5509 -0.2299
   14CHTO   O72 5799   5.554   6.475  -0.162 -0.0110 -1.0283  0.3517
   14CHTO  H199 5800   5.544   6.538  -0.231 -1.2968  1.1069  2.3908
   14CHTO   O22 5801   5.282   6.199   0.168  0.0537 -0.0504 -0.4902
   14CHTO   C31 5802   5.148   6.134   0.142 -0.3243 -0.2316 -0.0259
   14CHTO   H59 5803   5.162   6.075   0.049  1.5707 -0.3598  0.3243
   14CHTO   C29 5804   5.088   6.041   0.244  0.1600 -0.0814  0.5326
   14CHTO   H57 5805   5.070   6.100   0.335 -1.0225  2.4442 -1.2564
   14CHTO   O21 5806   5.202   5.958   0.272 -0.0792  0.0035  0.2045
   14CHTO   H37 5807   5.182   5.867   0.273  0.9713 -0.2596 -1.6707
   14CHTO   C27 5808   4.957   5.965   0.193  0.1064  0.4292  0.6761
   14CHTO   H55 5809   4.976   5.914   0.098 -2.8359 -0.8040  0.7156
   14CHTO    N5 5810   4.912   5.867   0.297  0.9613  0.5814  1.0071
   14CHTO   H43 5811   4.990   5.834   0.365  0.4792  0.2020  1.3862
   14CHTO   H44 5812   4.850   5.795   0.245 -2.6732  3.3425  1.3413
   14CHTO   C25 5813   4.852   6.068   0.142 -0.0162 -0.6584 -0.5555
   14CHTO   H53 5814   4.814   6.118   0.232  0.2326  0.2679 -0.9574
   14CHTO   O17 5815   4.914   6.161   0.051 -0.5589  0.3447  0.1481
   14CHTO   C32 5816   5.031   6.232   0.102 -0.2638  0.3498 -0.3112
   14CHTO   H60 5817   5.000   6.283   0.193 -0.8283 -1.6093  0.6325
   14CHTO   C36 5818   5.074   6.337  -0.000  0.5479 -0.1819 -0.0426
   14CHTO   O25 5819   4.997   6.455   0.016 -0.2520 -0.6557  0.1857
   14CHTO   H40 5820   4.915   6.440  -0.029  0.3733 -1.3154 -0.7730
   14CHTO   O15 5821   4.744   6.001   0.081 -0.5644  0.1876  0.3138
   14CHTO   C19 5822   4.601   6.002   0.045  0.3472 -0.0748 -0.2583
   14CHTO   H47 5823   4.605   5.955  -0.054 -2.1133  1.0206 -0.9111
   14CHTO   C20 5824   4.522   5.904   0.138  0.0402  0.9535  0.7743
   14CHTO   H48 5825   4.539   5.920   0.246 -2.8720 -0.2687  1.4731
   14CHTO   O19 5826   4.568   5.767   0.124  0.6077 -0.4225 -0.4120
   14CHTO   H35 5827   4.513   5.719   0.182 -0.0921  0.7272 -0.1211
   14CHTO   C21 5828   4.363   5.924   0.105 -0.8900  0.0875  0.0899
   14CHTO   H49 5829   4.342   5.888   0.005  0.2243 -0.1746 -0.0497
   14CHTO    N4 5830   4.276   5.846   0.198  0.8694 -0.1030 -0.1273
   14CHTO   H41 5831   4.299   5.861   0.302 -0.6566 -0.8802  0.3432
   14CHTO   H42 5832   4.280   5.740   0.178 -1.5945  0.0035 -1.3174
   14CHTO   C22 5833   4.320   6.072   0.095 -0.1912  0.2756 -0.4478
   14CHTO   H50 5834   4.345   6.124   0.187  1.2033 -1.7693  0.3556
   14CHTO   O14 5835   4.396   6.123  -0.023  0.0391  0.1639 -0.0587
   14CHTO   C23 5836   4.537   6.140   0.016 -0.7011  0.5551  0.1564
   14CHTO   H51 5837   4.539   6.206   0.104 -0.4172 -0.3497  0.8364
   14CHTO   C34 5838   4.612   6.215  -0.093 -0.5195  0.3347 -0.1601
   14CHTO   O23 5839   4.568   6.351  -0.113 -0.3463 -0.4549  0.2597
   14CHTO   H38 5840   4.477   6.363  -0.131 -0.1689 -0.4183 -0.6377
   14CHTO   O16 5841   4.177   6.096   0.062  0.3767  0.1391  0.0484
   14CHTO   C24 5842   4.132   6.268   0.039 -0.1152  0.3296  0.2330
   14CHTO   H52 5843   4.028   6.286   0.066 -0.1027 -2.4850  2.4365
   14CHTO   C26 5844   4.144   6.301  -0.115  0.0747  0.5216  0.0683
   14CHTO   H54 5845   4.231   6.250  -0.161 -1.6448  0.3132 -3.1290
   14CHTO   O20 5846   4.031   6.241  -0.185  0.2438 -0.7259 -0.2323
   14CHTO   H36 5847   4.047   6.250  -0.277  1.1499  2.8927  0.2207
   14CHTO   C30 5848   4.159   6.457  -0.139 -0.2040 -0.2819  0.1023
   14CHTO   H58 5849   4.065   6.513  -0.124 -0.0695  0.0659 -0.3265
   14CHTO    N6 5850   4.202   6.481  -0.281 -0.2388  0.3017  0.1133
   14CHTO   H45 5851   4.309   6.472  -0.289 -0.1745  0.5301  0.6925
   14CHTO   H46 5852   4.170   6.580  -0.310  0.2641  0.6468  0.7191
   14CHTO   C33 5853   4.261   6.512  -0.032  0.8710  0.2311  0.0905
   14CHTO   H61 5854   4.356   6.456  -0.040  1.5936  1.5637 -1.0037
   14CHTO   O18 5855   4.202   6.489   0.097  0.0778 -0.1935 -0.3132
   14CHTO   C28 5856   4.216   6.357   0.137  0.1536 -0.5519 -0.4825
   14CHTO   H56 5857   4.321   6.327   0.132  0.2705 -0.3219  0.5212
   14CHTO   C35 5858   4.168   6.350   0.282  0.2941 -0.1291  0.4635
   14CHTO   O24 5859   4.184   6.223   0.351  0.5077 -0.4083 -0.3986
   14CHTO   H39 5860   4.128   6.226   0.426  0.5806  0.3035 -0.3700
   14CHTO    O9 5861   4.299   6.649  -0.052  0.0937  0.0953 -0.4496
   14CHTO   C13 5862   4.438   6.690  -0.033  0.2047 -0.8017 -0.2810
   14CHTO   H26 5863   4.503   6.625  -0.094  0.5279 -0.4924 -0.2659
   14CHTO   C11 5864   4.477   6.681   0.121 -0.5745  0.1949 -0.4901
   14CHTO   H24 5865   4.460   6.575   0.145 -0.1763  0.0080 -1.0143
   14CHTO    O8 5866   4.385   6.767   0.190  0.0644  0.0143  0.2432
   14CHTO    H3 5867   4.299   6.730   0.195 -0.1137  0.4247  0.1882
   14CHTO    C9 5868   4.631   6.716   0.138  0.1848 -0.2937  0.3356
   14CHTO   H22 5869   4.686   6.634   0.089  0.3100 -0.2077  0.3322
   14CHTO    N2 5870   4.671   6.711   0.276  0.4012 -0.2743 -0.2893
   14CHTO   H10 5871   4.630   6.622   0.321 -0.9063 -0.4794 -1.8447
   14CHTO   H11 5872   4.631   6.798   0.326  0.1311 -1.0850  0.9308
   14CHTO    C7 5873   4.659   6.855   0.066 -0.2342  0.2412 -0.0994
   14CHTO   H20 5874   4.727   6.831  -0.018 -2.2318  1.3574 -2.0865
   14CHTO    O4 5875   4.542   6.915   0.012  0.4290  0.2580  0.2815
   14CHTO   C14 5876   4.481   6.836  -0.090  0.1905 -0.0776  0.5941
   14CHTO   H27 5877   4.546   6.825  -0.179  1.8345  2.5488  1.4120
   14CHTO   C18 5878   4.357   6.925  -0.138  0.3076  0.1784  0.2703
   14CHTO   O13 5879   4.264   6.949  -0.033  0.5388 -0.5448  0.0402
   14CHTO    H7 5880   4.179   6.976  -0.062  0.1118 -0.6686  1.1457
   14CHTO    O2 5881   4.729   6.968   0.173 -0.5954 -0.4113  0.0031
   14CHTO    C1 5882   4.833   7.051   0.112  0.0623 -0.3752 -0.1501
   14CHTO   H14 5883   4.831   7.048   0.001 -3.6535 -0.8059 -0.1229
   14CHTO    C2 5884   4.976   7.018   0.162  1.0185 -0.3513  0.0157
   14CHTO   H15 5885   4.975   7.024   0.272  0.5573  0.7108 -0.0458
   14CHTO    O6 5886   5.006   6.886   0.111 -0.0461  0.2644  0.0926
   14CHTO    H1 5887   5.089   6.861   0.146  0.1628  1.6261  0.5836
   14CHTO    C3 5888   5.091   7.119   0.103  0.7696  0.0204  0.0683
   14CHTO   H16 5889   5.097   7.108  -0.006  1.2828  0.2474  0.0719
   14CHTO    N1 5890   5.228   7.100   0.157 -0.0734  0.2208  0.3095
   14CHTO    H8 5891   5.277   7.190   0.189 -0.2412  0.7677 -0.9781
   14CHTO    H9 5892   5.292   7.043   0.091  0.3296 -1.1705  1.8558
   14CHTO    C4 5893   5.039   7.266   0.113  0.1494 -0.3784  0.1083
   14CHTO   H17 5894   5.046   7.295   0.218 -1.3729 -2.1601  0.7409
   14CHTO    O1 5895   4.902   7.280   0.069  0.3550  0.2870 -0.1694
   14CHTO    C5 5896   4.803   7.201   0.135 -0.0860  0.6483 -0.4364
   14CHTO   H18 5897   4.798   7.226   0.241 -1.3723 -0.0744 -0.3149
   14CHTO   C16 5898   4.661   7.230   0.079 -0.7206 -0.0122 -0.2244
   14CHTO   O11 5899   4.610   7.362   0.097  0.0839  0.2299 -0.2336
   14CHTO    H5 5900   4.646   7.414   0.028  0.8643 -0.5388 -0.4166
   14CHTO    O3 5901   5.103   7.362   0.032  0.0883 -0.1262  0.0782
   14CHTO    C6 5902   5.095   7.498   0.080  0.3426  0.3710 -0.2664
   14CHTO   H19 5903   5.015   7.514   0.153  0.5052 -0.5473  0.1263
   14CHTO    C8 5904   5.231   7.536   0.138 -0.2368  0.0472 -0.5708
   14CHTO   H21 5905   5.309   7.524   0.063 -0.6111  0.1121 -0.9756
   14CHTO    O7 5906   5.249   7.460   0.256  0.2015  0.2945  0.0175
   14CHTO    H2 5907   5.340   7.468   0.278  0.7463 -1.9182 -1.2370
   14CHTO   C12 5908   5.230   7.692   0.171  0.5364 -0.0715  0.1253
   14CHTO   H25 5909   5.165   7.708   0.260  1.0007  0.4299  0.3710
   14CHTO    N3 5910   5.367   7.732   0.215  0.1646  0.0822 -0.2314
   14CHTO   H12 5911   5.366   7.829   0.262 -1.7401 -0.2590  0.4662
   14CHTO   H13 5912   5.400   7.659   0.287 -0.4957 -1.8645 -1.8754
   14CHTO   C15 5913   5.180   7.782   0.056 -0.5778 -0.2213  0.5425
   14CHTO   H28 5914   5.256   7.788  -0.022 -0.8205 -0.5020  0.2839
   14CHTO   O10 5915   5.141   7.935   0.100  0.0835 -0.0362 -0.1502
   14CHTO    H4 5916   5.089   7.928   0.178 -0.2739  1.6866 -0.2059
   14CHTO    O5 5917   5.058   7.732   0.006  0.6182 -0.0996  0.1166
   14CHTO   C10 5918   5.065   7.598  -0.041  0.0143  0.4021 -0.4841
   14CHTO   H23 5919   5.131   7.590  -0.127  0.6444 -3.5660  0.2702
   14CHTO   C17 5920   4.931   7.583  -0.107  0.2262 -0.0986 -0.3834
   14CHTO   O12 5921   4.818   7.565  -0.017 -0.2943  0.0540 -0.2122
   14CHTO    H6 5922   4.799   7.635   0.043 -0.7994 -2.0838  2.2340
   15CHTO  H203 5923   5.720   4.964   2.476 -0.5084 -1.1060 -1.8410
   15CHTO   O82 5924   5.634   5.000   2.468 -0.3391  0.0644  0.9157
   15CHTO  C123 5925   5.545   4.907   2.398  0.1055 -0.7909 -0.2279
   15CHTO  H227 5926   5.485   4.968   2.330  0.9265  2.2444  1.6666
   15CHTO   O77 5927   5.635   4.809   2.337  0.0139  0.0637 -0.7990
   15CHTO  C118 5928   5.571   4.734   2.237  0.2307  0.1871  0.6631
   15CHTO  H222 5929   5.523   4.808   2.173 -0.8618 -0.4227  0.7618
   15CHTO  C125 5930   5.677   4.651   2.144 -0.0283 -0.0890  0.4026
   15CHTO   O84 5931   5.740   4.557   2.232  0.0324  0.0364 -0.4377
   15CHTO  H205 5932   5.696   4.474   2.223 -0.2119  0.1754 -0.5244
   15CHTO  C114 5933   5.476   4.635   2.314  0.1035 -0.0698 -0.1095
   15CHTO  H218 5934   5.532   4.568   2.379 -0.1692  0.1632  0.3694
   15CHTO  C116 5935   5.385   4.714   2.412 -0.0331  0.5199 -0.5291
   15CHTO  H220 5936   5.306   4.763   2.350 -0.3894  0.8726  0.1968
   15CHTO   O79 5937   5.305   4.619   2.488  0.1105 -0.0454 -0.0668
   15CHTO  H201 5938   5.263   4.557   2.431 -2.0904  0.7024  0.7160
   15CHTO  C120 5939   5.454   4.833   2.495 -0.5297  0.0531 -0.0452
   15CHTO  H224 5940   5.521   4.779   2.565  0.2459 -0.1451 -0.9171
   15CHTO   N21 5941   5.360   4.927   2.573  0.2345 -0.0842 -0.2970
   15CHTO  H211 5942   5.283   4.965   2.508  0.3891  2.4922  0.9699
   15CHTO  H212 5943   5.329   4.871   2.660  0.2890 -0.9468 -0.8286
   15CHTO   O75 5944   5.394   4.569   2.214  0.7033 -0.0219  0.2475
   15CHTO  C112 5945   5.379   4.428   2.233 -0.7109  0.4011  0.5200
   15CHTO  H216 5946   5.380   4.420   2.343 -1.4009 -2.1674  0.3724
   15CHTO   O73 5947   5.490   4.364   2.174 -0.4757  0.0436  0.4213
   15CHTO  C113 5948   5.486   4.224   2.183  0.2991 -0.6731 -0.7493
   15CHTO  H217 5949   5.473   4.183   2.286 -2.9780 -0.0071 -0.8579
   15CHTO  C124 5950   5.627   4.188   2.123 -0.0381 -0.4019 -0.0866
   15CHTO   O83 5951   5.643   4.194   1.978 -0.2758  0.0541  0.2815
   15CHTO  H204 5952   5.587   4.128   1.943  1.0609 -2.2646  2.3262
   15CHTO  C109 5953   5.361   4.165   2.115  0.2218  0.6063 -0.5672
   15CHTO  H213 5954   5.366   4.201   2.012  3.2956 -0.5017 -0.8396
   15CHTO  C110 5955   5.234   4.226   2.177 -0.5577 -0.1673 -1.1000
   15CHTO  H214 5956   5.223   4.182   2.276  0.1126 -0.6459 -1.2339
   15CHTO   O78 5957   5.125   4.180   2.099 -0.2934  0.1285  0.0226
   15CHTO  H200 5958   5.121   4.237   2.025  0.2287  0.6607  0.4041
   15CHTO  C111 5959   5.243   4.381   2.185 -0.5105 -0.0136  0.2400
   15CHTO  H215 5960   5.234   4.424   2.084  2.7404  1.0406  0.3533
   15CHTO   N19 5961   5.129   4.438   2.267  0.2960 -0.1172  0.1583
   15CHTO  H207 5962   5.161   4.539   2.288 -0.1508  0.5422 -2.1523
   15CHTO  H208 5963   5.036   4.429   2.213 -0.0729 -0.6342  0.8569
   15CHTO   O74 5964   5.365   4.019   2.117 -0.1152  0.2392 -0.1273
   15CHTO  C115 5965   5.410   3.947   1.988  0.4559  0.6255 -0.2575
   15CHTO  H219 5966   5.458   4.018   1.919 -0.2265 -0.1526 -1.5518
   15CHTO   O76 5967   5.513   3.839   2.016 -0.1485  0.0819 -0.0723
   15CHTO  C122 5968   5.481   3.735   2.109 -0.1205  0.5328 -0.4126
   15CHTO  H226 5969   5.489   3.768   2.212 -2.4703  1.0670 -0.3629
   15CHTO  C126 5970   5.588   3.618   2.089  0.5368 -0.3057  0.0461
   15CHTO   O85 5971   5.709   3.640   2.161  0.6572  0.0346  1.1805
   15CHTO  H206 5972   5.762   3.562   2.160  3.1287  1.6531 -0.2834
   15CHTO  C121 5973   5.329   3.681   2.075  0.0651 -0.2263 -0.4641
   15CHTO  H225 5974   5.312   3.572   2.088  0.2474 -0.2104 -0.0929
   15CHTO   O81 5975   5.241   3.726   2.180  0.2129  0.0162  0.1109
   15CHTO  H202 5976   5.150   3.715   2.161  0.3776 -1.3735  0.0417
   15CHTO  C119 5977   5.288   3.727   1.933  0.1244  0.5269  0.3505
   15CHTO  H223 5978   5.371   3.697   1.869  2.0407  1.4001  2.3484
   15CHTO  C117 5979   5.280   3.882   1.919 -0.4457 -0.0276  0.1020
   15CHTO  H221 5980   5.203   3.927   1.981 -0.5183 -0.6699  0.4834
   15CHTO   N20 5981   5.248   3.931   1.781 -0.3935  0.4539  0.0371
   15CHTO  H209 5982   5.147   3.968   1.775 -0.3843  0.6485  1.0337
   15CHTO  H210 5983   5.268   3.853   1.709  0.3425  0.2139  0.4930
   15CHTO   O80 5984   5.166   3.645   1.873  0.2968  0.4519  0.6273
   15CHTO  C103 5985   5.181   3.495   1.834  0.4980  0.4251  0.4276
   15CHTO  H190 5986   5.265   3.451   1.888  0.6762  0.8943  0.5294
   15CHTO  C101 5987   5.060   3.400   1.865 -0.1545  0.1467 -0.3168
   15CHTO  H188 5988   4.968   3.443   1.827 -0.8980 -2.0899 -1.1723
   15CHTO   O68 5989   5.044   3.397   2.022  0.3636 -0.0183  0.1269
   15CHTO  H168 5990   5.105   3.336   2.059  1.4263  1.7397  1.3363
   15CHTO   C99 5991   5.064   3.260   1.793  0.0173 -1.0842  0.0326
   15CHTO  H186 5992   5.146   3.194   1.830  1.2974 -1.2186 -2.8771
   15CHTO   N17 5993   4.939   3.177   1.803  0.2292 -0.4752  0.2244
   15CHTO  H174 5994   4.961   3.072   1.790 -2.1913 -0.9926 -0.0399
   15CHTO  H175 5995   4.873   3.206   1.722  0.7377  1.8027  0.5983
   15CHTO   C97 5996   5.104   3.277   1.642  0.1702  0.0811 -0.6597
   15CHTO  H184 5997   5.022   3.313   1.578  0.4310  0.6403 -0.6814
   15CHTO   O64 5998   5.221   3.355   1.626  0.3524 -0.1801  0.1556
   15CHTO  C104 5999   5.225   3.491   1.676 -0.1449 -1.1671 -0.5031
   15CHTO  H191 6000   5.157   3.552   1.616 -0.4993 -0.0718  0.9820
   15CHTO  C108 6001   5.367   3.537   1.649  0.3613 -0.0798  0.4479
   15CHTO   O71 6002   5.389   3.536   1.511  0.9202  0.5403  0.6755
   15CHTO  H171 6003   5.453   3.604   1.498 -0.3303  1.6638  0.2272
   15CHTO   O62 6004   5.163   3.149   1.597 -0.0841  0.1486 -0.1089
   15CHTO   C91 6005   5.165   3.126   1.450 -0.5399 -0.0227  0.0667
   15CHTO  H178 6006   5.102   3.196   1.393 -0.9874  0.3489  1.0056
   15CHTO   C92 6007   5.111   2.983   1.406 -0.4513  0.5349  0.1806
   15CHTO  H179 6008   5.012   2.966   1.451 -0.3982 -2.3388 -0.6676
   15CHTO   O66 6009   5.086   2.990   1.262  0.4632  1.0003 -0.4827
   15CHTO  H166 6010   5.154   2.949   1.211  0.2621  0.2692 -0.1515
   15CHTO   C93 6011   5.223   2.865   1.426  0.3218  0.1912  0.0949
   15CHTO  H180 6012   5.194   2.786   1.356  1.7531  0.8811 -1.3083
   15CHTO   N16 6013   5.211   2.807   1.565 -0.0134  0.1396 -0.1878
   15CHTO  H172 6014   5.305   2.830   1.612  0.3708  1.8569 -1.7564
   15CHTO  H173 6015   5.220   2.701   1.544 -0.2421  0.4087 -1.6846
   15CHTO   C94 6016   5.368   2.910   1.386 -0.1969  0.0421  0.1333
   15CHTO  H181 6017   5.433   2.912   1.474  1.6262 -2.3135 -1.1297
   15CHTO   O61 6018   5.360   3.036   1.318 -0.0363  0.6525 -0.0253
   15CHTO   C95 6019   5.316   3.145   1.398  0.0414  0.5793 -0.5254
   15CHTO  H182 6020   5.382   3.151   1.485  0.7745 -2.6946 -0.7934
   15CHTO  C106 6021   5.331   3.283   1.312  0.2683 -0.2258 -0.3579
   15CHTO   O69 6022   5.268   3.278   1.190  0.2837 -0.1844 -0.1682
   15CHTO  H169 6023   5.336   3.257   1.129  0.4983 -0.6499  0.2374
   15CHTO   O63 6024   5.435   2.812   1.286 -0.4029 -0.0799 -0.1051
   15CHTO   C96 6025   5.481   2.684   1.349 -0.7466 -0.0225 -0.7519
   15CHTO  H183 6026   5.419   2.656   1.433 -0.2617  0.5859 -0.1847
   15CHTO   C98 6027   5.629   2.692   1.403  0.6054  0.8726  0.3209
   15CHTO  H185 6028   5.690   2.701   1.312  1.4119  2.8647  1.0221
   15CHTO   O67 6029   5.655   2.807   1.486  0.1123 -0.6089  0.1486
   15CHTO  H167 6030   5.613   2.889   1.465  0.4641  0.3459  2.9273
   15CHTO  C102 6031   5.653   2.548   1.478 -0.1692 -0.1017 -0.5791
   15CHTO  H189 6032   5.588   2.546   1.566 -0.3242 -1.8240 -0.7096
   15CHTO   N18 6033   5.785   2.546   1.547  0.0067  0.3855 -0.2776
   15CHTO  H176 6034   5.803   2.444   1.579  0.7284  0.9201  1.0380
   15CHTO  H177 6035   5.774   2.600   1.640  3.2107 -0.6580  0.7932
   15CHTO  C105 6036   5.627   2.432   1.382 -0.4394  0.1408  0.5636
   15CHTO  H192 6037   5.706   2.431   1.307 -1.2068 -1.6124 -0.2288
   15CHTO   O65 6038   5.505   2.443   1.311  0.2622  0.0569 -0.5560
   15CHTO  C100 6039   5.472   2.564   1.241  0.0810  0.1915 -0.7339
   15CHTO  H187 6040   5.559   2.579   1.175  1.5745 -0.8800  0.9411
   15CHTO  C107 6041   5.337   2.558   1.168  0.0297  0.9853  0.2271
   15CHTO   O70 6042   5.231   2.533   1.258 -0.3873  0.2451  0.1053
   15CHTO  H170 6043   5.146   2.538   1.220 -1.0024  0.3417  1.4833
   15CHTO   O57 6044   5.636   2.291   1.473  0.2189  0.3527 -0.6812
   15CHTO   C85 6045   5.527   2.252   1.563  0.0451  0.2346 -0.5415
   15CHTO  H157 6046   5.475   2.343   1.599  1.8815  0.8002  0.8220
   15CHTO   C83 6047   5.598   2.192   1.697 -0.0307 -0.4457 -0.4315
   15CHTO  H155 6048   5.651   2.275   1.745  1.1820 -0.0117 -2.4826
   15CHTO   O56 6049   5.708   2.101   1.666  0.0985  0.1710 -0.4038
   15CHTO  H135 6050   5.758   2.089   1.745  0.4342  0.1521 -0.6205
   15CHTO   C81 6051   5.491   2.136   1.797  0.4556  0.0315  0.4884
   15CHTO  H153 6052   5.424   2.218   1.824  0.4031 -0.1847  1.0192
   15CHTO   N14 6053   5.549   2.095   1.924 -0.3630  0.4066 -0.0739
   15CHTO  H141 6054   5.634   2.030   1.926 -0.1087  0.6901 -1.2052
   15CHTO  H142 6055   5.571   2.181   1.983  0.6297 -0.4924  0.8960
   15CHTO   C79 6056   5.411   2.027   1.718  0.0893  0.5752  0.0546
   15CHTO  H151 6057   5.331   1.996   1.785  1.6128  0.8137  2.0590
   15CHTO   O52 6058   5.346   2.076   1.597  0.0979  0.2863  1.0675
   15CHTO   C86 6059   5.429   2.145   1.502 -1.1593  0.1376  0.0350
   15CHTO  H158 6060   5.491   2.065   1.457  0.9075  1.2877  0.7700
   15CHTO   C90 6061   5.343   2.206   1.387 -0.4473  0.5506  0.1541
   15CHTO   O60 6062   5.265   2.096   1.328  0.2944  0.2654 -0.0865
   15CHTO  H138 6063   5.208   2.121   1.258  1.4580  1.6318 -0.5928
   15CHTO   O50 6064   5.489   1.909   1.677  0.1100  0.0583 -0.2107
   15CHTO   C73 6065   5.450   1.768   1.663 -0.2503 -0.3859 -0.2720
   15CHTO  H145 6066   5.349   1.755   1.622  0.1732 -0.4815 -1.3000
   15CHTO   C74 6067   5.461   1.702   1.800  0.5173 -0.3101  0.1357
   15CHTO  H146 6068   5.384   1.748   1.864  0.4445 -0.9662  0.5263
   15CHTO   O54 6069   5.424   1.565   1.789  0.0208  0.1418 -0.1668
   15CHTO  H133 6070   5.467   1.523   1.717  0.2978 -1.0102  0.6490
   15CHTO   C75 6071   5.603   1.726   1.857 -0.1660  0.4538 -0.0661
   15CHTO  H147 6072   5.620   1.834   1.869  2.1223  0.2915 -1.5157
   15CHTO   N13 6073   5.621   1.680   1.994  0.3920 -0.2412 -0.2545
   15CHTO  H139 6074   5.683   1.748   2.051 -0.3010 -0.5362  0.8702
   15CHTO  H140 6075   5.528   1.648   2.039  0.2891 -1.1453 -1.1000
   15CHTO   C76 6076   5.710   1.666   1.750  0.0834  0.0860 -0.7700
   15CHTO  H148 6077   5.691   1.559   1.756 -1.0445  0.3744  1.1942
   15CHTO   O49 6078   5.685   1.708   1.611 -0.5194 -0.0346  0.3228
   15CHTO   C77 6079   5.548   1.703   1.564  0.5442  0.0382 -0.2235
   15CHTO  H149 6080   5.519   1.599   1.551  1.8849 -0.3527 -0.1509
   15CHTO   C88 6081   5.533   1.761   1.421  0.4717  0.1469 -0.2634
   15CHTO   O58 6082   5.428   1.736   1.361  0.6833  0.1036 -0.3294
   15CHTO  H136 6083   5.411   1.801   1.295  1.4059  1.0880  0.4365
   15CHTO   O51 6084   5.865   1.716   1.801 -0.4237  0.1664  0.0163
   15CHTO   C78 6085   5.988   1.708   1.710  0.4910 -0.5466  0.7756
   15CHTO  H150 6086   5.950   1.724   1.607  0.9051 -0.2257  0.6695
   15CHTO   C80 6087   6.049   1.571   1.712 -0.2514 -0.4741 -1.1302
   15CHTO  H152 6088   6.067   1.547   1.819  3.3024  0.3496 -1.4736
   15CHTO   O55 6089   5.954   1.481   1.662  0.0620 -0.4926 -0.3803
   15CHTO  H134 6090   5.985   1.413   1.606  1.0172 -1.9089  1.7977
   15CHTO   C84 6091   6.189   1.557   1.640 -0.2786  0.2946 -0.5137
   15CHTO  H156 6092   6.174   1.562   1.533 -0.3734  0.0829 -0.5111
   15CHTO   N15 6093   6.259   1.430   1.677 -0.1796  0.2259 -0.1110
   15CHTO  H143 6094   6.249   1.407   1.780  1.4295  2.2356  0.5341
   15CHTO  H144 6095   6.362   1.426   1.649 -0.0578  1.4613  0.1242
   15CHTO   C87 6096   6.275   1.681   1.673 -0.7639 -0.6861  0.6634
   15CHTO  H159 6097   6.307   1.678   1.777  0.4502  1.1680  0.3822
   15CHTO   O53 6098   6.194   1.822   1.648  0.1496 -0.3174  0.2227
   15CHTO   C82 6099   6.083   1.822   1.740 -0.0313  0.4927 -0.2754
   15CHTO  H154 6100   6.112   1.809   1.844 -0.9238 -0.3973 -0.1227
   15CHTO   C89 6101   6.016   1.962   1.734 -0.3929 -0.0063  0.2018
   15CHTO   O59 6102   6.117   2.066   1.749  1.0207 -0.2992  0.3428
   15CHTO  H137 6103   6.160   2.050   1.831 -0.1966 -0.8729  0.8720
   15CHTO   O45 6104   6.415   1.684   1.579  0.7090  0.6024  0.1341
   15CHTO   C67 6105   6.516   1.769   1.636  0.5132 -0.2951  0.2653
   15CHTO  H124 6106   6.463   1.841   1.698 -0.1295 -0.7808  0.2792
   15CHTO   C65 6107   6.620   1.694   1.723 -0.2152  0.0440 -0.2498
   15CHTO  H122 6108   6.640   1.599   1.673  0.1655  0.8772 -1.6798
   15CHTO   O44 6109   6.557   1.682   1.856  1.0246  0.4482  0.1323
   15CHTO  H102 6110   6.608   1.647   1.927 -1.2350 -0.6863  1.2448
   15CHTO   C63 6111   6.758   1.767   1.715 -0.1412 -0.0896  0.1378
   15CHTO  H120 6112   6.806   1.735   1.622 -0.7203  0.9107 -0.5211
   15CHTO   N11 6113   6.855   1.717   1.812  0.0845 -0.7943 -0.1856
   15CHTO  H108 6114   6.836   1.743   1.915  1.2162 -1.4651  0.2022
   15CHTO  H109 6115   6.958   1.746   1.800  0.0011  1.9158  4.2519
   15CHTO   C61 6116   6.743   1.922   1.707 -0.1235 -0.0202  1.1523
   15CHTO  H118 6117   6.845   1.963   1.704  0.4104 -1.3338  0.8729
   15CHTO   O40 6118   6.686   1.953   1.574  0.5168  0.0858 -0.0888
   15CHTO   C68 6119   6.579   1.861   1.519  0.0050  0.2234 -0.3499
   15CHTO  H125 6120   6.631   1.798   1.444 -0.9910 -1.4308  0.3294
   15CHTO   C72 6121   6.474   1.950   1.448  0.6426 -0.4563 -0.0078
   15CHTO   O48 6122   6.386   2.027   1.535  0.9053  0.1813  0.5092
   15CHTO  H105 6123   6.372   2.114   1.503 -3.5363 -0.4101  0.5305
   15CHTO   O38 6124   6.666   1.973   1.821 -0.2048 -0.1651  0.3765
   15CHTO   C55 6125   6.623   2.115   1.820 -0.0717  0.1190  0.3201
   15CHTO  H112 6126   6.574   2.135   1.723 -0.9275  1.5219  1.0305
   15CHTO   C56 6127   6.728   2.225   1.862  0.3858 -0.3715 -0.1168
   15CHTO  H113 6128   6.740   2.194   1.967  1.3683 -1.4516 -0.5389
   15CHTO   O42 6129   6.853   2.226   1.789 -0.1645  0.8204 -0.3548
   15CHTO  H100 6130   6.924   2.249   1.846  0.8279 -1.7561 -0.5169
   15CHTO   C57 6131   6.652   2.365   1.858 -0.2973  0.1180  0.3240
   15CHTO  H114 6132   6.630   2.378   1.752 -0.1796  1.6675  0.4728
   15CHTO   N10 6133   6.729   2.485   1.912 -0.6602  0.1944  0.9887
   15CHTO  H106 6134   6.705   2.514   2.013 -1.5900  2.6107  0.1122
   15CHTO  H107 6135   6.834   2.461   1.909 -0.6025  0.1163  2.8473
   15CHTO   C58 6136   6.515   2.367   1.937  0.0943 -0.1129  0.3406
   15CHTO  H115 6137   6.530   2.382   2.046 -1.8644  1.5946  0.3977
   15CHTO   O37 6138   6.438   2.247   1.911 -0.3525 -0.0573 -0.0912
   15CHTO   C59 6139   6.500   2.120   1.926  0.1030 -0.3686  0.7126
   15CHTO  H116 6140   6.538   2.115   2.029  1.9885  1.9042  0.1773
   15CHTO   C70 6141   6.398   2.011   1.906 -0.2796  0.4718 -0.1088
   15CHTO   O46 6142   6.313   2.007   2.022  0.5872  0.0923  0.2528
   15CHTO  H103 6143   6.265   1.927   2.024  2.0383 -0.7615  2.9514
   15CHTO   O39 6144   6.419   2.500   1.893 -0.8168  0.1246  0.5133
   15CHTO   C60 6145   6.382   2.522   1.755 -0.0168 -0.4174  0.1838
   15CHTO  H117 6146   6.468   2.525   1.688 -0.6944  1.8128 -0.6180
   15CHTO   C62 6147   6.284   2.415   1.687  0.0619 -0.7346  0.3322
   15CHTO  H119 6148   6.342   2.320   1.683  1.4096  0.0133  1.7069
   15CHTO   O43 6149   6.187   2.380   1.789  0.1438 -0.0159 -0.3412
   15CHTO  H101 6150   6.131   2.308   1.768 -1.8243  0.5105  2.7519
   15CHTO   C66 6151   6.235   2.468   1.551  0.2998  0.3509 -0.9324
   15CHTO  H123 6152   6.323   2.487   1.488  1.5654  0.0737  0.7232
   15CHTO   N12 6153   6.148   2.365   1.485  0.3275  0.7346 -0.2639
   15CHTO  H110 6154   6.064   2.347   1.550 -0.1049  0.9877 -0.7409
   15CHTO  H111 6155   6.196   2.271   1.464 -0.9990 -0.0292  0.0615
   15CHTO   C69 6156   6.180   2.613   1.559  0.2312  0.6618 -1.0812
   15CHTO  H126 6157   6.099   2.608   1.635  0.9009 -2.9509 -0.5252
   15CHTO   O41 6158   6.278   2.696   1.611  0.0475  0.2529  0.1031
   15CHTO   C64 6159   6.323   2.667   1.759  0.1312 -1.0614  0.2929
   15CHTO  H121 6160   6.231   2.667   1.820 -1.6282 -1.1327 -2.2860
   15CHTO   C71 6161   6.434   2.761   1.808 -0.8874 -0.7398 -0.2000
   15CHTO   O47 6162   6.385   2.873   1.892 -0.8088 -0.2223  0.3131
   15CHTO  H104 6163   6.362   2.843   1.978 -1.8444  0.3177  0.2340
   15CHTO   O34 6164   6.115   2.665   1.426  0.3791 -0.0801 -0.2844
   15CHTO   C49 6165   6.106   2.757   1.299  0.0459  0.8014  0.0962
   15CHTO   H91 6166   6.152   2.705   1.214  0.3864  1.6163 -0.2267
   15CHTO   C47 6167   6.190   2.885   1.320 -0.0867 -0.5568  0.2299
   15CHTO   H89 6168   6.199   2.938   1.223  0.8016  1.2754  1.2623
   15CHTO   O33 6169   6.323   2.846   1.362  0.3999 -0.1737  0.3102
   15CHTO   H70 6170   6.368   2.793   1.298  0.0993  0.1403 -0.1631
   15CHTO   C45 6171   6.115   2.978   1.416 -0.0469  0.1428  0.2498
   15CHTO   H87 6172   6.098   2.929   1.513 -1.9079  1.3879  0.5828
   15CHTO    N8 6173   6.193   3.103   1.439  0.4591 -0.1137 -0.5380
   15CHTO   H75 6174   6.284   3.088   1.495 -1.3739  0.2617  2.6431
   15CHTO   H76 6175   6.225   3.146   1.346  2.3691  1.0750  0.6337
   15CHTO   C43 6176   5.964   3.008   1.364  0.1621 -0.1305 -0.7252
   15CHTO   H85 6177   5.917   3.064   1.445 -0.9151 -2.6255  0.4413
   15CHTO   O29 6178   5.890   2.890   1.338 -0.1244  0.3625 -0.3488
   15CHTO   C50 6179   5.952   2.784   1.267 -0.1761 -0.3563 -0.0692
   15CHTO   H92 6180   5.896   2.698   1.306  0.1083 -0.3507  0.3541
   15CHTO   C54 6181   5.917   2.779   1.111  0.5670 -0.5874 -0.3083
   15CHTO   O36 6182   5.779   2.794   1.096  0.0157 -0.0323  0.2954
   15CHTO   H72 6183   5.766   2.817   1.006  2.6946  0.4078  0.0014
   15CHTO   O27 6184   5.974   3.074   1.243 -0.2020  0.0618 -0.2933
   15CHTO   C37 6185   5.889   3.149   1.151  0.4919  0.2123  0.2660
   15CHTO   H79 6186   5.817   3.087   1.096  0.3709  2.0029 -1.6779
   15CHTO   C38 6187   5.798   3.263   1.223 -0.6837 -0.2751  0.1169
   15CHTO   H80 6188   5.866   3.325   1.283 -1.5592 -0.2592  1.0987
   15CHTO   O31 6189   5.703   3.218   1.316 -0.2829  0.6501 -0.2002
   15CHTO   H68 6190   5.729   3.154   1.380 -1.6616  0.7824  0.5073
   15CHTO   C39 6191   5.732   3.352   1.108  0.4254 -1.1802  0.0874
   15CHTO   H81 6192   5.650   3.295   1.063 -2.1457  2.0633  0.5166
   15CHTO    N7 6193   5.675   3.473   1.176  0.0123 -0.7403  0.4468
   15CHTO   H73 6194   5.577   3.498   1.139  0.3533 -0.3521 -0.2012
   15CHTO   H74 6195   5.679   3.461   1.284  2.0483  2.8096  0.8456
   15CHTO   C40 6196   5.830   3.398   0.999 -0.1673  0.1531 -0.2870
   15CHTO   H82 6197   5.897   3.474   1.037  0.8806 -1.0228  0.2455
   15CHTO   O26 6198   5.899   3.287   0.949  0.4314  0.4109  0.4411
   15CHTO   C41 6199   5.981   3.220   1.050  1.0600 -0.8515 -0.3360
   15CHTO   H83 6200   6.037   3.297   1.105  1.7815  0.5069 -2.8913
   15CHTO   C52 6201   6.081   3.131   0.972 -0.8036  0.2965  0.6228
   15CHTO   O35 6202   6.026   3.043   0.888  0.2430 -0.0750  0.1021
   15CHTO   H71 6203   5.981   2.981   0.942  1.3467 -1.0713 -0.1168
   15CHTO   O28 6204   5.756   3.444   0.881 -0.1572 -0.0819  0.2824
   15CHTO   C42 6205   5.777   3.574   0.817  0.5715 -0.2556  0.0924
   15CHTO   H84 6206   5.735   3.563   0.717 -1.3603 -1.8017  1.0613
   15CHTO   C44 6207   5.925   3.603   0.806  0.3230 -0.1659 -0.3262
   15CHTO   H86 6208   5.970   3.602   0.905 -1.2780  1.2707  0.4382
   15CHTO   O32 6209   5.983   3.489   0.730  0.2635  0.6241 -0.4567
   15CHTO   H69 6210   6.075   3.488   0.742  0.4139  1.7163 -1.3917
   15CHTO   C48 6211   5.956   3.741   0.746 -0.3295  0.1734  0.4012
   15CHTO   H90 6212   5.924   3.731   0.642  0.5068 -1.7074  0.3056
   15CHTO    N9 6213   6.108   3.768   0.744 -0.4114 -0.3153 -0.0530
   15CHTO   H77 6214   6.139   3.792   0.845  3.2478  1.7302 -1.5515
   15CHTO   H78 6215   6.154   3.685   0.694 -0.2588  0.5891 -1.4382
   15CHTO   C51 6216   5.875   3.860   0.817  0.3117 -0.8950 -0.9462
   15CHTO   H93 6217   5.908   3.861   0.921 -3.9311 -4.6724  0.6220
   15CHTO   O30 6218   5.735   3.831   0.813  0.0024  0.2822  0.4973
   15CHTO   C46 6219   5.701   3.689   0.887  0.3620 -0.3031 -0.0002
   15CHTO   H88 6220   5.727   3.688   0.993  0.3588  0.1535  0.0055
   15CHTO   C53 6221   5.547   3.674   0.876 -0.0368 -0.0873  0.1127
   15CHTO   O72 6222   5.494   3.801   0.925 -0.1231  0.2076  0.5938
   15CHTO  H199 6223   5.402   3.806   0.908  0.3700  1.6338 -1.9117
   15CHTO   O22 6224   5.884   3.984   0.750  0.4535 -0.5641  0.1748
   15CHTO   C31 6225   5.853   4.109   0.802 -0.6639 -0.0851 -0.5038
   15CHTO   H59 6226   5.865   4.185   0.722 -4.0951  0.3572 -0.6613
   15CHTO   C29 6227   5.704   4.128   0.851 -0.5795  0.4314  0.4777
   15CHTO   H57 6228   5.702   4.048   0.927 -1.3199 -0.2513 -0.2492
   15CHTO   O21 6229   5.609   4.102   0.743  0.2772 -0.2733 -0.4931
   15CHTO   H37 6230   5.525   4.099   0.786 -0.8332 -0.5156 -2.5993
   15CHTO   C27 6231   5.677   4.263   0.926 -0.3468  0.1882  0.8858
   15CHTO   H55 6232   5.686   4.343   0.851 -2.0310 -1.6569 -1.3487
   15CHTO    N5 6233   5.541   4.266   0.990 -0.6834 -0.0281  0.1906
   15CHTO   H43 6234   5.538   4.225   1.089  0.9509 -3.1078 -0.9616
   15CHTO   H44 6235   5.494   4.362   0.972  0.7538  0.8627  1.0482
   15CHTO   C25 6236   5.791   4.293   1.024  0.7247 -0.0492  0.0551
   15CHTO   H53 6237   5.796   4.217   1.104 -0.6312 -0.5138 -0.2903
   15CHTO   O17 6238   5.916   4.286   0.958 -0.4481 -0.3486 -0.0982
   15CHTO   C32 6239   5.947   4.156   0.916 -0.3227 -0.0944  0.3323
   15CHTO   H60 6240   5.939   4.087   1.000 -0.0519 -0.6294 -0.0786
   15CHTO   C36 6241   6.097   4.163   0.869 -0.1452 -0.3404 -0.0811
   15CHTO   O25 6242   6.176   4.164   0.989  0.0284  0.5784 -0.6574
   15CHTO   H40 6243   6.223   4.245   0.989 -0.4194  0.8365 -1.4858
   15CHTO   O15 6244   5.771   4.427   1.083  0.2011  0.2169 -0.3612
   15CHTO   C19 6245   5.809   4.511   1.200  0.2143  0.1039  0.0025
   15CHTO   H47 6246   5.914   4.485   1.219 -0.1534 -3.0623 -2.0037
   15CHTO   C20 6247   5.801   4.670   1.175 -0.5014  0.3791 -0.1087
   15CHTO   H48 6248   5.696   4.701   1.165 -0.8535 -0.0717  1.9367
   15CHTO   O19 6249   5.881   4.699   1.062 -0.0577 -0.4436 -0.0535
   15CHTO   H35 6250   5.973   4.705   1.078  0.0349 -1.9176  0.0530
   15CHTO   C21 6251   5.870   4.739   1.295 -0.3657 -0.3016  0.0830
   15CHTO   H49 6252   5.975   4.710   1.302 -0.1386  0.7048  1.0010
   15CHTO    N4 6253   5.857   4.890   1.286 -0.0451 -0.2089  0.1009
   15CHTO   H41 6254   5.882   4.920   1.186  2.5399 -0.3902  0.6534
   15CHTO   H42 6255   5.923   4.938   1.357  0.5053 -0.3335 -0.3220
   15CHTO   C22 6256   5.808   4.690   1.424  0.0210 -0.9801 -0.3981
   15CHTO   H50 6257   5.701   4.706   1.431  0.2527 -0.5868  3.7013
   15CHTO   O14 6258   5.814   4.546   1.436  0.4302  0.6671  0.0166
   15CHTO   C23 6259   5.734   4.485   1.330  0.1264 -0.5808  0.2521
   15CHTO   H51 6260   5.633   4.527   1.330  1.1017  1.8687  1.3197
   15CHTO   C34 6261   5.707   4.338   1.363 -0.3544 -0.1089  0.8307
   15CHTO   O23 6262   5.827   4.262   1.384 -0.0270  0.1904 -0.0121
   15CHTO   H38 6263   5.802   4.173   1.404  0.3150 -0.1791 -1.1955
   15CHTO   O16 6264   5.871   4.741   1.543 -0.1744  0.3918  0.0906
   15CHTO   C24 6265   5.997   4.648   1.606 -0.0614 -0.6566 -0.0623
   15CHTO   H52 6266   6.037   4.582   1.530  0.3188 -0.2403 -0.2322
   15CHTO   C26 6267   5.952   4.578   1.732 -0.0647 -0.3114 -0.3487
   15CHTO   H54 6268   5.896   4.655   1.790  1.0416 -0.1176  0.4808
   15CHTO   O20 6269   5.865   4.470   1.692  0.4404 -0.1480  0.4173
   15CHTO   H36 6270   5.792   4.461   1.750 -1.5056 -1.7191 -2.1760
   15CHTO   C30 6271   6.064   4.534   1.827  0.4256  0.0539 -1.3794
   15CHTO   H58 6272   6.105   4.441   1.783 -0.1167 -2.9712  4.0552
   15CHTO    N6 6273   6.022   4.475   1.956 -0.4486  0.2582 -0.7179
   15CHTO   H45 6274   5.944   4.530   2.006 -1.2676 -0.3487 -1.3181
   15CHTO   H46 6275   6.103   4.461   2.025 -0.7668  0.5124 -0.2886
   15CHTO   C33 6276   6.182   4.640   1.842 -0.4979  0.1936 -0.0153
   15CHTO   H61 6277   6.155   4.726   1.904  1.9280  0.9758  0.0174
   15CHTO   O18 6278   6.216   4.682   1.710  0.7092  0.8533 -0.4128
   15CHTO   C28 6279   6.114   4.749   1.638  0.2854  0.5710 -0.0652
   15CHTO   H56 6280   6.073   4.832   1.696 -0.2312 -1.3886  2.4915
   15CHTO   C35 6281   6.176   4.821   1.513 -0.0518 -0.0615  0.1798
   15CHTO   O24 6282   6.253   4.931   1.558 -0.4492 -0.6692  0.1505
   15CHTO   H39 6283   6.322   4.947   1.497  0.6304  0.7849  1.7076
   15CHTO    O9 6284   6.294   4.583   1.906 -0.4679 -0.0999  0.3770
   15CHTO   C13 6285   6.427   4.672   1.950 -0.1106 -0.5794 -0.4318
   15CHTO   H26 6286   6.399   4.757   2.015  1.4129 -1.0226  0.8303
   15CHTO   C11 6287   6.502   4.716   1.818  0.2211 -0.1331 -0.1963
   15CHTO   H24 6288   6.434   4.787   1.770  0.2568  0.3295  0.4322
   15CHTO    O8 6289   6.522   4.600   1.733 -0.0123 -0.2783 -0.0949
   15CHTO    H3 6290   6.513   4.627   1.644  0.7445 -0.5475 -0.2536
   15CHTO    C9 6291   6.637   4.782   1.856  0.2783 -0.2680  0.1116
   15CHTO   H22 6292   6.613   4.876   1.908  2.0875 -0.1323  0.7340
   15CHTO    N2 6293   6.707   4.835   1.737 -0.3962 -0.1072 -0.1779
   15CHTO   H10 6294   6.630   4.869   1.669 -0.6589  1.6082  0.9421
   15CHTO   H11 6295   6.775   4.766   1.690 -1.1872 -0.2618 -1.1186
   15CHTO    C7 6296   6.725   4.697   1.959  0.2442  0.1834 -0.4618
   15CHTO   H20 6297   6.792   4.778   1.994 -0.6650 -0.5222  3.0805
   15CHTO    O4 6298   6.660   4.639   2.071  0.1748  0.3411  0.2668
   15CHTO   C14 6299   6.523   4.590   2.050 -0.0863 -1.1669 -0.1819
   15CHTO   H27 6300   6.485   4.606   2.153 -0.6891 -1.7883 -0.3039
   15CHTO   C18 6301   6.517   4.437   2.026 -0.2135 -0.3331 -0.0618
   15CHTO   O13 6302   6.570   4.365   2.140  0.2215 -0.7819  0.2974
   15CHTO    H7 6303   6.663   4.375   2.147 -0.0425  0.9359  1.5958
   15CHTO    O2 6304   6.820   4.581   1.884 -0.4117  0.2669 -0.8621
   15CHTO    C1 6305   6.957   4.567   1.939 -0.6554 -0.3751 -0.4154
   15CHTO   H14 6306   6.946   4.568   2.050 -0.8032 -1.3151 -0.4202
   15CHTO    C2 6307   7.059   4.685   1.905 -0.4229  0.0195 -0.7480
   15CHTO   H15 6308   7.044   4.698   1.797 -0.3660  1.0460 -0.6413
   15CHTO    O6 6309   7.032   4.808   1.972  0.3897  0.1174 -0.1541
   15CHTO    H1 6310   7.043   4.876   1.909 -1.0363 -1.1048 -1.7737
   15CHTO    C3 6311   7.211   4.647   1.934 -0.1646 -0.5048  0.3241
   15CHTO   H16 6312   7.230   4.648   2.042 -1.2315  0.3842  0.5152
   15CHTO    N1 6313   7.296   4.741   1.867 -0.3466 -0.1773  0.0087
   15CHTO    H8 6314   7.262   4.843   1.877  0.2841  0.3459 -2.7615
   15CHTO    H9 6315   7.305   4.710   1.764 -0.4981  0.3176 -0.1560
   15CHTO    C4 6316   7.236   4.498   1.890 -0.1644  0.2366  0.0561
   15CHTO   H17 6317   7.231   4.492   1.781 -0.2787 -0.8263  0.1078
   15CHTO    O1 6318   7.145   4.410   1.954  0.0922 -0.3946  0.3915
   15CHTO    C5 6319   7.017   4.428   1.904  0.2728 -0.7211 -0.5412
   15CHTO   H18 6320   7.026   4.419   1.796  1.7690 -0.8903 -0.4186
   15CHTO   C16 6321   6.928   4.313   1.964  0.3981 -0.3193 -0.1096
   15CHTO   O11 6322   6.976   4.182   1.929  0.8082 -0.1441 -0.1077
   15CHTO    H5 6323   6.934   4.108   1.969  1.1752 -0.2352  0.1192
   15CHTO    O3 6324   7.367   4.452   1.940 -0.0658 -0.5362 -0.3818
   15CHTO    C6 6325   7.435   4.349   1.864  0.8536  0.1957 -0.2488
   15CHTO   H19 6326   7.377   4.313   1.779 -2.0456  2.0090  0.9052
   15CHTO    C8 6327   7.573   4.395   1.806  0.8180  0.2162  0.1616
   15CHTO   H21 6328   7.634   4.434   1.888  2.4201  0.3516 -1.0666
   15CHTO    O7 6329   7.547   4.500   1.705 -0.3251  0.0158  0.2386
   15CHTO    H2 6330   7.552   4.469   1.617  2.0818  0.2520  0.2577
   15CHTO   C12 6331   7.658   4.277   1.752 -0.5537 -0.4419  0.3998
   15CHTO   H25 6332   7.612   4.254   1.654  1.1695 -0.4776 -0.4181
   15CHTO    N3 6333   7.804   4.305   1.724  0.0174  0.2644 -0.3871
   15CHTO   H12 6334   7.841   4.349   1.816 -0.8804 -1.3540  0.7628
   15CHTO   H13 6335   7.812   4.375   1.642 -1.4428 -0.2859 -1.0236
   15CHTO   C15 6336   7.655   4.150   1.838  0.1564  0.8573 -0.2327
   15CHTO   H28 6337   7.720   4.152   1.925 -0.0131 -1.7121  0.0066
   15CHTO   O10 6338   7.674   4.020   1.743  0.1923  0.0604  0.0869
   15CHTO    H4 6339   7.628   4.033   1.662 -0.5276 -0.4985  0.3987
   15CHTO    O5 6340   7.519   4.122   1.881  0.4643  0.1943  0.5467
   15CHTO   C10 6341   7.459   4.225   1.958  0.0244  0.2176 -0.2836
   15CHTO   H23 6342   7.536   4.252   2.030  1.6051  0.6014 -2.0607
   15CHTO   C17 6343   7.344   4.157   2.031 -0.0106  0.1103  0.0155
   15CHTO   O12 6344   7.396   4.065   2.128  0.5103  0.1043  0.9199
   15CHTO    H6 6345   7.334   4.042   2.195 -0.8747 -0.1448 -0.4045
   16CHTO  H203 6346   4.188   4.506   0.802  1.3013  1.7097 -0.8369
   16CHTO   O82 6347   4.271   4.468   0.780  0.5095 -0.2979 -0.4794
   16CHTO  C123 6348   4.297   4.362   0.866 -0.1109  0.1806  0.0303
   16CHTO  H227 6349   4.209   4.297   0.879 -0.3250 -0.5605 -4.3819
   16CHTO   O77 6350   4.404   4.292   0.794  0.2057 -0.3586  0.1681
   16CHTO  C118 6351   4.481   4.187   0.859 -0.5121 -0.0021 -0.3254
   16CHTO  H222 6352   4.411   4.105   0.882 -0.5373 -0.0831 -0.6829
   16CHTO  C125 6353   4.582   4.136   0.755  0.3143  0.0659 -0.3751
   16CHTO   O84 6354   4.681   4.226   0.711 -0.6992  0.0416  0.0903
   16CHTO  H205 6355   4.708   4.276   0.786 -1.1697 -0.0070  0.2969
   16CHTO  C114 6356   4.543   4.233   0.991  0.3482  0.7017  0.5316
   16CHTO  H218 6357   4.614   4.312   0.966 -2.1751  2.8231 -0.1345
   16CHTO  C116 6358   4.427   4.292   1.082 -0.4422 -0.2085  0.1802
   16CHTO  H220 6359   4.359   4.209   1.110 -1.1743  0.7012  1.1553
   16CHTO   O79 6360   4.495   4.338   1.198  0.3214 -0.5686  0.0101
   16CHTO  H201 6361   4.538   4.269   1.246 -1.8022 -1.1540  1.1178
   16CHTO  C120 6362   4.355   4.408   1.007  0.4607  0.4215  0.7752
   16CHTO  H224 6363   4.436   4.480   0.983  1.3905 -1.1124 -0.8527
   16CHTO   N21 6364   4.253   4.472   1.094 -0.0754 -0.4220 -0.3071
   16CHTO  H211 6365   4.171   4.516   1.041  0.8395  1.2021 -0.3925
   16CHTO  H212 6366   4.207   4.394   1.154 -1.3727 -0.5297 -1.4231
   16CHTO   O75 6367   4.608   4.113   1.039 -0.3083  0.3538 -0.0682
   16CHTO  C112 6368   4.732   4.142   1.141  0.1189  0.1287  0.0784
   16CHTO  H216 6369   4.716   4.225   1.211  2.5992 -0.0856  0.9522
   16CHTO   O73 6370   4.851   4.159   1.062 -0.1302 -0.5486  0.3399
   16CHTO  C113 6371   4.972   4.187   1.132  0.8935 -0.1553 -0.0887
   16CHTO  H217 6372   4.963   4.285   1.184 -0.0754  1.0746 -2.4995
   16CHTO  C124 6373   5.087   4.191   1.033 -0.2184  0.0141 -0.6135
   16CHTO   O83 6374   5.072   4.304   0.941  0.0067  0.0558  0.2524
   16CHTO  H204 6375   5.142   4.362   0.963  0.5434 -0.7337  0.6930
   16CHTO  C109 6376   4.997   4.078   1.244  0.1297 -0.5524 -0.7125
   16CHTO  H213 6377   5.036   3.991   1.189  1.4173  0.4567 -1.4158
   16CHTO  C110 6378   4.872   4.039   1.329 -0.5495  0.2795 -0.6460
   16CHTO  H214 6379   4.848   4.124   1.392  2.1607  0.2648  0.4604
   16CHTO   O78 6380   4.897   3.920   1.410  0.6462 -0.2813  0.4204
   16CHTO  H200 6381   4.828   3.921   1.473  0.8903  2.4180  0.6659
   16CHTO  C111 6382   4.755   4.009   1.231  0.3676 -0.0315  0.1035
   16CHTO  H215 6383   4.784   3.923   1.169 -0.3863 -0.3744  0.2178
   16CHTO   N19 6384   4.623   3.976   1.295 -0.2320  0.5593 -0.3068
   16CHTO  H207 6385   4.627   3.875   1.334  0.9681  1.3471  1.7072
   16CHTO  H208 6386   4.542   3.996   1.227 -1.4100  0.5770  1.0652
   16CHTO   O74 6387   5.111   4.130   1.326  0.0362 -0.2435  0.0404
   16CHTO  C115 6388   5.198   4.027   1.413  0.1322 -0.5195  1.0107
   16CHTO  H219 6389   5.166   4.029   1.517  1.1960  0.5166  1.3190
   16CHTO   O76 6390   5.175   3.873   1.359 -0.3249  0.1678 -0.5250
   16CHTO  C122 6391   5.268   3.834   1.256 -0.2769  1.3149 -0.6937
   16CHTO  H226 6392   5.232   3.872   1.160 -0.0432  0.6278 -1.0602
   16CHTO  C126 6393   5.257   3.676   1.242  0.2722 -0.1000 -0.1201
   16CHTO   O85 6394   5.321   3.632   1.119  0.2507  0.1940 -0.1486
   16CHTO  H206 6395   5.285   3.681   1.048  0.0997  2.7582  1.6611
   16CHTO  C121 6396   5.422   3.877   1.281 -0.3942  0.4091 -0.1400
   16CHTO  H225 6397   5.488   3.788   1.273 -1.5919 -0.5027 -0.0621
   16CHTO   O81 6398   5.463   3.951   1.165 -0.1342 -0.0334  0.3412
   16CHTO  H202 6399   5.441   3.919   1.080  0.0313  0.6989  0.0198
   16CHTO  C119 6400   5.449   3.956   1.410 -0.1509  0.0258 -0.0815
   16CHTO  H223 6401   5.425   3.881   1.486  2.4518 -0.4887  0.2858
   16CHTO  C117 6402   5.347   4.077   1.403  0.1486  0.5233 -0.3043
   16CHTO  H221 6403   5.366   4.144   1.319  0.0809  1.8692  0.7254
   16CHTO   N20 6404   5.378   4.163   1.521 -0.6718 -0.0127  0.2337
   16CHTO  H209 6405   5.317   4.252   1.529  0.1532  0.7246 -1.4294
   16CHTO  H210 6406   5.484   4.171   1.540 -0.7340 -0.8155  0.9871
   16CHTO   O80 6407   5.608   3.982   1.448 -0.2167  0.2384  0.3819
   16CHTO  C103 6408   5.715   3.870   1.434 -0.4314 -0.6956 -0.4069
   16CHTO  H190 6409   5.676   3.769   1.422  0.5622 -1.0264 -0.8672
   16CHTO  C101 6410   5.815   3.888   1.312  0.5808 -0.0247 -0.4577
   16CHTO  H188 6411   5.867   3.983   1.323  2.5158 -1.1374  0.3967
   16CHTO   O68 6412   5.742   3.879   1.190  0.1165  0.4946 -0.1962
   16CHTO  H168 6413   5.744   3.796   1.148 -0.8865 -0.4489  1.5696
   16CHTO   C99 6414   5.933   3.783   1.321 -0.6221  0.2570  0.3159
   16CHTO  H186 6415   5.896   3.685   1.286 -0.5066  0.0430  0.7845
   16CHTO   N17 6416   6.043   3.807   1.218 -0.0304  0.1990 -0.0951
   16CHTO  H174 6417   6.046   3.912   1.191 -1.5347  0.1830 -0.3888
   16CHTO  H175 6418   6.141   3.774   1.248  1.5328  4.6829  0.1222
   16CHTO   C97 6419   5.990   3.765   1.465  0.4933 -0.0226 -0.5684
   16CHTO  H184 6420   6.067   3.840   1.490  0.2733  0.1041 -0.2604
   16CHTO   O64 6421   5.886   3.766   1.562  0.1414 -0.3735  0.2613
   16CHTO  C104 6422   5.792   3.871   1.565 -0.2444 -0.2403 -0.3789
   16CHTO  H191 6423   5.837   3.970   1.567 -0.2696 -0.2263 -0.5350
   16CHTO  C108 6424   5.706   3.859   1.687  0.4556 -0.1070 -0.3218
   16CHTO   O71 6425   5.764   3.913   1.805  0.1184  0.2444 -0.0175
   16CHTO  H171 6426   5.694   3.927   1.866  0.0892 -0.6105  0.1392
   16CHTO   O62 6427   6.055   3.632   1.468  0.3289  0.0463  0.3607
   16CHTO   C91 6428   6.076   3.564   1.595 -0.1401  0.1537 -0.0197
   16CHTO  H178 6429   6.044   3.635   1.671  0.9027  0.7067 -0.0811
   16CHTO   C92 6430   6.226   3.553   1.631 -0.1023 -0.4079 -0.3338
   16CHTO  H179 6431   6.270   3.494   1.549  3.3208  1.2724  0.2141
   16CHTO   O66 6432   6.296   3.673   1.643 -0.5411 -0.5171  0.5476
   16CHTO  H166 6433   6.359   3.683   1.575 -0.8773 -0.3807  0.2526
   16CHTO   C93 6434   6.249   3.468   1.774 -0.2147 -0.2083 -0.1681
   16CHTO  H180 6435   6.219   3.538   1.854  0.4085 -1.7898  1.4906
   16CHTO   N16 6436   6.390   3.429   1.803 -0.5690  0.4361  0.1357
   16CHTO  H172 6437   6.399   3.357   1.883 -1.5540 -0.2481 -0.3552
   16CHTO  H173 6438   6.424   3.380   1.713 -3.7669 -1.5568 -0.0704
   16CHTO   C94 6439   6.154   3.344   1.778 -0.1431 -0.7704 -0.0355
   16CHTO  H181 6440   6.180   3.268   1.704  3.0965  0.9884 -0.8187
   16CHTO   O61 6441   6.014   3.374   1.742  0.1292 -0.5157 -0.1757
   16CHTO   C95 6442   5.992   3.429   1.612 -0.5594  0.8813 -0.5904
   16CHTO  H182 6443   6.030   3.359   1.537  0.7149  0.0808  0.7872
   16CHTO  C106 6444   5.844   3.447   1.589 -0.4455  0.2257  0.5957
   16CHTO   O69 6445   5.784   3.319   1.571 -0.0018  0.6448 -0.0670
   16CHTO  H169 6446   5.691   3.320   1.575 -0.0006  2.0726  0.0960
   16CHTO   O63 6447   6.158   3.290   1.935 -0.5447  0.2338  0.0966
   16CHTO   C96 6448   6.047   3.196   1.972 -0.2061 -0.8148  0.1597
   16CHTO  H183 6449   6.100   3.136   2.046  0.0325  0.7176  1.2537
   16CHTO   C98 6450   6.000   3.094   1.864  0.4034  1.3027 -0.1683
   16CHTO  H185 6451   5.979   3.145   1.769 -1.1149  0.9883 -0.0114
   16CHTO   O67 6452   6.106   3.003   1.834 -0.4987 -0.1348 -0.0132
   16CHTO  H167 6453   6.100   2.961   1.751  0.1932 -1.8539  0.7747
   16CHTO  C102 6454   5.866   3.018   1.909  0.1771 -0.6727 -1.3882
   16CHTO  H189 6455   5.901   2.951   1.989  1.0852 -0.2948 -1.4596
   16CHTO   N18 6456   5.807   2.933   1.802  0.4855 -0.1257  0.0302
   16CHTO  H176 6457   5.813   2.831   1.837  1.3883 -0.4801 -1.1358
   16CHTO  H177 6458   5.858   2.936   1.706 -0.7538  2.0507 -0.5958
   16CHTO  C105 6459   5.764   3.129   1.963  0.1558 -0.9281  0.2016
   16CHTO  H192 6460   5.737   3.198   1.883  1.1589  0.8552  1.3552
   16CHTO   O65 6461   5.825   3.194   2.070  0.4608  1.1837 -0.0930
   16CHTO  C100 6462   5.931   3.279   2.035  0.1426  0.0925 -0.0769
   16CHTO  H187 6463   5.904   3.350   1.955  2.8416  0.8065 -0.4005
   16CHTO  C107 6464   5.983   3.354   2.168  0.8298 -0.5251 -0.0183
   16CHTO   O70 6465   6.053   3.475   2.141 -0.1572 -0.2924  0.0060
   16CHTO  H170 6466   6.058   3.528   2.218  2.2252  0.3875 -0.5928
   16CHTO   O57 6467   5.636   3.055   2.022 -0.1066 -0.5905 -0.3557
   16CHTO   C85 6468   5.521   3.144   2.046 -0.2197 -0.4676 -0.2268
   16CHTO  H157 6469   5.526   3.234   1.982 -0.2255 -1.0537 -1.0525
   16CHTO   C83 6470   5.526   3.193   2.188 -0.3352  0.1283  0.2515
   16CHTO  H155 6471   5.625   3.240   2.193  0.2562 -1.0365 -0.2620
   16CHTO   O56 6472   5.547   3.083   2.279  0.3986  0.1707  0.4979
   16CHTO  H135 6473   5.560   3.120   2.365  0.4891  0.8233  0.2062
   16CHTO   C81 6474   5.418   3.297   2.213  0.4298 -0.5375 -0.0839
   16CHTO  H153 6475   5.419   3.369   2.131  0.3075 -0.1575  0.2429
   16CHTO   N14 6476   5.446   3.385   2.329 -0.0259 -0.4665 -0.2294
   16CHTO  H141 6477   5.403   3.480   2.307  1.0569  0.3753  1.2009
   16CHTO  H142 6478   5.416   3.346   2.424 -1.0968 -0.1538 -0.4320
   16CHTO   C79 6479   5.281   3.221   2.211 -0.0726 -0.4951 -0.2540
   16CHTO  H151 6480   5.201   3.294   2.220  0.2802  0.0237 -1.2011
   16CHTO   O52 6481   5.265   3.152   2.082  0.5106 -0.4939  0.1824
   16CHTO   C86 6482   5.381   3.078   2.038 -0.0536 -0.3252 -0.5442
   16CHTO  H158 6483   5.383   2.991   2.108 -0.8496  0.1082  0.0220
   16CHTO   C90 6484   5.348   3.026   1.897 -0.7269 -0.9703 -0.1094
   16CHTO   O60 6485   5.220   2.954   1.899 -0.1760 -0.6692 -0.1685
   16CHTO  H138 6486   5.215   2.885   1.835  0.0443 -0.7327 -0.1193
   16CHTO   O50 6487   5.259   3.135   2.323 -0.2227 -0.3670  0.3534
   16CHTO   C73 6488   5.181   3.053   2.410  0.2177 -0.3705  0.3072
   16CHTO  H145 6489   5.228   2.954   2.418  2.8154  0.8548  0.6224
   16CHTO   C74 6490   5.036   3.034   2.346  0.0625  0.2109 -0.0561
   16CHTO  H146 6491   5.051   3.002   2.241  0.0460  0.2784 -0.0796
   16CHTO   O54 6492   4.966   2.933   2.418 -0.0994 -0.0666 -0.1282
   16CHTO  H133 6493   5.006   2.848   2.411 -1.1043 -0.6345  0.8955
   16CHTO   C75 6494   4.950   3.166   2.355 -0.0893 -0.2729  0.0582
   16CHTO  H147 6495   4.996   3.241   2.288 -0.7871 -0.7587 -0.9772
   16CHTO   N13 6496   4.809   3.151   2.304  0.0598 -0.1427  0.3496
   16CHTO  H139 6497   4.766   3.250   2.296 -1.1244 -0.7254 -0.6805
   16CHTO  H140 6498   4.751   3.078   2.360 -2.7729  0.8763 -1.1553
   16CHTO   C76 6499   4.958   3.243   2.498 -0.2860 -0.3608  0.6456
   16CHTO  H148 6500   4.902   3.183   2.570 -1.7940 -0.5372 -0.6359
   16CHTO   O49 6501   5.100   3.245   2.536  0.2758  0.5835 -0.1918
   16CHTO   C77 6502   5.162   3.117   2.552  1.3380 -0.3581 -0.3012
   16CHTO  H149 6503   5.110   3.044   2.614  0.3494 -0.8710 -1.7279
   16CHTO   C88 6504   5.292   3.154   2.623 -0.1396 -0.0677 -0.2212
   16CHTO   O58 6505   5.354   3.044   2.713 -0.1371  0.1212  0.0394
   16CHTO  H136 6506   5.368   3.091   2.793  0.5910  0.8865 -0.5476
   16CHTO   O51 6507   4.919   3.403   2.492  0.1150  0.5003 -0.0845
   16CHTO   C78 6508   4.944   3.479   2.616  0.3341  0.2668  0.5338
   16CHTO  H150 6509   5.008   3.424   2.688 -0.6302 -1.2628  0.2395
   16CHTO   C80 6510   4.812   3.512   2.684 -0.0076 -0.0252 -0.8023
   16CHTO  H152 6511   4.742   3.552   2.608  0.6323  1.1123 -0.8005
   16CHTO   O55 6512   4.766   3.383   2.717  0.3844  0.0603 -0.2259
   16CHTO  H134 6513   4.676   3.391   2.740 -0.1779 -2.0022 -1.7103
   16CHTO   C84 6514   4.818   3.615   2.805  0.1181  0.0443 -0.5565
   16CHTO  H156 6515   4.886   3.572   2.878 -0.2987  1.6133  0.7949
   16CHTO   N15 6516   4.682   3.641   2.871 -0.2397 -0.4474 -0.2041
   16CHTO  H143 6517   4.634   3.717   2.813 -0.3555 -1.1842 -1.0835
   16CHTO  H144 6518   4.622   3.553   2.861  1.3702 -1.5868  0.0098
   16CHTO   C87 6519   4.888   3.744   2.758 -0.4617  0.1280  0.3724
   16CHTO  H159 6520   4.829   3.787   2.677  1.2992 -0.0964 -1.0576
   16CHTO   O53 6521   5.033   3.687   2.692 -0.4237  0.3305 -0.2961
   16CHTO   C82 6522   5.020   3.607   2.580 -0.6459  0.1138  0.3280
   16CHTO  H154 6523   4.965   3.663   2.505  0.7621  2.4235  0.9821
   16CHTO   C89 6524   5.156   3.576   2.522 -0.2048  0.6492  0.3964
   16CHTO   O59 6525   5.145   3.510   2.401 -0.4066  0.0347 -0.2484
   16CHTO  H137 6526   5.228   3.499   2.358 -0.5852  1.5916 -1.0386
   16CHTO   O45 6527   4.924   3.864   2.868 -0.4159 -0.0908  0.0988
   16CHTO   C67 6528   5.009   3.969   2.822  0.4574 -0.8599  0.1435
   16CHTO  H124 6529   5.073   3.934   2.741 -0.1052  0.0280 -0.6898
   16CHTO   C65 6530   4.919   4.085   2.763  0.2081 -0.7295 -0.9106
   16CHTO  H122 6531   4.822   4.064   2.808  1.3447 -0.9057  1.5364
   16CHTO   O44 6532   4.922   4.074   2.618  0.2579  0.1176 -0.0381
   16CHTO  H102 6533   4.991   4.123   2.577  1.0348 -1.2173 -0.3526
   16CHTO   C63 6534   4.959   4.226   2.817  0.0424 -0.5083 -0.0800
   16CHTO  H120 6535   4.924   4.237   2.920 -1.1116  0.2086 -0.5374
   16CHTO   N11 6536   4.875   4.345   2.763 -0.8132  0.3786  0.1907
   16CHTO  H108 6537   4.817   4.323   2.677 -0.1655 -1.3822  0.1808
   16CHTO  H109 6538   4.943   4.422   2.732 -1.2853  0.6664 -0.1284
   16CHTO   C61 6539   5.117   4.236   2.820  0.4392 -0.5010 -0.0050
   16CHTO  H118 6540   5.144   4.329   2.873  0.3072  0.9995 -2.5249
   16CHTO   O40 6541   5.181   4.127   2.886  0.1632 -0.0511 -0.5903
   16CHTO   C68 6542   5.104   4.015   2.940  0.2104  0.3360  0.6587
   16CHTO  H125 6543   5.049   4.051   3.030  0.7935  1.0398  0.7332
   16CHTO   C72 6544   5.195   3.908   2.985 -0.3501 -0.1567  0.4812
   16CHTO   O48 6545   5.129   3.826   3.079 -0.2805 -0.2959  0.0296
   16CHTO  H105 6546   5.127   3.879   3.156 -0.4950  0.3124 -0.3917
   16CHTO   O38 6547   5.175   4.243   2.689 -0.1153  0.0850  0.1747
   16CHTO   C55 6548   5.318   4.241   2.681 -1.1051  0.5169 -0.3275
   16CHTO  H112 6549   5.361   4.180   2.762 -1.0763 -2.4565 -2.4979
   16CHTO   C56 6550   5.375   4.387   2.681 -0.1178  0.1997 -0.5505
   16CHTO  H113 6551   5.340   4.443   2.593 -0.4065  1.1073  0.1342
   16CHTO   O42 6552   5.335   4.471   2.787  0.2050 -0.0102 -0.3197
   16CHTO  H100 6553   5.244   4.492   2.781 -0.0629 -1.1249 -0.3180
   16CHTO   C57 6554   5.533   4.373   2.668  0.0438  0.0358 -0.0876
   16CHTO  H114 6555   5.562   4.331   2.765  1.1628 -0.2789 -0.5464
   16CHTO   N10 6556   5.616   4.496   2.641  0.3669  0.4472 -0.0168
   16CHTO  H106 6557   5.563   4.562   2.574 -0.8810  0.3138  0.8190
   16CHTO  H107 6558   5.620   4.541   2.740 -0.6732  0.6434 -0.0568
   16CHTO   C58 6559   5.580   4.271   2.558  0.4288 -0.0063  0.3558
   16CHTO  H115 6560   5.566   4.321   2.459  1.1507 -0.8604 -0.1891
   16CHTO   O37 6561   5.493   4.152   2.564  0.1381  0.7024 -0.1272
   16CHTO   C59 6562   5.352   4.164   2.551  0.2339  0.1551  0.6053
   16CHTO  H116 6563   5.331   4.228   2.465  0.1147 -0.9391 -0.1892
   16CHTO   C70 6564   5.287   4.022   2.549  0.1493  0.3127 -0.0112
   16CHTO   O46 6565   5.153   4.011   2.507  0.0603 -0.0907  0.5324
   16CHTO  H103 6566   5.114   3.927   2.525 -0.7974 -0.5512 -2.9405
   16CHTO   O39 6567   5.737   4.230   2.579  0.5334  0.7450 -0.4780
   16CHTO   C60 6568   5.800   4.210   2.455 -0.2712 -0.1778 -0.6360
   16CHTO  H117 6569   5.739   4.241   2.371 -3.0141  0.3742  1.4903
   16CHTO   C62 6570   5.934   4.296   2.446 -0.1723 -1.0271  0.0528
   16CHTO  H119 6571   5.903   4.403   2.441  0.6605 -0.7789  0.0563
   16CHTO   O43 6572   6.013   4.283   2.564  0.2584  0.0103  0.3779
   16CHTO  H101 6573   6.092   4.241   2.534  0.6027 -0.8388  2.4250
   16CHTO   C66 6574   6.011   4.262   2.307  0.8950 -0.8762  0.4207
   16CHTO  H123 6575   5.950   4.291   2.221 -0.1798 -0.9325  1.1478
   16CHTO   N12 6576   6.134   4.344   2.297  0.0145 -0.3164  0.0322
   16CHTO  H110 6577   6.178   4.332   2.199  0.6752  1.0304  0.1541
   16CHTO  H111 6578   6.201   4.314   2.376 -0.6257 -0.1275  0.6518
   16CHTO   C69 6579   6.034   4.112   2.289  0.0971 -0.0880 -0.2558
   16CHTO  H126 6580   6.097   4.066   2.369 -1.3716 -1.2110  0.2858
   16CHTO   O41 6581   5.895   4.046   2.313 -0.2662  0.4947  0.3809
   16CHTO   C64 6582   5.837   4.063   2.435 -0.1218 -0.1766  0.0447
   16CHTO  H121 6583   5.903   4.032   2.519 -0.8698  1.3090  1.2020
   16CHTO   C71 6584   5.709   3.974   2.432 -0.0251 -0.6097 -0.1641
   16CHTO   O47 6585   5.728   3.833   2.412 -0.1610  0.4820  0.1763
   16CHTO  H104 6586   5.662   3.782   2.456  0.0688  0.5183  0.5634
   16CHTO   O34 6587   6.086   4.076   2.145  0.6230 -0.0236 -0.3563
   16CHTO   C49 6588   6.197   3.991   2.092  0.2422 -0.2574  0.2594
   16CHTO   H91 6589   6.226   3.927   2.175  3.2522  1.3619  0.5311
   16CHTO   C47 6590   6.320   4.081   2.068 -0.1421 -0.1203  0.4670
   16CHTO   H89 6591   6.352   4.111   2.170 -0.5312 -0.0553  0.5698
   16CHTO   O33 6592   6.299   4.202   1.987 -0.4783  0.4796  0.1632
   16CHTO   H70 6593   6.360   4.272   2.005 -0.3026  0.1571  0.8149
   16CHTO   C45 6594   6.433   3.983   2.003 -0.3205 -0.4238  0.2238
   16CHTO   H87 6595   6.435   4.025   1.901 -1.9034 -1.2129 -0.1453
   16CHTO    N8 6596   6.566   4.004   2.060  0.0961 -0.5358 -0.2868
   16CHTO   H75 6597   6.628   4.062   1.993  1.9439  0.1108  1.8991
   16CHTO   H76 6598   6.614   3.911   2.088 -0.3503 -0.7013 -0.0651
   16CHTO   C43 6599   6.394   3.831   1.989 -0.4849  0.2511 -0.4856
   16CHTO   H85 6600   6.466   3.780   1.925  0.9562  0.8657  0.6272
   16CHTO   O29 6601   6.262   3.821   1.933  0.2699  0.3537 -0.1275
   16CHTO   C50 6602   6.161   3.909   1.968  0.3388 -0.4867 -0.1351
   16CHTO   H92 6603   6.153   3.969   1.876 -0.2150  2.7147  1.9417
   16CHTO   C54 6604   6.024   3.841   1.987 -0.2577 -0.3624  0.1937
   16CHTO   O36 6605   5.985   3.776   1.869 -0.6354  0.2044  0.3004
   16CHTO   H72 6606   5.917   3.711   1.877  1.4603 -2.1101  0.0611
   16CHTO   O27 6607   6.394   3.763   2.119 -0.3091 -0.8220  0.7775
   16CHTO   C37 6608   6.423   3.684   2.234  0.4936  0.5258 -0.5154
   16CHTO   H79 6609   6.489   3.739   2.303  0.9525 -1.5723  0.7451
   16CHTO   C38 6610   6.290   3.650   2.307 -0.0031 -0.0795  0.1105
   16CHTO   H80 6611   6.216   3.613   2.234 -1.7296  2.0324  0.7198
   16CHTO   O31 6612   6.242   3.772   2.356  0.3202 -0.5174  0.1095
   16CHTO   H68 6613   6.149   3.781   2.357  0.3273 -0.1578 -1.6591
   16CHTO   C39 6614   6.302   3.546   2.426 -0.2109 -0.0304  0.1088
   16CHTO   H81 6615   6.366   3.597   2.498  1.6782 -1.7842 -0.2860
   16CHTO    N7 6616   6.179   3.503   2.486  0.2246  0.6361 -0.1676
   16CHTO   H73 6617   6.191   3.537   2.588 -0.1178  1.0075 -0.2538
   16CHTO   H74 6618   6.160   3.397   2.481 -0.7462  0.7902  0.1054
   16CHTO   C40 6619   6.390   3.431   2.367 -0.1858 -0.0973  0.3856
   16CHTO   H82 6620   6.336   3.369   2.296  1.1410  0.6551 -1.3214
   16CHTO   O26 6621   6.517   3.476   2.311  0.0881  0.9794  0.0841
   16CHTO   C41 6622   6.493   3.550   2.185  0.4856 -0.1061  0.0942
   16CHTO   H83 6623   6.425   3.483   2.130  1.2012 -0.5403 -0.2734
   16CHTO   C52 6624   6.625   3.581   2.100 -0.1377 -0.0967 -0.6671
   16CHTO   O35 6625   6.739   3.671   2.176  0.5517  0.3882 -0.0641
   16CHTO   H71 6626   6.808   3.627   2.221  0.4037  0.1944 -0.0295
   16CHTO   O28 6627   6.450   3.352   2.470 -0.1492 -0.2319 -0.4464
   16CHTO   C42 6628   6.469   3.202   2.458 -0.1245 -0.2044  0.1421
   16CHTO   H84 6629   6.531   3.181   2.545  0.1667 -2.3659 -0.5562
   16CHTO   C44 6630   6.557   3.153   2.341 -0.2532 -0.2371  0.0160
   16CHTO   H86 6631   6.504   3.180   2.249  0.7013  1.0161 -0.1857
   16CHTO   O32 6632   6.679   3.228   2.351  0.4174  0.6706 -0.2852
   16CHTO   H69 6633   6.748   3.210   2.289 -0.9853  2.8481 -2.5616
   16CHTO   C48 6634   6.588   3.002   2.347  0.3907 -0.0168  0.2830
   16CHTO   H90 6635   6.636   2.988   2.444  1.2062  0.6673 -0.0170
   16CHTO    N9 6636   6.688   2.945   2.243 -0.0556 -0.4044 -0.1311
   16CHTO   H77 6637   6.740   3.024   2.190  1.0673 -0.8036  0.3659
   16CHTO   H78 6638   6.652   2.867   2.178  0.2110 -2.1667  1.8091
   16CHTO   C51 6639   6.446   2.931   2.342 -0.3058 -0.3236 -0.4290
   16CHTO   H93 6640   6.414   2.962   2.243  2.9513  0.3914 -1.3403
   16CHTO   O30 6641   6.358   2.973   2.448  0.1350 -0.0100 -0.0279
   16CHTO   C46 6642   6.340   3.126   2.480 -0.4263 -0.2936  0.2193
   16CHTO   H88 6643   6.277   3.164   2.400  0.2768 -0.8554 -0.6005
   16CHTO   C53 6644   6.294   3.155   2.623  0.7695  0.1838  0.3422
   16CHTO   O72 6645   6.380   3.093   2.720 -0.0815  0.0754 -0.6779
   16CHTO  H199 6646   6.366   3.001   2.729 -0.0039  0.1686  0.6118
   16CHTO   O22 6647   6.462   2.795   2.353 -0.1728  0.5831  0.7247
   16CHTO   C31 6648   6.358   2.694   2.337 -0.1666  0.5044 -0.5148
   16CHTO   H59 6649   6.281   2.714   2.415 -1.3154 -2.5047 -0.8232
   16CHTO   C29 6650   6.285   2.699   2.200  0.3923 -0.6749  0.8953
   16CHTO   H57 6651   6.355   2.686   2.116 -1.3510  2.1293 -1.1042
   16CHTO   O21 6652   6.225   2.835   2.190 -0.5317  0.7603 -0.0475
   16CHTO   H37 6653   6.201   2.840   2.099 -0.6697  2.2216  0.0582
   16CHTO   C27 6654   6.176   2.587   2.194  0.7999 -0.3007 -0.3695
   16CHTO   H55 6655   6.102   2.595   2.275  0.0958  0.4897 -1.0832
   16CHTO    N5 6656   6.104   2.592   2.067  0.3006  0.0673  0.1712
   16CHTO   H43 6657   6.023   2.521   2.078  1.3467 -1.2877 -0.6373
   16CHTO   H44 6658   6.167   2.569   1.982  0.9300 -1.4102  1.0150
   16CHTO   C25 6659   6.256   2.448   2.226 -0.3768  0.0979  0.0607
   16CHTO   H53 6660   6.320   2.430   2.139  0.6409  2.6065  0.2528
   16CHTO   O17 6661   6.310   2.454   2.355  0.4197 -0.2201 -0.3060
   16CHTO   C32 6662   6.412   2.555   2.378  0.6148  0.8831 -0.6755
   16CHTO   H60 6663   6.498   2.529   2.316  0.3297 -0.3512 -0.5553
   16CHTO   C36 6664   6.451   2.558   2.529 -0.3183  0.7034  0.1964
   16CHTO   O25 6665   6.523   2.437   2.564  0.5696  0.1753  0.0168
   16CHTO   H40 6666   6.609   2.432   2.527  0.3881 -1.5347 -0.2286
   16CHTO   O15 6667   6.154   2.326   2.240  0.1501 -0.2660  0.1459
   16CHTO   C19 6668   6.045   2.270   2.316  0.5954  0.6658  0.7609
   16CHTO   H47 6669   6.080   2.166   2.326 -0.1165  0.0310 -2.6965
   16CHTO   C20 6670   6.006   2.326   2.457 -0.0819  1.1101 -0.8913
   16CHTO   H48 6671   5.966   2.428   2.452 -1.0717  0.8617  1.4103
   16CHTO   O19 6672   6.120   2.320   2.548  0.1947 -0.1587  0.4732
   16CHTO   H35 6673   6.104   2.287   2.635 -0.6720  0.7648  0.6745
   16CHTO   C21 6674   5.879   2.245   2.514  0.4726  0.1010  0.4469
   16CHTO   H49 6675   5.907   2.141   2.533 -2.9518 -0.8963  0.3891
   16CHTO    N4 6676   5.834   2.304   2.643 -0.0677 -0.0146 -0.3922
   16CHTO   H41 6677   5.772   2.238   2.701  1.2076 -1.9983 -1.2282
   16CHTO   H42 6678   5.916   2.338   2.706 -0.1884  0.1684 -0.3325
   16CHTO   C22 6679   5.767   2.246   2.411  0.4836  0.1272 -0.0662
   16CHTO   H50 6680   5.737   2.348   2.387 -0.8524 -0.0053  1.0512
   16CHTO   O14 6681   5.815   2.182   2.298  0.0651 -0.1186 -0.2828
   16CHTO   C23 6682   5.916   2.250   2.226 -0.5766  0.1119  0.0534
   16CHTO   H51 6683   5.873   2.347   2.197 -3.0156 -0.2224  2.4133
   16CHTO   C34 6684   5.953   2.169   2.098 -0.9556  0.1661  0.1616
   16CHTO   O23 6685   6.014   2.250   2.000 -0.0359  0.2498 -0.4301
   16CHTO   H38 6686   6.104   2.263   2.026 -0.0406 -0.5458 -0.0172
   16CHTO   O16 6687   5.654   2.164   2.458 -0.0902  0.0265 -0.6179
   16CHTO   C24 6688   5.539   2.136   2.330  0.7808 -0.0724  0.3090
   16CHTO   H52 6689   5.580   2.138   2.229 -0.6060  0.6904 -0.2508
   16CHTO   C26 6690   5.410   2.221   2.333 -0.1269 -0.5341  0.0983
   16CHTO   H54 6691   5.374   2.224   2.438 -0.4510 -0.7815 -0.0055
   16CHTO   O20 6692   5.451   2.353   2.300  0.0672  0.2624  0.2282
   16CHTO   H36 6693   5.388   2.422   2.289 -1.2384 -1.0289 -0.5635
   16CHTO   C30 6694   5.290   2.175   2.254  0.0044 -0.0072 -0.4050
   16CHTO   H58 6695   5.303   2.189   2.145  0.5806 -0.6312 -0.4155
   16CHTO    N6 6696   5.162   2.244   2.289  0.0784  0.0362  0.1908
   16CHTO   H45 6697   5.148   2.252   2.396 -1.0991 -1.3314  0.1520
   16CHTO   H46 6698   5.148   2.338   2.237  1.0241 -0.2027 -0.5117
   16CHTO   C33 6699   5.265   2.023   2.268  0.2453  0.6313 -0.0620
   16CHTO   H61 6700   5.225   2.002   2.368  1.3906  0.8108  0.4395
   16CHTO   O18 6701   5.394   1.952   2.264  0.2035 -0.5872 -0.3420
   16CHTO   C28 6702   5.494   1.991   2.356  0.4880  0.3561  0.3945
   16CHTO   H56 6703   5.447   1.993   2.455 -0.1511  1.2696  0.0808
   16CHTO   C35 6704   5.600   1.873   2.335  0.1680  0.5676 -0.4163
   16CHTO   O24 6705   5.726   1.899   2.400  0.0461  0.0160  0.1970
   16CHTO   H39 6706   5.774   1.819   2.406 -1.5926 -0.9059  1.3940
   16CHTO    O9 6707   5.170   1.967   2.168  0.2538 -0.1621  0.2928
   16CHTO   C13 6708   5.123   1.820   2.226 -0.3553 -1.0417  0.3304
   16CHTO   H26 6709   5.116   1.825   2.337  2.7758  0.1889  0.5427
   16CHTO   C11 6710   5.224   1.696   2.179 -0.7681 -0.0083 -0.4564
   16CHTO   H24 6711   5.325   1.721   2.217 -0.8675  1.0898 -0.8940
   16CHTO    O8 6712   5.234   1.682   2.034  0.2810 -0.1986  0.2979
   16CHTO    H3 6713   5.263   1.762   1.995  0.2464  0.3511  1.3987
   16CHTO    C9 6714   5.181   1.569   2.247 -0.3871  0.0394  0.2372
   16CHTO   H22 6715   5.193   1.587   2.355  0.5017  0.8636  0.0189
   16CHTO    N2 6716   5.271   1.456   2.231 -0.6309  0.4498 -0.5160
   16CHTO   H10 6717   5.260   1.382   2.309  0.1178 -0.4185 -1.2141
   16CHTO   H11 6718   5.261   1.421   2.129  1.3652  1.7253 -1.1697
   16CHTO    C7 6719   5.023   1.552   2.231 -0.8343 -0.1043 -0.0642
   16CHTO   H20 6720   4.991   1.583   2.333 -0.3996 -0.5624  0.2166
   16CHTO    O4 6721   4.974   1.638   2.128 -0.2140 -0.5262  0.4061
   16CHTO   C14 6722   4.977   1.776   2.177  1.0521  0.3670  0.2906
   16CHTO   H27 6723   4.911   1.796   2.264  0.4848  0.3465 -0.1303
   16CHTO   C18 6724   4.921   1.866   2.059 -0.3795 -0.3536  0.0530
   16CHTO   O13 6725   4.783   1.854   2.024 -0.1528  0.5325 -0.3131
   16CHTO    H7 6726   4.768   1.885   1.937 -1.9172 -2.1810 -1.0148
   16CHTO    O2 6727   4.978   1.403   2.192 -0.0852  0.1482 -0.0694
   16CHTO    C1 6728   4.867   1.338   2.263 -0.0915 -0.0049 -0.1188
   16CHTO   H14 6729   4.832   1.251   2.203  2.0614  0.0700 -1.5646
   16CHTO    C2 6730   4.735   1.435   2.290 -0.3709 -0.3554  0.2118
   16CHTO   H15 6731   4.777   1.527   2.333 -0.2322 -0.2622 -0.1224
   16CHTO    O6 6732   4.680   1.456   2.160 -0.3455  0.1739 -0.1506
   16CHTO    H1 6733   4.682   1.549   2.148  1.7013  0.0460 -0.9079
   16CHTO    C3 6734   4.625   1.367   2.387  0.3164  0.1303  0.1684
   16CHTO   H16 6735   4.578   1.276   2.346 -1.1650  1.3311 -0.8709
   16CHTO    N1 6736   4.510   1.458   2.407 -0.4828  0.3984  0.2736
   16CHTO    H8 6737   4.436   1.461   2.329  1.3837  1.5042 -1.5225
   16CHTO    H9 6738   4.457   1.434   2.498  3.0502 -0.2536  2.2577
   16CHTO    C4 6739   4.701   1.315   2.518 -0.1546 -0.5177 -0.6823
   16CHTO   H17 6740   4.738   1.397   2.579 -0.9377 -0.2299 -0.5923
   16CHTO    O1 6741   4.807   1.229   2.474  0.0206  0.2547  0.2369
   16CHTO    C5 6742   4.919   1.273   2.391  0.0860 -0.8354 -0.8594
   16CHTO   H18 6743   4.973   1.346   2.452 -0.2232 -0.1965 -1.3468
   16CHTO   C16 6744   5.009   1.154   2.372 -0.5470 -0.1905  0.6067
   16CHTO   O11 6745   4.953   1.040   2.296  0.1215  0.4654 -0.0646
   16CHTO    H5 6746   4.872   1.054   2.251 -1.7394 -3.0188  1.9358
   16CHTO    O3 6747   4.609   1.243   2.604 -0.2407  0.4603 -0.0773
   16CHTO    C6 6748   4.657   1.221   2.742  0.0940  0.0833  0.4086
   16CHTO   H19 6749   4.759   1.255   2.760  0.1608 -0.0350  0.2532
   16CHTO    C8 6750   4.572   1.311   2.837  0.1106  0.2707 -0.8242
   16CHTO   H21 6751   4.467   1.292   2.817  0.3803 -3.6136  0.9474
   16CHTO    O7 6752   4.618   1.439   2.787  0.0439 -0.1166 -0.1561
   16CHTO    H2 6753   4.562   1.509   2.814  1.8061  1.3791 -0.2692
   16CHTO   C12 6754   4.582   1.273   2.990  0.1517 -0.7560  0.3343
   16CHTO   H25 6755   4.682   1.311   3.019  0.4460 -0.0127 -1.5740
   16CHTO    N3 6756   4.495   1.356   3.072  0.9850 -0.5121  0.1664
   16CHTO   H12 6757   4.523   1.460   3.063 -0.8736 -0.1589 -1.9671
   16CHTO   H13 6758   4.495   1.338   3.179 -1.2424 -1.2623  0.0696
   16CHTO   C15 6759   4.580   1.116   3.015 -0.8951 -0.1264  0.6648
   16CHTO   H28 6760   4.479   1.077   3.009 -0.9591  0.3491 -1.5518
   16CHTO   O10 6761   4.650   1.083   3.156  0.0669 -0.3931  0.2059
   16CHTO    H4 6762   4.688   0.998   3.151 -3.6181 -2.1626  0.9852
   16CHTO    O5 6763   4.666   1.052   2.918 -0.4617 -0.0560  0.3164
   16CHTO   C10 6764   4.646   1.075   2.779 -0.1237  0.4018  0.3697
   16CHTO   H23 6765   4.548   1.039   2.746  0.7068 -1.0162 -0.6288
   16CHTO   C17 6766   4.752   0.995   2.698 -0.0225 -0.1872 -1.0541
   16CHTO   O12 6767   4.726   0.855   2.719  0.3261 -0.6262 -0.2191
   16CHTO    H6 6768   4.770   0.838   2.800 -1.7717  0.5696  1.2268
   17CHTO  H203 6769   4.041   5.374   0.923 -0.4090 -1.3401  1.4043
   17CHTO   O82 6770   4.021   5.455   0.966 -0.3421 -0.3456 -0.3599
   17CHTO  C123 6771   4.050   5.453   1.108 -0.0501  0.7690  1.0619
   17CHTO  H227 6772   3.991   5.375   1.158 -0.8657  0.3584 -0.5166
   17CHTO   O77 6773   4.195   5.416   1.108  0.0365 -0.0120 -0.3938
   17CHTO  C118 6774   4.254   5.414   1.243 -0.5662 -0.1510  0.1268
   17CHTO  H222 6775   4.191   5.354   1.309  1.1579 -3.1637 -0.8671
   17CHTO  C125 6776   4.397   5.345   1.240  0.2401 -0.5025  0.2398
   17CHTO   O84 6777   4.446   5.306   1.366 -0.3006  0.1555  0.0169
   17CHTO  H205 6778   4.535   5.283   1.348 -0.2430  1.8489 -1.9872
   17CHTO  C114 6779   4.263   5.564   1.281 -0.0250  0.9142 -0.3070
   17CHTO  H218 6780   4.321   5.617   1.206 -0.0322  0.0271 -0.9446
   17CHTO  C116 6781   4.118   5.618   1.291  0.1497 -0.3825  0.0724
   17CHTO  H220 6782   4.067   5.575   1.379 -2.0534  0.8249 -0.5732
   17CHTO   O79 6783   4.131   5.756   1.329 -0.0499  0.2812 -0.5011
   17CHTO  H201 6784   4.045   5.790   1.343 -1.2685 -2.2003 -1.5727
   17CHTO  C120 6785   4.038   5.598   1.155  0.3550 -0.9329 -0.1897
   17CHTO  H224 6786   4.094   5.664   1.085  0.6207  0.5678  1.4089
   17CHTO   N21 6787   3.896   5.634   1.164 -0.0671 -0.0273 -0.0444
   17CHTO  H211 6788   3.862   5.660   1.065 -1.3691 -2.4193 -0.2633
   17CHTO  H212 6789   3.885   5.719   1.228 -0.5438 -1.6106  2.0251
   17CHTO   O75 6790   4.327   5.565   1.406  0.5856  0.2359  0.0857
   17CHTO  C112 6791   4.405   5.694   1.444  0.2229  0.1172 -0.6487
   17CHTO  H216 6792   4.341   5.761   1.503  0.2359 -0.2089 -0.2655
   17CHTO   O73 6793   4.446   5.761   1.321  0.9819 -0.0002 -0.8022
   17CHTO  C113 6794   4.497   5.889   1.352  0.2811 -0.1745  0.4974
   17CHTO  H217 6795   4.425   5.955   1.404  0.6619  1.2270 -0.7443
   17CHTO  C124 6796   4.538   5.959   1.226  0.0905 -0.0857 -0.2090
   17CHTO   O83 6797   4.432   5.974   1.128  0.2265  0.7530 -0.2770
   17CHTO  H204 6798   4.451   5.918   1.055 -2.5696  1.0885 -1.3307
   17CHTO  C109 6799   4.627   5.873   1.443 -0.2333  0.4723  0.3628
   17CHTO  H213 6800   4.698   5.814   1.382 -0.1814  0.1579  0.7323
   17CHTO  C110 6801   4.593   5.792   1.574  0.2590 -0.0629  0.7583
   17CHTO  H214 6802   4.532   5.857   1.637  0.3720 -0.8383  1.6797
   17CHTO   O78 6803   4.714   5.774   1.655  0.0535  0.2917 -0.6957
   17CHTO  H200 6804   4.690   5.717   1.725 -0.7667  1.8012  0.2768
   17CHTO  C111 6805   4.528   5.664   1.533 -0.0757  1.2116  0.5554
   17CHTO  H215 6806   4.600   5.600   1.479 -1.2849  0.4064 -0.1053
   17CHTO   N19 6807   4.491   5.590   1.657 -0.2107 -0.4914  0.7973
   17CHTO  H207 6808   4.458   5.491   1.629 -0.3275 -0.2826  0.1909
   17CHTO  H208 6809   4.570   5.588   1.731 -0.6066 -0.2407  1.2329
   17CHTO   O74 6810   4.689   6.002   1.480  0.4991  0.0291  0.1778
   17CHTO  C115 6811   4.863   6.013   1.484  0.6452  0.6654 -0.5436
   17CHTO  H219 6812   4.899   6.054   1.578 -0.7745 -2.8993  1.6615
   17CHTO   O76 6813   4.934   5.863   1.489 -0.1250  0.2067 -0.4490
   17CHTO  C122 6814   5.069   5.860   1.449 -0.5238 -0.0988 -0.3823
   17CHTO  H226 6815   5.095   5.755   1.444 -0.8066 -0.0853 -2.4934
   17CHTO  C126 6816   5.159   5.925   1.566 -0.4679  0.0435  0.6403
   17CHTO   O85 6817   5.298   5.916   1.544  0.2296 -0.2344  0.2892
   17CHTO  H206 6818   5.336   5.923   1.630  1.7172 -0.7078 -0.3097
   17CHTO  C121 6819   5.090   5.928   1.311 -0.3425  0.1968  0.2292
   17CHTO  H225 6820   5.197   5.923   1.281 -0.4302  3.0954 -0.7052
   17CHTO   O81 6821   5.014   5.857   1.209  0.1419 -0.1145 -0.2711
   17CHTO  H202 6822   5.026   5.901   1.127 -2.6290  0.3092 -0.4903
   17CHTO  C119 6823   5.055   6.085   1.323  0.4295  0.5755 -0.5764
   17CHTO  H223 6824   5.112   6.126   1.407  1.9972  0.4718 -1.5705
   17CHTO  C117 6825   4.902   6.105   1.358  0.0839  0.5091  0.3163
   17CHTO  H221 6826   4.837   6.083   1.273 -0.0608 -0.0768  0.5754
   17CHTO   N20 6827   4.870   6.249   1.387  0.4408  0.3331 -0.1010
   17CHTO  H209 6828   4.940   6.263   1.468  0.4446 -0.9507  0.1150
   17CHTO  H210 6829   4.764   6.265   1.406  0.7369  2.4421 -0.0583
   17CHTO   O80 6830   5.108   6.151   1.212  0.3353  0.6568  0.1153
   17CHTO  C103 6831   5.217   6.266   1.219  0.0382  0.3622 -0.0376
   17CHTO  H190 6832   5.179   6.334   1.296  1.4253  0.6221  0.4252
   17CHTO  C101 6833   5.369   6.224   1.231 -0.3961 -0.1428 -0.2967
   17CHTO  H188 6834   5.382   6.147   1.155 -2.8030 -1.5124  0.6059
   17CHTO   O68 6835   5.395   6.160   1.376  0.0564  0.4195  0.0923
   17CHTO  H168 6836   5.442   6.218   1.433  2.0757 -0.3402 -0.7171
   17CHTO   C99 6837   5.474   6.346   1.211  0.0604 -0.5688 -0.2316
   17CHTO  H186 6838   5.465   6.421   1.293 -0.3630 -0.2607 -0.5567
   17CHTO   N17 6839   5.615   6.305   1.206  0.1563  0.5507  0.0730
   17CHTO  H174 6840   5.677   6.345   1.127  0.0214 -0.1576 -0.4019
   17CHTO  H175 6841   5.674   6.312   1.296  2.0343  0.5176 -1.1342
   17CHTO   C97 6842   5.435   6.420   1.078  0.4706 -0.8777  0.0942
   17CHTO  H184 6843   5.457   6.350   0.996  1.1125 -0.7618  0.1654
   17CHTO   O64 6844   5.296   6.457   1.081  0.2519 -0.9200  0.3834
   17CHTO  C104 6845   5.208   6.343   1.087  1.1899  0.0199  0.3408
   17CHTO  H191 6846   5.233   6.278   1.003  0.6970  1.6534 -1.1111
   17CHTO  C108 6847   5.067   6.404   1.064 -0.4446 -0.2740 -0.1828
   17CHTO   O71 6848   5.063   6.446   0.923 -0.3142 -0.3216  0.4174
   17CHTO  H171 6849   5.055   6.367   0.873  0.3658 -0.1341  0.0070
   17CHTO   O62 6850   5.501   6.546   1.054  0.4811  0.7578 -0.0583
   17CHTO   C91 6851   5.524   6.589   0.915  0.3276 -0.2610 -0.4683
   17CHTO  H178 6852   5.523   6.500   0.853 -0.0278 -0.4780 -0.1518
   17CHTO   C92 6853   5.672   6.637   0.910 -0.3760  0.4134  0.2067
   17CHTO  H179 6854   5.730   6.574   0.978  0.6446 -0.8346 -1.7658
   17CHTO   O66 6855   5.712   6.611   0.774 -0.3505  0.1136  0.0525
   17CHTO  H166 6856   5.806   6.606   0.773 -0.3719 -0.0683 -0.9709
   17CHTO   C93 6857   5.701   6.796   0.932  0.0488 -0.3151 -0.2513
   17CHTO  H180 6858   5.759   6.836   0.847  1.9507 -1.7605  0.3306
   17CHTO   N16 6859   5.788   6.829   1.053 -0.3268  0.0252 -0.1979
   17CHTO  H172 6860   5.738   6.802   1.145  0.0305  1.6432  0.4732
   17CHTO  H173 6861   5.887   6.787   1.048  1.5470  3.9793  1.9587
   17CHTO   C94 6862   5.562   6.866   0.942  0.5002 -0.8698 -0.3888
   17CHTO  H181 6863   5.505   6.834   1.029 -0.3449  1.6469  0.0334
   17CHTO   O61 6864   5.478   6.831   0.828 -0.8449 -0.5890 -0.4747
   17CHTO   C95 6865   5.418   6.702   0.858 -0.1847 -0.2776  0.1106
   17CHTO  H182 6866   5.348   6.714   0.940 -0.4255  1.7793 -0.3581
   17CHTO  C106 6867   5.351   6.659   0.722  0.4904  0.2610  0.3260
   17CHTO   O69 6868   5.280   6.536   0.748  0.3715  0.2978  0.1892
   17CHTO  H169 6869   5.209   6.541   0.687  2.0297 -2.0561 -2.0541
   17CHTO   O63 6870   5.564   7.042   0.941 -0.5177 -0.2074  0.0333
   17CHTO   C96 6871   5.456   7.092   1.050  0.7651 -0.5496 -0.2958
   17CHTO  H183 6872   5.423   7.004   1.105  2.9848 -1.5583 -0.5455
   17CHTO   C98 6873   5.326   7.158   0.998  0.5341 -0.5637  0.6962
   17CHTO  H185 6874   5.354   7.243   0.934  0.8066  1.1032  3.0109
   17CHTO   O67 6875   5.259   7.069   0.912 -0.3261 -0.4417 -0.1554
   17CHTO  H167 6876   5.295   7.070   0.826 -0.6592 -0.4005 -0.2978
   17CHTO  C102 6877   5.235   7.194   1.124  0.0417 -0.3307 -0.3380
   17CHTO  H189 6878   5.215   7.100   1.177  1.3739 -1.3407 -1.5935
   17CHTO   N18 6879   5.104   7.265   1.099 -0.5340 -0.0112  0.2555
   17CHTO  H176 6880   5.125   7.343   1.028 -2.5860  0.2494 -0.0939
   17CHTO  H177 6881   5.033   7.204   1.046 -0.8530 -0.2177  0.9198
   17CHTO  C105 6882   5.319   7.266   1.240 -0.4501 -0.0469  0.4168
   17CHTO  H192 6883   5.334   7.372   1.219  2.3343 -0.7218 -1.1511
   17CHTO   O65 6884   5.447   7.202   1.264 -0.2886 -0.1849  0.6182
   17CHTO  C100 6885   5.530   7.191   1.150 -0.1873 -0.1927  0.4516
   17CHTO  H187 6886   5.536   7.294   1.110 -2.2023 -0.1650  0.1565
   17CHTO  C107 6887   5.678   7.147   1.182 -0.0727  0.0709 -0.2502
   17CHTO   O70 6888   5.739   7.272   1.213  0.1979  0.1599  0.2660
   17CHTO  H170 6889   5.773   7.303   1.132  0.1046  1.8945  0.8746
   17CHTO   O57 6890   5.229   7.250   1.369  0.3724 -0.2500  0.3475
   17CHTO   C85 6891   5.205   7.361   1.451 -0.4701  0.6157  0.3921
   17CHTO  H157 6892   5.177   7.447   1.385 -0.0323  1.5331  1.3848
   17CHTO   C83 6893   5.331   7.418   1.513  0.2418 -0.2933 -0.1472
   17CHTO  H155 6894   5.400   7.456   1.437  0.0546  2.1464  0.8384
   17CHTO   O56 6895   5.397   7.311   1.581  0.3149 -0.1047  0.4570
   17CHTO  H135 6896   5.412   7.234   1.530 -0.2042  0.3756 -0.4185
   17CHTO   C81 6897   5.295   7.542   1.604  0.6128  0.6422  0.6109
   17CHTO  H153 6898   5.243   7.613   1.539  0.7008  1.8750  1.8796
   17CHTO   N14 6899   5.409   7.620   1.649 -0.3297 -0.1245 -0.1136
   17CHTO  H141 6900   5.478   7.632   1.568  0.6201 -0.0038  0.7008
   17CHTO  H142 6901   5.369   7.714   1.680  0.8619  0.4893 -0.4116
   17CHTO   C79 6902   5.191   7.494   1.712  0.5788  0.1987  0.0008
   17CHTO  H151 6903   5.161   7.585   1.765 -0.0848 -2.3791  4.2659
   17CHTO   O52 6904   5.067   7.446   1.646 -0.7137 -0.2236  0.2346
   17CHTO   C86 6905   5.093   7.332   1.562  0.0151  0.3684 -0.7336
   17CHTO  H158 6906   5.111   7.251   1.636  0.1901  1.7870  0.8042
   17CHTO   C90 6907   4.952   7.294   1.501  0.6024  0.5490 -0.0815
   17CHTO   O60 6908   4.967   7.167   1.438  0.4283  0.1071 -0.5753
   17CHTO  H138 6909   4.977   7.105   1.508 -1.4319 -3.3958 -3.2931
   17CHTO   O50 6910   5.238   7.390   1.802  0.3941  0.3999  0.2144
   17CHTO   C73 6911   5.302   7.407   1.925  0.6945 -0.4303 -0.5149
   17CHTO  H145 6912   5.316   7.515   1.942 -3.8380  0.0387  0.9439
   17CHTO   C74 6913   5.439   7.338   1.930 -0.1212 -0.3588 -0.0286
   17CHTO  H146 6914   5.502   7.367   1.845 -0.5878 -2.2452 -1.0611
   17CHTO   O54 6915   5.509   7.388   2.049  0.0991 -0.2549  0.1626
   17CHTO  H133 6916   5.583   7.436   2.016  0.1264 -2.1193 -2.6427
   17CHTO   C75 6917   5.424   7.177   1.933 -0.8162  0.6221 -0.3629
   17CHTO  H147 6918   5.384   7.136   1.840 -0.2776 -2.1914  0.5947
   17CHTO   N13 6919   5.547   7.100   1.936 -0.3574  0.2831 -0.3674
   17CHTO  H139 6920   5.642   7.151   1.931  0.1874 -0.6506  0.2362
   17CHTO  H140 6921   5.554   7.012   1.999 -0.9739 -0.6076 -1.5215
   17CHTO   C76 6922   5.321   7.139   2.048  0.1201  0.4486  0.3456
   17CHTO  H148 6923   5.365   7.171   2.142 -1.0089  1.3769  0.5699
   17CHTO   O49 6924   5.195   7.213   2.031 -0.2203  0.3414 -0.1171
   17CHTO   C77 6925   5.216   7.354   2.040 -0.7380 -0.5288 -0.0053
   17CHTO  H149 6926   5.278   7.366   2.130  2.3885 -2.8291 -1.7455
   17CHTO   C88 6927   5.085   7.435   2.070 -0.3642  0.1676 -1.0823
   17CHTO   O58 6928   5.114   7.584   2.085 -0.0755  0.5101  0.0913
   17CHTO  H136 6929   5.052   7.619   2.145 -0.0278  0.7951 -0.0252
   17CHTO   O51 6930   5.284   6.976   2.039  0.0301 -0.7636  0.1615
   17CHTO   C78 6931   5.139   6.931   2.102 -0.0281 -0.0117 -0.1750
   17CHTO  H150 6932   5.073   7.020   2.110 -1.7575 -1.3559  1.0560
   17CHTO   C80 6933   5.163   6.871   2.241  0.2947 -0.8885  0.0556
   17CHTO  H152 6934   5.249   6.802   2.235  2.1768  1.6248 -3.5948
   17CHTO   O55 6935   5.194   6.976   2.327  0.3486 -0.3405 -0.1319
   17CHTO  H134 6936   5.125   7.036   2.345  1.2009  0.4926  0.3799
   17CHTO   C84 6937   5.044   6.778   2.286 -1.0139  0.2092 -0.4290
   17CHTO  H156 6938   4.972   6.845   2.333 -0.9358  0.1835 -0.2731
   17CHTO   N15 6939   5.095   6.695   2.404  0.0511 -0.5409 -0.1473
   17CHTO  H143 6940   5.102   6.759   2.489  1.2063 -0.1513 -0.5276
   17CHTO  H144 6941   5.029   6.614   2.426  1.6185 -2.0112 -0.8342
   17CHTO   C87 6942   4.989   6.686   2.171 -0.3537 -0.3794  0.5592
   17CHTO  H159 6943   5.066   6.610   2.153  0.4182  0.0714  1.8434
   17CHTO   O53 6944   4.970   6.766   2.045 -0.5220  0.2720 -0.3324
   17CHTO   C82 6945   5.080   6.844   1.989 -0.1932  0.2271  0.4477
   17CHTO  H154 6946   5.152   6.778   1.941  0.3371  0.3197  1.1057
   17CHTO   C89 6947   5.018   6.939   1.874  0.0336 -0.1873  0.1055
   17CHTO   O59 6948   5.123   7.009   1.807 -0.3834 -0.1845  0.2227
   17CHTO  H137 6949   5.097   7.052   1.728 -1.5073 -1.5903 -0.1864
   17CHTO   O45 6950   4.857   6.635   2.193 -0.4851  0.0298 -0.2740
   17CHTO   C67 6951   4.756   6.697   2.275 -0.0932 -0.8412  0.7249
   17CHTO  H124 6952   4.790   6.735   2.372  3.4005  1.6687 -1.3800
   17CHTO   C65 6953   4.704   6.815   2.201  0.4122 -0.1103 -0.0763
   17CHTO  H122 6954   4.788   6.880   2.175 -0.1236  1.7283  2.4951
   17CHTO   O44 6955   4.624   6.893   2.288 -0.0188 -0.8598  0.0552
   17CHTO  H102 6956   4.681   6.951   2.334  0.4669 -0.6612 -0.7805
   17CHTO   C63 6957   4.625   6.767   2.075 -0.3235  0.3522 -0.3054
   17CHTO  H120 6958   4.689   6.702   2.014  0.9211  1.8161 -0.6093
   17CHTO   N11 6959   4.610   6.877   1.974  0.0081  0.3403  0.6540
   17CHTO  H108 6960   4.643   6.842   1.878  1.7685  0.3678  1.2429
   17CHTO  H109 6961   4.515   6.924   1.989  0.6273  1.0382  2.4612
   17CHTO   C61 6962   4.499   6.685   2.118  0.5881  0.0748  0.1796
   17CHTO  H118 6963   4.458   6.633   2.030  3.0648 -0.3583 -0.7405
   17CHTO   O40 6964   4.530   6.583   2.201  0.0818  0.0083 -0.3236
   17CHTO   C68 6965   4.640   6.590   2.302  0.4379  0.0214 -0.5836
   17CHTO  H125 6966   4.683   6.488   2.299 -0.0623 -0.2162  0.1411
   17CHTO   C72 6967   4.586   6.603   2.449  0.5758  0.2968 -0.3174
   17CHTO   O48 6968   4.548   6.477   2.500 -0.2741 -0.1406 -0.1592
   17CHTO  H105 6969   4.598   6.411   2.455 -2.0785 -0.8331 -1.1788
   17CHTO   O38 6970   4.394   6.757   2.181  0.1181 -0.1971 -0.3838
   17CHTO   C55 6971   4.256   6.752   2.138 -0.4405 -0.3115 -0.2302
   17CHTO  H112 6972   4.200   6.815   2.209 -1.4050 -0.0447 -1.2190
   17CHTO   C56 6973   4.190   6.601   2.128  0.4281  0.0752 -0.2728
   17CHTO  H113 6974   4.250   6.545   2.056 -1.2304 -1.1028 -0.7779
   17CHTO   O42 6975   4.197   6.535   2.256 -0.0513  0.0111  0.4343
   17CHTO  H100 6976   4.209   6.442   2.259 -0.8718 -0.1055  0.1104
   17CHTO   C57 6977   4.044   6.607   2.073 -0.5817  0.0480  0.2877
   17CHTO  H114 6978   3.989   6.653   2.154  0.6750  1.3162  0.4486
   17CHTO   N10 6979   3.982   6.477   2.046 -0.2534 -0.3463  0.1939
   17CHTO  H106 6980   3.903   6.488   1.973 -1.2165  1.2766  1.4496
   17CHTO  H107 6981   3.944   6.424   2.132 -1.9725 -0.0301 -0.3683
   17CHTO   C58 6982   4.038   6.693   1.947  0.2753 -0.2810 -0.2068
   17CHTO  H115 6983   4.097   6.650   1.863  0.5769 -2.3429  1.0410
   17CHTO   O37 6984   4.090   6.825   1.970 -0.4184 -0.5702  0.6408
   17CHTO   C59 6985   4.230   6.834   2.000 -0.1850  0.7657 -0.9101
   17CHTO  H116 6986   4.295   6.802   1.919 -1.1797 -1.2192 -0.9547
   17CHTO   C70 6987   4.259   6.984   2.022 -0.6550 -0.1636 -0.2932
   17CHTO   O46 6988   4.209   7.060   1.913  0.1956 -0.4722  0.3732
   17CHTO  H103 6989   4.118   7.046   1.898 -0.2521  2.1427  0.3909
   17CHTO   O39 6990   3.871   6.719   1.904  0.3604 -0.4844 -0.1147
   17CHTO   C60 6991   3.795   6.813   1.985  0.1146 -0.2775  0.5086
   17CHTO  H117 6992   3.841   6.800   2.082  1.1141 -2.9373 -0.2626
   17CHTO   C62 6993   3.797   6.957   1.921  0.5060 -0.1495 -0.1232
   17CHTO  H119 6994   3.900   6.986   1.891  0.5160  1.9520  1.7818
   17CHTO   O43 6995   3.719   6.955   1.796 -0.3076  0.0087 -0.0304
   17CHTO  H101 6996   3.725   7.038   1.751  1.3622  0.4306  0.9418
   17CHTO   C66 6997   3.751   7.061   2.024  0.0941  0.2541 -0.1107
   17CHTO  H123 6998   3.812   7.054   2.114 -2.4722  1.2218  1.7549
   17CHTO   N12 6999   3.767   7.204   1.976  0.5412  0.1851  0.8912
   17CHTO  H110 7000   3.668   7.245   1.973  0.2024 -0.7324 -1.1420
   17CHTO  H111 7001   3.836   7.263   2.035  0.9942  1.5475 -0.9681
   17CHTO   C69 7002   3.600   7.033   2.062 -0.6893 -0.0279 -0.4154
   17CHTO  H126 7003   3.539   7.051   1.971  0.4613  1.8944 -0.8407
   17CHTO   O41 7004   3.574   6.864   2.102 -0.3900 -0.4296 -0.0503
   17CHTO   C64 7005   3.647   6.767   1.998  0.1578  0.3308 -0.2256
   17CHTO  H121 7006   3.597   6.777   1.899  0.0680 -0.4969 -0.2717
   17CHTO   C71 7007   3.632   6.619   2.063  0.3755  0.2057  0.4132
   17CHTO   O47 7008   3.499   6.563   2.058  0.3913 -0.0298  0.3391
   17CHTO  H104 7009   3.491   6.506   1.984 -0.5132 -0.7930  1.0111
   17CHTO   O34 7010   3.553   7.118   2.184 -0.3950  0.1707 -0.8281
   17CHTO   C49 7011   3.461   7.235   2.240  0.0786  0.2772 -0.0696
   17CHTO   H91 7012   3.467   7.316   2.167  1.1826  0.1963 -0.0815
   17CHTO   C47 7013   3.504   7.266   2.384 -0.0605  0.0004 -0.4364
   17CHTO   H89 7014   3.443   7.355   2.412 -1.6314 -0.2656 -2.8157
   17CHTO   O33 7015   3.635   7.305   2.387  0.0510 -0.0935  0.1110
   17CHTO   H70 7016   3.694   7.235   2.406 -0.3495  0.5183  4.1339
   17CHTO   C45 7017   3.473   7.142   2.484  0.0390 -0.5238  0.1846
   17CHTO   H87 7018   3.567   7.086   2.495 -0.1001 -1.5610 -3.1947
   17CHTO    N8 7019   3.422   7.192   2.617  0.4578 -0.0490 -0.2540
   17CHTO   H75 7020   3.340   7.259   2.595 -0.3742 -1.0795 -0.2937
   17CHTO   H76 7021   3.499   7.248   2.669 -1.9892  0.6780  2.7858
   17CHTO   C43 7022   3.373   7.032   2.420  0.1312 -0.0469  0.3533
   17CHTO   H85 7023   3.440   6.968   2.362  0.9209 -1.5422  2.7980
   17CHTO   O29 7024   3.265   7.096   2.345  0.3417 -0.2753 -0.1816
   17CHTO   C50 7025   3.310   7.192   2.244  0.2169 -0.4976 -0.0874
   17CHTO   H92 7026   3.283   7.156   2.144 -2.1077 -1.9442  1.0117
   17CHTO   C54 7027   3.220   7.320   2.255 -0.4196 -0.3193  0.0517
   17CHTO   O36 7028   3.227   7.397   2.136  0.7409 -0.3913  0.0422
   17CHTO   H72 7029   3.175   7.351   2.073 -0.3898  1.1574 -0.1867
   17CHTO   O27 7030   3.335   6.930   2.520  0.0711 -0.3615 -0.2150
   17CHTO   C37 7031   3.295   6.793   2.500 -0.2091  0.1062  0.7729
   17CHTO   H79 7032   3.272   6.741   2.594 -1.7568 -2.6631 -1.0740
   17CHTO   C38 7033   3.149   6.783   2.434 -1.0901  0.7432  0.7276
   17CHTO   H80 7034   3.157   6.825   2.332 -0.9953 -1.4105 -0.1801
   17CHTO   O31 7035   3.060   6.850   2.523  0.5970  0.2454 -0.7711
   17CHTO   H68 7036   2.973   6.844   2.488 -0.2173 -1.0583  1.3936
   17CHTO   C39 7037   3.109   6.636   2.425  0.3258 -0.3920 -0.4569
   17CHTO   H81 7038   3.099   6.603   2.529 -1.0052 -0.8296 -0.7162
   17CHTO    N7 7039   2.977   6.615   2.357  0.0975  0.5319 -0.0537
   17CHTO   H73 7040   2.988   6.630   2.251  0.2811  0.0733 -0.0987
   17CHTO   H74 7041   2.891   6.663   2.401 -0.5379 -1.5439  1.0076
   17CHTO   C40 7042   3.213   6.551   2.353 -0.4846 -0.1027 -0.8131
   17CHTO   H82 7043   3.211   6.575   2.247  0.3483 -1.3118 -1.1114
   17CHTO   O26 7044   3.347   6.571   2.409  0.4129 -0.7048  0.4329
   17CHTO   C41 7045   3.399   6.710   2.419  0.4326  0.4845  0.4159
   17CHTO   H83 7046   3.411   6.744   2.315  0.6880 -0.5717  0.0910
   17CHTO   C52 7047   3.531   6.718   2.501  0.1770  0.0314  0.0492
   17CHTO   O35 7048   3.648   6.652   2.429 -0.2372  0.2732 -0.4887
   17CHTO   H71 7049   3.725   6.640   2.480 -0.1474 -1.6987 -1.0327
   17CHTO   O28 7050   3.191   6.415   2.373 -0.0168 -0.3937  0.0051
   17CHTO   C42 7051   3.260   6.314   2.292  0.1712  0.7198 -0.0627
   17CHTO   H84 7052   3.213   6.218   2.316  2.5040 -0.7594 -1.1527
   17CHTO   C44 7053   3.406   6.295   2.334 -0.5896 -0.1847  0.1013
   17CHTO   H86 7054   3.459   6.385   2.305 -3.1236  0.7106 -1.9901
   17CHTO   O32 7055   3.410   6.270   2.474 -0.1421  0.0420  1.1814
   17CHTO   H69 7056   3.389   6.181   2.495  1.5493 -0.2977  1.4760
   17CHTO   C48 7057   3.480   6.180   2.247  0.4324  0.3319 -0.8129
   17CHTO   H90 7058   3.444   6.085   2.289  0.7951  0.4657 -0.1895
   17CHTO    N9 7059   3.624   6.176   2.287  0.3057 -0.5489  0.5255
   17CHTO   H77 7060   3.644   6.081   2.334 -0.0727 -0.7652  0.2576
   17CHTO   H78 7061   3.687   6.187   2.200 -1.3858 -0.0182 -0.6670
   17CHTO   C51 7062   3.467   6.195   2.093  0.5894 -0.1349 -0.2860
   17CHTO   H93 7063   3.516   6.290   2.074  0.1745  0.5364  1.9064
   17CHTO   O30 7064   3.329   6.195   2.066  0.2599  0.1989 -0.4169
   17CHTO   C46 7065   3.240   6.331   2.141 -0.8789  0.0192  0.1422
   17CHTO   H88 7066   3.281   6.426   2.105 -1.9893  0.0933 -0.9728
   17CHTO   C53 7067   3.088   6.316   2.110  0.6301 -0.2093 -0.5817
   17CHTO   O72 7068   3.040   6.184   2.132  0.0661 -0.2235  0.1732
   17CHTO  H199 7069   3.106   6.127   2.099  2.1834  0.9235  2.2652
   17CHTO   O22 7070   3.526   6.087   2.013  0.1895 -0.6761 -0.2533
   17CHTO   C31 7071   3.586   6.118   1.877 -0.5889 -0.3622  0.3265
   17CHTO   H59 7072   3.604   6.019   1.829  1.4331  1.7214 -3.4618
   17CHTO   C29 7073   3.497   6.200   1.785  0.0032 -0.3525 -0.7423
   17CHTO   H57 7074   3.470   6.291   1.842 -0.4797 -0.4311 -0.8387
   17CHTO   O21 7075   3.372   6.127   1.779  0.3737  0.4366  0.2363
   17CHTO   H37 7076   3.315   6.154   1.710 -0.2383  1.0837  0.9870
   17CHTO   C27 7077   3.561   6.241   1.652 -0.3073 -0.2980  0.4995
   17CHTO   H55 7078   3.572   6.152   1.587  2.7489  0.5910 -0.3005
   17CHTO    N5 7079   3.465   6.337   1.585  0.2691  0.5179  0.1517
   17CHTO   H43 7080   3.522   6.417   1.539  0.6751 -1.0809 -2.1998
   17CHTO   H44 7081   3.410   6.282   1.510 -0.1490  1.0773  0.0507
   17CHTO   C25 7082   3.708   6.294   1.671  0.3357  0.3814  0.7731
   17CHTO   H53 7083   3.696   6.391   1.721 -2.3147 -0.3929  1.6995
   17CHTO   O17 7084   3.786   6.202   1.757 -0.0642  0.5737  0.6611
   17CHTO   C32 7085   3.732   6.173   1.885  0.7026  0.0148  0.0201
   17CHTO   H60 7086   3.729   6.256   1.957  2.0136 -0.0971  0.2081
   17CHTO   C36 7087   3.831   6.076   1.950  0.5100 -0.4756 -0.0628
   17CHTO   O25 7088   3.948   6.142   1.998 -0.0996 -0.4376 -0.4162
   17CHTO   H40 7089   3.966   6.116   2.086 -0.7883 -1.0196 -0.4525
   17CHTO   O15 7090   3.787   6.310   1.538 -0.2328 -0.6106  0.0946
   17CHTO   C19 7091   3.857   6.427   1.500  0.1983 -0.0389  0.4029
   17CHTO   H47 7092   3.927   6.392   1.422  0.9492  0.2177  0.9547
   17CHTO   C20 7093   3.759   6.537   1.453 -0.2884  0.0479  0.9590
   17CHTO   H48 7094   3.693   6.566   1.537  0.7246  0.1384  1.7330
   17CHTO   O19 7095   3.668   6.475   1.356  0.0293  0.0368  0.3147
   17CHTO   H35 7096   3.606   6.420   1.400 -0.4836  0.5511  0.2496
   17CHTO   C21 7097   3.841   6.661   1.387  0.0234  1.2116 -0.4315
   17CHTO   H49 7098   3.903   6.620   1.307 -1.4722  0.0962 -1.0486
   17CHTO    N4 7099   3.757   6.775   1.335 -0.2027  0.5494  0.6774
   17CHTO   H41 7100   3.740   6.785   1.229 -0.5955  2.6094  0.9072
   17CHTO   H42 7101   3.664   6.782   1.388 -0.4614 -0.5002  0.3754
   17CHTO   C22 7102   3.935   6.716   1.499  0.1648 -0.4495  0.3095
   17CHTO   H50 7103   3.880   6.775   1.572 -0.8813 -0.4511 -0.4741
   17CHTO   O14 7104   4.014   6.613   1.557  0.0166  1.0937 -0.2410
   17CHTO   C23 7105   3.951   6.492   1.609 -0.2765  0.5787 -0.6623
   17CHTO   H51 7106   3.892   6.531   1.694 -1.2141 -3.2644  0.5478
   17CHTO   C34 7107   4.060   6.392   1.661 -0.0540 -0.3064 -0.0547
   17CHTO   O23 7108   4.161   6.433   1.757  0.3239 -0.1127  0.0158
   17CHTO   H38 7109   4.238   6.380   1.755 -0.3351 -1.1043  0.5961
   17CHTO   O16 7110   4.032   6.794   1.437 -0.1581 -0.4049 -0.2415
   17CHTO   C24 7111   4.088   6.899   1.541 -0.4647  0.3166 -0.1129
   17CHTO   H52 7112   4.076   6.864   1.644  2.7661  0.5910  0.4337
   17CHTO   C26 7113   4.020   7.038   1.523 -0.1943 -0.3514 -0.2850
   17CHTO   H54 7114   4.034   7.073   1.419  1.7105  1.5262  0.5533
   17CHTO   O20 7115   3.878   7.028   1.554 -0.4886  0.2437 -0.4536
   17CHTO   H36 7116   3.825   7.072   1.490 -1.8264 -1.4285 -0.5464
   17CHTO   C30 7117   4.080   7.149   1.613  0.8711 -0.4896 -0.3331
   17CHTO   H58 7118   4.073   7.132   1.721  0.6715 -1.2142 -0.4583
   17CHTO    N6 7119   4.021   7.284   1.581 -0.3029 -0.0809  0.0248
   17CHTO   H45 7120   3.913   7.284   1.584 -0.3630 -1.0796 -1.5020
   17CHTO   H46 7121   4.061   7.356   1.651  3.2756 -1.5823 -0.3430
   17CHTO   C33 7122   4.236   7.150   1.591 -0.4391  0.2311  0.2274
   17CHTO   H61 7123   4.258   7.172   1.486  1.0974 -1.9494  0.0533
   17CHTO   O18 7124   4.283   7.013   1.620  0.5179 -0.1328 -0.4713
   17CHTO   C28 7125   4.240   6.910   1.523  0.1919 -0.0043  0.3515
   17CHTO   H56 7126   4.259   6.934   1.418 -1.0610 -1.2392 -0.1705
   17CHTO   C35 7127   4.297   6.765   1.550  0.0292  0.2361  0.3678
   17CHTO   O24 7128   4.251   6.699   1.671  0.2985 -0.4219  0.1049
   17CHTO   H39 7129   4.314   6.637   1.702  0.5644 -0.0559  0.3066
   17CHTO    O9 7130   4.304   7.254   1.670  0.0067 -0.1685 -0.8384
   17CHTO   C13 7131   4.464   7.268   1.647 -1.1225  0.8163 -0.0242
   17CHTO   H26 7132   4.495   7.190   1.575 -2.1471  1.3726 -1.0833
   17CHTO   C11 7133   4.526   7.242   1.794  0.6052 -0.0603  0.4531
   17CHTO   H24 7134   4.510   7.136   1.819 -0.1035  0.2840  1.5054
   17CHTO    O8 7135   4.448   7.311   1.899  0.1548 -0.3534 -0.2378
   17CHTO    H3 7136   4.455   7.404   1.890  0.5544 -0.4662 -1.2088
   17CHTO    C9 7137   4.677   7.274   1.787 -0.1611 -0.1162 -0.0579
   17CHTO   H22 7138   4.712   7.224   1.695  0.8427 -1.0200  0.8024
   17CHTO    N2 7139   4.764   7.210   1.889  0.3921 -0.0259  0.3271
   17CHTO   H10 7140   4.863   7.239   1.857  0.2056 -0.8192 -1.0242
   17CHTO   H11 7141   4.749   7.260   1.983 -2.4429 -0.4621  0.1379
   17CHTO    C7 7142   4.695   7.431   1.761 -1.2207  0.0078  1.3384
   17CHTO   H20 7143   4.787   7.441   1.699 -1.8473  0.1379  0.4123
   17CHTO    O4 7144   4.586   7.490   1.690  0.0519  0.0522 -0.3588
   17CHTO   C14 7145   4.504   7.413   1.597  0.2256 -0.0148 -0.5775
   17CHTO   H27 7146   4.566   7.395   1.507  2.0595 -0.5418  0.7594
   17CHTO   C18 7147   4.382   7.498   1.558  0.7638 -0.2082 -0.3207
   17CHTO   O13 7148   4.421   7.575   1.438  0.3488 -0.3730 -0.2043
   17CHTO    H7 7149   4.492   7.631   1.462  0.5845 -0.4742 -0.6565
   17CHTO    O2 7150   4.719   7.513   1.907  0.1866  0.4624 -0.2231
   17CHTO    C1 7151   4.738   7.653   1.905  0.3278 -0.4113  0.5633
   17CHTO   H14 7152   4.662   7.704   1.843 -1.2234 -0.5241  2.3097
   17CHTO    C2 7153   4.884   7.703   1.854  0.3329 -0.2445  0.5797
   17CHTO   H15 7154   4.956   7.641   1.909 -2.0792 -1.3367  2.6232
   17CHTO    O6 7155   4.899   7.678   1.712  0.3819  0.0485 -0.5463
   17CHTO    H1 7156   4.941   7.749   1.669 -0.3448  0.5858 -0.3731
   17CHTO    C3 7157   4.924   7.851   1.891  0.6519  0.4703  0.1664
   17CHTO   H16 7158   4.875   7.920   1.820  1.6354  2.0009  0.9564
   17CHTO    N1 7159   5.068   7.880   1.882 -0.0357  0.0461  0.2151
   17CHTO    H8 7160   5.096   7.902   1.780 -2.4985  0.5087 -0.3850
   17CHTO    H9 7161   5.100   7.954   1.954  0.2439 -0.8621  1.0393
   17CHTO    C4 7162   4.866   7.888   2.035  0.4176  0.5213  0.9644
   17CHTO   H17 7163   4.919   7.830   2.111  0.4962  0.1131  0.5978
   17CHTO    O1 7164   4.730   7.855   2.044 -0.0072  0.2680 -0.4421
   17CHTO    C5 7165   4.702   7.716   2.041  0.3645 -0.2039  0.2893
   17CHTO   H18 7166   4.763   7.662   2.113 -0.0421 -0.9862  0.0480
   17CHTO   C16 7167   4.552   7.687   2.075 -0.0898 -0.1788 -0.7822
   17CHTO   O11 7168   4.526   7.548   2.094 -0.1792  0.0752  0.1832
   17CHTO    H5 7169   4.572   7.516   2.169  1.0124  0.3335 -0.4108
   17CHTO    O3 7170   4.870   8.028   2.054  0.0248  0.4972  0.0607
   17CHTO    C6 7171   4.885   8.090   2.185 -0.6037 -0.2713  0.1538
   17CHTO   H19 7172   4.851   8.193   2.173 -0.6761 -0.4357 -1.1577
   17CHTO    C8 7173   4.810   8.012   2.307 -0.5825  0.3377  0.6359
   17CHTO   H21 7174   4.847   7.910   2.305 -1.6704 -0.0653  0.9177
   17CHTO    O7 7175   4.673   8.013   2.278  0.3884 -0.7613  0.2640
   17CHTO    H2 7176   4.613   7.988   2.346 -2.0000  1.7026 -0.8161
   17CHTO   C12 7177   4.845   8.072   2.453  0.1063  0.2125 -0.3537
   17CHTO   H25 7178   4.795   8.171   2.458  2.3327  1.3935 -0.8327
   17CHTO    N3 7179   4.801   7.993   2.568  0.4461  0.2455 -0.3870
   17CHTO   H12 7180   4.695   7.973   2.563 -0.0518  2.4734  0.2752
   17CHTO   H13 7181   4.872   7.914   2.586  0.3691  0.1217 -0.6245
   17CHTO   C15 7182   5.002   8.094   2.465  0.3894  0.0047 -0.5619
   17CHTO   H28 7183   5.054   8.002   2.492  2.0647  0.8109 -1.0014
   17CHTO   O10 7184   5.037   8.212   2.590 -0.1745 -0.5033 -0.6937
   17CHTO    H4 7185   5.028   8.183   2.679 -1.2922  0.2278 -0.5595
   17CHTO    O5 7186   5.060   8.153   2.352 -0.2333  0.3099  0.2041
   17CHTO   C10 7187   5.035   8.094   2.218 -0.0511 -0.1588  0.1464
   17CHTO   H23 7188   5.068   7.990   2.225  0.2037  0.0046  1.7038
   17CHTO   C17 7189   5.127   8.159   2.113 -0.1536 -0.1107 -0.3823
   17CHTO   O12 7190   5.139   8.298   2.121  0.0456 -0.9776 -0.2977
   17CHTO    H6 7191   5.231   8.315   2.135 -0.0592 -0.3573 -0.3302
   18CHTO  H203 7192   6.240   7.756   2.532  0.0692  0.7020  1.1429
   18CHTO   O82 7193   6.293   7.798   2.467 -0.3841  0.1083  0.3907
   18CHTO  C123 7194   6.245   7.747   2.340 -0.3114 -0.5948 -0.7067
   18CHTO  H227 7195   6.149   7.798   2.323  0.3468  0.2278 -2.0728
   18CHTO   O77 7196   6.358   7.793   2.249 -0.4311  0.6705  0.6095
   18CHTO  C118 7197   6.339   7.765   2.109 -0.4662  0.5765 -0.0024
   18CHTO  H222 7198   6.239   7.804   2.085  0.2598  1.6972 -1.2870
   18CHTO  C125 7199   6.446   7.849   2.034  0.5027  0.0962  0.3109
   18CHTO   O84 7200   6.581   7.824   2.069 -0.5152 -0.1652  0.0479
   18CHTO  H205 7201   6.631   7.903   2.074 -1.6159  0.5804 -0.6472
   18CHTO  C114 7202   6.339   7.615   2.090 -0.5138  0.2267  0.4310
   18CHTO  H218 7203   6.437   7.574   2.113 -0.5313 -0.9334 -1.5192
   18CHTO  C116 7204   6.233   7.545   2.180  0.5381 -0.9620 -0.4547
   18CHTO  H220 7205   6.133   7.576   2.144  1.1402  0.7735 -0.6562
   18CHTO   O79 7206   6.239   7.399   2.171 -0.1360 -0.3490 -0.3319
   18CHTO  H201 7207   6.315   7.354   2.202 -0.3795  0.0118  0.8215
   18CHTO  C120 7208   6.238   7.587   2.335 -0.4682 -0.0926  0.1637
   18CHTO  H224 7209   6.331   7.544   2.378  0.6436  1.5586 -0.5009
   18CHTO   N21 7210   6.123   7.531   2.413 -0.6060  0.1044 -0.4733
   18CHTO  H211 7211   6.152   7.491   2.509  2.6266  0.4002 -1.2478
   18CHTO  H212 7212   6.053   7.611   2.431 -0.0701  0.7000 -1.0246
   18CHTO   O75 7213   6.328   7.602   1.949  0.8468  0.1411  0.0086
   18CHTO  C112 7214   6.425   7.505   1.860  0.2154  0.0129  0.3823
   18CHTO  H216 7215   6.452   7.409   1.907  0.8712 -0.0312 -0.0855
   18CHTO   O73 7216   6.542   7.586   1.831  0.2108  0.6313  0.1089
   18CHTO  C113 7217   6.622   7.532   1.725  0.2808  0.1118  0.4707
   18CHTO  H217 7218   6.651   7.427   1.748  1.2745 -0.1458 -1.8709
   18CHTO  C124 7219   6.751   7.616   1.720  0.4240  0.0465  0.3840
   18CHTO   O83 7220   6.738   7.757   1.717  0.5647  0.1722  0.0627
   18CHTO  H204 7221   6.828   7.782   1.710  1.5041 -3.4749 -2.3652
   18CHTO  C109 7222   6.535   7.539   1.594 -0.3570  0.5315  0.2522
   18CHTO  H213 7223   6.508   7.644   1.579 -0.2467  0.5321  0.0639
   18CHTO  C110 7224   6.420   7.435   1.613 -0.3871  0.0906  0.1713
   18CHTO  H214 7225   6.462   7.336   1.629  2.9851  1.7620  2.3040
   18CHTO   O78 7226   6.335   7.436   1.494 -0.2860 -0.9278  0.4896
   18CHTO  H200 7227   6.358   7.370   1.432  1.4083 -2.4267  2.6165
   18CHTO  C111 7228   6.334   7.472   1.739  0.1478  0.4251 -0.8104
   18CHTO  H215 7229   6.279   7.564   1.716  1.0032  1.3388  0.7661
   18CHTO   N19 7230   6.231   7.370   1.766  0.0398  0.3357  0.5050
   18CHTO  H207 7231   6.255   7.325   1.862  2.6548 -0.9135 -0.6632
   18CHTO  H208 7232   6.131   7.409   1.759 -0.6971 -1.3485  1.1287
   18CHTO   O74 7233   6.620   7.494   1.484  0.0014 -0.0756 -0.3555
   18CHTO  C115 7234   6.635   7.598   1.373 -0.0830  0.0818 -0.4006
   18CHTO  H219 7235   6.538   7.646   1.354 -1.1119 -0.9966  1.9316
   18CHTO   O76 7236   6.733   7.707   1.415 -0.2232  0.1360  0.0540
   18CHTO  C122 7237   6.756   7.812   1.318 -0.6917 -0.1982  0.5470
   18CHTO  H226 7238   6.843   7.874   1.337 -1.1121  0.3545  0.6559
   18CHTO  C126 7239   6.637   7.907   1.319 -0.9383  0.1715  0.6470
   18CHTO   O85 7240   6.651   8.022   1.406 -0.4535  1.3054  0.5074
   18CHTO  H206 7241   6.711   8.076   1.357 -0.7915 -0.0812 -1.4972
   18CHTO  C121 7242   6.785   7.749   1.171 -0.5940  0.2554  0.2871
   18CHTO  H225 7243   6.773   7.833   1.099 -1.3468  0.3448  0.5164
   18CHTO   O81 7244   6.920   7.698   1.176 -0.0643 -0.4214 -0.1317
   18CHTO  H202 7245   6.948   7.685   1.088 -1.0604 -2.2862 -0.1941
   18CHTO  C119 7246   6.686   7.638   1.126  0.1376  0.7331  0.2491
   18CHTO  H223 7247   6.583   7.673   1.125 -0.9506 -2.3146  0.3046
   18CHTO  C117 7248   6.677   7.528   1.236 -0.4288  0.6717  0.2929
   18CHTO  H221 7249   6.773   7.480   1.260  0.0861  0.3968 -2.1575
   18CHTO   N20 7250   6.580   7.417   1.207  0.8908  0.2557 -0.1765
   18CHTO  H209 7251   6.585   7.392   1.102 -0.3469 -1.1984  0.0827
   18CHTO  H210 7252   6.607   7.330   1.264 -1.0814 -0.3164 -0.0741
   18CHTO   O80 7253   6.715   7.566   0.950 -0.4842 -0.5069  0.1208
   18CHTO  C103 7254   6.614   7.584   0.829  0.0125  0.3630  0.5247
   18CHTO  H190 7255   6.683   7.577   0.745  0.3212 -3.2969  0.9750
   18CHTO  C101 7256   6.500   7.469   0.810 -0.8328 -0.4892 -0.6956
   18CHTO  H188 7257   6.439   7.465   0.900  1.6256 -2.0433  0.9571
   18CHTO   O68 7258   6.564   7.325   0.791  0.4497  0.1143  0.6046
   18CHTO  H168 7259   6.511   7.281   0.728  1.3232 -1.2601  0.8206
   18CHTO   C99 7260   6.409   7.517   0.687  0.0339  0.0189 -0.0965
   18CHTO  H186 7261   6.478   7.514   0.600 -0.2170 -1.2826 -0.2641
   18CHTO   N17 7262   6.299   7.423   0.649 -0.3486 -0.2877 -0.4220
   18CHTO  H174 7263   6.344   7.332   0.614 -1.2415 -0.7207 -0.4601
   18CHTO  H175 7264   6.244   7.413   0.741  2.0384 -1.1572  0.9477
   18CHTO   C97 7265   6.362   7.662   0.708  0.1552 -0.4647 -0.0719
   18CHTO  H184 7266   6.302   7.670   0.800 -2.5695  0.0829 -1.8467
   18CHTO   O64 7267   6.478   7.745   0.710  0.4371  0.1580  0.1878
   18CHTO  C104 7268   6.552   7.723   0.827  0.0453 -0.6593  0.4529
   18CHTO  H191 7269   6.486   7.739   0.912  1.9763  0.0007  1.8717
   18CHTO  C108 7270   6.654   7.844   0.835 -0.3384  0.0290  0.5823
   18CHTO   O71 7271   6.604   7.977   0.846  0.2411 -0.5602 -0.1050
   18CHTO  H171 7272   6.591   8.022   0.765  2.4692 -1.0415 -0.7568
   18CHTO   O62 7273   6.288   7.711   0.594  0.2363 -0.0885 -0.5882
   18CHTO   C91 7274   6.175   7.801   0.622 -0.9304 -0.3687 -0.3354
   18CHTO  H178 7275   6.195   7.849   0.718  0.2953 -1.7408  0.1310
   18CHTO   C92 7276   6.038   7.724   0.637  0.1047 -0.0548  0.3382
   18CHTO  H179 7277   6.026   7.647   0.559 -1.3494 -1.6223  2.0564
   18CHTO   O66 7278   6.046   7.646   0.751 -0.0462 -0.3306  0.1378
   18CHTO  H166 7279   5.968   7.630   0.800 -1.4055  2.8155 -0.8883
   18CHTO   C93 7280   5.913   7.819   0.657 -0.7376 -0.4014 -0.1487
   18CHTO  H180 7281   5.915   7.843   0.764 -0.3149  0.2283 -0.2973
   18CHTO   N16 7282   5.785   7.750   0.633 -0.1166  0.3601 -0.1656
   18CHTO  H172 7283   5.722   7.792   0.710 -0.9907  2.6782 -2.0832
   18CHTO  H173 7284   5.750   7.775   0.533  0.0920  1.5429  0.0557
   18CHTO   C94 7285   5.927   7.953   0.576 -0.0884  0.5727 -0.1578
   18CHTO  H181 7286   5.879   7.950   0.478 -2.0037  0.5084  0.7645
   18CHTO   O61 7287   6.061   8.007   0.560 -0.5498 -0.2466  0.0904
   18CHTO   C95 7288   6.156   7.914   0.515 -0.1237  0.0723  0.7276
   18CHTO  H182 7289   6.119   7.867   0.423  3.1483  1.1167 -1.1854
   18CHTO  C106 7290   6.296   7.982   0.476 -0.1021  0.9703  0.1712
   18CHTO   O69 7291   6.295   8.069   0.358  0.6703  0.2863  0.1409
   18CHTO  H169 7292   6.207   8.100   0.344 -0.3554 -1.7838  1.7705
   18CHTO   O63 7293   5.843   8.062   0.662 -0.8675  0.1181  0.2286
   18CHTO   C96 7294   5.723   8.145   0.576 -0.0438 -0.2439 -0.8356
   18CHTO  H183 7295   5.675   8.085   0.498 -0.5426  0.1652 -0.8490
   18CHTO   C98 7296   5.771   8.283   0.520  0.1177  0.5862 -0.1402
   18CHTO  H185 7297   5.814   8.337   0.605 -1.4758  1.7206 -0.0453
   18CHTO   O67 7298   5.874   8.261   0.432 -0.4825 -0.4380  0.6422
   18CHTO  H167 7299   5.945   8.243   0.491  0.0579 -3.0426 -0.7400
   18CHTO  C102 7300   5.640   8.359   0.452 -0.1561 -0.8350  0.3409
   18CHTO  H189 7301   5.613   8.304   0.361 -0.6162 -1.5171  0.8868
   18CHTO   N18 7302   5.663   8.499   0.410  0.2488 -0.0145  0.4787
   18CHTO  H176 7303   5.745   8.514   0.342 -1.3933  1.4167 -1.2615
   18CHTO  H177 7304   5.659   8.570   0.491  0.3786 -1.6198  1.9248
   18CHTO  C105 7305   5.511   8.355   0.542  0.7664  1.2186  0.7862
   18CHTO  H192 7306   5.518   8.430   0.621  1.5245  2.5539 -0.5241
   18CHTO   O65 7307   5.491   8.227   0.618 -0.0932 -0.9746  0.1124
   18CHTO  C100 7308   5.607   8.176   0.678 -0.1592 -0.0466 -0.8364
   18CHTO  H187 7309   5.641   8.250   0.752  0.7155 -1.4722  0.2157
   18CHTO  C107 7310   5.551   8.055   0.755 -0.4881  0.2251  0.5060
   18CHTO   O70 7311   5.509   7.947   0.674  0.0474  0.3234  0.3291
   18CHTO  H170 7312   5.417   7.932   0.682  0.0635  0.2415  0.3606
   18CHTO   O57 7313   5.382   8.380   0.414 -0.2081  0.0483  0.3003
   18CHTO   C85 7314   5.250   8.331   0.423 -0.4000  0.1589 -0.3669
   18CHTO  H157 7315   5.218   8.351   0.319  0.4941  0.4477 -0.5924
   18CHTO   C83 7316   5.172   8.435   0.516  0.0975  0.2952 -0.3848
   18CHTO  H155 7317   5.191   8.536   0.479  2.9143  0.4334  1.2819
   18CHTO   O56 7318   5.245   8.449   0.638  0.2477 -0.4732  0.0337
   18CHTO  H135 7319   5.231   8.369   0.685  1.3102 -0.5330  0.2692
   18CHTO   C81 7320   5.020   8.402   0.512  0.3939 -0.4313 -0.3049
   18CHTO  H153 7321   4.984   8.413   0.409  0.2306 -2.0620 -0.4326
   18CHTO   N14 7322   4.942   8.500   0.593  0.5593  0.4165 -0.3737
   18CHTO  H141 7323   4.940   8.589   0.533  0.1062 -0.0317 -1.0230
   18CHTO  H142 7324   4.995   8.525   0.683 -0.2631 -1.3857  0.6317
   18CHTO   C79 7325   4.993   8.255   0.555 -0.4277 -0.0303  0.5136
   18CHTO  H151 7326   4.888   8.236   0.531 -0.2847  1.3155 -1.2626
   18CHTO   O52 7327   5.073   8.151   0.477  0.4781 -0.1217 -0.0355
   18CHTO   C86 7328   5.219   8.183   0.466 -0.0397 -0.1756  0.0095
   18CHTO  H158 7329   5.257   8.165   0.569  2.7416 -1.0060 -1.1003
   18CHTO   C90 7330   5.288   8.080   0.373  0.0563  0.3240 -0.5307
   18CHTO   O60 7331   5.430   8.088   0.351 -0.6619  0.2942 -0.8778
   18CHTO  H138 7332   5.468   8.013   0.393  1.1795  2.2629  1.0663
   18CHTO   O50 7333   5.015   8.235   0.692  0.3908  0.2944  0.6040
   18CHTO   C73 7334   4.966   8.116   0.758 -0.2340 -0.2928 -0.1575
   18CHTO  H145 7335   4.984   8.025   0.699  0.5537  0.8730 -1.7481
   18CHTO   C74 7336   4.811   8.130   0.783 -0.2706 -0.2157  0.1560
   18CHTO  H146 7337   4.764   8.154   0.686 -1.6763  0.2326  0.9386
   18CHTO   O54 7338   4.758   8.003   0.824  0.0980  0.0936  0.1823
   18CHTO  H133 7339   4.787   7.987   0.912  2.1759  1.8037 -0.1506
   18CHTO   C75 7340   4.774   8.245   0.890 -0.3215  0.0122 -0.0602
   18CHTO  H147 7341   4.805   8.342   0.848  0.3298  0.4837  1.4952
   18CHTO   N13 7342   4.628   8.272   0.919  0.0259 -0.9037  0.9270
   18CHTO  H139 7343   4.572   8.182   0.900  2.2921 -2.1294 -0.1027
   18CHTO  H140 7344   4.592   8.359   0.866  2.9011 -0.3239 -0.1851
   18CHTO   C76 7345   4.857   8.216   1.019 -0.4015 -0.7648 -0.3184
   18CHTO  H148 7346   4.824   8.121   1.061 -2.7833 -0.4741 -1.4402
   18CHTO   O49 7347   4.998   8.211   0.987  0.0124  0.1301  0.1111
   18CHTO   C77 7348   5.032   8.105   0.897  0.1664 -0.0509  0.1882
   18CHTO  H149 7349   4.991   8.015   0.945 -1.1099  0.8680  0.8730
   18CHTO   C88 7350   5.186   8.100   0.891  0.1131  1.2969 -0.1673
   18CHTO   O58 7351   5.231   7.990   0.802  0.2768 -0.7681 -0.2159
   18CHTO  H136 7352   5.295   8.022   0.741 -0.3021  1.4186  0.2935
   18CHTO   O51 7353   4.847   8.344   1.121  0.1510  0.3841  0.7106
   18CHTO   C78 7354   4.963   8.361   1.238  0.7382  0.5580  0.0087
   18CHTO  H150 7355   5.039   8.283   1.220  0.4453  0.4861 -0.9970
   18CHTO   C80 7356   4.893   8.338   1.376  0.1480 -0.7704 -0.4703
   18CHTO  H152 7357   4.809   8.410   1.379 -0.2203 -1.1496 -1.5272
   18CHTO   O55 7358   4.839   8.205   1.382  0.0726 -0.2084  0.3530
   18CHTO  H134 7359   4.749   8.203   1.408 -0.0691  0.0120 -0.1228
   18CHTO   C84 7360   4.997   8.382   1.498  0.4058  0.6592 -0.0485
   18CHTO  H156 7361   5.061   8.296   1.517 -1.5221 -0.5114  1.3757
   18CHTO   N15 7362   4.925   8.395   1.623  0.0595 -0.1649 -0.4678
   18CHTO  H143 7363   5.000   8.385   1.699 -1.0363 -0.6029  0.5643
   18CHTO  H144 7364   4.856   8.314   1.634 -0.7635  0.7956  1.6503
   18CHTO   C87 7365   5.078   8.510   1.466  0.1259 -0.1507 -0.4418
   18CHTO  H159 7366   5.014   8.598   1.475 -2.4386 -2.0474  0.2779
   18CHTO   O53 7367   5.128   8.508   1.323 -0.2101 -0.0845  0.3768
   18CHTO   C82 7368   5.028   8.500   1.222 -0.0695  0.0652 -0.2519
   18CHTO  H154 7369   4.945   8.570   1.214 -0.5456 -0.5109 -0.3146
   18CHTO   C89 7370   5.111   8.502   1.089 -0.6746 -0.4816 -0.3689
   18CHTO   O59 7371   5.020   8.528   0.983 -0.5222 -0.3738 -0.1072
   18CHTO  H137 7372   5.064   8.539   0.900  0.4208 -0.6126  0.3478
   18CHTO   O45 7373   5.203   8.521   1.565 -0.0488  0.2647  0.2635
   18CHTO   C67 7374   5.322   8.451   1.533 -0.4258 -0.0219  0.0658
   18CHTO  H124 7375   5.290   8.358   1.487 -0.1233 -0.3104  0.4335
   18CHTO   C65 7376   5.411   8.531   1.431 -0.2715 -0.2880 -0.8228
   18CHTO  H122 7377   5.359   8.625   1.411 -0.4464 -0.5348 -1.5356
   18CHTO   O44 7378   5.413   8.446   1.313 -0.3969  0.0809  0.2705
   18CHTO  H102 7379   5.485   8.386   1.319  0.5247  1.1541  0.1836
   18CHTO   C63 7380   5.555   8.570   1.489  0.2083  0.4454  0.7935
   18CHTO  H120 7381   5.550   8.638   1.574  0.1369  2.2997 -0.6493
   18CHTO   N11 7382   5.635   8.654   1.395 -0.0439 -0.4739  0.6462
   18CHTO  H108 7383   5.724   8.696   1.436 -0.4407  2.6501 -1.5315
   18CHTO  H109 7384   5.664   8.596   1.309  1.3928  4.7043 -2.6149
   18CHTO   C61 7385   5.625   8.440   1.545 -0.1037  0.5860  0.1648
   18CHTO  H118 7386   5.710   8.483   1.600  0.6060 -0.8524  0.2266
   18CHTO   O40 7387   5.549   8.360   1.632 -0.4938  0.2454 -0.0704
   18CHTO   C68 7388   5.410   8.409   1.661  0.2930 -0.7144  0.1675
   18CHTO  H125 7389   5.412   8.500   1.724  2.5384 -1.3147  1.0155
   18CHTO   C72 7390   5.340   8.302   1.746 -0.2410  0.0829  0.1589
   18CHTO   O48 7391   5.222   8.344   1.810 -0.1626 -0.2277 -0.3547
   18CHTO  H105 7392   5.250   8.392   1.885 -1.5548  0.5271 -0.3137
   18CHTO   O38 7393   5.671   8.351   1.440 -0.1925 -0.2123  0.1304
   18CHTO   C55 7394   5.774   8.256   1.475 -0.2845  0.4169 -0.5935
   18CHTO  H112 7395   5.798   8.265   1.582 -0.5210  2.9610 -0.7300
   18CHTO   C56 7396   5.901   8.289   1.386 -0.4705 -0.0643 -0.8128
   18CHTO  H113 7397   5.869   8.286   1.281 -0.3195  1.0597 -0.8923
   18CHTO   O42 7398   5.948   8.421   1.402 -0.1921  0.7391 -0.5977
   18CHTO  H100 7399   5.901   8.487   1.354 -0.9447  2.8026  2.7802
   18CHTO   C57 7400   6.005   8.180   1.428 -0.2710  0.1259  0.7420
   18CHTO  H114 7401   6.018   8.186   1.536  1.3133  0.6200  0.5364
   18CHTO   N10 7402   6.137   8.196   1.369 -0.0537  0.4505  0.1534
   18CHTO  H106 7403   6.183   8.099   1.363 -0.1643  0.2594  2.1533
   18CHTO  H107 7404   6.204   8.260   1.424  1.1529 -1.5103  1.0123
   18CHTO   C58 7405   5.949   8.035   1.405 -0.2435 -0.1340 -0.0027
   18CHTO  H115 7406   5.939   8.020   1.296  0.1503  1.4312 -0.2758
   18CHTO   O37 7407   5.828   8.019   1.475 -0.5574  0.5000 -0.1272
   18CHTO   C59 7408   5.723   8.109   1.446 -0.3485  0.3798 -0.0721
   18CHTO  H116 7409   5.690   8.096   1.343 -0.1853  0.4653 -0.1344
   18CHTO   C70 7410   5.618   8.071   1.549 -0.2201 -0.4022 -0.1053
   18CHTO   O46 7411   5.538   7.948   1.515 -0.2923 -0.8790 -0.4893
   18CHTO  H103 7412   5.454   7.950   1.556  0.3303 -0.1571  0.7883
   18CHTO   O39 7413   6.057   7.913   1.468 -0.1707  0.1400 -0.3168
   18CHTO   C60 7414   6.025   7.867   1.597  0.3626  1.0856  0.3984
   18CHTO  H117 7415   5.975   7.950   1.646 -1.6123  0.9983 -1.3943
   18CHTO   C62 7416   5.918   7.755   1.604  0.1632 -0.1090  0.3459
   18CHTO  H119 7417   5.826   7.788   1.551 -0.1986 -1.5015  0.0773
   18CHTO   O43 7418   5.952   7.635   1.527  0.4572  0.6020 -0.3724
   18CHTO  H101 7419   5.954   7.661   1.437  0.7373  0.3240 -0.4484
   18CHTO   C66 7420   5.881   7.730   1.752  0.0854 -0.0472 -0.0720
   18CHTO  H123 7421   5.835   7.819   1.795 -0.2969 -0.6984  0.8709
   18CHTO   N12 7422   5.769   7.628   1.766  0.3353  0.1847 -0.1580
   18CHTO  H110 7423   5.744   7.632   1.871 -0.7125  1.0411 -0.4392
   18CHTO  H111 7424   5.818   7.535   1.739 -0.9617 -0.7597  0.6866
   18CHTO   C69 7425   6.003   7.684   1.833  0.0291 -0.1958  0.3892
   18CHTO  H126 7426   6.037   7.582   1.809 -0.8451 -0.1580 -1.0737
   18CHTO   O41 7427   6.129   7.811   1.813 -0.6312  0.2585  0.4780
   18CHTO   C64 7428   6.156   7.834   1.672 -0.0178 -0.5117 -0.2888
   18CHTO  H121 7429   6.214   7.752   1.623 -1.3053  0.1855 -3.0667
   18CHTO   C71 7430   6.263   7.947   1.679 -0.3199 -0.0798  0.0990
   18CHTO   O47 7431   6.203   8.066   1.729  0.4635  0.3545  0.6752
   18CHTO  H104 7432   6.263   8.137   1.716  0.3588  0.5088  1.0329
   18CHTO   O34 7433   5.958   7.690   1.998 -0.7311 -0.5973  0.1135
   18CHTO   C49 7434   5.953   7.797   2.124  0.0639  0.0750 -0.2985
   18CHTO   H91 7435   6.042   7.778   2.184 -0.0781  2.8683  0.8610
   18CHTO   C47 7436   5.814   7.776   2.200  0.4838 -0.0088 -0.0161
   18CHTO   H89 7437   5.812   7.833   2.295  2.2955  0.9527 -0.5304
   18CHTO   O33 7438   5.806   7.637   2.236  0.1263 -0.2193  0.0795
   18CHTO   H70 7439   5.716   7.623   2.257 -0.2173 -0.3707 -1.4771
   18CHTO   C45 7440   5.686   7.824   2.106  0.5265  0.2030 -0.4924
   18CHTO   H87 7441   5.684   7.763   2.015 -1.0537 -0.1315 -0.2475
   18CHTO    N8 7442   5.557   7.803   2.179  0.1386  0.4096  0.4173
   18CHTO   H75 7443   5.558   7.808   2.287  0.9340  3.4898  0.3422
   18CHTO   H76 7444   5.491   7.876   2.135  1.8262  1.7748  0.0889
   18CHTO   C43 7445   5.707   7.974   2.062  0.3172  0.8886  0.2974
   18CHTO   H85 7446   5.633   8.010   1.991  0.3274 -0.4912 -0.4478
   18CHTO   O29 7447   5.843   7.995   2.007  0.4825  0.0285 -0.2045
   18CHTO   C50 7448   5.959   7.944   2.072  0.2209 -0.6423 -0.3560
   18CHTO   H92 7449   6.042   7.958   2.000  0.5461 -1.5998 -0.1688
   18CHTO   C54 7450   6.000   8.031   2.196  0.0967  0.0307  0.0519
   18CHTO   O36 7451   6.039   8.157   2.146 -0.1559 -0.1232  0.1618
   18CHTO   H72 7452   5.979   8.219   2.185  0.8795  1.2849 -0.4435
   18CHTO   O27 7453   5.694   8.077   2.160 -0.1500 -0.4718  0.3495
   18CHTO   C37 7454   5.660   8.221   2.161 -0.3690  0.1250 -0.8474
   18CHTO   H79 7455   5.719   8.278   2.234 -1.5899 -1.4861  1.4788
   18CHTO   C38 7456   5.675   8.297   2.031  0.1724  0.2494  0.1056
   18CHTO   H80 7457   5.611   8.253   1.954  0.0523  1.2072 -0.3468
   18CHTO   O31 7458   5.814   8.279   1.986 -0.1129  0.1536  0.2371
   18CHTO   H68 7459   5.824   8.300   1.895 -0.3824  1.5253  0.5082
   18CHTO   C39 7460   5.631   8.446   2.051  0.9069  0.3810 -0.0267
   18CHTO   H81 7461   5.687   8.491   2.133 -1.8606  2.7200  0.6652
   18CHTO    N7 7462   5.648   8.537   1.934  0.0069 -0.0120  0.3040
   18CHTO   H73 7463   5.709   8.492   1.857 -1.1136  0.6725 -0.9994
   18CHTO   H74 7464   5.685   8.634   1.962  0.7548 -0.6006  1.4156
   18CHTO   C40 7465   5.478   8.449   2.100 -0.1183  0.5152  0.9016
   18CHTO   H82 7466   5.407   8.421   2.022  0.7002  1.6106 -0.2588
   18CHTO   O26 7467   5.470   8.370   2.218 -0.3839  0.4993 -0.1757
   18CHTO   C41 7468   5.507   8.237   2.210  0.4776  0.1332 -0.1373
   18CHTO   H83 7469   5.437   8.185   2.144  2.3820  0.2236 -2.2942
   18CHTO   C52 7470   5.484   8.183   2.359 -0.3004  0.3823  0.7408
   18CHTO   O35 7471   5.355   8.183   2.419 -0.0428  0.1845  0.0966
   18CHTO   H71 7472   5.347   8.100   2.463 -1.4421  0.1201 -0.2401
   18CHTO   O28 7473   5.442   8.573   2.154  0.0730 -0.4728  0.0055
   18CHTO   C42 7474   5.307   8.622   2.182  0.0661 -0.1851 -0.4718
   18CHTO   H84 7475   5.319   8.728   2.203  1.7675 -0.0854 -1.8019
   18CHTO   C44 7476   5.242   8.564   2.308  0.3770 -0.2193 -0.0624
   18CHTO   H86 7477   5.224   8.458   2.291 -1.3998  0.0430  0.0349
   18CHTO   O32 7478   5.336   8.576   2.416 -0.3364 -1.2400 -0.1824
   18CHTO   H69 7479   5.341   8.492   2.457 -1.2379 -0.1244  2.3503
   18CHTO   C48 7480   5.106   8.635   2.341  0.5009  0.6631 -0.1191
   18CHTO   H90 7481   5.128   8.740   2.360  0.1227  0.0994  3.8158
   18CHTO    N9 7482   5.043   8.586   2.471 -0.2010  0.0227 -0.3842
   18CHTO   H77 7483   5.010   8.485   2.455  0.5399 -0.4111  0.7789
   18CHTO   H78 7484   4.958   8.653   2.482  0.8958  1.4172 -0.1765
   18CHTO   C51 7485   5.009   8.627   2.216 -1.0530 -0.0137  0.3019
   18CHTO   H93 7486   4.985   8.522   2.199  2.1014 -0.6697 -0.3110
   18CHTO   O30 7487   5.081   8.685   2.101  0.2964 -0.0730 -0.1610
   18CHTO   C46 7488   5.205   8.617   2.057 -0.3195  0.4336 -0.7252
   18CHTO   H88 7489   5.175   8.515   2.033  0.4453 -0.0084  0.1682
   18CHTO   C53 7490   5.267   8.683   1.934  0.2712  0.4190  0.3737
   18CHTO   O72 7491   5.194   8.660   1.814 -0.5423 -0.4125 -0.0425
   18CHTO  H199 7492   5.244   8.683   1.739 -1.3498  0.3311 -0.3651
   18CHTO   O22 7493   4.882   8.704   2.231 -0.6880 -0.6403  0.0234
   18CHTO   C31 7494   4.770   8.685   2.131  0.5564 -0.0048 -0.3451
   18CHTO   H59 7495   4.678   8.720   2.181  1.1887 -0.4774  1.1888
   18CHTO   C29 7496   4.786   8.771   2.000  0.5162 -0.2651  0.6919
   18CHTO   H57 7497   4.886   8.748   1.959  0.4401 -0.5206  0.6460
   18CHTO   O21 7498   4.786   8.912   2.035 -0.1176 -0.2481  0.1369
   18CHTO   H37 7499   4.842   8.959   1.977  0.1233  0.2905  0.7985
   18CHTO   C27 7500   4.671   8.739   1.893 -0.6569  0.0168  0.2691
   18CHTO   H55 7501   4.575   8.774   1.935  0.0985  1.1521  1.0960
   18CHTO    N5 7502   4.686   8.808   1.759  0.2222 -0.1488  0.0531
   18CHTO   H43 7503   4.745   8.898   1.763  0.7535 -0.4051 -1.5833
   18CHTO   H44 7504   4.585   8.835   1.733  0.7595  1.1551 -0.7174
   18CHTO   C25 7505   4.655   8.588   1.876 -0.3290 -0.3071  0.0797
   18CHTO   H53 7506   4.746   8.558   1.824  0.1420  1.3666 -0.0928
   18CHTO   O17 7507   4.643   8.512   2.007 -0.2030 -0.5476  0.1602
   18CHTO   C32 7508   4.738   8.528   2.105 -0.0291  0.4460  0.2162
   18CHTO   H60 7509   4.828   8.477   2.070 -0.4805 -0.8674  0.9249
   18CHTO   C36 7510   4.683   8.446   2.229  0.3012  0.5225 -0.2528
   18CHTO   O25 7511   4.583   8.502   2.312 -0.1853 -0.0617  0.2579
   18CHTO   H40 7512   4.628   8.530   2.390 -0.9670  0.0209  0.6821
   18CHTO   O15 7513   4.514   8.550   1.802  0.7140  0.0800  0.2714
   18CHTO   C19 7514   4.479   8.447   1.715 -0.6312  0.0263  0.4103
   18CHTO   H47 7515   4.371   8.451   1.737 -1.6074  1.2935 -4.0058
   18CHTO   C20 7516   4.514   8.475   1.570 -0.6938 -0.9202 -0.3931
   18CHTO   H48 7517   4.623   8.475   1.555 -0.3038 -0.8512  2.2500
   18CHTO   O19 7518   4.455   8.607   1.542 -0.3798 -0.9428 -0.1238
   18CHTO   H35 7519   4.450   8.614   1.448  0.7434 -0.7039 -0.1647
   18CHTO   C21 7520   4.454   8.367   1.479  0.5389 -0.2121 -0.5772
   18CHTO   H49 7521   4.346   8.360   1.497  0.7025 -0.9615  0.1767
   18CHTO    N4 7522   4.465   8.387   1.333  0.1054  0.4514  0.2560
   18CHTO   H41 7523   4.513   8.307   1.278  1.9735  0.2289  2.1199
   18CHTO   H42 7524   4.371   8.402   1.283  1.9290 -0.9820 -3.8179
   18CHTO   C22 7525   4.509   8.230   1.521 -0.1324  0.2506  0.4155
   18CHTO   H50 7526   4.616   8.241   1.511 -0.2036 -0.6072 -1.4011
   18CHTO   O14 7527   4.474   8.215   1.661 -0.1919 -0.0220  0.0464
   18CHTO   C23 7528   4.528   8.306   1.758  0.3134  0.2143  0.7712
   18CHTO   H51 7529   4.638   8.299   1.759  0.2921 -0.5954 -1.0372
   18CHTO   C34 7530   4.477   8.264   1.892 -0.6705  0.0877 -0.0284
   18CHTO   O23 7531   4.549   8.146   1.929 -0.3994 -0.1515 -0.2951
   18CHTO   H38 7532   4.527   8.109   2.012 -3.3738  0.5723 -0.6939
   18CHTO   O16 7533   4.451   8.106   1.471 -0.1610 -0.0645  0.0816
   18CHTO   C24 7534   4.559   8.021   1.395 -0.1187 -0.2937  0.4500
   18CHTO   H52 7535   4.653   8.076   1.385 -0.4623  0.8843  3.2722
   18CHTO   C26 7536   4.515   7.975   1.250  0.4392  0.2113 -0.2201
   18CHTO   H54 7537   4.420   7.918   1.257 -0.7390  2.0656 -0.8378
   18CHTO   O20 7538   4.485   8.093   1.176 -0.4278 -0.0961 -0.0330
   18CHTO   H36 7539   4.564   8.142   1.163 -0.4983 -0.1325 -0.6033
   18CHTO   C30 7540   4.624   7.880   1.190 -0.0756 -0.1491  0.2307
   18CHTO   H58 7541   4.713   7.943   1.177 -0.8632  0.8423 -0.4102
   18CHTO    N6 7542   4.578   7.835   1.054  0.1165  0.7273 -0.3333
   18CHTO   H45 7543   4.511   7.904   1.004 -0.2956 -0.1311 -0.9691
   18CHTO   H46 7544   4.663   7.808   0.994 -0.6520  0.3037 -1.2508
   18CHTO   C33 7545   4.664   7.762   1.280  0.8616  0.5810  0.0331
   18CHTO   H61 7546   4.586   7.685   1.286  1.2965  0.2516  1.8459
   18CHTO   O18 7547   4.693   7.810   1.413 -0.3904  0.0992 -0.2918
   18CHTO   C28 7548   4.588   7.888   1.473  0.3604 -0.7609  0.0652
   18CHTO   H56 7549   4.491   7.839   1.473 -0.6882  1.2332 -0.5374
   18CHTO   C35 7550   4.622   7.921   1.616 -0.2342  0.1639 -0.0571
   18CHTO   O24 7551   4.745   7.991   1.629  0.1048  0.2191  0.1741
   18CHTO   H39 7552   4.756   8.021   1.717 -1.0362 -1.3818  0.8962
   18CHTO    O9 7553   4.778   7.697   1.220 -0.6006  0.3938 -0.0364
   18CHTO   C13 7554   4.928   7.704   1.296 -0.9218  0.6023  0.5564
   18CHTO   H26 7555   4.926   7.643   1.388  1.9059 -0.3903  0.0129
   18CHTO   C11 7556   4.980   7.854   1.326  0.2512  0.1361  0.3216
   18CHTO   H24 7557   4.919   7.908   1.399  1.0626  0.4754  0.7543
   18CHTO    O8 7558   4.988   7.939   1.207  0.9720 -0.1270 -0.6646
   18CHTO    H3 7559   4.969   8.031   1.210  2.9967  0.2976  0.6066
   18CHTO    C9 7560   5.119   7.836   1.389  0.1237  0.1019 -0.4442
   18CHTO   H22 7561   5.100   7.767   1.472  0.5745 -0.1527 -0.5538
   18CHTO    N2 7562   5.158   7.961   1.458 -0.0445  0.7439 -1.0737
   18CHTO   H10 7563   5.222   7.946   1.543  0.1934 -0.2728 -1.4341
   18CHTO   H11 7564   5.193   8.028   1.381  0.1771  0.3080 -1.3505
   18CHTO    C7 7565   5.219   7.770   1.288 -0.5206  0.3242  0.1310
   18CHTO   H20 7566   5.306   7.748   1.353 -1.9216 -3.3279  0.8762
   18CHTO    O4 7567   5.168   7.648   1.225  0.5593  0.5859 -0.0322
   18CHTO   C14 7568   5.028   7.631   1.191 -0.0733 -0.4288 -0.0790
   18CHTO   H27 7569   5.012   7.524   1.218 -0.5908 -0.8921 -2.1049
   18CHTO   C18 7570   4.991   7.647   1.041 -0.1161  0.2286 -0.3484
   18CHTO   O13 7571   5.057   7.564   0.942  0.8703 -0.0240  0.3835
   18CHTO    H7 7572   5.077   7.622   0.871  1.2939  1.0902  1.3965
   18CHTO    O2 7573   5.273   7.889   1.166 -0.1834 -0.4328  0.6003
   18CHTO    C1 7574   5.392   7.862   1.088 -0.4751  0.3390 -0.1116
   18CHTO   H14 7575   5.383   7.899   0.984 -1.1765 -1.0705 -0.5649
   18CHTO    C2 7576   5.439   7.712   1.070  0.8005  0.2113  0.1897
   18CHTO   H15 7577   5.441   7.665   1.169  0.6599 -0.2341 -0.0155
   18CHTO    O6 7578   5.331   7.654   0.994  0.2705  0.3959 -0.0097
   18CHTO    H1 7579   5.297   7.573   1.025  0.7596 -2.0709 -5.3266
   18CHTO    C3 7580   5.580   7.709   1.002 -0.2828  0.5180 -0.5346
   18CHTO   H16 7581   5.569   7.745   0.899  1.4169 -1.1005 -1.2979
   18CHTO    N1 7582   5.620   7.563   0.995  0.2694  0.1906 -0.1045
   18CHTO    H8 7583   5.719   7.553   0.955 -0.5280  2.2088 -2.6997
   18CHTO    H9 7584   5.551   7.506   0.934  0.5881 -1.4364  1.0105
   18CHTO    C4 7585   5.680   7.800   1.084 -0.7119 -0.3171  0.1093
   18CHTO   H17 7586   5.685   7.759   1.185  0.6357  0.3670  0.3326
   18CHTO    O1 7587   5.639   7.937   1.086  0.4302 -0.9478  0.2083
   18CHTO    C5 7588   5.511   7.950   1.152  0.2532 -0.4674  0.1327
   18CHTO   H18 7589   5.534   7.914   1.253 -0.2852 -2.8435 -0.5603
   18CHTO   C16 7590   5.479   8.096   1.159 -0.4473 -0.2171 -0.6598
   18CHTO   O11 7591   5.376   8.135   1.252  0.7727 -0.3755 -0.2991
   18CHTO    H5 7592   5.387   8.097   1.337 -0.3699 -0.6515 -0.2650
   18CHTO    O3 7593   5.811   7.801   1.017 -0.5118 -0.6183 -0.5401
   18CHTO    C6 7594   5.934   7.797   1.108 -0.2057  0.6872  0.0542
   18CHTO   H19 7595   5.911   7.856   1.197  1.9812  2.6719 -0.6454
   18CHTO    C8 7596   5.968   7.643   1.133  0.3041 -0.8298 -0.3088
   18CHTO   H21 7597   5.955   7.593   1.037 -0.9853  2.4890 -1.9518
   18CHTO    O7 7598   5.859   7.588   1.215 -0.6180 -0.2191 -0.4261
   18CHTO    H2 7599   5.874   7.496   1.227 -0.3633 -0.3108 -1.3627
   18CHTO   C12 7600   6.105   7.628   1.204 -0.2225 -0.9020  0.4521
   18CHTO   H25 7601   6.098   7.663   1.310  0.8837  0.2948  0.1455
   18CHTO    N3 7602   6.153   7.489   1.226 -0.0411 -0.1616  0.2234
   18CHTO   H12 7603   6.105   7.439   1.308 -1.6502 -0.4298 -0.8580
   18CHTO   H13 7604   6.261   7.478   1.220 -0.1475 -1.4793  0.6918
   18CHTO   C15 7605   6.220   7.716   1.130 -0.4257 -0.4687  0.0363
   18CHTO   H28 7606   6.244   7.679   1.030  1.2112  1.5797 -0.3792
   18CHTO   O10 7607   6.348   7.721   1.202  0.1628  0.4022  0.0312
   18CHTO    H4 7608   6.336   7.775   1.277 -1.6494  0.8133 -0.5316
   18CHTO    O5 7609   6.182   7.850   1.107  0.2919  0.4176 -0.2377
   18CHTO   C10 7610   6.055   7.864   1.033 -0.3199 -0.4846 -0.8178
   18CHTO   H23 7611   6.064   7.804   0.943  0.4081 -0.8049 -0.5329
   18CHTO   C17 7612   6.031   8.011   0.990 -0.5871  0.0122  0.2564
   18CHTO   O12 7613   6.139   8.056   0.900 -0.5204 -0.2402  0.3383
   18CHTO    H6 7614   6.151   8.142   0.935 -1.8609  0.4418 -0.7954
   19CHTO  H203 7615   5.055   9.673   0.199  0.3617 -0.3030 -1.1665
   19CHTO   O82 7616   5.056   9.592   0.246 -0.4295 -0.0646 -0.7330
   19CHTO  C123 7617   5.082   9.478   0.163 -0.0069 -0.1111 -0.4208
   19CHTO  H227 7618   5.023   9.487   0.071 -0.3024 -0.5136 -0.2725
   19CHTO   O77 7619   5.230   9.476   0.146 -0.5463 -0.1523  0.7447
   19CHTO  C118 7620   5.282   9.384   0.050  1.8813  0.0495 -0.0254
   19CHTO  H222 7621   5.218   9.390  -0.040  1.2670 -1.7153  0.2742
   19CHTO  C125 7622   5.425   9.426   0.007 -0.2563  0.8363 -0.2230
   19CHTO   O84 7623   5.525   9.439   0.109  0.0251 -0.2789 -0.0217
   19CHTO  H205 7624   5.514   9.362   0.162 -3.0464  0.8079  1.0580
   19CHTO  C114 7625   5.261   9.244   0.124 -0.1536  0.1035  0.0623
   19CHTO  H218 7626   5.311   9.247   0.221 -0.8270 -0.6045  0.4399
   19CHTO  C116 7627   5.111   9.231   0.141  0.6492 -0.1855 -0.1013
   19CHTO  H220 7628   5.073   9.230   0.036 -1.0765 -2.2206  0.4893
   19CHTO   O79 7629   5.097   9.095   0.197 -0.0467 -0.0440 -0.0850
   19CHTO  H201 7630   5.013   9.067   0.228 -0.7201  1.6011 -0.3554
   19CHTO  C120 7631   5.042   9.341   0.229  0.1519  0.8664 -0.3064
   19CHTO  H224 7632   5.088   9.334   0.330  2.5080 -1.2378 -1.4697
   19CHTO   N21 7633   4.896   9.310   0.240 -0.2369 -0.2178  0.5999
   19CHTO  H211 7634   4.838   9.399   0.260  4.1263  2.7597  0.5555
   19CHTO  H212 7635   4.895   9.235   0.318 -1.0751 -3.8017 -2.6765
   19CHTO   O75 7636   5.321   9.147   0.031 -0.2770 -0.4248 -0.0817
   19CHTO  C112 7637   5.357   9.001   0.079 -0.0486  0.2383 -0.0854
   19CHTO  H216 7638   5.312   8.981   0.177  0.7741 -0.4605  0.1450
   19CHTO   O73 7639   5.500   8.991   0.090 -0.2301 -0.2745 -0.1066
   19CHTO  C113 7640   5.548   8.859   0.121 -0.4587  0.2699 -0.1497
   19CHTO  H217 7641   5.498   8.823   0.214 -0.4328  0.7181  0.0393
   19CHTO  C124 7642   5.706   8.856   0.144 -0.2019 -0.6760 -0.6981
   19CHTO   O83 7643   5.758   8.958   0.229 -0.0384 -0.5330 -0.4703
   19CHTO  H204 7644   5.839   8.996   0.201 -0.3694  0.3789 -0.2001
   19CHTO  C109 7645   5.503   8.751   0.022 -0.1934  1.0254  0.8319
   19CHTO  H213 7646   5.548   8.777  -0.075 -3.3073 -1.6145 -1.4389
   19CHTO  C110 7647   5.347   8.748   0.004  0.3223 -0.5206 -0.2844
   19CHTO  H214 7648   5.294   8.693   0.081  2.8786 -1.5886  0.7810
   19CHTO   O78 7649   5.320   8.667  -0.115  0.5888  0.1772  0.2716
   19CHTO  H200 7650   5.305   8.730  -0.183 -0.5320  0.6818  0.9567
   19CHTO  C111 7651   5.297   8.895  -0.026 -0.6821  0.2750 -0.4681
   19CHTO  H215 7652   5.331   8.923  -0.127 -0.1138 -1.4199 -0.7544
   19CHTO   N19 7653   5.149   8.902  -0.029 -0.0861 -0.1367  0.2705
   19CHTO  H207 7654   5.112   8.999  -0.003  2.0401  0.5014  1.0046
   19CHTO  H208 7655   5.092   8.816   0.004 -1.6966  0.6852 -0.3522
   19CHTO   O74 7656   5.549   8.616   0.056  0.4950 -0.1240 -0.8534
   19CHTO  C115 7657   5.577   8.513  -0.059 -0.2567 -0.3576  0.4245
   19CHTO  H219 7658   5.510   8.531  -0.143 -0.0697 -0.6700  0.2047
   19CHTO   O76 7659   5.708   8.535  -0.119 -0.3271  0.2866  0.4392
   19CHTO  C122 7660   5.741   8.449  -0.231  0.6489  0.4063 -0.4913
   19CHTO  H226 7661   5.845   8.460  -0.259  1.5479  0.8865  2.8003
   19CHTO  C126 7662   5.653   8.471  -0.372 -0.0781 -0.4242  0.4241
   19CHTO   O85 7663   5.646   8.603  -0.432 -0.3453  0.5049 -0.1567
   19CHTO  H206 7664   5.732   8.629  -0.461 -0.6020  0.9527 -0.5163
   19CHTO  C121 7665   5.741   8.300  -0.190  0.0451  0.2017  0.0178
   19CHTO  H225 7666   5.756   8.236  -0.279  1.9965  0.9398 -0.2100
   19CHTO   O81 7667   5.840   8.271  -0.093  0.4116  0.3343  0.1135
   19CHTO  H202 7668   5.921   8.294  -0.133 -1.5579  3.3183 -2.3365
   19CHTO  C119 7669   5.614   8.262  -0.115  0.1029 -0.1738  0.2329
   19CHTO  H223 7670   5.531   8.265  -0.185 -0.2563 -1.4238  0.5886
   19CHTO  C117 7671   5.576   8.369  -0.005 -0.2817  0.4583  0.6525
   19CHTO  H221 7672   5.636   8.377   0.085 -0.5770  0.0867  0.8848
   19CHTO   N20 7673   5.447   8.327   0.046  0.7754  0.5317  0.3283
   19CHTO  H209 7674   5.360   8.379   0.007 -0.1557  0.5325  2.3052
   19CHTO  H210 7675   5.456   8.354   0.151 -0.1384 -1.0596  0.8305
   19CHTO   O80 7676   5.617   8.098  -0.079  0.1697  0.0323 -0.0805
   19CHTO  C103 7677   5.593   7.996  -0.202 -0.2154  0.3208  0.0185
   19CHTO  H190 7678   5.580   8.058  -0.291 -2.0735 -0.4708 -0.2694
   19CHTO  C101 7679   5.699   7.876  -0.219 -0.0166 -0.6381 -0.3014
   19CHTO  H188 7680   5.718   7.833  -0.121 -1.2057 -1.1387 -0.2799
   19CHTO   O68 7681   5.856   7.941  -0.260  0.3965 -0.4297  0.1640
   19CHTO  H168 7682   5.891   7.891  -0.332  0.9202 -1.4036  1.0784
   19CHTO   C99 7683   5.654   7.761  -0.319 -0.0574 -0.2969 -0.3385
   19CHTO  H186 7684   5.655   7.808  -0.419 -0.0086  1.5786  0.5202
   19CHTO   N17 7685   5.740   7.636  -0.317 -0.2166  0.6704 -0.0649
   19CHTO  H174 7686   5.844   7.660  -0.334  0.0358 -0.0757  0.3940
   19CHTO  H175 7687   5.697   7.570  -0.390  1.1294  0.5891 -0.7905
   19CHTO   C97 7688   5.504   7.727  -0.294  0.1507  0.4973 -0.1732
   19CHTO  H184 7689   5.502   7.671  -0.200 -0.5146 -0.1597 -0.5670
   19CHTO   O64 7690   5.423   7.846  -0.289 -0.3493  0.2633  0.5320
   19CHTO  C104 7691   5.454   7.933  -0.178  0.5392  0.6200 -0.4665
   19CHTO  H191 7692   5.457   7.881  -0.082 -1.3372  0.2075 -0.6177
   19CHTO  C108 7693   5.344   8.035  -0.171 -0.6390 -0.7982  0.3035
   19CHTO   O71 7694   5.216   7.981  -0.175 -0.1509  0.1519  0.3443
   19CHTO  H171 7695   5.158   8.054  -0.169  1.3182  1.2626  1.6256
   19CHTO   O62 7696   5.445   7.643  -0.392 -0.5824 -0.4294  0.0887
   19CHTO   C91 7697   5.330   7.571  -0.353  1.3011 -0.7799 -0.4982
   19CHTO  H178 7698   5.304   7.603  -0.252 -0.4398  0.0569 -1.1940
   19CHTO   C92 7699   5.362   7.413  -0.346  0.0512 -0.1486  0.3700
   19CHTO  H179 7700   5.381   7.383  -0.450  0.0373  2.0094 -0.2871
   19CHTO   O66 7701   5.479   7.386  -0.270 -0.2470 -0.3601  0.3247
   19CHTO  H166 7702   5.477   7.302  -0.230 -1.8732 -0.8971 -0.8558
   19CHTO   C93 7703   5.241   7.333  -0.287  0.0160  0.8227  0.4048
   19CHTO  H180 7704   5.213   7.369  -0.186 -2.2528 -0.4430  0.2656
   19CHTO   N16 7705   5.266   7.191  -0.269 -0.2411  0.3559 -0.4245
   19CHTO  H172 7706   5.334   7.173  -0.187 -2.8053 -2.5949  1.1941
   19CHTO  H173 7707   5.172   7.139  -0.263  0.0949 -0.5169 -2.5773
   19CHTO   C94 7708   5.121   7.358  -0.385  0.1510  0.0246 -1.0012
   19CHTO  H181 7709   5.143   7.326  -0.487  1.2296  0.0696 -0.7876
   19CHTO   O61 7710   5.102   7.502  -0.395  0.3898  0.4299 -0.2061
   19CHTO   C95 7711   5.202   7.589  -0.444  0.4921 -0.0378  0.3210
   19CHTO  H182 7712   5.224   7.560  -0.547 -0.9472  1.1837 -0.3507
   19CHTO  C106 7713   5.154   7.734  -0.452 -0.2061  0.1786 -0.3011
   19CHTO   O69 7714   5.244   7.829  -0.507  0.1908 -0.5135 -0.0553
   19CHTO  H169 7715   5.268   7.799  -0.593 -2.3756  0.4298 -1.1393
   19CHTO   O63 7716   4.971   7.303  -0.324 -0.0628  0.3387 -0.6576
   19CHTO   C96 7717   4.915   7.186  -0.400  0.4770  0.0072  0.0772
   19CHTO  H183 7718   4.998   7.118  -0.415 -1.9011 -3.0919  0.4490
   19CHTO   C98 7719   4.871   7.229  -0.544 -1.1691 -0.7625 -0.8960
   19CHTO  H185 7720   4.952   7.286  -0.591 -1.6235  1.6814  1.1793
   19CHTO   O67 7721   4.847   7.116  -0.631 -0.0391  0.1385 -0.3747
   19CHTO  H167 7722   4.930   7.076  -0.644  0.2817  0.8234 -0.4614
   19CHTO  C102 7723   4.733   7.316  -0.532 -0.9489 -0.7201  0.1978
   19CHTO  H189 7724   4.685   7.307  -0.631  0.5901  2.3174 -0.8634
   19CHTO   N18 7725   4.766   7.457  -0.517  0.1398 -0.8753 -0.1070
   19CHTO  H176 7726   4.738   7.510  -0.607  0.8139 -1.2752 -0.5674
   19CHTO  H177 7727   4.730   7.501  -0.426 -0.2871 -0.3269 -0.5374
   19CHTO  C105 7728   4.638   7.260  -0.425  0.0665 -0.3432 -0.2711
   19CHTO  H192 7729   4.641   7.328  -0.340  0.0416 -1.6413  0.7842
   19CHTO   O65 7730   4.667   7.127  -0.386  0.3880 -0.2704  0.9001
   19CHTO  C100 7731   4.798   7.106  -0.328  0.3360  0.5667  0.3791
   19CHTO  H187 7732   4.792   7.152  -0.228  1.0683  0.6480  0.3875
   19CHTO  C107 7733   4.817   6.950  -0.328  0.4136  0.6014  0.0348
   19CHTO   O70 7734   4.916   6.907  -0.237 -0.1892 -0.0855 -0.5764
   19CHTO  H170 7735   4.994   6.893  -0.287  0.2278  0.6961 -0.1436
   19CHTO   O57 7736   4.502   7.284  -0.479 -0.5474 -0.5026  0.2842
   19CHTO   C85 7737   4.389   7.221  -0.413  0.0627 -0.6487  0.4059
   19CHTO  H157 7738   4.429   7.136  -0.353  1.6049 -0.8692 -0.8925
   19CHTO   C83 7739   4.292   7.146  -0.514 -0.5557 -0.7416 -0.2681
   19CHTO  H155 7740   4.351   7.064  -0.555  1.3571  0.5778 -0.2496
   19CHTO   O56 7741   4.269   7.235  -0.627  0.1644  0.5352 -0.2980
   19CHTO  H135 7742   4.222   7.314  -0.607  2.8995  2.4997 -1.2890
   19CHTO   C81 7743   4.167   7.096  -0.439 -0.1158  0.1971 -0.0216
   19CHTO  H153 7744   4.189   7.022  -0.362  0.6400 -1.7315 -2.0442
   19CHTO   N14 7745   4.078   7.021  -0.531  0.3427  0.5559  0.6168
   19CHTO  H141 7746   4.030   7.070  -0.614  2.1532 -0.0451 -0.8116
   19CHTO  H142 7747   4.121   6.930  -0.569 -0.3974  1.3360 -2.2610
   19CHTO   C79 7748   4.091   7.215  -0.371  0.5074 -0.4467 -1.1020
   19CHTO  H151 7749   3.996   7.181  -0.329  0.9581 -1.5983 -0.9851
   19CHTO   O52 7750   4.174   7.274  -0.274 -0.6124  0.0101  0.1398
   19CHTO   C86 7751   4.306   7.322  -0.328  0.8956 -0.2983 -0.6545
   19CHTO  H158 7752   4.285   7.413  -0.387  0.4925  0.5524  0.7715
   19CHTO   C90 7753   4.384   7.378  -0.209 -0.2979 -0.0184 -0.1896
   19CHTO   O60 7754   4.330   7.502  -0.161 -0.4060  0.6383 -0.0520
   19CHTO  H138 7755   4.263   7.478  -0.100 -0.3388  0.8004  0.0872
   19CHTO   O50 7756   4.059   7.328  -0.457 -0.0858  0.0492 -0.3451
   19CHTO   C73 7757   3.946   7.411  -0.489  0.2752  0.0572  0.6581
   19CHTO  H145 7758   3.858   7.377  -0.431 -1.0880  0.1314 -1.3078
   19CHTO   C74 7759   3.917   7.411  -0.643  0.5775 -0.1633  0.5891
   19CHTO  H146 7760   3.905   7.308  -0.678  0.8407 -0.3129  0.9283
   19CHTO   O54 7761   3.790   7.486  -0.663  0.4190 -0.1703 -0.1392
   19CHTO  H133 7762   3.778   7.503  -0.754 -1.5083 -1.4861 -0.1451
   19CHTO   C75 7763   4.045   7.485  -0.716  0.5290 -0.0594 -0.1066
   19CHTO  H147 7764   4.135   7.423  -0.705  0.5521 -0.1550 -0.8329
   19CHTO   N13 7765   4.021   7.502  -0.864 -1.2248  0.1700 -0.2966
   19CHTO  H139 7766   4.040   7.605  -0.892 -0.8693  0.5210  1.2172
   19CHTO  H140 7767   4.082   7.440  -0.928 -0.8223  0.6561 -0.3859
   19CHTO   C76 7768   4.078   7.629  -0.643 -0.5001 -0.1444  0.6072
   19CHTO  H148 7769   3.983   7.681  -0.649 -1.7762 -2.3155  1.3128
   19CHTO   O49 7770   4.097   7.596  -0.502 -0.7357  0.2868  0.6766
   19CHTO   C77 7771   3.978   7.553  -0.439  0.4651  0.5985  0.8222
   19CHTO  H149 7772   3.888   7.614  -0.443 -0.0780 -0.2304  0.1452
   19CHTO   C88 7773   4.015   7.565  -0.285 -0.1211  0.2559 -0.0100
   19CHTO   O58 7774   4.047   7.710  -0.244  0.4260 -0.3164 -0.4277
   19CHTO  H136 7775   4.060   7.713  -0.151  1.9425 -0.8919 -0.5987
   19CHTO   O51 7776   4.188   7.707  -0.695 -0.2805  0.0592 -0.2346
   19CHTO   C78 7777   4.196   7.860  -0.620 -0.1923 -0.2902 -0.0115
   19CHTO  H150 7778   4.128   7.871  -0.532 -0.6052  1.4470 -0.5337
   19CHTO   C80 7779   4.173   7.979  -0.714  0.7404  0.1628 -0.8698
   19CHTO  H152 7780   4.240   7.970  -0.803 -0.2828  0.2971 -1.6704
   19CHTO   O55 7781   4.036   7.978  -0.761 -0.0313  0.5844  0.3253
   19CHTO  H134 7782   4.028   8.027  -0.841  1.9719 -0.8448 -0.7878
   19CHTO   C84 7783   4.211   8.122  -0.644 -0.0954 -0.0672 -0.3442
   19CHTO  H156 7784   4.135   8.140  -0.568 -0.7926 -0.5962 -0.9153
   19CHTO   N15 7785   4.205   8.235  -0.737 -0.0905  0.4232  0.3466
   19CHTO  H143 7786   4.128   8.305  -0.713  0.1702  1.1378 -0.8442
   19CHTO  H144 7787   4.201   8.204  -0.839  0.0221 -0.9014  0.7393
   19CHTO   C87 7788   4.356   8.120  -0.581  0.4715 -0.5745  0.1688
   19CHTO  H159 7789   4.433   8.111  -0.658 -0.4075  2.3131 -1.1151
   19CHTO   O53 7790   4.364   8.007  -0.512 -0.5184 -0.2192  0.6355
   19CHTO   C82 7791   4.341   7.877  -0.570  0.7573 -0.1840 -0.7848
   19CHTO  H154 7792   4.406   7.851  -0.653  1.4584 -0.2197 -0.2322
   19CHTO   C89 7793   4.362   7.779  -0.464 -0.2905  0.7539  0.1504
   19CHTO   O59 7794   4.499   7.754  -0.431 -0.0738  0.2195 -0.0202
   19CHTO  H137 7795   4.552   7.764  -0.508  0.0643 -0.8808 -0.0677
   19CHTO   O45 7796   4.390   8.256  -0.484  0.3192  0.7787  0.5727
   19CHTO   C67 7797   4.303   8.268  -0.371 -0.2171  0.1532  0.8498
   19CHTO  H124 7798   4.202   8.243  -0.403  0.7510 -0.9069 -1.4778
   19CHTO   C65 7799   4.351   8.180  -0.253  0.3054  0.3086 -0.0647
   19CHTO  H122 7800   4.451   8.142  -0.276 -0.3339 -0.2575 -2.0291
   19CHTO   O44 7801   4.260   8.070  -0.245 -0.1208  0.3916 -0.1200
   19CHTO  H102 7802   4.177   8.107  -0.222  0.6136  1.4747  0.7707
   19CHTO   C63 7803   4.378   8.257  -0.115  0.1786 -0.0595 -0.1578
   19CHTO  H120 7804   4.463   8.323  -0.130  0.8135 -1.2416 -1.8838
   19CHTO   N11 7805   4.423   8.172   0.003  0.2859  0.2419 -0.3408
   19CHTO  H108 7806   4.426   8.234   0.091  1.5686  0.0361 -0.2295
   19CHTO  H109 7807   4.512   8.114  -0.007  0.8278  1.4067 -2.4558
   19CHTO   C61 7808   4.252   8.347  -0.081 -0.1794  0.0093  0.9345
   19CHTO  H118 7809   4.298   8.416  -0.008  0.2059  1.3963 -0.5819
   19CHTO   O40 7810   4.213   8.422  -0.197  0.2251 -0.0702 -0.6769
   19CHTO   C68 7811   4.291   8.419  -0.316  0.0322 -0.7091 -0.3752
   19CHTO  H125 7812   4.396   8.450  -0.299  0.0897 -1.7731  1.4440
   19CHTO   C72 7813   4.227   8.519  -0.408  0.0122  0.4094 -0.2550
   19CHTO   O48 7814   4.242   8.657  -0.360  0.1953  0.3582 -0.3876
   19CHTO  H105 7815   4.190   8.667  -0.282  2.5631 -0.7844  1.3910
   19CHTO   O38 7816   4.135   8.282  -0.041  0.0975 -0.5886 -0.4184
   19CHTO   C55 7817   4.045   8.351   0.043 -0.2672 -0.0406  0.1981
   19CHTO  H112 7818   4.054   8.461   0.046 -0.7265  0.0492 -1.3100
   19CHTO   C56 7819   4.046   8.297   0.185 -0.7032 -0.8545  0.4562
   19CHTO  H113 7820   4.034   8.188   0.187  0.9015 -1.0979 -1.1695
   19CHTO   O42 7821   4.178   8.330   0.236  0.7324  0.3962  0.4964
   19CHTO  H100 7822   4.201   8.304   0.323  1.6738  1.6592  0.6234
   19CHTO   C57 7823   3.927   8.372   0.274  1.1829 -0.5612  0.7518
   19CHTO  H114 7824   3.950   8.479   0.272  0.0412 -0.3286 -1.4295
   19CHTO   N10 7825   3.917   8.318   0.413 -0.2178 -0.3633  0.0553
   19CHTO  H106 7826   4.013   8.343   0.455  0.6069 -2.3657 -0.6355
   19CHTO  H107 7827   3.909   8.211   0.404 -0.1113 -0.2235 -1.7633
   19CHTO   C58 7828   3.792   8.348   0.198 -0.0598  0.1368 -0.4330
   19CHTO  H115 7829   3.769   8.240   0.194  0.9937 -0.0382 -2.2092
   19CHTO   O37 7830   3.803   8.400   0.060 -0.1932  0.4279  0.1402
   19CHTO   C59 7831   3.899   8.333  -0.021  0.3898  0.5399  0.5587
   19CHTO  H116 7832   3.867   8.229  -0.012 -3.1996  1.3594 -1.7454
   19CHTO   C70 7833   3.878   8.376  -0.162  0.1739  0.3788  0.0006
   19CHTO   O46 7834   3.869   8.517  -0.187 -0.5379 -0.4089  0.2183
   19CHTO  H103 7835   3.875   8.532  -0.279  0.1843 -1.0107  0.1590
   19CHTO   O39 7836   3.653   8.434   0.274 -0.1713  0.9415 -0.4628
   19CHTO   C60 7837   3.539   8.451   0.185 -0.0825  0.5040 -0.1319
   19CHTO  H117 7838   3.578   8.422   0.087  0.4780 -1.4782  0.6472
   19CHTO   C62 7839   3.413   8.375   0.228  0.0355  0.0652 -0.7227
   19CHTO  H119 7840   3.443   8.269   0.246 -1.7045  0.1051  2.8215
   19CHTO   O43 7841   3.359   8.425   0.350  0.6323  0.3441 -0.2630
   19CHTO  H101 7842   3.313   8.353   0.390 -2.3666  2.3016 -0.0101
   19CHTO   C66 7843   3.306   8.378   0.100 -0.3316 -0.1342 -0.1101
   19CHTO  H123 7844   3.360   8.350   0.010  1.7839 -1.5020  1.5195
   19CHTO   N12 7845   3.193   8.289   0.119  0.1017 -0.3866 -0.1261
   19CHTO  H110 7846   3.221   8.185   0.130  1.3482 -0.2693 -2.0188
   19CHTO  H111 7847   3.129   8.318   0.201 -1.1156  0.1066 -1.2373
   19CHTO   C69 7848   3.261   8.523   0.066  0.7141 -0.7833  0.0047
   19CHTO  H126 7849   3.181   8.560   0.133 -0.4612 -1.0861 -1.1968
   19CHTO   O41 7850   3.371   8.627   0.069  0.0585 -0.3154  0.2988
   19CHTO   C64 7851   3.503   8.608   0.170 -0.2200  0.1707  0.2611
   19CHTO  H121 7852   3.482   8.645   0.272 -0.3926  0.4419  0.1270
   19CHTO   C71 7853   3.618   8.698   0.112 -0.2237  0.2746  0.7270
   19CHTO   O47 7854   3.602   8.828   0.153 -0.2641  0.3602 -0.0647
   19CHTO  H104 7855   3.539   8.875   0.102  1.7010  4.3370  0.9482
   19CHTO   O34 7856   3.210   8.522  -0.086  0.7057 -0.0859 -0.2693
   19CHTO   C49 7857   3.268   8.529  -0.246 -0.0898 -0.2766  0.0298
   19CHTO   H91 7858   3.248   8.628  -0.286  0.7525 -0.4023 -0.6972
   19CHTO   C47 7859   3.201   8.420  -0.333  0.0058  0.4815 -0.3139
   19CHTO   H89 7860   3.232   8.440  -0.437  0.2454 -0.4007 -0.4132
   19CHTO   O33 7861   3.059   8.435  -0.320 -0.2901 -0.0438  0.3988
   19CHTO   H70 7862   3.032   8.511  -0.368 -0.9149 -0.8658 -0.5847
   19CHTO   C45 7863   3.238   8.268  -0.279 -0.3749 -0.0480  0.6096
   19CHTO   H87 7864   3.210   8.271  -0.172 -1.8399 -0.8262  0.2562
   19CHTO    N8 7865   3.171   8.154  -0.337 -0.3008  0.4101 -0.6345
   19CHTO   H75 7866   3.211   8.113  -0.429  0.6005  0.0547 -0.1014
   19CHTO   H76 7867   3.149   8.074  -0.267 -0.1187 -0.3773 -1.4570
   19CHTO   C43 7868   3.401   8.261  -0.294  1.1002 -0.4850 -0.2239
   19CHTO   H85 7869   3.420   8.163  -0.249 -1.7651 -1.5270 -1.1315
   19CHTO   O29 7870   3.465   8.364  -0.222 -0.4555  0.5971 -0.2409
   19CHTO   C50 7871   3.426   8.511  -0.249  0.0380 -0.1363 -0.1220
   19CHTO   H92 7872   3.462   8.575  -0.167 -0.2584 -1.0133  0.7029
   19CHTO   C54 7873   3.492   8.563  -0.377  0.0085  0.6636  0.3553
   19CHTO   O36 7874   3.629   8.536  -0.380 -0.3304  0.1456 -0.2734
   19CHTO   H72 7875   3.680   8.602  -0.336 -1.5122  0.6261  0.3992
   19CHTO   O27 7876   3.444   8.267  -0.432  0.1493  0.4759  0.2441
   19CHTO   C37 7877   3.475   8.237  -0.571  0.5294 -0.0880  0.1697
   19CHTO   H79 7878   3.424   8.142  -0.596 -0.1233  0.5376 -0.8744
   19CHTO   C38 7879   3.415   8.333  -0.672 -0.5532  0.6114 -0.1164
   19CHTO   H80 7880   3.446   8.436  -0.648 -0.6174  0.6687 -0.2802
   19CHTO   O31 7881   3.271   8.326  -0.664  0.0089  0.3485  0.1917
   19CHTO   H68 7882   3.231   8.257  -0.614  0.4028 -0.8148 -1.0841
   19CHTO   C39 7883   3.465   8.303  -0.822 -0.2437  0.4298 -0.3217
   19CHTO   H81 7884   3.412   8.213  -0.855  1.0670 -0.0040 -1.2942
   19CHTO    N7 7885   3.436   8.417  -0.914  0.1602 -0.5011  0.0675
   19CHTO   H73 7886   3.488   8.505  -0.879  0.4503 -0.2558 -0.9552
   19CHTO   H74 7887   3.457   8.395  -1.018  1.0580 -0.2473  0.1927
   19CHTO   C40 7888   3.615   8.260  -0.824 -0.2512 -0.1876  0.5594
   19CHTO   H82 7889   3.682   8.346  -0.827 -0.8982  0.2805 -3.0846
   19CHTO   O26 7890   3.646   8.166  -0.715  0.0813 -0.2133 -0.1566
   19CHTO   C41 7891   3.629   8.227  -0.590  0.6008 -0.1621 -0.2620
   19CHTO   H83 7892   3.681   8.323  -0.577  0.1271  0.0835 -0.2053
   19CHTO   C52 7893   3.687   8.134  -0.489 -0.2084 -0.8126 -0.2686
   19CHTO   O35 7894   3.828   8.114  -0.517 -0.3787  0.0491 -0.0267
   19CHTO   H71 7895   3.836   8.029  -0.553 -0.0955  0.6344 -1.3625
   19CHTO   O28 7896   3.650   8.201  -0.945  0.4080 -0.2894 -0.2710
   19CHTO   C42 7897   3.785   8.160  -0.990  0.0675  0.3087  0.0520
   19CHTO   H84 7898   3.833   8.143  -0.894  0.6756 -0.0339 -0.3162
   19CHTO   C44 7899   3.862   8.278  -1.061  0.1183  0.4029  0.2823
   19CHTO   H86 7900   3.811   8.309  -1.152 -1.1088  1.3150  1.2658
   19CHTO   O32 7901   3.865   8.398  -0.977  0.2648  0.0987  0.7205
   19CHTO   H69 7902   3.900   8.366  -0.896 -1.4163  0.3361  1.5624
   19CHTO   C48 7903   4.000   8.230  -1.120 -0.9141 -0.4492  0.4366
   19CHTO   H90 7904   4.064   8.220  -1.032 -0.4660 -0.6568  0.0947
   19CHTO    N9 7905   4.073   8.336  -1.201  0.3970  0.4014 -0.3499
   19CHTO   H77 7906   4.148   8.382  -1.139  0.5369 -1.7731  1.1335
   19CHTO   H78 7907   4.004   8.406  -1.246  2.2884  2.0059 -0.7951
   19CHTO   C51 7908   3.970   8.104  -1.204  0.0984 -0.4122  0.3271
   19CHTO   H93 7909   3.904   8.118  -1.290  0.4722 -0.2877  0.0581
   19CHTO   O30 7910   3.925   8.000  -1.118 -0.1024 -0.1818  0.2812
   19CHTO   C46 7911   3.782   8.025  -1.063  0.7158  0.1065 -0.2613
   19CHTO   H88 7912   3.709   8.017  -1.143  0.1391 -1.7749  0.4130
   19CHTO   C53 7913   3.741   7.910  -0.955 -0.2274 -0.6725  0.4698
   19CHTO   O72 7914   3.698   7.791  -1.028 -0.1915  0.2880 -0.0539
   19CHTO  H199 7915   3.772   7.735  -1.039 -1.6018 -1.9549  1.2488
   19CHTO   O22 7916   4.092   8.039  -1.246 -0.6430 -0.5309 -0.1684
   19CHTO   C31 7917   4.081   7.951  -1.364  0.1011  0.4824  0.0247
   19CHTO   H59 7918   3.973   7.934  -1.383  0.0844 -0.9924  1.3280
   19CHTO   C29 7919   4.133   8.019  -1.494 -0.7296 -1.2504 -0.2759
   19CHTO   H57 7920   4.242   8.025  -1.485 -0.6452 -0.9647 -1.4115
   19CHTO   O21 7921   4.085   8.155  -1.502 -0.1897  0.2181 -0.2409
   19CHTO   H37 7922   4.008   8.158  -1.555  0.7047  0.8097 -1.5267
   19CHTO   C27 7923   4.097   7.924  -1.616  0.8841  0.1427  0.0946
   19CHTO   H55 7924   3.988   7.917  -1.626  0.7745  0.5976  0.9571
   19CHTO    N5 7925   4.150   7.976  -1.741 -0.4122  0.1261 -0.2282
   19CHTO   H43 7926   4.244   8.029  -1.733 -0.7086  0.3442  2.2347
   19CHTO   H44 7927   4.077   8.035  -1.793  0.7173  1.8623  0.1256
   19CHTO   C25 7928   4.152   7.776  -1.590 -0.2775 -0.4895  0.1922
   19CHTO   H53 7929   4.262   7.786  -1.583 -0.4357  1.0048  0.7034
   19CHTO   O17 7930   4.103   7.732  -1.463 -0.4702 -0.4441  0.0358
   19CHTO   C32 7931   4.145   7.809  -1.357  0.3313  0.1812  0.1708
   19CHTO   H60 7932   4.252   7.826  -1.363  0.3285  1.2035  2.6579
   19CHTO   C36 7933   4.111   7.727  -1.227 -0.5501  0.1324  0.0910
   19CHTO   O25 7934   3.966   7.705  -1.223 -0.1675  0.4730 -0.7111
   19CHTO   H40 7935   3.945   7.656  -1.146 -2.2147 -0.4945 -1.8595
   19CHTO   O15 7936   4.099   7.668  -1.716  0.0308  0.0926  0.6185
   19CHTO   C19 7937   4.153   7.544  -1.762 -1.7508  0.2285 -0.4003
   19CHTO   H47 7938   4.104   7.525  -1.859  2.4584  0.2362 -2.6373
   19CHTO   C20 7939   4.307   7.548  -1.789 -0.4846  0.0555 -0.6321
   19CHTO   H48 7940   4.367   7.559  -1.697 -2.6746 -1.3375  1.0161
   19CHTO   O19 7941   4.325   7.661  -1.881 -0.0780 -0.6305  0.4117
   19CHTO   H35 7942   4.414   7.690  -1.877 -0.0945 -0.5201  0.0239
   19CHTO   C21 7943   4.357   7.412  -1.852 -0.8140 -0.4703 -0.0989
   19CHTO   H49 7944   4.301   7.402  -1.945 -0.0556 -1.3839 -0.4648
   19CHTO    N4 7945   4.502   7.410  -1.887 -0.0163 -0.3954  0.3100
   19CHTO   H41 7946   4.568   7.358  -1.820 -0.1269 -1.3070 -0.2762
   19CHTO   H42 7947   4.513   7.368  -1.986 -2.2871 -0.1093 -0.1059
   19CHTO   C22 7948   4.312   7.293  -1.758 -0.4196 -0.4815  0.4017
   19CHTO   H50 7949   4.368   7.302  -1.665  0.0825  1.1909 -0.0429
   19CHTO   O14 7950   4.172   7.301  -1.735 -0.4505 -0.4418 -0.0277
   19CHTO   C23 7951   4.121   7.422  -1.672  0.0686 -0.3975  0.3191
   19CHTO   H51 7952   4.168   7.436  -1.573 -1.0678 -1.9666  1.1084
   19CHTO   C34 7953   3.971   7.398  -1.652  0.3086  0.1214 -1.1814
   19CHTO   O23 7954   3.926   7.498  -1.554 -0.3560 -0.3055  0.0321
   19CHTO   H38 7955   3.836   7.525  -1.566  0.0815  1.2006  0.0622
   19CHTO   O16 7956   4.329   7.173  -1.825 -0.1409 -0.0878  0.0550
   19CHTO   C24 7957   4.360   7.039  -1.718  0.0296 -0.7760  0.3608
   19CHTO   H52 7958   4.315   7.058  -1.621 -1.1939  0.3500 -0.3939
   19CHTO   C26 7959   4.507   7.008  -1.709  0.2517  0.9067  0.2999
   19CHTO   H54 7960   4.555   7.002  -1.808 -0.6338  2.9358 -0.2732
   19CHTO   O20 7961   4.570   7.120  -1.641  0.6192  0.3721  0.3001
   19CHTO   H36 7962   4.632   7.092  -1.576  1.5882  1.6013 -0.0851
   19CHTO   C30 7963   4.535   6.878  -1.630  0.3958  0.3063 -0.2731
   19CHTO   H58 7964   4.516   6.897  -1.524 -2.0073 -1.6933 -0.3131
   19CHTO    N6 7965   4.677   6.833  -1.645  0.2451 -0.4158 -0.1053
   19CHTO   H45 7966   4.723   6.829  -1.547 -0.1601  2.5236  0.2519
   19CHTO   H46 7967   4.739   6.886  -1.717 -0.4042  2.3174  1.2722
   19CHTO   C33 7968   4.438   6.768  -1.668  0.9105  0.1947  0.5688
   19CHTO   H61 7969   4.473   6.735  -1.767  0.5213  1.3558  0.0401
   19CHTO   O18 7970   4.305   6.817  -1.679 -0.1122 -0.5179 -0.0714
   19CHTO   C28 7971   4.284   6.916  -1.780 -0.2543 -0.0601 -1.0203
   19CHTO   H56 7972   4.333   6.877  -1.869 -1.7065 -1.0619 -1.3942
   19CHTO   C35 7973   4.129   6.930  -1.778  0.4081  0.1075 -0.8368
   19CHTO   O24 7974   4.066   6.981  -1.656 -1.0070 -0.0691  0.1246
   19CHTO   H39 7975   4.027   7.061  -1.685 -2.7236 -0.5130  1.0927
   19CHTO    O9 7976   4.449   6.649  -1.587  0.3299  0.2365 -0.1092
   19CHTO   C13 7977   4.380   6.506  -1.667  0.4558 -0.6441  0.2959
   19CHTO   H26 7978   4.425   6.502  -1.769 -0.1675 -0.6169  0.0221
   19CHTO   C11 7979   4.224   6.524  -1.672  1.0676 -0.0109 -0.1739
   19CHTO   H24 7980   4.194   6.619  -1.719 -1.0773 -0.2072  0.7471
   19CHTO    O8 7981   4.159   6.530  -1.543  0.1514 -0.1544 -0.2192
   19CHTO    H3 7982   4.189   6.599  -1.488  0.1461  0.4017 -0.9106
   19CHTO    C9 7983   4.173   6.405  -1.762 -0.5549  0.7077  0.0538
   19CHTO   H22 7984   4.225   6.418  -1.858 -1.2326  1.1333 -0.2529
   19CHTO    N2 7985   4.028   6.421  -1.786  0.2090  0.1707 -0.1501
   19CHTO   H10 7986   3.996   6.337  -1.846  0.1562  0.4956 -0.5798
   19CHTO   H11 7987   3.975   6.432  -1.693  1.0554  1.5489  0.1800
   19CHTO    C7 7988   4.214   6.264  -1.702  0.0381  0.4469 -0.0503
   19CHTO   H20 7989   4.195   6.186  -1.778  2.0447  0.1863 -0.3190
   19CHTO    O4 7990   4.355   6.267  -1.675  0.2475 -0.3040  0.3491
   19CHTO   C14 7991   4.419   6.369  -1.604 -0.9339 -0.1362  0.4738
   19CHTO   H27 7992   4.528   6.354  -1.620 -1.0933 -1.9546  0.9802
   19CHTO   C18 7993   4.394   6.363  -1.448  0.5383  0.1980 -0.7574
   19CHTO   O13 7994   4.464   6.251  -1.392 -0.0373  0.0614 -0.1816
   19CHTO    H7 7995   4.557   6.244  -1.400  0.3473  1.2804  2.6875
   19CHTO    O2 7996   4.134   6.234  -1.556 -0.0992  0.1723  0.8381
   19CHTO    C1 7997   4.065   6.105  -1.548  0.2733  0.5600  0.6384
   19CHTO   H14 7998   4.131   6.033  -1.600  1.2434  0.9970  1.2644
   19CHTO    C2 7999   3.922   6.111  -1.622  0.2729  0.8039 -0.1552
   19CHTO   H15 8000   3.878   6.210  -1.606  0.3274  0.6680  0.8333
   19CHTO    O6 8001   3.944   6.088  -1.761  0.1304 -0.2960 -0.1347
   19CHTO    H1 8002   3.960   6.169  -1.806  2.0644 -0.0288  1.0032
   19CHTO    C3 8003   3.815   6.000  -1.577 -0.2727  0.0673 -0.1273
   19CHTO   H16 8004   3.836   5.906  -1.629  1.7862  0.5367 -0.1901
   19CHTO    N1 8005   3.676   6.038  -1.616  0.3394  0.3117  0.2518
   19CHTO    H8 8006   3.639   5.978  -1.698  0.7736 -0.6278  0.7360
   19CHTO    H9 8007   3.669   6.143  -1.642 -2.1574  0.0368 -0.3619
   19CHTO    C4 8008   3.820   5.959  -1.424 -0.2806 -0.4263  0.1885
   19CHTO   H17 8009   3.777   6.035  -1.358  0.9696 -1.0137  1.7203
   19CHTO    O1 8010   3.957   5.943  -1.388 -0.4524  0.0282  0.4598
   19CHTO    C5 8011   4.040   6.064  -1.399  0.3050  0.0256  0.3871
   19CHTO   H18 8012   3.992   6.144  -1.342  1.0951  1.3140 -0.7165
   19CHTO   C16 8013   4.173   6.029  -1.331 -0.5527  0.1970  0.3536
   19CHTO   O11 8014   4.163   6.009  -1.188 -0.1296  0.1193 -0.2408
   19CHTO    H5 8015   4.250   5.992  -1.157  0.3303  1.5075 -0.7216
   19CHTO    O3 8016   3.747   5.831  -1.413 -0.2503  0.3039  0.3281
   19CHTO    C6 8017   3.687   5.789  -1.290 -0.1468  0.2136  0.2346
   19CHTO   H19 8018   3.721   5.848  -1.205 -0.7539  0.5731  0.2299
   19CHTO    C8 8019   3.535   5.792  -1.288 -0.3746  0.0456 -1.0467
   19CHTO   H21 8020   3.498   5.745  -1.379  0.6009 -1.3738 -0.7298
   19CHTO    O7 8021   3.499   5.929  -1.283  0.9223  0.3096  0.3323
   19CHTO    H2 8022   3.409   5.943  -1.307  0.2093 -1.5727  1.7396
   19CHTO   C12 8023   3.472   5.718  -1.163  0.5245 -0.0551 -0.1123
   19CHTO   H25 8024   3.493   5.773  -1.069 -0.2229 -0.6508  0.4234
   19CHTO    N3 8025   3.325   5.717  -1.176  0.3416 -0.1516  0.1916
   19CHTO   H12 8026   3.273   5.666  -1.095  0.8354 -0.2060  0.4756
   19CHTO   H13 8027   3.292   5.819  -1.187 -2.2749 -0.8612  0.9547
   19CHTO   C15 8028   3.536   5.572  -1.151  0.3262 -0.2993  0.1175
   19CHTO   H28 8029   3.495   5.506  -1.227  1.4114  0.2190 -0.9314
   19CHTO   O10 8030   3.513   5.509  -0.996 -0.3429 -0.1073 -0.0774
   19CHTO    H4 8031   3.428   5.471  -1.001 -1.3587  2.1243 -0.3830
   19CHTO    O5 8032   3.678   5.586  -1.149 -0.1251  0.0166 -0.1658
   19CHTO   C10 8033   3.732   5.641  -1.273  0.6348  0.8932 -1.0543
   19CHTO   H23 8034   3.709   5.573  -1.355 -0.4032 -0.9925  0.7340
   19CHTO   C17 8035   3.888   5.630  -1.260  0.3870  0.1018 -0.1659
   19CHTO   O12 8036   3.933   5.690  -1.135  0.2574  0.5028  0.5209
   19CHTO    H6 8037   3.876   5.663  -1.066  0.4807 -2.0190 -0.2318
   20CHTO  H203 8038   4.709   0.307   2.288 -0.0704  1.4192  0.3628
   20CHTO   O82 8039   4.649   0.346   2.227 -0.3287  0.1917 -0.1970
   20CHTO  C123 8040   4.648   0.487   2.240 -0.4144 -0.1837  0.4614
   20CHTO  H227 8041   4.630   0.518   2.344  0.4451  2.3400 -0.1009
   20CHTO   O77 8042   4.791   0.527   2.223  0.1417 -0.1731  0.1686
   20CHTO  C118 8043   4.810   0.673   2.224  0.6505 -0.1468 -0.1774
   20CHTO  H222 8044   4.762   0.710   2.315 -0.4488  2.8783 -1.9256
   20CHTO  C125 8045   4.961   0.705   2.230 -0.4145  0.0945 -0.4271
   20CHTO   O84 8046   5.030   0.676   2.107 -0.3324 -0.2074  0.2743
   20CHTO  H205 8047   5.105   0.730   2.092 -0.3091 -0.2077  0.3869
   20CHTO  C114 8048   4.740   0.737   2.103  0.9780  0.1524 -0.6175
   20CHTO  H218 8049   4.773   0.685   2.013  1.6673  2.5150 -1.7666
   20CHTO  C116 8050   4.583   0.709   2.102 -0.1832 -0.1412  0.6437
   20CHTO  H220 8051   4.536   0.781   2.173  2.9846 -0.4495  3.1502
   20CHTO   O79 8052   4.546   0.757   1.976  0.0285 -0.9608  0.1706
   20CHTO  H201 8053   4.486   0.696   1.937  0.0580 -0.3170 -0.9007
   20CHTO  C120 8054   4.554   0.558   2.131 -0.3179 -0.2886 -0.4083
   20CHTO  H224 8055   4.559   0.510   2.031  3.8683 -0.6885 -0.1158
   20CHTO   N21 8056   4.416   0.544   2.180 -1.0461 -0.2922  0.3013
   20CHTO  H211 8057   4.384   0.622   2.247 -2.0308  0.1182 -0.6287
   20CHTO  H212 8058   4.356   0.556   2.090  0.9968 -0.8904 -1.1721
   20CHTO   O75 8059   4.770   0.879   2.104  0.0910 -0.2204  0.4606
   20CHTO  C112 8060   4.836   0.945   1.949 -0.2222  0.6221 -0.2490
   20CHTO  H216 8061   4.822   0.872   1.867 -1.7321  1.0049 -0.3352
   20CHTO   O73 8062   4.975   0.962   1.973 -0.6806 -0.3661  0.3324
   20CHTO  C113 8063   5.061   1.017   1.871  0.2238  0.6597 -0.7654
   20CHTO  H217 8064   5.075   0.952   1.782 -3.8257 -2.1967  0.5468
   20CHTO  C124 8065   5.195   1.032   1.936 -0.1551  0.5860 -0.2141
   20CHTO   O83 8066   5.207   1.132   2.036  0.1241  0.7348  0.0380
   20CHTO  H204 8067   5.282   1.129   2.093 -0.8913  1.5771  1.4459
   20CHTO  C109 8068   5.006   1.160   1.821  0.1258  0.0037  0.3569
   20CHTO  H213 8069   5.039   1.233   1.896 -2.1308  2.1020 -0.6400
   20CHTO  C110 8070   4.854   1.149   1.793 -0.2735  0.1739  0.0301
   20CHTO  H214 8071   4.831   1.087   1.707 -0.2192 -0.1660  0.2606
   20CHTO   O78 8072   4.815   1.275   1.742  0.7428  0.1848  0.1862
   20CHTO  H200 8073   4.793   1.331   1.815 -2.0640 -0.4749 -0.0886
   20CHTO  C111 8074   4.771   1.084   1.907 -0.3041 -0.1129  0.3567
   20CHTO  H215 8075   4.783   1.141   2.000 -0.3531  1.3815 -0.5530
   20CHTO   N19 8076   4.625   1.053   1.884 -0.5674 -0.0135  0.3756
   20CHTO  H207 8077   4.566   1.144   1.878 -1.3101 -0.6726 -2.8812
   20CHTO  H208 8078   4.605   1.002   1.791  0.9578 -0.3881  0.2316
   20CHTO   O74 8079   5.064   1.195   1.697 -0.4935  0.5989  0.3339
   20CHTO  C115 8080   5.176   1.326   1.703 -0.0763  0.3359 -0.6685
   20CHTO  H219 8081   5.217   1.339   1.803 -1.3301 -1.2195  0.0813
   20CHTO   O76 8082   5.294   1.306   1.616  0.7581 -0.4774 -0.1078
   20CHTO  C122 8083   5.254   1.296   1.477 -0.2973 -0.0647  0.7035
   20CHTO  H226 8084   5.206   1.198   1.474  0.6672 -0.5284  0.2335
   20CHTO  C126 8085   5.387   1.278   1.399 -0.5561 -0.1851  0.0534
   20CHTO   O85 8086   5.470   1.398   1.386 -0.5104  0.2994 -0.0144
   20CHTO  H206 8087   5.490   1.430   1.472 -1.9440 -0.1464  0.5059
   20CHTO  C121 8088   5.162   1.410   1.417  0.5139 -0.7897  0.1052
   20CHTO  H225 8089   5.212   1.453   1.328 -0.5844 -0.1396 -0.2020
   20CHTO   O81 8090   5.037   1.348   1.387  0.2806 -0.2401  0.4717
   20CHTO  H202 8091   5.047   1.273   1.332  1.4659 -0.6662  1.2595
   20CHTO  C119 8092   5.143   1.519   1.527  0.9559 -0.3999  0.2292
   20CHTO  H223 8093   5.242   1.563   1.544  0.1657  1.4205  0.2613
   20CHTO  C117 8094   5.096   1.457   1.663 -0.0763  0.8258  0.4326
   20CHTO  H221 8095   4.997   1.413   1.656  0.7383 -0.6751 -2.2817
   20CHTO   N20 8096   5.085   1.560   1.771 -0.1990 -0.0668  0.3803
   20CHTO  H209 8097   5.171   1.624   1.779  0.7389 -1.3522  0.7751
   20CHTO  H210 8098   5.053   1.515   1.864  0.1800  1.5962  1.3255
   20CHTO   O80 8099   5.061   1.667   1.478  0.3695 -0.2207 -0.1229
   20CHTO  C103 8100   4.954   1.663   1.353  0.7544 -0.0135 -0.2386
   20CHTO  H190 8101   4.969   1.570   1.297  3.0434 -0.8344  1.6771
   20CHTO  C101 8102   4.796   1.675   1.389  0.3506  0.0106  0.4902
   20CHTO  H188 8103   4.780   1.769   1.442 -0.1703  0.4510 -0.4364
   20CHTO   O68 8104   4.751   1.564   1.476 -0.6455 -0.3632 -0.6183
   20CHTO  H168 8105   4.777   1.479   1.446  0.6865 -0.3337  0.4240
   20CHTO   C99 8106   4.709   1.688   1.251  0.1272 -0.0636 -0.2860
   20CHTO  H186 8107   4.738   1.608   1.180  0.0610 -1.2345  1.0044
   20CHTO   N17 8108   4.565   1.677   1.266  0.0751 -0.2237  0.1992
   20CHTO  H174 8109   4.490   1.755   1.257 -1.4363 -1.8617 -2.1482
   20CHTO  H175 8110   4.531   1.590   1.212  3.1740 -1.0118 -0.5794
   20CHTO   C97 8111   4.757   1.813   1.177  0.2215  0.7525  0.6295
   20CHTO  H184 8112   4.738   1.902   1.239 -0.0243  1.5353 -0.5643
   20CHTO   O64 8113   4.899   1.788   1.146 -0.4608 -0.2778 -0.9016
   20CHTO  C104 8114   4.992   1.787   1.259  0.1705  0.3874  0.4390
   20CHTO  H191 8115   4.982   1.880   1.314 -1.9186  0.8274 -0.6115
   20CHTO  C108 8116   5.139   1.767   1.220 -0.3531  0.3628  0.1127
   20CHTO   O71 8117   5.167   1.651   1.141 -0.8721 -0.0779 -0.1308
   20CHTO  H171 8118   5.135   1.569   1.174 -0.6627  0.6858  2.0533
   20CHTO   O62 8119   4.689   1.829   1.048 -0.4500  0.3110 -0.2609
   20CHTO   C91 8120   4.688   1.950   0.985 -1.2879 -0.0787 -0.1583
   20CHTO  H178 8121   4.764   2.005   1.040  0.2023 -1.0425 -1.2257
   20CHTO   C92 8122   4.551   2.031   1.008 -0.9859  0.1798 -0.3091
   20CHTO  H179 8123   4.472   1.960   0.981  0.2931 -0.8641 -1.3582
   20CHTO   O66 8124   4.549   2.052   1.150 -1.0490 -0.1110  0.3880
   20CHTO  H166 8125   4.462   2.067   1.181 -0.5413  1.9619  0.8483
   20CHTO   C93 8126   4.546   2.164   0.932  0.2926  0.2157  0.6609
   20CHTO  H180 8127   4.626   2.230   0.968  0.2886  0.5449  0.0775
   20CHTO   N16 8128   4.424   2.244   0.964 -0.2640 -0.4284  0.3145
   20CHTO  H172 8129   4.363   2.250   0.875 -0.5941 -2.3619  0.3927
   20CHTO  H173 8130   4.366   2.189   1.037  0.9451 -2.6649 -0.3764
   20CHTO   C94 8131   4.576   2.146   0.775 -0.0396  0.0334 -0.4099
   20CHTO  H181 8132   4.501   2.088   0.722 -0.8201  0.1905  0.5198
   20CHTO   O61 8133   4.701   2.077   0.759 -0.2970 -0.1494 -0.1564
   20CHTO   C95 8134   4.720   1.947   0.826 -0.4670 -0.1009  0.2318
   20CHTO  H182 8135   4.640   1.880   0.794  0.8691 -1.6156 -0.0192
   20CHTO  C106 8136   4.864   1.886   0.789  0.1389 -0.5493  0.0145
   20CHTO   O69 8137   4.975   1.970   0.836 -0.2253  0.3725 -0.5318
   20CHTO  H169 8138   4.982   1.962   0.929  1.4887 -0.5919 -0.7356
   20CHTO   O63 8139   4.603   2.294   0.702  0.1686  0.5642  0.3177
   20CHTO   C96 8140   4.580   2.291   0.541 -0.1961  1.0038 -0.5009
   20CHTO  H183 8141   4.607   2.189   0.512  1.1553  0.6371  1.9361
   20CHTO   C98 8142   4.687   2.379   0.465  0.0560  0.0550 -0.4737
   20CHTO  H185 8143   4.685   2.484   0.499 -3.0236  0.7907 -2.7414
   20CHTO   O67 8144   4.817   2.325   0.497 -0.5617  0.5259 -0.1310
   20CHTO  H167 8145   4.837   2.339   0.587 -1.1490 -1.2034  0.2967
   20CHTO  C102 8146   4.654   2.380   0.310 -0.1998 -0.6306 -0.3368
   20CHTO  H189 8147   4.669   2.277   0.275 -2.2025 -1.3703  0.9147
   20CHTO   N18 8148   4.736   2.471   0.225  0.5533 -0.3126  0.8913
   20CHTO  H176 8149   4.716   2.446   0.122  4.1356  0.7878 -0.1299
   20CHTO  H177 8150   4.842   2.459   0.237  0.8132  0.9662 -0.0206
   20CHTO  C105 8151   4.502   2.399   0.278 -0.6922  0.6508 -0.3013
   20CHTO  H192 8152   4.474   2.501   0.307  2.4824  1.2009  1.1050
   20CHTO   O65 8153   4.414   2.311   0.348 -0.2003 -0.0847 -0.3962
   20CHTO  C100 8154   4.432   2.330   0.491  0.1862 -0.0752  0.1485
   20CHTO  H187 8155   4.421   2.438   0.505 -0.2226 -0.0345 -0.4552
   20CHTO  C107 8156   4.321   2.261   0.574 -0.2218  0.0331  0.2057
   20CHTO   O70 8157   4.192   2.303   0.517 -0.9736 -0.1398  0.1878
   20CHTO  H170 8158   4.164   2.234   0.461  0.3655 -1.4919  1.1324
   20CHTO   O57 8159   4.467   2.365   0.104 -0.5140  0.3463  0.5810
   20CHTO   C85 8160   4.482   2.226   0.065  0.7354 -0.2819  0.4752
   20CHTO  H157 8161   4.483   2.162   0.156  1.6137  0.7345  1.1920
   20CHTO   C83 8162   4.615   2.216  -0.012 -0.3215  0.1423  0.0616
   20CHTO  H155 8163   4.691   2.226   0.065 -1.1363  0.2167  0.8679
   20CHTO   O56 8164   4.635   2.328  -0.093 -0.4246  0.2489 -0.1259
   20CHTO  H135 8165   4.640   2.302  -0.183  3.0658  0.0469  0.0464
   20CHTO   C81 8166   4.631   2.075  -0.080  0.0455 -0.3244 -0.4806
   20CHTO  H153 8167   4.619   2.000  -0.001 -2.0389  1.7400  1.2296
   20CHTO   N14 8168   4.769   2.069  -0.138  0.7930 -0.3593 -0.1769
   20CHTO  H141 8169   4.834   2.151  -0.114 -0.1143  0.9399 -2.0508
   20CHTO  H142 8170   4.780   2.049  -0.243 -0.6375 -2.8052  0.0930
   20CHTO   C79 8171   4.518   2.051  -0.183  0.1422  0.0121 -0.2398
   20CHTO  H151 8172   4.524   1.950  -0.222  1.2934  0.1608 -0.4657
   20CHTO   O52 8173   4.394   2.065  -0.109 -0.0306 -0.2428 -0.4093
   20CHTO   C86 8174   4.368   2.189  -0.031  0.4642 -0.0202  0.6263
   20CHTO  H158 8175   4.356   2.262  -0.113 -1.4970  0.2201  1.1202
   20CHTO   C90 8176   4.229   2.169   0.039  0.6174 -0.1599  0.2128
   20CHTO   O60 8177   4.198   2.280   0.130  0.1820 -0.3083  0.6769
   20CHTO  H138 8178   4.262   2.303   0.194 -0.6782  0.4338  1.2781
   20CHTO   O50 8179   4.520   2.134  -0.297 -0.3714 -0.0570 -0.8290
   20CHTO   C73 8180   4.502   2.149  -0.439  0.1531  0.2151  0.5109
   20CHTO  H145 8181   4.585   2.204  -0.485  0.0638 -1.1572 -1.3506
   20CHTO   C74 8182   4.379   2.237  -0.462  0.4279  0.1230 -0.7466
   20CHTO  H146 8183   4.411   2.321  -0.398  1.6886 -0.1212 -1.0270
   20CHTO   O54 8184   4.363   2.292  -0.591 -0.1259  0.1055  0.6645
   20CHTO  H133 8185   4.436   2.344  -0.619 -1.1131  1.2436  0.1351
   20CHTO   C75 8186   4.243   2.173  -0.418  0.0226 -0.1550  0.2073
   20CHTO  H147 8187   4.245   2.151  -0.310 -1.8753  2.0111  0.7353
   20CHTO   N13 8188   4.115   2.254  -0.432 -1.0408 -0.5816 -0.2441
   20CHTO  H139 8189   4.131   2.361  -0.438 -0.3438 -0.4347  3.2644
   20CHTO  H140 8190   4.070   2.221  -0.525  1.4091 -1.1836 -1.2664
   20CHTO   C76 8191   4.234   2.025  -0.483 -0.7221 -0.2605 -0.3134
   20CHTO  H148 8192   4.211   2.032  -0.589  0.3426 -0.8736 -0.5879
   20CHTO   O49 8193   4.357   1.949  -0.461 -0.3188 -0.2526 -0.1389
   20CHTO   C77 8194   4.475   2.011  -0.517 -0.3258  0.2631 -0.0321
   20CHTO  H149 8195   4.454   2.038  -0.621 -1.7339  0.9625  0.4164
   20CHTO   C88 8196   4.597   1.917  -0.488 -0.1276 -0.2015  0.5150
   20CHTO   O58 8197   4.571   1.781  -0.554  0.0616 -0.0397 -0.7604
   20CHTO  H136 8198   4.630   1.716  -0.521  1.9519  2.1819  0.4291
   20CHTO   O51 8199   4.107   1.918  -0.414  0.2258 -0.4579  0.0828
   20CHTO   C78 8200   4.134   1.879  -0.252  0.9749  0.2385  0.2871
   20CHTO  H150 8201   4.215   1.942  -0.211  1.5615 -0.1559 -0.2483
   20CHTO   C80 8202   4.173   1.732  -0.245  0.3743 -0.2671 -0.0357
   20CHTO  H152 8203   4.087   1.668  -0.270  0.6600  0.6074 -3.4968
   20CHTO   O55 8204   4.280   1.707  -0.336  0.0895 -0.9147 -0.2026
   20CHTO  H134 8205   4.335   1.635  -0.314  2.6378  0.9558 -0.2062
   20CHTO   C84 8206   4.202   1.701  -0.091  0.1915 -0.4700 -0.5004
   20CHTO  H156 8207   4.273   1.774  -0.055 -0.9358  0.3823  0.0393
   20CHTO   N15 8208   4.247   1.560  -0.066  0.8639 -0.4752  0.4788
   20CHTO  H143 8209   4.235   1.549   0.040 -0.1028 -0.5400  0.3650
   20CHTO  H144 8210   4.189   1.489  -0.121 -2.3723  2.7281 -0.4165
   20CHTO   C87 8211   4.075   1.734  -0.009  0.3669 -0.1546  0.3030
   20CHTO  H159 8212   3.991   1.666  -0.022 -0.7781  1.6726 -2.2731
   20CHTO   O53 8213   4.031   1.876  -0.037 -0.1751 -0.0481 -0.3105
   20CHTO   C82 8214   4.009   1.901  -0.174 -0.0811 -0.8620 -0.3351
   20CHTO  H154 8215   3.935   1.834  -0.218  0.2112  0.1701 -2.4142
   20CHTO   C89 8216   3.960   2.043  -0.204 -0.5827 -0.4851  0.5421
   20CHTO   O59 8217   3.827   2.068  -0.160  0.1578  0.2574  0.2203
   20CHTO  H137 8218   3.765   2.018  -0.210  0.9201  1.0074 -1.5004
   20CHTO   O45 8219   4.093   1.718   0.154 -0.0531  0.2968  0.4742
   20CHTO   C67 8220   4.127   1.836   0.232 -0.2374  0.5495  0.2488
   20CHTO  H124 8221   4.199   1.893   0.173  1.1624  0.1389  1.4979
   20CHTO   C65 8222   4.002   1.916   0.269 -0.1318  0.9430  0.2571
   20CHTO  H122 8223   3.942   1.934   0.180  0.3384 -2.7664 -0.8726
   20CHTO   O44 8224   4.053   2.042   0.314  0.0550 -0.1322 -0.0100
   20CHTO  H102 8225   4.097   2.025   0.395  0.1665  0.1983 -0.0023
   20CHTO   C63 8226   3.911   1.835   0.362 -0.2109 -0.3315  0.2332
   20CHTO  H120 8227   3.894   1.738   0.314 -0.5005  0.0279 -0.4026
   20CHTO   N11 8228   3.779   1.902   0.382  0.6033  0.7254  0.4256
   20CHTO  H108 8229   3.794   2.005   0.407 -1.2213  0.4461  2.8507
   20CHTO  H109 8230   3.705   1.873   0.310 -0.4188 -0.2413  1.8212
   20CHTO   C61 8231   3.994   1.802   0.492  0.0841  0.4828  0.4659
   20CHTO  H118 8232   3.927   1.731   0.543 -0.4201 -1.1386 -2.3587
   20CHTO   O40 8233   4.108   1.727   0.456  1.0622 -0.1306 -0.1472
   20CHTO   C68 8234   4.200   1.786   0.361 -0.3210  0.3818  0.7257
   20CHTO  H125 8235   4.265   1.704   0.324  0.0852  1.5366 -1.2012
   20CHTO   C72 8236   4.291   1.895   0.435  0.7103  0.1847 -0.2688
   20CHTO   O48 8237   4.393   1.952   0.357 -0.2004  0.6699 -0.8081
   20CHTO  H105 8238   4.360   2.017   0.297 -3.1033  0.0804  0.0564
   20CHTO   O38 8239   4.030   1.920   0.576  0.3399  0.7676 -0.6520
   20CHTO   C55 8240   3.977   1.939   0.709  0.2585 -0.0140 -0.7418
   20CHTO  H112 8241   3.908   1.855   0.724 -2.0585  2.0422  0.4463
   20CHTO   C56 8242   3.905   2.078   0.725  0.5872  0.4595  0.1009
   20CHTO  H113 8243   3.963   2.147   0.662 -0.3354  0.3989 -0.8177
   20CHTO   O42 8244   3.773   2.087   0.677  0.6332  0.0707 -0.1546
   20CHTO  H100 8245   3.738   2.002   0.695  1.7254 -0.6060 -1.1335
   20CHTO   C57 8246   3.896   2.138   0.878 -0.3269  0.5913 -0.1521
   20CHTO  H114 8247   3.815   2.082   0.925  0.8272 -1.6174 -0.7559
   20CHTO   N10 8248   3.869   2.285   0.870  0.0755 -0.1386  0.2661
   20CHTO  H106 8249   3.964   2.335   0.884  0.4061 -1.0887  1.5175
   20CHTO  H107 8250   3.832   2.314   0.773  0.7553 -1.1808 -0.3100
   20CHTO   C58 8251   4.023   2.102   0.959 -0.7750  0.5047 -0.9295
   20CHTO  H115 8252   4.109   2.156   0.914 -1.7529  1.5923 -1.5358
   20CHTO   O37 8253   4.058   1.964   0.937  0.0425  0.6649 -0.4301
   20CHTO   C59 8254   4.093   1.926   0.805  0.7205 -0.5782  0.3823
   20CHTO  H116 8255   4.178   1.984   0.768 -0.4555  1.5771  0.9429
   20CHTO   C70 8256   4.152   1.787   0.807  0.4538  0.2127 -0.1409
   20CHTO   O46 8257   4.266   1.790   0.883 -0.4176 -0.0782  0.4456
   20CHTO  H103 8258   4.297   1.710   0.920  1.4870  0.8655  0.9820
   20CHTO   O39 8259   3.997   2.124   1.113  0.1417  0.3254 -0.0132
   20CHTO   C60 8260   4.101   2.120   1.214  0.7005  0.6703  0.2382
   20CHTO  H117 8261   4.190   2.072   1.171  0.4070 -0.6763  1.0960
   20CHTO   C62 8262   4.136   2.261   1.270  0.1959  0.2440  1.0816
   20CHTO  H119 8263   4.161   2.309   1.173  2.1969 -0.6174  1.1399
   20CHTO   O43 8264   4.029   2.319   1.333 -0.3391 -0.3746  0.1857
   20CHTO  H101 8265   4.068   2.392   1.377 -2.1149  0.9440 -0.3629
   20CHTO   C66 8266   4.268   2.254   1.349 -0.0609  0.6320  0.1600
   20CHTO  H123 8267   4.341   2.223   1.274 -1.6628 -2.0638 -0.3590
   20CHTO   N12 8268   4.318   2.389   1.401  0.1364 -0.2130  0.1316
   20CHTO  H110 8269   4.242   2.457   1.438  1.0002  0.8251  0.0225
   20CHTO  H111 8270   4.393   2.381   1.479  0.9836 -2.4513 -0.8712
   20CHTO   C69 8271   4.253   2.156   1.467 -0.4626  0.6722  0.8605
   20CHTO  H126 8272   4.180   2.203   1.536 -1.4356 -0.3472  0.5424
   20CHTO   O41 8273   4.197   2.019   1.419 -0.7126  0.4862  0.2635
   20CHTO   C64 8274   4.059   2.027   1.325 -0.2607  0.3344 -0.3171
   20CHTO  H121 8275   3.974   2.071   1.381 -0.0610  0.8843 -0.4437
   20CHTO   C71 8276   4.027   1.879   1.282  0.0993 -0.7941 -0.5023
   20CHTO   O47 8277   4.006   1.802   1.407 -0.4453 -0.1018 -0.1568
   20CHTO  H104 8278   3.920   1.832   1.433 -0.5465 -0.6458  0.1530
   20CHTO   O34 8279   4.398   2.136   1.558  0.2789 -0.2745 -0.1302
   20CHTO   C49 8280   4.413   2.026   1.645  0.0525 -0.4492  0.0423
   20CHTO   H91 8281   4.382   1.939   1.587  2.3156  0.3458 -2.5264
   20CHTO   C47 8282   4.309   2.029   1.758  0.3393 -0.7621  0.5848
   20CHTO   H89 8283   4.231   1.961   1.718 -0.3755 -0.0894  0.8214
   20CHTO   O33 8284   4.247   2.152   1.781 -0.4712 -0.3921 -0.2616
   20CHTO   H70 8285   4.305   2.218   1.813 -0.1096  0.4206 -2.4684
   20CHTO   C45 8286   4.368   1.976   1.897 -0.5677 -0.3384 -1.1069
   20CHTO   H87 8287   4.418   2.058   1.950 -2.9015  0.0396  0.6485
   20CHTO    N8 8288   4.250   1.935   1.978  0.1659 -0.4345  0.6676
   20CHTO   H75 8289   4.282   1.889   2.070  0.8443 -0.1247  0.5890
   20CHTO   H76 8290   4.168   1.886   1.927  0.7497  1.6042 -2.3413
   20CHTO   C43 8291   4.476   1.858   1.886  0.2452 -0.0330 -0.5868
   20CHTO   H85 8292   4.505   1.833   1.988  0.9742  4.2150  0.3423
   20CHTO   O29 8293   4.585   1.907   1.809 -0.7954  0.1572  0.3461
   20CHTO   C50 8294   4.561   2.009   1.709  0.4444  0.5786 -0.6111
   20CHTO   H92 8295   4.598   2.104   1.750  3.0290 -0.9282  0.6674
   20CHTO   C54 8296   4.666   1.979   1.595  0.9123  0.6619 -0.5356
   20CHTO   O36 8297   4.803   2.002   1.642 -0.3227 -0.0625 -0.6702
   20CHTO   H72 8298   4.807   2.080   1.694 -1.1153 -1.8473  2.1732
   20CHTO   O27 8299   4.429   1.740   1.818 -0.9004 -0.1810 -0.3600
   20CHTO   C37 8300   4.393   1.616   1.754  0.5578  0.2290 -0.3769
   20CHTO   H79 8301   4.336   1.548   1.820 -0.6782  0.5330 -1.1100
   20CHTO   C38 8302   4.293   1.639   1.641  0.0157 -0.2004 -0.0117
   20CHTO   H80 8303   4.346   1.701   1.566  1.3065 -2.1888 -0.7943
   20CHTO   O31 8304   4.172   1.700   1.699  0.0163  0.7421  0.1931
   20CHTO   H68 8305   4.158   1.676   1.788  1.3780  0.6057  0.3847
   20CHTO   C39 8306   4.260   1.500   1.569  0.2917 -0.1499  0.3080
   20CHTO   H81 8307   4.209   1.433   1.638  1.3946 -1.0713  0.2474
   20CHTO    N7 8308   4.166   1.511   1.456 -0.3355  0.0373  0.0682
   20CHTO   H73 8309   4.200   1.489   1.356 -2.2271 -0.6211 -0.4520
   20CHTO   H74 8310   4.065   1.475   1.466 -1.2002  2.5196  0.6590
   20CHTO   C40 8311   4.385   1.425   1.529 -0.4776  0.5130 -0.4418
   20CHTO   H82 8312   4.431   1.485   1.450  0.7360  1.4743  0.9917
   20CHTO   O26 8313   4.474   1.407   1.643 -0.1632 -0.4671  0.3078
   20CHTO   C41 8314   4.514   1.537   1.703  0.0501  0.0882 -0.1303
   20CHTO   H83 8315   4.567   1.598   1.628  2.8248 -1.0407  0.8382
   20CHTO   C52 8316   4.615   1.508   1.818 -0.9315 -0.3630  0.5063
   20CHTO   O35 8317   4.537   1.422   1.940  0.2780 -0.1011 -1.0063
   20CHTO   H71 8318   4.523   1.476   2.016 -0.9858 -0.3675 -1.0560
   20CHTO   O28 8319   4.363   1.292   1.485 -0.3926  0.2516 -0.0658
   20CHTO   C42 8320   4.465   1.232   1.401 -0.0787 -0.3432  0.4917
   20CHTO   H84 8321   4.431   1.131   1.381  2.1303 -0.5971 -2.4617
   20CHTO   C44 8322   4.605   1.218   1.462  0.7831  0.8720 -0.5036
   20CHTO   H86 8323   4.656   1.313   1.481  1.0069  0.2507  2.2529
   20CHTO   O32 8324   4.579   1.148   1.585 -0.4837  0.0853  0.1775
   20CHTO   H69 8325   4.656   1.131   1.635  0.2245  2.2459 -0.1235
   20CHTO   C48 8326   4.697   1.132   1.364 -0.9140  0.2494  0.5111
   20CHTO   H90 8327   4.649   1.034   1.358  1.4548 -0.8208 -2.2958
   20CHTO    N9 8328   4.835   1.105   1.428  0.4577  0.3325  0.0283
   20CHTO   H77 8329   4.839   1.068   1.529 -2.8181  0.9019  0.3926
   20CHTO   H78 8330   4.895   1.195   1.431  1.0610  0.0329 -1.8643
   20CHTO   C51 8331   4.708   1.208   1.225 -0.5108 -0.1226 -0.0179
   20CHTO   H93 8332   4.748   1.306   1.251  0.4768 -0.4217 -0.3583
   20CHTO   O30 8333   4.572   1.214   1.179 -0.3426 -0.7802  0.0204
   20CHTO   C46 8334   4.478   1.303   1.265  0.1899 -0.1332  0.4249
   20CHTO   H88 8335   4.520   1.403   1.273 -0.4933  0.1402  0.6638
   20CHTO   C53 8336   4.342   1.313   1.182 -0.1895  0.5157 -1.1866
   20CHTO   O72 8337   4.282   1.191   1.150  0.2361  0.1962  0.4273
   20CHTO  H199 8338   4.215   1.203   1.084  0.3078 -2.2020 -0.1273
   20CHTO   O22 8339   4.778   1.135   1.123 -0.4600  0.8443  0.0992
   20CHTO   C31 8340   4.871   1.202   1.029 -0.2031 -0.6770 -0.5589
   20CHTO   H59 8341   4.865   1.143   0.935 -0.3230 -1.6847  0.0704
   20CHTO   C29 8342   4.846   1.349   0.995 -0.3822 -0.1250  0.1997
   20CHTO   H57 8343   4.846   1.401   1.092  3.0218  2.1865 -0.9477
   20CHTO   O21 8344   4.717   1.358   0.933  0.2685 -0.5322 -0.5243
   20CHTO   H37 8345   4.707   1.425   0.869 -0.4472  0.5289  0.6804
   20CHTO   C27 8346   4.954   1.411   0.900 -0.0653  0.9261 -0.1925
   20CHTO   H55 8347   4.942   1.367   0.800 -0.5383 -3.8043  1.8162
   20CHTO    N5 8348   4.930   1.559   0.898  0.1325 -0.6168  0.3339
   20CHTO   H43 8349   4.929   1.597   0.999 -1.0951 -3.2546  1.3685
   20CHTO   H44 8350   4.845   1.587   0.838 -0.0546  2.1993  1.7908
   20CHTO   C25 8351   5.102   1.375   0.953 -0.2179 -0.4461  0.7768
   20CHTO   H53 8352   5.125   1.439   1.040 -1.8866  0.8925  0.2678
   20CHTO   O17 8353   5.117   1.238   0.987 -0.0642 -0.6883 -0.1412
   20CHTO   C32 8354   5.017   1.189   1.075 -0.8330 -0.1158 -0.8995
   20CHTO   H60 8355   5.034   1.231   1.174 -1.3918 -1.5884 -0.1648
   20CHTO   C36 8356   5.052   1.046   1.111  0.1869 -0.2621 -0.1748
   20CHTO   O25 8357   5.026   0.951   1.011  0.0199 -0.1309 -0.7927
   20CHTO   H40 8358   5.051   0.870   1.050  2.1649  0.5104 -0.7332
   20CHTO   O15 8359   5.181   1.404   0.869 -0.1676  0.2272 -0.2525
   20CHTO   C19 8360   5.309   1.469   0.862 -1.0694 -0.7058 -0.4226
   20CHTO   H47 8361   5.294   1.569   0.904 -0.1727 -0.0700 -1.5857
   20CHTO   C20 8362   5.424   1.408   0.947 -0.0965 -0.5198 -0.1218
   20CHTO   H48 8363   5.443   1.303   0.922 -3.3829 -1.5271  1.4061
   20CHTO   O19 8364   5.378   1.404   1.084 -0.4883 -0.3650 -0.0915
   20CHTO   H35 8365   5.300   1.353   1.088 -2.1969  2.0815 -0.7497
   20CHTO   C21 8366   5.559   1.490   0.930 -0.7465  0.7515 -0.1243
   20CHTO   H49 8367   5.551   1.576   0.997 -2.2126 -0.4686  1.3385
   20CHTO    N4 8368   5.681   1.421   0.987  0.0638 -0.0421 -0.2305
   20CHTO   H41 8369   5.676   1.401   1.092  0.0146 -0.1776 -0.2595
   20CHTO   H42 8370   5.693   1.328   0.934 -1.2466  0.7290 -1.9481
   20CHTO   C22 8371   5.592   1.522   0.783 -0.0841 -0.2039  0.3536
   20CHTO   H50 8372   5.618   1.431   0.729  2.1591  1.4889 -1.5084
   20CHTO   O14 8373   5.479   1.577   0.707  0.2057  0.2801 -0.7397
   20CHTO   C23 8374   5.359   1.500   0.723 -0.9746 -0.0979  0.0415
   20CHTO   H51 8375   5.391   1.410   0.670  0.2594 -0.2594  1.0401
   20CHTO   C34 8376   5.258   1.576   0.632  0.6239  0.5817  0.1258
   20CHTO   O23 8377   5.248   1.713   0.660  0.5529 -0.0682  0.4712
   20CHTO   H38 8378   5.325   1.747   0.620  0.3216 -0.3658 -0.2279
   20CHTO   O16 8379   5.673   1.639   0.757  0.0676  0.3122 -0.1209
   20CHTO   C24 8380   5.834   1.588   0.701  0.1795  1.3020  0.8800
   20CHTO   H52 8381   5.848   1.480   0.704 -0.5257  1.0792 -2.2129
   20CHTO   C26 8382   5.933   1.659   0.787  0.1629 -0.3859  0.2059
   20CHTO   H54 8383   5.901   1.766   0.790  0.2664 -0.3633  0.4537
   20CHTO   O20 8384   5.917   1.617   0.925  0.0697  0.5314  0.1598
   20CHTO   H36 8385   5.978   1.668   0.975 -0.9974  2.7694 -0.7347
   20CHTO   C30 8386   6.078   1.641   0.737  0.0693 -0.3883  0.3695
   20CHTO   H58 8387   6.131   1.559   0.787  1.4507  0.9381  1.1208
   20CHTO    N6 8388   6.164   1.758   0.776  0.7649  0.1039  0.0478
   20CHTO   H45 8389   6.265   1.739   0.741  1.0066 -1.2676  1.4416
   20CHTO   H46 8390   6.165   1.777   0.882 -2.8930  1.2592 -0.0756
   20CHTO   C33 8391   6.081   1.609   0.584 -0.4014  0.3916 -0.0525
   20CHTO   H61 8392   6.170   1.653   0.537 -0.7057  1.2767  0.1760
   20CHTO   O18 8393   5.969   1.662   0.513  0.1399  0.3271 -0.7778
   20CHTO   C28 8394   5.837   1.631   0.554 -0.1444 -0.0681  0.4591
   20CHTO   H56 8395   5.779   1.723   0.547 -0.9369 -0.8144 -4.6560
   20CHTO   C35 8396   5.780   1.516   0.464  0.3723 -0.3012  0.2984
   20CHTO   O24 8397   5.655   1.473   0.505  0.2219 -0.4336  0.1210
   20CHTO   H39 8398   5.595   1.483   0.434  0.2028  1.7230  0.4052
   20CHTO    O9 8399   6.095   1.467   0.564 -0.1271 -0.4396 -0.2968
   20CHTO   C13 8400   6.218   1.395   0.591 -0.1743 -0.3832 -0.2346
   20CHTO   H26 8401   6.302   1.465   0.608  0.1838 -0.6136 -1.0260
   20CHTO   C11 8402   6.242   1.306   0.458  0.4888 -0.0896 -0.2003
   20CHTO   H24 8403   6.264   1.367   0.369 -1.8460 -0.0949 -0.8061
   20CHTO    O8 8404   6.136   1.219   0.417  0.3799  1.0497 -0.1019
   20CHTO    H3 8405   6.148   1.132   0.450 -1.9834  0.4492 -0.7365
   20CHTO    C9 8406   6.384   1.236   0.484 -0.7424 -0.4153 -0.1744
   20CHTO   H22 8407   6.451   1.313   0.524 -0.5883 -0.0810 -1.0671
   20CHTO    N2 8408   6.450   1.200   0.355 -0.1703  0.0886 -0.1711
   20CHTO   H10 8409   6.435   1.293   0.302 -1.6894  0.9094  1.6547
   20CHTO   H11 8410   6.395   1.122   0.305  0.7219  0.3798 -1.6459
   20CHTO    C7 8411   6.361   1.132   0.595 -0.4817 -0.4594  0.2683
   20CHTO   H20 8412   6.465   1.106   0.625  0.1126  1.6442  0.0749
   20CHTO    O4 8413   6.283   1.182   0.709  0.1168 -0.1267  0.5879
   20CHTO   C14 8414   6.205   1.301   0.721  0.3033  0.0335 -0.6820
   20CHTO   H27 8415   6.243   1.356   0.809  1.2805 -0.4672 -0.7883
   20CHTO   C18 8416   6.062   1.260   0.752 -0.1814 -0.6873  0.3338
   20CHTO   O13 8417   6.043   1.203   0.882  0.2334 -0.7935 -0.2051
   20CHTO    H7 8418   6.111   1.139   0.892 -0.1998 -1.1458  0.5246
   20CHTO    O2 8419   6.299   1.005   0.550 -0.1774 -0.0015 -0.0004
   20CHTO    C1 8420   6.288   0.886   0.635 -0.4639 -0.0886 -0.4587
   20CHTO   H14 8421   6.225   0.908   0.724  0.5414 -0.3138  0.3193
   20CHTO    C2 8422   6.423   0.838   0.691 -0.4518 -0.2998  0.5478
   20CHTO   H15 8423   6.493   0.836   0.606 -1.2043  0.6579 -0.1052
   20CHTO    O6 8424   6.477   0.932   0.791  0.5842 -0.5265 -0.5840
   20CHTO    H1 8425   6.534   0.996   0.754 -2.8480  2.1134 -1.5181
   20CHTO    C3 8426   6.407   0.681   0.747 -0.5585  0.5421  0.4544
   20CHTO   H16 8427   6.349   0.665   0.839 -0.3389 -0.4567  0.4273
   20CHTO    N1 8428   6.548   0.627   0.781 -0.2637 -0.0745 -0.3180
   20CHTO    H8 8429   6.577   0.655   0.881  0.2480  3.7939 -1.4552
   20CHTO    H9 8430   6.544   0.519   0.778  0.4101 -0.0739 -1.3653
   20CHTO    C4 8431   6.337   0.590   0.636 -0.0789 -0.9784  0.0341
   20CHTO   H17 8432   6.398   0.582   0.547  1.6517 -0.7374  1.1661
   20CHTO    O1 8433   6.210   0.650   0.605  0.2240 -0.3254  0.4047
   20CHTO    C5 8434   6.218   0.778   0.540  0.1402 -0.1472  0.4183
   20CHTO   H18 8435   6.271   0.765   0.446  1.4115  1.9185  0.8096
   20CHTO   C16 8436   6.068   0.828   0.516 -0.4467 -0.3364  0.3994
   20CHTO   O11 8437   5.991   0.733   0.434 -0.0773 -0.0456 -0.1726
   20CHTO    H5 8438   5.901   0.758   0.426  0.7612  2.5627 -1.9705
   20CHTO    O3 8439   6.301   0.461   0.689 -0.2914  0.1346 -0.1850
   20CHTO    C6 8440   6.263   0.369   0.579 -0.5504  0.0682 -0.1534
   20CHTO   H19 8441   6.253   0.412   0.479  0.7995 -1.1944 -0.8391
   20CHTO    C8 8442   6.379   0.264   0.558 -0.7523 -0.3555 -0.0723
   20CHTO   H21 8443   6.394   0.205   0.648 -0.3072 -0.0458  0.0572
   20CHTO    O7 8444   6.495   0.335   0.509 -0.2613  0.2440  0.4672
   20CHTO    H2 8445   6.550   0.343   0.584 -1.7571  0.3797  1.5735
   20CHTO   C12 8446   6.335   0.156   0.445 -0.3719  0.0908 -0.5224
   20CHTO   H25 8447   6.326   0.225   0.359 -1.9242  0.2290 -0.2685
   20CHTO    N3 8448   6.443   0.048   0.419  0.4676  0.8054  0.6710
   20CHTO   H12 8449   6.524   0.053   0.490  1.0676 -1.3035  0.1791
   20CHTO   H13 8450   6.402  -0.052   0.419  0.3561  0.8447  1.3352
   20CHTO   C15 8451   6.199   0.096   0.480  0.0481 -0.5105 -0.8951
   20CHTO   H28 8452   6.208   0.041   0.573 -0.9276 -0.3077 -0.6720
   20CHTO   O10 8453   6.153  -0.000   0.362 -0.1687  0.6944 -0.0679
   20CHTO    H4 8454   6.201  -0.080   0.351  1.1747  1.2422  1.6092
   20CHTO    O5 8455   6.104   0.205   0.499 -0.1727 -0.4673  0.1184
   20CHTO   C10 8456   6.129   0.289   0.617 -0.6744  0.3658  0.2797
   20CHTO   H23 8457   6.148   0.220   0.700 -2.4226 -0.1041  0.3093
   20CHTO   C17 8458   6.009   0.374   0.651 -0.6355 -0.3926 -0.3930
   20CHTO   O12 8459   5.976   0.461   0.546  0.1058 -0.1270 -0.1346
   20CHTO    H6 8460   5.956   0.407   0.472  0.5865 -1.8296  0.9631
   21GLOH   H03 8461   3.007   0.029   1.896  1.7538  2.1817 -0.1276
   21GLOH    O1 8462   3.022   0.057   1.804  0.0581  0.1631 -1.0619
   21GLOH    C1 8463   2.953  -0.015   1.697 -0.2128 -0.0741  0.0029
   21GLOH   H02 8464   2.894   0.056   1.639  0.2201  2.2376  2.2749
   21GLOH   H08 8465   2.887  -0.093   1.737 -1.4268 -0.2969 -2.3479
   21GLOH    C2 8466   3.060  -0.081   1.604  0.4938  0.0867 -0.1956
   21GLOH   H04 8467   3.135  -0.128   1.669 -0.0168 -0.2906  0.1182
   21GLOH    O2 8468   3.005  -0.175   1.512 -0.0791  0.4329  0.0622
   21GLOH   H05 8469   3.087  -0.199   1.466 -0.1444  0.5528 -0.1124
   21GLOH    C3 8470   3.129   0.029   1.520 -0.2612  0.3073  0.5420
   21GLOH   H06 8471   3.140   0.124   1.573 -1.2768  0.7435 -0.0128
   21GLOH   H07 8472   3.057   0.071   1.450 -0.3018 -0.9395 -0.1710
   21GLOH    O3 8473   3.250  -0.022   1.458  0.2084  0.1292 -0.0036
   21GLOH   H01 8474   3.290   0.052   1.409 -0.3709  0.2496 -0.3049
   22GLOH   H03 8475   4.386   9.032   2.792 -0.5571 -1.6813  3.2985
   22GLOH    O1 8476   4.316   9.088   2.827 -0.7461  0.5647 -0.3594
   22GLOH    C1 8477   4.224   8.996   2.890  0.0343  0.7814 -0.2935
   22GLOH   H02 8478   4.131   9.045   2.920  1.6414  2.8426  1.4584
   22GLOH   H08 8479   4.259   8.947   2.981  0.4478 -0.2878 -1.0219
   22GLOH    C2 8480   4.189   8.870   2.807 -0.1358  0.2473 -0.3129
   22GLOH   H04 8481   4.128   8.902   2.722 -1.0669 -3.5142 -1.1355
   22GLOH    O2 8482   4.323   8.815   2.777 -0.2507 -0.4328 -0.0863
   22GLOH   H05 8483   4.324   8.757   2.699  1.6262 -0.7197  0.1141
   22GLOH    C3 8484   4.107   8.761   2.890 -0.8183 -0.0400 -0.3666
   22GLOH   H06 8485   4.168   8.725   2.973 -0.1407 -1.8179 -1.5900
   22GLOH   H07 8486   4.108   8.671   2.828  1.1942 -1.0312  1.0607
   22GLOH    O3 8487   3.969   8.800   2.936 -0.2201  0.1668 -0.5546
   22GLOH   H01 8488   3.903   8.783   2.866 -1.7226 -2.9646  1.5137
   23GLOH   H03 8489   3.213   9.376   1.875 -1.1748 -2.0083  1.2400
   23GLOH    O1 8490   3.221   9.335   1.787 -0.1950  0.8229 -0.0607
   23GLOH    C1 8491   3.267   9.421   1.685 -0.2723 -0.1237  1.0224
   23GLOH   H02 8492   3.213   9.515   1.680 -0.3804 -0.1784  1.1562
   23GLOH   H08 8493   3.257   9.375   1.587 -2.1796 -4.1301  2.9857
   23GLOH    C2 8494   3.414   9.477   1.690  0.4573 -0.3066 -0.0325
   23GLOH   H04 8495   3.455   9.484   1.588  1.0674  2.0099  0.3341
   23GLOH    O2 8496   3.422   9.606   1.753  0.4377  0.1096 -0.5809
   23GLOH   H05 8497   3.440   9.667   1.680 -1.7146  1.4967 -0.0011
   23GLOH    C3 8498   3.523   9.389   1.757 -0.4558  0.1136  0.2520
   23GLOH   H06 8499   3.501   9.387   1.864  0.4528 -1.1603  0.4274
   23GLOH   H07 8500   3.621   9.431   1.736 -0.4410  0.7200  1.5195
   23GLOH    O3 8501   3.524   9.257   1.712  0.3869  0.0619 -0.7161
   23GLOH   H01 8502   3.568   9.198   1.775 -0.3123  0.5429  0.2325
   24GLOH   H03 8503   3.841   9.870   2.065  0.7634  1.5882  1.5708
   24GLOH    O1 8504   3.799   9.838   2.146 -0.4694 -0.2952  0.2208
   24GLOH    C1 8505   3.694   9.746   2.102 -0.2815 -0.5678 -0.1454
   24GLOH   H02 8506   3.738   9.649   2.125  0.8725 -0.0880 -0.3093
   24GLOH   H08 8507   3.673   9.752   1.996  1.4602 -2.0826 -0.5976
   24GLOH    C2 8508   3.575   9.758   2.199  0.3429  0.2941 -0.1356
   24GLOH   H04 8509   3.544   9.864   2.193  1.7643  0.7878  0.9880
   24GLOH    O2 8510   3.462   9.671   2.167  0.7242 -0.7603 -0.3987
   24GLOH   H05 8511   3.406   9.731   2.116  1.2651  1.4013  1.4668
   24GLOH    C3 8512   3.620   9.728   2.339 -0.2332  0.4068 -0.6830
   24GLOH   H06 8513   3.673   9.633   2.344 -1.5069 -0.2169  1.6052
   24GLOH   H07 8514   3.533   9.704   2.400  1.6355 -0.0245  1.9079
   24GLOH    O3 8515   3.704   9.829   2.390 -0.3430  0.5215  0.1867
   24GLOH   H01 8516   3.765   9.849   2.317  3.0627  3.0950  3.5646
   25GLOH   H03 8517   3.409   0.225   2.597 -2.7866 -2.4665  0.3925
   25GLOH    O1 8518   3.356   0.275   2.532 -0.5124 -0.3882  0.0886
   25GLOH    C1 8519   3.218   0.232   2.515 -0.0341  0.0146  0.6404
   25GLOH   H02 8520   3.154   0.317   2.495  2.2073  1.2704 -1.5491
   25GLOH   H08 8521   3.183   0.185   2.607  1.0196  1.3952  1.7743
   25GLOH    C2 8522   3.215   0.141   2.389  0.6174 -1.5369  0.1805
   25GLOH   H04 8523   3.117   0.094   2.372  0.0992 -0.6816  0.7934
   25GLOH    O2 8524   3.238   0.224   2.275  0.1123  0.0053  0.2615
   25GLOH   H05 8525   3.303   0.294   2.296 -0.5238  0.5011  0.6107
   25GLOH    C3 8526   3.322   0.030   2.386 -0.2708 -0.5342 -0.1824
   25GLOH   H06 8527   3.411   0.093   2.382 -1.1209  0.6514 -0.7301
   25GLOH   H07 8528   3.320  -0.025   2.292  0.3148 -0.3234 -0.3176
   25GLOH    O3 8529   3.310  -0.042   2.511  0.7263 -0.3195  0.3131
   25GLOH   H01 8530   3.348   0.005   2.588 -0.4623  1.1081  0.0569
   26GLOH   H03 8531   3.837   1.212   1.284  0.2380  0.5038 -0.8466
   26GLOH    O1 8532   3.902   1.257   1.342  0.1737  0.1325 -0.4930
   26GLOH    C1 8533   4.021   1.183   1.359  0.4033 -0.5034 -0.4393
   26GLOH   H02 8534   4.086   1.234   1.429  0.3306  3.0823 -2.8469
   26GLOH   H08 8535   4.079   1.180   1.266 -1.6519 -0.4492 -1.7403
   26GLOH    C2 8536   3.996   1.041   1.401 -0.4769  0.0266 -1.4070
   26GLOH   H04 8537   3.931   1.044   1.490 -0.0855 -1.7266 -1.0364
   26GLOH    O2 8538   3.934   0.973   1.291 -0.0273 -0.0698 -0.3109
   26GLOH   H05 8539   3.851   0.928   1.317 -0.5420  1.5286  0.9172
   26GLOH    C3 8540   4.131   0.968   1.425 -0.1481  0.1961 -0.8281
   26GLOH   H06 8541   4.191   0.960   1.335 -1.2447  1.9848 -1.7457
   26GLOH   H07 8542   4.094   0.871   1.461  0.6144  0.1343 -0.2050
   26GLOH    O3 8543   4.206   1.035   1.526  0.5331 -0.4875  0.0614
   26GLOH   H01 8544   4.162   1.098   1.587  0.0565 -0.8591  0.1033
   27GLOH   H03 8545   2.686   0.526   1.245  1.3719 -0.4617  0.2570
   27GLOH    O1 8546   2.766   0.557   1.198  0.7613  0.1261 -0.3849
   27GLOH    C1 8547   2.856   0.449   1.155  0.5573 -0.3799  0.3129
   27GLOH   H02 8548   2.926   0.507   1.095 -1.3696  0.1558 -1.4580
   27GLOH   H08 8549   2.810   0.378   1.087 -0.8259 -0.7315  1.5653
   27GLOH    C2 8550   2.939   0.381   1.263 -0.1009  0.1470 -0.6473
   27GLOH   H04 8551   2.864   0.320   1.317  1.4785  0.2950  1.8026
   27GLOH    O2 8552   3.044   0.297   1.199  0.1807  0.7493 -0.7119
   27GLOH   H05 8553   3.002   0.229   1.143  0.0335  0.7364 -0.5883
   27GLOH    C3 8554   3.014   0.472   1.366 -0.2672  0.0801  1.0222
   27GLOH   H06 8555   3.090   0.532   1.316  0.7392 -1.1141  1.0889
   27GLOH   H07 8556   3.073   0.404   1.427  2.1230  1.9861  0.8957
   27GLOH    O3 8557   2.921   0.551   1.455 -0.0794  0.1821 -0.3885
   27GLOH   H01 8558   2.851   0.583   1.396 -1.8081 -1.8619  0.4917
   28GLOH   H03 8559   4.300   0.886   1.563  1.5530  0.6344 -0.2895
   28GLOH    O1 8560   4.354   0.810   1.590  0.3358 -0.3813 -0.6882
   28GLOH    C1 8561   4.478   0.866   1.558 -0.4896 -0.2476  0.3385
   28GLOH   H02 8562   4.496   0.931   1.643  0.2101  1.6691 -1.2472
   28GLOH   H08 8563   4.484   0.934   1.473  2.5337  0.1672  0.8330
   28GLOH    C2 8564   4.580   0.754   1.533 -0.1939  0.4381 -0.2178
   28GLOH   H04 8565   4.531   0.686   1.462 -2.1995  1.4180  0.2027
   28GLOH    O2 8566   4.702   0.815   1.486  0.4002 -0.0208  0.1805
   28GLOH   H05 8567   4.681   0.856   1.401  0.1600 -1.6134 -0.5596
   28GLOH    C3 8568   4.586   0.676   1.668 -0.1005  0.0569  1.1650
   28GLOH   H06 8569   4.619   0.741   1.749  1.8885  0.4318  0.0786
   28GLOH   H07 8570   4.663   0.600   1.654 -0.6025  0.0474 -1.9215
   28GLOH    O3 8571   4.460   0.617   1.706 -0.2388 -0.7123  0.1207
   28GLOH   H01 8572   4.401   0.689   1.676 -0.6303 -1.9108 -2.1450
   29GLOH   H03 8573   3.706   1.680   1.502 -1.9026 -0.6237  1.9269
   29GLOH    O1 8574   3.769   1.618   1.541  0.0390  0.3286  0.3981
   29GLOH    C1 8575   3.703   1.496   1.573 -0.4484  0.5434 -0.9614
   29GLOH   H02 8576   3.662   1.445   1.486  0.4803 -2.5356  0.3311
   29GLOH   H08 8577   3.614   1.526   1.630 -0.0635 -1.6250  0.8624
   29GLOH    C2 8578   3.781   1.387   1.653 -0.4255  1.0358 -0.0317
   29GLOH   H04 8579   3.706   1.311   1.681  0.9869 -0.0684  0.8370
   29GLOH    O2 8580   3.894   1.332   1.585 -0.1945  0.0131 -0.2174
   29GLOH   H05 8581   3.874   1.324   1.490 -0.9173 -0.2232 -0.0414
   29GLOH    C3 8582   3.833   1.456   1.784  0.4661  1.1960 -0.5116
   29GLOH   H06 8583   3.745   1.497   1.833 -0.9957 -0.1476 -1.9690
   29GLOH   H07 8584   3.893   1.538   1.747 -1.8880  3.1406 -0.1248
   29GLOH    O3 8585   3.904   1.371   1.879 -0.5076 -0.4597  0.8853
   29GLOH   H01 8586   3.944   1.438   1.938 -0.5361 -0.3251  0.7529
   30GLOH   H03 8587   2.747   9.441   0.443  0.6250  0.0974  0.3957
   30GLOH    O1 8588   2.741   9.356   0.491  0.3305 -0.3603 -0.4268
   30GLOH    C1 8589   2.881   9.334   0.530 -0.0618  0.2745 -0.5576
   30GLOH   H02 8590   2.885   9.247   0.597 -4.0628  0.5850  0.1948
   30GLOH   H08 8591   2.915   9.419   0.589 -1.4144 -0.8448  1.9485
   30GLOH    C2 8592   2.977   9.314   0.412 -0.2720  0.5904 -0.3395
   30GLOH   H04 8593   2.951   9.388   0.335 -0.3365 -0.9000 -1.7724
   30GLOH    O2 8594   3.110   9.345   0.455 -0.6429  0.1790  0.2817
   30GLOH   H05 8595   3.162   9.363   0.375 -0.1994 -0.0902  0.5107
   30GLOH    C3 8596   2.945   9.175   0.357 -0.2964  0.1121 -0.0858
   30GLOH   H06 8597   2.848   9.180   0.309 -0.7414  1.6892  0.9408
   30GLOH   H07 8598   2.953   9.106   0.441  3.2994 -1.0048 -1.2298
   30GLOH    O3 8599   3.042   9.142   0.246 -0.4686  0.4353 -0.3400
   30GLOH   H01 8600   3.066   9.048   0.254 -0.1008  0.6470  1.3255
   31GLOH   H03 8601   3.102   1.188   0.754 -0.2979 -1.7051  0.6925
   31GLOH    O1 8602   3.173   1.138   0.709  0.2367 -0.4154  0.0670
   31GLOH    C1 8603   3.103   1.043   0.627  0.9812  0.1532  0.7830
   31GLOH   H02 8604   2.996   1.063   0.629  1.2175  1.5177  0.0047
   31GLOH   H08 8605   3.128   0.944   0.667  0.3695 -1.2675 -2.1663
   31GLOH    C2 8606   3.152   1.057   0.480  0.3131  0.6853  0.0030
   31GLOH   H04 8607   3.258   1.030   0.471  0.5553  1.7228 -0.2929
   31GLOH    O2 8608   3.077   0.971   0.389  0.1582  1.1730  0.0112
   31GLOH   H05 8609   3.136   0.917   0.334 -1.6836 -0.1464 -0.7590
   31GLOH    C3 8610   3.134   1.203   0.430 -1.3497 -0.2060  0.9820
   31GLOH   H06 8611   3.034   1.244   0.432 -0.6961  1.5770 -1.1154
   31GLOH   H07 8612   3.164   1.203   0.325 -0.6430  0.0175  1.1818
   31GLOH    O3 8613   3.216   1.292   0.504  0.1701  0.5063 -0.7468
   31GLOH   H01 8614   3.228   1.256   0.594  1.5626 -1.7044 -1.7823
   32GLOH   H03 8615   3.263   1.443   2.871 -0.5502  1.2819  0.7998
   32GLOH    O1 8616   3.176   1.439   2.828 -0.0805 -0.3504 -0.0402
   32GLOH    C1 8617   3.187   1.477   2.686 -0.2128  0.3629 -0.1288
   32GLOH   H02 8618   3.258   1.415   2.630  0.1996  0.1255  0.6551
   32GLOH   H08 8619   3.223   1.580   2.689  2.3998 -0.4821 -0.9257
   32GLOH    C2 8620   3.061   1.474   2.599  0.3177  0.1727  0.5512
   32GLOH   H04 8621   3.024   1.371   2.588 -1.3071  1.0824 -3.8697
   32GLOH    O2 8622   2.950   1.550   2.649 -0.1136 -0.1436  0.3141
   32GLOH   H05 8623   2.870   1.503   2.679  0.1502  0.5303  2.1315
   32GLOH    C3 8624   3.086   1.532   2.457 -0.5718  0.8370 -1.0951
   32GLOH   H06 8625   3.132   1.630   2.474  0.2156  0.4661 -1.0363
   32GLOH   H07 8626   2.989   1.546   2.409 -1.1536 -3.5269 -1.3711
   32GLOH    O3 8627   3.161   1.446   2.368 -0.5799 -0.2037  0.0168
   32GLOH   H01 8628   3.113   1.366   2.341 -0.0816 -0.3730 -0.3962
   33GLOH   H03 8629   4.036   0.013   1.535 -0.4595 -0.5455  0.8948
   33GLOH    O1 8630   3.963  -0.048   1.514 -0.6100 -0.0542 -0.0375
   33GLOH    C1 8631   4.007  -0.185   1.542 -0.4509  0.0088  0.4461
   33GLOH   H02 8632   4.035  -0.200   1.646 -0.1413 -0.7416  0.2627
   33GLOH   H08 8633   4.100  -0.206   1.488 -0.6153  0.0166  0.1576
   33GLOH    C2 8634   3.893  -0.285   1.508 -0.4063  0.0835 -0.2404
   33GLOH   H04 8635   3.873  -0.275   1.400 -1.5822 -0.8927 -0.1316
   33GLOH    O2 8636   3.928  -0.418   1.552  0.1197 -1.0086 -0.0981
   33GLOH   H05 8637   3.927  -0.431   1.648  1.9803 -0.0123  0.0915
   33GLOH    C3 8638   3.755  -0.245   1.569 -0.4004 -0.7140  0.1832
   33GLOH   H06 8639   3.740  -0.282   1.670 -0.0358 -0.1310  0.4502
   33GLOH   H07 8640   3.686  -0.306   1.509 -1.0738  1.2765 -1.1264
   33GLOH    O3 8641   3.729  -0.101   1.552 -0.3115  0.0788  0.6222
   33GLOH   H01 8642   3.812  -0.050   1.565  1.2263 -2.0488 -0.6479
   34GLOH   H03 8643   2.885   0.378   1.567  2.4052 -1.7370 -0.5291
   34GLOH    O1 8644   2.876   0.307   1.633 -0.3105 -0.1257  0.9391
   34GLOH    C1 8645   2.803   0.348   1.747 -0.0122  0.4366  0.2675
   34GLOH   H02 8646   2.866   0.389   1.825  0.9316 -1.5051  0.5647
   34GLOH   H08 8647   2.767   0.259   1.798 -1.6007  1.1456  0.4077
   34GLOH    C2 8648   2.678   0.436   1.711 -0.8097  0.4642 -0.4554
   34GLOH   H04 8649   2.718   0.534   1.681 -2.1735  0.4681 -2.3503
   34GLOH    O2 8650   2.607   0.375   1.601 -0.2142 -0.0389  0.1706
   34GLOH   H05 8651   2.662   0.296   1.588  2.1765  1.5826  0.2477
   34GLOH    C3 8652   2.580   0.451   1.830  0.5686 -0.7834 -0.7436
   34GLOH   H06 8653   2.510   0.367   1.835 -1.3224  0.6642 -2.0073
   34GLOH   H07 8654   2.519   0.540   1.814  0.0808 -0.8909  0.4543
   34GLOH    O3 8655   2.636   0.475   1.962  0.4351  0.2854  0.0655
   34GLOH   H01 8656   2.692   0.404   1.999 -1.0948 -1.0155 -0.0688
   35GLOH   H03 8657   3.353   0.906   1.097 -1.6898  1.3912 -0.8674
   35GLOH    O1 8658   3.346   0.883   1.002 -0.2742  0.0981 -0.6929
   35GLOH    C1 8659   3.370   1.011   0.937 -0.6167 -0.1274  0.3092
   35GLOH   H02 8660   3.357   1.091   1.010 -1.3353 -0.8771  1.0154
   35GLOH   H08 8661   3.294   1.020   0.860 -1.2805 -1.9889  0.7173
   35GLOH    C2 8662   3.499   1.029   0.868 -0.0791 -0.0413 -0.3091
   35GLOH   H04 8663   3.476   1.009   0.763  2.4573 -1.1541 -0.7005
   35GLOH    O2 8664   3.562   1.159   0.891  0.5054  0.3565  0.7721
   35GLOH   H05 8665   3.610   1.164   0.806 -3.6415  4.8057 -1.5395
   35GLOH    C3 8666   3.600   0.912   0.921 -0.1438 -0.2603  0.4940
   35GLOH   H06 8667   3.701   0.920   0.882  0.0400 -0.0117  1.0216
   35GLOH   H07 8668   3.558   0.816   0.892  0.8666 -1.0061  1.4430
   35GLOH    O3 8669   3.614   0.912   1.063  0.3230  0.0904 -0.0103
   35GLOH   H01 8670   3.546   0.851   1.096  1.4777 -1.6611 -0.7921
   36GLOH   H03 8671   3.773   1.277   2.721  1.3036  2.6089 -0.2939
   36GLOH    O1 8672   3.802   1.231   2.640 -0.8442  0.5556  0.0302
   36GLOH    C1 8673   3.788   1.091   2.640 -0.3510  0.9544 -0.3087
   36GLOH   H02 8674   3.748   1.067   2.739  1.2013  0.0172  0.1031
   36GLOH   H08 8675   3.879   1.033   2.631 -0.1472  1.4127 -1.2042
   36GLOH    C2 8676   3.694   1.043   2.529  0.2524 -0.0120 -0.1415
   36GLOH   H04 8677   3.703   1.104   2.438 -0.8818  0.2216 -0.1015
   36GLOH    O2 8678   3.728   0.904   2.509 -0.1812 -0.3270  0.2694
   36GLOH   H05 8679   3.822   0.913   2.488 -0.6653  0.6621 -1.6352
   36GLOH    C3 8680   3.542   1.068   2.558  0.1987  0.1653 -0.1317
   36GLOH   H06 8681   3.516   1.049   2.662 -2.9297 -3.1510 -1.4179
   36GLOH   H07 8682   3.476   1.013   2.491 -0.7898  1.9779 -0.6559
   36GLOH    O3 8683   3.495   1.204   2.547 -0.7227  0.1863  0.8251
   36GLOH   H01 8684   3.459   1.231   2.461 -1.9044 -0.2806  1.1692
   37GLOH   H03 8685   3.114   0.204   1.799 -3.2893  1.0506  1.9709
   37GLOH    O1 8686   3.150   0.294   1.804 -0.1007 -0.0311 -0.1711
   37GLOH    C1 8687   3.285   0.280   1.845  0.0860 -0.4059  0.4542
   37GLOH   H02 8688   3.343   0.193   1.817  0.9002 -0.3176  1.8229
   37GLOH   H08 8689   3.289   0.275   1.954 -1.2015 -1.5356  0.4716
   37GLOH    C2 8690   3.355   0.407   1.790 -0.7968 -0.0578 -0.0488
   37GLOH   H04 8691   3.352   0.485   1.868  1.7585 -0.7814  0.8262
   37GLOH    O2 8692   3.487   0.381   1.756 -1.4211 -0.0191 -0.3066
   37GLOH   H05 8693   3.546   0.410   1.827  1.5376 -0.4504 -2.4895
   37GLOH    C3 8694   3.291   0.471   1.668  0.3652  0.3079 -0.1582
   37GLOH   H06 8695   3.278   0.386   1.601  2.0657  0.9957 -1.3938
   37GLOH   H07 8696   3.362   0.547   1.634  1.9597 -0.0596  2.2417
   37GLOH    O3 8697   3.167   0.536   1.694  0.0722 -0.2194 -0.4942
   37GLOH   H01 8698   3.115   0.481   1.756  1.7133  1.5636  2.5975
   38GLOH   H03 8699   3.411   9.469   0.631 -0.3086  0.4790  0.4339
   38GLOH    O1 8700   3.410   9.565   0.652  0.2370  0.5975 -0.0531
   38GLOH    C1 8701   3.322   9.617   0.551  0.5269 -0.0853 -0.5248
   38GLOH   H02 8702   3.286   9.714   0.583 -0.6419 -1.2144  1.7485
   38GLOH   H08 8703   3.235   9.554   0.529 -1.5943  3.3673 -2.4548
   38GLOH    C2 8704   3.407   9.627   0.422  0.1430  0.5557 -0.4828
   38GLOH   H04 8705   3.507   9.663   0.451 -0.5285  0.8473  1.5531
   38GLOH    O2 8706   3.417   9.501   0.349  0.2530  0.2109  0.3021
   38GLOH   H05 8707   3.329   9.480   0.312  0.7889 -0.9307 -0.3407
   38GLOH    C3 8708   3.344   9.729   0.331  0.3791 -0.4622 -0.6164
   38GLOH   H06 8709   3.243   9.695   0.307  0.4526 -1.9244  1.0460
   38GLOH   H07 8710   3.398   9.714   0.237 -0.4918 -3.3610 -0.7247
   38GLOH    O3 8711   3.339   9.866   0.371 -0.1760  0.1350 -0.0249
   38GLOH   H01 8712   3.259   9.885   0.422 -0.4683  2.2281 -1.2008
   39GLOH   H03 8713   4.420   0.173   1.696 -1.1571  1.8603 -1.8429
   39GLOH    O1 8714   4.372   0.090   1.680  1.0588  0.2029 -0.2422
   39GLOH    C1 8715   4.355   0.031   1.812 -0.2540  0.2668  0.4607
   39GLOH   H02 8716   4.428   0.075   1.879  0.6957 -0.1150 -0.3050
   39GLOH   H08 8717   4.388  -0.073   1.807  1.4557  0.8367 -0.8469
   39GLOH    C2 8718   4.210   0.038   1.861 -0.0166  0.6829 -0.3819
   39GLOH   H04 8719   4.148   0.001   1.779  0.2024 -1.1546  0.2472
   39GLOH    O2 8720   4.181  -0.041   1.978  0.2972  0.4655  0.1303
   39GLOH   H05 8721   4.214   0.006   2.057  0.0209 -0.4293  0.7838
   39GLOH    C3 8722   4.172   0.180   1.898 -0.5991  0.2727  0.3051
   39GLOH   H06 8723   4.263   0.209   1.950  1.4683 -1.2210 -2.3463
   39GLOH   H07 8724   4.079   0.187   1.955 -1.9984 -1.0324 -1.7483
   39GLOH    O3 8725   4.155   0.267   1.787  0.4846 -0.0796 -0.3070
   39GLOH   H01 8726   4.078   0.322   1.806  0.7830  0.1880  0.1186
   40GLOH   H03 8727   3.310   8.671   0.466 -0.8389  0.5474  2.8316
   40GLOH    O1 8728   3.218   8.658   0.436 -0.0989 -0.7850  1.0615
   40GLOH    C1 8729   3.129   8.647   0.552  0.2057  0.1479  0.4721
   40GLOH   H02 8730   3.034   8.597   0.533  0.5266 -0.5793  0.7791
   40GLOH   H08 8731   3.107   8.743   0.598 -1.4920 -1.7917  3.8946
   40GLOH    C2 8732   3.189   8.562   0.670  0.2798 -0.0311 -0.6549
   40GLOH   H04 8733   3.209   8.468   0.617  1.1903 -0.5441  0.5679
   40GLOH    O2 8734   3.312   8.628   0.728 -0.2440  0.2097  0.2656
   40GLOH   H05 8735   3.371   8.645   0.653 -2.0590 -0.5876 -1.4092
   40GLOH    C3 8736   3.091   8.533   0.783 -0.0963  0.4069  0.0974
   40GLOH   H06 8737   3.081   8.634   0.821  2.0879  0.7926 -0.3413
   40GLOH   H07 8738   3.145   8.481   0.862  1.3927  0.0520 -1.1445
   40GLOH    O3 8739   2.959   8.472   0.746  0.1913  0.2837 -0.3248
   40GLOH   H01 8740   2.897   8.544   0.723 -0.7623 -0.8044 -1.2349
   41GLOH   H03 8741   2.429   0.410   0.371  0.9180 -1.0182  1.8244
   41GLOH    O1 8742   2.425   0.335   0.309 -0.4793 -0.1977  0.8954
   41GLOH    C1 8743   2.412   0.397   0.178 -0.1018  0.7724 -0.7974
   41GLOH   H02 8744   2.390   0.332   0.093 -0.5061 -1.2646  0.8472
   41GLOH   H08 8745   2.504   0.447   0.147  0.3951  0.4898  0.2361
   41GLOH    C2 8746   2.289   0.483   0.175 -0.5690 -1.1740  1.1407
   41GLOH   H04 8747   2.196   0.425   0.175 -2.9629  2.4649 -0.0800
   41GLOH    O2 8748   2.296   0.580   0.289 -0.7930 -0.2271  0.1282
   41GLOH   H05 8749   2.377   0.632   0.275 -1.7234  1.5117  1.0958
   41GLOH    C3 8750   2.304   0.566   0.037 -0.0800 -0.6023  0.2305
   41GLOH   H06 8751   2.376   0.648   0.038 -1.2942  0.4778  1.8073
   41GLOH   H07 8752   2.202   0.604   0.026  0.2687 -0.1626 -1.6887
   41GLOH    O3 8753   2.321   0.479  -0.075 -0.1063  0.1288  0.0085
   41GLOH   H01 8754   2.348   0.539  -0.147 -0.6201 -0.0150 -0.3116
   42GLOH   H03 8755   2.631   0.381   2.360 -0.4629 -0.9819  3.7995
   42GLOH    O1 8756   2.726   0.399   2.355 -0.7314 -0.1815  0.2046
   42GLOH    C1 8757   2.786   0.388   2.490 -0.8366  0.1476 -0.1341
   42GLOH   H02 8758   2.769   0.483   2.539  1.3945  1.1884 -1.2783
   42GLOH   H08 8759   2.893   0.371   2.479 -0.6110 -0.7990  3.0416
   42GLOH    C2 8760   2.727   0.278   2.571  0.3291 -0.3935 -0.0391
   42GLOH   H04 8761   2.756   0.185   2.520  0.1745 -0.8652  0.7276
   42GLOH    O2 8762   2.787   0.273   2.703  0.4067  0.3099  1.1308
   42GLOH   H05 8763   2.842   0.194   2.706  0.2685  0.2069  0.9738
   42GLOH    C3 8764   2.573   0.296   2.577 -0.1713  0.2488 -0.5156
   42GLOH   H06 8765   2.541   0.386   2.629 -1.4728 -0.4452 -0.0867
   42GLOH   H07 8766   2.532   0.217   2.639 -1.2384  0.2913 -1.1614
   42GLOH    O3 8767   2.514   0.280   2.442 -0.4626  0.1077 -0.5383
   42GLOH   H01 8768   2.513   0.183   2.432 -0.6831  0.0039  0.4729
   43GLOH   H03 8769   2.695   9.212   2.027 -0.1684  1.1243 -0.5920
   43GLOH    O1 8770   2.622   9.236   2.086  0.0884  0.2400  0.0984
   43GLOH    C1 8771   2.659   9.201   2.220 -0.1357  0.2542  0.3755
   43GLOH   H02 8772   2.646   9.095   2.243 -2.7356  0.5808  0.4514
   43GLOH   H08 8773   2.592   9.246   2.293  0.6234 -0.7424  1.7218
   43GLOH    C2 8774   2.806   9.232   2.256 -0.7349  0.1793 -0.3756
   43GLOH   H04 8775   2.822   9.208   2.362  6.7029  2.2343 -0.7088
   43GLOH    O2 8776   2.902   9.145   2.193 -0.1299  0.0042  0.1138
   43GLOH   H05 8777   2.967   9.127   2.263  0.8235  0.3224 -0.6681
   43GLOH    C3 8778   2.843   9.383   2.237  0.3211  1.1028  0.9114
   43GLOH   H06 8779   2.781   9.418   2.155  3.4874  2.2582 -1.0765
   43GLOH   H07 8780   2.948   9.395   2.210  0.6387 -2.1135  0.4849
   43GLOH    O3 8781   2.815   9.454   2.358  0.3022  0.0260  0.5472
   43GLOH   H01 8782   2.888   9.428   2.416 -0.1607 -3.2440 -0.2328
   44GLOH   H03 8783   3.665   0.787   2.446  0.1549 -1.1224  1.1427
   44GLOH    O1 8784   3.631   0.715   2.390 -0.0729 -0.1312 -0.0185
   44GLOH    C1 8785   3.612   0.596   2.472  0.1182  0.5286 -0.0347
   44GLOH   H02 8786   3.506   0.595   2.499  0.2368  2.4620  0.5608
   44GLOH   H08 8787   3.675   0.588   2.560 -1.2320  1.9477  1.0757
   44GLOH    C2 8788   3.637   0.465   2.397  0.2222 -0.5196 -0.0941
   44GLOH   H04 8789   3.738   0.489   2.362 -0.4031 -0.6443 -2.0454
   44GLOH    O2 8790   3.643   0.358   2.490 -0.3519 -0.4179 -0.3825
   44GLOH   H05 8791   3.595   0.281   2.455 -1.6890  0.0523  0.3938
   44GLOH    C3 8792   3.541   0.445   2.283 -0.2261 -0.4238 -0.2173
   44GLOH   H06 8793   3.572   0.358   2.225  0.7364  0.3966 -0.9565
   44GLOH   H07 8794   3.551   0.522   2.207 -0.1734 -1.4795 -1.2952
   44GLOH    O3 8795   3.405   0.434   2.324 -0.3377 -0.2966 -0.1705
   44GLOH   H01 8796   3.390   0.386   2.408  0.5703  0.7459  0.5971
   45GLOH   H03 8797   3.585   0.055   0.559  1.0916  1.6347 -3.7360
   45GLOH    O1 8798   3.533   0.133   0.589 -0.8668 -0.8767 -0.2026
   45GLOH    C1 8799   3.553   0.245   0.504 -0.5713 -0.3219 -0.4460
   45GLOH   H02 8800   3.463   0.283   0.456 -0.3005 -1.9757 -2.3837
   45GLOH   H08 8801   3.621   0.214   0.424 -0.2017 -0.0840 -0.2215
   45GLOH    C2 8802   3.634   0.358   0.574  0.2311  0.4102  0.0281
   45GLOH   H04 8803   3.663   0.429   0.496 -2.5766 -0.9504 -2.3509
   45GLOH    O2 8804   3.556   0.429   0.677  0.0369 -0.2953 -0.2891
   45GLOH   H05 8805   3.559   0.369   0.754  1.0310  0.0231 -0.0591
   45GLOH    C3 8806   3.760   0.304   0.640 -0.3108 -0.2567 -0.1219
   45GLOH   H06 8807   3.711   0.254   0.723  0.1589 -1.0597 -0.3227
   45GLOH   H07 8808   3.823   0.382   0.682  0.5611 -1.3831  0.6719
   45GLOH    O3 8809   3.846   0.215   0.564  0.1453  0.4702  0.0378
   45GLOH   H01 8810   3.820   0.128   0.598  1.9978 -0.0077  0.2538
   46GLOH   H03 8811   4.154   8.803   1.710  1.7566  3.8466 -1.7439
   46GLOH    O1 8812   4.091   8.807   1.636 -1.2529  0.8614  0.4932
   46GLOH    C1 8813   4.066   8.942   1.585  0.4546 -0.6097 -0.1840
   46GLOH   H02 8814   4.045   8.940   1.478  1.7277 -1.2828 -0.4288
   46GLOH   H08 8815   4.156   9.001   1.603  0.1469 -0.8980  2.4267
   46GLOH    C2 8816   3.935   9.007   1.647 -0.7854  0.9684  0.7582
   46GLOH   H04 8817   3.846   8.946   1.623 -0.2574  0.6751 -0.4864
   46GLOH    O2 8818   3.941   9.023   1.796 -0.3198 -0.2153 -0.5186
   46GLOH   H05 8819   3.973   9.112   1.820  0.2065 -0.7576  0.8579
   46GLOH    C3 8820   3.900   9.140   1.571 -0.7169 -0.4991 -0.1697
   46GLOH   H06 8821   3.811   9.187   1.612  2.9053  1.8142  5.6389
   46GLOH   H07 8822   3.900   9.114   1.465  3.0649  0.3090 -0.4414
   46GLOH    O3 8823   4.013   9.221   1.589 -0.1881 -0.5802 -0.2151
   46GLOH   H01 8824   4.015   9.263   1.677  0.0114  1.0397 -0.9692
   47GLOH   H03 8825   2.474   0.122   1.390  0.8235  3.0381 -1.9557
   47GLOH    O1 8826   2.552   0.143   1.445  0.3293  0.1600 -0.0276
   47GLOH    C1 8827   2.657   0.048   1.418  0.2968  0.4397  0.1002
   47GLOH   H02 8828   2.639  -0.033   1.489  1.6746  0.9425  1.0327
   47GLOH   H08 8829   2.751   0.094   1.446  0.3701  1.4520 -1.7205
   47GLOH    C2 8830   2.682  -0.003   1.279  0.3396  0.0331 -0.7274
   47GLOH   H04 8831   2.613  -0.084   1.251 -0.3909 -0.6963  2.9168
   47GLOH    O2 8832   2.675   0.106   1.184 -0.0444  0.4722  0.7808
   47GLOH   H05 8833   2.626   0.182   1.220  0.5856  0.4316  1.7236
   47GLOH    C3 8834   2.821  -0.069   1.281 -0.6619 -0.1432 -0.5481
   47GLOH   H06 8835   2.901  -0.002   1.313 -2.0395  0.5887  1.5073
   47GLOH   H07 8836   2.849  -0.100   1.181  3.7684 -1.7177  1.0716
   47GLOH    O3 8837   2.820  -0.193   1.354 -0.7864  0.2400  1.0486
   47GLOH   H01 8838   2.892  -0.201   1.420 -1.6213  1.0656  2.0826
   48GLOH   H03 8839   3.476   9.559   2.272  0.0423  0.7138  0.3983
   48GLOH    O1 8840   3.441   9.477   2.313  0.1917  0.1327 -0.6097
   48GLOH    C1 8841   3.436   9.370   2.216  0.3300 -0.9892  1.2114
   48GLOH   H02 8842   3.474   9.279   2.263  1.5025 -1.8830 -1.3717
   48GLOH   H08 8843   3.505   9.380   2.132  0.1785  0.9393  1.2988
   48GLOH    C2 8844   3.299   9.346   2.150 -0.4583 -0.5087  1.5776
   48GLOH   H04 8845   3.223   9.334   2.229 -0.4170 -0.3523  1.6407
   48GLOH    O2 8846   3.268   9.454   2.053 -0.4799 -0.6461 -0.6638
   48GLOH   H05 8847   3.230   9.523   2.109  0.9972  0.4777 -1.0149
   48GLOH    C3 8848   3.298   9.211   2.070 -0.9439  0.5250 -0.2109
   48GLOH   H06 8849   3.361   9.225   1.982  2.1413 -2.0826  1.4629
   48GLOH   H07 8850   3.194   9.197   2.041 -0.6207  0.8562 -1.5376
   48GLOH    O3 8851   3.342   9.095   2.148 -0.0674 -0.2280  0.5681
   48GLOH   H01 8852   3.296   9.020   2.108 -3.0155  1.8216 -0.0679
   49GLOH   H03 8853   3.763   0.426   1.040  1.6733  0.1775  0.7790
   49GLOH    O1 8854   3.741   0.501   1.099 -0.6863  0.1135  0.0187
   49GLOH    C1 8855   3.805   0.619   1.045  0.0006 -0.6601  0.9792
   49GLOH   H02 8856   3.729   0.696   1.031  1.4342  0.5163 -0.4810
   49GLOH   H08 8857   3.845   0.609   0.944  0.2694 -1.4681  1.1620
   49GLOH    C2 8858   3.900   0.687   1.142 -0.5815 -0.1747 -0.1626
   49GLOH   H04 8859   3.992   0.627   1.145 -0.3656  0.1363 -0.6395
   49GLOH    O2 8860   3.940   0.808   1.085  0.0399  0.3799 -0.4789
   49GLOH   H05 8861   3.933   0.875   1.156  0.1412 -0.1985  0.0757
   49GLOH    C3 8862   3.837   0.702   1.285 -0.0679  0.1826  0.1310
   49GLOH   H06 8863   3.922   0.705   1.354 -0.9589  2.0102  1.1970
   49GLOH   H07 8864   3.783   0.615   1.323 -0.6889  0.6455  0.3251
   49GLOH    O3 8865   3.739   0.803   1.306 -0.7016  0.3395  0.3572
   49GLOH   H01 8866   3.652   0.762   1.289 -1.1613  1.2823  0.4202
   50GLOH   H03 8867   4.166   0.391   1.049 -1.8118 -2.2193 -0.3319
   50GLOH    O1 8868   4.170   0.396   1.146 -0.0739 -0.0316 -0.4785
   50GLOH    C1 8869   4.305   0.365   1.182 -0.6011  0.5534 -0.6899
   50GLOH   H02 8870   4.353   0.308   1.103 -1.7970  1.7789 -2.3269
   50GLOH   H08 8871   4.315   0.300   1.269  2.2704  0.0322 -1.3777
   50GLOH    C2 8872   4.403   0.492   1.213  0.0533 -0.4516  0.1369
   50GLOH   H04 8873   4.391   0.548   1.119  2.4544  0.8179  0.5252
   50GLOH    O2 8874   4.371   0.575   1.325 -0.1203  0.3722  0.0514
   50GLOH   H05 8875   4.415   0.661   1.316  0.0004  0.3336  0.2789
   50GLOH    C3 8876   4.547   0.442   1.206  0.4376 -0.7035 -0.1107
   50GLOH   H06 8877   4.557   0.347   1.258 -0.4640 -0.8687 -0.2242
   50GLOH   H07 8878   4.608   0.524   1.242 -1.7168  1.2007 -0.6239
   50GLOH    O3 8879   4.591   0.416   1.071 -0.4558 -0.1015 -0.2815
   50GLOH   H01 8880   4.557   0.328   1.049 -2.1993 -0.3231  2.9994
   51GLOH   H03 8881   3.360   9.689   1.914 -2.0397  0.7700 -1.8906
   51GLOH    O1 8882   3.333   9.766   1.969 -0.2666 -0.1294  0.3119
   51GLOH    C1 8883   3.192   9.781   1.946  0.2170  0.0089 -0.3485
   51GLOH   H02 8884   3.143   9.688   1.917  0.6590 -0.0246 -1.0120
   51GLOH   H08 8885   3.167   9.859   1.873 -1.7134 -1.6885 -1.5473
   51GLOH    C2 8886   3.101   9.825   2.065  0.3134 -0.6795 -0.1100
   51GLOH   H04 8887   3.168   9.863   2.144 -0.7827 -3.5419  2.2864
   51GLOH    O2 8888   3.003   9.919   2.033  0.1448 -0.3979 -0.4316
   51GLOH   H05 8889   2.926   9.912   2.093  0.4066 -1.1188 -0.1806
   51GLOH    C3 8890   3.029   9.702   2.132  0.4718 -0.2350 -0.6626
   51GLOH   H06 8891   2.950   9.656   2.074 -0.5438 -0.1749  0.6530
   51GLOH   H07 8892   2.982   9.748   2.219 -1.5194 -0.0506 -1.8058
   51GLOH    O3 8893   3.121   9.613   2.177  0.7147 -0.2435 -0.0555
   51GLOH   H01 8894   3.163   9.653   2.255 -0.2869 -0.0802  0.4138
   52GLOH   H03 8895   2.175   9.845   0.515  1.9192  0.2458 -1.4542
   52GLOH    O1 8896   2.257   9.865   0.563  1.1359  0.6701 -0.2730
   52GLOH    C1 8897   2.363   9.902   0.476 -0.2789 -0.6471 -0.2296
   52GLOH   H02 8898   2.375   9.839   0.388  1.3277 -0.5022 -0.1178
   52GLOH   H08 8899   2.452   9.915   0.537 -0.5173 -1.9362  0.4265
   52GLOH    C2 8900   2.334  10.041   0.416  1.2450  0.5112  0.0262
   52GLOH   H04 8901   2.352  10.108   0.501  0.1500  0.9560 -0.0830
   52GLOH    O2 8902   2.433  10.081   0.320 -0.1447  0.0227 -0.1444
   52GLOH   H05 8903   2.439  10.177   0.308  1.4578 -0.4023 -3.4551
   52GLOH    C3 8904   2.196  10.058   0.350 -0.0373  0.5066  0.2693
   52GLOH   H06 8905   2.181  10.163   0.328 -0.1695  0.4910  0.2834
   52GLOH   H07 8906   2.118  10.035   0.423  0.3494 -0.4742  0.3940
   52GLOH    O3 8907   2.192   9.976   0.238  0.1573  0.1470 -1.1351
   52GLOH   H01 8908   2.278   9.983   0.194  0.6423  0.3670 -0.1608
   53GLOH   H03 8909   3.584   9.081   1.191  1.8778 -1.6556 -0.2401
   53GLOH    O1 8910   3.661   9.140   1.179  0.6226 -0.0145 -0.3753
   53GLOH    C1 8911   3.676   9.220   1.298  0.0228  0.2999 -0.2150
   53GLOH   H02 8912   3.781   9.243   1.317 -0.6820  1.9178  1.9391
   53GLOH   H08 8913   3.637   9.157   1.378  0.0912  0.6647  0.1038
   53GLOH    C2 8914   3.612   9.362   1.307  0.5833  0.0455 -0.1035
   53GLOH   H04 8915   3.602   9.402   1.409  2.5174  2.7885 -0.9218
   53GLOH    O2 8916   3.665   9.459   1.219 -0.3631  0.0883  0.2832
   53GLOH   H05 8917   3.755   9.485   1.247  0.2151  0.8331 -2.0792
   53GLOH    C3 8918   3.461   9.345   1.261  0.8733 -0.3256  0.2064
   53GLOH   H06 8919   3.459   9.319   1.155  1.8289 -0.1772  0.1422
   53GLOH   H07 8920   3.411   9.441   1.273  1.2834 -0.0025 -0.6274
   53GLOH    O3 8921   3.400   9.239   1.340 -0.6798  0.6005 -0.6354
   53GLOH   H01 8922   3.425   9.153   1.303  0.3224 -0.3891  2.2857
   54GLOH   H03 8923   4.376   9.476   1.187  0.4724  0.5915  1.0287
   54GLOH    O1 8924   4.385   9.391   1.234 -0.4412  0.2398  0.5707
   54GLOH    C1 8925   4.368   9.414   1.373  0.2109  0.1495  0.1539
   54GLOH   H02 8926   4.292   9.491   1.385 -0.6362 -0.5969 -0.3602
   54GLOH   H08 8927   4.454   9.458   1.424  0.7669  0.0653 -0.6914
   54GLOH    C2 8928   4.317   9.284   1.439  0.2425  0.3087  0.4225
   54GLOH   H04 8929   4.401   9.215   1.454 -0.1360 -0.0125  1.0609
   54GLOH    O2 8930   4.273   9.315   1.577  0.2865  0.6513 -0.6952
   54GLOH   H05 8931   4.179   9.293   1.588  0.4580 -0.3590 -1.1524
   54GLOH    C3 8932   4.210   9.217   1.357  0.0059  0.5782  0.8507
   54GLOH   H06 8933   4.125   9.285   1.353 -1.3319 -1.0015  1.8311
   54GLOH   H07 8934   4.173   9.129   1.410 -0.2641  0.6316  0.7517
   54GLOH    O3 8935   4.250   9.180   1.222 -0.0973 -0.0946  0.3511
   54GLOH   H01 8936   4.315   9.251   1.207  0.1956  0.4574  3.9190
   55GLOH   H03 8937   4.027   1.270   1.684  2.7232  4.6403 -0.0595
   55GLOH    O1 8938   4.102   1.209   1.703 -0.6906  0.2172 -0.0124
   55GLOH    C1 8939   4.080   1.112   1.805 -0.3583 -0.2154  0.1842
   55GLOH   H02 8940   4.131   1.018   1.782  1.5693  0.8034  0.1112
   55GLOH   H08 8941   3.978   1.079   1.825 -1.4433  0.6350 -3.5791
   55GLOH    C2 8942   4.156   1.147   1.938  0.9527 -0.0206 -0.1217
   55GLOH   H04 8943   4.105   1.234   1.983 -0.4379 -0.4390 -0.8469
   55GLOH    O2 8944   4.143   1.040   2.035 -0.1947  0.4040  0.0310
   55GLOH   H05 8945   4.182   0.953   2.013 -1.4297 -0.4573  1.1318
   55GLOH    C3 8946   4.303   1.187   1.905 -0.0661  0.1299 -0.4448
   55GLOH   H06 8947   4.346   1.113   1.837 -3.7193 -1.5657 -1.0589
   55GLOH   H07 8948   4.352   1.193   2.002 -3.5629  1.5022  1.3160
   55GLOH    O3 8949   4.303   1.316   1.856 -0.0755  0.1128 -0.0745
   55GLOH   H01 8950   4.237   1.319   1.784 -0.1080 -2.0252 -0.1659
   56GLOH   H03 8951   2.964   0.619   0.601  0.1624 -0.0331 -0.2256
   56GLOH    O1 8952   2.955   0.537   0.549 -0.1956 -0.1406  0.0037
   56GLOH    C1 8953   3.019   0.541   0.421 -0.0644  0.6843  0.1849
   56GLOH   H02 8954   3.028   0.438   0.387 -0.6456  1.4828 -2.4746
   56GLOH   H08 8955   3.122   0.573   0.435  0.6808 -0.2869 -2.8215
   56GLOH    C2 8956   2.961   0.618   0.306 -0.6854  0.1645 -0.5250
   56GLOH   H04 8957   2.981   0.725   0.325 -1.3787  0.1241  0.4786
   56GLOH    O2 8958   3.026   0.574   0.181 -0.0309 -0.3479 -0.2279
   56GLOH   H05 8959   3.009   0.648   0.120 -1.1878  0.2497  0.7779
   56GLOH    C3 8960   2.808   0.584   0.298  0.6035  0.4727  0.1821
   56GLOH   H06 8961   2.754   0.640   0.373 -0.0833  0.1435 -0.0661
   56GLOH   H07 8962   2.796   0.481   0.331  0.3343  0.6056  0.4987
   56GLOH    O3 8963   2.757   0.606   0.173  0.7613 -0.4221  0.2463
   56GLOH   H01 8964   2.810   0.548   0.114  2.1219  1.8846 -0.8651
   57GLOH   H03 8965   2.626   9.078   0.739  2.7769  1.4433 -1.8115
   57GLOH    O1 8966   2.654   9.107   0.828  0.0191  0.0929 -0.4221
   57GLOH    C1 8967   2.546   9.151   0.913 -0.1469  0.8977  0.1622
   57GLOH   H02 8968   2.568   9.139   1.019 -2.8188 -2.2254  0.4603
   57GLOH   H08 8969   2.454   9.094   0.896 -0.5383  1.0659  1.6246
   57GLOH    C2 8970   2.510   9.300   0.883 -0.1326 -0.1217  1.1687
   57GLOH   H04 8971   2.460   9.307   0.785 -3.5372 -1.7125  2.7055
   57GLOH    O2 8972   2.418   9.354   0.982 -0.1125  0.2259 -0.0022
   57GLOH   H05 8973   2.420   9.451   0.974  0.3400  0.0807 -2.0779
   57GLOH    C3 8974   2.637   9.384   0.861  0.1974 -0.2249  0.0220
   57GLOH   H06 8975   2.618   9.477   0.807  1.5206  1.9847  3.1652
   57GLOH   H07 8976   2.697   9.325   0.793  2.6763  0.8772  1.1955
   57GLOH    O3 8977   2.722   9.416   0.966  0.2066 -0.3929 -0.1771
   57GLOH   H01 8978   2.766   9.336   1.002  0.8199  1.4556  3.3994
   58GLOH   H03 8979   3.750   9.983   1.370 -3.2238 -0.6375  1.3894
   58GLOH    O1 8980   3.710  10.009   1.285 -0.0308 -0.1116 -0.0502
   58GLOH    C1 8981   3.569  10.042   1.304 -0.0875 -0.3229 -0.8593
   58GLOH   H02 8982   3.534   9.975   1.382  0.5582 -0.1536 -0.4208
   58GLOH   H08 8983   3.519  10.005   1.215 -3.2444 -0.9729  1.1205
   58GLOH    C2 8984   3.523  10.182   1.335 -0.2578  0.7324  0.0422
   58GLOH   H04 8985   3.562  10.255   1.263  0.8637 -1.5887 -1.7437
   58GLOH    O2 8986   3.380  10.173   1.334  0.7311  0.2692  0.2053
   58GLOH   H05 8987   3.347  10.253   1.290  1.2871  1.5407  2.0549
   58GLOH    C3 8988   3.572  10.227   1.475 -0.0371 -0.2674 -0.1703
   58GLOH   H06 8989   3.680  10.222   1.468  0.3440  0.0271  3.9872
   58GLOH   H07 8990   3.543  10.155   1.552  0.8716 -0.3450  0.0972
   58GLOH    O3 8991   3.533  10.360   1.507 -0.3405 -0.4826  0.3030
   58GLOH   H01 8992   3.557  10.374   1.600  1.5270 -1.5835  0.0054
   59GLOH   H03 8993   4.220   0.312   0.818 -0.4824 -1.2014  1.0099
   59GLOH    O1 8994   4.239   0.382   0.883 -0.1637 -0.5155  0.1827
   59GLOH    C1 8995   4.171   0.506   0.843  0.7844  0.6046  0.2664
   59GLOH   H02 8996   4.167   0.581   0.923  0.4337 -1.9495  2.7020
   59GLOH   H08 8997   4.068   0.481   0.819  1.3552 -2.3746  0.8153
   59GLOH    C2 8998   4.243   0.574   0.726  0.1173  0.2587  0.6874
   59GLOH   H04 8999   4.263   0.508   0.640  0.3987  0.1942  0.8008
   59GLOH    O2 9000   4.169   0.688   0.681  0.5231 -0.0557  0.1758
   59GLOH   H05 9001   4.223   0.762   0.649 -1.4012  1.2806 -0.1045
   59GLOH    C3 9002   4.379   0.627   0.773  0.5424 -0.7260 -0.3514
   59GLOH   H06 9003   4.365   0.690   0.861  0.7936 -1.9982  0.6227
   59GLOH   H07 9004   4.437   0.678   0.696  0.3034 -1.4275 -0.9986
   59GLOH    O3 9005   4.457   0.510   0.796 -0.8788 -0.0113  0.3334
   59GLOH   H01 9006   4.393   0.442   0.825  0.0503 -0.4488  1.3762
   60GLOH   H03 9007   2.711   9.889   2.220 -2.0193  3.9822 -0.6261
   60GLOH    O1 9008   2.780   9.902   2.152 -0.3201 -0.2262  0.1131
   60GLOH    C1 9009   2.700   9.956   2.043 -0.4000  0.0289 -0.9216
   60GLOH   H02 9010   2.605   9.901   2.044 -0.0176 -0.6471 -1.7254
   60GLOH   H08 9011   2.756   9.938   1.951  0.6068  0.8712 -0.4776
   60GLOH    C2 9012   2.661  10.106   2.050 -0.2489 -1.1249 -0.6183
   60GLOH   H04 9013   2.628  10.125   1.946  1.0663 -0.9908 -1.0190
   60GLOH    O2 9014   2.565  10.141   2.153 -0.0020 -0.4367 -0.5784
   60GLOH   H05 9015   2.546  10.236   2.144 -1.5949 -0.9002 -2.7650
   60GLOH    C3 9016   2.794  10.176   2.074  0.5658  0.4494  0.8696
   60GLOH   H06 9017   2.852  10.169   1.982  0.3465  3.0654  0.4772
   60GLOH   H07 9018   2.845  10.121   2.153  4.2103  1.1287 -0.9115
   60GLOH    O3 9019   2.776  10.313   2.104 -0.3648  0.0628 -0.5447
   60GLOH   H01 9020   2.792  10.327   2.199  1.6981  0.5602 -0.9491
   61GLOH   H03 9021   3.254   9.962   0.050 -0.0994 -0.0526  0.1905
   61GLOH    O1 9022   3.234   9.873   0.016  0.0004 -0.0993  0.2555
   61GLOH    C1 9023   3.130   9.880  -0.086 -0.3352  0.0777 -0.1405
   61GLOH   H02 9024   3.091   9.779  -0.087  0.6272 -0.3232  1.1686
   61GLOH   H08 9025   3.183   9.894  -0.180  0.1580  0.6226  0.2148
   61GLOH    C2 9026   3.027   9.991  -0.058  0.8923 -0.4127  0.1004
   61GLOH   H04 9027   3.075  10.089  -0.043 -2.5273  1.2167  0.9525
   61GLOH    O2 9028   2.924  10.006  -0.163 -0.2467 -0.5250  0.5695
   61GLOH   H05 9029   2.878   9.921  -0.171 -0.3983 -0.3133 -0.8762
   61GLOH    C3 9030   2.963   9.941   0.073  0.9032 -0.0813 -0.1257
   61GLOH   H06 9031   2.904  10.025   0.111  0.8799  0.0539 -0.4564
   61GLOH   H07 9032   3.038   9.926   0.151 -0.2487  5.6013  2.3222
   61GLOH    O3 9033   2.893   9.819   0.051 -0.0141  0.1778  0.6456
   61GLOH   H01 9034   2.933   9.750   0.108  0.6874  0.1335  0.1146
   62GLOH   H03 9035   4.306   9.659   1.362 -1.0660  3.4660 -2.5114
   62GLOH    O1 9036   4.317   9.725   1.434 -0.6206  0.4622  0.2930
   62GLOH    C1 9037   4.368   9.846   1.395 -0.5886 -0.7095  0.1814
   62GLOH   H02 9038   4.477   9.836   1.397 -0.6017 -0.7181  3.7913
   62GLOH   H08 9039   4.344   9.926   1.465  1.3470 -1.0282  1.2546
   62GLOH    C2 9040   4.332   9.891   1.246 -0.0002  0.2017 -1.3979
   62GLOH   H04 9041   4.225   9.911   1.231 -0.1671  1.5437  1.2394
   62GLOH    O2 9042   4.403  10.010   1.214  0.4043 -0.0425 -0.2972
   62GLOH   H05 9043   4.417  10.070   1.289 -0.2388 -0.4380  0.1491
   62GLOH    C3 9044   4.358   9.774   1.143  0.2668 -1.2069  0.0308
   62GLOH   H06 9045   4.465   9.773   1.123  0.4058  0.4961  0.6052
   62GLOH   H07 9046   4.311   9.809   1.051  1.2204 -0.5451 -0.2142
   62GLOH    O3 9047   4.305   9.646   1.188  0.4253 -0.3894 -0.1044
   62GLOH   H01 9048   4.257   9.599   1.117  2.1412 -1.0607 -0.8437
   63GLOH   H03 9049   3.911   1.214   0.804 -0.3237  1.8176 -0.1104
   63GLOH    O1 9050   3.899   1.204   0.901 -0.2389 -0.4011 -0.2874
   63GLOH    C1 9051   3.992   1.121   0.966  1.0817  0.1893  0.5340
   63GLOH   H02 9052   3.933   1.067   1.040 -0.3198  1.9050  0.7092
   63GLOH   H08 9053   4.066   1.169   1.030  0.4278  1.5730  0.2575
   63GLOH    C2 9054   4.062   1.016   0.882  0.3839  0.0960 -0.2685
   63GLOH   H04 9055   4.137   1.067   0.819  1.8955 -0.6609  0.8927
   63GLOH    O2 9056   4.128   0.918   0.958 -0.7065 -0.4866 -0.8488
   63GLOH   H05 9057   4.063   0.886   1.023  1.5990  0.4719  2.0690
   63GLOH    C3 9058   3.976   0.929   0.786  0.0169 -0.0100  0.6500
   63GLOH   H06 9059   3.888   0.902   0.844  0.5016 -1.3082  0.8079
   63GLOH   H07 9060   4.023   0.838   0.749  1.6855  0.5119  1.4047
   63GLOH    O3 9061   3.938   0.999   0.667 -0.2180 -0.2935  0.2265
   63GLOH   H01 9062   3.996   0.968   0.594  1.7712  2.8541  0.3883
   64GLOH   H03 9063   3.215   0.468   0.216 -0.7464 -0.0577 -1.7785
   64GLOH    O1 9064   3.296   0.497   0.171  0.2339  0.5770  0.3396
   64GLOH    C1 9065   3.313   0.434   0.042 -0.6701 -0.2423 -0.8975
   64GLOH   H02 9066   3.320   0.326   0.058 -0.0976 -0.1325 -0.4197
   64GLOH   H08 9067   3.399   0.478  -0.008 -1.5062  1.0713 -1.1943
   64GLOH    C2 9068   3.193   0.439  -0.055  0.2526  0.2144 -0.7108
   64GLOH   H04 9069   3.216   0.368  -0.136  0.0200 -0.6913  0.0161
   64GLOH    O2 9070   3.062   0.411   0.004 -0.2345 -0.5723 -0.1796
   64GLOH   H05 9071   3.053   0.445   0.095  0.7108 -0.8550  0.0281
   64GLOH    C3 9072   3.190   0.581  -0.123 -0.4769  0.6841 -0.4213
   64GLOH   H06 9073   3.143   0.652  -0.054  1.5714 -1.3213  3.2167
   64GLOH   H07 9074   3.126   0.562  -0.209  0.0082 -0.4206 -0.5527
   64GLOH    O3 9075   3.317   0.635  -0.166 -0.4154  0.4457 -0.7318
   64GLOH   H01 9076   3.306   0.678  -0.253 -0.0978 -1.5313 -1.7597
   65GLOH   H03 9077   3.763   9.109   1.087  0.2660  0.8492  1.4083
   65GLOH    O1 9078   3.838   9.082   1.031 -0.5336  0.4139  0.5190
   65GLOH    C1 9079   3.949   9.043   1.108  0.2638  0.3752 -0.2518
   65GLOH   H02 9080   3.909   8.968   1.176  0.8683 -0.5959 -0.9602
   65GLOH   H08 9081   3.977   9.129   1.168 -1.9693 -0.0205  1.4137
   65GLOH    C2 9082   4.066   8.992   1.028 -0.3477  0.1359 -0.0908
   65GLOH   H04 9083   4.104   9.070   0.961  0.3812 -0.4755 -0.3976
   65GLOH    O2 9084   4.170   8.946   1.112 -0.2416  0.0276  0.1793
   65GLOH   H05 9085   4.214   9.029   1.138  1.0405 -1.4301  2.9321
   65GLOH    C3 9086   4.015   8.873   0.956  0.0565 -0.9421  0.5679
   65GLOH   H06 9087   3.973   8.795   1.019 -0.9874 -0.3662  0.5929
   65GLOH   H07 9088   4.105   8.829   0.912  0.4032  0.2436  0.0759
   65GLOH    O3 9089   3.918   8.912   0.856 -0.8990  0.0183  0.1135
   65GLOH   H01 9090   3.857   8.966   0.910  0.3793  1.8564 -0.2463
   66GLOH   H03 9091   3.904   8.823   0.189  1.4478 -3.7839  0.6195
   66GLOH    O1 9092   3.874   8.818   0.282 -0.2974  0.1830  0.3672
   66GLOH    C1 9093   3.970   8.885   0.370  0.1449  0.0550  0.3857
   66GLOH   H02 9094   3.965   8.993   0.355  1.8086 -0.0404 -0.9670
   66GLOH   H08 9095   4.074   8.858   0.352 -0.2762  0.2501 -2.6019
   66GLOH    C2 9096   3.935   8.882   0.522  0.4872 -0.7061  0.1665
   66GLOH   H04 9097   3.961   8.779   0.551 -1.2522 -1.3621 -0.5374
   66GLOH    O2 9098   4.016   8.971   0.599  0.2356 -0.5660  0.6998
   66GLOH   H05 9099   3.994   8.956   0.692  0.3971  2.2758  1.2426
   66GLOH    C3 9100   3.781   8.876   0.544 -0.4360 -0.2950 -0.1270
   66GLOH   H06 9101   3.747   8.977   0.525 -1.4470 -0.8042 -1.0716
   66GLOH   H07 9102   3.768   8.868   0.652  3.2978 -0.8266  0.3635
   66GLOH    O3 9103   3.719   8.778   0.459 -0.7416 -0.1437 -0.3843
   66GLOH   H01 9104   3.766   8.769   0.374  2.6443  1.2493  1.2656
   67GLOH   H03 9105   3.789   1.267   1.885  1.0863 -1.0603  0.6410
   67GLOH    O1 9106   3.718   1.211   1.922 -0.1295  0.1125  0.1265
   67GLOH    C1 9107   3.787   1.126   2.015  0.3261 -0.2876 -0.1537
   67GLOH   H02 9108   3.860   1.185   2.070 -2.5230  2.5646  0.6781
   67GLOH   H08 9109   3.840   1.041   1.971  2.9336  1.3038 -0.2153
   67GLOH    C2 9110   3.693   1.073   2.123  0.2547 -0.1291 -0.1583
   67GLOH   H04 9111   3.636   0.992   2.076  1.9013 -2.7123  2.0804
   67GLOH    O2 9112   3.776   1.011   2.219  0.2917 -0.3396  0.4848
   67GLOH   H05 9113   3.858   1.062   2.229 -0.3750  0.4324  2.3126
   67GLOH    C3 9114   3.610   1.182   2.188 -0.2593 -0.4931  0.3073
   67GLOH   H06 9115   3.572   1.252   2.113 -2.6112 -0.2209  1.6949
   67GLOH   H07 9116   3.680   1.247   2.240 -0.8746 -1.1995  2.0370
   67GLOH    O3 9117   3.504   1.125   2.263  0.3954  0.1231  0.4009
   67GLOH   H01 9118   3.503   1.031   2.238  1.5001  0.7252 -2.0481
   68GLOH   H03 9119   2.608   0.115   0.979 -0.7370  1.5961 -1.4770
   68GLOH    O1 9120   2.620   0.066   0.896  0.3490 -0.3953 -0.1751
   68GLOH    C1 9121   2.530  -0.037   0.877  0.0581  0.1642  0.1244
   68GLOH   H02 9122   2.533  -0.113   0.954  1.1559  0.1295  0.0576
   68GLOH   H08 9123   2.563  -0.094   0.790 -4.3521  0.2125 -1.6877
   68GLOH    C2 9124   2.389   0.006   0.850  0.1537 -0.3820  0.1724
   68GLOH   H04 9125   2.390   0.068   0.760  0.8596 -1.8090 -0.8287
   68GLOH    O2 9126   2.306  -0.110   0.826  0.7763 -0.4408 -0.2536
   68GLOH   H05 9127   2.280  -0.101   0.733  2.8863 -0.3895 -0.8593
   68GLOH    C3 9128   2.331   0.082   0.973  0.1950  0.4688  1.2006
   68GLOH   H06 9129   2.331   0.010   1.055  1.2707 -2.0998 -0.9449
   68GLOH   H07 9130   2.227   0.102   0.949 -0.3847 -3.5794 -0.0389
   68GLOH    O3 9131   2.391   0.204   0.989 -0.2950  0.1415  0.4754
   68GLOH   H01 9132   2.379   0.216   1.085  1.3946  0.5229  0.6607
   69GLOH   H03 9133   3.988   1.688   2.000  1.3138  0.3256 -0.4108
   69GLOH    O1 9134   3.997   1.594   1.973  0.8081  0.1465  0.0082
   69GLOH    C1 9135   4.133   1.551   1.995 -0.6262 -0.5360 -0.5227
   69GLOH   H02 9136   4.209   1.625   1.971 -0.4325  0.2644  2.4305
   69GLOH   H08 9137   4.154   1.472   1.922 -0.8324 -1.9717  0.9429
   69GLOH    C2 9138   4.173   1.497   2.129  0.1112  1.2522 -0.5229
   69GLOH   H04 9139   4.094   1.431   2.168 -0.6820  1.3030 -2.0075
   69GLOH    O2 9140   4.301   1.426   2.113 -0.1049 -0.4402  0.7018
   69GLOH   H05 9141   4.333   1.416   2.021 -0.8475 -1.1746  0.5238
   69GLOH    C3 9142   4.175   1.609   2.229  0.4738 -1.4015 -0.8111
   69GLOH   H06 9143   4.219   1.701   2.191  1.7238 -0.4936  2.6480
   69GLOH   H07 9144   4.248   1.574   2.302 -0.0549 -0.5958  0.1140
   69GLOH    O3 9145   4.050   1.642   2.294 -0.1003  0.4811 -0.1495
   69GLOH   H01 9146   4.000   1.559   2.296  2.9995 -1.4272  2.7344
   70GLOH   H03 9147   3.583   9.162   0.272 -0.9003 -0.2889  2.3878
   70GLOH    O1 9148   3.496   9.137   0.236  0.2246 -0.1340 -0.6222
   70GLOH    C1 9149   3.447   9.038   0.322  0.2749 -0.5470 -0.1674
   70GLOH   H02 9150   3.525   8.981   0.371  0.3025 -0.2213  0.1717
   70GLOH   H08 9151   3.388   8.967   0.265  3.5341 -2.6191 -1.1213
   70GLOH    C2 9152   3.344   9.105   0.414  1.2924 -0.2403  0.0574
   70GLOH   H04 9153   3.269   9.145   0.345  1.8197  0.1694 -0.2812
   70GLOH    O2 9154   3.283   9.014   0.504 -0.3676  0.2200 -0.0171
   70GLOH   H05 9155   3.353   8.998   0.569 -1.1473 -2.7262  0.1451
   70GLOH    C3 9156   3.404   9.226   0.494  0.3176 -0.6659 -0.2861
   70GLOH   H06 9157   3.459   9.293   0.428 -3.3207  3.0482  0.2991
   70GLOH   H07 9158   3.483   9.184   0.556  0.5585 -1.5888 -1.1950
   70GLOH    O3 9159   3.310   9.302   0.576  0.8103  0.2645 -0.0526
   70GLOH   H01 9160   3.225   9.304   0.529  0.2230  1.4495  1.0216
   71GLOH   H03 9161   3.515   0.057   2.113  0.4399  0.0946 -1.8755
   71GLOH    O1 9162   3.587   0.111   2.152  0.1119 -0.7155 -0.1221
   71GLOH    C1 9163   3.696   0.113   2.062  0.2973  0.0044  0.4140
   71GLOH   H02 9164   3.699   0.020   2.006  0.8990  1.7513 -2.5800
   71GLOH   H08 9165   3.792   0.117   2.114  0.6756 -0.5420 -0.2284
   71GLOH    C2 9166   3.673   0.222   1.958 -0.0494 -0.1653  0.2257
   71GLOH   H04 9167   3.570   0.204   1.924 -0.3916  1.1048  0.5366
   71GLOH    O2 9168   3.683   0.359   1.998  0.6290  1.1219  0.2635
   71GLOH   H05 9169   3.761   0.373   2.054  1.4811  1.1493 -0.8992
   71GLOH    C3 9170   3.759   0.202   1.826 -0.1150  0.2732  0.2498
   71GLOH   H06 9171   3.862   0.226   1.853 -0.1429 -1.5876  2.1835
   71GLOH   H07 9172   3.742   0.277   1.749 -2.9697  0.5090  1.0791
   71GLOH    O3 9173   3.765   0.065   1.782  0.9996  0.4906  0.1261
   71GLOH   H01 9174   3.680   0.026   1.809  0.8686  0.0945 -0.8160
   72GLOH   H03 9175   3.604   9.153   2.685  1.2093  0.1143  0.7560
   72GLOH    O1 9176   3.651   9.081   2.639 -0.4172 -0.3352 -0.2393
   72GLOH    C1 9177   3.625   9.081   2.498  0.1433  1.5725 -0.1175
   72GLOH   H02 9178   3.712   9.119   2.445  0.8880 -0.6258 -0.5287
   72GLOH   H08 9179   3.547   9.155   2.482  0.8020  2.1972 -0.5042
   72GLOH    C2 9180   3.600   8.932   2.449  0.8683 -0.0528 -0.2059
   72GLOH   H04 9181   3.655   8.850   2.498  0.8058 -1.9458 -3.1957
   72GLOH    O2 9182   3.465   8.889   2.461  0.5210  0.0614  0.4330
   72GLOH   H05 9183   3.442   8.888   2.555  1.2603  1.9794  0.6514
   72GLOH    C3 9184   3.635   8.933   2.298  0.4692 -0.7563  1.1825
   72GLOH   H06 9185   3.604   8.844   2.244  1.6103 -1.4680  1.6742
   72GLOH   H07 9186   3.744   8.930   2.291  0.6360  2.6819  1.3296
   72GLOH    O3 9187   3.588   9.044   2.228 -1.0383  0.2218  0.6205
   72GLOH   H01 9188   3.492   9.031   2.236 -0.9608  0.5545  2.4037
   73GLOH   H03 9189   3.544   1.344   2.638  1.5632 -0.3460 -3.0412
   73GLOH    O1 9190   3.551   1.441   2.646  0.1342 -0.4307 -0.0274
   73GLOH    C1 9191   3.660   1.496   2.566  0.3654  0.2501  0.1162
   73GLOH   H02 9192   3.662   1.453   2.466  1.9628  1.5740 -0.4553
   73GLOH   H08 9193   3.754   1.471   2.615  0.8169  1.5445 -0.0678
   73GLOH    C2 9194   3.659   1.648   2.556 -0.3693 -0.2962  0.9970
   73GLOH   H04 9195   3.688   1.686   2.655 -1.4206  0.9539  0.8378
   73GLOH    O2 9196   3.761   1.679   2.459  0.4990  0.2333 -0.1238
   73GLOH   H05 9197   3.793   1.605   2.405 -0.9132 -0.2974 -0.2580
   73GLOH    C3 9198   3.532   1.715   2.510  0.1763  0.8438 -0.5308
   73GLOH   H06 9199   3.505   1.657   2.422 -0.2344 -0.1241  0.2217
   73GLOH   H07 9200   3.544   1.822   2.489  3.5612  1.0678  2.2052
   73GLOH    O3 9201   3.423   1.691   2.602 -0.1885 -0.2303  0.2795
   73GLOH   H01 9202   3.434   1.600   2.633 -2.9286 -0.3662  0.9877
   74GLOH   H03 9203   3.350   8.985   1.318  0.7622  0.1125  2.2466
   74GLOH    O1 9204   3.443   8.997   1.291  0.2471  0.0707  0.4183
   74GLOH    C1 9205   3.519   8.908   1.374  0.3762 -0.5007 -0.6004
   74GLOH   H02 9206   3.455   8.845   1.436 -0.0474  0.8518  0.3452
   74GLOH   H08 9207   3.579   8.954   1.452  0.0968 -1.1618  0.0103
   74GLOH    C2 9208   3.635   8.830   1.301  0.7070 -0.4736 -0.3128
   74GLOH   H04 9209   3.690   8.910   1.250  1.4814 -0.0302  1.1661
   74GLOH    O2 9210   3.730   8.776   1.393  0.8934  0.4050  0.3517
   74GLOH   H05 9211   3.803   8.752   1.333  1.5546  0.0980  1.2720
   74GLOH    C3 9212   3.579   8.725   1.205 -0.0437 -0.0648  0.2590
   74GLOH   H06 9213   3.523   8.644   1.251 -0.4919  0.0415 -0.0975
   74GLOH   H07 9214   3.667   8.678   1.160 -0.6353 -0.5485 -0.4078
   74GLOH    O3 9215   3.508   8.792   1.105 -0.0026  0.0912  0.0481
   74GLOH   H01 9216   3.463   8.731   1.045 -0.9500 -0.4350  1.2517
   75GLOH   H03 9217   4.315   0.121   2.242 -0.5573 -0.0869  0.8624
   75GLOH    O1 9218   4.243   0.088   2.185 -0.0842  0.2564  0.0595
   75GLOH    C1 9219   4.134   0.035   2.263  0.0822 -0.1692 -0.4183
   75GLOH   H02 9220   4.139  -0.073   2.279  2.1762  0.1612  1.3099
   75GLOH   H08 9221   4.040   0.066   2.217  1.0266  1.9298 -0.9878
   75GLOH    C2 9222   4.137   0.089   2.408  0.2553  0.4133 -0.3704
   75GLOH   H04 9223   4.092   0.189   2.397 -1.2691 -0.0087  1.7813
   75GLOH    O2 9224   4.060   0.014   2.503 -0.0016 -0.4121 -0.5210
   75GLOH   H05 9225   3.974   0.058   2.515 -0.3043 -1.0555 -0.2683
   75GLOH    C3 9226   4.283   0.099   2.457 -0.0761 -1.1828 -0.5261
   75GLOH   H06 9227   4.331   0.001   2.458  1.2200 -0.5953  3.1833
   75GLOH   H07 9228   4.273   0.125   2.562  1.1074 -2.7133 -0.0131
   75GLOH    O3 9229   4.362   0.206   2.396 -0.1257  0.4610  0.0047
   75GLOH   H01 9230   4.408   0.270   2.455  1.7501  0.1635 -1.0936
   76GLOH   H03 9231   3.687   1.199   0.048 -0.6603 -1.0963 -1.6879
   76GLOH    O1 9232   3.728   1.275   0.002 -0.2927  0.1065  0.5338
   76GLOH    C1 9233   3.833   1.316   0.091  0.0091  0.2569  0.0774
   76GLOH   H02 9234   3.915   1.366   0.039 -0.4882  1.2052  0.1979
   76GLOH   H08 9235   3.879   1.226   0.131 -2.2539 -0.5816  0.8147
   76GLOH    C2 9236   3.781   1.420   0.192 -0.6057  1.2418 -0.5523
   76GLOH   H04 9237   3.695   1.369   0.238  2.6377 -4.2924 -0.2324
   76GLOH    O2 9238   3.892   1.427   0.293 -0.6032  0.0080  0.6415
   76GLOH   H05 9239   3.847   1.448   0.377  2.2172 -0.5419  2.3388
   76GLOH    C3 9240   3.749   1.559   0.132 -0.5761  0.2516  0.2865
   76GLOH   H06 9241   3.834   1.619   0.100 -1.7834  1.4364 -0.7957
   76GLOH   H07 9242   3.700   1.625   0.203 -1.6095  1.2855 -1.3340
   76GLOH    O3 9243   3.660   1.538   0.018  0.0984 -0.5539 -0.6512
   76GLOH   H01 9244   3.659   1.446  -0.014 -1.1270 -1.0531  0.7811
   77GLOH   H03 9245   4.355   0.771   0.002  0.7987  3.9027  2.7386
   77GLOH    O1 9246   4.269   0.801  -0.035  0.0289 -0.4509  0.5580
   77GLOH    C1 9247   4.296   0.898  -0.141 -0.7057 -0.1267  0.0993
   77GLOH   H02 9248   4.328   0.850  -0.234 -0.3731  0.6145 -0.1755
   77GLOH   H08 9249   4.374   0.969  -0.116 -0.1053 -0.9852  0.6570
   77GLOH    C2 9250   4.166   0.976  -0.177  0.0190 -1.0827  0.0041
   77GLOH   H04 9251   4.179   1.026  -0.274 -0.5720  0.5273  0.7424
   77GLOH    O2 9252   4.053   0.890  -0.180  0.6247 -0.2864 -0.0235
   77GLOH   H05 9253   4.044   0.867  -0.275  0.9093  1.3699 -0.4661
   77GLOH    C3 9254   4.127   1.071  -0.056  0.8456 -0.3490 -0.3844
   77GLOH   H06 9255   4.132   1.005   0.031  0.4311 -0.1238 -0.1937
   77GLOH   H07 9256   4.024   1.105  -0.066  0.6611 -0.6165  0.5445
   77GLOH    O3 9257   4.225   1.175  -0.052  0.1310 -0.3754  0.5718
   77GLOH   H01 9258   4.228   1.209   0.040  4.5287  1.8316 -0.2627
   78GLOH   H03 9259   3.599   1.056   1.328 -0.6250 -0.3643 -0.7324
   78GLOH    O1 9260   3.535   1.020   1.392  0.7651 -0.4644  0.6151
   78GLOH    C1 9261   3.504   1.101   1.506 -0.3867  0.9065  0.0160
   78GLOH   H02 9262   3.399   1.091   1.534  0.3506 -0.4646  2.3689
   78GLOH   H08 9263   3.520   1.208   1.489  1.8671  0.5791 -0.0425
   78GLOH    C2 9264   3.597   1.068   1.629 -0.2328  0.4967 -0.1807
   78GLOH   H04 9265   3.694   1.115   1.606 -0.9496  1.1718 -1.9284
   78GLOH    O2 9266   3.548   1.126   1.753  0.6643  0.2263  0.0909
   78GLOH   H05 9267   3.607   1.146   1.828  1.1313 -1.7174  0.2548
   78GLOH    C3 9268   3.618   0.921   1.645  0.2185 -0.2513 -0.3835
   78GLOH   H06 9269   3.526   0.883   1.601  0.2046  0.0449 -0.6084
   78GLOH   H07 9270   3.623   0.894   1.750  4.0747  2.1421  0.1753
   78GLOH    O3 9271   3.728   0.866   1.564  0.3190 -0.1697 -0.0950
   78GLOH   H01 9272   3.714   0.886   1.470  1.2005  2.3260  0.2752
   79GLOH   H03 9273   3.708   9.852   2.568 -0.4313  0.1797 -0.0622
   79GLOH    O1 9274   3.679   9.888   2.654 -0.1344  0.3364 -0.0252
   79GLOH    C1 9275   3.577   9.793   2.678  0.0165 -0.7692  0.2561
   79GLOH   H02 9276   3.585   9.700   2.621 -3.8753 -2.6413  2.5466
   79GLOH   H08 9277   3.487   9.842   2.638  0.1395 -1.1188 -0.4500
   79GLOH    C2 9278   3.544   9.785   2.825 -0.2554 -0.4913  0.4495
   79GLOH   H04 9279   3.530   9.887   2.864 -0.4357 -0.4359  0.2394
   79GLOH    O2 9280   3.427   9.708   2.846  1.0872 -0.2223 -0.2072
   79GLOH   H05 9281   3.350   9.767   2.852 -0.0169 -1.5579 -0.8488
   79GLOH    C3 9282   3.670   9.732   2.902  0.8251 -0.0804 -0.0247
   79GLOH   H06 9283   3.704   9.640   2.855  1.1809  0.4339 -0.7876
   79GLOH   H07 9284   3.652   9.714   3.008 -1.0907 -0.8772 -0.4778
   79GLOH    O3 9285   3.766   9.842   2.896  0.5200  0.8758  0.3761
   79GLOH   H01 9286   3.764   9.874   2.803  0.7947  0.4653  0.2280
   80GLOH   H03 9287   4.178   9.094   2.525 -0.3809 -1.6174  3.0868
   80GLOH    O1 9288   4.123   9.028   2.479 -0.1495  0.3877 -0.2006
   80GLOH    C1 9289   4.157   9.029   2.336  0.4470 -0.8457  0.3052
   80GLOH   H02 9290   4.252   8.979   2.313  0.2748  0.1124 -2.6739
   80GLOH   H08 9291   4.158   9.131   2.297  1.5824 -0.9012  0.1499
   80GLOH    C2 9292   4.042   8.970   2.263  0.2247 -0.1216  0.2545
   80GLOH   H04 9293   3.953   9.034   2.275 -0.2676 -1.2416  2.8210
   80GLOH    O2 9294   4.065   8.953   2.120  0.5946 -0.0125 -0.2001
   80GLOH   H05 9295   3.984   8.919   2.079  1.1924  1.4824 -2.7481
   80GLOH    C3 9296   4.008   8.829   2.318 -0.1470 -0.3637 -0.4251
   80GLOH   H06 9297   4.094   8.764   2.299 -1.1392 -0.5377 -4.9237
   80GLOH   H07 9298   3.933   8.774   2.261  0.5768 -1.1293 -0.6550
   80GLOH    O3 9299   3.970   8.841   2.455 -0.1789 -0.1848  0.2929
   80GLOH   H01 9300   4.022   8.914   2.494 -1.2090  0.1077  1.1363
   81GLOH   H03 9301   3.389   0.103   0.649 -0.0145 -0.0695  1.2599
   81GLOH    O1 9302   3.291   0.103   0.643  0.0579 -0.7004  0.1041
   81GLOH    C1 9303   3.247   0.230   0.698  0.4186 -0.7338 -0.0528
   81GLOH   H02 9304   3.319   0.302   0.660 -0.1421 -0.0291  0.1970
   81GLOH   H08 9305   3.265   0.221   0.805 -0.5634 -2.3419 -0.0043
   81GLOH    C2 9306   3.107   0.290   0.671  0.8160 -0.1541  0.1359
   81GLOH   H04 9307   3.108   0.335   0.571 -2.1445 -0.0312  0.1421
   81GLOH    O2 9308   2.998   0.199   0.689 -0.2689  0.7005 -0.0564
   81GLOH   H05 9309   2.918   0.226   0.641 -0.3615  2.7114  1.1605
   81GLOH    C3 9310   3.091   0.398   0.784 -0.0343 -0.4570  0.7917
   81GLOH   H06 9311   3.106   0.349   0.880 -0.8675 -0.6615  0.8165
   81GLOH   H07 9312   2.992   0.442   0.788 -0.1214 -0.5519 -0.2532
   81GLOH    O3 9313   3.199   0.500   0.778  0.1823  0.0263 -0.3078
   81GLOH   H01 9314   3.238   0.518   0.690  1.1400 -0.0490  0.0881
   82GLOH   H03 9315   3.041   8.771   1.921 -0.3323 -0.7949  1.7825
   82GLOH    O1 9316   3.111   8.703   1.922  0.0791 -0.3950  0.7192
   82GLOH    C1 9317   3.195   8.739   1.812 -0.6310  0.1000  0.7735
   82GLOH   H02 9318   3.152   8.828   1.764 -0.1181 -0.1226 -0.1157
   82GLOH   H08 9319   3.207   8.658   1.740 -0.1397  0.3519  0.5717
   82GLOH    C2 9320   3.336   8.761   1.865 -0.9111  0.4122  0.4077
   82GLOH   H04 9321   3.378   8.670   1.911  0.1318  0.0678 -1.1703
   82GLOH    O2 9322   3.424   8.784   1.753 -0.0993 -0.1557  0.3030
   82GLOH   H05 9323   3.376   8.839   1.689 -1.6709  0.0071  1.5793
   82GLOH    C3 9324   3.347   8.875   1.970  0.1337  0.5160  0.0810
   82GLOH   H06 9325   3.294   8.963   1.932 -1.7392 -0.2581  0.8397
   82GLOH   H07 9326   3.450   8.887   2.001  0.4728 -0.1685 -0.7676
   82GLOH    O3 9327   3.269   8.835   2.080  0.5149 -0.3086 -0.1353
   82GLOH   H01 9328   3.197   8.784   2.039  1.2071  0.5862 -2.5142
   83GLOH   H03 9329   4.144   0.517   2.597  1.3044 -1.7622 -0.8919
   83GLOH    O1 9330   4.069   0.488   2.542 -0.1619 -0.0529  0.1213
   83GLOH    C1 9331   4.087   0.532   2.407 -0.2854  0.1277  1.0013
   83GLOH   H02 9332   4.014   0.488   2.340  0.6286  1.5508 -0.9535
   83GLOH   H08 9333   4.183   0.493   2.371 -1.3891 -0.3634 -1.4767
   83GLOH    C2 9334   4.096   0.685   2.402 -0.0037 -0.1994  0.4036
   83GLOH   H04 9335   4.164   0.732   2.475  3.4423 -1.0998 -2.0919
   83GLOH    O2 9336   4.144   0.727   2.270  0.0298  0.1447 -0.4071
   83GLOH   H05 9337   4.103   0.658   2.215 -0.2337 -1.2968  1.5495
   83GLOH    C3 9338   3.965   0.747   2.428  0.3621 -0.1076  0.0425
   83GLOH   H06 9339   3.911   0.710   2.515 -1.8526  2.6274 -0.1015
   83GLOH   H07 9340   3.902   0.708   2.348 -0.1503  0.5395  0.1302
   83GLOH    O3 9341   3.972   0.889   2.444  0.2350 -0.0498  0.4990
   83GLOH   H01 9342   4.021   0.937   2.374 -0.4486 -1.0882 -0.7257
   84GLOH   H03 9343   3.609   0.585   1.161  0.9981 -0.2424 -0.0880
   84GLOH    O1 9344   3.545   0.642   1.207  0.4728 -0.6475 -0.3125
   84GLOH    C1 9345   3.439   0.571   1.264  0.3661 -0.1508  0.6340
   84GLOH   H02 9346   3.349   0.631   1.278 -0.5414 -1.3057 -0.1732
   84GLOH   H08 9347   3.469   0.530   1.361 -1.1500 -3.3179 -0.1582
   84GLOH    C2 9348   3.397   0.457   1.168 -0.1795 -0.0393 -0.4881
   84GLOH   H04 9349   3.486   0.398   1.142 -0.1977  0.0810 -0.8273
   84GLOH    O2 9350   3.305   0.371   1.221  0.4333 -0.0016  0.6419
   84GLOH   H05 9351   3.222   0.419   1.214  1.1548  1.2021  0.1932
   84GLOH    C3 9352   3.351   0.515   1.028  0.0337 -0.4960 -0.1740
   84GLOH   H06 9353   3.358   0.432   0.957  2.5023 -0.1255 -0.4177
   84GLOH   H07 9354   3.431   0.582   0.996  0.8012  0.3466  3.3086
   84GLOH    O3 9355   3.218   0.571   1.022 -0.0140 -0.1661 -0.7527
   84GLOH   H01 9356   3.185   0.549   0.933 -3.1433  2.7096 -0.4376
   85GLOH   H03 9357   4.251   0.057   0.577 -0.3960  1.9432 -0.1050
   85GLOH    O1 9358   4.159   0.052   0.544 -0.4143 -0.5365  0.2163
   85GLOH    C1 9359   4.165   0.013   0.407  0.1684  0.7356 -0.1818
   85GLOH   H02 9360   4.190   0.101   0.349  1.3179  0.3660 -0.2585
   85GLOH   H08 9361   4.065  -0.017   0.375  0.6221 -0.0669 -0.8949
   85GLOH    C2 9362   4.256  -0.105   0.376  0.3965  0.4456  0.6785
   85GLOH   H04 9363   4.211  -0.190   0.430  0.3480  0.0977  0.0965
   85GLOH    O2 9364   4.261  -0.132   0.233 -0.5995 -0.0790 -0.2409
   85GLOH   H05 9365   4.299  -0.051   0.193  3.4635 -0.8314  1.7827
   85GLOH    C3 9366   4.392  -0.089   0.439  0.0068  0.0183 -0.2915
   85GLOH   H06 9367   4.440  -0.004   0.391  0.5998  0.2047  0.6148
   85GLOH   H07 9368   4.455  -0.178   0.431  1.7031  0.8556  2.9670
   85GLOH    O3 9369   4.382  -0.070   0.587 -0.5706 -0.5550  0.4555
   85GLOH   H01 9370   4.426   0.011   0.619 -3.0871  2.1153 -2.5365
   86GLOH   H03 9371   3.925   9.876   0.849 -0.5019 -0.7679  0.9671
   86GLOH    O1 9372   3.900   9.951   0.907 -0.1991 -0.0793  0.2190
   86GLOH    C1 9373   3.759   9.984   0.886  0.0136  0.0457 -0.0510
   86GLOH   H02 9374   3.749  10.017   0.783 -0.8069 -0.6400 -0.1960
   86GLOH   H08 9375   3.735  10.070   0.949  1.6755  0.5941 -0.1326
   86GLOH    C2 9376   3.656   9.872   0.901  0.7593  0.6488 -0.7192
   86GLOH   H04 9377   3.685   9.796   0.827  0.5391 -1.1244  0.9935
   86GLOH    O2 9378   3.659   9.806   1.032 -0.5042  0.2603  0.2776
   86GLOH   H05 9379   3.746   9.763   1.038 -0.9669 -0.5904  1.2625
   86GLOH    C3 9380   3.515   9.927   0.865 -0.4225 -0.6811  0.2901
   86GLOH   H06 9381   3.441   9.851   0.891 -1.6664  0.8394  1.2741
   86GLOH   H07 9382   3.491   9.948   0.761  1.3337  1.6914  0.3397
   86GLOH    O3 9383   3.474  10.049   0.933 -0.5298  0.4467  0.1319
   86GLOH   H01 9384   3.402  10.025   0.995 -0.7554 -0.4488 -0.4590
   87GLOH   H03 9385   3.270   9.799   2.448 -0.5156 -1.2318  2.9230
   87GLOH    O1 9386   3.221   9.728   2.403 -0.4721 -0.0932  1.0504
   87GLOH    C1 9387   3.174   9.637   2.505 -1.0674  0.0183 -1.5063
   87GLOH   H02 9388   3.065   9.636   2.497 -1.2665  3.3187  0.0676
   87GLOH   H08 9389   3.189   9.667   2.608 -1.4579  1.9593 -1.9873
   87GLOH    C2 9390   3.209   9.488   2.496 -0.1669 -0.2319 -0.5555
   87GLOH   H04 9391   3.197   9.473   2.388  0.5870 -1.7257 -0.4526
   87GLOH    O2 9392   3.344   9.462   2.541  0.3012  0.4440  0.0088
   87GLOH   H05 9393   3.413   9.469   2.473  0.0479  1.6311 -0.1414
   87GLOH    C3 9394   3.112   9.399   2.576  1.2214 -0.3586 -0.1033
   87GLOH   H06 9395   3.113   9.413   2.684  0.8370 -0.1866 -0.1213
   87GLOH   H07 9396   3.154   9.300   2.559  0.5215 -0.5285 -0.9173
   87GLOH    O3 9397   2.977   9.398   2.524 -0.2772 -0.2407 -0.5835
   87GLOH   H01 9398   2.919   9.402   2.603  3.4988  0.5795  2.3011
   88GLOH   H03 9399   2.529   0.898   0.570  1.0029 -2.4334  0.9588
   88GLOH    O1 9400   2.462   0.856   0.514 -0.4944  0.4071  0.5050
   88GLOH    C1 9401   2.447   0.896   0.380 -0.2955  0.4594  0.4726
   88GLOH   H02 9402   2.453   1.004   0.364 -0.8971  0.6393  1.4199
   88GLOH   H08 9403   2.349   0.857   0.354  0.2810 -0.8735  0.2626
   88GLOH    C2 9404   2.559   0.840   0.288  0.0937  0.0578  0.0811
   88GLOH   H04 9405   2.654   0.847   0.343 -0.0193 -0.0365  0.2891
   88GLOH    O2 9406   2.541   0.704   0.247 -0.7071 -0.2273  0.4331
   88GLOH   H05 9407   2.627   0.659   0.249 -0.7670 -0.3969 -0.6260
   88GLOH    C3 9408   2.583   0.935   0.171  0.2854  0.6554  0.0843
   88GLOH   H06 9409   2.598   1.037   0.207 -0.2154 -0.2990  3.2333
   88GLOH   H07 9410   2.490   0.927   0.114 -0.5352 -0.7021  1.5726
   88GLOH    O3 9411   2.696   0.905   0.093 -0.3448 -0.4337 -0.1549
   88GLOH   H01 9412   2.666   0.890   0.002 -0.0672  4.1262 -1.0982
   89GLOH   H03 9413   4.299   9.073   2.010  0.1310 -0.0427 -0.9184
   89GLOH    O1 9414   4.379   9.018   2.023  0.5521  0.7235 -0.2744
   89GLOH    C1 9415   4.482   9.042   1.925  0.2753  0.4026  0.1327
   89GLOH   H02 9416   4.449   9.030   1.822  0.3697 -1.4991  0.3122
   89GLOH   H08 9417   4.566   8.976   1.945 -0.3038  0.2871  2.3416
   89GLOH    C2 9418   4.525   9.192   1.939 -0.0703 -0.4505  0.8698
   89GLOH   H04 9419   4.540   9.216   2.045  2.4735 -0.3587  0.5199
   89GLOH    O2 9420   4.658   9.219   1.873 -0.1236  0.4876 -0.2124
   89GLOH   H05 9421   4.722   9.237   1.944  0.1821 -0.6536 -0.1929
   89GLOH    C3 9422   4.414   9.286   1.881 -0.3775  0.5687 -0.6490
   89GLOH   H06 9423   4.400   9.254   1.778  1.1459 -0.8625 -0.4332
   89GLOH   H07 9424   4.449   9.389   1.888  0.5107  0.3703 -2.0186
   89GLOH    O3 9425   4.288   9.262   1.954 -0.2431  0.2524  0.0507
   89GLOH   H01 9426   4.263   9.352   1.982 -1.3610  0.3013 -1.0589
   90GLOH   H03 9427   3.227   1.412   1.906  1.1991  0.1088 -0.2153
   90GLOH    O1 9428   3.187   1.324   1.921  0.4733  0.4892  0.0926
   90GLOH    C1 9429   3.284   1.230   1.872 -0.0626  0.3727 -0.3182
   90GLOH   H02 9430   3.380   1.241   1.922  0.7920 -0.2978 -1.7669
   90GLOH   H08 9431   3.308   1.228   1.765 -0.6936 -2.1217 -0.4563
   90GLOH    C2 9432   3.240   1.079   1.885  0.1631  0.0117 -0.2767
   90GLOH   H04 9433   3.161   1.054   1.812 -2.2370  0.4669  2.0888
   90GLOH    O2 9434   3.349   0.990   1.845 -0.1399  0.6682 -0.0952
   90GLOH   H05 9435   3.431   1.030   1.812  0.9860  0.5182  2.4114
   90GLOH    C3 9436   3.215   1.044   2.032 -0.8984  0.1805 -0.1990
   90GLOH   H06 9437   3.312   1.065   2.078 -1.3843  0.8092  0.5533
   90GLOH   H07 9438   3.198   0.937   2.039 -0.5751  0.2141  1.4121
   90GLOH    O3 9439   3.112   1.133   2.080 -0.0382  0.6415  0.2211
   90GLOH   H01 9440   3.097   1.201   2.012 -0.8051 -0.3900 -0.6437
   91GLOH   H03 9441   4.034   0.601   0.612 -0.1927 -1.9485  1.2954
   91GLOH    O1 9442   3.982   0.537   0.560 -1.2931 -0.3073  0.3348
   91GLOH    C1 9443   3.895   0.612   0.470  0.5999  0.9190  0.1625
   91GLOH   H02 9444   3.828   0.676   0.528  2.1348  0.5725  2.3384
   91GLOH   H08 9445   3.834   0.545   0.409  1.5665  1.5520 -1.5558
   91GLOH    C2 9446   3.962   0.706   0.374  0.3721 -0.1861 -0.1410
   91GLOH   H04 9447   3.889   0.739   0.299 -2.0525 -1.3224  1.6361
   91GLOH    O2 9448   4.004   0.832   0.439 -0.0990  0.9804 -0.2288
   91GLOH   H05 9449   3.998   0.898   0.368 -2.3011 -0.2784 -1.2816
   91GLOH    C3 9450   4.085   0.636   0.311  0.7510 -0.0389  0.5864
   91GLOH   H06 9451   4.157   0.628   0.393  1.1851  1.8382  0.4207
   91GLOH   H07 9452   4.131   0.714   0.249  2.0587  0.0508  1.6332
   91GLOH    O3 9453   4.065   0.510   0.246  0.2341 -0.0211  0.1773
   91GLOH   H01 9454   4.044   0.433   0.303 -1.0657  1.7318  2.1323
   92GLOH   H03 9455   4.050   9.420   2.432  0.5170  0.7080 -0.4273
   92GLOH    O1 9456   3.993   9.375   2.368  0.0862  0.1625  0.3297
   92GLOH    C1 9457   4.084   9.364   2.252  0.1364 -0.1976 -0.3356
   92GLOH   H02 9458   4.044   9.280   2.195  0.9039  0.5393 -1.9877
   92GLOH   H08 9459   4.185   9.336   2.284 -0.4020 -2.6828 -0.6684
   92GLOH    C2 9460   4.095   9.486   2.164  0.0294  0.7453  0.7138
   92GLOH   H04 9461   4.132   9.574   2.219  0.5224  0.3438  1.0307
   92GLOH    O2 9462   4.174   9.476   2.037 -0.5040 -0.4786 -0.0066
   92GLOH   H05 9463   4.169   9.561   1.990 -0.5164  1.1046  2.7804
   92GLOH    C3 9464   3.944   9.531   2.146  0.4534 -0.0962  0.4074
   92GLOH   H06 9465   3.951   9.628   2.096 -1.0325 -0.7688 -1.1752
   92GLOH   H07 9466   3.901   9.546   2.244  1.8959 -0.5382  1.1171
   92GLOH    O3 9467   3.878   9.432   2.060  0.0896 -0.0257 -0.9358
   92GLOH   H01 9468   3.836   9.369   2.122  2.2836 -1.8420 -1.2314
   93GLOH   H03 9469   2.776   9.214   1.852  2.3831 -0.2233 -0.5883
   93GLOH    O1 9470   2.766   9.142   1.917 -0.0604  0.4844 -0.1171
   93GLOH    C1 9471   2.687   9.033   1.866 -0.0279  0.2677  0.4121
   93GLOH   H02 9472   2.596   9.064   1.814  0.6125  0.7777 -0.4354
   93GLOH   H08 9473   2.664   8.981   1.958  0.0106  2.3413  1.6323
   93GLOH    C2 9474   2.757   8.947   1.761 -0.6913  0.4551  0.5597
   93GLOH   H04 9475   2.685   8.890   1.700  0.7960 -0.8876  0.0242
   93GLOH    O2 9476   2.825   9.032   1.658 -0.2973  0.1544 -0.0263
   93GLOH   H05 9477   2.910   9.062   1.694 -0.7391 -0.9695  2.0422
   93GLOH    C3 9478   2.850   8.848   1.836 -0.3086  0.4590 -0.2190
   93GLOH   H06 9479   2.900   8.797   1.753  2.0939  1.4048  0.6155
   93GLOH   H07 9480   2.780   8.790   1.895 -1.7776  1.4506 -0.9399
   93GLOH    O3 9481   2.952   8.907   1.920  0.2293  0.5876  0.5471
   93GLOH   H01 9482   2.945   9.004   1.927 -1.9357  0.4932 -0.1183
   94GLOH   H03 9483   3.224   0.607   2.380 -0.6969  1.6142  2.8299
   94GLOH    O1 9484   3.131   0.579   2.378 -0.2774  0.3262 -0.5838
   94GLOH    C1 9485   3.085   0.538   2.250 -0.3076 -0.6522 -0.1463
   94GLOH   H02 9486   2.983   0.501   2.257 -0.4575  0.0697  2.2124
   94GLOH   H08 9487   3.142   0.457   2.205  1.7310  1.1667 -0.9268
   94GLOH    C2 9488   3.085   0.663   2.160 -0.1173 -0.3417  0.5498
   94GLOH   H04 9489   3.019   0.737   2.209  0.1567 -0.0782  0.5207
   94GLOH    O2 9490   3.217   0.708   2.120  0.3456 -0.4022 -0.4160
   94GLOH   H05 9491   3.217   0.710   2.023 -1.0346  3.9008 -0.3958
   94GLOH    C3 9492   3.007   0.643   2.031 -0.5789  0.3068 -0.8021
   94GLOH   H06 9493   3.004   0.735   1.972 -0.2649  1.9592  1.7148
   94GLOH   H07 9494   2.906   0.628   2.068 -0.8644  3.5507 -0.0946
   94GLOH    O3 9495   3.047   0.534   1.954  0.1227  0.4935  0.1395
   94GLOH   H01 9496   3.091   0.467   2.010 -1.8625  0.4389  1.6981
   95GLOH   H03 9497   2.958   0.660   2.464 -0.4044  0.4964 -0.7455
   95GLOH    O1 9498   2.914   0.739   2.500 -0.1956 -0.0138  0.6724
   95GLOH    C1 9499   2.971   0.797   2.621  0.4809  0.0119 -0.4526
   95GLOH   H02 9500   2.967   0.906   2.617  3.6946  0.1259 -3.1044
   95GLOH   H08 9501   3.077   0.771   2.629 -0.0002 -1.5692  0.9602
   95GLOH    C2 9502   2.901   0.753   2.746  0.0342 -0.0962  0.0729
   95GLOH   H04 9503   2.938   0.651   2.761 -0.1687  0.1625  2.5322
   95GLOH    O2 9504   2.937   0.829   2.866  0.0961  0.2657  0.1912
   95GLOH   H05 9505   2.855   0.838   2.918 -0.2989 -0.2326 -0.3392
   95GLOH    C3 9506   2.750   0.745   2.725 -0.5633 -0.1771  0.1652
   95GLOH   H06 9507   2.712   0.683   2.807 -0.6264  1.6229  1.5116
   95GLOH   H07 9508   2.726   0.691   2.633  1.6913  0.9150 -1.1076
   95GLOH    O3 9509   2.684   0.867   2.710 -0.7907  0.7288  0.6234
   95GLOH   H01 9510   2.732   0.940   2.667 -0.7668  1.7786  2.3917
   96GLOH   H03 9511   2.929   9.405   1.822 -2.7319  1.5409  1.2670
   96GLOH    O1 9512   2.971   9.493   1.821 -0.2080  0.3783 -0.3778
   96GLOH    C1 9513   2.893   9.605   1.790 -0.5071 -0.0527  0.6561
   96GLOH   H02 9514   2.915   9.638   1.688 -0.9614 -1.8285 -0.0361
   96GLOH   H08 9515   2.904   9.687   1.860 -0.7322  0.7517 -0.2330
   96GLOH    C2 9516   2.742   9.569   1.803  0.0369 -0.2080 -0.5992
   96GLOH   H04 9517   2.717   9.550   1.909 -0.6810 -2.1118 -1.0784
   96GLOH    O2 9518   2.660   9.685   1.777 -0.8783 -0.2207  0.0233
   96GLOH   H05 9519   2.601   9.713   1.849 -1.3800  0.9765 -0.8443
   96GLOH    C3 9520   2.699   9.440   1.720 -1.0803 -0.2694 -0.3055
   96GLOH   H06 9521   2.704   9.469   1.615  4.4017 -0.5388 -0.2610
   96GLOH   H07 9522   2.595   9.416   1.744 -0.9892  1.9883  2.5511
   96GLOH    O3 9523   2.789   9.329   1.747 -0.2357 -0.3122 -0.3467
   96GLOH   H01 9524   2.809   9.285   1.662 -1.0903  0.5268 -0.9996
   97GLOH   H03 9525   2.648   0.107   0.729 -1.1824  1.7043  0.2348
   97GLOH    O1 9526   2.652   0.094   0.632  0.4731 -0.3774  0.5454
   97GLOH    C1 9527   2.619   0.210   0.568 -0.5644 -0.0613 -0.4835
   97GLOH   H02 9528   2.512   0.228   0.584 -0.7194  1.1243 -2.7338
   97GLOH   H08 9529   2.639   0.201   0.462 -1.8406 -0.7024 -0.6758
   97GLOH    C2 9530   2.705   0.319   0.614  0.4715 -0.1421  0.3185
   97GLOH   H04 9531   2.731   0.299   0.719 -0.9450 -0.2515  0.6633
   97GLOH    O2 9532   2.829   0.325   0.533  0.2808  0.3204  0.5594
   97GLOH   H05 9533   2.877   0.409   0.538 -1.2529  1.2537 -0.3419
   97GLOH    C3 9534   2.639   0.457   0.593 -0.1806 -0.8499  0.3714
   97GLOH   H06 9535   2.599   0.465   0.492 -0.7885 -2.0265  0.4969
   97GLOH   H07 9536   2.714   0.534   0.607  0.4347 -1.4556  0.4603
   97GLOH    O3 9537   2.540   0.475   0.693 -0.5312 -0.5997 -0.0724
   97GLOH   H01 9538   2.471   0.542   0.675 -0.3612 -0.1417  0.9269
   98GLOH   H03 9539   4.229   1.266   2.685 -0.0547 -0.5493 -0.9170
   98GLOH    O1 9540   4.254   1.277   2.592  0.3182 -0.6315 -0.8259
   98GLOH    C1 9541   4.143   1.340   2.522  0.3057  0.5089 -0.7643
   98GLOH   H02 9542   4.181   1.392   2.434  0.0847 -0.6562 -1.5651
   98GLOH   H08 9543   4.091   1.413   2.584 -1.1528 -2.3565  1.5206
   98GLOH    C2 9544   4.048   1.239   2.458  0.4040 -0.3404 -0.4688
   98GLOH   H04 9545   4.035   1.168   2.541 -2.6495  1.0179  0.2817
   98GLOH    O2 9546   3.922   1.294   2.419 -0.0843  0.0392 -0.5708
   98GLOH   H05 9547   3.855   1.276   2.487  0.3270 -2.8906 -0.8737
   98GLOH    C3 9548   4.119   1.167   2.346 -0.4747 -0.3731 -0.4110
   98GLOH   H06 9549   4.192   1.112   2.405 -0.6757  1.9373  2.0319
   98GLOH   H07 9550   4.171   1.244   2.290  1.0155 -2.8078 -2.5145
   98GLOH    O3 9551   4.038   1.078   2.263  0.0775  0.1604 -0.3474
   98GLOH   H01 9552   4.081   1.079   2.176 -0.8224  0.1936 -0.8031
   99GLOH   H03 9553   3.503   0.675   2.853 -1.6250 -1.0128 -4.4703
   99GLOH    O1 9554   3.588   0.630   2.840 -0.3752  0.0191 -0.7397
   99GLOH    C1 9555   3.693   0.722   2.882  0.5297  0.5413  0.0584
   99GLOH   H02 9556   3.686   0.742   2.989  1.9086  1.0924  0.0561
   99GLOH   H08 9557   3.664   0.812   2.827 -1.2824 -1.4903 -2.4454
   99GLOH    C2 9558   3.842   0.700   2.843 -0.5157  1.1217  0.3673
   99GLOH   H04 9559   3.842   0.704   2.733  0.0863 -0.9264  0.2648
   99GLOH    O2 9560   3.917   0.813   2.900  0.6609  0.1318  0.3108
   99GLOH   H05 9561   3.981   0.840   2.832 -1.6352 -0.1351 -2.0141
   99GLOH    C3 9562   3.896   0.563   2.891 -0.2576 -0.0448  0.2645
   99GLOH   H06 9563   3.875   0.556   2.998 -2.1347  1.1497 -0.0110
   99GLOH   H07 9564   4.004   0.554   2.878 -0.1060 -0.7480  1.8870
   99GLOH    O3 9565   3.824   0.464   2.820 -0.4467 -0.1248 -0.5709
   99GLOH   H01 9566   3.728   0.474   2.836 -0.0562  1.9997  0.6231
  100GLOH   H03 9567   2.896   9.393   0.023  0.6276  1.0306 -0.1592
  100GLOH    O1 9568   2.835   9.454   0.068  0.2056  0.7288 -0.3257
  100GLOH    C1 9569   2.704   9.469  -0.002  0.3720  0.2427  0.8012
  100GLOH   H02 9570   2.718   9.539  -0.084 -1.7935 -0.5621 -0.2917
  100GLOH   H08 9571   2.635   9.522   0.064 -0.5388 -0.2404  0.2399
  100GLOH    C2 9572   2.642   9.336  -0.049  0.0208 -0.4668  0.2019
  100GLOH   H04 9573   2.655   9.263   0.032 -0.4967  0.9280  1.5796
  100GLOH    O2 9574   2.505   9.341  -0.094  0.7180  0.6547  0.9388
  100GLOH   H05 9575   2.444   9.337  -0.019 -0.6073 -0.9771 -0.1768
  100GLOH    C3 9576   2.732   9.284  -0.165 -0.9360  0.7596 -0.6408
  100GLOH   H06 9577   2.729   9.362  -0.241  0.5692 -1.0357 -2.6160
  100GLOH   H07 9578   2.686   9.198  -0.215 -1.6231  1.2587 -0.8782
  100GLOH    O3 9579   2.870   9.268  -0.126 -0.0165 -0.4134 -0.2346
  100GLOH   H01 9580   2.892   9.173  -0.121  0.2842 -0.3292  0.1149
  101GLOH   H03 9581   3.408   0.612   0.204  0.9394 -1.9235  3.8430
  101GLOH    O1 9582   3.453   0.690   0.241 -0.1200  0.7219 -0.0816
  101GLOH    C1 9583   3.504   0.671   0.373 -0.6515 -0.0248  0.1147
  101GLOH   H02 9584   3.568   0.752   0.408  1.3516 -1.4283 -0.2824
  101GLOH   H08 9585   3.566   0.582   0.377 -0.2877  0.2724  1.2855
  101GLOH    C2 9586   3.400   0.663   0.492 -0.5663 -0.0073 -0.8147
  101GLOH   H04 9587   3.307   0.715   0.465 -0.5472 -0.2434 -1.3325
  101GLOH    O2 9588   3.370   0.531   0.529  0.5028  0.3393 -0.6413
  101GLOH   H05 9589   3.446   0.489   0.573  0.4159 -0.3020 -1.1167
  101GLOH    C3 9590   3.448   0.729   0.627  0.1980 -0.1450  1.1411
  101GLOH   H06 9591   3.367   0.717   0.698 -0.5437  0.9224  0.4934
  101GLOH   H07 9592   3.463   0.836   0.607 -1.2613  0.2929  2.3182
  101GLOH    O3 9593   3.578   0.687   0.664 -0.4307 -0.3242 -0.2941
  101GLOH   H01 9594   3.580   0.613   0.728  5.6398 -0.7034 -0.6452
  102GLOH   H03 9595   2.860   9.189   1.143  0.4465  1.7084 -0.5148
  102GLOH    O1 9596   2.870   9.227   1.232 -0.1658  0.3368  0.1617
  102GLOH    C1 9597   2.985   9.312   1.230 -0.6034 -0.1170  0.4192
  102GLOH   H02 9598   2.956   9.412   1.197  0.0274  0.2763  1.0375
  102GLOH   H08 9599   3.059   9.275   1.159  0.7619  2.2254  0.5508
  102GLOH    C2 9600   3.046   9.325   1.372 -0.0816  0.4263 -1.0195
  102GLOH   H04 9601   3.061   9.223   1.409 -2.0411  0.4000 -0.2404
  102GLOH    O2 9602   3.175   9.394   1.357 -0.5637  0.1113 -0.1992
  102GLOH   H05 9603   3.248   9.334   1.332 -1.0700  0.2702 -2.1037
  102GLOH    C3 9604   2.952   9.385   1.465 -1.3425  0.1042 -0.4756
  102GLOH   H06 9605   2.921   9.482   1.426 -0.5481 -0.6560 -3.0613
  102GLOH   H07 9606   2.995   9.399   1.564 -0.0628  1.2227 -1.1793
  102GLOH    O3 9607   2.835   9.303   1.478 -0.5521 -0.6717  0.0836
  102GLOH   H01 9608   2.800   9.266   1.395  0.0621 -3.0242  0.8088
  103GLOH   H03 9609   3.952   9.117   0.556 -0.3218 -0.2836 -2.7972
  103GLOH    O1 9610   3.913   9.206   0.551 -0.4414 -0.1857 -0.5378
  103GLOH    C1 9611   3.923   9.291   0.672  0.2980  0.1147  0.1444
  103GLOH   H02 9612   4.028   9.304   0.700 -0.5797  1.4133  3.0069
  103GLOH   H08 9613   3.874   9.256   0.763  0.0673  0.0237 -0.0135
  103GLOH    C2 9614   3.863   9.429   0.640 -0.3208 -0.6832 -0.0202
  103GLOH   H04 9615   3.860   9.493   0.730 -0.2071 -1.2440  0.3843
  103GLOH    O2 9616   3.938   9.497   0.537  0.0251  0.4751 -0.3340
  103GLOH   H05 9617   3.973   9.424   0.483  0.4974  0.4305  0.0249
  103GLOH    C3 9618   3.717   9.426   0.599  0.2620 -0.0274 -0.8659
  103GLOH   H06 9619   3.714   9.379   0.501 -1.9151 -0.4123 -0.6391
  103GLOH   H07 9620   3.690   9.528   0.571  1.7898  0.4270 -0.7049
  103GLOH    O3 9621   3.623   9.371   0.684  0.3137  0.2805 -0.2959
  103GLOH   H01 9622   3.621   9.410   0.774  3.3720 -0.6412  0.2174
  104GLOH   H03 9623   2.704   1.143   2.596  0.7628 -0.9071 -1.3938
  104GLOH    O1 9624   2.750   1.099   2.670  0.2444  0.2847 -0.3550
  104GLOH    C1 9625   2.851   1.197   2.723 -0.0982 -0.5709  1.2900
  104GLOH   H02 9626   2.896   1.230   2.629 -0.8314  1.9306  1.7897
  104GLOH   H08 9627   2.929   1.142   2.777  0.3081 -0.2984  0.9773
  104GLOH    C2 9628   2.797   1.293   2.830  0.1042  1.0220 -0.3613
  104GLOH   H04 9629   2.890   1.328   2.879  0.9686 -2.4097  0.6028
  104GLOH    O2 9630   2.740   1.413   2.770  0.5339 -0.4490  0.6248
  104GLOH   H05 9631   2.727   1.477   2.843  1.2083 -1.6772  1.8610
  104GLOH    C3 9632   2.699   1.227   2.926 -0.2684 -0.5576  0.5167
  104GLOH   H06 9633   2.740   1.135   2.969 -0.6140 -0.4731  1.0278
  104GLOH   H07 9634   2.603   1.220   2.875  0.1910  1.7556 -0.7290
  104GLOH    O3 9635   2.685   1.313   3.044 -0.3631 -0.2317 -0.0612
  104GLOH   H01 9636   2.679   1.410   3.033  2.6609  0.3803  2.6973
  105GLOH   H03 9637   3.675   9.218   0.720  1.7057 -0.1627 -1.4493
  105GLOH    O1 9638   3.656   9.126   0.744 -0.2383  0.6824  0.4178
  105GLOH    C1 9639   3.554   9.137   0.846 -0.0290  0.7373 -0.2496
  105GLOH   H02 9640   3.473   9.204   0.817  0.2885  1.0362 -0.4500
  105GLOH   H08 9641   3.605   9.177   0.934 -0.6431 -2.8713  1.8544
  105GLOH    C2 9642   3.501   8.995   0.888  0.5155 -0.3888 -1.1266
  105GLOH   H04 9643   3.585   8.936   0.928  1.1473  1.5995  0.5798
  105GLOH    O2 9644   3.404   9.008   0.995  0.5857  0.2657  0.1028
  105GLOH   H05 9645   3.439   8.957   1.070 -0.9793  0.8220  1.2462
  105GLOH    C3 9646   3.431   8.930   0.768 -0.3732 -0.9645 -0.0370
  105GLOH   H06 9647   3.331   8.974   0.760  1.2321  2.8293 -0.2504
  105GLOH   H07 9648   3.409   8.826   0.792 -1.1927 -0.3863  1.7687
  105GLOH    O3 9649   3.499   8.949   0.640  0.4075 -0.2867 -0.7625
  105GLOH   H01 9650   3.562   9.017   0.670  0.9924 -1.0138 -0.3312
  106GLOH   H03 9651   3.947   9.533   1.368 -1.9065 -1.6521  1.2881
  106GLOH    O1 9652   3.925   9.492   1.282 -0.0633 -0.7609  0.3410
  106GLOH    C1 9653   4.022   9.526   1.177 -0.0122  0.1544 -0.1131
  106GLOH   H02 9654   4.100   9.450   1.179 -0.1646 -0.0186 -0.5198
  106GLOH   H08 9655   4.068   9.622   1.200  0.9675 -0.7236  1.7161
  106GLOH    C2 9656   3.966   9.532   1.034  0.3571 -0.2345 -0.1220
  106GLOH   H04 9657   3.947   9.427   1.011  1.7237 -0.9083  1.7121
  106GLOH    O2 9658   3.843   9.614   1.022 -0.2482  0.4730  0.3483
  106GLOH   H05 9659   3.766   9.557   1.005  0.8792 -1.1733  0.5804
  106GLOH    C3 9660   4.076   9.585   0.946 -0.6452  0.7865  0.1550
  106GLOH   H06 9661   4.091   9.693   0.939  0.5416  0.7507  1.7423
  106GLOH   H07 9662   4.042   9.557   0.847  2.0258 -0.0538 -0.5587
  106GLOH    O3 9663   4.207   9.542   0.980  0.4121 -0.3178 -0.3851
  106GLOH   H01 9664   4.268   9.576   0.912 -0.3631  2.1283  0.0597
  107GLOH   H03 9665   3.576   9.439   0.257  0.0443 -0.8011 -0.3610
  107GLOH    O1 9666   3.630   9.418   0.179  0.9836 -0.0370  0.0699
  107GLOH    C1 9667   3.775   9.407   0.200 -0.0999  0.5030  0.1230
  107GLOH   H02 9668   3.792   9.471   0.286  0.3111  1.4167 -0.6352
  107GLOH   H08 9669   3.826   9.447   0.113 -1.4053  4.4881  1.0781
  107GLOH    C2 9670   3.826   9.257   0.227  0.3592  0.6515  0.1611
  107GLOH   H04 9671   3.932   9.263   0.255  0.3889  0.5577  0.0672
  107GLOH    O2 9672   3.752   9.204   0.340  0.0459  0.1484 -0.0968
  107GLOH   H05 9673   3.815   9.215   0.414 -0.9526  3.1725  0.3757
  107GLOH    C3 9674   3.804   9.161   0.104  0.0112  0.0204 -0.1036
  107GLOH   H06 9675   3.697   9.169   0.085 -0.5445  2.6976  3.6489
  107GLOH   H07 9676   3.818   9.058   0.137  0.6381 -0.5369 -2.0304
  107GLOH    O3 9677   3.879   9.190  -0.015 -0.4138  0.1932  0.2399
  107GLOH   H01 9678   3.828   9.242  -0.080 -1.3347 -1.0509 -0.0403
  108GLOH   H03 9679   2.936   9.672   0.868  0.2348  0.5676 -2.0600
  108GLOH    O1 9680   2.892   9.758   0.851  0.2753  0.9573 -0.3461
  108GLOH    C1 9681   2.994   9.856   0.811 -0.2543  0.9861  0.9155
  108GLOH   H02 9682   2.942   9.912   0.733 -0.9285  2.5850  2.4756
  108GLOH   H08 9683   3.086   9.811   0.775 -1.3834 -0.5446 -0.1279
  108GLOH    C2 9684   3.031   9.940   0.931  0.7795 -0.7070  0.8660
  108GLOH   H04 9685   3.047   9.876   1.019  0.3755 -0.5947  1.0203
  108GLOH    O2 9686   3.144  10.017   0.894 -0.6287 -0.0609  0.3327
  108GLOH   H05 9687   3.139  10.081   0.822 -1.6103  1.6848  1.9106
  108GLOH    C3 9688   2.908  10.034   0.954 -0.0119  0.2518 -0.2940
  108GLOH   H06 9689   2.815   9.977   0.958  0.0087  0.2660  0.6723
  108GLOH   H07 9690   2.898  10.101   0.869  1.9920 -0.8232 -1.4197
  108GLOH    O3 9691   2.909  10.114   1.073 -0.0676 -0.6117  0.0716
  108GLOH   H01 9692   2.820  10.104   1.111 -0.9294 -0.2651 -1.8270
  109GLOH   H03 9693   4.753   0.772   1.114  0.3573 -0.5756  0.2418
  109GLOH    O1 9694   4.671   0.822   1.131  0.2950 -0.5628 -0.0972
  109GLOH    C1 9695   4.590   0.830   1.007 -0.4288 -0.1915 -0.3464
  109GLOH   H02 9696   4.559   0.733   0.969 -0.9788 -0.9245  1.8818
  109GLOH   H08 9697   4.649   0.874   0.927 -0.8044 -1.2163 -1.1967
  109GLOH    C2 9698   4.458   0.907   1.033 -0.2388  0.0394 -0.9514
  109GLOH   H04 9699   4.488   1.001   1.081  0.4929 -0.4916 -0.3534
  109GLOH    O2 9700   4.378   0.930   0.909 -0.1925  0.3913  0.1755
  109GLOH   H05 9701   4.285   0.910   0.928 -0.7526  1.5278 -1.2765
  109GLOH    C3 9702   4.372   0.831   1.135  0.4265  0.5261  0.1576
  109GLOH   H06 9703   4.326   0.744   1.088  2.2744  0.5340 -1.7542
  109GLOH   H07 9704   4.288   0.894   1.166 -0.6717 -1.0250  0.4127
  109GLOH    O3 9705   4.447   0.815   1.258  0.1221  0.4377  0.3785
  109GLOH   H01 9706   4.540   0.811   1.231  0.3474 -2.8721  1.4273
  110GLOH   H03 9707   3.592   1.735   1.800  0.7023 -0.8215 -0.4492
  110GLOH    O1 9708   3.533   1.677   1.853  0.4220  0.3640  0.5579
  110GLOH    C1 9709   3.594   1.660   1.980  0.0992  0.2333  0.4266
  110GLOH   H02 9710   3.580   1.747   2.045 -2.0676 -0.5688  1.0550
  110GLOH   H08 9711   3.700   1.642   1.963 -0.7251 -3.0846 -1.6811
  110GLOH    C2 9712   3.535   1.532   2.041  0.1210 -0.4416 -0.2240
  110GLOH   H04 9713   3.543   1.455   1.963 -1.5324  0.6533 -1.4992
  110GLOH    O2 9714   3.606   1.495   2.161 -0.1183 -0.0977 -0.0847
  110GLOH   H05 9715   3.554   1.449   2.230  1.5678 -0.4463  0.9899
  110GLOH    C3 9716   3.381   1.553   2.070 -0.2156 -0.3577  0.0282
  110GLOH   H06 9717   3.363   1.643   2.127  2.9842  0.9827 -0.9883
  110GLOH   H07 9718   3.340   1.470   2.127  0.4275 -0.7702 -0.1021
  110GLOH    O3 9719   3.303   1.567   1.947  0.1902 -0.4088  0.1051
  110GLOH   H01 9720   3.366   1.606   1.884  0.6960  0.5524  1.1972
  111GLOH   H03 9721   3.412   1.567   0.061 -0.9163 -0.3264  0.4387
  111GLOH    O1 9722   3.384   1.477   0.086  0.0410 -0.5996  0.5453
  111GLOH    C1 9723   3.411   1.458   0.230 -0.2768 -0.1582 -0.7466
  111GLOH   H02 9724   3.510   1.494   0.256  0.4998 -1.2084 -2.1946
  111GLOH   H08 9725   3.430   1.352   0.248  3.7503  0.6239  0.1277
  111GLOH    C2 9726   3.300   1.522   0.318  0.3252  0.7318 -0.0211
  111GLOH   H04 9727   3.202   1.476   0.296  0.2311 -0.0737  1.9879
  111GLOH    O2 9728   3.339   1.497   0.456  0.2264 -0.3816  0.7882
  111GLOH   H05 9729   3.283   1.423   0.485  1.2054 -1.7273 -0.6617
  111GLOH    C3 9730   3.291   1.673   0.303  0.7941 -0.1723 -0.3438
  111GLOH   H06 9731   3.389   1.721   0.307  1.6526 -1.9966  0.9348
  111GLOH   H07 9732   3.241   1.712   0.391  2.7482  1.7315 -0.0322
  111GLOH    O3 9733   3.221   1.712   0.183 -0.0930 -0.1416 -0.0212
  111GLOH   H01 9734   3.274   1.704   0.101  0.1896 -0.4127  0.1891
  112GLOH   H03 9735   3.057   9.377   0.841  3.0570  1.5610 -0.9906
  112GLOH    O1 9736   3.106   9.301   0.879  0.6801  0.6984  0.5057
  112GLOH    C1 9737   3.241   9.340   0.903  0.0941 -0.5121  0.5558
  112GLOH   H02 9738   3.299   9.352   0.811 -0.4365  2.4907  0.5793
  112GLOH   H08 9739   3.287   9.260   0.962 -0.9650 -0.4889  1.4152
  112GLOH    C2 9740   3.251   9.473   0.983 -0.4721  0.2368 -0.4194
  112GLOH   H04 9741   3.205   9.456   1.082  2.6284 -1.2351  0.8546
  112GLOH    O2 9742   3.384   9.513   1.006  0.3304 -0.1819  0.2212
  112GLOH   H05 9743   3.378   9.590   1.065  3.3304  0.6290 -0.4551
  112GLOH    C3 9744   3.173   9.583   0.910 -0.4406 -0.1949 -0.5490
  112GLOH   H06 9745   3.216   9.596   0.811 -1.5416 -0.8935 -1.1395
  112GLOH   H07 9746   3.189   9.682   0.952  0.2463  0.6245 -2.6932
  112GLOH    O3 9747   3.035   9.554   0.914  0.1446 -0.0874 -0.0656
  112GLOH   H01 9748   3.025   9.559   1.011  0.4451 -0.2934 -0.0239
  113GLOH   H03 9749   2.280   0.042   2.818  1.0211  1.5470  0.5444
  113GLOH    O1 9750   2.331   0.005   2.891  0.3125  0.3259  0.4391
  113GLOH    C1 9751   2.432  -0.074   2.824  0.0161  0.3641 -0.6673
  113GLOH   H02 9752   2.477  -0.014   2.745 -1.8221  0.7851 -1.4168
  113GLOH   H08 9753   2.376  -0.157   2.781 -0.9737  0.6721  0.0238
  113GLOH    C2 9754   2.548  -0.097   2.922  1.0981  0.1360  0.0915
  113GLOH   H04 9755   2.517  -0.151   3.013 -0.1719 -2.8928 -2.0624
  113GLOH    O2 9756   2.646  -0.192   2.869  0.0606  0.5243 -0.1113
  113GLOH   H05 9757   2.732  -0.159   2.900 -0.0175  0.5338  0.0935
  113GLOH    C3 9758   2.628   0.027   2.965  0.3599 -0.3682 -0.0558
  113GLOH   H06 9759   2.565   0.113   2.944 -0.5044 -1.4810 -2.1004
  113GLOH   H07 9760   2.716   0.030   2.902 -0.0351 -0.5514 -0.6158
  113GLOH    O3 9761   2.680   0.027   3.098  0.0506  0.6313  0.1027
  113GLOH   H01 9762   2.611   0.002   3.162  2.4769 -0.3905  2.4437
  114GLOH   H03 9763   2.900   9.586   0.163 -1.0204  1.5179  0.3264
  114GLOH    O1 9764   2.974   9.632   0.206 -0.1043  0.3375  0.0384
  114GLOH    C1 9765   2.942   9.689   0.335  0.2850 -0.4741  0.3584
  114GLOH   H02 9766   2.991   9.786   0.343 -1.6926  0.6242 -0.5957
  114GLOH   H08 9767   2.989   9.634   0.417 -1.3146 -2.5941 -0.1139
  114GLOH    C2 9768   2.793   9.704   0.370  0.6856  0.5207 -0.6879
  114GLOH   H04 9769   2.744   9.752   0.285  2.3883  1.3491 -1.2285
  114GLOH    O2 9770   2.718   9.580   0.400 -0.3374 -0.5415 -0.4456
  114GLOH   H05 9771   2.624   9.602   0.387 -0.7215  0.4868  3.5074
  114GLOH    C3 9772   2.785   9.779   0.507  0.5862  1.0668 -0.5449
  114GLOH   H06 9773   2.831   9.735   0.596 -0.9434  0.9154  0.1876
  114GLOH   H07 9774   2.678   9.770   0.527  0.6191 -0.7368 -1.1234
  114GLOH    O3 9775   2.821   9.922   0.496  0.4013 -0.9400 -0.6334
  114GLOH   H01 9776   2.761   9.985   0.541  1.3810 -1.7110  1.8174
  115GLOH   H03 9777   3.994   0.082   0.968 -0.6736  0.2204  0.4671
  115GLOH    O1 9778   4.050   0.141   1.022  0.1110  0.4409 -0.5635
  115GLOH    C1 9779   4.009   0.134   1.164  0.8318  0.6251 -0.4589
  115GLOH   H02 9780   4.101   0.146   1.222  0.4273  1.9418 -0.0827
  115GLOH   H08 9781   3.967   0.035   1.185 -0.1254  0.6278 -2.2551
  115GLOH    C2 9782   3.906   0.251   1.196  0.3699 -0.1457  0.2690
  115GLOH   H04 9783   3.934   0.328   1.122  0.6089  1.3859  1.9153
  115GLOH    O2 9784   3.769   0.225   1.148  0.0734 -0.2444  0.1240
  115GLOH   H05 9785   3.741   0.141   1.189  2.5740 -1.4134 -0.4493
  115GLOH    C3 9786   3.908   0.293   1.345  0.2554 -1.3612 -0.3856
  115GLOH   H06 9787   3.904   0.204   1.407 -0.4299 -2.9645 -2.6616
  115GLOH   H07 9788   3.822   0.359   1.358 -0.5090 -2.3994 -0.1578
  115GLOH    O3 9789   4.040   0.351   1.362  0.2049 -0.3643 -0.0994
  115GLOH   H01 9790   4.090   0.358   1.279  1.1502  0.1074  0.5041
  116GLOH   H03 9791   2.921   8.630   0.294 -0.0182  0.4726  1.9723
  116GLOH    O1 9792   2.878   8.715   0.314 -0.5612  0.3442  1.3551
  116GLOH    C1 9793   2.754   8.727   0.232 -0.4616  0.6767 -0.2059
  116GLOH   H02 9794   2.668   8.690   0.289 -0.9698  3.8177  1.1254
  116GLOH   H08 9795   2.764   8.670   0.139 -3.0525 -2.6248  1.4083
  116GLOH    C2 9796   2.728   8.871   0.196  0.0333 -0.3077 -0.1928
  116GLOH   H04 9797   2.820   8.922   0.166  0.1170 -1.8200 -2.6382
  116GLOH    O2 9798   2.635   8.883   0.086  0.5014 -0.6334 -0.1145
  116GLOH   H05 9799   2.660   8.882  -0.008  0.0554 -0.0683 -0.2435
  116GLOH    C3 9800   2.667   8.947   0.318  0.2580  0.2987  0.2885
  116GLOH   H06 9801   2.573   8.892   0.332  0.6629 -0.6689 -0.6793
  116GLOH   H07 9802   2.649   9.052   0.298  1.2004  0.1967 -1.1575
  116GLOH    O3 9803   2.769   8.931   0.424  0.4483  0.3818  0.5303
  116GLOH   H01 9804   2.823   8.854   0.398 -0.6530 -0.5075  0.8140
  117GLOH   H03 9805   3.396   0.840   2.756 -0.5376  0.2629  0.5191
  117GLOH    O1 9806   3.406   0.886   2.841 -0.0952  0.6887  0.2403
  117GLOH    C1 9807   3.281   0.887   2.907  0.3920 -0.4785 -0.8645
  117GLOH   H02 9808   3.253   0.793   2.954  1.8481 -1.0268 -1.0940
  117GLOH   H08 9809   3.199   0.917   2.841  0.5651  0.7258 -0.5504
  117GLOH    C2 9810   3.279   1.007   3.011  0.8145 -0.3831 -0.2571
  117GLOH   H04 9811   3.177   1.005   3.053  0.1228  1.1190 -1.8251
  117GLOH    O2 9812   3.369   0.985   3.121  0.6650  0.1777  0.3604
  117GLOH   H05 9813   3.421   0.905   3.103  0.5116  0.0479  0.4906
  117GLOH    C3 9814   3.303   1.142   2.943  0.1326 -1.2264  0.5448
  117GLOH   H06 9815   3.394   1.132   2.884  0.6396 -1.4257  1.3417
  117GLOH   H07 9816   3.340   1.206   3.024 -1.4870  0.3439  0.0651
  117GLOH    O3 9817   3.187   1.182   2.864  0.1762 -0.2998  0.2136
  117GLOH   H01 9818   3.177   1.279   2.864 -2.2781 -0.4910 -1.9905
  118GLOH   H03 9819   4.430   0.159   0.171 -0.8980  1.1971 -0.8277
  118GLOH    O1 9820   4.386   0.080   0.134 -0.0132  0.3056  0.0057
  118GLOH    C1 9821   4.345   0.121   0.005  0.4289  0.1970 -0.5458
  118GLOH   H02 9822   4.366   0.048  -0.074 -2.0286  2.0204 -2.9617
  118GLOH   H08 9823   4.396   0.209  -0.035  2.0379 -1.3072 -1.9160
  118GLOH    C2 9824   4.195   0.147  -0.005 -0.2125 -0.0946 -0.8663
  118GLOH   H04 9825   4.173   0.187  -0.105  1.3287 -0.0237 -1.1870
  118GLOH    O2 9826   4.113   0.031   0.007  0.8795  0.3776 -0.1007
  118GLOH   H05 9827   4.161  -0.047  -0.023 -0.1668 -0.2248 -0.2138
  118GLOH    C3 9828   4.148   0.259   0.096  1.2694  0.2040 -0.6313
  118GLOH   H06 9829   4.182   0.252   0.200 -0.9297  0.8556  0.1632
  118GLOH   H07 9830   4.040   0.243   0.107  1.4921 -2.3478 -1.8486
  118GLOH    O3 9831   4.176   0.388   0.046 -0.0131  0.4491  0.1261
  118GLOH   H01 9832   4.136   0.452   0.108  1.0250 -0.3810  1.6646
  119GLOH   H03 9833   2.906   0.892   2.413 -0.2275  0.3264  0.8926
  119GLOH    O1 9834   2.929   0.980   2.378 -0.4716 -0.2661 -0.8359
  119GLOH    C1 9835   3.068   0.967   2.348  0.8778  0.2040 -0.3400
  119GLOH   H02 9836   3.072   0.964   2.239 -3.4304 -2.6952 -0.5704
  119GLOH   H08 9837   3.105   0.867   2.371  1.2612  0.5155  0.4247
  119GLOH    C2 9838   3.167   1.077   2.389  0.1637 -0.0299 -0.5374
  119GLOH   H04 9839   3.274   1.053   2.383  0.9535  2.8322  1.0012
  119GLOH    O2 9840   3.141   1.204   2.331  0.0318  0.2103 -0.0631
  119GLOH   H05 9841   3.119   1.197   2.237 -3.1289  0.5017  0.5989
  119GLOH    C3 9842   3.133   1.108   2.544 -0.0484  0.2163  0.5435
  119GLOH   H06 9843   3.026   1.092   2.558 -0.4745  4.1849  2.6553
  119GLOH   H07 9844   3.155   1.212   2.567 -0.2649  0.6441 -1.1049
  119GLOH    O3 9845   3.215   1.031   2.632 -0.9924 -0.3942 -0.5794
  119GLOH   H01 9846   3.220   1.074   2.719  5.2166 -0.3700 -0.7217
  120GLOH   H03 9847   3.384   1.220   0.424  0.3632  1.6919 -0.6472
  120GLOH    O1 9848   3.480   1.204   0.419  0.1345  0.0212 -0.1419
  120GLOH    C1 9849   3.534   1.211   0.551 -0.1512  0.3672 -0.0367
  120GLOH   H02 9850   3.478   1.161   0.630 -2.0263  1.9615 -0.3341
  120GLOH   H08 9851   3.531   1.318   0.572 -0.4906  0.0311  1.6941
  120GLOH    C2 9852   3.690   1.178   0.553  0.0109  0.4041  0.3924
  120GLOH   H04 9853   3.748   1.268   0.527 -3.5013  3.4078  2.4955
  120GLOH    O2 9854   3.717   1.150   0.692  0.2752 -0.0577  0.1696
  120GLOH   H05 9855   3.795   1.092   0.686  1.4980  1.6692 -1.0721
  120GLOH    C3 9856   3.719   1.041   0.479 -0.8898 -0.1056  0.0029
  120GLOH   H06 9857   3.663   0.958   0.521 -0.7300  0.8708  2.2696
  120GLOH   H07 9858   3.826   1.026   0.462 -0.4749  0.2816  2.1055
  120GLOH    O3 9859   3.682   1.067   0.347 -0.1838  0.0049  0.4280
  120GLOH   H01 9860   3.597   1.115   0.347  1.2733  2.7116  0.9354
  121ACOH    H4 9861   2.544   0.566   2.019  0.8315  0.5535 -0.2617
  121ACOH    O2 9862   2.471   0.619   2.052  0.3518  0.0780 -0.5554
  121ACOH    C2 9863   2.418   0.554   2.153  0.7757  0.3143  0.3331
  121ACOH    O1 9864   2.451   0.441   2.187 -0.4588  0.3467 -0.1004
  121ACOH    C1 9865   2.294   0.625   2.196 -0.1671  0.2728 -0.3655
  121ACOH    H1 9866   2.292   0.730   2.165  1.5452  1.1783  2.3872
  121ACOH    H2 9867   2.285   0.622   2.304  1.0270 -2.3996 -0.2980
  121ACOH    H3 9868   2.201   0.587   2.155 -1.5746 -0.0573  3.0373
  122ACOH    H4 9869   3.815   1.363   0.949 -1.2152 -1.2269  0.7634
  122ACOH    O2 9870   3.801   1.457   0.968 -0.5852 -0.9257 -0.1892
  122ACOH    C2 9871   3.761   1.462   1.092  0.4639 -0.3957  0.3986
  122ACOH    O1 9872   3.674   1.388   1.130  0.0824  0.3346 -0.1372
  122ACOH    C1 9873   3.789   1.595   1.164 -0.4167  0.7963 -1.2101
  122ACOH    H1 9874   3.878   1.640   1.120  0.5545 -0.7837 -0.9168
  122ACOH    H2 9875   3.801   1.579   1.272 -1.4719 -2.3243 -1.5134
  122ACOH    H3 9876   3.707   1.663   1.144  0.1597  1.4064 -1.5221
  123ACOH    H4 9877   3.493   1.300   0.988  1.8569  4.7394 -0.3098
  123ACOH    O2 9878   3.407   1.333   1.018 -0.1456  0.1280 -0.5548
  123ACOH    C2 9879   3.382   1.432   0.934  0.1544  0.5645  0.3913
  123ACOH    O1 9880   3.437   1.470   0.829 -0.8926 -0.2463  0.1783
  123ACOH    C1 9881   3.239   1.471   0.967  0.9156 -1.1614  0.2351
  123ACOH    H1 9882   3.224   1.470   1.075 -0.3630 -0.4629  0.0829
  123ACOH    H2 9883   3.174   1.398   0.918  1.7392  0.8093 -4.0296
  123ACOH    H3 9884   3.211   1.569   0.929 -0.3617 -1.7383 -0.3460
  124ACOH    H4 9885   2.742   0.544   2.300 -0.7955 -0.2687 -0.6996
  124ACOH    O2 9886   2.752   0.635   2.268 -0.3472 -0.3693 -0.8382
  124ACOH    C2 9887   2.646   0.708   2.308 -0.1111  0.1551  0.0739
  124ACOH    O1 9888   2.564   0.681   2.384 -0.0047  0.5739 -0.2618
  124ACOH    C1 9889   2.651   0.831   2.228 -0.8754 -0.1884  0.3509
  124ACOH    H1 9890   2.637   0.918   2.293  2.8647  0.3561  0.4911
  124ACOH    H2 9891   2.572   0.819   2.154 -0.4111  1.0398 -0.3429
  124ACOH    H3 9892   2.749   0.840   2.182 -0.6685 -3.1923  0.0714
  125ACOH    H4 9893   4.186   8.834   1.230 -0.9356  1.3417  1.8636
  125ACOH    O2 9894   4.203   8.770   1.301  0.9114  0.3622  0.5620
  125ACOH    C2 9895   4.095   8.684   1.313 -0.3728 -0.0978 -0.8207
  125ACOH    O1 9896   3.986   8.703   1.265  0.5478  0.5405 -0.1394
  125ACOH    C1 9897   4.137   8.564   1.396 -1.3576  0.1307  0.3738
  125ACOH    H1 9898   4.195   8.607   1.478  2.7748  0.6754 -2.6830
  125ACOH    H2 9899   4.190   8.490   1.336 -2.5856 -0.6085  0.2029
  125ACOH    H3 9900   4.046   8.525   1.440 -1.1872 -1.2506 -0.4621
  126ACOH    H4 9901   4.718   0.440   0.992 -0.2706  0.1391 -0.5348
  126ACOH    O2 9902   4.808   0.437   0.955  0.1024  0.1331  0.3560
  126ACOH    C2 9903   4.881   0.536   1.016  0.5545  0.0467  0.3723
  126ACOH    O1 9904   4.830   0.611   1.090 -0.4936  0.1215  0.2971
  126ACOH    C1 9905   5.025   0.506   1.002 -0.9937  1.3871 -0.0726
  126ACOH    H1 9906   5.034   0.434   0.920 -1.5520 -0.8392  1.7487
  126ACOH    H2 9907   5.061   0.447   1.087  0.2454 -0.1511 -1.6241
  126ACOH    H3 9908   5.086   0.595   0.984  0.6186  0.1400 -0.9833
  127ACOH    H4 9909   2.789   9.019   1.511 -0.2867  1.4259  0.8494
  127ACOH    O2 9910   2.750   9.010   1.423 -0.0659  0.5783  0.8344
  127ACOH    C2 9911   2.832   8.923   1.374 -0.0506 -0.2977  0.2427
  127ACOH    O1 9912   2.944   8.900   1.403  0.2281  0.2154 -0.7845
  127ACOH    C1 9913   2.793   8.884   1.237 -0.5343 -0.8004 -0.1381
  127ACOH    H1 9914   2.859   8.813   1.188  2.0248  1.1269  0.4294
  127ACOH    H2 9915   2.798   8.975   1.176  0.3716 -0.5573  0.2915
  127ACOH    H3 9916   2.694   8.839   1.236 -1.0250  0.2630 -1.7002
  128ACOH    H4 9917   4.358   8.841   2.029 -0.2432  0.2292  1.4425
  128ACOH    O2 9918   4.324   8.752   2.050 -0.1947 -0.0842  0.1792
  128ACOH    C2 9919   4.229   8.746   1.949  0.2037  0.7329  1.0017
  128ACOH    O1 9920   4.235   8.802   1.839  0.1643 -0.7495 -0.0446
  128ACOH    C1 9921   4.146   8.626   1.976 -0.7323  0.2744  0.1946
  128ACOH    H1 9922   4.175   8.591   2.076  2.2013  1.6335 -0.1193
  128ACOH    H2 9923   4.146   8.551   1.897 -1.4236  1.1424 -0.6156
  128ACOH    H3 9924   4.043   8.660   1.979  0.0401  2.7684 -0.9383
  129ACOH    H4 9925   3.851   1.726   1.635  1.0396 -0.4086 -2.2485
  129ACOH    O2 9926   3.912   1.798   1.659 -0.0650 -0.1352 -0.0312
  129ACOH    C2 9927   3.839   1.902   1.690  0.5451  0.1161 -1.4385
  129ACOH    O1 9928   3.716   1.903   1.704  0.7176  0.1865 -0.2908
  129ACOH    C1 9929   3.915   2.030   1.696  0.2168  0.3957  0.2071
  129ACOH    H1 9930   3.860   2.114   1.737 -0.6875  0.8184 -1.7791
  129ACOH    H2 9931   3.917   2.067   1.593 -0.4083 -4.0462 -1.5100
  129ACOH    H3 9932   4.013   2.017   1.741  0.1650  1.7017  0.7191
  130ACOH    H4 9933   3.415   0.951   1.313  2.4218 -0.0853 -3.5766
  130ACOH    O2 9934   3.337   0.929   1.259 -0.3952  0.3093  0.1093
  130ACOH    C2 9935   3.237   0.882   1.337 -0.6280  0.3829  0.4323
  130ACOH    O1 9936   3.229   0.890   1.458  0.2629  0.0367  0.6337
  130ACOH    C1 9937   3.129   0.828   1.269  0.7790 -0.1753 -0.2271
  130ACOH    H1 9938   3.065   0.774   1.339  0.2334  0.0302 -0.5651
  130ACOH    H2 9939   3.163   0.767   1.184 -1.3143 -0.1691 -1.0923
  130ACOH    H3 9940   3.058   0.896   1.221  1.3275 -0.7989 -1.9529
  131ACOH    H4 9941   4.288   0.831   2.263 -1.2124  1.2079 -1.4417
  131ACOH    O2 9942   4.329   0.915   2.290  0.5844 -0.0321 -0.2089
  131ACOH    C2 9943   4.423   0.885   2.385  0.2921 -0.4447 -0.0783
  131ACOH    O1 9944   4.438   0.775   2.437  0.2411  0.3172 -0.7958
  131ACOH    C1 9945   4.491   1.010   2.427  0.3034 -0.3209 -0.2908
  131ACOH    H1 9946   4.428   1.097   2.414 -1.2469 -1.5010 -0.8330
  131ACOH    H2 9947   4.580   1.013   2.364  0.4431 -1.3118 -0.1647
  131ACOH    H3 9948   4.507   1.015   2.535 -3.6650  0.8043  0.3215
  132ACOH    H4 9949   2.287   0.521   1.201  1.8469  0.1580 -0.0414
  132ACOH    O2 9950   2.300   0.516   1.297  0.2786 -0.6719  0.1451
  132ACOH    C2 9951   2.200   0.455   1.362 -0.2070  0.4371  0.3700
  132ACOH    O1 9952   2.100   0.420   1.305  0.2833 -0.1077  0.3490
  132ACOH    C1 9953   2.220   0.404   1.503 -0.4539 -0.2865  0.2244
  132ACOH    H1 9954   2.211   0.296   1.497 -0.8720 -0.2126 -0.6246
  132ACOH    H2 9955   2.141   0.437   1.571 -1.9408 -0.6948 -1.2509
  132ACOH    H3 9956   2.317   0.436   1.539 -1.3505  1.9963  0.7413
  133ACOH    H4 9957   4.587   0.580   0.481 -1.4052 -0.8606  1.6642
  133ACOH    O2 9958   4.631   0.641   0.542  0.0622 -0.2643  0.0674
  133ACOH    C2 9959   4.605   0.766   0.499  0.3631 -0.2578 -0.5676
  133ACOH    O1 9960   4.576   0.808   0.387  0.4531 -0.1193 -0.0027
  133ACOH    C1 9961   4.651   0.863   0.605 -0.1975  0.8232  1.2128
  133ACOH    H1 9962   4.593   0.956   0.605 -0.1927  0.8284  1.5605
  133ACOH    H2 9963   4.758   0.883   0.602 -0.3563  1.4524 -1.0333
  133ACOH    H3 9964   4.634   0.808   0.698 -0.1072 -2.5654 -0.7193
  134ACOH    H4 9965   3.430   1.609   0.536 -0.9468 -0.8992  3.3092
  134ACOH    O2 9966   3.505   1.658   0.574  0.5694 -0.4419 -0.0651
  134ACOH    C2 9967   3.614   1.578   0.565 -0.5520 -0.1727 -0.8076
  134ACOH    O1 9968   3.660   1.526   0.468 -0.0351  0.6541 -0.1215
  134ACOH    C1 9969   3.712   1.600   0.671 -0.8567  0.3803 -0.4717
  134ACOH    H1 9970   3.770   1.686   0.637 -0.9813  0.3872 -0.6692
  134ACOH    H2 9971   3.771   1.512   0.696 -0.3884  1.5501  2.8646
  134ACOH    H3 9972   3.661   1.631   0.762 -2.0569  2.4655 -1.8231
  135ACOH    H4 9973   4.480   0.397   0.094 -1.1274  2.1105  0.8990
  135ACOH    O2 9974   4.455   0.335   0.164  0.1133  0.2412 -0.2499
  135ACOH    C2 9975   4.434   0.419   0.267 -0.2631 -0.1732 -0.1502
  135ACOH    O1 9976   4.485   0.528   0.287 -0.3446 -0.7928 -0.3172
  135ACOH    C1 9977   4.345   0.359   0.368  0.0185 -0.2037  0.5086
  135ACOH    H1 9978   4.320   0.257   0.341  1.4046 -0.7288  1.1927
  135ACOH    H2 9979   4.259   0.424   0.383 -0.6524 -0.7256 -0.9450
  135ACOH    H3 9980   4.402   0.340   0.459 -1.0343 -0.6132  1.0938
  136SOL     OW 9981   3.880   0.368   2.152  0.3080 -0.3948  0.6255
  136SOL    HW1 9982   3.942   0.301   2.194  1.3012 -0.2701 -0.6178
  136SOL    HW2 9983   3.931   0.450   2.128 -0.6266  0.2514  0.8219
  137SOL     OW 9984   3.085   9.100   1.727  0.1946 -0.4082 -0.0200
  137SOL    HW1 9985   3.127   9.186   1.756  0.6234 -0.7199  0.2981
  137SOL    HW2 9986   3.154   9.043   1.683  0.0820 -0.8827  0.4146
  138SOL     OW 9987   3.750   1.921   2.343  0.4238  0.1349 -0.5260
  138SOL    HW1 9988   3.770   1.963   2.432  0.1186 -0.1996 -0.2983
  138SOL    HW2 9989   3.730   1.824   2.356 -1.2452  0.4357 -0.7521
  139SOL     OW 9990   2.361   9.883   1.397 -0.4368 -0.2457 -0.3105
  139SOL    HW1 9991   2.322   9.838   1.316 -0.1345  0.8061 -1.0521
  139SOL    HW2 9992   2.453   9.848   1.412 -0.8695 -1.1857  0.1855
  140SOL     OW 9993   3.686   1.137   1.217  0.4214  0.7683  0.4178
  140SOL    HW1 9994   3.668   1.224   1.171  4.1485  1.9513  1.0120
  140SOL    HW2 9995   3.677   1.062   1.152  1.1127  1.9686 -1.0787
  141SOL     OW 9996   2.281   9.906   2.434  0.5104  0.1966 -0.1235
  141SOL    HW1 9997   2.369   9.953   2.436  0.1481  0.9531 -1.3302
  141SOL    HW2 9998   2.241   9.914   2.342  0.0186 -1.6958 -0.0927
  142SOL     OW 9999   2.699   0.656   0.942 -0.6970 -0.1362 -0.5431
  142SOL    HW110000   2.746   0.670   1.029 -2.5947 -1.8807  0.8010
  142SOL    HW210001   2.685   0.558   0.928 -0.5772  0.1351 -2.7479
  143SOL     OW10002   2.083   9.377   2.521  0.2770 -0.3260 -0.1762
  143SOL    HW110003   2.173   9.336   2.504  1.1712  1.2397  0.5750
  143SOL    HW210004   2.095   9.474   2.541 -1.6776  0.0584 -0.8240
  144SOL     OW10005   3.192   9.485   0.238  0.1904 -0.3855  0.1199
  144SOL    HW110006   3.226   9.461   0.147 -0.5776 -1.3605  0.0786
  144SOL    HW210007   3.101   9.526   0.230 -0.8626 -2.5760  0.6034
  145SOL     OW10008   3.672   8.743   1.829  1.0898 -0.3013  0.4287
  145SOL    HW110009   3.583   8.758   1.786  0.6813 -2.0969  0.6304
  145SOL    HW210010   3.734   8.701   1.763  1.5616  0.2280  0.5304
  146SOL     OW10011   4.069   0.779   1.686 -0.1081  0.2642  0.2055
  146SOL    HW110012   3.971   0.771   1.705  0.0237 -3.0357 -0.1157
  146SOL    HW210013   4.095   0.710   1.618  1.8947  3.1590 -2.0768
  147SOL     OW10014   4.514   0.767   0.064 -0.3950  0.3305 -0.4252
  147SOL    HW110015   4.576   0.842   0.042 -0.1029 -0.1353 -1.2235
  147SOL    HW210016   4.553   0.711   0.136  0.1761 -0.0343 -1.0108
  148SOL     OW10017   4.238   0.546   2.708  0.6119  0.1915  0.1137
  148SOL    HW110018   4.234   0.630   2.762  2.6945 -0.5679  1.5279
  148SOL    HW210019   4.197   0.471   2.760 -0.4866  0.1441 -0.8010
  149SOL     OW10020   2.584   0.508   1.363 -0.4189  0.3217 -0.8599
  149SOL    HW110021   2.500   0.487   1.313 -1.7546  0.3144  1.3683
  149SOL    HW210022   2.571   0.490   1.460  1.4460  2.4763 -0.1699
  150SOL     OW10023   3.512   9.975   1.806 -0.3819  0.1047  0.4672
  150SOL    HW110024   3.485   9.905   1.740 -1.5867  0.8364  0.1678
  150SOL    HW210025   3.435   9.995   1.867  0.6485 -0.4208  1.9954
  151SOL     OW10026   2.457   9.089   0.112  0.2429 -0.0015  0.4202
  151SOL    HW110027   2.461   9.071   0.210  0.1950 -4.4727 -0.3060
  151SOL    HW210028   2.512   9.021   0.063  2.0699  3.4432 -2.5758
  152SOL     OW10029   3.297   0.816   2.521  0.0367 -0.0540 -0.4974
  152SOL    HW110030   3.271   0.901   2.567 -0.2875 -0.2971 -0.2338
  152SOL    HW210031   3.360   0.837   2.446  1.3291  0.2619  0.6466
  153SOL     OW10032   3.609   1.061   0.081 -0.1729  0.0180  0.4369
  153SOL    HW110033   3.610   1.038   0.178  2.3593 -0.5355  0.3246
  153SOL    HW210034   3.542   1.005   0.033 -0.7406 -0.3928  1.7058
  154SOL     OW10035   3.065   8.695   1.097  0.0888 -0.5028  0.1519
  154SOL    HW110036   2.992   8.638   1.058 -0.2188  0.4655 -0.7079
  154SOL    HW210037   3.066   8.783   1.050  2.2832 -0.7700 -0.3385
  155SOL     OW10038   3.157   8.881   0.291 -0.4651 -0.0990 -0.6957
  155SOL    HW110039   3.197   8.933   0.366 -0.5337 -0.1408 -0.6299
  155SOL    HW210040   3.177   8.784   0.302  2.0859  0.1996 -2.3093
  156SOL     OW10041   4.038   9.279   1.860 -0.2679 -0.2686  0.0827
  156SOL    HW110042   3.985   9.349   1.906  0.8625  1.6633 -1.4501
  156SOL    HW210043   4.130   9.275   1.900 -0.7169 -1.7711  0.9966
  157SOL     OW10044   3.826   8.901   1.996  0.3854 -0.1522  0.0199
  157SOL    HW110045   3.760   8.828   1.980  3.4776 -2.9796 -0.2497
  157SOL    HW210046   3.863   8.933   1.909  0.6571  0.2023  0.2636
  158SOL     OW10047   2.156   9.079   1.575 -0.2740 -0.4485  0.7306
  158SOL    HW110048   2.181   9.168   1.613 -3.2396  0.5989  0.3120
  158SOL    HW210049   2.235   9.040   1.528  1.3242  1.5418  1.6934
  159SOL     OW10050   2.848   8.281   0.453  0.0981 -0.2531  0.2449
  159SOL    HW110051   2.844   8.357   0.518 -1.3752 -1.9093  2.1654
  159SOL    HW210052   2.851   8.194   0.503  0.7076 -1.5001 -1.9024
  160SOL     OW10053   3.306   9.458   2.874 -0.2100 -0.2975 -0.0815
  160SOL    HW110054   3.360   9.397   2.817  1.4854 -1.0837  2.2874
  160SOL    HW210055   3.343   9.551   2.868 -2.6479  0.5526 -3.5007
  161SOL     OW10056   3.620   9.429   0.936 -0.4451 -0.3041 -0.0362
  161SOL    HW110057   3.538   9.479   0.964 -1.2015 -1.4734 -0.1233
  161SOL    HW210058   3.655   9.378   1.014  0.3444  0.3949  0.0632
  162SOL     OW10059   2.831   1.076   0.371  0.0957  0.5516  0.5779
  162SOL    HW110060   2.922   1.037   0.385 -0.4218 -2.4376 -3.4295
  162SOL    HW210061   2.823   1.109   0.277 -2.6967  1.6319  1.1301
  163SOL     OW10062   3.798   0.700   1.750  0.3418 -0.3141 -0.0813
  163SOL    HW110063   3.714   0.686   1.802  0.3828  0.8560  0.3109
  163SOL    HW210064   3.778   0.759   1.671  0.4876 -1.2529 -0.8252
  164SOL     OW10065   2.833   0.814   0.511 -0.0753 -0.2743 -0.3860
  164SOL    HW110066   2.843   0.793   0.608  0.7312  0.3600 -0.3232
  164SOL    HW210067   2.785   0.901   0.500  0.7577  0.1726 -0.5265
  165SOL     OW10068   3.970   0.463   1.775  0.2167  0.2016 -0.3319
  165SOL    HW110069   4.001   0.480   1.681  0.4416  0.3873 -0.2228
  165SOL    HW210070   3.904   0.532   1.802  0.8163  0.6598 -0.0380
  166SOL     OW10071   2.846   9.141   0.998  0.2806  0.8132  0.1166
  166SOL    HW110072   2.926   9.161   0.943 -0.1213  2.8552  0.2194
  166SOL    HW210073   2.766   9.131   0.939  0.1727  1.2574  0.1814
  167SOL     OW10074   3.016   9.672   1.141 -0.4345 -0.2362  0.1391
  167SOL    HW110075   2.955   9.752   1.138 -0.3149 -0.1385  0.2801
  167SOL    HW210076   3.065   9.672   1.227 -1.3629 -1.1576  0.6734
  168SOL     OW10077   3.340   0.039   2.054 -0.3362  0.1598 -0.2691
  168SOL    HW110078   3.319  -0.057   2.039  0.5680 -0.2998  1.2384
  168SOL    HW210079   3.273   0.078   2.118  0.1507  0.1536  0.2421
  169SOL     OW10080   2.316   9.336   0.095 -0.1188 -0.0509 -0.1156
  169SOL    HW110081   2.281   9.359   0.186  0.1417  0.0567 -0.0435
  169SOL    HW210082   2.342   9.240   0.092 -0.3636 -0.1155 -0.1515
  170SOL     OW10083   4.143   1.266   0.242  0.9103 -0.4336 -0.0499
  170SOL    HW110084   4.067   1.202   0.230  0.3381  0.4583 -1.2355
  170SOL    HW210085   4.109   1.353   0.279  1.1614  0.3958 -1.7516
  171SOL     OW10086   4.283   1.096   0.414 -0.0648  0.1764 -0.3844
  171SOL    HW110087   4.304   1.017   0.356  0.9143 -0.0541  0.2689
  171SOL    HW210088   4.266   1.176   0.356  0.1812 -0.2176 -1.0078
  172SOL     OW10089   2.265   9.617   2.253 -0.1179  0.3019 -0.3197
  172SOL    HW110090   2.234   9.639   2.345 -0.1871  1.4542 -0.5997
  172SOL    HW210091   2.258   9.519   2.237 -0.9528  0.2099  0.5955
  173SOL     OW10092   2.500   9.213   0.387  0.0735 -0.3220 -0.0919
  173SOL    HW110093   2.445   9.286   0.345  1.2658  0.7409  0.1759
  173SOL    HW210094   2.581   9.252   0.429  1.0987 -1.9066 -0.5579
  174SOL     OW10095   4.230   9.606   1.651  0.0103 -0.2190 -0.5718
  174SOL    HW110096   4.275   9.666   1.585 -0.4502  0.4745 -0.2705
  174SOL    HW210097   4.242   9.511   1.624  3.5810 -0.2016  0.7307
  175SOL     OW10098   2.069   9.885   1.008 -0.2688  0.1332  0.0082
  175SOL    HW110099   1.974   9.912   0.994 -0.3144 -0.3169 -0.5418
  175SOL    HW210100   2.122   9.905   0.926  0.1105  0.3816  0.3160
  176SOL     OW10101   2.349   9.464   1.911 -0.1515 -0.0187 -0.0040
  176SOL    HW110102   2.312   9.375   1.939 -1.4738  1.1919  2.1917
  176SOL    HW210103   2.336   9.476   1.812  0.6037 -2.5088 -0.4491
  177SOL     OW10104   3.277   9.999   1.119 -0.5056  0.3478 -0.0178
  177SOL    HW110105   3.272  10.087   1.166 -1.5552  1.3813 -2.0252
  177SOL    HW210106   3.209   9.995   1.046  1.3252 -1.0623 -1.7179
  178SOL     OW10107   4.320   0.872   0.250 -0.6403  0.0202  0.2294
  178SOL    HW110108   4.397   0.834   0.302 -0.1253 -0.2924 -0.7456
  178SOL    HW210109   4.324   0.839   0.156 -1.5385  0.6215 -0.0286
  179SOL     OW10110   4.625   0.367   0.637 -0.2629 -0.4422  0.6060
  179SOL    HW110111   4.566   0.435   0.680  1.5077  2.8252 -1.8396
  179SOL    HW210112   4.719   0.379   0.668  0.7400  0.8471 -2.7006
  180SOL     OW10113   2.269   9.639   2.589  0.0165  0.0505  0.7869
  180SOL    HW110114   2.342   9.580   2.554 -0.3956  0.3403 -0.5887
  180SOL    HW210115   2.287   9.734   2.562 -0.2512  0.2895  1.4562
  181SOL     OW10116   3.689   9.911   0.527 -0.2360 -0.4972  0.0083
  181SOL    HW110117   3.604   9.872   0.492 -0.3339  0.6007 -1.0161
  181SOL    HW210118   3.766   9.854   0.497 -0.4962 -0.7755 -0.1396
  182SOL     OW10119   3.826   8.864   2.714 -0.1827  0.1397  0.3123
  182SOL    HW110120   3.863   8.834   2.626 -0.1727  0.3784  0.2329
  182SOL    HW210121   3.750   8.928   2.698 -2.2692 -2.2398  0.4615
  183SOL     OW10122   2.609   9.547   2.511 -0.4056  0.1605 -0.0225
  183SOL    HW110123   2.663   9.506   2.437 -0.1469  0.8720 -0.2274
  183SOL    HW210124   2.535   9.484   2.536 -0.2222 -0.2826 -0.5758
  184SOL     OW10125   3.912   9.896   1.898 -0.6875  0.1852 -0.1324
  184SOL    HW110126   3.859   9.967   1.853 -0.2265  0.6110 -0.0104
  184SOL    HW210127   4.010   9.917   1.890 -0.5093 -0.8039 -0.7301
  185SOL     OW10128   3.342   8.627   0.985 -0.0386 -0.5407  0.8369
  185SOL    HW110129   3.259   8.609   1.037 -0.3093 -0.2077  0.5172
  185SOL    HW210130   3.321   8.632   0.887  0.3010 -0.1434  0.7800
  186SOL     OW10131   3.310   9.136   0.062 -0.0684 -0.4424 -0.2269
  186SOL    HW110132   3.226   9.179   0.095 -0.7593 -1.9614  0.0365
  186SOL    HW210133   3.384   9.152   0.127 -0.9623 -1.8166  1.1592
  187SOL     OW10134   3.885   9.744   0.452  0.6816  0.2418 -0.2858
  187SOL    HW110135   3.912   9.654   0.484  3.5825  1.0243 -0.4014
  187SOL    HW210136   3.931   9.765   0.366 -1.7421  0.9269 -1.4487
  188SOL     OW10137   2.298   0.548   1.038  0.1232 -0.6757  0.2204
  188SOL    HW110138   2.250   0.503   0.962 -1.0363  1.5303 -0.3823
  188SOL    HW210139   2.255   0.636   1.057  1.0392 -0.7543  2.7959
  189SOL     OW10140   2.097   0.288   0.614 -0.1607  0.2494  0.3266
  189SOL    HW110141   2.015   0.233   0.598  0.4002 -1.4275  2.8567
  189SOL    HW210142   2.105   0.357   0.542 -3.6371  0.3040 -0.1204
  190SOL     OW10143   2.108   9.469   0.972 -0.1370  0.2782 -0.2288
  190SOL    HW110144   2.126   9.560   1.011 -0.6844 -0.2441  1.3093
  190SOL    HW210145   2.123   9.400   1.043  0.3141 -0.8422 -1.3990
  191SOL     OW10146   4.018   9.831   0.694  0.1200  0.3139  0.5169
  191SOL    HW110147   4.067   9.915   0.671 -1.4431  0.6710 -1.6955
  191SOL    HW210148   3.986   9.788   0.610 -0.2565 -1.8003  1.7201
  192SOL     OW10149   3.585   1.763   1.424 -0.0665 -0.1926  0.1140
  192SOL    HW110150   3.504   1.734   1.373  1.3800 -1.0491 -1.7740
  192SOL    HW210151   3.591   1.863   1.424 -1.8388 -0.0691  1.4561
  193SOL     OW10152   3.486   0.109   2.687  0.3034  0.7477  0.5873
  193SOL    HW110153   3.523   0.110   2.780  1.4835  1.5115  0.1145
  193SOL    HW210154   3.553   0.069   2.624 -0.7688 -0.4379  0.1658
  194SOL     OW10155   2.876   1.413   0.349  0.3523  0.1512  0.4330
  194SOL    HW110156   2.811   1.378   0.282  1.2174 -1.9236  0.6537
  194SOL    HW210157   2.956   1.450   0.302  0.0846  0.5192  0.2610
  195SOL     OW10158   2.425   0.957   2.616  0.5811 -0.0960 -0.9307
  195SOL    HW110159   2.524   0.949   2.624  0.4897  0.7977  1.2567
  195SOL    HW210160   2.401   1.049   2.583  0.3580  1.0319  2.1959
  196SOL     OW10161   3.006   4.224   1.804  0.3815 -0.5383  0.6789
  196SOL    HW110162   2.988   4.212   1.902  1.0125 -1.5783  0.6698
  196SOL    HW210163   3.044   4.315   1.788 -0.2462 -0.1626  1.3322
  197SOL     OW10164   2.440   9.520   1.555 -0.0568 -0.9846  0.2629
  197SOL    HW110165   2.449   9.587   1.628  0.0090 -0.6242 -0.0741
  197SOL    HW210166   2.503   9.542   1.481 -0.5525 -0.9927 -0.1688
  198SOL     OW10167   2.756   1.250   0.588 -0.8667 -0.2986 -0.0165
  198SOL    HW110168   2.750   1.341   0.546  1.1042 -0.2470 -0.2593
  198SOL    HW210169   2.759   1.181   0.516  0.8557 -0.3188  0.0454
  199SOL     OW10170   4.282   9.203   2.584 -0.1886 -0.6734  0.1445
  199SOL    HW110171   4.345   9.221   2.659  0.9258  0.0289 -0.9555
  199SOL    HW210172   4.243   9.289   2.552  0.9634 -0.7599 -1.4946
  200SOL     OW10173   2.648   8.883   2.682 -0.5037  0.5255 -0.0106
  200SOL    HW110174   2.729   8.929   2.646  0.3804 -1.0282 -0.0213
  200SOL    HW210175   2.582   8.871   2.608 -0.7898  1.8460  0.0123
  201SOL     OW10176   2.160   9.127   2.585  0.7396  0.2756  0.3550
  201SOL    HW110177   2.171   9.092   2.678 -0.2994  0.5964  0.6008
  201SOL    HW210178   2.087   9.195   2.584 -2.3199 -2.9022 -1.5311
  202SOL     OW10179   3.535   9.292   2.805 -0.8077 -0.0904  0.2870
  202SOL    HW110180   3.564   9.333   2.892 -2.2578  2.8599 -0.5708
  202SOL    HW210181   3.457   9.232   2.821  0.3752 -1.4014  1.3247
  203SOL     OW10182   3.383   8.884   2.729 -0.0775  0.0757  0.3456
  203SOL    HW110183   3.290   8.892   2.764  0.2520 -0.5861  1.4261
  203SOL    HW210184   3.446   8.926   2.795  0.5160 -0.7591  0.3094
  204SOL     OW10185   2.709   1.572   0.105 -0.0190  0.3439 -0.7853
  204SOL    HW110186   2.805   1.590   0.126 -0.0925  0.8166 -0.8394
  204SOL    HW210187   2.659   1.659   0.105 -0.5703  0.0324 -0.1356
  205SOL     OW10188   2.504   0.763   0.780 -0.2329  0.7396 -0.0626
  205SOL    HW110189   2.568   0.704   0.829  0.4595  0.2494 -1.5356
  205SOL    HW210190   2.550   0.847   0.752 -0.6533  1.0570  0.1815
  206SOL     OW10191   3.574   9.954   0.253  0.6310  0.5872  0.4717
  206SOL    HW110192   3.482   9.929   0.282 -0.2125  0.8386 -1.8468
  206SOL    HW210193   3.586   9.928   0.157  2.6650  1.3669  0.5020
  207SOL     OW10194   4.156   9.769   2.537  0.3001  0.0370 -0.3922
  207SOL    HW110195   4.186   9.765   2.632 -0.3868  0.9988 -0.1233
  207SOL    HW210196   4.120   9.861   2.517 -0.8274 -0.5606 -1.1813
  208SOL     OW10197   2.211   0.454   0.795  0.3739 -0.3797  0.3707
  208SOL    HW110198   2.231   0.525   0.728  1.0544 -0.5637  0.3788
  208SOL    HW210199   2.209   0.365   0.750  1.0419 -0.5292  0.6236
  209SOL     OW10200   4.092   0.287   0.652  0.2095 -0.5730 -0.0444
  209SOL    HW110201   4.061   0.369   0.603 -0.1714 -0.3843  0.4989
  209SOL    HW210202   4.059   0.206   0.604 -1.0764 -0.3744  0.4646
  210SOL     OW10203   3.888   0.263   2.570  0.4413 -0.3495 -0.5438
  210SOL    HW110204   3.798   0.281   2.530  1.2135 -0.9260 -2.5955
  210SOL    HW210205   3.925   0.348   2.608 -0.2322  0.2562 -1.2266
  211SOL     OW10206   2.536   0.007   2.383  0.6728  0.3588 -0.2917
  211SOL    HW110207   2.581  -0.082   2.379  1.5906  0.8185 -0.4556
  211SOL    HW210208   2.550   0.055   2.297  1.4009  1.2276  0.3011
  212SOL     OW10209   2.219   9.003   1.209  0.0757  0.1373 -0.3875
  212SOL    HW110210   2.144   8.969   1.266 -1.0585  1.0517 -1.3004
  212SOL    HW210211   2.219   9.103   1.211  0.0591  0.1815 -1.9100
  213SOL     OW10212   3.064   9.081   2.416  0.7530 -0.2295 -0.3653
  213SOL    HW110213   3.115   9.165   2.396  0.4446 -0.3932 -1.9166
  213SOL    HW210214   3.117   9.002   2.385  0.1145 -0.4788 -0.8220
  214SOL     OW10215   2.634   9.622   1.309 -1.0666  0.4076 -0.6758
  214SOL    HW110216   2.708   9.672   1.356 -2.0155  1.5813 -0.3988
  214SOL    HW210217   2.650   9.624   1.211 -0.3306  0.0070 -0.5672
  215SOL     OW10218   3.775   9.409   2.701  0.0197  0.1753  0.1218
  215SOL    HW110219   3.677   9.425   2.707 -0.3848 -1.9987 -0.2774
  215SOL    HW210220   3.801   9.398   2.605  1.0974  3.1433  0.0097
  216SOL     OW10221   4.315   0.891   0.629  0.0078  0.1387  0.3006
  216SOL    HW110222   4.302   0.967   0.565 -0.1807  0.7178  1.0186
  216SOL    HW210223   4.350   0.927   0.716  0.2061 -0.6362  0.5397
  217SOL     OW10224   4.571   0.170   1.004  0.2356  0.3880  0.0087
  217SOL    HW110225   4.642   0.104   0.980  0.0624 -0.1032  0.8049
  217SOL    HW210226   4.493   0.121   1.042  0.2732  1.0862  0.9897
  218SOL     OW10227   3.607   0.284   0.922  0.0343 -0.3171  0.1843
  218SOL    HW110228   3.551   0.202   0.927  1.6606 -1.5937 -1.6957
  218SOL    HW210229   3.673   0.285   0.997 -0.6417 -0.2251  0.7776
  219SOL     OW10230   2.263   9.604   2.864 -0.1643  0.2607  0.2615
  219SOL    HW110231   2.263   9.612   2.764 -1.7515  1.9101  0.3589
  219SOL    HW210232   2.288   9.511   2.890  1.5546  0.1526 -1.6266
  220SOL     OW10233   2.691   9.689   1.002 -1.4285  0.4213 -0.7016
  220SOL    HW110234   2.755   9.752   0.957 -1.2564 -0.6396 -1.9873
  220SOL    HW210235   2.728   9.596   0.998 -0.5659  0.5225  3.2529
  221SOL     OW10236   3.189   9.674   1.397 -0.1799  0.7074 -0.5782
  221SOL    HW110237   3.285   9.693   1.379  0.8987 -1.9720  1.9802
  221SOL    HW210238   3.178   9.579   1.426 -3.4376  1.3166  0.4184
  222SOL     OW10239   2.244   0.357   2.482 -0.1215 -0.2935  0.0297
  222SOL    HW110240   2.271   0.415   2.559 -0.9872 -1.6231  1.3701
  222SOL    HW210241   2.324   0.312   2.443  0.1076 -1.1537  1.4497
  223SOL     OW10242   3.350   0.092   0.089 -0.2035  0.2940  0.1428
  223SOL    HW110243   3.434   0.142   0.110 -0.5620  1.2023 -0.5515
  223SOL    HW210244   3.279   0.117   0.156 -0.1007 -0.0358  0.3801
  224SOL     OW10245   3.417   0.847   2.294 -0.3845  0.6287 -0.4170
  224SOL    HW110246   3.356   0.786   2.244 -0.8745 -0.0613  1.0007
  224SOL    HW210247   3.503   0.799   2.314 -0.3047  0.8041 -0.3419
  225SOL     OW10248   2.769   9.742   2.635  0.2413 -0.0861 -0.0337
  225SOL    HW110249   2.709   9.676   2.589  1.9391 -2.0615  0.5165
  225SOL    HW210250   2.733   9.762   2.726 -0.1396 -0.4512 -0.1012
  226SOL     OW10251   4.237   9.798   2.815  0.0133  0.2573 -0.4653
  226SOL    HW110252   4.184   9.715   2.837 -0.8016  1.1081  0.8586
  226SOL    HW210253   4.320   9.800   2.872 -0.7648  1.1310  0.6623
  227SOL     OW10254   3.908   9.620   1.825  0.1840 -0.2237 -0.2926
  227SOL    HW110255   3.914   9.552   1.897 -1.4964  0.1395  0.2147
  227SOL    HW210256   3.908   9.712   1.865  0.3332  0.0130 -0.8246
  228SOL     OW10257   2.110   9.718   0.169  0.0196 -0.0417  0.0911
  228SOL    HW110258   2.159   9.691   0.086  0.2821  2.2574 -0.5508
  228SOL    HW210259   2.148   9.805   0.203 -1.5431  0.1632  1.3740
  229SOL     OW10260   4.090   9.567   2.808 -0.5235 -0.1293  0.4156
  229SOL    HW110261   4.105   9.474   2.840 -0.7291 -0.8273 -1.4592
  229SOL    HW210262   3.993   9.580   2.786 -0.1984 -0.0221 -0.9891
  230SOL     OW10263   3.727   0.369   0.238  0.0612  0.4146  0.1143
  230SOL    HW110264   3.819   0.407   0.226  0.6260 -1.0080 -0.1486
  230SOL    HW210265   3.728   0.272   0.215 -1.6428  0.5219 -0.4544
  231SOL     OW10266   3.773   9.226   2.185 -0.5665 -0.5121  0.5853
  231SOL    HW110267   3.859   9.176   2.194 -0.4220 -0.1907  0.9928
  231SOL    HW210268   3.698   9.161   2.178 -0.2975 -0.7952  0.2484
  232SOL     OW10269   3.880   0.136   2.819 -0.2284  0.0246  0.3358
  232SOL    HW110270   3.886   0.168   2.724  1.4808 -2.1663 -0.3292
  232SOL    HW210271   3.970   0.108   2.851 -0.9645 -0.1955  2.2933
  233SOL     OW10272   2.205   9.269   0.601 -0.1666  0.1004  0.0161
  233SOL    HW110273   2.122   9.286   0.654 -1.0583 -0.5744 -1.1380
  233SOL    HW210274   2.281   9.249   0.663 -0.9623  0.2701  1.0593
  234SOL     OW10275   2.982   1.636   0.115  0.3929 -0.0272 -0.4506
  234SOL    HW110276   3.000   1.641   0.016  0.5632  2.6342 -0.3268
  234SOL    HW210277   3.048   1.693   0.163 -2.1451  1.8927  0.8705
  235SOL     OW10278   2.424   9.105   1.404  0.0726  0.2533  0.1718
  235SOL    HW110279   2.400   9.164   1.328  2.9633 -0.9805 -1.8054
  235SOL    HW210280   2.403   9.010   1.380  1.7285 -0.2314  0.5266
  236SOL     OW10281   3.841   1.490   2.256 -0.2459 -0.2534  0.7335
  236SOL    HW110282   3.864   1.409   2.310 -1.5897 -0.9062  0.3454
  236SOL    HW210283   3.751   1.478   2.214  0.0173  0.9853 -0.2227
  237SOL     OW10284   2.318   9.358   2.179 -0.1038  1.0304 -0.2324
  237SOL    HW110285   2.371   9.416   2.118  0.8961 -1.7127 -2.0393
  237SOL    HW210286   2.370   9.275   2.200 -1.6180  0.6116  2.0523
  238SOL     OW10287   2.343   0.144   1.311 -0.0308 -0.8619  0.4319
  238SOL    HW110288   2.328   0.046   1.325  0.2618 -0.9530  0.1191
  238SOL    HW210289   2.262   0.195   1.339  0.2877 -1.0935  1.8083
  239SOL     OW10290   2.982   8.870   0.805  0.1612  0.4365 -0.0535
  239SOL    HW110291   3.023   8.926   0.877  3.7649 -0.1944 -1.4747
  239SOL    HW210292   2.990   8.917   0.717  1.9364 -1.6092 -1.0347
  240SOL     OW10293   2.282   9.257   1.203  0.6364 -0.1166  0.0478
  240SOL    HW110294   2.268   9.341   1.256  2.7271  0.0850  0.3000
  240SOL    HW210295   2.323   9.280   1.115  0.6478 -0.8282 -0.1355
  241SOL     OW10296   2.257   9.752   1.157 -0.3378  0.0520 -0.1511
  241SOL    HW110297   2.310   9.713   1.082 -0.5108  1.0366 -0.7930
  241SOL    HW210298   2.176   9.798   1.120  0.4748  2.0511  0.4862
  242SOL     OW10299   2.598   0.380   0.925  0.1004  0.2206 -0.6112
  242SOL    HW110300   2.521   0.332   0.968 -0.3298  1.6104  0.1977
  242SOL    HW210301   2.572   0.412   0.834 -0.5937  1.4562  0.0049
  243SOL     OW10302   3.122   8.895   0.013 -0.3289 -0.0995  0.7698
  243SOL    HW110303   3.112   8.843   0.098 -0.2470  0.5042  1.1508
  243SOL    HW210304   3.176   8.977   0.031 -0.5022  0.1424  0.1802
  244SOL     OW10305   3.453   1.732   2.870  0.0056  0.6178  0.2022
  244SOL    HW110306   3.548   1.703   2.879 -0.0794  0.2899  0.0757
  244SOL    HW210307   3.435   1.759   2.775 -0.0796  0.4849  0.1804
  245SOL     OW10308   3.963   9.815   0.209  1.0775  0.0402 -0.1946
  245SOL    HW110309   3.895   9.820   0.136  2.0671 -1.3543 -1.2295
  245SOL    HW210310   4.053   9.838   0.172  1.1862  2.0205  1.1916
  246SOL     OW10311   4.279   0.067   0.871 -0.1824 -0.1876 -0.4175
  246SOL    HW110312   4.205   0.124   0.906  2.1770  1.5469  1.9847
  246SOL    HW210313   4.260  -0.029   0.892 -1.2338  0.3562  1.2240
  247SOL     OW10314   2.021   9.799   0.420  0.8399 -0.1457 -0.6650
  247SOL    HW110315   2.015   9.850   0.335 -1.2896  0.0120 -0.4585
  247SOL    HW210316   2.011   9.701   0.402  1.6440 -0.2175 -0.7242
  248SOL     OW10317   3.593   0.701   1.923  0.3474 -0.5148 -0.7801
  248SOL    HW110318   3.626   0.707   2.017  0.4888 -1.8348 -0.7394
  248SOL    HW210319   3.494   0.686   1.924  0.2668  0.0214 -0.8470
  249SOL     OW10320   4.225   0.815   1.891 -0.3769  0.3461 -0.8773
  249SOL    HW110321   4.177   0.787   1.808  0.8708 -0.3674 -1.3836
  249SOL    HW210322   4.310   0.763   1.899  0.4925  1.8326 -0.2141
  250SOL     OW10323   2.931   0.734   0.738 -0.2445  0.1265  0.1376
  250SOL    HW110324   3.000   0.769   0.801  1.0200 -0.0006 -1.1512
  250SOL    HW210325   2.843   0.731   0.784  0.3756  1.3796  1.4615
  251SOL     OW10326   3.210   8.853   2.365 -0.7535  0.0999  0.3364
  251SOL    HW110327   3.217   8.830   2.268 -0.8832  0.4063  0.2543
  251SOL    HW210328   3.301   8.866   2.403 -0.7249  0.4698  0.1390
  252SOL     OW10329   3.160   0.197   0.257  0.8814 -0.2888  0.8519
  252SOL    HW110330   3.062   0.185   0.270  0.7377 -0.9864 -0.6833
  252SOL    HW210331   3.210   0.143   0.325  0.1971 -1.2348  0.6154
  253SOL     OW10332   1.108   1.275   0.440 -0.2606  0.2848 -0.0293
  253SOL    HW110333   1.029   1.302   0.385 -0.0590  0.0856 -0.4155
  253SOL    HW210334   1.160   1.356   0.466 -0.2519  0.3582 -0.2824
  254SOL     OW10335   2.992   1.278   0.816  0.3926 -0.0971 -0.1858
  254SOL    HW110336   2.909   1.250   0.863  0.2375  0.1203 -0.3254
  254SOL    HW210337   2.974   1.362   0.764  1.1064  0.8484  1.0379
  255SOL     OW10338   2.808   8.693   0.663 -0.5867 -0.3076  0.3638
  255SOL    HW110339   2.837   8.743   0.745  0.5333 -0.4274  0.0467
  255SOL    HW210340   2.801   8.755   0.586 -0.4119 -0.4220  0.2561
  256SOL     OW10341   3.304   0.737   1.875  0.2309  0.2089 -0.5240
  256SOL    HW110342   3.267   0.690   1.795  0.8831  3.4806 -2.8810
  256SOL    HW210343   3.307   0.835   1.857  1.8409  0.8830  2.9715
  257SOL     OW10344   3.361   9.012   1.648  0.0065 -0.0746 -0.2545
  257SOL    HW110345   3.442   9.058   1.685  0.9699 -0.8620 -1.3343
  257SOL    HW210346   3.371   9.005   1.548 -0.7255 -1.4652 -0.2301
  258SOL     OW10347   3.758   0.756   2.135  1.2365  0.3658 -0.3291
  258SOL    HW110348   3.770   0.855   2.140  0.2027  0.4355  0.9621
  258SOL    HW210349   3.738   0.720   2.226 -0.2304 -0.7948 -1.0940
  259SOL     OW10350   4.127   9.294   2.867  0.1199  0.2298  0.1092
  259SOL    HW110351   4.203   9.230   2.858 -0.1098  0.0306 -0.4501
  259SOL    HW210352   4.041   9.243   2.873 -0.3156  0.5277 -2.9691
  260SOL     OW10353   9.793   5.858   0.251  0.2355  0.0222 -0.5254
  260SOL    HW110354   9.774   5.797   0.174 -1.4565 -0.3702  0.1888
  260SOL    HW210355   9.874   5.913   0.230 -1.4598  1.4685 -3.4954
  261SOL     OW10356   3.834   8.688   1.621  0.1214  0.0428 -0.2683
  261SOL    HW110357   3.796   8.692   1.529 -0.7758  1.5745  0.1445
  261SOL    HW210358   3.923   8.734   1.624 -0.5481  1.3485 -0.0581
  262SOL     OW10359   3.400   1.364   2.346  0.4639 -0.4180 -0.1199
  262SOL    HW110360   3.387   1.276   2.299 -1.3037 -1.0143  1.4564
  262SOL    HW210361   3.312   1.403   2.371  1.3269  0.4420  1.7030
  263SOL     OW10362   7.633   7.993   0.137 -0.0492 -0.8640  0.4067
  263SOL    HW110363   7.630   7.980   0.038 -0.5557  2.2091 -0.0148
  263SOL    HW210364   7.614   7.906   0.182 -0.6420 -2.1296 -2.1913
  264SOL     OW10365   2.575   9.030   0.597 -0.2336 -0.4673  0.2393
  264SOL    HW110366   2.538   9.082   0.521  0.2921 -1.3482 -0.6376
  264SOL    HW210367   2.657   8.981   0.567  0.7990  0.3076  1.7562
  265SOL     OW10368   4.176   9.697   1.925  0.2965  0.8147  0.2275
  265SOL    HW110369   4.203   9.684   1.829  1.7720 -1.0366  0.8689
  265SOL    HW210370   4.197   9.790   1.953  0.9100  1.0366 -0.9316
  266SOL     OW10371   2.938   9.032   2.682  0.1016 -0.1206  0.6911
  266SOL    HW110372   3.008   8.987   2.738  0.3926  0.5874  0.9047
  266SOL    HW210373   2.972   9.042   2.588 -0.1356 -0.7381  0.5405
  267SOL     OW10374   2.428   9.356   2.531 -0.1779 -0.1361  0.0064
  267SOL    HW110375   2.447   9.329   2.625  0.2717  0.4051  0.0680
  267SOL    HW210376   2.413   9.273   2.476  1.6216 -0.5492  0.1096
  268SOL     OW10377   3.642   0.111   2.419  0.5974 -0.2157  0.1551
  268SOL    HW110378   3.608   0.106   2.325  0.2791  1.9368  0.1189
  268SOL    HW210379   3.703   0.034   2.437 -2.9086 -3.2401 -0.3279
  269SOL     OW10380   2.883   1.280   2.339  0.4038 -0.2454 -0.2173
  269SOL    HW110381   2.884   1.190   2.382 -1.8896 -0.7828 -1.2182
  269SOL    HW210382   2.881   1.269   2.240  1.7518  0.9338 -0.3838
  270SOL     OW10383   2.628   1.278   2.526 -0.1329 -0.0111  0.8018
  270SOL    HW110384   2.685   1.319   2.454 -1.4450 -1.2145 -0.9824
  270SOL    HW210385   2.624   1.340   2.604  2.3588  0.7832  0.3726
  271SOL     OW10386   2.625   1.008   0.664  0.1746 -0.4113 -0.1381
  271SOL    HW110387   2.531   1.042   0.660 -0.5843 -1.9369  3.0684
  271SOL    HW210388   2.688   1.084   0.674 -0.8225  0.5354 -0.9817
  272SOL     OW10389   1.978   9.499   0.295 -0.2882 -0.5146  0.1981
  272SOL    HW110390   1.899   9.472   0.240 -1.7129  0.9783  1.4688
  272SOL    HW210391   2.033   9.564   0.243 -2.0177  1.4431  0.7726
  273SOL     OW10392   3.816   0.072   0.265  0.0520 -0.6455  0.9323
  273SOL    HW110393   3.721   0.049   0.247  0.4756 -1.2558 -0.6904
  273SOL    HW210394   3.872  -0.011   0.261  0.5865 -0.3731  2.4007
  274SOL     OW10395   3.104   0.800   0.930 -0.1279 -0.1317  0.7522
  274SOL    HW110396   3.190   0.848   0.949 -0.2076 -0.2495  1.4290
  274SOL    HW210397   3.105   0.710   0.975 -0.6240 -0.1176  0.7938
  275SOL     OW10398   4.134   0.154   1.535  0.4311  0.2977  0.1308
  275SOL    HW110399   4.218   0.182   1.581  1.0517  0.8354 -1.3255
  275SOL    HW210400   4.082   0.234   1.507  0.1081 -0.0277 -0.2180
  276SOL     OW10401   2.432   9.642   0.946  0.8070 -0.4770 -0.3263
  276SOL    HW110402   2.517   9.686   0.975  2.3816 -1.6755 -2.9520
  276SOL    HW210403   2.382   9.702   0.884 -0.9369  0.7245  2.1351
  277SOL     OW10404   2.324   9.287   1.643 -0.4158  0.5944 -0.8791
  277SOL    HW110405   2.358   9.225   1.571 -0.0259  0.5471 -0.6535
  277SOL    HW210406   2.341   9.381   1.616  1.4314  0.5274 -0.0071
  278SOL     OW10407   4.533   0.469   2.836 -0.3664 -0.6358 -0.8592
  278SOL    HW110408   4.516   0.435   2.744 -0.4145 -0.5758 -0.8721
  278SOL    HW210409   4.533   0.569   2.836 -3.6357 -0.5894 -0.2051
  279SOL     OW10410   3.614   0.153   0.042  0.4649  0.1890  0.8272
  279SOL    HW110411   3.595   0.250   0.026  0.8524  0.1987  0.3990
  279SOL    HW210412   3.710   0.135   0.021  0.2768 -0.3837  0.4399
  280SOL     OW10413   3.740   9.371   2.418  0.2180  0.1746  0.2151
  280SOL    HW110414   3.694   9.312   2.352  1.1129 -1.8108  1.3096
  280SOL    HW210415   3.837   9.378   2.394  0.1201  1.2336  0.0927
  281SOL     OW10416   2.421   0.667   2.650  0.5088 -0.4013 -0.2249
  281SOL    HW110417   2.484   0.719   2.708 -0.0373 -2.1102  1.9819
  281SOL    HW210418   2.438   0.689   2.554  2.4795  1.3456  0.4848
  282SOL     OW10419   2.809   8.910   2.252  0.2029  0.3916  0.1013
  282SOL    HW110420   2.872   8.987   2.238  0.0676  0.4903  0.0436
  282SOL    HW210421   2.831   8.838   2.186 -0.0470  0.6184 -0.2331
  283SOL     OW10422   3.076   9.104   0.660 -0.1930 -0.4572  0.1721
  283SOL    HW110423   3.148   9.072   0.599  1.8022  2.5752  0.8557
  283SOL    HW210424   3.113   9.170   0.724 -3.5371  0.9699  0.7466
  284SOL     OW10425   4.442   0.349   1.706  0.0950 -0.3064  0.0103
  284SOL    HW110426   4.470   0.444   1.698 -1.4508  0.0491 -1.3779
  284SOL    HW210427   4.359   0.343   1.761 -2.4692 -0.3303 -3.7450
  285SOL     OW10428   3.111   9.931   0.511  0.1436 -0.3414 -0.5626
  285SOL    HW110429   3.012   9.948   0.506  0.1339 -0.3936 -0.5490
  285SOL    HW210430   3.155  10.004   0.564 -0.1146 -1.2062  0.8456
  286SOL     OW10431   2.232   0.187   2.707  0.2113 -0.8331  0.4274
  286SOL    HW110432   2.226   0.269   2.763  1.1242 -0.0765 -0.5800
  286SOL    HW210433   2.167   0.193   2.631 -0.0920 -1.2831  0.6445
  287SOL     OW10434   3.725   2.009   1.322  0.2355 -0.0787  0.0801
  287SOL    HW110435   3.796   1.973   1.382  1.8549  0.7510 -1.2842
  287SOL    HW210436   3.761   2.087   1.271 -0.9609 -1.0118 -2.2835
  288SOL     OW10437   2.351   0.625   0.571 -0.1526 -0.3451  0.0664
  288SOL    HW110438   2.310   0.613   0.481 -2.4342 -1.2472  1.1827
  288SOL    HW210439   2.393   0.715   0.576 -1.0575  0.1891 -1.5083
  289SOL     OW10440   3.397   9.738   1.162  0.3708 -1.1365  0.0936
  289SOL    HW110441   3.494   9.761   1.154  0.1955 -0.9227 -1.5175
  289SOL    HW210442   3.343   9.822   1.158 -0.0090 -1.4373 -1.3795
  290SOL     OW10443   2.389   9.125   2.423 -0.5538 -0.0227 -0.1862
  290SOL    HW110444   2.449   9.046   2.423 -2.3558 -1.4211 -1.6926
  290SOL    HW210445   2.310   9.107   2.482 -1.3118  0.3939 -1.0697
  291SOL     OW10446   2.261   9.382   0.365 -0.4819 -0.3531  0.6044
  291SOL    HW110447   2.259   9.316   0.439  0.4368 -2.0305 -0.8515
  291SOL    HW210448   2.172   9.428   0.359 -1.5941 -2.4538  0.7373
  292SOL     OW10449   3.220   8.879   1.326  0.1723 -0.1753 -0.3802
  292SOL    HW110450   3.216   8.782   1.304  1.3951 -0.9615  2.6118
  292SOL    HW210451   3.136   8.906   1.372  0.8021 -0.3762  0.8902
  293SOL     OW10452   3.968   1.014   0.236  0.4452 -0.4289  0.6310
  293SOL    HW110453   3.878   1.030   0.277 -0.4132  1.2953 -1.8326
  293SOL    HW210454   3.965   0.930   0.182  0.6318 -0.9220  1.3745
  294SOL     OW10455   2.077   0.106   1.196 -0.2583  0.2858 -0.2587
  294SOL    HW110456   2.040   0.027   1.244  0.6128  1.0802  1.7674
  294SOL    HW210457   2.004   0.153   1.146 -1.0053 -1.0392 -0.4332
  295SOL     OW10458   8.629   2.801   0.928  0.2345  0.2623  0.1232
  295SOL    HW110459   8.684   2.777   0.848 -0.4936 -1.4631  0.1161
  295SOL    HW210460   8.544   2.747   0.927  0.0914  0.4217  1.9197
  296SOL     OW10461   3.475   8.691   0.519 -0.4728 -0.1839 -0.8103
  296SOL    HW110462   3.531   8.760   0.565 -0.1159 -0.6165 -0.5951
  296SOL    HW210463   3.522   8.660   0.436 -0.2654 -0.7460 -0.4841
  297SOL     OW10464   2.615   9.768   2.316  0.1808 -0.7429 -0.7021
  297SOL    HW110465   2.672   9.743   2.395 -1.1613 -0.0869  0.4921
  297SOL    HW210466   2.558   9.690   2.290 -0.5069 -0.4620 -0.0367
  298SOL     OW10467   2.889   0.174   0.297 -0.0923 -0.3504 -0.0271
  298SOL    HW110468   2.803   0.138   0.259 -0.1869  0.0977 -0.2353
  298SOL    HW210469   2.873   0.206   0.390 -0.6151  1.5595 -0.7526
  299SOL     OW10470   4.003   0.289   0.354  0.4757  0.1439 -0.0936
  299SOL    HW110471   3.973   0.213   0.297 -0.6166  1.5711 -1.4861
  299SOL    HW210472   3.971   0.276   0.448 -0.4026 -0.7180 -0.5025
  300SOL     OW10473   2.459   9.600   0.345 -0.4419  0.8515 -0.1316
  300SOL    HW110474   2.399   9.605   0.264 -0.9172 -1.1549  0.0903
  300SOL    HW210475   2.418   9.541   0.413  0.4093  1.8199  1.2445
  301SOL     OW10476   3.132   8.957   1.044 -0.3104  0.2256 -0.0862
  301SOL    HW110477   3.213   8.988   0.995 -1.2504  2.6607 -0.1650
  301SOL    HW210478   3.157   8.937   1.139  0.5240  0.2673 -0.2902
  302SOL     OW10479   3.617   9.064   1.885 -0.7152 -0.3366  0.2540
  302SOL    HW110480   3.652   8.973   1.863 -0.9231 -0.4914  0.5438
  302SOL    HW210481   3.646   9.090   1.977  0.5257  0.4924 -0.3592
  303SOL     OW10482   4.449   0.178   1.432  0.0812  0.0815 -0.1325
  303SOL    HW110483   4.463   0.104   1.498  0.5591  0.1515 -0.1494
  303SOL    HW210484   4.437   0.264   1.481 -0.7627 -0.0522 -0.1050
  304SOL     OW10485   4.475   0.148   0.660  0.1855 -0.7272  1.2216
  304SOL    HW110486   4.456   0.147   0.758  0.8719 -0.4068  1.3571
  304SOL    HW210487   4.515   0.236   0.635  0.5570 -1.0283  0.7563
  305SOL     OW10488   4.281   9.703   0.803 -0.3036  0.3905  0.5621
  305SOL    HW110489   4.195   9.735   0.764  0.2080  0.7424 -0.2913
  305SOL    HW210490   4.357   9.727   0.742  0.2223 -1.3793  0.4934
  306SOL     OW10491   3.008   8.480   0.314  0.5842 -0.8856  0.6584
  306SOL    HW110492   3.103   8.474   0.346  0.3655 -2.8208  1.0169
  306SOL    HW210493   2.953   8.410   0.360 -0.3699 -1.7853 -1.7848
  307SOL     OW10494   2.578   8.892   2.403 -0.1570  0.8357 -0.0011
  307SOL    HW110495   2.663   8.918   2.358 -0.4112  1.4448 -0.1372
  307SOL    HW210496   2.513   8.856   2.336  0.6103 -1.2779  0.3545
  308SOL     OW10497   4.424   0.432   2.545 -0.0119 -0.2397 -0.5065
  308SOL    HW110498   4.432   0.511   2.484  2.4679  0.7668  1.0481
  308SOL    HW210499   4.358   0.451   2.617  0.5629  0.4013 -0.1500
  309SOL     OW10500   4.000   0.598   2.090 -0.4384 -0.8709  0.4680
  309SOL    HW110501   4.031   0.617   1.997  0.2924 -0.9930  0.6854
  309SOL    HW210502   3.926   0.662   2.113 -0.9975 -1.1987 -0.3830
  310SOL     OW10503   4.116   0.568   1.467 -0.7362  0.5062 -0.2458
  310SOL    HW110504   4.215   0.572   1.455 -0.5290 -1.1355  0.8261
  310SOL    HW210505   4.079   0.490   1.417 -1.2353 -0.0042  0.9159
  311SOL     OW10506   2.783   0.344   0.090  0.3649  0.3494  0.0012
  311SOL    HW110507   2.776   0.328  -0.009 -1.2720 -0.5485  0.2276
  311SOL    HW210508   2.826   0.265   0.134  1.9591  1.1534 -0.0925
  312SOL     OW10509   3.915   1.809   2.127 -0.0451  0.5564  0.3062
  312SOL    HW110510   3.966   1.744   2.184 -2.1088 -1.7645 -0.3990
  312SOL    HW210511   3.867   1.874   2.186  0.6987  0.4157  1.0804
  313SOL     OW10512   2.458   9.709   1.938 -0.8066  0.4570  0.3505
  313SOL    HW110513   2.444   9.610   1.943 -0.8109  0.4958  1.0530
  313SOL    HW210514   2.391   9.756   1.994 -0.6023  0.8472  0.2706
  314SOL     OW10515   4.142   9.483   2.561 -0.2665 -0.4619 -0.3463
  314SOL    HW110516   4.178   9.573   2.536  3.0848 -1.7688 -0.3712
  314SOL    HW210517   4.131   9.478   2.660 -0.0620 -0.1747 -0.3099
  315SOL     OW10518   3.476   9.802   1.577 -0.0384 -0.6270  0.3258
  315SOL    HW110519   3.565   9.844   1.561  0.0038 -1.4175 -1.6448
  315SOL    HW210520   3.405   9.855   1.532 -0.3039 -1.1954  0.0628
  316SOL     OW10521   2.227   9.501   1.300 -0.0639  0.5199  0.9404
  316SOL    HW110522   2.245   9.488   1.397  0.4987  0.0022  0.7710
  316SOL    HW210523   2.225   9.598   1.278 -0.5417  0.6402  1.5372
  10.00000  10.00000   2.87800
